Protein in INSANE! Membrane UpperLeaflet>POPC=1.0 LowerLeaflet>POPC=1.0
248046
   14AUC    AUC    1   9.436  24.095   7.501
   15AUC    AUC    2   9.681  24.095   7.349
   16AUC    AUC    3   9.681  24.095   7.652
   17AUC    AUC    4   9.190  24.095   7.349
   18AUC    AUC    5   9.190  24.095   7.652
   19AUC    AUC    6   9.284  24.340   7.501
   20AUC    AUC    7   9.587  24.340   7.501
   21AUC    AUC    8   9.284  23.849   7.501
   22AUC    AUC    9   9.587  23.849   7.501
   23AUC    AUC   10   9.436  23.943   7.746
   24AUC    AUC   11   9.436  24.246   7.746
   25AUC    AUC   12   9.436  23.943   7.255
   26AUC    AUC   13   9.436  24.246   7.255
   27AUC    AUC   14   9.927  24.095   7.197
   28AUC    AUC   15   9.927  24.095   7.501
   29AUC    AUC   16   9.927  24.095   7.804
   30AUC    AUC   17   8.945  24.095   7.197
   31AUC    AUC   18   8.945  24.095   7.501
   32AUC    AUC   19   8.945  24.095   7.804
   33AUC    AUC   20   9.132  24.585   7.501
   34AUC    AUC   21   9.436  24.585   7.501
   35AUC    AUC   22   9.739  24.585   7.501
   36AUC    AUC   23   9.132  23.604   7.501
   37AUC    AUC   24   9.436  23.604   7.501
   38AUC    AUC   25   9.739  23.604   7.501
   39AUC    AUC   26   9.436  23.791   7.991
   40AUC    AUC   27   9.436  24.095   7.991
   41AUC    AUC   28   9.436  24.398   7.991
   42AUC    AUC   29   9.436  23.791   7.010
   43AUC    AUC   30   9.436  24.095   7.010
   44AUC    AUC   31   9.436  24.398   7.010
   45AUC    AUC   32   9.681  23.943   7.898
   46AUC    AUC   33   9.681  24.246   7.898
   47AUC    AUC   34   9.681  23.943   7.103
   48AUC    AUC   35   9.681  24.246   7.103
   49AUC    AUC   36   9.190  23.943   7.898
   50AUC    AUC   37   9.190  24.246   7.898
   51AUC    AUC   38   9.190  23.943   7.103
   52AUC    AUC   39   9.190  24.246   7.103
   53AUC    AUC   40   9.833  24.340   7.349
   54AUC    AUC   41   9.833  24.340   7.652
   55AUC    AUC   42   9.039  24.340   7.349
   56AUC    AUC   43   9.039  24.340   7.652
   57AUC    AUC   44   9.833  23.849   7.349
   58AUC    AUC   45   9.833  23.849   7.652
   59AUC    AUC   46   9.039  23.849   7.349
   60AUC    AUC   47   9.039  23.849   7.652
   61AUC    AUC   48   9.284  24.492   7.746
   62AUC    AUC   49   9.587  24.492   7.746
   63AUC    AUC   50   9.284  23.698   7.746
   64AUC    AUC   51   9.587  23.698   7.746
   65AUC    AUC   52   9.284  24.492   7.255
   66AUC    AUC   53   9.587  24.492   7.255
   67AUC    AUC   54   9.284  23.698   7.255
   68AUC    AUC   55   9.587  23.698   7.255
   69AUSL   AUS   56   9.845  24.095   8.081
   70AUSL   AUS   57   9.701  23.678   8.011
   71AUL    AUL   58   9.927  23.791   8.295
   72THSLK    S   59   9.828  23.490   8.163
   73ETHY    C1   60   9.986  23.169   8.456
   74ETHY    C1   61  10.234  22.856   8.845
   75THSLK    S   62   9.950  24.055   8.333
   76ETHY    C1   63  10.193  23.988   8.720
   77ETHY    C1   64  10.486  24.007   9.194
   78AUSL   AUS   65   9.599  23.943   8.174
   79AUSL   AUS   66   9.272  24.246   8.174
   80AUL    AUL   67   9.436  24.095   8.482
   81THSLK    S   68   9.686  23.897   8.426
   82ETHY    C1   69   9.799  23.756   8.852
   83ETHY    C1   70   9.948  23.685   9.385
   84THSLK    S   71   9.184  24.215   8.439
   85ETHY    C1   72   9.079  24.226   8.889
   86ETHY    C1   73   8.929  24.334   9.415
   87AUSL   AUS   74   9.599  24.246   8.174
   88AUSL   AUS   75   9.946  24.359   7.917
   89AUL    AUL   76   9.927  24.398   8.295
   90THSLK    S   77   9.687  24.292   8.426
   91ETHY    C1   78   9.793  24.432   8.854
   92ETHY    C1   79   9.943  24.504   9.386
   93THSLK    S   80  10.126  24.475   8.082
   94ETHY    C1   81  10.471  24.610   8.358
   95ETHY    C1   82  10.846  24.864   8.683
   96AUSL   AUS   83   9.845  24.095   6.921
   97AUSL   AUS   84   9.701  24.511   6.990
   98AUL    AUL   85   9.927  24.398   6.706
   99THSLK    S   86   9.951  24.055   6.668
  100ETHY    C1   87  10.188  23.988   6.278
  101ETHY    C1   88  10.481  24.007   5.804
  102THSLK    S   89   9.876  24.639   6.816
  103ETHY    C1   90  10.107  24.857   6.480
  104ETHY    C1   91  10.333  25.199   6.102
  105AUSL   AUS   92   9.599  23.943   6.827
  106AUSL   AUS   93   9.946  23.830   7.084
  107AUL    AUL   94   9.927  23.791   6.706
  108THSLK    S   95  10.092  23.643   6.932
  109ETHY    C1   96  10.376  23.389   6.670
  110ETHY    C1   97  10.768  23.169   6.340
  111THSLK    S   98   9.687  23.897   6.575
  112ETHY    C1   99   9.793  23.757   6.147
  113ETHY    C1  100   9.943  23.685   5.615
  114AUSL   AUS  101   9.599  24.246   6.827
  115AUSL   AUS  102   9.272  23.943   6.827
  116AUL    AUL  103   9.436  24.095   6.519
  117THSLK    S  104   9.172  23.897   6.579
  118ETHY    C1  105   9.038  23.759   6.158
  119ETHY    C1  106   8.895  23.687   5.624
  120THSLK    S  107   9.700  24.214   6.566
  121ETHY    C1  108   9.827  24.223   6.121
  122ETHY    C1  109   9.971  24.332   5.594
  123AUSL   AUS  110   9.027  24.095   8.081
  124AUSL   AUS  111   9.171  24.511   8.011
  125AUL    AUL  112   8.945  24.398   8.295
  126THSLK    S  113   8.921  24.055   8.333
  127ETHY    C1  114   8.684  23.988   8.723
  128ETHY    C1  115   8.390  24.007   9.197
  129THSLK    S  116   9.043  24.653   8.202
  130ETHY    C1  117   8.890  24.898   8.563
  131ETHY    C1  118   8.642  25.233   8.933
  132AUSL   AUS  119   9.272  23.943   8.174
  133AUSL   AUS  120   8.926  23.830   7.917
  134AUL    AUL  121   8.945  23.791   8.295
  135THSLK    S  122   8.745  23.662   8.043
  136ETHY    C1  123   8.404  23.436   8.259
  137ETHY    C1  124   8.028  23.208   8.602
  138THSLK    S  125   9.172  23.897   8.422
  139ETHY    C1  126   9.044  23.758   8.844
  140ETHY    C1  127   8.900  23.686   9.378
  141AUSL   AUS  128   9.027  24.095   6.921
  142AUSL   AUS  129   9.171  23.678   6.990
  143AUL    AUL  130   8.945  23.791   6.706
  144THSLK    S  131   8.922  24.055   6.668
  145ETHY    C1  132   8.678  23.988   6.281
  146ETHY    C1  133   8.386  24.007   5.807
  147THSLK    S  134   8.997  23.504   6.855
  148ETHY    C1  135   8.760  23.211   6.587
  149ETHY    C1  136   8.535  22.890   6.190
  150AUSL   AUS  137   9.272  24.246   6.827
  151AUSL   AUS  138   8.926  24.359   7.084
  152AUL    AUL  139   8.945  24.398   6.706
  153THSLK    S  140   8.780  24.494   6.894
  154ETHY    C1  141   8.491  24.658   6.572
  155ETHY    C1  142   8.100  24.903   6.259
  156THSLK    S  143   9.185  24.215   6.562
  157ETHY    C1  144   9.072  24.225   6.114
  158ETHY    C1  145   8.924  24.333   5.587
  159AUSL   AUS  146  10.016  24.504   7.501
  160AUSL   AUS  147   9.946  24.359   7.084
  161AUL    AUL  148  10.230  24.585   7.197
  162THSLK    S  149  10.126  24.476   6.920
  163ETHY    C1  150  10.467  24.609   6.638
  164ETHY    C1  151  10.843  24.863   6.314
  165THSLK    S  152  10.289  24.575   7.501
  166ETHY    C1  153  10.713  24.759   7.497
  167ETHY    C1  154  11.177  25.068   7.498
  168AUSL   AUS  155  10.110  24.258   7.349
  169AUSL   AUS  156  10.110  23.931   7.652
  170AUL    AUL  157  10.417  24.095   7.501
  171THSLK    S  158  10.377  24.313   7.341
  172ETHY    C1  159  10.829  24.369   7.262
  173ETHY    C1  160  11.354  24.534   7.172
  174THSLK    S  161  10.356  23.799   7.659
  175ETHY    C1  162  10.773  23.614   7.728
  176ETHY    C1  163  11.309  23.486   7.820
  177AUSL   AUS  164  10.110  24.258   7.652
  178AUSL   AUS  165   9.852  24.605   7.765
  179AUL    AUL  166  10.230  24.585   7.804
  180THSLK    S  167  10.038  24.740   7.925
  181ETHY    C1  168  10.354  25.008   8.128
  182ETHY    C1  169  10.669  25.405   8.362
  183THSLK    S  170  10.377  24.313   7.661
  184ETHY    C1  171  10.829  24.369   7.733
  185ETHY    C1  172  11.355  24.534   7.824
  186AUSL   AUS  173   8.856  24.504   7.501
  187AUSL   AUS  174   8.926  24.359   7.917
  188AUL    AUL  175   8.642  24.585   7.804
  189THSLK    S  176   8.779  24.494   8.107
  190ETHY    C1  177   8.495  24.663   8.430
  191ETHY    C1  178   8.103  24.908   8.743
  192THSLK    S  179   8.625  24.642   7.501
  193ETHY    C1  180   8.271  24.940   7.497
  194ETHY    C1  181   7.787  25.217   7.498
  195AUSL   AUS  182   8.762  24.258   7.349
  196AUSL   AUS  183   9.019  24.605   7.236
  197AUL    AUL  184   8.642  24.585   7.197
  198THSLK    S  185   8.516  24.368   7.307
  199ETHY    C1  186   8.098  24.513   7.173
  200ETHY    C1  187   7.563  24.653   7.099
  201THSLK    S  188   8.888  24.774   7.056
  202ETHY    C1  189   8.664  25.096   6.812
  203ETHY    C1  190   8.324  25.478   6.589
  204AUSL   AUS  191   8.762  24.258   7.652
  205AUSL   AUS  192   8.762  23.931   7.349
  206AUL    AUL  193   8.454  24.095   7.501
  207THSLK    S  194   8.495  23.853   7.377
  208ETHY    C1  195   8.042  23.764   7.359
  209ETHY    C1  196   7.517  23.609   7.252
  210THSLK    S  197   8.516  24.368   7.694
  211ETHY    C1  198   8.099  24.519   7.825
  212ETHY    C1  199   7.564  24.657   7.900
  213AUSL   AUS  200  10.016  23.686   7.501
  214AUSL   AUS  201   9.946  23.830   7.917
  215AUL    AUL  202  10.230  23.604   7.804
  216THSLK    S  203  10.247  23.547   7.501
  217ETHY    C1  204  10.601  23.249   7.497
  218ETHY    C1  205  11.085  22.972   7.498
  219THSLK    S  206  10.092  23.643   8.070
  220ETHY    C1  207  10.380  23.388   8.326
  221ETHY    C1  208  10.772  23.168   8.657
  222AUSL   AUS  209  10.110  23.931   7.349
  223AUSL   AUS  210   9.852  23.584   7.236
  224AUL    AUL  211  10.230  23.604   7.197
  225THSLK    S  212  10.356  23.799   7.343
  226ETHY    C1  213  10.772  23.614   7.266
  227ETHY    C1  214  11.308  23.486   7.176
  228THSLK    S  215   9.984  23.393   7.092
  229ETHY    C1  216  10.205  23.032   6.907
  230ETHY    C1  217  10.546  22.662   6.667
  231AUSL   AUS  218   8.856  23.686   7.501
  232AUSL   AUS  219   8.926  23.830   7.084
  233AUL    AUL  220   8.642  23.604   7.197
  234THSLK    S  221   8.746  23.662   6.958
  235ETHY    C1  222   8.400  23.442   6.743
  236ETHY    C1  223   8.025  23.212   6.400
  237THSLK    S  224   8.583  23.614   7.501
  238ETHY    C1  225   8.159  23.431   7.497
  239ETHY    C1  226   7.695  23.121   7.498
  240AUSL   AUS  227   8.762  23.931   7.652
  241AUSL   AUS  228   9.019  23.584   7.765
  242AUL    AUL  229   8.642  23.604   7.804
  243THSLK    S  230   8.833  23.427   7.889
  244ETHY    C1  231   8.520  23.121   8.033
  245ETHY    C1  232   8.205  22.734   8.284
  246THSLK    S  233   8.495  23.854   7.625
  247ETHY    C1  234   8.043  23.758   7.639
  248ETHY    C1  235   7.518  23.605   7.746
  249AUSL   AUS  236   9.436  24.675   7.910
  250AUSL   AUS  237   9.019  24.605   7.765
  251AUL    AUL  238   9.132  24.889   7.991
  252THSLK    S  239   8.888  24.773   7.945
  253ETHY    C1  240   8.667  25.101   8.185
  254ETHY    C1  241   8.326  25.481   8.409
  255THSLK    S  242   9.470  24.916   8.033
  256ETHY    C1  243   9.528  25.288   8.301
  257ETHY    C1  244   9.512  25.767   8.586
  258AUSL   AUS  245   9.284  24.768   7.664
  259AUSL   AUS  246   9.587  24.768   7.337
  260AUL    AUL  247   9.436  25.076   7.501
  261THSLK    S  248   9.315  25.028   7.770
  262ETHY    C1  249   9.305  25.469   7.907
  263ETHY    C1  250   9.196  25.998   8.048
  264THSLK    S  251   9.632  25.017   7.235
  265ETHY    C1  252   9.770  25.435   7.097
  266ETHY    C1  253   9.842  25.970   6.955
  267AUSL   AUS  254   9.587  24.768   7.664
  268AUSL   AUS  255   9.701  24.511   8.011
  269AUL    AUL  256   9.739  24.889   7.991
  270THSLK    S  257   9.875  24.639   8.185
  271ETHY    C1  258  10.111  24.858   8.517
  272ETHY    C1  259  10.337  25.200   8.895
  273THSLK    S  260   9.632  25.016   7.767
  274ETHY    C1  261   9.771  25.437   7.898
  275ETHY    C1  262   9.844  25.971   8.041
  276AUSL   AUS  263   9.436  23.515   7.910
  277AUSL   AUS  264   9.852  23.584   7.765
  278AUL    AUL  265   9.739  23.300   7.991
  279THSLK    S  266   9.402  23.251   7.997
  280ETHY    C1  267   9.347  22.842   8.205
  281ETHY    C1  268   9.362  22.374   8.507
  282THSLK    S  269   9.984  23.393   7.910
  283ETHY    C1  270  10.207  23.031   8.089
  284ETHY    C1  271  10.548  22.661   8.330
  285AUSL   AUS  272   9.284  23.421   7.664
  286AUSL   AUS  273   9.171  23.678   8.011
  287AUL    AUL  274   9.132  23.300   7.991
  288THSLK    S  275   9.239  23.168   7.746
  289ETHY    C1  276   9.102  22.737   7.843
  290ETHY    C1  277   9.029  22.205   7.996
  291THSLK    S  278   8.996  23.504   8.146
  292ETHY    C1  279   8.765  23.206   8.413
  293ETHY    C1  280   8.538  22.886   8.810
  294AUSL   AUS  281   9.587  23.421   7.664
  295AUSL   AUS  282   9.284  23.421   7.337
  296AUL    AUL  283   9.436  23.113   7.501
  297THSLK    S  284   9.239  23.168   7.255
  298ETHY    C1  285   9.100  22.739   7.152
  299ETHY    C1  286   9.028  22.207   7.001
  300THSLK    S  287   9.556  23.156   7.750
  301ETHY    C1  288   9.569  22.705   7.852
  302ETHY    C1  289   9.677  22.179   8.003
  303AUSL   AUS  290   9.436  24.675   7.092
  304AUSL   AUS  291   9.852  24.605   7.236
  305AUL    AUL  292   9.739  24.889   7.010
  306THSLK    S  293   9.470  24.916   6.969
  307ETHY    C1  294   9.525  25.285   6.696
  308ETHY    C1  295   9.509  25.764   6.412
  309THSLK    S  296  10.039  24.740   7.077
  310ETHY    C1  297  10.352  25.007   6.868
  311ETHY    C1  298  10.667  25.404   6.634
  312AUSL   AUS  299   9.284  24.768   7.337
  313AUSL   AUS  300   9.171  24.511   6.990
  314AUL    AUL  301   9.132  24.889   7.010
  315THSLK    S  302   9.315  25.029   7.232
  316ETHY    C1  303   9.303  25.467   7.088
  317ETHY    C1  304   9.195  25.996   6.948
  318THSLK    S  305   9.044  24.654   6.799
  319ETHY    C1  306   8.886  24.894   6.437
  320ETHY    C1  307   8.638  25.229   6.067
  321AUSL   AUS  308   9.436  23.515   7.092
  322AUSL   AUS  309   9.019  23.584   7.236
  323AUL    AUL  310   9.132  23.300   7.010
  324THSLK    S  311   8.833  23.427   7.113
  325ETHY    C1  312   8.517  23.125   6.964
  326ETHY    C1  313   8.203  22.738   6.714
  327THSLK    S  314   9.402  23.251   7.004
  328ETHY    C1  315   9.343  22.846   6.791
  329ETHY    C1  316   9.360  22.376   6.490
  330AUSL   AUS  317   9.587  23.421   7.337
  331AUSL   AUS  318   9.701  23.678   6.990
  332AUL    AUL  319   9.739  23.300   7.010
  333THSLK    S  320   9.557  23.155   7.252
  334ETHY    C1  321   9.567  22.707   7.143
  335ETHY    C1  322   9.675  22.180   6.993
  336THSLK    S  323   9.829  23.489   6.839
  337ETHY    C1  324   9.981  23.171   6.541
  338ETHY    C1  325  10.230  22.857   6.152
  339AUC    AUC  326   9.562  34.855   7.501
  340AUC    AUC  327   9.807  34.855   7.349
  341AUC    AUC  328   9.807  34.855   7.652
  342AUC    AUC  329   9.316  34.855   7.349
  343AUC    AUC  330   9.316  34.855   7.652
  344AUC    AUC  331   9.410  35.100   7.501
  345AUC    AUC  332   9.713  35.100   7.501
  346AUC    AUC  333   9.410  34.609   7.501
  347AUC    AUC  334   9.713  34.609   7.501
  348AUC    AUC  335   9.562  34.703   7.746
  349AUC    AUC  336   9.562  35.006   7.746
  350AUC    AUC  337   9.562  34.703   7.255
  351AUC    AUC  338   9.562  35.006   7.255
  352AUC    AUC  339  10.053  34.855   7.197
  353AUC    AUC  340  10.053  34.855   7.501
  354AUC    AUC  341  10.053  34.855   7.804
  355AUC    AUC  342   9.071  34.855   7.197
  356AUC    AUC  343   9.071  34.855   7.501
  357AUC    AUC  344   9.071  34.855   7.804
  358AUC    AUC  345   9.258  35.345   7.501
  359AUC    AUC  346   9.562  35.345   7.501
  360AUC    AUC  347   9.865  35.345   7.501
  361AUC    AUC  348   9.258  34.364   7.501
  362AUC    AUC  349   9.562  34.364   7.501
  363AUC    AUC  350   9.865  34.364   7.501
  364AUC    AUC  351   9.562  34.551   7.991
  365AUC    AUC  352   9.562  34.855   7.991
  366AUC    AUC  353   9.562  35.158   7.991
  367AUC    AUC  354   9.562  34.551   7.010
  368AUC    AUC  355   9.562  34.855   7.010
  369AUC    AUC  356   9.562  35.158   7.010
  370AUC    AUC  357   9.807  34.703   7.898
  371AUC    AUC  358   9.807  35.006   7.898
  372AUC    AUC  359   9.807  34.703   7.103
  373AUC    AUC  360   9.807  35.006   7.103
  374AUC    AUC  361   9.316  34.703   7.898
  375AUC    AUC  362   9.316  35.006   7.898
  376AUC    AUC  363   9.316  34.703   7.103
  377AUC    AUC  364   9.316  35.006   7.103
  378AUC    AUC  365   9.959  35.100   7.349
  379AUC    AUC  366   9.959  35.100   7.652
  380AUC    AUC  367   9.165  35.100   7.349
  381AUC    AUC  368   9.165  35.100   7.652
  382AUC    AUC  369   9.959  34.609   7.349
  383AUC    AUC  370   9.959  34.609   7.652
  384AUC    AUC  371   9.165  34.609   7.349
  385AUC    AUC  372   9.165  34.609   7.652
  386AUC    AUC  373   9.410  35.252   7.746
  387AUC    AUC  374   9.713  35.252   7.746
  388AUC    AUC  375   9.410  34.458   7.746
  389AUC    AUC  376   9.713  34.458   7.746
  390AUC    AUC  377   9.410  35.252   7.255
  391AUC    AUC  378   9.713  35.252   7.255
  392AUC    AUC  379   9.410  34.458   7.255
  393AUC    AUC  380   9.713  34.458   7.255
  394AUSL   AUS  381   9.971  34.855   8.081
  395AUSL   AUS  382   9.827  34.438   8.011
  396AUL    AUL  383  10.053  34.551   8.295
  397THSLK    S  384   9.954  34.250   8.163
  398ETHY    C1  385  10.112  33.929   8.456
  399ETHY    C1  386  10.360  33.616   8.845
  400THSLK    S  387  10.076  34.815   8.333
  401ETHY    C1  388  10.319  34.748   8.720
  402ETHY    C1  389  10.612  34.767   9.194
  403AUSL   AUS  390   9.725  34.703   8.174
  404AUSL   AUS  391   9.398  35.006   8.174
  405AUL    AUL  392   9.562  34.855   8.482
  406THSLK    S  393   9.812  34.657   8.426
  407ETHY    C1  394   9.925  34.516   8.852
  408ETHY    C1  395  10.074  34.445   9.385
  409THSLK    S  396   9.310  34.975   8.439
  410ETHY    C1  397   9.205  34.986   8.889
  411ETHY    C1  398   9.055  35.094   9.415
  412AUSL   AUS  399   9.725  35.006   8.174
  413AUSL   AUS  400  10.072  35.119   7.917
  414AUL    AUL  401  10.053  35.158   8.295
  415THSLK    S  402   9.813  35.052   8.426
  416ETHY    C1  403   9.919  35.192   8.854
  417ETHY    C1  404  10.069  35.264   9.386
  418THSLK    S  405  10.252  35.235   8.082
  419ETHY    C1  406  10.597  35.370   8.358
  420ETHY    C1  407  10.972  35.624   8.683
  421AUSL   AUS  408   9.971  34.855   6.921
  422AUSL   AUS  409   9.827  35.271   6.990
  423AUL    AUL  410  10.053  35.158   6.706
  424THSLK    S  411  10.077  34.815   6.668
  425ETHY    C1  412  10.314  34.748   6.278
  426ETHY    C1  413  10.607  34.767   5.804
  427THSLK    S  414  10.002  35.399   6.816
  428ETHY    C1  415  10.233  35.617   6.480
  429ETHY    C1  416  10.459  35.959   6.102
  430AUSL   AUS  417   9.725  34.703   6.827
  431AUSL   AUS  418  10.072  34.590   7.084
  432AUL    AUL  419  10.053  34.551   6.706
  433THSLK    S  420  10.218  34.403   6.932
  434ETHY    C1  421  10.502  34.149   6.670
  435ETHY    C1  422  10.894  33.929   6.340
  436THSLK    S  423   9.813  34.657   6.575
  437ETHY    C1  424   9.919  34.517   6.147
  438ETHY    C1  425  10.069  34.445   5.615
  439AUSL   AUS  426   9.725  35.006   6.827
  440AUSL   AUS  427   9.398  34.703   6.827
  441AUL    AUL  428   9.562  34.855   6.519
  442THSLK    S  429   9.298  34.657   6.579
  443ETHY    C1  430   9.164  34.519   6.158
  444ETHY    C1  431   9.021  34.447   5.624
  445THSLK    S  432   9.826  34.974   6.566
  446ETHY    C1  433   9.953  34.983   6.121
  447ETHY    C1  434  10.097  35.092   5.594
  448AUSL   AUS  435   9.153  34.855   8.081
  449AUSL   AUS  436   9.297  35.271   8.011
  450AUL    AUL  437   9.071  35.158   8.295
  451THSLK    S  438   9.047  34.815   8.333
  452ETHY    C1  439   8.810  34.748   8.723
  453ETHY    C1  440   8.516  34.767   9.197
  454THSLK    S  441   9.169  35.413   8.202
  455ETHY    C1  442   9.016  35.658   8.563
  456ETHY    C1  443   8.768  35.993   8.933
  457AUSL   AUS  444   9.398  34.703   8.174
  458AUSL   AUS  445   9.052  34.590   7.917
  459AUL    AUL  446   9.071  34.551   8.295
  460THSLK    S  447   8.871  34.422   8.043
  461ETHY    C1  448   8.530  34.196   8.259
  462ETHY    C1  449   8.154  33.968   8.602
  463THSLK    S  450   9.298  34.657   8.422
  464ETHY    C1  451   9.170  34.518   8.844
  465ETHY    C1  452   9.026  34.446   9.378
  466AUSL   AUS  453   9.153  34.855   6.921
  467AUSL   AUS  454   9.297  34.438   6.990
  468AUL    AUL  455   9.071  34.551   6.706
  469THSLK    S  456   9.048  34.815   6.668
  470ETHY    C1  457   8.804  34.748   6.281
  471ETHY    C1  458   8.512  34.767   5.807
  472THSLK    S  459   9.123  34.264   6.855
  473ETHY    C1  460   8.886  33.971   6.587
  474ETHY    C1  461   8.661  33.650   6.190
  475AUSL   AUS  462   9.398  35.006   6.827
  476AUSL   AUS  463   9.052  35.119   7.084
  477AUL    AUL  464   9.071  35.158   6.706
  478THSLK    S  465   8.906  35.254   6.894
  479ETHY    C1  466   8.617  35.418   6.572
  480ETHY    C1  467   8.226  35.663   6.259
  481THSLK    S  468   9.311  34.975   6.562
  482ETHY    C1  469   9.198  34.985   6.114
  483ETHY    C1  470   9.050  35.093   5.587
  484AUSL   AUS  471  10.142  35.264   7.501
  485AUSL   AUS  472  10.072  35.119   7.084
  486AUL    AUL  473  10.356  35.345   7.197
  487THSLK    S  474  10.252  35.236   6.920
  488ETHY    C1  475  10.593  35.369   6.638
  489ETHY    C1  476  10.969  35.623   6.314
  490THSLK    S  477  10.415  35.335   7.501
  491ETHY    C1  478  10.839  35.519   7.497
  492ETHY    C1  479  11.303  35.828   7.498
  493AUSL   AUS  480  10.236  35.018   7.349
  494AUSL   AUS  481  10.236  34.691   7.652
  495AUL    AUL  482  10.543  34.855   7.501
  496THSLK    S  483  10.503  35.073   7.341
  497ETHY    C1  484  10.955  35.129   7.262
  498ETHY    C1  485  11.480  35.294   7.172
  499THSLK    S  486  10.482  34.559   7.659
  500ETHY    C1  487  10.899  34.374   7.728
  501ETHY    C1  488  11.435  34.246   7.820
  502AUSL   AUS  489  10.236  35.018   7.652
  503AUSL   AUS  490   9.978  35.365   7.765
  504AUL    AUL  491  10.356  35.345   7.804
  505THSLK    S  492  10.164  35.500   7.925
  506ETHY    C1  493  10.480  35.768   8.128
  507ETHY    C1  494  10.795  36.165   8.362
  508THSLK    S  495  10.503  35.073   7.661
  509ETHY    C1  496  10.955  35.129   7.733
  510ETHY    C1  497  11.481  35.294   7.824
  511AUSL   AUS  498   8.982  35.264   7.501
  512AUSL   AUS  499   9.052  35.119   7.917
  513AUL    AUL  500   8.768  35.345   7.804
  514THSLK    S  501   8.905  35.254   8.107
  515ETHY    C1  502   8.621  35.423   8.430
  516ETHY    C1  503   8.229  35.668   8.743
  517THSLK    S  504   8.751  35.402   7.501
  518ETHY    C1  505   8.397  35.700   7.497
  519ETHY    C1  506   7.913  35.977   7.498
  520AUSL   AUS  507   8.888  35.018   7.349
  521AUSL   AUS  508   9.145  35.365   7.236
  522AUL    AUL  509   8.768  35.345   7.197
  523THSLK    S  510   8.642  35.128   7.307
  524ETHY    C1  511   8.224  35.273   7.173
  525ETHY    C1  512   7.689  35.413   7.099
  526THSLK    S  513   9.014  35.534   7.056
  527ETHY    C1  514   8.790  35.856   6.812
  528ETHY    C1  515   8.450  36.238   6.589
  529AUSL   AUS  516   8.888  35.018   7.652
  530AUSL   AUS  517   8.888  34.691   7.349
  531AUL    AUL  518   8.580  34.855   7.501
  532THSLK    S  519   8.621  34.613   7.377
  533ETHY    C1  520   8.168  34.524   7.359
  534ETHY    C1  521   7.643  34.369   7.252
  535THSLK    S  522   8.642  35.128   7.694
  536ETHY    C1  523   8.225  35.279   7.825
  537ETHY    C1  524   7.690  35.417   7.900
  538AUSL   AUS  525  10.142  34.446   7.501
  539AUSL   AUS  526  10.072  34.590   7.917
  540AUL    AUL  527  10.356  34.364   7.804
  541THSLK    S  528  10.373  34.307   7.501
  542ETHY    C1  529  10.727  34.009   7.497
  543ETHY    C1  530  11.211  33.732   7.498
  544THSLK    S  531  10.218  34.403   8.070
  545ETHY    C1  532  10.506  34.148   8.326
  546ETHY    C1  533  10.898  33.928   8.657
  547AUSL   AUS  534  10.236  34.691   7.349
  548AUSL   AUS  535   9.978  34.344   7.236
  549AUL    AUL  536  10.356  34.364   7.197
  550THSLK    S  537  10.482  34.559   7.343
  551ETHY    C1  538  10.898  34.374   7.266
  552ETHY    C1  539  11.434  34.246   7.176
  553THSLK    S  540  10.110  34.153   7.092
  554ETHY    C1  541  10.331  33.792   6.907
  555ETHY    C1  542  10.672  33.422   6.667
  556AUSL   AUS  543   8.982  34.446   7.501
  557AUSL   AUS  544   9.052  34.590   7.084
  558AUL    AUL  545   8.768  34.364   7.197
  559THSLK    S  546   8.872  34.422   6.958
  560ETHY    C1  547   8.526  34.202   6.743
  561ETHY    C1  548   8.151  33.972   6.400
  562THSLK    S  549   8.709  34.374   7.501
  563ETHY    C1  550   8.285  34.191   7.497
  564ETHY    C1  551   7.821  33.881   7.498
  565AUSL   AUS  552   8.888  34.691   7.652
  566AUSL   AUS  553   9.145  34.344   7.765
  567AUL    AUL  554   8.768  34.364   7.804
  568THSLK    S  555   8.959  34.187   7.889
  569ETHY    C1  556   8.646  33.881   8.033
  570ETHY    C1  557   8.331  33.494   8.284
  571THSLK    S  558   8.621  34.614   7.625
  572ETHY    C1  559   8.169  34.518   7.639
  573ETHY    C1  560   7.644  34.365   7.746
  574AUSL   AUS  561   9.562  35.435   7.910
  575AUSL   AUS  562   9.145  35.365   7.765
  576AUL    AUL  563   9.258  35.649   7.991
  577THSLK    S  564   9.014  35.533   7.945
  578ETHY    C1  565   8.793  35.861   8.185
  579ETHY    C1  566   8.452  36.241   8.409
  580THSLK    S  567   9.596  35.676   8.033
  581ETHY    C1  568   9.654  36.048   8.301
  582ETHY    C1  569   9.638  36.527   8.586
  583AUSL   AUS  570   9.410  35.528   7.664
  584AUSL   AUS  571   9.713  35.528   7.337
  585AUL    AUL  572   9.562  35.836   7.501
  586THSLK    S  573   9.441  35.788   7.770
  587ETHY    C1  574   9.431  36.229   7.907
  588ETHY    C1  575   9.322  36.758   8.048
  589THSLK    S  576   9.758  35.777   7.235
  590ETHY    C1  577   9.896  36.195   7.097
  591ETHY    C1  578   9.968  36.730   6.955
  592AUSL   AUS  579   9.713  35.528   7.664
  593AUSL   AUS  580   9.827  35.271   8.011
  594AUL    AUL  581   9.865  35.649   7.991
  595THSLK    S  582  10.001  35.399   8.185
  596ETHY    C1  583  10.237  35.618   8.517
  597ETHY    C1  584  10.463  35.960   8.895
  598THSLK    S  585   9.758  35.776   7.767
  599ETHY    C1  586   9.897  36.197   7.898
  600ETHY    C1  587   9.970  36.731   8.041
  601AUSL   AUS  588   9.562  34.275   7.910
  602AUSL   AUS  589   9.978  34.344   7.765
  603AUL    AUL  590   9.865  34.060   7.991
  604THSLK    S  591   9.528  34.011   7.997
  605ETHY    C1  592   9.473  33.602   8.205
  606ETHY    C1  593   9.488  33.134   8.507
  607THSLK    S  594  10.110  34.153   7.910
  608ETHY    C1  595  10.333  33.791   8.089
  609ETHY    C1  596  10.674  33.421   8.330
  610AUSL   AUS  597   9.410  34.181   7.664
  611AUSL   AUS  598   9.297  34.438   8.011
  612AUL    AUL  599   9.258  34.060   7.991
  613THSLK    S  600   9.365  33.928   7.746
  614ETHY    C1  601   9.228  33.497   7.843
  615ETHY    C1  602   9.155  32.965   7.996
  616THSLK    S  603   9.122  34.264   8.146
  617ETHY    C1  604   8.891  33.966   8.413
  618ETHY    C1  605   8.664  33.646   8.810
  619AUSL   AUS  606   9.713  34.181   7.664
  620AUSL   AUS  607   9.410  34.181   7.337
  621AUL    AUL  608   9.562  33.873   7.501
  622THSLK    S  609   9.365  33.928   7.255
  623ETHY    C1  610   9.226  33.499   7.152
  624ETHY    C1  611   9.154  32.967   7.001
  625THSLK    S  612   9.682  33.916   7.750
  626ETHY    C1  613   9.695  33.465   7.852
  627ETHY    C1  614   9.803  32.939   8.003
  628AUSL   AUS  615   9.562  35.435   7.092
  629AUSL   AUS  616   9.978  35.365   7.236
  630AUL    AUL  617   9.865  35.649   7.010
  631THSLK    S  618   9.596  35.676   6.969
  632ETHY    C1  619   9.651  36.045   6.696
  633ETHY    C1  620   9.635  36.524   6.412
  634THSLK    S  621  10.165  35.500   7.077
  635ETHY    C1  622  10.478  35.767   6.868
  636ETHY    C1  623  10.793  36.164   6.634
  637AUSL   AUS  624   9.410  35.528   7.337
  638AUSL   AUS  625   9.297  35.271   6.990
  639AUL    AUL  626   9.258  35.649   7.010
  640THSLK    S  627   9.441  35.789   7.232
  641ETHY    C1  628   9.429  36.227   7.088
  642ETHY    C1  629   9.321  36.756   6.948
  643THSLK    S  630   9.170  35.414   6.799
  644ETHY    C1  631   9.012  35.654   6.437
  645ETHY    C1  632   8.764  35.989   6.067
  646AUSL   AUS  633   9.562  34.275   7.092
  647AUSL   AUS  634   9.145  34.344   7.236
  648AUL    AUL  635   9.258  34.060   7.010
  649THSLK    S  636   8.959  34.187   7.113
  650ETHY    C1  637   8.643  33.885   6.964
  651ETHY    C1  638   8.329  33.498   6.714
  652THSLK    S  639   9.528  34.011   7.004
  653ETHY    C1  640   9.469  33.606   6.791
  654ETHY    C1  641   9.486  33.136   6.490
  655AUSL   AUS  642   9.713  34.181   7.337
  656AUSL   AUS  643   9.827  34.438   6.990
  657AUL    AUL  644   9.865  34.060   7.010
  658THSLK    S  645   9.683  33.915   7.252
  659ETHY    C1  646   9.693  33.467   7.143
  660ETHY    C1  647   9.801  32.940   6.993
  661THSLK    S  648   9.955  34.249   6.839
  662ETHY    C1  649  10.107  33.931   6.541
  663ETHY    C1  650  10.356  33.617   6.152
  664AUC    AUC  651  25.714  -0.486   7.501
  665AUC    AUC  652  25.959  -0.486   7.349
  666AUC    AUC  653  25.959  -0.486   7.652
  667AUC    AUC  654  25.468  -0.486   7.349
  668AUC    AUC  655  25.468  -0.486   7.652
  669AUC    AUC  656  25.562  -0.241   7.501
  670AUC    AUC  657  25.865  -0.241   7.501
  671AUC    AUC  658  25.562  -0.732   7.501
  672AUC    AUC  659  25.865  -0.732   7.501
  673AUC    AUC  660  25.714  -0.638   7.746
  674AUC    AUC  661  25.714  -0.335   7.746
  675AUC    AUC  662  25.714  -0.638   7.255
  676AUC    AUC  663  25.714  -0.335   7.255
  677AUC    AUC  664  26.205  -0.486   7.197
  678AUC    AUC  665  26.205  -0.486   7.501
  679AUC    AUC  666  26.205  -0.486   7.804
  680AUC    AUC  667  25.223  -0.486   7.197
  681AUC    AUC  668  25.223  -0.486   7.501
  682AUC    AUC  669  25.223  -0.486   7.804
  683AUC    AUC  670  25.410   0.004   7.501
  684AUC    AUC  671  25.714   0.004   7.501
  685AUC    AUC  672  26.017   0.004   7.501
  686AUC    AUC  673  25.410  -0.977   7.501
  687AUC    AUC  674  25.714  -0.977   7.501
  688AUC    AUC  675  26.017  -0.977   7.501
  689AUC    AUC  676  25.714  -0.790   7.991
  690AUC    AUC  677  25.714  -0.486   7.991
  691AUC    AUC  678  25.714  -0.183   7.991
  692AUC    AUC  679  25.714  -0.790   7.010
  693AUC    AUC  680  25.714  -0.486   7.010
  694AUC    AUC  681  25.714  -0.183   7.010
  695AUC    AUC  682  25.959  -0.638   7.898
  696AUC    AUC  683  25.959  -0.335   7.898
  697AUC    AUC  684  25.959  -0.638   7.103
  698AUC    AUC  685  25.959  -0.335   7.103
  699AUC    AUC  686  25.468  -0.638   7.898
  700AUC    AUC  687  25.468  -0.335   7.898
  701AUC    AUC  688  25.468  -0.638   7.103
  702AUC    AUC  689  25.468  -0.335   7.103
  703AUC    AUC  690  26.111  -0.241   7.349
  704AUC    AUC  691  26.111  -0.241   7.652
  705AUC    AUC  692  25.317  -0.241   7.349
  706AUC    AUC  693  25.317  -0.241   7.652
  707AUC    AUC  694  26.111  -0.732   7.349
  708AUC    AUC  695  26.111  -0.732   7.652
  709AUC    AUC  696  25.317  -0.732   7.349
  710AUC    AUC  697  25.317  -0.732   7.652
  711AUC    AUC  698  25.562  -0.089   7.746
  712AUC    AUC  699  25.865  -0.089   7.746
  713AUC    AUC  700  25.562  -0.883   7.746
  714AUC    AUC  701  25.865  -0.883   7.746
  715AUC    AUC  702  25.562  -0.089   7.255
  716AUC    AUC  703  25.865  -0.089   7.255
  717AUC    AUC  704  25.562  -0.883   7.255
  718AUC    AUC  705  25.865  -0.883   7.255
  719AUSL   AUS  706  26.123  -0.486   8.081
  720AUSL   AUS  707  25.979  -0.903   8.011
  721AUL    AUL  708  26.205  -0.790   8.295
  722THSLK    S  709  26.106  -1.091   8.163
  723ETHY    C1  710  26.264  -1.412   8.456
  724ETHY    C1  711  26.512  -1.725   8.845
  725THSLK    S  712  26.228  -0.526   8.333
  726ETHY    C1  713  26.471  -0.593   8.720
  727ETHY    C1  714  26.764  -0.574   9.194
  728AUSL   AUS  715  25.877  -0.638   8.174
  729AUSL   AUS  716  25.550  -0.335   8.174
  730AUL    AUL  717  25.714  -0.486   8.482
  731THSLK    S  718  25.964  -0.684   8.426
  732ETHY    C1  719  26.077  -0.825   8.852
  733ETHY    C1  720  26.226  -0.896   9.385
  734THSLK    S  721  25.462  -0.366   8.439
  735ETHY    C1  722  25.357  -0.355   8.889
  736ETHY    C1  723  25.207  -0.247   9.415
  737AUSL   AUS  724  25.877  -0.335   8.174
  738AUSL   AUS  725  26.224  -0.222   7.917
  739AUL    AUL  726  26.205  -0.183   8.295
  740THSLK    S  727  25.965  -0.289   8.426
  741ETHY    C1  728  26.071  -0.149   8.854
  742ETHY    C1  729  26.221  -0.077   9.386
  743THSLK    S  730  26.404  -0.106   8.082
  744ETHY    C1  731  26.749   0.029   8.358
  745ETHY    C1  732  27.124   0.283   8.683
  746AUSL   AUS  733  26.123  -0.486   6.921
  747AUSL   AUS  734  25.979  -0.070   6.990
  748AUL    AUL  735  26.205  -0.183   6.706
  749THSLK    S  736  26.229  -0.526   6.668
  750ETHY    C1  737  26.466  -0.593   6.278
  751ETHY    C1  738  26.759  -0.574   5.804
  752THSLK    S  739  26.154   0.058   6.816
  753ETHY    C1  740  26.385   0.276   6.480
  754ETHY    C1  741  26.611   0.618   6.102
  755AUSL   AUS  742  25.877  -0.638   6.827
  756AUSL   AUS  743  26.224  -0.751   7.084
  757AUL    AUL  744  26.205  -0.790   6.706
  758THSLK    S  745  26.370  -0.938   6.932
  759ETHY    C1  746  26.654  -1.192   6.670
  760ETHY    C1  747  27.046  -1.412   6.340
  761THSLK    S  748  25.965  -0.684   6.575
  762ETHY    C1  749  26.071  -0.824   6.147
  763ETHY    C1  750  26.221  -0.896   5.615
  764AUSL   AUS  751  25.877  -0.335   6.827
  765AUSL   AUS  752  25.550  -0.638   6.827
  766AUL    AUL  753  25.714  -0.486   6.519
  767THSLK    S  754  25.450  -0.684   6.579
  768ETHY    C1  755  25.316  -0.822   6.158
  769ETHY    C1  756  25.173  -0.894   5.624
  770THSLK    S  757  25.978  -0.367   6.566
  771ETHY    C1  758  26.105  -0.358   6.121
  772ETHY    C1  759  26.249  -0.249   5.594
  773AUSL   AUS  760  25.305  -0.486   8.081
  774AUSL   AUS  761  25.449  -0.070   8.011
  775AUL    AUL  762  25.223  -0.183   8.295
  776THSLK    S  763  25.199  -0.526   8.333
  777ETHY    C1  764  24.962  -0.593   8.723
  778ETHY    C1  765  24.668  -0.574   9.197
  779THSLK    S  766  25.321   0.072   8.202
  780ETHY    C1  767  25.168   0.317   8.563
  781ETHY    C1  768  24.920   0.652   8.933
  782AUSL   AUS  769  25.550  -0.638   8.174
  783AUSL   AUS  770  25.204  -0.751   7.917
  784AUL    AUL  771  25.223  -0.790   8.295
  785THSLK    S  772  25.023  -0.919   8.043
  786ETHY    C1  773  24.682  -1.145   8.259
  787ETHY    C1  774  24.306  -1.373   8.602
  788THSLK    S  775  25.450  -0.684   8.422
  789ETHY    C1  776  25.322  -0.823   8.844
  790ETHY    C1  777  25.178  -0.895   9.378
  791AUSL   AUS  778  25.305  -0.486   6.921
  792AUSL   AUS  779  25.449  -0.903   6.990
  793AUL    AUL  780  25.223  -0.790   6.706
  794THSLK    S  781  25.200  -0.526   6.668
  795ETHY    C1  782  24.956  -0.593   6.281
  796ETHY    C1  783  24.664  -0.574   5.807
  797THSLK    S  784  25.275  -1.077   6.855
  798ETHY    C1  785  25.038  -1.370   6.587
  799ETHY    C1  786  24.813  -1.691   6.190
  800AUSL   AUS  787  25.550  -0.335   6.827
  801AUSL   AUS  788  25.204  -0.222   7.084
  802AUL    AUL  789  25.223  -0.183   6.706
  803THSLK    S  790  25.058  -0.087   6.894
  804ETHY    C1  791  24.769   0.077   6.572
  805ETHY    C1  792  24.378   0.322   6.259
  806THSLK    S  793  25.463  -0.366   6.562
  807ETHY    C1  794  25.350  -0.356   6.114
  808ETHY    C1  795  25.202  -0.248   5.587
  809AUSL   AUS  796  26.294  -0.077   7.501
  810AUSL   AUS  797  26.224  -0.222   7.084
  811AUL    AUL  798  26.508   0.004   7.197
  812THSLK    S  799  26.404  -0.105   6.920
  813ETHY    C1  800  26.745   0.028   6.638
  814ETHY    C1  801  27.121   0.282   6.314
  815THSLK    S  802  26.567  -0.006   7.501
  816ETHY    C1  803  26.991   0.178   7.497
  817ETHY    C1  804  27.455   0.487   7.498
  818AUSL   AUS  805  26.388  -0.323   7.349
  819AUSL   AUS  806  26.388  -0.650   7.652
  820AUL    AUL  807  26.695  -0.486   7.501
  821THSLK    S  808  26.655  -0.268   7.341
  822ETHY    C1  809  27.107  -0.212   7.262
  823ETHY    C1  810  27.632  -0.047   7.172
  824THSLK    S  811  26.634  -0.782   7.659
  825ETHY    C1  812  27.051  -0.967   7.728
  826ETHY    C1  813  27.587  -1.095   7.820
  827AUSL   AUS  814  26.388  -0.323   7.652
  828AUSL   AUS  815  26.130   0.024   7.765
  829AUL    AUL  816  26.508   0.004   7.804
  830THSLK    S  817  26.316   0.159   7.925
  831ETHY    C1  818  26.632   0.427   8.128
  832ETHY    C1  819  26.947   0.824   8.362
  833THSLK    S  820  26.655  -0.268   7.661
  834ETHY    C1  821  27.107  -0.212   7.733
  835ETHY    C1  822  27.633  -0.047   7.824
  836AUSL   AUS  823  25.134  -0.077   7.501
  837AUSL   AUS  824  25.204  -0.222   7.917
  838AUL    AUL  825  24.920   0.004   7.804
  839THSLK    S  826  25.057  -0.087   8.107
  840ETHY    C1  827  24.773   0.082   8.430
  841ETHY    C1  828  24.381   0.327   8.743
  842THSLK    S  829  24.903   0.061   7.501
  843ETHY    C1  830  24.549   0.359   7.497
  844ETHY    C1  831  24.065   0.636   7.498
  845AUSL   AUS  832  25.040  -0.323   7.349
  846AUSL   AUS  833  25.297   0.024   7.236
  847AUL    AUL  834  24.920   0.004   7.197
  848THSLK    S  835  24.794  -0.213   7.307
  849ETHY    C1  836  24.376  -0.068   7.173
  850ETHY    C1  837  23.841   0.072   7.099
  851THSLK    S  838  25.166   0.193   7.056
  852ETHY    C1  839  24.942   0.515   6.812
  853ETHY    C1  840  24.602   0.897   6.589
  854AUSL   AUS  841  25.040  -0.323   7.652
  855AUSL   AUS  842  25.040  -0.650   7.349
  856AUL    AUL  843  24.732  -0.486   7.501
  857THSLK    S  844  24.773  -0.728   7.377
  858ETHY    C1  845  24.320  -0.817   7.359
  859ETHY    C1  846  23.795  -0.972   7.252
  860THSLK    S  847  24.794  -0.213   7.694
  861ETHY    C1  848  24.377  -0.062   7.825
  862ETHY    C1  849  23.842   0.076   7.900
  863AUSL   AUS  850  26.294  -0.895   7.501
  864AUSL   AUS  851  26.224  -0.751   7.917
  865AUL    AUL  852  26.508  -0.977   7.804
  866THSLK    S  853  26.525  -1.034   7.501
  867ETHY    C1  854  26.879  -1.332   7.497
  868ETHY    C1  855  27.363  -1.609   7.498
  869THSLK    S  856  26.370  -0.938   8.070
  870ETHY    C1  857  26.658  -1.193   8.326
  871ETHY    C1  858  27.050  -1.413   8.657
  872AUSL   AUS  859  26.388  -0.650   7.349
  873AUSL   AUS  860  26.130  -0.997   7.236
  874AUL    AUL  861  26.508  -0.977   7.197
  875THSLK    S  862  26.634  -0.782   7.343
  876ETHY    C1  863  27.050  -0.967   7.266
  877ETHY    C1  864  27.586  -1.095   7.176
  878THSLK    S  865  26.262  -1.188   7.092
  879ETHY    C1  866  26.483  -1.549   6.907
  880ETHY    C1  867  26.824  -1.919   6.667
  881AUSL   AUS  868  25.134  -0.895   7.501
  882AUSL   AUS  869  25.204  -0.751   7.084
  883AUL    AUL  870  24.920  -0.977   7.197
  884THSLK    S  871  25.024  -0.919   6.958
  885ETHY    C1  872  24.678  -1.139   6.743
  886ETHY    C1  873  24.303  -1.369   6.400
  887THSLK    S  874  24.861  -0.967   7.501
  888ETHY    C1  875  24.437  -1.150   7.497
  889ETHY    C1  876  23.973  -1.460   7.498
  890AUSL   AUS  877  25.040  -0.650   7.652
  891AUSL   AUS  878  25.297  -0.997   7.765
  892AUL    AUL  879  24.920  -0.977   7.804
  893THSLK    S  880  25.111  -1.154   7.889
  894ETHY    C1  881  24.798  -1.460   8.033
  895ETHY    C1  882  24.483  -1.847   8.284
  896THSLK    S  883  24.773  -0.727   7.625
  897ETHY    C1  884  24.321  -0.823   7.639
  898ETHY    C1  885  23.796  -0.976   7.746
  899AUSL   AUS  886  25.714   0.094   7.910
  900AUSL   AUS  887  25.297   0.024   7.765
  901AUL    AUL  888  25.410   0.308   7.991
  902THSLK    S  889  25.166   0.192   7.945
  903ETHY    C1  890  24.945   0.520   8.185
  904ETHY    C1  891  24.604   0.900   8.409
  905THSLK    S  892  25.748   0.335   8.033
  906ETHY    C1  893  25.806   0.707   8.301
  907ETHY    C1  894  25.790   1.186   8.586
  908AUSL   AUS  895  25.562   0.187   7.664
  909AUSL   AUS  896  25.865   0.187   7.337
  910AUL    AUL  897  25.714   0.495   7.501
  911THSLK    S  898  25.593   0.447   7.770
  912ETHY    C1  899  25.583   0.888   7.907
  913ETHY    C1  900  25.474   1.417   8.048
  914THSLK    S  901  25.910   0.436   7.235
  915ETHY    C1  902  26.048   0.854   7.097
  916ETHY    C1  903  26.120   1.389   6.955
  917AUSL   AUS  904  25.865   0.187   7.664
  918AUSL   AUS  905  25.979  -0.070   8.011
  919AUL    AUL  906  26.017   0.308   7.991
  920THSLK    S  907  26.153   0.058   8.185
  921ETHY    C1  908  26.389   0.277   8.517
  922ETHY    C1  909  26.615   0.619   8.895
  923THSLK    S  910  25.910   0.435   7.767
  924ETHY    C1  911  26.049   0.856   7.898
  925ETHY    C1  912  26.122   1.390   8.041
  926AUSL   AUS  913  25.714  -1.066   7.910
  927AUSL   AUS  914  26.130  -0.997   7.765
  928AUL    AUL  915  26.017  -1.281   7.991
  929THSLK    S  916  25.680  -1.330   7.997
  930ETHY    C1  917  25.625  -1.739   8.205
  931ETHY    C1  918  25.640  -2.207   8.507
  932THSLK    S  919  26.262  -1.188   7.910
  933ETHY    C1  920  26.485  -1.550   8.089
  934ETHY    C1  921  26.826  -1.920   8.330
  935AUSL   AUS  922  25.562  -1.160   7.664
  936AUSL   AUS  923  25.449  -0.903   8.011
  937AUL    AUL  924  25.410  -1.281   7.991
  938THSLK    S  925  25.517  -1.413   7.746
  939ETHY    C1  926  25.380  -1.844   7.843
  940ETHY    C1  927  25.307  -2.376   7.996
  941THSLK    S  928  25.274  -1.077   8.146
  942ETHY    C1  929  25.043  -1.375   8.413
  943ETHY    C1  930  24.816  -1.695   8.810
  944AUSL   AUS  931  25.865  -1.160   7.664
  945AUSL   AUS  932  25.562  -1.160   7.337
  946AUL    AUL  933  25.714  -1.468   7.501
  947THSLK    S  934  25.517  -1.413   7.255
  948ETHY    C1  935  25.378  -1.842   7.152
  949ETHY    C1  936  25.306  -2.374   7.001
  950THSLK    S  937  25.834  -1.425   7.750
  951ETHY    C1  938  25.847  -1.876   7.852
  952ETHY    C1  939  25.955  -2.402   8.003
  953AUSL   AUS  940  25.714   0.094   7.092
  954AUSL   AUS  941  26.130   0.024   7.236
  955AUL    AUL  942  26.017   0.308   7.010
  956THSLK    S  943  25.748   0.335   6.969
  957ETHY    C1  944  25.803   0.704   6.696
  958ETHY    C1  945  25.787   1.183   6.412
  959THSLK    S  946  26.317   0.159   7.077
  960ETHY    C1  947  26.630   0.426   6.868
  961ETHY    C1  948  26.945   0.823   6.634
  962AUSL   AUS  949  25.562   0.187   7.337
  963AUSL   AUS  950  25.449  -0.070   6.990
  964AUL    AUL  951  25.410   0.308   7.010
  965THSLK    S  952  25.593   0.448   7.232
  966ETHY    C1  953  25.581   0.886   7.088
  967ETHY    C1  954  25.473   1.415   6.948
  968THSLK    S  955  25.322   0.073   6.799
  969ETHY    C1  956  25.164   0.313   6.437
  970ETHY    C1  957  24.916   0.648   6.067
  971AUSL   AUS  958  25.714  -1.066   7.092
  972AUSL   AUS  959  25.297  -0.997   7.236
  973AUL    AUL  960  25.410  -1.281   7.010
  974THSLK    S  961  25.111  -1.154   7.113
  975ETHY    C1  962  24.795  -1.456   6.964
  976ETHY    C1  963  24.481  -1.843   6.714
  977THSLK    S  964  25.680  -1.330   7.004
  978ETHY    C1  965  25.621  -1.735   6.791
  979ETHY    C1  966  25.638  -2.205   6.490
  980AUSL   AUS  967  25.865  -1.160   7.337
  981AUSL   AUS  968  25.979  -0.903   6.990
  982AUL    AUL  969  26.017  -1.281   7.010
  983THSLK    S  970  25.835  -1.426   7.252
  984ETHY    C1  971  25.845  -1.874   7.143
  985ETHY    C1  972  25.953  -2.401   6.993
  986THSLK    S  973  26.107  -1.092   6.839
  987ETHY    C1  974  26.259  -1.410   6.541
  988ETHY    C1  975  26.508  -1.724   6.152
  989AUC    AUC  976  32.087  42.890   7.501
  990AUC    AUC  977  32.332  42.890   7.349
  991AUC    AUC  978  32.332  42.890   7.652
  992AUC    AUC  979  31.841  42.890   7.349
  993AUC    AUC  980  31.841  42.890   7.652
  994AUC    AUC  981  31.935  43.135   7.501
  995AUC    AUC  982  32.238  43.135   7.501
  996AUC    AUC  983  31.935  42.644   7.501
  997AUC    AUC  984  32.238  42.644   7.501
  998AUC    AUC  985  32.087  42.738   7.746
  999AUC    AUC  986  32.087  43.041   7.746
 1000AUC    AUC  987  32.087  42.738   7.255
 1001AUC    AUC  988  32.087  43.041   7.255
 1002AUC    AUC  989  32.578  42.890   7.197
 1003AUC    AUC  990  32.578  42.890   7.501
 1004AUC    AUC  991  32.578  42.890   7.804
 1005AUC    AUC  992  31.596  42.890   7.197
 1006AUC    AUC  993  31.596  42.890   7.501
 1007AUC    AUC  994  31.596  42.890   7.804
 1008AUC    AUC  995  31.783  43.380   7.501
 1009AUC    AUC  996  32.087  43.380   7.501
 1010AUC    AUC  997  32.390  43.380   7.501
 1011AUC    AUC  998  31.783  42.399   7.501
 1012AUC    AUC  999  32.087  42.399   7.501
 1013AUC    AUC 1000  32.390  42.399   7.501
 1014AUC    AUC 1001  32.087  42.586   7.991
 1015AUC    AUC 1002  32.087  42.890   7.991
 1016AUC    AUC 1003  32.087  43.193   7.991
 1017AUC    AUC 1004  32.087  42.586   7.010
 1018AUC    AUC 1005  32.087  42.890   7.010
 1019AUC    AUC 1006  32.087  43.193   7.010
 1020AUC    AUC 1007  32.332  42.738   7.898
 1021AUC    AUC 1008  32.332  43.041   7.898
 1022AUC    AUC 1009  32.332  42.738   7.103
 1023AUC    AUC 1010  32.332  43.041   7.103
 1024AUC    AUC 1011  31.841  42.738   7.898
 1025AUC    AUC 1012  31.841  43.041   7.898
 1026AUC    AUC 1013  31.841  42.738   7.103
 1027AUC    AUC 1014  31.841  43.041   7.103
 1028AUC    AUC 1015  32.484  43.135   7.349
 1029AUC    AUC 1016  32.484  43.135   7.652
 1030AUC    AUC 1017  31.690  43.135   7.349
 1031AUC    AUC 1018  31.690  43.135   7.652
 1032AUC    AUC 1019  32.484  42.644   7.349
 1033AUC    AUC 1020  32.484  42.644   7.652
 1034AUC    AUC 1021  31.690  42.644   7.349
 1035AUC    AUC 1022  31.690  42.644   7.652
 1036AUC    AUC 1023  31.935  43.287   7.746
 1037AUC    AUC 1024  32.238  43.287   7.746
 1038AUC    AUC 1025  31.935  42.493   7.746
 1039AUC    AUC 1026  32.238  42.493   7.746
 1040AUC    AUC 1027  31.935  43.287   7.255
 1041AUC    AUC 1028  32.238  43.287   7.255
 1042AUC    AUC 1029  31.935  42.493   7.255
 1043AUC    AUC 1030  32.238  42.493   7.255
 1044AUSL   AUS 1031  32.496  42.890   8.081
 1045AUSL   AUS 1032  32.352  42.473   8.011
 1046AUL    AUL 1033  32.578  42.586   8.295
 1047THSLK    S 1034  32.479  42.285   8.163
 1048ETHY    C1 1035  32.637  41.964   8.456
 1049ETHY    C1 1036  32.885  41.651   8.845
 1050THSLK    S 1037  32.601  42.850   8.333
 1051ETHY    C1 1038  32.844  42.783   8.720
 1052ETHY    C1 1039  33.137  42.802   9.194
 1053AUSL   AUS 1040  32.250  42.738   8.174
 1054AUSL   AUS 1041  31.923  43.041   8.174
 1055AUL    AUL 1042  32.087  42.890   8.482
 1056THSLK    S 1043  32.337  42.692   8.426
 1057ETHY    C1 1044  32.450  42.551   8.852
 1058ETHY    C1 1045  32.599  42.480   9.385
 1059THSLK    S 1046  31.835  43.010   8.439
 1060ETHY    C1 1047  31.730  43.021   8.889
 1061ETHY    C1 1048  31.580  43.129   9.415
 1062AUSL   AUS 1049  32.250  43.041   8.174
 1063AUSL   AUS 1050  32.597  43.154   7.917
 1064AUL    AUL 1051  32.578  43.193   8.295
 1065THSLK    S 1052  32.338  43.087   8.426
 1066ETHY    C1 1053  32.444  43.227   8.854
 1067ETHY    C1 1054  32.594  43.299   9.386
 1068THSLK    S 1055  32.777  43.270   8.082
 1069ETHY    C1 1056  33.122  43.405   8.358
 1070ETHY    C1 1057  33.497  43.659   8.683
 1071AUSL   AUS 1058  32.496  42.890   6.921
 1072AUSL   AUS 1059  32.352  43.306   6.990
 1073AUL    AUL 1060  32.578  43.193   6.706
 1074THSLK    S 1061  32.602  42.850   6.668
 1075ETHY    C1 1062  32.839  42.783   6.278
 1076ETHY    C1 1063  33.132  42.802   5.804
 1077THSLK    S 1064  32.527  43.434   6.816
 1078ETHY    C1 1065  32.758  43.652   6.480
 1079ETHY    C1 1066  32.984  43.994   6.102
 1080AUSL   AUS 1067  32.250  42.738   6.827
 1081AUSL   AUS 1068  32.597  42.625   7.084
 1082AUL    AUL 1069  32.578  42.586   6.706
 1083THSLK    S 1070  32.743  42.438   6.932
 1084ETHY    C1 1071  33.027  42.184   6.670
 1085ETHY    C1 1072  33.419  41.964   6.340
 1086THSLK    S 1073  32.338  42.692   6.575
 1087ETHY    C1 1074  32.444  42.552   6.147
 1088ETHY    C1 1075  32.594  42.480   5.615
 1089AUSL   AUS 1076  32.250  43.041   6.827
 1090AUSL   AUS 1077  31.923  42.738   6.827
 1091AUL    AUL 1078  32.087  42.890   6.519
 1092THSLK    S 1079  31.823  42.692   6.579
 1093ETHY    C1 1080  31.689  42.554   6.158
 1094ETHY    C1 1081  31.546  42.482   5.624
 1095THSLK    S 1082  32.351  43.009   6.566
 1096ETHY    C1 1083  32.478  43.018   6.121
 1097ETHY    C1 1084  32.622  43.127   5.594
 1098AUSL   AUS 1085  31.678  42.890   8.081
 1099AUSL   AUS 1086  31.822  43.306   8.011
 1100AUL    AUL 1087  31.596  43.193   8.295
 1101THSLK    S 1088  31.572  42.850   8.333
 1102ETHY    C1 1089  31.335  42.783   8.723
 1103ETHY    C1 1090  31.041  42.802   9.197
 1104THSLK    S 1091  31.694  43.448   8.202
 1105ETHY    C1 1092  31.541  43.693   8.563
 1106ETHY    C1 1093  31.293  44.028   8.933
 1107AUSL   AUS 1094  31.923  42.738   8.174
 1108AUSL   AUS 1095  31.577  42.625   7.917
 1109AUL    AUL 1096  31.596  42.586   8.295
 1110THSLK    S 1097  31.396  42.457   8.043
 1111ETHY    C1 1098  31.055  42.231   8.259
 1112ETHY    C1 1099  30.679  42.003   8.602
 1113THSLK    S 1100  31.823  42.692   8.422
 1114ETHY    C1 1101  31.695  42.553   8.844
 1115ETHY    C1 1102  31.551  42.481   9.378
 1116AUSL   AUS 1103  31.678  42.890   6.921
 1117AUSL   AUS 1104  31.822  42.473   6.990
 1118AUL    AUL 1105  31.596  42.586   6.706
 1119THSLK    S 1106  31.573  42.850   6.668
 1120ETHY    C1 1107  31.329  42.783   6.281
 1121ETHY    C1 1108  31.037  42.802   5.807
 1122THSLK    S 1109  31.648  42.299   6.855
 1123ETHY    C1 1110  31.411  42.006   6.587
 1124ETHY    C1 1111  31.186  41.685   6.190
 1125AUSL   AUS 1112  31.923  43.041   6.827
 1126AUSL   AUS 1113  31.577  43.154   7.084
 1127AUL    AUL 1114  31.596  43.193   6.706
 1128THSLK    S 1115  31.431  43.289   6.894
 1129ETHY    C1 1116  31.142  43.453   6.572
 1130ETHY    C1 1117  30.751  43.698   6.259
 1131THSLK    S 1118  31.836  43.010   6.562
 1132ETHY    C1 1119  31.723  43.020   6.114
 1133ETHY    C1 1120  31.575  43.128   5.587
 1134AUSL   AUS 1121  32.667  43.299   7.501
 1135AUSL   AUS 1122  32.597  43.154   7.084
 1136AUL    AUL 1123  32.881  43.380   7.197
 1137THSLK    S 1124  32.777  43.271   6.920
 1138ETHY    C1 1125  33.118  43.404   6.638
 1139ETHY    C1 1126  33.494  43.658   6.314
 1140THSLK    S 1127  32.940  43.370   7.501
 1141ETHY    C1 1128  33.364  43.554   7.497
 1142ETHY    C1 1129  33.828  43.863   7.498
 1143AUSL   AUS 1130  32.761  43.053   7.349
 1144AUSL   AUS 1131  32.761  42.726   7.652
 1145AUL    AUL 1132  33.068  42.890   7.501
 1146THSLK    S 1133  33.028  43.108   7.341
 1147ETHY    C1 1134  33.480  43.164   7.262
 1148ETHY    C1 1135  34.005  43.329   7.172
 1149THSLK    S 1136  33.007  42.594   7.659
 1150ETHY    C1 1137  33.424  42.409   7.728
 1151ETHY    C1 1138  33.960  42.281   7.820
 1152AUSL   AUS 1139  32.761  43.053   7.652
 1153AUSL   AUS 1140  32.503  43.400   7.765
 1154AUL    AUL 1141  32.881  43.380   7.804
 1155THSLK    S 1142  32.689  43.535   7.925
 1156ETHY    C1 1143  33.005  43.803   8.128
 1157ETHY    C1 1144  33.320  44.200   8.362
 1158THSLK    S 1145  33.028  43.108   7.661
 1159ETHY    C1 1146  33.480  43.164   7.733
 1160ETHY    C1 1147  34.006  43.329   7.824
 1161AUSL   AUS 1148  31.507  43.299   7.501
 1162AUSL   AUS 1149  31.577  43.154   7.917
 1163AUL    AUL 1150  31.293  43.380   7.804
 1164THSLK    S 1151  31.430  43.289   8.107
 1165ETHY    C1 1152  31.146  43.458   8.430
 1166ETHY    C1 1153  30.754  43.703   8.743
 1167THSLK    S 1154  31.276  43.437   7.501
 1168ETHY    C1 1155  30.922  43.735   7.497
 1169ETHY    C1 1156  30.438  44.012   7.498
 1170AUSL   AUS 1157  31.413  43.053   7.349
 1171AUSL   AUS 1158  31.670  43.400   7.236
 1172AUL    AUL 1159  31.293  43.380   7.197
 1173THSLK    S 1160  31.167  43.163   7.307
 1174ETHY    C1 1161  30.749  43.308   7.173
 1175ETHY    C1 1162  30.214  43.448   7.099
 1176THSLK    S 1163  31.539  43.569   7.056
 1177ETHY    C1 1164  31.315  43.891   6.812
 1178ETHY    C1 1165  30.975  44.273   6.589
 1179AUSL   AUS 1166  31.413  43.053   7.652
 1180AUSL   AUS 1167  31.413  42.726   7.349
 1181AUL    AUL 1168  31.105  42.890   7.501
 1182THSLK    S 1169  31.146  42.648   7.377
 1183ETHY    C1 1170  30.693  42.559   7.359
 1184ETHY    C1 1171  30.168  42.404   7.252
 1185THSLK    S 1172  31.167  43.163   7.694
 1186ETHY    C1 1173  30.750  43.314   7.825
 1187ETHY    C1 1174  30.215  43.452   7.900
 1188AUSL   AUS 1175  32.667  42.481   7.501
 1189AUSL   AUS 1176  32.597  42.625   7.917
 1190AUL    AUL 1177  32.881  42.399   7.804
 1191THSLK    S 1178  32.898  42.342   7.501
 1192ETHY    C1 1179  33.252  42.044   7.497
 1193ETHY    C1 1180  33.736  41.767   7.498
 1194THSLK    S 1181  32.743  42.438   8.070
 1195ETHY    C1 1182  33.031  42.183   8.326
 1196ETHY    C1 1183  33.423  41.963   8.657
 1197AUSL   AUS 1184  32.761  42.726   7.349
 1198AUSL   AUS 1185  32.503  42.379   7.236
 1199AUL    AUL 1186  32.881  42.399   7.197
 1200THSLK    S 1187  33.007  42.594   7.343
 1201ETHY    C1 1188  33.423  42.409   7.266
 1202ETHY    C1 1189  33.959  42.281   7.176
 1203THSLK    S 1190  32.635  42.188   7.092
 1204ETHY    C1 1191  32.856  41.827   6.907
 1205ETHY    C1 1192  33.197  41.457   6.667
 1206AUSL   AUS 1193  31.507  42.481   7.501
 1207AUSL   AUS 1194  31.577  42.625   7.084
 1208AUL    AUL 1195  31.293  42.399   7.197
 1209THSLK    S 1196  31.397  42.457   6.958
 1210ETHY    C1 1197  31.051  42.237   6.743
 1211ETHY    C1 1198  30.676  42.007   6.400
 1212THSLK    S 1199  31.234  42.409   7.501
 1213ETHY    C1 1200  30.810  42.226   7.497
 1214ETHY    C1 1201  30.346  41.916   7.498
 1215AUSL   AUS 1202  31.413  42.726   7.652
 1216AUSL   AUS 1203  31.670  42.379   7.765
 1217AUL    AUL 1204  31.293  42.399   7.804
 1218THSLK    S 1205  31.484  42.222   7.889
 1219ETHY    C1 1206  31.171  41.916   8.033
 1220ETHY    C1 1207  30.856  41.529   8.284
 1221THSLK    S 1208  31.146  42.649   7.625
 1222ETHY    C1 1209  30.694  42.553   7.639
 1223ETHY    C1 1210  30.169  42.400   7.746
 1224AUSL   AUS 1211  32.087  43.470   7.910
 1225AUSL   AUS 1212  31.670  43.400   7.765
 1226AUL    AUL 1213  31.783  43.684   7.991
 1227THSLK    S 1214  31.539  43.568   7.945
 1228ETHY    C1 1215  31.318  43.896   8.185
 1229ETHY    C1 1216  30.977  44.276   8.409
 1230THSLK    S 1217  32.121  43.711   8.033
 1231ETHY    C1 1218  32.179  44.083   8.301
 1232ETHY    C1 1219  32.163  44.562   8.586
 1233AUSL   AUS 1220  31.935  43.563   7.664
 1234AUSL   AUS 1221  32.238  43.563   7.337
 1235AUL    AUL 1222  32.087  43.871   7.501
 1236THSLK    S 1223  31.966  43.823   7.770
 1237ETHY    C1 1224  31.956  44.264   7.907
 1238ETHY    C1 1225  31.847  44.793   8.048
 1239THSLK    S 1226  32.283  43.812   7.235
 1240ETHY    C1 1227  32.421  44.230   7.097
 1241ETHY    C1 1228  32.493  44.765   6.955
 1242AUSL   AUS 1229  32.238  43.563   7.664
 1243AUSL   AUS 1230  32.352  43.306   8.011
 1244AUL    AUL 1231  32.390  43.684   7.991
 1245THSLK    S 1232  32.526  43.434   8.185
 1246ETHY    C1 1233  32.762  43.653   8.517
 1247ETHY    C1 1234  32.988  43.995   8.895
 1248THSLK    S 1235  32.283  43.811   7.767
 1249ETHY    C1 1236  32.422  44.232   7.898
 1250ETHY    C1 1237  32.495  44.766   8.041
 1251AUSL   AUS 1238  32.087  42.310   7.910
 1252AUSL   AUS 1239  32.503  42.379   7.765
 1253AUL    AUL 1240  32.390  42.095   7.991
 1254THSLK    S 1241  32.053  42.046   7.997
 1255ETHY    C1 1242  31.998  41.637   8.205
 1256ETHY    C1 1243  32.013  41.169   8.507
 1257THSLK    S 1244  32.635  42.188   7.910
 1258ETHY    C1 1245  32.858  41.826   8.089
 1259ETHY    C1 1246  33.199  41.456   8.330
 1260AUSL   AUS 1247  31.935  42.216   7.664
 1261AUSL   AUS 1248  31.822  42.473   8.011
 1262AUL    AUL 1249  31.783  42.095   7.991
 1263THSLK    S 1250  31.890  41.963   7.746
 1264ETHY    C1 1251  31.753  41.532   7.843
 1265ETHY    C1 1252  31.680  41.000   7.996
 1266THSLK    S 1253  31.647  42.299   8.146
 1267ETHY    C1 1254  31.416  42.001   8.413
 1268ETHY    C1 1255  31.189  41.681   8.810
 1269AUSL   AUS 1256  32.238  42.216   7.664
 1270AUSL   AUS 1257  31.935  42.216   7.337
 1271AUL    AUL 1258  32.087  41.908   7.501
 1272THSLK    S 1259  31.890  41.963   7.255
 1273ETHY    C1 1260  31.751  41.534   7.152
 1274ETHY    C1 1261  31.679  41.002   7.001
 1275THSLK    S 1262  32.207  41.951   7.750
 1276ETHY    C1 1263  32.220  41.500   7.852
 1277ETHY    C1 1264  32.328  40.974   8.003
 1278AUSL   AUS 1265  32.087  43.470   7.092
 1279AUSL   AUS 1266  32.503  43.400   7.236
 1280AUL    AUL 1267  32.390  43.684   7.010
 1281THSLK    S 1268  32.121  43.711   6.969
 1282ETHY    C1 1269  32.176  44.080   6.696
 1283ETHY    C1 1270  32.160  44.559   6.412
 1284THSLK    S 1271  32.690  43.535   7.077
 1285ETHY    C1 1272  33.003  43.802   6.868
 1286ETHY    C1 1273  33.318  44.199   6.634
 1287AUSL   AUS 1274  31.935  43.563   7.337
 1288AUSL   AUS 1275  31.822  43.306   6.990
 1289AUL    AUL 1276  31.783  43.684   7.010
 1290THSLK    S 1277  31.966  43.824   7.232
 1291ETHY    C1 1278  31.954  44.262   7.088
 1292ETHY    C1 1279  31.846  44.791   6.948
 1293THSLK    S 1280  31.695  43.449   6.799
 1294ETHY    C1 1281  31.537  43.689   6.437
 1295ETHY    C1 1282  31.289  44.024   6.067
 1296AUSL   AUS 1283  32.087  42.310   7.092
 1297AUSL   AUS 1284  31.670  42.379   7.236
 1298AUL    AUL 1285  31.783  42.095   7.010
 1299THSLK    S 1286  31.484  42.222   7.113
 1300ETHY    C1 1287  31.168  41.920   6.964
 1301ETHY    C1 1288  30.854  41.533   6.714
 1302THSLK    S 1289  32.053  42.046   7.004
 1303ETHY    C1 1290  31.994  41.641   6.791
 1304ETHY    C1 1291  32.011  41.171   6.490
 1305AUSL   AUS 1292  32.238  42.216   7.337
 1306AUSL   AUS 1293  32.352  42.473   6.990
 1307AUL    AUL 1294  32.390  42.095   7.010
 1308THSLK    S 1295  32.208  41.950   7.252
 1309ETHY    C1 1296  32.218  41.502   7.143
 1310ETHY    C1 1297  32.326  40.975   6.993
 1311THSLK    S 1298  32.480  42.284   6.839
 1312ETHY    C1 1299  32.632  41.966   6.541
 1313ETHY    C1 1300  32.881  41.652   6.152
 1314AUC    AUC 1301  15.874  38.989   7.501
 1315AUC    AUC 1302  16.119  38.989   7.349
 1316AUC    AUC 1303  16.119  38.989   7.652
 1317AUC    AUC 1304  15.628  38.989   7.349
 1318AUC    AUC 1305  15.628  38.989   7.652
 1319AUC    AUC 1306  15.722  39.234   7.501
 1320AUC    AUC 1307  16.025  39.234   7.501
 1321AUC    AUC 1308  15.722  38.743   7.501
 1322AUC    AUC 1309  16.025  38.743   7.501
 1323AUC    AUC 1310  15.874  38.837   7.746
 1324AUC    AUC 1311  15.874  39.140   7.746
 1325AUC    AUC 1312  15.874  38.837   7.255
 1326AUC    AUC 1313  15.874  39.140   7.255
 1327AUC    AUC 1314  16.365  38.989   7.197
 1328AUC    AUC 1315  16.365  38.989   7.501
 1329AUC    AUC 1316  16.365  38.989   7.804
 1330AUC    AUC 1317  15.383  38.989   7.197
 1331AUC    AUC 1318  15.383  38.989   7.501
 1332AUC    AUC 1319  15.383  38.989   7.804
 1333AUC    AUC 1320  15.570  39.479   7.501
 1334AUC    AUC 1321  15.874  39.479   7.501
 1335AUC    AUC 1322  16.177  39.479   7.501
 1336AUC    AUC 1323  15.570  38.498   7.501
 1337AUC    AUC 1324  15.874  38.498   7.501
 1338AUC    AUC 1325  16.177  38.498   7.501
 1339AUC    AUC 1326  15.874  38.685   7.991
 1340AUC    AUC 1327  15.874  38.989   7.991
 1341AUC    AUC 1328  15.874  39.292   7.991
 1342AUC    AUC 1329  15.874  38.685   7.010
 1343AUC    AUC 1330  15.874  38.989   7.010
 1344AUC    AUC 1331  15.874  39.292   7.010
 1345AUC    AUC 1332  16.119  38.837   7.898
 1346AUC    AUC 1333  16.119  39.140   7.898
 1347AUC    AUC 1334  16.119  38.837   7.103
 1348AUC    AUC 1335  16.119  39.140   7.103
 1349AUC    AUC 1336  15.628  38.837   7.898
 1350AUC    AUC 1337  15.628  39.140   7.898
 1351AUC    AUC 1338  15.628  38.837   7.103
 1352AUC    AUC 1339  15.628  39.140   7.103
 1353AUC    AUC 1340  16.271  39.234   7.349
 1354AUC    AUC 1341  16.271  39.234   7.652
 1355AUC    AUC 1342  15.477  39.234   7.349
 1356AUC    AUC 1343  15.477  39.234   7.652
 1357AUC    AUC 1344  16.271  38.743   7.349
 1358AUC    AUC 1345  16.271  38.743   7.652
 1359AUC    AUC 1346  15.477  38.743   7.349
 1360AUC    AUC 1347  15.477  38.743   7.652
 1361AUC    AUC 1348  15.722  39.386   7.746
 1362AUC    AUC 1349  16.025  39.386   7.746
 1363AUC    AUC 1350  15.722  38.592   7.746
 1364AUC    AUC 1351  16.025  38.592   7.746
 1365AUC    AUC 1352  15.722  39.386   7.255
 1366AUC    AUC 1353  16.025  39.386   7.255
 1367AUC    AUC 1354  15.722  38.592   7.255
 1368AUC    AUC 1355  16.025  38.592   7.255
 1369AUSL   AUS 1356  16.283  38.989   8.081
 1370AUSL   AUS 1357  16.139  38.572   8.011
 1371AUL    AUL 1358  16.365  38.685   8.295
 1372THSLK    S 1359  16.266  38.384   8.163
 1373ETHY    C1 1360  16.424  38.063   8.456
 1374ETHY    C1 1361  16.672  37.750   8.845
 1375THSLK    S 1362  16.388  38.949   8.333
 1376ETHY    C1 1363  16.631  38.882   8.720
 1377ETHY    C1 1364  16.924  38.901   9.194
 1378AUSL   AUS 1365  16.037  38.837   8.174
 1379AUSL   AUS 1366  15.710  39.140   8.174
 1380AUL    AUL 1367  15.874  38.989   8.482
 1381THSLK    S 1368  16.124  38.791   8.426
 1382ETHY    C1 1369  16.237  38.650   8.852
 1383ETHY    C1 1370  16.386  38.579   9.385
 1384THSLK    S 1371  15.622  39.109   8.439
 1385ETHY    C1 1372  15.517  39.120   8.889
 1386ETHY    C1 1373  15.367  39.228   9.415
 1387AUSL   AUS 1374  16.037  39.140   8.174
 1388AUSL   AUS 1375  16.384  39.253   7.917
 1389AUL    AUL 1376  16.365  39.292   8.295
 1390THSLK    S 1377  16.125  39.186   8.426
 1391ETHY    C1 1378  16.231  39.326   8.854
 1392ETHY    C1 1379  16.381  39.398   9.386
 1393THSLK    S 1380  16.564  39.369   8.082
 1394ETHY    C1 1381  16.909  39.504   8.358
 1395ETHY    C1 1382  17.284  39.758   8.683
 1396AUSL   AUS 1383  16.283  38.989   6.921
 1397AUSL   AUS 1384  16.139  39.405   6.990
 1398AUL    AUL 1385  16.365  39.292   6.706
 1399THSLK    S 1386  16.389  38.949   6.668
 1400ETHY    C1 1387  16.626  38.882   6.278
 1401ETHY    C1 1388  16.919  38.901   5.804
 1402THSLK    S 1389  16.314  39.533   6.816
 1403ETHY    C1 1390  16.545  39.751   6.480
 1404ETHY    C1 1391  16.771  40.093   6.102
 1405AUSL   AUS 1392  16.037  38.837   6.827
 1406AUSL   AUS 1393  16.384  38.724   7.084
 1407AUL    AUL 1394  16.365  38.685   6.706
 1408THSLK    S 1395  16.530  38.537   6.932
 1409ETHY    C1 1396  16.814  38.283   6.670
 1410ETHY    C1 1397  17.206  38.063   6.340
 1411THSLK    S 1398  16.125  38.791   6.575
 1412ETHY    C1 1399  16.231  38.651   6.147
 1413ETHY    C1 1400  16.381  38.579   5.615
 1414AUSL   AUS 1401  16.037  39.140   6.827
 1415AUSL   AUS 1402  15.710  38.837   6.827
 1416AUL    AUL 1403  15.874  38.989   6.519
 1417THSLK    S 1404  15.610  38.791   6.579
 1418ETHY    C1 1405  15.476  38.653   6.158
 1419ETHY    C1 1406  15.333  38.581   5.624
 1420THSLK    S 1407  16.138  39.108   6.566
 1421ETHY    C1 1408  16.265  39.117   6.121
 1422ETHY    C1 1409  16.409  39.226   5.594
 1423AUSL   AUS 1410  15.465  38.989   8.081
 1424AUSL   AUS 1411  15.609  39.405   8.011
 1425AUL    AUL 1412  15.383  39.292   8.295
 1426THSLK    S 1413  15.359  38.949   8.333
 1427ETHY    C1 1414  15.122  38.882   8.723
 1428ETHY    C1 1415  14.828  38.901   9.197
 1429THSLK    S 1416  15.481  39.547   8.202
 1430ETHY    C1 1417  15.328  39.792   8.563
 1431ETHY    C1 1418  15.080  40.127   8.933
 1432AUSL   AUS 1419  15.710  38.837   8.174
 1433AUSL   AUS 1420  15.364  38.724   7.917
 1434AUL    AUL 1421  15.383  38.685   8.295
 1435THSLK    S 1422  15.183  38.556   8.043
 1436ETHY    C1 1423  14.842  38.330   8.259
 1437ETHY    C1 1424  14.466  38.102   8.602
 1438THSLK    S 1425  15.610  38.791   8.422
 1439ETHY    C1 1426  15.482  38.652   8.844
 1440ETHY    C1 1427  15.338  38.580   9.378
 1441AUSL   AUS 1428  15.465  38.989   6.921
 1442AUSL   AUS 1429  15.609  38.572   6.990
 1443AUL    AUL 1430  15.383  38.685   6.706
 1444THSLK    S 1431  15.360  38.949   6.668
 1445ETHY    C1 1432  15.116  38.882   6.281
 1446ETHY    C1 1433  14.824  38.901   5.807
 1447THSLK    S 1434  15.435  38.398   6.855
 1448ETHY    C1 1435  15.198  38.105   6.587
 1449ETHY    C1 1436  14.973  37.784   6.190
 1450AUSL   AUS 1437  15.710  39.140   6.827
 1451AUSL   AUS 1438  15.364  39.253   7.084
 1452AUL    AUL 1439  15.383  39.292   6.706
 1453THSLK    S 1440  15.218  39.388   6.894
 1454ETHY    C1 1441  14.929  39.552   6.572
 1455ETHY    C1 1442  14.538  39.797   6.259
 1456THSLK    S 1443  15.623  39.109   6.562
 1457ETHY    C1 1444  15.510  39.119   6.114
 1458ETHY    C1 1445  15.362  39.227   5.587
 1459AUSL   AUS 1446  16.454  39.398   7.501
 1460AUSL   AUS 1447  16.384  39.253   7.084
 1461AUL    AUL 1448  16.668  39.479   7.197
 1462THSLK    S 1449  16.564  39.370   6.920
 1463ETHY    C1 1450  16.905  39.503   6.638
 1464ETHY    C1 1451  17.281  39.757   6.314
 1465THSLK    S 1452  16.727  39.469   7.501
 1466ETHY    C1 1453  17.151  39.653   7.497
 1467ETHY    C1 1454  17.615  39.962   7.498
 1468AUSL   AUS 1455  16.548  39.152   7.349
 1469AUSL   AUS 1456  16.548  38.825   7.652
 1470AUL    AUL 1457  16.855  38.989   7.501
 1471THSLK    S 1458  16.815  39.207   7.341
 1472ETHY    C1 1459  17.267  39.263   7.262
 1473ETHY    C1 1460  17.792  39.428   7.172
 1474THSLK    S 1461  16.794  38.693   7.659
 1475ETHY    C1 1462  17.211  38.508   7.728
 1476ETHY    C1 1463  17.747  38.380   7.820
 1477AUSL   AUS 1464  16.548  39.152   7.652
 1478AUSL   AUS 1465  16.290  39.499   7.765
 1479AUL    AUL 1466  16.668  39.479   7.804
 1480THSLK    S 1467  16.476  39.634   7.925
 1481ETHY    C1 1468  16.792  39.902   8.128
 1482ETHY    C1 1469  17.107  40.299   8.362
 1483THSLK    S 1470  16.815  39.207   7.661
 1484ETHY    C1 1471  17.267  39.263   7.733
 1485ETHY    C1 1472  17.793  39.428   7.824
 1486AUSL   AUS 1473  15.294  39.398   7.501
 1487AUSL   AUS 1474  15.364  39.253   7.917
 1488AUL    AUL 1475  15.080  39.479   7.804
 1489THSLK    S 1476  15.217  39.388   8.107
 1490ETHY    C1 1477  14.933  39.557   8.430
 1491ETHY    C1 1478  14.541  39.802   8.743
 1492THSLK    S 1479  15.063  39.536   7.501
 1493ETHY    C1 1480  14.709  39.834   7.497
 1494ETHY    C1 1481  14.225  40.111   7.498
 1495AUSL   AUS 1482  15.200  39.152   7.349
 1496AUSL   AUS 1483  15.457  39.499   7.236
 1497AUL    AUL 1484  15.080  39.479   7.197
 1498THSLK    S 1485  14.954  39.262   7.307
 1499ETHY    C1 1486  14.536  39.407   7.173
 1500ETHY    C1 1487  14.001  39.547   7.099
 1501THSLK    S 1488  15.326  39.668   7.056
 1502ETHY    C1 1489  15.102  39.990   6.812
 1503ETHY    C1 1490  14.762  40.372   6.589
 1504AUSL   AUS 1491  15.200  39.152   7.652
 1505AUSL   AUS 1492  15.200  38.825   7.349
 1506AUL    AUL 1493  14.892  38.989   7.501
 1507THSLK    S 1494  14.933  38.747   7.377
 1508ETHY    C1 1495  14.480  38.658   7.359
 1509ETHY    C1 1496  13.955  38.503   7.252
 1510THSLK    S 1497  14.954  39.262   7.694
 1511ETHY    C1 1498  14.537  39.413   7.825
 1512ETHY    C1 1499  14.002  39.551   7.900
 1513AUSL   AUS 1500  16.454  38.580   7.501
 1514AUSL   AUS 1501  16.384  38.724   7.917
 1515AUL    AUL 1502  16.668  38.498   7.804
 1516THSLK    S 1503  16.685  38.441   7.501
 1517ETHY    C1 1504  17.039  38.143   7.497
 1518ETHY    C1 1505  17.523  37.866   7.498
 1519THSLK    S 1506  16.530  38.537   8.070
 1520ETHY    C1 1507  16.818  38.282   8.326
 1521ETHY    C1 1508  17.210  38.062   8.657
 1522AUSL   AUS 1509  16.548  38.825   7.349
 1523AUSL   AUS 1510  16.290  38.478   7.236
 1524AUL    AUL 1511  16.668  38.498   7.197
 1525THSLK    S 1512  16.794  38.693   7.343
 1526ETHY    C1 1513  17.210  38.508   7.266
 1527ETHY    C1 1514  17.746  38.380   7.176
 1528THSLK    S 1515  16.422  38.287   7.092
 1529ETHY    C1 1516  16.643  37.926   6.907
 1530ETHY    C1 1517  16.984  37.556   6.667
 1531AUSL   AUS 1518  15.294  38.580   7.501
 1532AUSL   AUS 1519  15.364  38.724   7.084
 1533AUL    AUL 1520  15.080  38.498   7.197
 1534THSLK    S 1521  15.184  38.556   6.958
 1535ETHY    C1 1522  14.838  38.336   6.743
 1536ETHY    C1 1523  14.463  38.106   6.400
 1537THSLK    S 1524  15.021  38.508   7.501
 1538ETHY    C1 1525  14.597  38.325   7.497
 1539ETHY    C1 1526  14.133  38.015   7.498
 1540AUSL   AUS 1527  15.200  38.825   7.652
 1541AUSL   AUS 1528  15.457  38.478   7.765
 1542AUL    AUL 1529  15.080  38.498   7.804
 1543THSLK    S 1530  15.271  38.321   7.889
 1544ETHY    C1 1531  14.958  38.015   8.033
 1545ETHY    C1 1532  14.643  37.628   8.284
 1546THSLK    S 1533  14.933  38.748   7.625
 1547ETHY    C1 1534  14.481  38.652   7.639
 1548ETHY    C1 1535  13.956  38.499   7.746
 1549AUSL   AUS 1536  15.874  39.569   7.910
 1550AUSL   AUS 1537  15.457  39.499   7.765
 1551AUL    AUL 1538  15.570  39.783   7.991
 1552THSLK    S 1539  15.326  39.667   7.945
 1553ETHY    C1 1540  15.105  39.995   8.185
 1554ETHY    C1 1541  14.764  40.375   8.409
 1555THSLK    S 1542  15.908  39.810   8.033
 1556ETHY    C1 1543  15.966  40.182   8.301
 1557ETHY    C1 1544  15.950  40.661   8.586
 1558AUSL   AUS 1545  15.722  39.662   7.664
 1559AUSL   AUS 1546  16.025  39.662   7.337
 1560AUL    AUL 1547  15.874  39.970   7.501
 1561THSLK    S 1548  15.753  39.922   7.770
 1562ETHY    C1 1549  15.743  40.363   7.907
 1563ETHY    C1 1550  15.634  40.892   8.048
 1564THSLK    S 1551  16.070  39.911   7.235
 1565ETHY    C1 1552  16.208  40.329   7.097
 1566ETHY    C1 1553  16.280  40.864   6.955
 1567AUSL   AUS 1554  16.025  39.662   7.664
 1568AUSL   AUS 1555  16.139  39.405   8.011
 1569AUL    AUL 1556  16.177  39.783   7.991
 1570THSLK    S 1557  16.313  39.533   8.185
 1571ETHY    C1 1558  16.549  39.752   8.517
 1572ETHY    C1 1559  16.775  40.094   8.895
 1573THSLK    S 1560  16.070  39.910   7.767
 1574ETHY    C1 1561  16.209  40.331   7.898
 1575ETHY    C1 1562  16.282  40.865   8.041
 1576AUSL   AUS 1563  15.874  38.409   7.910
 1577AUSL   AUS 1564  16.290  38.478   7.765
 1578AUL    AUL 1565  16.177  38.194   7.991
 1579THSLK    S 1566  15.840  38.145   7.997
 1580ETHY    C1 1567  15.785  37.736   8.205
 1581ETHY    C1 1568  15.800  37.268   8.507
 1582THSLK    S 1569  16.422  38.287   7.910
 1583ETHY    C1 1570  16.645  37.925   8.089
 1584ETHY    C1 1571  16.986  37.555   8.330
 1585AUSL   AUS 1572  15.722  38.315   7.664
 1586AUSL   AUS 1573  15.609  38.572   8.011
 1587AUL    AUL 1574  15.570  38.194   7.991
 1588THSLK    S 1575  15.677  38.062   7.746
 1589ETHY    C1 1576  15.540  37.631   7.843
 1590ETHY    C1 1577  15.467  37.099   7.996
 1591THSLK    S 1578  15.434  38.398   8.146
 1592ETHY    C1 1579  15.203  38.100   8.413
 1593ETHY    C1 1580  14.976  37.780   8.810
 1594AUSL   AUS 1581  16.025  38.315   7.664
 1595AUSL   AUS 1582  15.722  38.315   7.337
 1596AUL    AUL 1583  15.874  38.007   7.501
 1597THSLK    S 1584  15.677  38.062   7.255
 1598ETHY    C1 1585  15.538  37.633   7.152
 1599ETHY    C1 1586  15.466  37.101   7.001
 1600THSLK    S 1587  15.994  38.050   7.750
 1601ETHY    C1 1588  16.007  37.599   7.852
 1602ETHY    C1 1589  16.115  37.073   8.003
 1603AUSL   AUS 1590  15.874  39.569   7.092
 1604AUSL   AUS 1591  16.290  39.499   7.236
 1605AUL    AUL 1592  16.177  39.783   7.010
 1606THSLK    S 1593  15.908  39.810   6.969
 1607ETHY    C1 1594  15.963  40.179   6.696
 1608ETHY    C1 1595  15.947  40.658   6.412
 1609THSLK    S 1596  16.477  39.634   7.077
 1610ETHY    C1 1597  16.790  39.901   6.868
 1611ETHY    C1 1598  17.105  40.298   6.634
 1612AUSL   AUS 1599  15.722  39.662   7.337
 1613AUSL   AUS 1600  15.609  39.405   6.990
 1614AUL    AUL 1601  15.570  39.783   7.010
 1615THSLK    S 1602  15.753  39.923   7.232
 1616ETHY    C1 1603  15.741  40.361   7.088
 1617ETHY    C1 1604  15.633  40.890   6.948
 1618THSLK    S 1605  15.482  39.548   6.799
 1619ETHY    C1 1606  15.324  39.788   6.437
 1620ETHY    C1 1607  15.076  40.123   6.067
 1621AUSL   AUS 1608  15.874  38.409   7.092
 1622AUSL   AUS 1609  15.457  38.478   7.236
 1623AUL    AUL 1610  15.570  38.194   7.010
 1624THSLK    S 1611  15.271  38.321   7.113
 1625ETHY    C1 1612  14.955  38.019   6.964
 1626ETHY    C1 1613  14.641  37.632   6.714
 1627THSLK    S 1614  15.840  38.145   7.004
 1628ETHY    C1 1615  15.781  37.740   6.791
 1629ETHY    C1 1616  15.798  37.270   6.490
 1630AUSL   AUS 1617  16.025  38.315   7.337
 1631AUSL   AUS 1618  16.139  38.572   6.990
 1632AUL    AUL 1619  16.177  38.194   7.010
 1633THSLK    S 1620  15.995  38.049   7.252
 1634ETHY    C1 1621  16.005  37.601   7.143
 1635ETHY    C1 1622  16.113  37.074   6.993
 1636THSLK    S 1623  16.267  38.383   6.839
 1637ETHY    C1 1624  16.419  38.065   6.541
 1638ETHY    C1 1625  16.668  37.751   6.152
 1639AUC    AUC 1626  51.189   5.597   7.501
 1640AUC    AUC 1627  51.434   5.597   7.349
 1641AUC    AUC 1628  51.434   5.597   7.652
 1642AUC    AUC 1629  50.943   5.597   7.349
 1643AUC    AUC 1630  50.943   5.597   7.652
 1644AUC    AUC 1631  51.037   5.842   7.501
 1645AUC    AUC 1632  51.340   5.842   7.501
 1646AUC    AUC 1633  51.037   5.351   7.501
 1647AUC    AUC 1634  51.340   5.351   7.501
 1648AUC    AUC 1635  51.189   5.445   7.746
 1649AUC    AUC 1636  51.189   5.748   7.746
 1650AUC    AUC 1637  51.189   5.445   7.255
 1651AUC    AUC 1638  51.189   5.748   7.255
 1652AUC    AUC 1639  51.680   5.597   7.197
 1653AUC    AUC 1640  51.680   5.597   7.501
 1654AUC    AUC 1641  51.680   5.597   7.804
 1655AUC    AUC 1642  50.698   5.597   7.197
 1656AUC    AUC 1643  50.698   5.597   7.501
 1657AUC    AUC 1644  50.698   5.597   7.804
 1658AUC    AUC 1645  50.885   6.087   7.501
 1659AUC    AUC 1646  51.189   6.087   7.501
 1660AUC    AUC 1647  51.492   6.087   7.501
 1661AUC    AUC 1648  50.885   5.106   7.501
 1662AUC    AUC 1649  51.189   5.106   7.501
 1663AUC    AUC 1650  51.492   5.106   7.501
 1664AUC    AUC 1651  51.189   5.293   7.991
 1665AUC    AUC 1652  51.189   5.597   7.991
 1666AUC    AUC 1653  51.189   5.900   7.991
 1667AUC    AUC 1654  51.189   5.293   7.010
 1668AUC    AUC 1655  51.189   5.597   7.010
 1669AUC    AUC 1656  51.189   5.900   7.010
 1670AUC    AUC 1657  51.434   5.445   7.898
 1671AUC    AUC 1658  51.434   5.748   7.898
 1672AUC    AUC 1659  51.434   5.445   7.103
 1673AUC    AUC 1660  51.434   5.748   7.103
 1674AUC    AUC 1661  50.943   5.445   7.898
 1675AUC    AUC 1662  50.943   5.748   7.898
 1676AUC    AUC 1663  50.943   5.445   7.103
 1677AUC    AUC 1664  50.943   5.748   7.103
 1678AUC    AUC 1665  51.586   5.842   7.349
 1679AUC    AUC 1666  51.586   5.842   7.652
 1680AUC    AUC 1667  50.792   5.842   7.349
 1681AUC    AUC 1668  50.792   5.842   7.652
 1682AUC    AUC 1669  51.586   5.351   7.349
 1683AUC    AUC 1670  51.586   5.351   7.652
 1684AUC    AUC 1671  50.792   5.351   7.349
 1685AUC    AUC 1672  50.792   5.351   7.652
 1686AUC    AUC 1673  51.037   5.994   7.746
 1687AUC    AUC 1674  51.340   5.994   7.746
 1688AUC    AUC 1675  51.037   5.200   7.746
 1689AUC    AUC 1676  51.340   5.200   7.746
 1690AUC    AUC 1677  51.037   5.994   7.255
 1691AUC    AUC 1678  51.340   5.994   7.255
 1692AUC    AUC 1679  51.037   5.200   7.255
 1693AUC    AUC 1680  51.340   5.200   7.255
 1694AUSL   AUS 1681  51.598   5.597   8.081
 1695AUSL   AUS 1682  51.454   5.180   8.011
 1696AUL    AUL 1683  51.680   5.293   8.295
 1697THSLK    S 1684  51.581   4.992   8.163
 1698ETHY    C1 1685  51.739   4.671   8.456
 1699ETHY    C1 1686  51.987   4.358   8.845
 1700THSLK    S 1687  51.703   5.557   8.333
 1701ETHY    C1 1688  51.946   5.490   8.720
 1702ETHY    C1 1689  52.239   5.509   9.194
 1703AUSL   AUS 1690  51.352   5.445   8.174
 1704AUSL   AUS 1691  51.025   5.748   8.174
 1705AUL    AUL 1692  51.189   5.597   8.482
 1706THSLK    S 1693  51.439   5.399   8.426
 1707ETHY    C1 1694  51.552   5.258   8.852
 1708ETHY    C1 1695  51.701   5.187   9.385
 1709THSLK    S 1696  50.937   5.717   8.439
 1710ETHY    C1 1697  50.832   5.728   8.889
 1711ETHY    C1 1698  50.682   5.836   9.415
 1712AUSL   AUS 1699  51.352   5.748   8.174
 1713AUSL   AUS 1700  51.699   5.861   7.917
 1714AUL    AUL 1701  51.680   5.900   8.295
 1715THSLK    S 1702  51.440   5.794   8.426
 1716ETHY    C1 1703  51.546   5.934   8.854
 1717ETHY    C1 1704  51.696   6.006   9.386
 1718THSLK    S 1705  51.879   5.977   8.082
 1719ETHY    C1 1706  52.224   6.112   8.358
 1720ETHY    C1 1707  52.599   6.366   8.683
 1721AUSL   AUS 1708  51.598   5.597   6.921
 1722AUSL   AUS 1709  51.454   6.013   6.990
 1723AUL    AUL 1710  51.680   5.900   6.706
 1724THSLK    S 1711  51.704   5.557   6.668
 1725ETHY    C1 1712  51.941   5.490   6.278
 1726ETHY    C1 1713  52.234   5.509   5.804
 1727THSLK    S 1714  51.629   6.141   6.816
 1728ETHY    C1 1715  51.860   6.359   6.480
 1729ETHY    C1 1716  52.086   6.701   6.102
 1730AUSL   AUS 1717  51.352   5.445   6.827
 1731AUSL   AUS 1718  51.699   5.332   7.084
 1732AUL    AUL 1719  51.680   5.293   6.706
 1733THSLK    S 1720  51.845   5.145   6.932
 1734ETHY    C1 1721  52.129   4.891   6.670
 1735ETHY    C1 1722  52.521   4.671   6.340
 1736THSLK    S 1723  51.440   5.399   6.575
 1737ETHY    C1 1724  51.546   5.259   6.147
 1738ETHY    C1 1725  51.696   5.187   5.615
 1739AUSL   AUS 1726  51.352   5.748   6.827
 1740AUSL   AUS 1727  51.025   5.445   6.827
 1741AUL    AUL 1728  51.189   5.597   6.519
 1742THSLK    S 1729  50.925   5.399   6.579
 1743ETHY    C1 1730  50.791   5.261   6.158
 1744ETHY    C1 1731  50.648   5.189   5.624
 1745THSLK    S 1732  51.453   5.716   6.566
 1746ETHY    C1 1733  51.580   5.725   6.121
 1747ETHY    C1 1734  51.724   5.834   5.594
 1748AUSL   AUS 1735  50.780   5.597   8.081
 1749AUSL   AUS 1736  50.924   6.013   8.011
 1750AUL    AUL 1737  50.698   5.900   8.295
 1751THSLK    S 1738  50.674   5.557   8.333
 1752ETHY    C1 1739  50.437   5.490   8.723
 1753ETHY    C1 1740  50.143   5.509   9.197
 1754THSLK    S 1741  50.796   6.155   8.202
 1755ETHY    C1 1742  50.643   6.400   8.563
 1756ETHY    C1 1743  50.395   6.735   8.933
 1757AUSL   AUS 1744  51.025   5.445   8.174
 1758AUSL   AUS 1745  50.679   5.332   7.917
 1759AUL    AUL 1746  50.698   5.293   8.295
 1760THSLK    S 1747  50.498   5.164   8.043
 1761ETHY    C1 1748  50.157   4.938   8.259
 1762ETHY    C1 1749  49.781   4.710   8.602
 1763THSLK    S 1750  50.925   5.399   8.422
 1764ETHY    C1 1751  50.797   5.260   8.844
 1765ETHY    C1 1752  50.653   5.188   9.378
 1766AUSL   AUS 1753  50.780   5.597   6.921
 1767AUSL   AUS 1754  50.924   5.180   6.990
 1768AUL    AUL 1755  50.698   5.293   6.706
 1769THSLK    S 1756  50.675   5.557   6.668
 1770ETHY    C1 1757  50.431   5.490   6.281
 1771ETHY    C1 1758  50.139   5.509   5.807
 1772THSLK    S 1759  50.750   5.006   6.855
 1773ETHY    C1 1760  50.513   4.713   6.587
 1774ETHY    C1 1761  50.288   4.392   6.190
 1775AUSL   AUS 1762  51.025   5.748   6.827
 1776AUSL   AUS 1763  50.679   5.861   7.084
 1777AUL    AUL 1764  50.698   5.900   6.706
 1778THSLK    S 1765  50.533   5.996   6.894
 1779ETHY    C1 1766  50.244   6.160   6.572
 1780ETHY    C1 1767  49.853   6.405   6.259
 1781THSLK    S 1768  50.938   5.717   6.562
 1782ETHY    C1 1769  50.825   5.727   6.114
 1783ETHY    C1 1770  50.677   5.835   5.587
 1784AUSL   AUS 1771  51.769   6.006   7.501
 1785AUSL   AUS 1772  51.699   5.861   7.084
 1786AUL    AUL 1773  51.983   6.087   7.197
 1787THSLK    S 1774  51.879   5.978   6.920
 1788ETHY    C1 1775  52.220   6.111   6.638
 1789ETHY    C1 1776  52.596   6.365   6.314
 1790THSLK    S 1777  52.042   6.077   7.501
 1791ETHY    C1 1778  52.466   6.261   7.497
 1792ETHY    C1 1779  52.930   6.570   7.498
 1793AUSL   AUS 1780  51.863   5.760   7.349
 1794AUSL   AUS 1781  51.863   5.433   7.652
 1795AUL    AUL 1782  52.170   5.597   7.501
 1796THSLK    S 1783  52.130   5.815   7.341
 1797ETHY    C1 1784  52.582   5.871   7.262
 1798ETHY    C1 1785  53.107   6.036   7.172
 1799THSLK    S 1786  52.109   5.301   7.659
 1800ETHY    C1 1787  52.526   5.116   7.728
 1801ETHY    C1 1788  53.062   4.988   7.820
 1802AUSL   AUS 1789  51.863   5.760   7.652
 1803AUSL   AUS 1790  51.605   6.107   7.765
 1804AUL    AUL 1791  51.983   6.087   7.804
 1805THSLK    S 1792  51.791   6.242   7.925
 1806ETHY    C1 1793  52.107   6.510   8.128
 1807ETHY    C1 1794  52.422   6.907   8.362
 1808THSLK    S 1795  52.130   5.815   7.661
 1809ETHY    C1 1796  52.582   5.871   7.733
 1810ETHY    C1 1797  53.108   6.036   7.824
 1811AUSL   AUS 1798  50.609   6.006   7.501
 1812AUSL   AUS 1799  50.679   5.861   7.917
 1813AUL    AUL 1800  50.395   6.087   7.804
 1814THSLK    S 1801  50.532   5.996   8.107
 1815ETHY    C1 1802  50.248   6.165   8.430
 1816ETHY    C1 1803  49.856   6.410   8.743
 1817THSLK    S 1804  50.378   6.144   7.501
 1818ETHY    C1 1805  50.024   6.442   7.497
 1819ETHY    C1 1806  49.540   6.719   7.498
 1820AUSL   AUS 1807  50.515   5.760   7.349
 1821AUSL   AUS 1808  50.772   6.107   7.236
 1822AUL    AUL 1809  50.395   6.087   7.197
 1823THSLK    S 1810  50.269   5.870   7.307
 1824ETHY    C1 1811  49.851   6.015   7.173
 1825ETHY    C1 1812  49.316   6.155   7.099
 1826THSLK    S 1813  50.641   6.276   7.056
 1827ETHY    C1 1814  50.417   6.598   6.812
 1828ETHY    C1 1815  50.077   6.980   6.589
 1829AUSL   AUS 1816  50.515   5.760   7.652
 1830AUSL   AUS 1817  50.515   5.433   7.349
 1831AUL    AUL 1818  50.207   5.597   7.501
 1832THSLK    S 1819  50.248   5.355   7.377
 1833ETHY    C1 1820  49.795   5.266   7.359
 1834ETHY    C1 1821  49.270   5.111   7.252
 1835THSLK    S 1822  50.269   5.870   7.694
 1836ETHY    C1 1823  49.852   6.021   7.825
 1837ETHY    C1 1824  49.317   6.159   7.900
 1838AUSL   AUS 1825  51.769   5.188   7.501
 1839AUSL   AUS 1826  51.699   5.332   7.917
 1840AUL    AUL 1827  51.983   5.106   7.804
 1841THSLK    S 1828  52.000   5.049   7.501
 1842ETHY    C1 1829  52.354   4.751   7.497
 1843ETHY    C1 1830  52.838   4.474   7.498
 1844THSLK    S 1831  51.845   5.145   8.070
 1845ETHY    C1 1832  52.133   4.890   8.326
 1846ETHY    C1 1833  52.525   4.670   8.657
 1847AUSL   AUS 1834  51.863   5.433   7.349
 1848AUSL   AUS 1835  51.605   5.086   7.236
 1849AUL    AUL 1836  51.983   5.106   7.197
 1850THSLK    S 1837  52.109   5.301   7.343
 1851ETHY    C1 1838  52.525   5.116   7.266
 1852ETHY    C1 1839  53.061   4.988   7.176
 1853THSLK    S 1840  51.737   4.895   7.092
 1854ETHY    C1 1841  51.958   4.534   6.907
 1855ETHY    C1 1842  52.299   4.164   6.667
 1856AUSL   AUS 1843  50.609   5.188   7.501
 1857AUSL   AUS 1844  50.679   5.332   7.084
 1858AUL    AUL 1845  50.395   5.106   7.197
 1859THSLK    S 1846  50.499   5.164   6.958
 1860ETHY    C1 1847  50.153   4.944   6.743
 1861ETHY    C1 1848  49.778   4.714   6.400
 1862THSLK    S 1849  50.336   5.116   7.501
 1863ETHY    C1 1850  49.912   4.933   7.497
 1864ETHY    C1 1851  49.448   4.623   7.498
 1865AUSL   AUS 1852  50.515   5.433   7.652
 1866AUSL   AUS 1853  50.772   5.086   7.765
 1867AUL    AUL 1854  50.395   5.106   7.804
 1868THSLK    S 1855  50.586   4.929   7.889
 1869ETHY    C1 1856  50.273   4.623   8.033
 1870ETHY    C1 1857  49.958   4.236   8.284
 1871THSLK    S 1858  50.248   5.356   7.625
 1872ETHY    C1 1859  49.796   5.260   7.639
 1873ETHY    C1 1860  49.271   5.107   7.746
 1874AUSL   AUS 1861  51.189   6.177   7.910
 1875AUSL   AUS 1862  50.772   6.107   7.765
 1876AUL    AUL 1863  50.885   6.391   7.991
 1877THSLK    S 1864  50.641   6.275   7.945
 1878ETHY    C1 1865  50.420   6.603   8.185
 1879ETHY    C1 1866  50.079   6.983   8.409
 1880THSLK    S 1867  51.223   6.418   8.033
 1881ETHY    C1 1868  51.281   6.790   8.301
 1882ETHY    C1 1869  51.265   7.269   8.586
 1883AUSL   AUS 1870  51.037   6.270   7.664
 1884AUSL   AUS 1871  51.340   6.270   7.337
 1885AUL    AUL 1872  51.189   6.578   7.501
 1886THSLK    S 1873  51.068   6.530   7.770
 1887ETHY    C1 1874  51.058   6.971   7.907
 1888ETHY    C1 1875  50.949   7.500   8.048
 1889THSLK    S 1876  51.385   6.519   7.235
 1890ETHY    C1 1877  51.523   6.937   7.097
 1891ETHY    C1 1878  51.595   7.472   6.955
 1892AUSL   AUS 1879  51.340   6.270   7.664
 1893AUSL   AUS 1880  51.454   6.013   8.011
 1894AUL    AUL 1881  51.492   6.391   7.991
 1895THSLK    S 1882  51.628   6.141   8.185
 1896ETHY    C1 1883  51.864   6.360   8.517
 1897ETHY    C1 1884  52.090   6.702   8.895
 1898THSLK    S 1885  51.385   6.518   7.767
 1899ETHY    C1 1886  51.524   6.939   7.898
 1900ETHY    C1 1887  51.597   7.473   8.041
 1901AUSL   AUS 1888  51.189   5.017   7.910
 1902AUSL   AUS 1889  51.605   5.086   7.765
 1903AUL    AUL 1890  51.492   4.802   7.991
 1904THSLK    S 1891  51.155   4.753   7.997
 1905ETHY    C1 1892  51.100   4.344   8.205
 1906ETHY    C1 1893  51.115   3.876   8.507
 1907THSLK    S 1894  51.737   4.895   7.910
 1908ETHY    C1 1895  51.960   4.533   8.089
 1909ETHY    C1 1896  52.301   4.163   8.330
 1910AUSL   AUS 1897  51.037   4.923   7.664
 1911AUSL   AUS 1898  50.924   5.180   8.011
 1912AUL    AUL 1899  50.885   4.802   7.991
 1913THSLK    S 1900  50.992   4.670   7.746
 1914ETHY    C1 1901  50.855   4.239   7.843
 1915ETHY    C1 1902  50.782   3.707   7.996
 1916THSLK    S 1903  50.749   5.006   8.146
 1917ETHY    C1 1904  50.518   4.708   8.413
 1918ETHY    C1 1905  50.291   4.388   8.810
 1919AUSL   AUS 1906  51.340   4.923   7.664
 1920AUSL   AUS 1907  51.037   4.923   7.337
 1921AUL    AUL 1908  51.189   4.615   7.501
 1922THSLK    S 1909  50.992   4.670   7.255
 1923ETHY    C1 1910  50.853   4.241   7.152
 1924ETHY    C1 1911  50.781   3.709   7.001
 1925THSLK    S 1912  51.309   4.658   7.750
 1926ETHY    C1 1913  51.322   4.207   7.852
 1927ETHY    C1 1914  51.430   3.681   8.003
 1928AUSL   AUS 1915  51.189   6.177   7.092
 1929AUSL   AUS 1916  51.605   6.107   7.236
 1930AUL    AUL 1917  51.492   6.391   7.010
 1931THSLK    S 1918  51.223   6.418   6.969
 1932ETHY    C1 1919  51.278   6.787   6.696
 1933ETHY    C1 1920  51.262   7.266   6.412
 1934THSLK    S 1921  51.792   6.242   7.077
 1935ETHY    C1 1922  52.105   6.509   6.868
 1936ETHY    C1 1923  52.420   6.906   6.634
 1937AUSL   AUS 1924  51.037   6.270   7.337
 1938AUSL   AUS 1925  50.924   6.013   6.990
 1939AUL    AUL 1926  50.885   6.391   7.010
 1940THSLK    S 1927  51.068   6.531   7.232
 1941ETHY    C1 1928  51.056   6.969   7.088
 1942ETHY    C1 1929  50.948   7.498   6.948
 1943THSLK    S 1930  50.797   6.156   6.799
 1944ETHY    C1 1931  50.639   6.396   6.437
 1945ETHY    C1 1932  50.391   6.731   6.067
 1946AUSL   AUS 1933  51.189   5.017   7.092
 1947AUSL   AUS 1934  50.772   5.086   7.236
 1948AUL    AUL 1935  50.885   4.802   7.010
 1949THSLK    S 1936  50.586   4.929   7.113
 1950ETHY    C1 1937  50.270   4.627   6.964
 1951ETHY    C1 1938  49.956   4.240   6.714
 1952THSLK    S 1939  51.155   4.753   7.004
 1953ETHY    C1 1940  51.096   4.348   6.791
 1954ETHY    C1 1941  51.113   3.878   6.490
 1955AUSL   AUS 1942  51.340   4.923   7.337
 1956AUSL   AUS 1943  51.454   5.180   6.990
 1957AUL    AUL 1944  51.492   4.802   7.010
 1958THSLK    S 1945  51.310   4.657   7.252
 1959ETHY    C1 1946  51.320   4.209   7.143
 1960ETHY    C1 1947  51.428   3.682   6.993
 1961THSLK    S 1948  51.582   4.991   6.839
 1962ETHY    C1 1949  51.734   4.673   6.541
 1963ETHY    C1 1950  51.983   4.359   6.152
 1964AUC    AUC 1951  22.550  13.582   7.501
 1965AUC    AUC 1952  22.795  13.582   7.349
 1966AUC    AUC 1953  22.795  13.582   7.652
 1967AUC    AUC 1954  22.304  13.582   7.349
 1968AUC    AUC 1955  22.304  13.582   7.652
 1969AUC    AUC 1956  22.398  13.827   7.501
 1970AUC    AUC 1957  22.701  13.827   7.501
 1971AUC    AUC 1958  22.398  13.336   7.501
 1972AUC    AUC 1959  22.701  13.336   7.501
 1973AUC    AUC 1960  22.550  13.430   7.746
 1974AUC    AUC 1961  22.550  13.733   7.746
 1975AUC    AUC 1962  22.550  13.430   7.255
 1976AUC    AUC 1963  22.550  13.733   7.255
 1977AUC    AUC 1964  23.041  13.582   7.197
 1978AUC    AUC 1965  23.041  13.582   7.501
 1979AUC    AUC 1966  23.041  13.582   7.804
 1980AUC    AUC 1967  22.059  13.582   7.197
 1981AUC    AUC 1968  22.059  13.582   7.501
 1982AUC    AUC 1969  22.059  13.582   7.804
 1983AUC    AUC 1970  22.246  14.072   7.501
 1984AUC    AUC 1971  22.550  14.072   7.501
 1985AUC    AUC 1972  22.853  14.072   7.501
 1986AUC    AUC 1973  22.246  13.091   7.501
 1987AUC    AUC 1974  22.550  13.091   7.501
 1988AUC    AUC 1975  22.853  13.091   7.501
 1989AUC    AUC 1976  22.550  13.278   7.991
 1990AUC    AUC 1977  22.550  13.582   7.991
 1991AUC    AUC 1978  22.550  13.885   7.991
 1992AUC    AUC 1979  22.550  13.278   7.010
 1993AUC    AUC 1980  22.550  13.582   7.010
 1994AUC    AUC 1981  22.550  13.885   7.010
 1995AUC    AUC 1982  22.795  13.430   7.898
 1996AUC    AUC 1983  22.795  13.733   7.898
 1997AUC    AUC 1984  22.795  13.430   7.103
 1998AUC    AUC 1985  22.795  13.733   7.103
 1999AUC    AUC 1986  22.304  13.430   7.898
 2000AUC    AUC 1987  22.304  13.733   7.898
 2001AUC    AUC 1988  22.304  13.430   7.103
 2002AUC    AUC 1989  22.304  13.733   7.103
 2003AUC    AUC 1990  22.947  13.827   7.349
 2004AUC    AUC 1991  22.947  13.827   7.652
 2005AUC    AUC 1992  22.153  13.827   7.349
 2006AUC    AUC 1993  22.153  13.827   7.652
 2007AUC    AUC 1994  22.947  13.336   7.349
 2008AUC    AUC 1995  22.947  13.336   7.652
 2009AUC    AUC 1996  22.153  13.336   7.349
 2010AUC    AUC 1997  22.153  13.336   7.652
 2011AUC    AUC 1998  22.398  13.979   7.746
 2012AUC    AUC 1999  22.701  13.979   7.746
 2013AUC    AUC 2000  22.398  13.185   7.746
 2014AUC    AUC 2001  22.701  13.185   7.746
 2015AUC    AUC 2002  22.398  13.979   7.255
 2016AUC    AUC 2003  22.701  13.979   7.255
 2017AUC    AUC 2004  22.398  13.185   7.255
 2018AUC    AUC 2005  22.701  13.185   7.255
 2019AUSL   AUS 2006  22.959  13.582   8.081
 2020AUSL   AUS 2007  22.815  13.165   8.011
 2021AUL    AUL 2008  23.041  13.278   8.295
 2022THSLK    S 2009  22.942  12.977   8.163
 2023ETHY    C1 2010  23.100  12.656   8.456
 2024ETHY    C1 2011  23.348  12.343   8.845
 2025THSLK    S 2012  23.064  13.542   8.333
 2026ETHY    C1 2013  23.307  13.475   8.720
 2027ETHY    C1 2014  23.600  13.494   9.194
 2028AUSL   AUS 2015  22.713  13.430   8.174
 2029AUSL   AUS 2016  22.386  13.733   8.174
 2030AUL    AUL 2017  22.550  13.582   8.482
 2031THSLK    S 2018  22.800  13.384   8.426
 2032ETHY    C1 2019  22.913  13.243   8.852
 2033ETHY    C1 2020  23.062  13.172   9.385
 2034THSLK    S 2021  22.298  13.702   8.439
 2035ETHY    C1 2022  22.193  13.713   8.889
 2036ETHY    C1 2023  22.043  13.821   9.415
 2037AUSL   AUS 2024  22.713  13.733   8.174
 2038AUSL   AUS 2025  23.060  13.846   7.917
 2039AUL    AUL 2026  23.041  13.885   8.295
 2040THSLK    S 2027  22.801  13.779   8.426
 2041ETHY    C1 2028  22.907  13.919   8.854
 2042ETHY    C1 2029  23.057  13.991   9.386
 2043THSLK    S 2030  23.240  13.962   8.082
 2044ETHY    C1 2031  23.585  14.097   8.358
 2045ETHY    C1 2032  23.960  14.351   8.683
 2046AUSL   AUS 2033  22.959  13.582   6.921
 2047AUSL   AUS 2034  22.815  13.998   6.990
 2048AUL    AUL 2035  23.041  13.885   6.706
 2049THSLK    S 2036  23.065  13.542   6.668
 2050ETHY    C1 2037  23.302  13.475   6.278
 2051ETHY    C1 2038  23.595  13.494   5.804
 2052THSLK    S 2039  22.990  14.126   6.816
 2053ETHY    C1 2040  23.221  14.344   6.480
 2054ETHY    C1 2041  23.447  14.686   6.102
 2055AUSL   AUS 2042  22.713  13.430   6.827
 2056AUSL   AUS 2043  23.060  13.317   7.084
 2057AUL    AUL 2044  23.041  13.278   6.706
 2058THSLK    S 2045  23.206  13.130   6.932
 2059ETHY    C1 2046  23.490  12.876   6.670
 2060ETHY    C1 2047  23.882  12.656   6.340
 2061THSLK    S 2048  22.801  13.384   6.575
 2062ETHY    C1 2049  22.907  13.244   6.147
 2063ETHY    C1 2050  23.057  13.172   5.615
 2064AUSL   AUS 2051  22.713  13.733   6.827
 2065AUSL   AUS 2052  22.386  13.430   6.827
 2066AUL    AUL 2053  22.550  13.582   6.519
 2067THSLK    S 2054  22.286  13.384   6.579
 2068ETHY    C1 2055  22.152  13.246   6.158
 2069ETHY    C1 2056  22.009  13.174   5.624
 2070THSLK    S 2057  22.814  13.701   6.566
 2071ETHY    C1 2058  22.941  13.710   6.121
 2072ETHY    C1 2059  23.085  13.819   5.594
 2073AUSL   AUS 2060  22.141  13.582   8.081
 2074AUSL   AUS 2061  22.285  13.998   8.011
 2075AUL    AUL 2062  22.059  13.885   8.295
 2076THSLK    S 2063  22.035  13.542   8.333
 2077ETHY    C1 2064  21.798  13.475   8.723
 2078ETHY    C1 2065  21.504  13.494   9.197
 2079THSLK    S 2066  22.157  14.140   8.202
 2080ETHY    C1 2067  22.004  14.385   8.563
 2081ETHY    C1 2068  21.756  14.720   8.933
 2082AUSL   AUS 2069  22.386  13.430   8.174
 2083AUSL   AUS 2070  22.040  13.317   7.917
 2084AUL    AUL 2071  22.059  13.278   8.295
 2085THSLK    S 2072  21.859  13.149   8.043
 2086ETHY    C1 2073  21.518  12.923   8.259
 2087ETHY    C1 2074  21.142  12.695   8.602
 2088THSLK    S 2075  22.286  13.384   8.422
 2089ETHY    C1 2076  22.158  13.245   8.844
 2090ETHY    C1 2077  22.014  13.173   9.378
 2091AUSL   AUS 2078  22.141  13.582   6.921
 2092AUSL   AUS 2079  22.285  13.165   6.990
 2093AUL    AUL 2080  22.059  13.278   6.706
 2094THSLK    S 2081  22.036  13.542   6.668
 2095ETHY    C1 2082  21.792  13.475   6.281
 2096ETHY    C1 2083  21.500  13.494   5.807
 2097THSLK    S 2084  22.111  12.991   6.855
 2098ETHY    C1 2085  21.874  12.698   6.587
 2099ETHY    C1 2086  21.649  12.377   6.190
 2100AUSL   AUS 2087  22.386  13.733   6.827
 2101AUSL   AUS 2088  22.040  13.846   7.084
 2102AUL    AUL 2089  22.059  13.885   6.706
 2103THSLK    S 2090  21.894  13.981   6.894
 2104ETHY    C1 2091  21.605  14.145   6.572
 2105ETHY    C1 2092  21.214  14.390   6.259
 2106THSLK    S 2093  22.299  13.702   6.562
 2107ETHY    C1 2094  22.186  13.712   6.114
 2108ETHY    C1 2095  22.038  13.820   5.587
 2109AUSL   AUS 2096  23.130  13.991   7.501
 2110AUSL   AUS 2097  23.060  13.846   7.084
 2111AUL    AUL 2098  23.344  14.072   7.197
 2112THSLK    S 2099  23.240  13.963   6.920
 2113ETHY    C1 2100  23.581  14.096   6.638
 2114ETHY    C1 2101  23.957  14.350   6.314
 2115THSLK    S 2102  23.403  14.062   7.501
 2116ETHY    C1 2103  23.827  14.246   7.497
 2117ETHY    C1 2104  24.291  14.555   7.498
 2118AUSL   AUS 2105  23.224  13.745   7.349
 2119AUSL   AUS 2106  23.224  13.418   7.652
 2120AUL    AUL 2107  23.531  13.582   7.501
 2121THSLK    S 2108  23.491  13.800   7.341
 2122ETHY    C1 2109  23.943  13.856   7.262
 2123ETHY    C1 2110  24.468  14.021   7.172
 2124THSLK    S 2111  23.470  13.286   7.659
 2125ETHY    C1 2112  23.887  13.101   7.728
 2126ETHY    C1 2113  24.423  12.973   7.820
 2127AUSL   AUS 2114  23.224  13.745   7.652
 2128AUSL   AUS 2115  22.966  14.092   7.765
 2129AUL    AUL 2116  23.344  14.072   7.804
 2130THSLK    S 2117  23.152  14.227   7.925
 2131ETHY    C1 2118  23.468  14.495   8.128
 2132ETHY    C1 2119  23.783  14.892   8.362
 2133THSLK    S 2120  23.491  13.800   7.661
 2134ETHY    C1 2121  23.943  13.856   7.733
 2135ETHY    C1 2122  24.469  14.021   7.824
 2136AUSL   AUS 2123  21.970  13.991   7.501
 2137AUSL   AUS 2124  22.040  13.846   7.917
 2138AUL    AUL 2125  21.756  14.072   7.804
 2139THSLK    S 2126  21.893  13.981   8.107
 2140ETHY    C1 2127  21.609  14.150   8.430
 2141ETHY    C1 2128  21.217  14.395   8.743
 2142THSLK    S 2129  21.739  14.129   7.501
 2143ETHY    C1 2130  21.385  14.427   7.497
 2144ETHY    C1 2131  20.901  14.704   7.498
 2145AUSL   AUS 2132  21.876  13.745   7.349
 2146AUSL   AUS 2133  22.133  14.092   7.236
 2147AUL    AUL 2134  21.756  14.072   7.197
 2148THSLK    S 2135  21.630  13.855   7.307
 2149ETHY    C1 2136  21.212  14.000   7.173
 2150ETHY    C1 2137  20.677  14.140   7.099
 2151THSLK    S 2138  22.002  14.261   7.056
 2152ETHY    C1 2139  21.778  14.583   6.812
 2153ETHY    C1 2140  21.438  14.965   6.589
 2154AUSL   AUS 2141  21.876  13.745   7.652
 2155AUSL   AUS 2142  21.876  13.418   7.349
 2156AUL    AUL 2143  21.568  13.582   7.501
 2157THSLK    S 2144  21.609  13.340   7.377
 2158ETHY    C1 2145  21.156  13.251   7.359
 2159ETHY    C1 2146  20.631  13.096   7.252
 2160THSLK    S 2147  21.630  13.855   7.694
 2161ETHY    C1 2148  21.213  14.006   7.825
 2162ETHY    C1 2149  20.678  14.144   7.900
 2163AUSL   AUS 2150  23.130  13.173   7.501
 2164AUSL   AUS 2151  23.060  13.317   7.917
 2165AUL    AUL 2152  23.344  13.091   7.804
 2166THSLK    S 2153  23.361  13.034   7.501
 2167ETHY    C1 2154  23.715  12.736   7.497
 2168ETHY    C1 2155  24.199  12.459   7.498
 2169THSLK    S 2156  23.206  13.130   8.070
 2170ETHY    C1 2157  23.494  12.875   8.326
 2171ETHY    C1 2158  23.886  12.655   8.657
 2172AUSL   AUS 2159  23.224  13.418   7.349
 2173AUSL   AUS 2160  22.966  13.071   7.236
 2174AUL    AUL 2161  23.344  13.091   7.197
 2175THSLK    S 2162  23.470  13.286   7.343
 2176ETHY    C1 2163  23.886  13.101   7.266
 2177ETHY    C1 2164  24.422  12.973   7.176
 2178THSLK    S 2165  23.098  12.880   7.092
 2179ETHY    C1 2166  23.319  12.519   6.907
 2180ETHY    C1 2167  23.660  12.149   6.667
 2181AUSL   AUS 2168  21.970  13.173   7.501
 2182AUSL   AUS 2169  22.040  13.317   7.084
 2183AUL    AUL 2170  21.756  13.091   7.197
 2184THSLK    S 2171  21.860  13.149   6.958
 2185ETHY    C1 2172  21.514  12.929   6.743
 2186ETHY    C1 2173  21.139  12.699   6.400
 2187THSLK    S 2174  21.697  13.101   7.501
 2188ETHY    C1 2175  21.273  12.918   7.497
 2189ETHY    C1 2176  20.809  12.608   7.498
 2190AUSL   AUS 2177  21.876  13.418   7.652
 2191AUSL   AUS 2178  22.133  13.071   7.765
 2192AUL    AUL 2179  21.756  13.091   7.804
 2193THSLK    S 2180  21.947  12.914   7.889
 2194ETHY    C1 2181  21.634  12.608   8.033
 2195ETHY    C1 2182  21.319  12.221   8.284
 2196THSLK    S 2183  21.609  13.341   7.625
 2197ETHY    C1 2184  21.157  13.245   7.639
 2198ETHY    C1 2185  20.632  13.092   7.746
 2199AUSL   AUS 2186  22.550  14.162   7.910
 2200AUSL   AUS 2187  22.133  14.092   7.765
 2201AUL    AUL 2188  22.246  14.376   7.991
 2202THSLK    S 2189  22.002  14.260   7.945
 2203ETHY    C1 2190  21.781  14.588   8.185
 2204ETHY    C1 2191  21.440  14.968   8.409
 2205THSLK    S 2192  22.584  14.403   8.033
 2206ETHY    C1 2193  22.642  14.775   8.301
 2207ETHY    C1 2194  22.626  15.254   8.586
 2208AUSL   AUS 2195  22.398  14.255   7.664
 2209AUSL   AUS 2196  22.701  14.255   7.337
 2210AUL    AUL 2197  22.550  14.563   7.501
 2211THSLK    S 2198  22.429  14.515   7.770
 2212ETHY    C1 2199  22.419  14.956   7.907
 2213ETHY    C1 2200  22.310  15.485   8.048
 2214THSLK    S 2201  22.746  14.504   7.235
 2215ETHY    C1 2202  22.884  14.922   7.097
 2216ETHY    C1 2203  22.956  15.457   6.955
 2217AUSL   AUS 2204  22.701  14.255   7.664
 2218AUSL   AUS 2205  22.815  13.998   8.011
 2219AUL    AUL 2206  22.853  14.376   7.991
 2220THSLK    S 2207  22.989  14.126   8.185
 2221ETHY    C1 2208  23.225  14.345   8.517
 2222ETHY    C1 2209  23.451  14.687   8.895
 2223THSLK    S 2210  22.746  14.503   7.767
 2224ETHY    C1 2211  22.885  14.924   7.898
 2225ETHY    C1 2212  22.958  15.458   8.041
 2226AUSL   AUS 2213  22.550  13.002   7.910
 2227AUSL   AUS 2214  22.966  13.071   7.765
 2228AUL    AUL 2215  22.853  12.787   7.991
 2229THSLK    S 2216  22.516  12.738   7.997
 2230ETHY    C1 2217  22.461  12.329   8.205
 2231ETHY    C1 2218  22.476  11.861   8.507
 2232THSLK    S 2219  23.098  12.880   7.910
 2233ETHY    C1 2220  23.321  12.518   8.089
 2234ETHY    C1 2221  23.662  12.148   8.330
 2235AUSL   AUS 2222  22.398  12.908   7.664
 2236AUSL   AUS 2223  22.285  13.165   8.011
 2237AUL    AUL 2224  22.246  12.787   7.991
 2238THSLK    S 2225  22.353  12.655   7.746
 2239ETHY    C1 2226  22.216  12.224   7.843
 2240ETHY    C1 2227  22.143  11.692   7.996
 2241THSLK    S 2228  22.110  12.991   8.146
 2242ETHY    C1 2229  21.879  12.693   8.413
 2243ETHY    C1 2230  21.652  12.373   8.810
 2244AUSL   AUS 2231  22.701  12.908   7.664
 2245AUSL   AUS 2232  22.398  12.908   7.337
 2246AUL    AUL 2233  22.550  12.600   7.501
 2247THSLK    S 2234  22.353  12.655   7.255
 2248ETHY    C1 2235  22.214  12.226   7.152
 2249ETHY    C1 2236  22.142  11.694   7.001
 2250THSLK    S 2237  22.670  12.643   7.750
 2251ETHY    C1 2238  22.683  12.192   7.852
 2252ETHY    C1 2239  22.791  11.666   8.003
 2253AUSL   AUS 2240  22.550  14.162   7.092
 2254AUSL   AUS 2241  22.966  14.092   7.236
 2255AUL    AUL 2242  22.853  14.376   7.010
 2256THSLK    S 2243  22.584  14.403   6.969
 2257ETHY    C1 2244  22.639  14.772   6.696
 2258ETHY    C1 2245  22.623  15.251   6.412
 2259THSLK    S 2246  23.153  14.227   7.077
 2260ETHY    C1 2247  23.466  14.494   6.868
 2261ETHY    C1 2248  23.781  14.891   6.634
 2262AUSL   AUS 2249  22.398  14.255   7.337
 2263AUSL   AUS 2250  22.285  13.998   6.990
 2264AUL    AUL 2251  22.246  14.376   7.010
 2265THSLK    S 2252  22.429  14.516   7.232
 2266ETHY    C1 2253  22.417  14.954   7.088
 2267ETHY    C1 2254  22.309  15.483   6.948
 2268THSLK    S 2255  22.158  14.141   6.799
 2269ETHY    C1 2256  22.000  14.381   6.437
 2270ETHY    C1 2257  21.752  14.716   6.067
 2271AUSL   AUS 2258  22.550  13.002   7.092
 2272AUSL   AUS 2259  22.133  13.071   7.236
 2273AUL    AUL 2260  22.246  12.787   7.010
 2274THSLK    S 2261  21.947  12.914   7.113
 2275ETHY    C1 2262  21.631  12.612   6.964
 2276ETHY    C1 2263  21.317  12.225   6.714
 2277THSLK    S 2264  22.516  12.738   7.004
 2278ETHY    C1 2265  22.457  12.333   6.791
 2279ETHY    C1 2266  22.474  11.863   6.490
 2280AUSL   AUS 2267  22.701  12.908   7.337
 2281AUSL   AUS 2268  22.815  13.165   6.990
 2282AUL    AUL 2269  22.853  12.787   7.010
 2283THSLK    S 2270  22.671  12.642   7.252
 2284ETHY    C1 2271  22.681  12.194   7.143
 2285ETHY    C1 2272  22.789  11.667   6.993
 2286THSLK    S 2273  22.943  12.976   6.839
 2287ETHY    C1 2274  23.095  12.658   6.541
 2288ETHY    C1 2275  23.344  12.344   6.152
 2289AUC    AUC 2276  22.185  26.457   7.501
 2290AUC    AUC 2277  22.430  26.457   7.349
 2291AUC    AUC 2278  22.430  26.457   7.652
 2292AUC    AUC 2279  21.939  26.457   7.349
 2293AUC    AUC 2280  21.939  26.457   7.652
 2294AUC    AUC 2281  22.033  26.702   7.501
 2295AUC    AUC 2282  22.336  26.702   7.501
 2296AUC    AUC 2283  22.033  26.211   7.501
 2297AUC    AUC 2284  22.336  26.211   7.501
 2298AUC    AUC 2285  22.185  26.305   7.746
 2299AUC    AUC 2286  22.185  26.608   7.746
 2300AUC    AUC 2287  22.185  26.305   7.255
 2301AUC    AUC 2288  22.185  26.608   7.255
 2302AUC    AUC 2289  22.676  26.457   7.197
 2303AUC    AUC 2290  22.676  26.457   7.501
 2304AUC    AUC 2291  22.676  26.457   7.804
 2305AUC    AUC 2292  21.694  26.457   7.197
 2306AUC    AUC 2293  21.694  26.457   7.501
 2307AUC    AUC 2294  21.694  26.457   7.804
 2308AUC    AUC 2295  21.881  26.947   7.501
 2309AUC    AUC 2296  22.185  26.947   7.501
 2310AUC    AUC 2297  22.488  26.947   7.501
 2311AUC    AUC 2298  21.881  25.966   7.501
 2312AUC    AUC 2299  22.185  25.966   7.501
 2313AUC    AUC 2300  22.488  25.966   7.501
 2314AUC    AUC 2301  22.185  26.153   7.991
 2315AUC    AUC 2302  22.185  26.457   7.991
 2316AUC    AUC 2303  22.185  26.760   7.991
 2317AUC    AUC 2304  22.185  26.153   7.010
 2318AUC    AUC 2305  22.185  26.457   7.010
 2319AUC    AUC 2306  22.185  26.760   7.010
 2320AUC    AUC 2307  22.430  26.305   7.898
 2321AUC    AUC 2308  22.430  26.608   7.898
 2322AUC    AUC 2309  22.430  26.305   7.103
 2323AUC    AUC 2310  22.430  26.608   7.103
 2324AUC    AUC 2311  21.939  26.305   7.898
 2325AUC    AUC 2312  21.939  26.608   7.898
 2326AUC    AUC 2313  21.939  26.305   7.103
 2327AUC    AUC 2314  21.939  26.608   7.103
 2328AUC    AUC 2315  22.582  26.702   7.349
 2329AUC    AUC 2316  22.582  26.702   7.652
 2330AUC    AUC 2317  21.788  26.702   7.349
 2331AUC    AUC 2318  21.788  26.702   7.652
 2332AUC    AUC 2319  22.582  26.211   7.349
 2333AUC    AUC 2320  22.582  26.211   7.652
 2334AUC    AUC 2321  21.788  26.211   7.349
 2335AUC    AUC 2322  21.788  26.211   7.652
 2336AUC    AUC 2323  22.033  26.854   7.746
 2337AUC    AUC 2324  22.336  26.854   7.746
 2338AUC    AUC 2325  22.033  26.060   7.746
 2339AUC    AUC 2326  22.336  26.060   7.746
 2340AUC    AUC 2327  22.033  26.854   7.255
 2341AUC    AUC 2328  22.336  26.854   7.255
 2342AUC    AUC 2329  22.033  26.060   7.255
 2343AUC    AUC 2330  22.336  26.060   7.255
 2344AUSL   AUS 2331  22.594  26.457   8.081
 2345AUSL   AUS 2332  22.450  26.040   8.011
 2346AUL    AUL 2333  22.676  26.153   8.295
 2347THSLK    S 2334  22.577  25.852   8.163
 2348ETHY    C1 2335  22.735  25.531   8.456
 2349ETHY    C1 2336  22.983  25.218   8.845
 2350THSLK    S 2337  22.699  26.417   8.333
 2351ETHY    C1 2338  22.942  26.350   8.720
 2352ETHY    C1 2339  23.235  26.369   9.194
 2353AUSL   AUS 2340  22.348  26.305   8.174
 2354AUSL   AUS 2341  22.021  26.608   8.174
 2355AUL    AUL 2342  22.185  26.457   8.482
 2356THSLK    S 2343  22.435  26.259   8.426
 2357ETHY    C1 2344  22.548  26.118   8.852
 2358ETHY    C1 2345  22.697  26.047   9.385
 2359THSLK    S 2346  21.933  26.577   8.439
 2360ETHY    C1 2347  21.828  26.588   8.889
 2361ETHY    C1 2348  21.678  26.696   9.415
 2362AUSL   AUS 2349  22.348  26.608   8.174
 2363AUSL   AUS 2350  22.695  26.721   7.917
 2364AUL    AUL 2351  22.676  26.760   8.295
 2365THSLK    S 2352  22.436  26.654   8.426
 2366ETHY    C1 2353  22.542  26.794   8.854
 2367ETHY    C1 2354  22.692  26.866   9.386
 2368THSLK    S 2355  22.875  26.837   8.082
 2369ETHY    C1 2356  23.220  26.972   8.358
 2370ETHY    C1 2357  23.595  27.226   8.683
 2371AUSL   AUS 2358  22.594  26.457   6.921
 2372AUSL   AUS 2359  22.450  26.873   6.990
 2373AUL    AUL 2360  22.676  26.760   6.706
 2374THSLK    S 2361  22.700  26.417   6.668
 2375ETHY    C1 2362  22.937  26.350   6.278
 2376ETHY    C1 2363  23.230  26.369   5.804
 2377THSLK    S 2364  22.625  27.001   6.816
 2378ETHY    C1 2365  22.856  27.219   6.480
 2379ETHY    C1 2366  23.082  27.561   6.102
 2380AUSL   AUS 2367  22.348  26.305   6.827
 2381AUSL   AUS 2368  22.695  26.192   7.084
 2382AUL    AUL 2369  22.676  26.153   6.706
 2383THSLK    S 2370  22.841  26.005   6.932
 2384ETHY    C1 2371  23.125  25.751   6.670
 2385ETHY    C1 2372  23.517  25.531   6.340
 2386THSLK    S 2373  22.436  26.259   6.575
 2387ETHY    C1 2374  22.542  26.119   6.147
 2388ETHY    C1 2375  22.692  26.047   5.615
 2389AUSL   AUS 2376  22.348  26.608   6.827
 2390AUSL   AUS 2377  22.021  26.305   6.827
 2391AUL    AUL 2378  22.185  26.457   6.519
 2392THSLK    S 2379  21.921  26.259   6.579
 2393ETHY    C1 2380  21.787  26.121   6.158
 2394ETHY    C1 2381  21.644  26.049   5.624
 2395THSLK    S 2382  22.449  26.576   6.566
 2396ETHY    C1 2383  22.576  26.585   6.121
 2397ETHY    C1 2384  22.720  26.694   5.594
 2398AUSL   AUS 2385  21.776  26.457   8.081
 2399AUSL   AUS 2386  21.920  26.873   8.011
 2400AUL    AUL 2387  21.694  26.760   8.295
 2401THSLK    S 2388  21.670  26.417   8.333
 2402ETHY    C1 2389  21.433  26.350   8.723
 2403ETHY    C1 2390  21.139  26.369   9.197
 2404THSLK    S 2391  21.792  27.015   8.202
 2405ETHY    C1 2392  21.639  27.260   8.563
 2406ETHY    C1 2393  21.391  27.595   8.933
 2407AUSL   AUS 2394  22.021  26.305   8.174
 2408AUSL   AUS 2395  21.675  26.192   7.917
 2409AUL    AUL 2396  21.694  26.153   8.295
 2410THSLK    S 2397  21.494  26.024   8.043
 2411ETHY    C1 2398  21.153  25.798   8.259
 2412ETHY    C1 2399  20.777  25.570   8.602
 2413THSLK    S 2400  21.921  26.259   8.422
 2414ETHY    C1 2401  21.793  26.120   8.844
 2415ETHY    C1 2402  21.649  26.048   9.378
 2416AUSL   AUS 2403  21.776  26.457   6.921
 2417AUSL   AUS 2404  21.920  26.040   6.990
 2418AUL    AUL 2405  21.694  26.153   6.706
 2419THSLK    S 2406  21.671  26.417   6.668
 2420ETHY    C1 2407  21.427  26.350   6.281
 2421ETHY    C1 2408  21.135  26.369   5.807
 2422THSLK    S 2409  21.746  25.866   6.855
 2423ETHY    C1 2410  21.509  25.573   6.587
 2424ETHY    C1 2411  21.284  25.252   6.190
 2425AUSL   AUS 2412  22.021  26.608   6.827
 2426AUSL   AUS 2413  21.675  26.721   7.084
 2427AUL    AUL 2414  21.694  26.760   6.706
 2428THSLK    S 2415  21.529  26.856   6.894
 2429ETHY    C1 2416  21.240  27.020   6.572
 2430ETHY    C1 2417  20.849  27.265   6.259
 2431THSLK    S 2418  21.934  26.577   6.562
 2432ETHY    C1 2419  21.821  26.587   6.114
 2433ETHY    C1 2420  21.673  26.695   5.587
 2434AUSL   AUS 2421  22.765  26.866   7.501
 2435AUSL   AUS 2422  22.695  26.721   7.084
 2436AUL    AUL 2423  22.979  26.947   7.197
 2437THSLK    S 2424  22.875  26.838   6.920
 2438ETHY    C1 2425  23.216  26.971   6.638
 2439ETHY    C1 2426  23.592  27.225   6.314
 2440THSLK    S 2427  23.038  26.937   7.501
 2441ETHY    C1 2428  23.462  27.121   7.497
 2442ETHY    C1 2429  23.926  27.430   7.498
 2443AUSL   AUS 2430  22.859  26.620   7.349
 2444AUSL   AUS 2431  22.859  26.293   7.652
 2445AUL    AUL 2432  23.166  26.457   7.501
 2446THSLK    S 2433  23.126  26.675   7.341
 2447ETHY    C1 2434  23.578  26.731   7.262
 2448ETHY    C1 2435  24.103  26.896   7.172
 2449THSLK    S 2436  23.105  26.161   7.659
 2450ETHY    C1 2437  23.522  25.976   7.728
 2451ETHY    C1 2438  24.058  25.848   7.820
 2452AUSL   AUS 2439  22.859  26.620   7.652
 2453AUSL   AUS 2440  22.601  26.967   7.765
 2454AUL    AUL 2441  22.979  26.947   7.804
 2455THSLK    S 2442  22.787  27.102   7.925
 2456ETHY    C1 2443  23.103  27.370   8.128
 2457ETHY    C1 2444  23.418  27.767   8.362
 2458THSLK    S 2445  23.126  26.675   7.661
 2459ETHY    C1 2446  23.578  26.731   7.733
 2460ETHY    C1 2447  24.104  26.896   7.824
 2461AUSL   AUS 2448  21.605  26.866   7.501
 2462AUSL   AUS 2449  21.675  26.721   7.917
 2463AUL    AUL 2450  21.391  26.947   7.804
 2464THSLK    S 2451  21.528  26.856   8.107
 2465ETHY    C1 2452  21.244  27.025   8.430
 2466ETHY    C1 2453  20.852  27.270   8.743
 2467THSLK    S 2454  21.374  27.004   7.501
 2468ETHY    C1 2455  21.020  27.302   7.497
 2469ETHY    C1 2456  20.536  27.579   7.498
 2470AUSL   AUS 2457  21.511  26.620   7.349
 2471AUSL   AUS 2458  21.768  26.967   7.236
 2472AUL    AUL 2459  21.391  26.947   7.197
 2473THSLK    S 2460  21.265  26.730   7.307
 2474ETHY    C1 2461  20.847  26.875   7.173
 2475ETHY    C1 2462  20.312  27.015   7.099
 2476THSLK    S 2463  21.637  27.136   7.056
 2477ETHY    C1 2464  21.413  27.458   6.812
 2478ETHY    C1 2465  21.073  27.840   6.589
 2479AUSL   AUS 2466  21.511  26.620   7.652
 2480AUSL   AUS 2467  21.511  26.293   7.349
 2481AUL    AUL 2468  21.203  26.457   7.501
 2482THSLK    S 2469  21.244  26.215   7.377
 2483ETHY    C1 2470  20.791  26.126   7.359
 2484ETHY    C1 2471  20.266  25.971   7.252
 2485THSLK    S 2472  21.265  26.730   7.694
 2486ETHY    C1 2473  20.848  26.881   7.825
 2487ETHY    C1 2474  20.313  27.019   7.900
 2488AUSL   AUS 2475  22.765  26.048   7.501
 2489AUSL   AUS 2476  22.695  26.192   7.917
 2490AUL    AUL 2477  22.979  25.966   7.804
 2491THSLK    S 2478  22.996  25.909   7.501
 2492ETHY    C1 2479  23.350  25.611   7.497
 2493ETHY    C1 2480  23.834  25.334   7.498
 2494THSLK    S 2481  22.841  26.005   8.070
 2495ETHY    C1 2482  23.129  25.750   8.326
 2496ETHY    C1 2483  23.521  25.530   8.657
 2497AUSL   AUS 2484  22.859  26.293   7.349
 2498AUSL   AUS 2485  22.601  25.946   7.236
 2499AUL    AUL 2486  22.979  25.966   7.197
 2500THSLK    S 2487  23.105  26.161   7.343
 2501ETHY    C1 2488  23.521  25.976   7.266
 2502ETHY    C1 2489  24.057  25.848   7.176
 2503THSLK    S 2490  22.733  25.755   7.092
 2504ETHY    C1 2491  22.954  25.394   6.907
 2505ETHY    C1 2492  23.295  25.024   6.667
 2506AUSL   AUS 2493  21.605  26.048   7.501
 2507AUSL   AUS 2494  21.675  26.192   7.084
 2508AUL    AUL 2495  21.391  25.966   7.197
 2509THSLK    S 2496  21.495  26.024   6.958
 2510ETHY    C1 2497  21.149  25.804   6.743
 2511ETHY    C1 2498  20.774  25.574   6.400
 2512THSLK    S 2499  21.332  25.976   7.501
 2513ETHY    C1 2500  20.908  25.793   7.497
 2514ETHY    C1 2501  20.444  25.483   7.498
 2515AUSL   AUS 2502  21.511  26.293   7.652
 2516AUSL   AUS 2503  21.768  25.946   7.765
 2517AUL    AUL 2504  21.391  25.966   7.804
 2518THSLK    S 2505  21.582  25.789   7.889
 2519ETHY    C1 2506  21.269  25.483   8.033
 2520ETHY    C1 2507  20.954  25.096   8.284
 2521THSLK    S 2508  21.244  26.216   7.625
 2522ETHY    C1 2509  20.792  26.120   7.639
 2523ETHY    C1 2510  20.267  25.967   7.746
 2524AUSL   AUS 2511  22.185  27.037   7.910
 2525AUSL   AUS 2512  21.768  26.967   7.765
 2526AUL    AUL 2513  21.881  27.251   7.991
 2527THSLK    S 2514  21.637  27.135   7.945
 2528ETHY    C1 2515  21.416  27.463   8.185
 2529ETHY    C1 2516  21.075  27.843   8.409
 2530THSLK    S 2517  22.219  27.278   8.033
 2531ETHY    C1 2518  22.277  27.650   8.301
 2532ETHY    C1 2519  22.261  28.129   8.586
 2533AUSL   AUS 2520  22.033  27.130   7.664
 2534AUSL   AUS 2521  22.336  27.130   7.337
 2535AUL    AUL 2522  22.185  27.438   7.501
 2536THSLK    S 2523  22.064  27.390   7.770
 2537ETHY    C1 2524  22.054  27.831   7.907
 2538ETHY    C1 2525  21.945  28.360   8.048
 2539THSLK    S 2526  22.381  27.379   7.235
 2540ETHY    C1 2527  22.519  27.797   7.097
 2541ETHY    C1 2528  22.591  28.332   6.955
 2542AUSL   AUS 2529  22.336  27.130   7.664
 2543AUSL   AUS 2530  22.450  26.873   8.011
 2544AUL    AUL 2531  22.488  27.251   7.991
 2545THSLK    S 2532  22.624  27.001   8.185
 2546ETHY    C1 2533  22.860  27.220   8.517
 2547ETHY    C1 2534  23.086  27.562   8.895
 2548THSLK    S 2535  22.381  27.378   7.767
 2549ETHY    C1 2536  22.520  27.799   7.898
 2550ETHY    C1 2537  22.593  28.333   8.041
 2551AUSL   AUS 2538  22.185  25.877   7.910
 2552AUSL   AUS 2539  22.601  25.946   7.765
 2553AUL    AUL 2540  22.488  25.662   7.991
 2554THSLK    S 2541  22.151  25.613   7.997
 2555ETHY    C1 2542  22.096  25.204   8.205
 2556ETHY    C1 2543  22.111  24.736   8.507
 2557THSLK    S 2544  22.733  25.755   7.910
 2558ETHY    C1 2545  22.956  25.393   8.089
 2559ETHY    C1 2546  23.297  25.023   8.330
 2560AUSL   AUS 2547  22.033  25.783   7.664
 2561AUSL   AUS 2548  21.920  26.040   8.011
 2562AUL    AUL 2549  21.881  25.662   7.991
 2563THSLK    S 2550  21.988  25.530   7.746
 2564ETHY    C1 2551  21.851  25.099   7.843
 2565ETHY    C1 2552  21.778  24.567   7.996
 2566THSLK    S 2553  21.745  25.866   8.146
 2567ETHY    C1 2554  21.514  25.568   8.413
 2568ETHY    C1 2555  21.287  25.248   8.810
 2569AUSL   AUS 2556  22.336  25.783   7.664
 2570AUSL   AUS 2557  22.033  25.783   7.337
 2571AUL    AUL 2558  22.185  25.475   7.501
 2572THSLK    S 2559  21.988  25.530   7.255
 2573ETHY    C1 2560  21.849  25.101   7.152
 2574ETHY    C1 2561  21.777  24.569   7.001
 2575THSLK    S 2562  22.305  25.518   7.750
 2576ETHY    C1 2563  22.318  25.067   7.852
 2577ETHY    C1 2564  22.426  24.541   8.003
 2578AUSL   AUS 2565  22.185  27.037   7.092
 2579AUSL   AUS 2566  22.601  26.967   7.236
 2580AUL    AUL 2567  22.488  27.251   7.010
 2581THSLK    S 2568  22.219  27.278   6.969
 2582ETHY    C1 2569  22.274  27.647   6.696
 2583ETHY    C1 2570  22.258  28.126   6.412
 2584THSLK    S 2571  22.788  27.102   7.077
 2585ETHY    C1 2572  23.101  27.369   6.868
 2586ETHY    C1 2573  23.416  27.766   6.634
 2587AUSL   AUS 2574  22.033  27.130   7.337
 2588AUSL   AUS 2575  21.920  26.873   6.990
 2589AUL    AUL 2576  21.881  27.251   7.010
 2590THSLK    S 2577  22.064  27.391   7.232
 2591ETHY    C1 2578  22.052  27.829   7.088
 2592ETHY    C1 2579  21.944  28.358   6.948
 2593THSLK    S 2580  21.793  27.016   6.799
 2594ETHY    C1 2581  21.635  27.256   6.437
 2595ETHY    C1 2582  21.387  27.591   6.067
 2596AUSL   AUS 2583  22.185  25.877   7.092
 2597AUSL   AUS 2584  21.768  25.946   7.236
 2598AUL    AUL 2585  21.881  25.662   7.010
 2599THSLK    S 2586  21.582  25.789   7.113
 2600ETHY    C1 2587  21.266  25.487   6.964
 2601ETHY    C1 2588  20.952  25.100   6.714
 2602THSLK    S 2589  22.151  25.613   7.004
 2603ETHY    C1 2590  22.092  25.208   6.791
 2604ETHY    C1 2591  22.109  24.738   6.490
 2605AUSL   AUS 2592  22.336  25.783   7.337
 2606AUSL   AUS 2593  22.450  26.040   6.990
 2607AUL    AUL 2594  22.488  25.662   7.010
 2608THSLK    S 2595  22.306  25.517   7.252
 2609ETHY    C1 2596  22.316  25.069   7.143
 2610ETHY    C1 2597  22.424  24.542   6.993
 2611THSLK    S 2598  22.578  25.851   6.839
 2612ETHY    C1 2599  22.730  25.533   6.541
 2613ETHY    C1 2600  22.979  25.219   6.152
 2614AUC    AUC 2601  31.162  24.653   7.501
 2615AUC    AUC 2602  31.407  24.653   7.349
 2616AUC    AUC 2603  31.407  24.653   7.652
 2617AUC    AUC 2604  30.916  24.653   7.349
 2618AUC    AUC 2605  30.916  24.653   7.652
 2619AUC    AUC 2606  31.010  24.898   7.501
 2620AUC    AUC 2607  31.313  24.898   7.501
 2621AUC    AUC 2608  31.010  24.407   7.501
 2622AUC    AUC 2609  31.313  24.407   7.501
 2623AUC    AUC 2610  31.162  24.501   7.746
 2624AUC    AUC 2611  31.162  24.804   7.746
 2625AUC    AUC 2612  31.162  24.501   7.255
 2626AUC    AUC 2613  31.162  24.804   7.255
 2627AUC    AUC 2614  31.653  24.653   7.197
 2628AUC    AUC 2615  31.653  24.653   7.501
 2629AUC    AUC 2616  31.653  24.653   7.804
 2630AUC    AUC 2617  30.671  24.653   7.197
 2631AUC    AUC 2618  30.671  24.653   7.501
 2632AUC    AUC 2619  30.671  24.653   7.804
 2633AUC    AUC 2620  30.858  25.143   7.501
 2634AUC    AUC 2621  31.162  25.143   7.501
 2635AUC    AUC 2622  31.465  25.143   7.501
 2636AUC    AUC 2623  30.858  24.162   7.501
 2637AUC    AUC 2624  31.162  24.162   7.501
 2638AUC    AUC 2625  31.465  24.162   7.501
 2639AUC    AUC 2626  31.162  24.349   7.991
 2640AUC    AUC 2627  31.162  24.653   7.991
 2641AUC    AUC 2628  31.162  24.956   7.991
 2642AUC    AUC 2629  31.162  24.349   7.010
 2643AUC    AUC 2630  31.162  24.653   7.010
 2644AUC    AUC 2631  31.162  24.956   7.010
 2645AUC    AUC 2632  31.407  24.501   7.898
 2646AUC    AUC 2633  31.407  24.804   7.898
 2647AUC    AUC 2634  31.407  24.501   7.103
 2648AUC    AUC 2635  31.407  24.804   7.103
 2649AUC    AUC 2636  30.916  24.501   7.898
 2650AUC    AUC 2637  30.916  24.804   7.898
 2651AUC    AUC 2638  30.916  24.501   7.103
 2652AUC    AUC 2639  30.916  24.804   7.103
 2653AUC    AUC 2640  31.559  24.898   7.349
 2654AUC    AUC 2641  31.559  24.898   7.652
 2655AUC    AUC 2642  30.765  24.898   7.349
 2656AUC    AUC 2643  30.765  24.898   7.652
 2657AUC    AUC 2644  31.559  24.407   7.349
 2658AUC    AUC 2645  31.559  24.407   7.652
 2659AUC    AUC 2646  30.765  24.407   7.349
 2660AUC    AUC 2647  30.765  24.407   7.652
 2661AUC    AUC 2648  31.010  25.050   7.746
 2662AUC    AUC 2649  31.313  25.050   7.746
 2663AUC    AUC 2650  31.010  24.256   7.746
 2664AUC    AUC 2651  31.313  24.256   7.746
 2665AUC    AUC 2652  31.010  25.050   7.255
 2666AUC    AUC 2653  31.313  25.050   7.255
 2667AUC    AUC 2654  31.010  24.256   7.255
 2668AUC    AUC 2655  31.313  24.256   7.255
 2669AUSL   AUS 2656  31.571  24.653   8.081
 2670AUSL   AUS 2657  31.427  24.236   8.011
 2671AUL    AUL 2658  31.653  24.349   8.295
 2672THSLK    S 2659  31.554  24.048   8.163
 2673ETHY    C1 2660  31.712  23.727   8.456
 2674ETHY    C1 2661  31.960  23.414   8.845
 2675THSLK    S 2662  31.676  24.613   8.333
 2676ETHY    C1 2663  31.919  24.546   8.720
 2677ETHY    C1 2664  32.212  24.565   9.194
 2678AUSL   AUS 2665  31.325  24.501   8.174
 2679AUSL   AUS 2666  30.998  24.804   8.174
 2680AUL    AUL 2667  31.162  24.653   8.482
 2681THSLK    S 2668  31.412  24.455   8.426
 2682ETHY    C1 2669  31.525  24.314   8.852
 2683ETHY    C1 2670  31.674  24.243   9.385
 2684THSLK    S 2671  30.910  24.773   8.439
 2685ETHY    C1 2672  30.805  24.784   8.889
 2686ETHY    C1 2673  30.655  24.892   9.415
 2687AUSL   AUS 2674  31.325  24.804   8.174
 2688AUSL   AUS 2675  31.672  24.917   7.917
 2689AUL    AUL 2676  31.653  24.956   8.295
 2690THSLK    S 2677  31.413  24.850   8.426
 2691ETHY    C1 2678  31.519  24.990   8.854
 2692ETHY    C1 2679  31.669  25.062   9.386
 2693THSLK    S 2680  31.852  25.033   8.082
 2694ETHY    C1 2681  32.197  25.168   8.358
 2695ETHY    C1 2682  32.572  25.422   8.683
 2696AUSL   AUS 2683  31.571  24.653   6.921
 2697AUSL   AUS 2684  31.427  25.069   6.990
 2698AUL    AUL 2685  31.653  24.956   6.706
 2699THSLK    S 2686  31.677  24.613   6.668
 2700ETHY    C1 2687  31.914  24.546   6.278
 2701ETHY    C1 2688  32.207  24.565   5.804
 2702THSLK    S 2689  31.602  25.197   6.816
 2703ETHY    C1 2690  31.833  25.415   6.480
 2704ETHY    C1 2691  32.059  25.757   6.102
 2705AUSL   AUS 2692  31.325  24.501   6.827
 2706AUSL   AUS 2693  31.672  24.388   7.084
 2707AUL    AUL 2694  31.653  24.349   6.706
 2708THSLK    S 2695  31.818  24.201   6.932
 2709ETHY    C1 2696  32.102  23.947   6.670
 2710ETHY    C1 2697  32.494  23.727   6.340
 2711THSLK    S 2698  31.413  24.455   6.575
 2712ETHY    C1 2699  31.519  24.315   6.147
 2713ETHY    C1 2700  31.669  24.243   5.615
 2714AUSL   AUS 2701  31.325  24.804   6.827
 2715AUSL   AUS 2702  30.998  24.501   6.827
 2716AUL    AUL 2703  31.162  24.653   6.519
 2717THSLK    S 2704  30.898  24.455   6.579
 2718ETHY    C1 2705  30.764  24.317   6.158
 2719ETHY    C1 2706  30.621  24.245   5.624
 2720THSLK    S 2707  31.426  24.772   6.566
 2721ETHY    C1 2708  31.553  24.781   6.121
 2722ETHY    C1 2709  31.697  24.890   5.594
 2723AUSL   AUS 2710  30.753  24.653   8.081
 2724AUSL   AUS 2711  30.897  25.069   8.011
 2725AUL    AUL 2712  30.671  24.956   8.295
 2726THSLK    S 2713  30.647  24.613   8.333
 2727ETHY    C1 2714  30.410  24.546   8.723
 2728ETHY    C1 2715  30.116  24.565   9.197
 2729THSLK    S 2716  30.769  25.211   8.202
 2730ETHY    C1 2717  30.616  25.456   8.563
 2731ETHY    C1 2718  30.368  25.791   8.933
 2732AUSL   AUS 2719  30.998  24.501   8.174
 2733AUSL   AUS 2720  30.652  24.388   7.917
 2734AUL    AUL 2721  30.671  24.349   8.295
 2735THSLK    S 2722  30.471  24.220   8.043
 2736ETHY    C1 2723  30.130  23.994   8.259
 2737ETHY    C1 2724  29.754  23.766   8.602
 2738THSLK    S 2725  30.898  24.455   8.422
 2739ETHY    C1 2726  30.770  24.316   8.844
 2740ETHY    C1 2727  30.626  24.244   9.378
 2741AUSL   AUS 2728  30.753  24.653   6.921
 2742AUSL   AUS 2729  30.897  24.236   6.990
 2743AUL    AUL 2730  30.671  24.349   6.706
 2744THSLK    S 2731  30.648  24.613   6.668
 2745ETHY    C1 2732  30.404  24.546   6.281
 2746ETHY    C1 2733  30.112  24.565   5.807
 2747THSLK    S 2734  30.723  24.062   6.855
 2748ETHY    C1 2735  30.486  23.769   6.587
 2749ETHY    C1 2736  30.261  23.448   6.190
 2750AUSL   AUS 2737  30.998  24.804   6.827
 2751AUSL   AUS 2738  30.652  24.917   7.084
 2752AUL    AUL 2739  30.671  24.956   6.706
 2753THSLK    S 2740  30.506  25.052   6.894
 2754ETHY    C1 2741  30.217  25.216   6.572
 2755ETHY    C1 2742  29.826  25.461   6.259
 2756THSLK    S 2743  30.911  24.773   6.562
 2757ETHY    C1 2744  30.798  24.783   6.114
 2758ETHY    C1 2745  30.650  24.891   5.587
 2759AUSL   AUS 2746  31.742  25.062   7.501
 2760AUSL   AUS 2747  31.672  24.917   7.084
 2761AUL    AUL 2748  31.956  25.143   7.197
 2762THSLK    S 2749  31.852  25.034   6.920
 2763ETHY    C1 2750  32.193  25.167   6.638
 2764ETHY    C1 2751  32.569  25.421   6.314
 2765THSLK    S 2752  32.015  25.133   7.501
 2766ETHY    C1 2753  32.439  25.317   7.497
 2767ETHY    C1 2754  32.903  25.626   7.498
 2768AUSL   AUS 2755  31.836  24.816   7.349
 2769AUSL   AUS 2756  31.836  24.489   7.652
 2770AUL    AUL 2757  32.143  24.653   7.501
 2771THSLK    S 2758  32.103  24.871   7.341
 2772ETHY    C1 2759  32.555  24.927   7.262
 2773ETHY    C1 2760  33.080  25.092   7.172
 2774THSLK    S 2761  32.082  24.357   7.659
 2775ETHY    C1 2762  32.499  24.172   7.728
 2776ETHY    C1 2763  33.035  24.044   7.820
 2777AUSL   AUS 2764  31.836  24.816   7.652
 2778AUSL   AUS 2765  31.578  25.163   7.765
 2779AUL    AUL 2766  31.956  25.143   7.804
 2780THSLK    S 2767  31.764  25.298   7.925
 2781ETHY    C1 2768  32.080  25.566   8.128
 2782ETHY    C1 2769  32.395  25.963   8.362
 2783THSLK    S 2770  32.103  24.871   7.661
 2784ETHY    C1 2771  32.555  24.927   7.733
 2785ETHY    C1 2772  33.081  25.092   7.824
 2786AUSL   AUS 2773  30.582  25.062   7.501
 2787AUSL   AUS 2774  30.652  24.917   7.917
 2788AUL    AUL 2775  30.368  25.143   7.804
 2789THSLK    S 2776  30.505  25.052   8.107
 2790ETHY    C1 2777  30.221  25.221   8.430
 2791ETHY    C1 2778  29.829  25.466   8.743
 2792THSLK    S 2779  30.351  25.200   7.501
 2793ETHY    C1 2780  29.997  25.498   7.497
 2794ETHY    C1 2781  29.513  25.775   7.498
 2795AUSL   AUS 2782  30.488  24.816   7.349
 2796AUSL   AUS 2783  30.745  25.163   7.236
 2797AUL    AUL 2784  30.368  25.143   7.197
 2798THSLK    S 2785  30.242  24.926   7.307
 2799ETHY    C1 2786  29.824  25.071   7.173
 2800ETHY    C1 2787  29.289  25.211   7.099
 2801THSLK    S 2788  30.614  25.332   7.056
 2802ETHY    C1 2789  30.390  25.654   6.812
 2803ETHY    C1 2790  30.050  26.036   6.589
 2804AUSL   AUS 2791  30.488  24.816   7.652
 2805AUSL   AUS 2792  30.488  24.489   7.349
 2806AUL    AUL 2793  30.180  24.653   7.501
 2807THSLK    S 2794  30.221  24.411   7.377
 2808ETHY    C1 2795  29.768  24.322   7.359
 2809ETHY    C1 2796  29.243  24.167   7.252
 2810THSLK    S 2797  30.242  24.926   7.694
 2811ETHY    C1 2798  29.825  25.077   7.825
 2812ETHY    C1 2799  29.290  25.215   7.900
 2813AUSL   AUS 2800  31.742  24.244   7.501
 2814AUSL   AUS 2801  31.672  24.388   7.917
 2815AUL    AUL 2802  31.956  24.162   7.804
 2816THSLK    S 2803  31.973  24.105   7.501
 2817ETHY    C1 2804  32.327  23.807   7.497
 2818ETHY    C1 2805  32.811  23.530   7.498
 2819THSLK    S 2806  31.818  24.201   8.070
 2820ETHY    C1 2807  32.106  23.946   8.326
 2821ETHY    C1 2808  32.498  23.726   8.657
 2822AUSL   AUS 2809  31.836  24.489   7.349
 2823AUSL   AUS 2810  31.578  24.142   7.236
 2824AUL    AUL 2811  31.956  24.162   7.197
 2825THSLK    S 2812  32.082  24.357   7.343
 2826ETHY    C1 2813  32.498  24.172   7.266
 2827ETHY    C1 2814  33.034  24.044   7.176
 2828THSLK    S 2815  31.710  23.951   7.092
 2829ETHY    C1 2816  31.931  23.590   6.907
 2830ETHY    C1 2817  32.272  23.220   6.667
 2831AUSL   AUS 2818  30.582  24.244   7.501
 2832AUSL   AUS 2819  30.652  24.388   7.084
 2833AUL    AUL 2820  30.368  24.162   7.197
 2834THSLK    S 2821  30.472  24.220   6.958
 2835ETHY    C1 2822  30.126  24.000   6.743
 2836ETHY    C1 2823  29.751  23.770   6.400
 2837THSLK    S 2824  30.309  24.172   7.501
 2838ETHY    C1 2825  29.885  23.989   7.497
 2839ETHY    C1 2826  29.421  23.679   7.498
 2840AUSL   AUS 2827  30.488  24.489   7.652
 2841AUSL   AUS 2828  30.745  24.142   7.765
 2842AUL    AUL 2829  30.368  24.162   7.804
 2843THSLK    S 2830  30.559  23.985   7.889
 2844ETHY    C1 2831  30.246  23.679   8.033
 2845ETHY    C1 2832  29.931  23.292   8.284
 2846THSLK    S 2833  30.221  24.412   7.625
 2847ETHY    C1 2834  29.769  24.316   7.639
 2848ETHY    C1 2835  29.244  24.163   7.746
 2849AUSL   AUS 2836  31.162  25.233   7.910
 2850AUSL   AUS 2837  30.745  25.163   7.765
 2851AUL    AUL 2838  30.858  25.447   7.991
 2852THSLK    S 2839  30.614  25.331   7.945
 2853ETHY    C1 2840  30.393  25.659   8.185
 2854ETHY    C1 2841  30.052  26.039   8.409
 2855THSLK    S 2842  31.196  25.474   8.033
 2856ETHY    C1 2843  31.254  25.846   8.301
 2857ETHY    C1 2844  31.238  26.325   8.586
 2858AUSL   AUS 2845  31.010  25.326   7.664
 2859AUSL   AUS 2846  31.313  25.326   7.337
 2860AUL    AUL 2847  31.162  25.634   7.501
 2861THSLK    S 2848  31.041  25.586   7.770
 2862ETHY    C1 2849  31.031  26.027   7.907
 2863ETHY    C1 2850  30.922  26.556   8.048
 2864THSLK    S 2851  31.358  25.575   7.235
 2865ETHY    C1 2852  31.496  25.993   7.097
 2866ETHY    C1 2853  31.568  26.528   6.955
 2867AUSL   AUS 2854  31.313  25.326   7.664
 2868AUSL   AUS 2855  31.427  25.069   8.011
 2869AUL    AUL 2856  31.465  25.447   7.991
 2870THSLK    S 2857  31.601  25.197   8.185
 2871ETHY    C1 2858  31.837  25.416   8.517
 2872ETHY    C1 2859  32.063  25.758   8.895
 2873THSLK    S 2860  31.358  25.574   7.767
 2874ETHY    C1 2861  31.497  25.995   7.898
 2875ETHY    C1 2862  31.570  26.529   8.041
 2876AUSL   AUS 2863  31.162  24.073   7.910
 2877AUSL   AUS 2864  31.578  24.142   7.765
 2878AUL    AUL 2865  31.465  23.858   7.991
 2879THSLK    S 2866  31.128  23.809   7.997
 2880ETHY    C1 2867  31.073  23.400   8.205
 2881ETHY    C1 2868  31.088  22.932   8.507
 2882THSLK    S 2869  31.710  23.951   7.910
 2883ETHY    C1 2870  31.933  23.589   8.089
 2884ETHY    C1 2871  32.274  23.219   8.330
 2885AUSL   AUS 2872  31.010  23.979   7.664
 2886AUSL   AUS 2873  30.897  24.236   8.011
 2887AUL    AUL 2874  30.858  23.858   7.991
 2888THSLK    S 2875  30.965  23.726   7.746
 2889ETHY    C1 2876  30.828  23.295   7.843
 2890ETHY    C1 2877  30.755  22.763   7.996
 2891THSLK    S 2878  30.722  24.062   8.146
 2892ETHY    C1 2879  30.491  23.764   8.413
 2893ETHY    C1 2880  30.264  23.444   8.810
 2894AUSL   AUS 2881  31.313  23.979   7.664
 2895AUSL   AUS 2882  31.010  23.979   7.337
 2896AUL    AUL 2883  31.162  23.671   7.501
 2897THSLK    S 2884  30.965  23.726   7.255
 2898ETHY    C1 2885  30.826  23.297   7.152
 2899ETHY    C1 2886  30.754  22.765   7.001
 2900THSLK    S 2887  31.282  23.714   7.750
 2901ETHY    C1 2888  31.295  23.263   7.852
 2902ETHY    C1 2889  31.403  22.737   8.003
 2903AUSL   AUS 2890  31.162  25.233   7.092
 2904AUSL   AUS 2891  31.578  25.163   7.236
 2905AUL    AUL 2892  31.465  25.447   7.010
 2906THSLK    S 2893  31.196  25.474   6.969
 2907ETHY    C1 2894  31.251  25.843   6.696
 2908ETHY    C1 2895  31.235  26.322   6.412
 2909THSLK    S 2896  31.765  25.298   7.077
 2910ETHY    C1 2897  32.078  25.565   6.868
 2911ETHY    C1 2898  32.393  25.962   6.634
 2912AUSL   AUS 2899  31.010  25.326   7.337
 2913AUSL   AUS 2900  30.897  25.069   6.990
 2914AUL    AUL 2901  30.858  25.447   7.010
 2915THSLK    S 2902  31.041  25.587   7.232
 2916ETHY    C1 2903  31.029  26.025   7.088
 2917ETHY    C1 2904  30.921  26.554   6.948
 2918THSLK    S 2905  30.770  25.212   6.799
 2919ETHY    C1 2906  30.612  25.452   6.437
 2920ETHY    C1 2907  30.364  25.787   6.067
 2921AUSL   AUS 2908  31.162  24.073   7.092
 2922AUSL   AUS 2909  30.745  24.142   7.236
 2923AUL    AUL 2910  30.858  23.858   7.010
 2924THSLK    S 2911  30.559  23.985   7.113
 2925ETHY    C1 2912  30.243  23.683   6.964
 2926ETHY    C1 2913  29.929  23.296   6.714
 2927THSLK    S 2914  31.128  23.809   7.004
 2928ETHY    C1 2915  31.069  23.404   6.791
 2929ETHY    C1 2916  31.086  22.934   6.490
 2930AUSL   AUS 2917  31.313  23.979   7.337
 2931AUSL   AUS 2918  31.427  24.236   6.990
 2932AUL    AUL 2919  31.465  23.858   7.010
 2933THSLK    S 2920  31.283  23.713   7.252
 2934ETHY    C1 2921  31.293  23.265   7.143
 2935ETHY    C1 2922  31.401  22.738   6.993
 2936THSLK    S 2923  31.555  24.047   6.839
 2937ETHY    C1 2924  31.707  23.729   6.541
 2938ETHY    C1 2925  31.956  23.415   6.152
 2939AUC    AUC 2926   5.248  14.554   7.501
 2940AUC    AUC 2927   5.493  14.554   7.349
 2941AUC    AUC 2928   5.493  14.554   7.652
 2942AUC    AUC 2929   5.002  14.554   7.349
 2943AUC    AUC 2930   5.002  14.554   7.652
 2944AUC    AUC 2931   5.096  14.799   7.501
 2945AUC    AUC 2932   5.399  14.799   7.501
 2946AUC    AUC 2933   5.096  14.308   7.501
 2947AUC    AUC 2934   5.399  14.308   7.501
 2948AUC    AUC 2935   5.248  14.402   7.746
 2949AUC    AUC 2936   5.248  14.705   7.746
 2950AUC    AUC 2937   5.248  14.402   7.255
 2951AUC    AUC 2938   5.248  14.705   7.255
 2952AUC    AUC 2939   5.739  14.554   7.197
 2953AUC    AUC 2940   5.739  14.554   7.501
 2954AUC    AUC 2941   5.739  14.554   7.804
 2955AUC    AUC 2942   4.757  14.554   7.197
 2956AUC    AUC 2943   4.757  14.554   7.501
 2957AUC    AUC 2944   4.757  14.554   7.804
 2958AUC    AUC 2945   4.944  15.044   7.501
 2959AUC    AUC 2946   5.248  15.044   7.501
 2960AUC    AUC 2947   5.551  15.044   7.501
 2961AUC    AUC 2948   4.944  14.063   7.501
 2962AUC    AUC 2949   5.248  14.063   7.501
 2963AUC    AUC 2950   5.551  14.063   7.501
 2964AUC    AUC 2951   5.248  14.250   7.991
 2965AUC    AUC 2952   5.248  14.554   7.991
 2966AUC    AUC 2953   5.248  14.857   7.991
 2967AUC    AUC 2954   5.248  14.250   7.010
 2968AUC    AUC 2955   5.248  14.554   7.010
 2969AUC    AUC 2956   5.248  14.857   7.010
 2970AUC    AUC 2957   5.493  14.402   7.898
 2971AUC    AUC 2958   5.493  14.705   7.898
 2972AUC    AUC 2959   5.493  14.402   7.103
 2973AUC    AUC 2960   5.493  14.705   7.103
 2974AUC    AUC 2961   5.002  14.402   7.898
 2975AUC    AUC 2962   5.002  14.705   7.898
 2976AUC    AUC 2963   5.002  14.402   7.103
 2977AUC    AUC 2964   5.002  14.705   7.103
 2978AUC    AUC 2965   5.645  14.799   7.349
 2979AUC    AUC 2966   5.645  14.799   7.652
 2980AUC    AUC 2967   4.851  14.799   7.349
 2981AUC    AUC 2968   4.851  14.799   7.652
 2982AUC    AUC 2969   5.645  14.308   7.349
 2983AUC    AUC 2970   5.645  14.308   7.652
 2984AUC    AUC 2971   4.851  14.308   7.349
 2985AUC    AUC 2972   4.851  14.308   7.652
 2986AUC    AUC 2973   5.096  14.951   7.746
 2987AUC    AUC 2974   5.399  14.951   7.746
 2988AUC    AUC 2975   5.096  14.157   7.746
 2989AUC    AUC 2976   5.399  14.157   7.746
 2990AUC    AUC 2977   5.096  14.951   7.255
 2991AUC    AUC 2978   5.399  14.951   7.255
 2992AUC    AUC 2979   5.096  14.157   7.255
 2993AUC    AUC 2980   5.399  14.157   7.255
 2994AUSL   AUS 2981   5.657  14.554   8.081
 2995AUSL   AUS 2982   5.513  14.137   8.011
 2996AUL    AUL 2983   5.739  14.250   8.295
 2997THSLK    S 2984   5.640  13.949   8.163
 2998ETHY    C1 2985   5.798  13.628   8.456
 2999ETHY    C1 2986   6.046  13.315   8.845
 3000THSLK    S 2987   5.762  14.514   8.333
 3001ETHY    C1 2988   6.005  14.447   8.720
 3002ETHY    C1 2989   6.298  14.466   9.194
 3003AUSL   AUS 2990   5.411  14.402   8.174
 3004AUSL   AUS 2991   5.084  14.705   8.174
 3005AUL    AUL 2992   5.248  14.554   8.482
 3006THSLK    S 2993   5.498  14.356   8.426
 3007ETHY    C1 2994   5.611  14.215   8.852
 3008ETHY    C1 2995   5.760  14.144   9.385
 3009THSLK    S 2996   4.996  14.674   8.439
 3010ETHY    C1 2997   4.891  14.685   8.889
 3011ETHY    C1 2998   4.741  14.793   9.415
 3012AUSL   AUS 2999   5.411  14.705   8.174
 3013AUSL   AUS 3000   5.758  14.818   7.917
 3014AUL    AUL 3001   5.739  14.857   8.295
 3015THSLK    S 3002   5.499  14.751   8.426
 3016ETHY    C1 3003   5.605  14.891   8.854
 3017ETHY    C1 3004   5.755  14.963   9.386
 3018THSLK    S 3005   5.938  14.934   8.082
 3019ETHY    C1 3006   6.283  15.069   8.358
 3020ETHY    C1 3007   6.658  15.323   8.683
 3021AUSL   AUS 3008   5.657  14.554   6.921
 3022AUSL   AUS 3009   5.513  14.970   6.990
 3023AUL    AUL 3010   5.739  14.857   6.706
 3024THSLK    S 3011   5.763  14.514   6.668
 3025ETHY    C1 3012   6.000  14.447   6.278
 3026ETHY    C1 3013   6.293  14.466   5.804
 3027THSLK    S 3014   5.688  15.098   6.816
 3028ETHY    C1 3015   5.919  15.316   6.480
 3029ETHY    C1 3016   6.145  15.658   6.102
 3030AUSL   AUS 3017   5.411  14.402   6.827
 3031AUSL   AUS 3018   5.758  14.289   7.084
 3032AUL    AUL 3019   5.739  14.250   6.706
 3033THSLK    S 3020   5.904  14.102   6.932
 3034ETHY    C1 3021   6.188  13.848   6.670
 3035ETHY    C1 3022   6.580  13.628   6.340
 3036THSLK    S 3023   5.499  14.356   6.575
 3037ETHY    C1 3024   5.605  14.216   6.147
 3038ETHY    C1 3025   5.755  14.144   5.615
 3039AUSL   AUS 3026   5.411  14.705   6.827
 3040AUSL   AUS 3027   5.084  14.402   6.827
 3041AUL    AUL 3028   5.248  14.554   6.519
 3042THSLK    S 3029   4.984  14.356   6.579
 3043ETHY    C1 3030   4.850  14.218   6.158
 3044ETHY    C1 3031   4.707  14.146   5.624
 3045THSLK    S 3032   5.512  14.673   6.566
 3046ETHY    C1 3033   5.639  14.682   6.121
 3047ETHY    C1 3034   5.783  14.791   5.594
 3048AUSL   AUS 3035   4.839  14.554   8.081
 3049AUSL   AUS 3036   4.983  14.970   8.011
 3050AUL    AUL 3037   4.757  14.857   8.295
 3051THSLK    S 3038   4.733  14.514   8.333
 3052ETHY    C1 3039   4.496  14.447   8.723
 3053ETHY    C1 3040   4.202  14.466   9.197
 3054THSLK    S 3041   4.855  15.112   8.202
 3055ETHY    C1 3042   4.702  15.357   8.563
 3056ETHY    C1 3043   4.454  15.692   8.933
 3057AUSL   AUS 3044   5.084  14.402   8.174
 3058AUSL   AUS 3045   4.738  14.289   7.917
 3059AUL    AUL 3046   4.757  14.250   8.295
 3060THSLK    S 3047   4.557  14.121   8.043
 3061ETHY    C1 3048   4.216  13.895   8.259
 3062ETHY    C1 3049   3.840  13.667   8.602
 3063THSLK    S 3050   4.984  14.356   8.422
 3064ETHY    C1 3051   4.856  14.217   8.844
 3065ETHY    C1 3052   4.712  14.145   9.378
 3066AUSL   AUS 3053   4.839  14.554   6.921
 3067AUSL   AUS 3054   4.983  14.137   6.990
 3068AUL    AUL 3055   4.757  14.250   6.706
 3069THSLK    S 3056   4.734  14.514   6.668
 3070ETHY    C1 3057   4.490  14.447   6.281
 3071ETHY    C1 3058   4.198  14.466   5.807
 3072THSLK    S 3059   4.809  13.963   6.855
 3073ETHY    C1 3060   4.572  13.670   6.587
 3074ETHY    C1 3061   4.347  13.349   6.190
 3075AUSL   AUS 3062   5.084  14.705   6.827
 3076AUSL   AUS 3063   4.738  14.818   7.084
 3077AUL    AUL 3064   4.757  14.857   6.706
 3078THSLK    S 3065   4.592  14.953   6.894
 3079ETHY    C1 3066   4.303  15.117   6.572
 3080ETHY    C1 3067   3.912  15.362   6.259
 3081THSLK    S 3068   4.997  14.674   6.562
 3082ETHY    C1 3069   4.884  14.684   6.114
 3083ETHY    C1 3070   4.736  14.792   5.587
 3084AUSL   AUS 3071   5.828  14.963   7.501
 3085AUSL   AUS 3072   5.758  14.818   7.084
 3086AUL    AUL 3073   6.042  15.044   7.197
 3087THSLK    S 3074   5.938  14.935   6.920
 3088ETHY    C1 3075   6.279  15.068   6.638
 3089ETHY    C1 3076   6.655  15.322   6.314
 3090THSLK    S 3077   6.101  15.034   7.501
 3091ETHY    C1 3078   6.525  15.218   7.497
 3092ETHY    C1 3079   6.989  15.527   7.498
 3093AUSL   AUS 3080   5.922  14.717   7.349
 3094AUSL   AUS 3081   5.922  14.390   7.652
 3095AUL    AUL 3082   6.229  14.554   7.501
 3096THSLK    S 3083   6.189  14.772   7.341
 3097ETHY    C1 3084   6.641  14.828   7.262
 3098ETHY    C1 3085   7.166  14.993   7.172
 3099THSLK    S 3086   6.168  14.258   7.659
 3100ETHY    C1 3087   6.585  14.073   7.728
 3101ETHY    C1 3088   7.121  13.945   7.820
 3102AUSL   AUS 3089   5.922  14.717   7.652
 3103AUSL   AUS 3090   5.664  15.064   7.765
 3104AUL    AUL 3091   6.042  15.044   7.804
 3105THSLK    S 3092   5.850  15.199   7.925
 3106ETHY    C1 3093   6.166  15.467   8.128
 3107ETHY    C1 3094   6.481  15.864   8.362
 3108THSLK    S 3095   6.189  14.772   7.661
 3109ETHY    C1 3096   6.641  14.828   7.733
 3110ETHY    C1 3097   7.167  14.993   7.824
 3111AUSL   AUS 3098   4.668  14.963   7.501
 3112AUSL   AUS 3099   4.738  14.818   7.917
 3113AUL    AUL 3100   4.454  15.044   7.804
 3114THSLK    S 3101   4.591  14.953   8.107
 3115ETHY    C1 3102   4.307  15.122   8.430
 3116ETHY    C1 3103   3.915  15.367   8.743
 3117THSLK    S 3104   4.437  15.101   7.501
 3118ETHY    C1 3105   4.083  15.399   7.497
 3119ETHY    C1 3106   3.599  15.676   7.498
 3120AUSL   AUS 3107   4.574  14.717   7.349
 3121AUSL   AUS 3108   4.831  15.064   7.236
 3122AUL    AUL 3109   4.454  15.044   7.197
 3123THSLK    S 3110   4.328  14.827   7.307
 3124ETHY    C1 3111   3.910  14.972   7.173
 3125ETHY    C1 3112   3.375  15.112   7.099
 3126THSLK    S 3113   4.700  15.233   7.056
 3127ETHY    C1 3114   4.476  15.555   6.812
 3128ETHY    C1 3115   4.136  15.937   6.589
 3129AUSL   AUS 3116   4.574  14.717   7.652
 3130AUSL   AUS 3117   4.574  14.390   7.349
 3131AUL    AUL 3118   4.266  14.554   7.501
 3132THSLK    S 3119   4.307  14.312   7.377
 3133ETHY    C1 3120   3.854  14.223   7.359
 3134ETHY    C1 3121   3.329  14.068   7.252
 3135THSLK    S 3122   4.328  14.827   7.694
 3136ETHY    C1 3123   3.911  14.978   7.825
 3137ETHY    C1 3124   3.376  15.116   7.900
 3138AUSL   AUS 3125   5.828  14.145   7.501
 3139AUSL   AUS 3126   5.758  14.289   7.917
 3140AUL    AUL 3127   6.042  14.063   7.804
 3141THSLK    S 3128   6.059  14.006   7.501
 3142ETHY    C1 3129   6.413  13.708   7.497
 3143ETHY    C1 3130   6.897  13.431   7.498
 3144THSLK    S 3131   5.904  14.102   8.070
 3145ETHY    C1 3132   6.192  13.847   8.326
 3146ETHY    C1 3133   6.584  13.627   8.657
 3147AUSL   AUS 3134   5.922  14.390   7.349
 3148AUSL   AUS 3135   5.664  14.043   7.236
 3149AUL    AUL 3136   6.042  14.063   7.197
 3150THSLK    S 3137   6.168  14.258   7.343
 3151ETHY    C1 3138   6.584  14.073   7.266
 3152ETHY    C1 3139   7.120  13.945   7.176
 3153THSLK    S 3140   5.796  13.852   7.092
 3154ETHY    C1 3141   6.017  13.491   6.907
 3155ETHY    C1 3142   6.358  13.121   6.667
 3156AUSL   AUS 3143   4.668  14.145   7.501
 3157AUSL   AUS 3144   4.738  14.289   7.084
 3158AUL    AUL 3145   4.454  14.063   7.197
 3159THSLK    S 3146   4.558  14.121   6.958
 3160ETHY    C1 3147   4.212  13.901   6.743
 3161ETHY    C1 3148   3.837  13.671   6.400
 3162THSLK    S 3149   4.395  14.073   7.501
 3163ETHY    C1 3150   3.971  13.890   7.497
 3164ETHY    C1 3151   3.507  13.580   7.498
 3165AUSL   AUS 3152   4.574  14.390   7.652
 3166AUSL   AUS 3153   4.831  14.043   7.765
 3167AUL    AUL 3154   4.454  14.063   7.804
 3168THSLK    S 3155   4.645  13.886   7.889
 3169ETHY    C1 3156   4.332  13.580   8.033
 3170ETHY    C1 3157   4.017  13.193   8.284
 3171THSLK    S 3158   4.307  14.313   7.625
 3172ETHY    C1 3159   3.855  14.217   7.639
 3173ETHY    C1 3160   3.330  14.064   7.746
 3174AUSL   AUS 3161   5.248  15.134   7.910
 3175AUSL   AUS 3162   4.831  15.064   7.765
 3176AUL    AUL 3163   4.944  15.348   7.991
 3177THSLK    S 3164   4.700  15.232   7.945
 3178ETHY    C1 3165   4.479  15.560   8.185
 3179ETHY    C1 3166   4.138  15.940   8.409
 3180THSLK    S 3167   5.282  15.375   8.033
 3181ETHY    C1 3168   5.340  15.747   8.301
 3182ETHY    C1 3169   5.324  16.226   8.586
 3183AUSL   AUS 3170   5.096  15.227   7.664
 3184AUSL   AUS 3171   5.399  15.227   7.337
 3185AUL    AUL 3172   5.248  15.535   7.501
 3186THSLK    S 3173   5.127  15.487   7.770
 3187ETHY    C1 3174   5.117  15.928   7.907
 3188ETHY    C1 3175   5.008  16.457   8.048
 3189THSLK    S 3176   5.444  15.476   7.235
 3190ETHY    C1 3177   5.582  15.894   7.097
 3191ETHY    C1 3178   5.654  16.429   6.955
 3192AUSL   AUS 3179   5.399  15.227   7.664
 3193AUSL   AUS 3180   5.513  14.970   8.011
 3194AUL    AUL 3181   5.551  15.348   7.991
 3195THSLK    S 3182   5.687  15.098   8.185
 3196ETHY    C1 3183   5.923  15.317   8.517
 3197ETHY    C1 3184   6.149  15.659   8.895
 3198THSLK    S 3185   5.444  15.475   7.767
 3199ETHY    C1 3186   5.583  15.896   7.898
 3200ETHY    C1 3187   5.656  16.430   8.041
 3201AUSL   AUS 3188   5.248  13.974   7.910
 3202AUSL   AUS 3189   5.664  14.043   7.765
 3203AUL    AUL 3190   5.551  13.759   7.991
 3204THSLK    S 3191   5.214  13.710   7.997
 3205ETHY    C1 3192   5.159  13.301   8.205
 3206ETHY    C1 3193   5.174  12.833   8.507
 3207THSLK    S 3194   5.796  13.852   7.910
 3208ETHY    C1 3195   6.019  13.490   8.089
 3209ETHY    C1 3196   6.360  13.120   8.330
 3210AUSL   AUS 3197   5.096  13.880   7.664
 3211AUSL   AUS 3198   4.983  14.137   8.011
 3212AUL    AUL 3199   4.944  13.759   7.991
 3213THSLK    S 3200   5.051  13.627   7.746
 3214ETHY    C1 3201   4.914  13.196   7.843
 3215ETHY    C1 3202   4.841  12.664   7.996
 3216THSLK    S 3203   4.808  13.963   8.146
 3217ETHY    C1 3204   4.577  13.665   8.413
 3218ETHY    C1 3205   4.350  13.345   8.810
 3219AUSL   AUS 3206   5.399  13.880   7.664
 3220AUSL   AUS 3207   5.096  13.880   7.337
 3221AUL    AUL 3208   5.248  13.572   7.501
 3222THSLK    S 3209   5.051  13.627   7.255
 3223ETHY    C1 3210   4.912  13.198   7.152
 3224ETHY    C1 3211   4.840  12.666   7.001
 3225THSLK    S 3212   5.368  13.615   7.750
 3226ETHY    C1 3213   5.381  13.164   7.852
 3227ETHY    C1 3214   5.489  12.638   8.003
 3228AUSL   AUS 3215   5.248  15.134   7.092
 3229AUSL   AUS 3216   5.664  15.064   7.236
 3230AUL    AUL 3217   5.551  15.348   7.010
 3231THSLK    S 3218   5.282  15.375   6.969
 3232ETHY    C1 3219   5.337  15.744   6.696
 3233ETHY    C1 3220   5.321  16.223   6.412
 3234THSLK    S 3221   5.851  15.199   7.077
 3235ETHY    C1 3222   6.164  15.466   6.868
 3236ETHY    C1 3223   6.479  15.863   6.634
 3237AUSL   AUS 3224   5.096  15.227   7.337
 3238AUSL   AUS 3225   4.983  14.970   6.990
 3239AUL    AUL 3226   4.944  15.348   7.010
 3240THSLK    S 3227   5.127  15.488   7.232
 3241ETHY    C1 3228   5.115  15.926   7.088
 3242ETHY    C1 3229   5.007  16.455   6.948
 3243THSLK    S 3230   4.856  15.113   6.799
 3244ETHY    C1 3231   4.698  15.353   6.437
 3245ETHY    C1 3232   4.450  15.688   6.067
 3246AUSL   AUS 3233   5.248  13.974   7.092
 3247AUSL   AUS 3234   4.831  14.043   7.236
 3248AUL    AUL 3235   4.944  13.759   7.010
 3249THSLK    S 3236   4.645  13.886   7.113
 3250ETHY    C1 3237   4.329  13.584   6.964
 3251ETHY    C1 3238   4.015  13.197   6.714
 3252THSLK    S 3239   5.214  13.710   7.004
 3253ETHY    C1 3240   5.155  13.305   6.791
 3254ETHY    C1 3241   5.172  12.835   6.490
 3255AUSL   AUS 3242   5.399  13.880   7.337
 3256AUSL   AUS 3243   5.513  14.137   6.990
 3257AUL    AUL 3244   5.551  13.759   7.010
 3258THSLK    S 3245   5.369  13.614   7.252
 3259ETHY    C1 3246   5.379  13.166   7.143
 3260ETHY    C1 3247   5.487  12.639   6.993
 3261THSLK    S 3248   5.641  13.948   6.839
 3262ETHY    C1 3249   5.793  13.630   6.541
 3263ETHY    C1 3250   6.042  13.316   6.152
 3264POPC   NC3 3251  33.789  34.556   9.450
 3264POPC   PO4 3252  33.827  34.528   9.150
 3264POPC   GL1 3253  33.793  34.555   8.850
 3264POPC   GL2 3254  33.720  34.647   8.850
 3264POPC   C1A 3255  33.820  34.551   8.550
 3264POPC   D2A 3256  33.785  34.587   8.250
 3264POPC   C3A 3257  33.805  34.542   7.950
 3264POPC   C4A 3258  33.815  34.541   7.650
 3264POPC   C1B 3259  33.532  34.658   8.550
 3264POPC   C2B 3260  33.577  34.684   8.250
 3264POPC   C3B 3261  33.548  34.690   7.950
 3264POPC   C4B 3262  33.571  34.698   7.650
 3265POPC   NC3 3263  25.281  25.315   9.450
 3265POPC   PO4 3264  25.243  25.220   9.150
 3265POPC   GL1 3265  25.280  25.307   8.850
 3265POPC   GL2 3266  25.127  25.263   8.850
 3265POPC   C1A 3267  25.265  25.236   8.550
 3265POPC   D2A 3268  25.293  25.226   8.250
 3265POPC   C3A 3269  25.219  25.292   7.950
 3265POPC   C4A 3270  25.302  25.222   7.650
 3265POPC   C1B 3271  25.039  25.276   8.550
 3265POPC   C2B 3272  24.983  25.235   8.250
 3265POPC   C3B 3273  25.037  25.211   7.950
 3265POPC   C4B 3274  24.997  25.293   7.650
 3266POPC   NC3 3275  30.654  14.386   9.450
 3266POPC   PO4 3276  30.671  14.399   9.150
 3266POPC   GL1 3277  30.651  14.422   8.850
 3266POPC   GL2 3278  30.760  14.467   8.850
 3266POPC   C1A 3279  30.650  14.384   8.550
 3266POPC   D2A 3280  30.691  14.385   8.250
 3266POPC   C3A 3281  30.720  14.421   7.950
 3266POPC   C4A 3282  30.743  14.418   7.650
 3266POPC   C1B 3283  30.808  14.605   8.550
 3266POPC   C2B 3284  30.868  14.644   8.250
 3266POPC   C3B 3285  30.821  14.563   7.950
 3266POPC   C4B 3286  30.838  14.548   7.650
 3267POPC   NC3 3287  18.291  21.396   9.450
 3267POPC   PO4 3288  18.261  21.357   9.150
 3267POPC   GL1 3289  18.310  21.384   8.850
 3267POPC   GL2 3290  18.392  21.398   8.850
 3267POPC   C1A 3291  18.321  21.426   8.550
 3267POPC   D2A 3292  18.271  21.354   8.250
 3267POPC   C3A 3293  18.265  21.356   7.950
 3267POPC   C4A 3294  18.266  21.404   7.650
 3267POPC   C1B 3295  18.523  21.464   8.550
 3267POPC   C2B 3296  18.570  21.425   8.250
 3267POPC   C3B 3297  18.533  21.440   7.950
 3267POPC   C4B 3298  18.516  21.429   7.650
 3268POPC   NC3 3299  40.807  41.578   9.450
 3268POPC   PO4 3300  40.785  41.514   9.150
 3268POPC   GL1 3301  40.832  41.518   8.850
 3268POPC   GL2 3302  40.932  41.596   8.850
 3268POPC   C1A 3303  40.812  41.548   8.550
 3268POPC   D2A 3304  40.823  41.580   8.250
 3268POPC   C3A 3305  40.823  41.570   7.950
 3268POPC   C4A 3306  40.833  41.525   7.650
 3268POPC   C1B 3307  41.081  41.507   8.550
 3268POPC   C2B 3308  41.016  41.560   8.250
 3268POPC   C3B 3309  41.037  41.567   7.950
 3268POPC   C4B 3310  41.006  41.525   7.650
 3269POPC   NC3 3311   8.981  29.917   9.450
 3269POPC   PO4 3312   8.989  29.892   9.150
 3269POPC   GL1 3313   8.991  29.883   8.850
 3269POPC   GL2 3314   8.883  29.996   8.850
 3269POPC   C1A 3315   8.933  29.938   8.550
 3269POPC   D2A 3316   9.016  29.910   8.250
 3269POPC   C3A 3317   8.934  29.935   7.950
 3269POPC   C4A 3318   8.972  29.924   7.650
 3269POPC   C1B 3319   8.849  30.155   8.550
 3269POPC   C2B 3320   8.854  30.146   8.250
 3269POPC   C3B 3321   8.878  30.092   7.950
 3269POPC   C4B 3322   8.806  30.085   7.650
 3270POPC   NC3 3323  20.659  42.379   9.450
 3270POPC   PO4 3324  20.605  42.363   9.150
 3270POPC   GL1 3325  20.619  42.302   8.850
 3270POPC   GL2 3326  20.496  42.374   8.850
 3270POPC   C1A 3327  20.613  42.382   8.550
 3270POPC   D2A 3328  20.615  42.365   8.250
 3270POPC   C3A 3329  20.654  42.337   7.950
 3270POPC   C4A 3330  20.654  42.325   7.650
 3270POPC   C1B 3331  20.415  42.391   8.550
 3270POPC   C2B 3332  20.354  42.413   8.250
 3270POPC   C3B 3333  20.398  42.398   7.950
 3270POPC   C4B 3334  20.347  42.437   7.650
 3271POPC   NC3 3335  28.377   7.389   9.450
 3271POPC   PO4 3336  28.383   7.451   9.150
 3271POPC   GL1 3337  28.417   7.429   8.850
 3271POPC   GL2 3338  28.297   7.560   8.850
 3271POPC   C1A 3339  28.387   7.456   8.550
 3271POPC   D2A 3340  28.416   7.399   8.250
 3271POPC   C3A 3341  28.362   7.427   7.950
 3271POPC   C4A 3342  28.346   7.404   7.650
 3271POPC   C1B 3343  28.211   7.611   8.550
 3271POPC   C2B 3344  28.207   7.638   8.250
 3271POPC   C3B 3345  28.252   7.666   7.950
 3271POPC   C4B 3346  28.234   7.661   7.650
 3272POPC   NC3 3347   5.065  19.075   9.450
 3272POPC   PO4 3348   5.085  19.060   9.150
 3272POPC   GL1 3349   5.054  19.068   8.850
 3272POPC   GL2 3350   5.204  18.962   8.850
 3272POPC   C1A 3351   5.071  19.048   8.550
 3272POPC   D2A 3352   5.138  19.094   8.250
 3272POPC   C3A 3353   5.089  19.028   7.950
 3272POPC   C4A 3354   5.096  19.050   7.650
 3272POPC   C1B 3355   5.286  18.875   8.550
 3272POPC   C2B 3356   5.208  18.827   8.250
 3272POPC   C3B 3357   5.235  18.895   7.950
 3272POPC   C4B 3358   5.284  18.906   7.650
 3273POPC   NC3 3359   3.498  16.755   9.450
 3273POPC   PO4 3360   3.570  16.758   9.150
 3273POPC   GL1 3361   3.521  16.760   8.850
 3273POPC   GL2 3362   3.469  16.876   8.850
 3273POPC   C1A 3363   3.541  16.690   8.550
 3273POPC   D2A 3364   3.502  16.738   8.250
 3273POPC   C3A 3365   3.579  16.715   7.950
 3273POPC   C4A 3366   3.515  16.759   7.650
 3273POPC   C1B 3367   3.356  16.900   8.550
 3273POPC   C2B 3368   3.417  16.963   8.250
 3273POPC   C3B 3369   3.363  16.946   7.950
 3273POPC   C4B 3370   3.389  16.963   7.650
 3274POPC   NC3 3371  21.388  19.010   9.450
 3274POPC   PO4 3372  21.403  19.082   9.150
 3274POPC   GL1 3373  21.397  19.068   8.850
 3274POPC   GL2 3374  21.378  18.894   8.850
 3274POPC   C1A 3375  21.419  19.038   8.550
 3274POPC   D2A 3376  21.379  19.017   8.250
 3274POPC   C3A 3377  21.345  19.016   7.950
 3274POPC   C4A 3378  21.409  19.038   7.650
 3274POPC   C1B 3379  21.430  18.832   8.550
 3274POPC   C2B 3380  21.354  18.765   8.250
 3274POPC   C3B 3381  21.389  18.760   7.950
 3274POPC   C4B 3382  21.344  18.845   7.650
 3275POPC   NC3 3383  36.120  37.673   9.450
 3275POPC   PO4 3384  36.172  37.717   9.150
 3275POPC   GL1 3385  36.094  37.707   8.850
 3275POPC   GL2 3386  35.989  37.699   8.850
 3275POPC   C1A 3387  36.169  37.633   8.550
 3275POPC   D2A 3388  36.159  37.653   8.250
 3275POPC   C3A 3389  36.103  37.696   7.950
 3275POPC   C4A 3390  36.175  37.704   7.650
 3275POPC   C1B 3391  35.917  37.655   8.550
 3275POPC   C2B 3392  35.861  37.664   8.250
 3275POPC   C3B 3393  35.911  37.731   7.950
 3275POPC   C4B 3394  35.880  37.746   7.650
 3276POPC   NC3 3395  34.543  36.868   9.450
 3276POPC   PO4 3396  34.585  36.942   9.150
 3276POPC   GL1 3397  34.570  36.867   8.850
 3276POPC   GL2 3398  34.612  37.045   8.850
 3276POPC   C1A 3399  34.531  36.938   8.550
 3276POPC   D2A 3400  34.602  36.884   8.250
 3276POPC   C3A 3401  34.590  36.931   7.950
 3276POPC   C4A 3402  34.549  36.864   7.650
 3276POPC   C1B 3403  34.662  37.136   8.550
 3276POPC   C2B 3404  34.644  37.131   8.250
 3276POPC   C3B 3405  34.596  37.104   7.950
 3276POPC   C4B 3406  34.635  37.115   7.650
 3277POPC   NC3 3407  21.364   4.345   9.450
 3277POPC   PO4 3408  21.392   4.279   9.150
 3277POPC   GL1 3409  21.395   4.361   8.850
 3277POPC   GL2 3410  21.400   4.229   8.850
 3277POPC   C1A 3411  21.363   4.290   8.550
 3277POPC   D2A 3412  21.378   4.281   8.250
 3277POPC   C3A 3413  21.426   4.349   7.950
 3277POPC   C4A 3414  21.376   4.282   7.650
 3277POPC   C1B 3415  21.421   4.078   8.550
 3277POPC   C2B 3416  21.468   4.108   8.250
 3277POPC   C3B 3417  21.494   4.041   7.950
 3277POPC   C4B 3418  21.436   4.097   7.650
 3278POPC   NC3 3419  24.483  24.441   9.450
 3278POPC   PO4 3420  24.493  24.532   9.150
 3278POPC   GL1 3421  24.483  24.484   8.850
 3278POPC   GL2 3422  24.625  24.518   8.850
 3278POPC   C1A 3423  24.534  24.464   8.550
 3278POPC   D2A 3424  24.455  24.539   8.250
 3278POPC   C3A 3425  24.539  24.463   7.950
 3278POPC   C4A 3426  24.476  24.486   7.650
 3278POPC   C1B 3427  24.719  24.488   8.550
 3278POPC   C2B 3428  24.719  24.472   8.250
 3278POPC   C3B 3429  24.704  24.484   7.950
 3278POPC   C4B 3430  24.786  24.501   7.650
 3279POPC   NC3 3431   5.841  19.821   9.450
 3279POPC   PO4 3432   5.885  19.816   9.150
 3279POPC   GL1 3433   5.840  19.815   8.850
 3279POPC   GL2 3434   5.923  19.693   8.850
 3279POPC   C1A 3435   5.915  19.786   8.550
 3279POPC   D2A 3436   5.914  19.804   8.250
 3279POPC   C3A 3437   5.918  19.796   7.950
 3279POPC   C4A 3438   5.860  19.823   7.650
 3279POPC   C1B 3439   6.035  19.615   8.550
 3279POPC   C2B 3440   6.086  19.678   8.250
 3279POPC   C3B 3441   6.063  19.637   7.950
 3279POPC   C4B 3442   6.027  19.652   7.650
 3280POPC   NC3 3443  15.966  33.037   9.450
 3280POPC   PO4 3444  15.948  33.027   9.150
 3280POPC   GL1 3445  15.998  33.022   8.850
 3280POPC   GL2 3446  15.824  33.001   8.850
 3280POPC   C1A 3447  15.930  33.008   8.550
 3280POPC   D2A 3448  15.986  32.976   8.250
 3280POPC   C3A 3449  15.911  32.989   7.950
 3280POPC   C4A 3450  16.002  33.029   7.650
 3280POPC   C1B 3451  15.713  32.974   8.550
 3280POPC   C2B 3452  15.758  32.956   8.250
 3280POPC   C3B 3453  15.670  33.024   7.950
 3280POPC   C4B 3454  15.676  32.955   7.650
 3281POPC   NC3 3455   8.222  36.917   9.450
 3281POPC   PO4 3456   8.189  36.880   9.150
 3281POPC   GL1 3457   8.155  36.862   8.850
 3281POPC   GL2 3458   8.152  36.980   8.850
 3281POPC   C1A 3459   8.190  36.888   8.550
 3281POPC   D2A 3460   8.212  36.857   8.250
 3281POPC   C3A 3461   8.163  36.921   7.950
 3281POPC   C4A 3462   8.206  36.932   7.650
 3281POPC   C1B 3463   8.164  37.130   8.550
 3281POPC   C2B 3464   8.217  37.148   8.250
 3281POPC   C3B 3465   8.198  37.169   7.950
 3281POPC   C4B 3466   8.182  37.124   7.650
 3282POPC   NC3 3467   2.006  20.628   9.450
 3282POPC   PO4 3468   2.008  20.573   9.150
 3282POPC   GL1 3469   1.997  20.612   8.850
 3282POPC   GL2 3470   1.934  20.536   8.850
 3282POPC   C1A 3471   1.999  20.659   8.550
 3282POPC   D2A 3472   2.011  20.595   8.250
 3282POPC   C3A 3473   1.971  20.641   7.950
 3282POPC   C4A 3474   2.034  20.607   7.650
 3282POPC   C1B 3475   1.882  20.387   8.550
 3282POPC   C2B 3476   1.856  20.414   8.250
 3282POPC   C3B 3477   1.884  20.345   7.950
 3282POPC   C4B 3478   1.900  20.399   7.650
 3283POPC   NC3 3479  19.031   2.742   9.450
 3283POPC   PO4 3480  19.027   2.734   9.150
 3283POPC   GL1 3481  19.097   2.766   8.850
 3283POPC   GL2 3482  19.075   2.915   8.850
 3283POPC   C1A 3483  19.025   2.754   8.550
 3283POPC   D2A 3484  19.066   2.764   8.250
 3283POPC   C3A 3485  19.064   2.794   7.950
 3283POPC   C4A 3486  19.015   2.740   7.650
 3283POPC   C1B 3487  19.007   3.059   8.550
 3283POPC   C2B 3488  19.042   2.968   8.250
 3283POPC   C3B 3489  19.031   2.979   7.950
 3283POPC   C4B 3490  19.000   2.976   7.650
 3284POPC   NC3 3491  19.091  25.222   9.450
 3284POPC   PO4 3492  19.078  25.303   9.150
 3284POPC   GL1 3493  19.010  25.225   8.850
 3284POPC   GL2 3494  19.133  25.199   8.850
 3284POPC   C1A 3495  19.045  25.230   8.550
 3284POPC   D2A 3496  19.010  25.303   8.250
 3284POPC   C3A 3497  19.012  25.239   7.950
 3284POPC   C4A 3498  19.013  25.267   7.650
 3284POPC   C1B 3499  19.298  25.210   8.550
 3284POPC   C2B 3500  19.259  25.164   8.250
 3284POPC   C3B 3501  19.252  25.222   7.950
 3284POPC   C4B 3502  19.331  25.154   7.650
 3285POPC   NC3 3503  44.617   0.446   9.450
 3285POPC   PO4 3504  44.706   0.391   9.150
 3285POPC   GL1 3505  44.675   0.408   8.850
 3285POPC   GL2 3506  44.768   0.438   8.850
 3285POPC   C1A 3507  44.683   0.416   8.550
 3285POPC   D2A 3508  44.687   0.443   8.250
 3285POPC   C3A 3509  44.704   0.425   7.950
 3285POPC   C4A 3510  44.697   0.478   7.650
 3285POPC   C1B 3511  44.931   0.506   8.550
 3285POPC   C2B 3512  44.865   0.508   8.250
 3285POPC   C3B 3513  44.886   0.512   7.950
 3285POPC   C4B 3514  44.869   0.504   7.650
 3286POPC   NC3 3515   0.440  43.156   9.450
 3286POPC   PO4 3516   0.391  43.115   9.150
 3286POPC   GL1 3517   0.465  43.118   8.850
 3286POPC   GL2 3518   0.340  43.217   8.850
 3286POPC   C1A 3519   0.468  43.131   8.550
 3286POPC   D2A 3520   0.452  43.111   8.250
 3286POPC   C3A 3521   0.441  43.105   7.950
 3286POPC   C4A 3522   0.409  43.117   7.650
 3286POPC   C1B 3523   0.263  43.269   8.550
 3286POPC   C2B 3524   0.251  43.304   8.250
 3286POPC   C3B 3525   0.278  43.327   7.950
 3286POPC   C4B 3526   0.252  43.269   7.650
 3287POPC   NC3 3527  36.175  21.375   9.450
 3287POPC   PO4 3528  36.091  21.340   9.150
 3287POPC   GL1 3529  36.133  21.388   8.850
 3287POPC   GL2 3530  36.076  21.304   8.850
 3287POPC   C1A 3531  36.173  21.430   8.550
 3287POPC   D2A 3532  36.131  21.359   8.250
 3287POPC   C3A 3533  36.157  21.365   7.950
 3287POPC   C4A 3534  36.153  21.384   7.650
 3287POPC   C1B 3535  36.018  21.221   8.550
 3287POPC   C2B 3536  35.952  21.143   8.250
 3287POPC   C3B 3537  35.969  21.189   7.950
 3287POPC   C4B 3538  35.981  21.191   7.650
 3288POPC   NC3 3539   2.744  44.665   9.450
 3288POPC   PO4 3540   2.753  44.620   9.150
 3288POPC   GL1 3541   2.769  44.669   8.850
 3288POPC   GL2 3542   2.676  44.769   8.850
 3288POPC   C1A 3543   2.726  44.693   8.550
 3288POPC   D2A 3544   2.723  44.681   8.250
 3288POPC   C3A 3545   2.718  44.672   7.950
 3288POPC   C4A 3546   2.791  44.678   7.650
 3288POPC   C1B 3547   2.541  44.754   8.550
 3288POPC   C2B 3548   2.526  44.780   8.250
 3288POPC   C3B 3549   2.589  44.829   7.950
 3288POPC   C4B 3550   2.575  44.766   7.650
 3289POPC   NC3 3551  44.688  36.164   9.450
 3289POPC   PO4 3552  44.627  36.177   9.150
 3289POPC   GL1 3553  44.679  36.129   8.850
 3289POPC   GL2 3554  44.751  36.039   8.850
 3289POPC   C1A 3555  44.632  36.142   8.550
 3289POPC   D2A 3556  44.613  36.118   8.250
 3289POPC   C3A 3557  44.697  36.143   7.950
 3289POPC   C4A 3558  44.699  36.156   7.650
 3289POPC   C1B 3559  44.870  36.027   8.550
 3289POPC   C2B 3560  44.853  35.950   8.250
 3289POPC   C3B 3561  44.878  35.957   7.950
 3289POPC   C4B 3562  44.874  36.026   7.650
 3290POPC   NC3 3563  10.534  12.860   9.450
 3290POPC   PO4 3564  10.505  12.822   9.150
 3290POPC   GL1 3565  10.560  12.867   8.850
 3290POPC   GL2 3566  10.681  12.761   8.850
 3290POPC   C1A 3567  10.563  12.891   8.550
 3290POPC   D2A 3568  10.539  12.802   8.250
 3290POPC   C3A 3569  10.485  12.864   7.950
 3290POPC   C4A 3570  10.517  12.858   7.650
 3290POPC   C1B 3571  10.749  12.701   8.550
 3290POPC   C2B 3572  10.727  12.696   8.250
 3290POPC   C3B 3573  10.723  12.775   7.950
 3290POPC   C4B 3574  10.784  12.721   7.650
 3291POPC   NC3 3575   5.061  11.266   9.450
 3291POPC   PO4 3576   5.046  11.343   9.150
 3291POPC   GL1 3577   5.055  11.281   8.850
 3291POPC   GL2 3578   5.177  11.429   8.850
 3291POPC   C1A 3579   5.100  11.290   8.550
 3291POPC   D2A 3580   5.094  11.318   8.250
 3291POPC   C3A 3581   5.073  11.332   7.950
 3291POPC   C4A 3582   5.116  11.254   7.650
 3291POPC   C1B 3583   5.273  11.460   8.550
 3291POPC   C2B 3584   5.281  11.497   8.250
 3291POPC   C3B 3585   5.277  11.459   7.950
 3291POPC   C4B 3586   5.287  11.461   7.650
 3292POPC   NC3 3587  33.051  40.753   9.450
 3292POPC   PO4 3588  33.033  40.777   9.150
 3292POPC   GL1 3589  32.997  40.781   8.850
 3292POPC   GL2 3590  33.082  40.826   8.850
 3292POPC   C1A 3591  32.975  40.781   8.550
 3292POPC   D2A 3592  32.991  40.804   8.250
 3292POPC   C3A 3593  33.065  40.813   7.950
 3292POPC   C4A 3594  32.975  40.823   7.650
 3292POPC   C1B 3595  33.227  40.981   8.550
 3292POPC   C2B 3596  33.220  41.011   8.250
 3292POPC   C3B 3597  33.228  40.950   7.950
 3292POPC   C4B 3598  33.182  40.999   7.650
 3293POPC   NC3 3599  38.413  20.616   9.450
 3293POPC   PO4 3600  38.502  20.649   9.150
 3293POPC   GL1 3601  38.483  20.649   8.850
 3293POPC   GL2 3602  38.299  20.611   8.850
 3293POPC   C1A 3603  38.433  20.617   8.550
 3293POPC   D2A 3604  38.460  20.595   8.250
 3293POPC   C3A 3605  38.450  20.604   7.950
 3293POPC   C4A 3606  38.496  20.655   7.650
 3293POPC   C1B 3607  38.233  20.724   8.550
 3293POPC   C2B 3608  38.244  20.735   8.250
 3293POPC   C3B 3609  38.208  20.670   7.950
 3293POPC   C4B 3610  38.172  20.687   7.650
 3294POPC   NC3 3611  32.233  36.112   9.450
 3294POPC   PO4 3612  32.286  36.149   9.150
 3294POPC   GL1 3613  32.277  36.174   8.850
 3294POPC   GL2 3614  32.177  36.200   8.850
 3294POPC   C1A 3615  32.274  36.086   8.550
 3294POPC   D2A 3616  32.260  36.081   8.250
 3294POPC   C3A 3617  32.282  36.150   7.950
 3294POPC   C4A 3618  32.278  36.131   7.650
 3294POPC   C1B 3619  32.076  36.378   8.550
 3294POPC   C2B 3620  32.101  36.354   8.250
 3294POPC   C3B 3621  32.087  36.379   7.950
 3294POPC   C4B 3622  32.138  36.296   7.650
 3295POPC   NC3 3623   1.971  29.906   9.450
 3295POPC   PO4 3624   2.007  29.965   9.150
 3295POPC   GL1 3625   2.001  29.888   8.850
 3295POPC   GL2 3626   2.041  29.794   8.850
 3295POPC   C1A 3627   2.011  29.914   8.550
 3295POPC   D2A 3628   2.032  29.956   8.250
 3295POPC   C3A 3629   1.964  29.918   7.950
 3295POPC   C4A 3630   2.011  29.910   7.650
 3295POPC   C1B 3631   2.202  29.738   8.550
 3295POPC   C2B 3632   2.115  29.707   8.250
 3295POPC   C3B 3633   2.181  29.788   7.950
 3295POPC   C4B 3634   2.178  29.731   7.650
 3296POPC   NC3 3635  21.423  37.716   9.450
 3296POPC   PO4 3636  21.405  37.724   9.150
 3296POPC   GL1 3637  21.431  37.635   8.850
 3296POPC   GL2 3638  21.514  37.590   8.850
 3296POPC   C1A 3639  21.386  37.636   8.550
 3296POPC   D2A 3640  21.429  37.637   8.250
 3296POPC   C3A 3641  21.347  37.665   7.950
 3296POPC   C4A 3642  21.408  37.634   7.650
 3296POPC   C1B 3643  21.647  37.529   8.550
 3296POPC   C2B 3644  21.584  37.595   8.250
 3296POPC   C3B 3645  21.573  37.535   7.950
 3296POPC   C4B 3646  21.613  37.513   7.650
 3297POPC   NC3 3647  40.761   8.152   9.450
 3297POPC   PO4 3648  40.753   8.241   9.150
 3297POPC   GL1 3649  40.779   8.189   8.850
 3297POPC   GL2 3650  40.757   8.311   8.850
 3297POPC   C1A 3651  40.817   8.245   8.550
 3297POPC   D2A 3652  40.807   8.243   8.250
 3297POPC   C3A 3653  40.736   8.189   7.950
 3297POPC   C4A 3654  40.790   8.245   7.650
 3297POPC   C1B 3655  40.652   8.447   8.550
 3297POPC   C2B 3656  40.673   8.400   8.250
 3297POPC   C3B 3657  40.722   8.412   7.950
 3297POPC   C4B 3658  40.729   8.436   7.650
 3298POPC   NC3 3659   1.260  36.149   9.450
 3298POPC   PO4 3660   1.259  36.139   9.150
 3298POPC   GL1 3661   1.220  36.125   8.850
 3298POPC   GL2 3662   1.178  36.261   8.850
 3298POPC   C1A 3663   1.242  36.149   8.550
 3298POPC   D2A 3664   1.182  36.107   8.250
 3298POPC   C3A 3665   1.204  36.129   7.950
 3298POPC   C4A 3666   1.239  36.080   7.650
 3298POPC   C1B 3667   1.100  36.316   8.550
 3298POPC   C2B 3668   1.123  36.405   8.250
 3298POPC   C3B 3669   1.088  36.345   7.950
 3298POPC   C4B 3670   1.157  36.352   7.650
 3299POPC   NC3 3671  36.151  33.794   9.450
 3299POPC   PO4 3672  36.138  33.757   9.150
 3299POPC   GL1 3673  36.132  33.759   8.850
 3299POPC   GL2 3674  36.031  33.703   8.850
 3299POPC   C1A 3675  36.140  33.821   8.550
 3299POPC   D2A 3676  36.153  33.771   8.250
 3299POPC   C3A 3677  36.128  33.837   7.950
 3299POPC   C4A 3678  36.116  33.808   7.650
 3299POPC   C1B 3679  35.945  33.695   8.550
 3299POPC   C2B 3680  35.951  33.657   8.250
 3299POPC   C3B 3681  35.898  33.643   7.950
 3299POPC   C4B 3682  35.951  33.663   7.650
 3300POPC   NC3 3683  16.751   5.871   9.450
 3300POPC   PO4 3684  16.720   5.862   9.150
 3300POPC   GL1 3685  16.745   5.916   8.850
 3300POPC   GL2 3686  16.621   5.843   8.850
 3300POPC   C1A 3687  16.724   5.830   8.550
 3300POPC   D2A 3688  16.712   5.913   8.250
 3300POPC   C3A 3689  16.690   5.853   7.950
 3300POPC   C4A 3690  16.763   5.909   7.650
 3300POPC   C1B 3691  16.475   5.796   8.550
 3300POPC   C2B 3692  16.503   5.796   8.250
 3300POPC   C3B 3693  16.450   5.816   7.950
 3300POPC   C4B 3694  16.536   5.730   7.650
 3301POPC   NC3 3695  34.571  25.301   9.450
 3301POPC   PO4 3696  34.556  25.226   9.150
 3301POPC   GL1 3697  34.619  25.219   8.850
 3301POPC   GL2 3698  34.647  25.394   8.850
 3301POPC   C1A 3699  34.543  25.312   8.550
 3301POPC   D2A 3700  34.589  25.275   8.250
 3301POPC   C3A 3701  34.555  25.292   7.950
 3301POPC   C4A 3702  34.614  25.251   7.650
 3301POPC   C1B 3703  34.629  25.523   8.550
 3301POPC   C2B 3704  34.634  25.457   8.250
 3301POPC   C3B 3705  34.669  25.515   7.950
 3301POPC   C4B 3706  34.698  25.497   7.650
 3302POPC   NC3 3707  28.365  34.549   9.450
 3302POPC   PO4 3708  28.323  34.565   9.150
 3302POPC   GL1 3709  28.324  34.532   8.850
 3302POPC   GL2 3710  28.218  34.520   8.850
 3302POPC   C1A 3711  28.331  34.593   8.550
 3302POPC   D2A 3712  28.365  34.533   8.250
 3302POPC   C3A 3713  28.399  34.568   7.950
 3302POPC   C4A 3714  28.372  34.528   7.650
 3302POPC   C1B 3715  28.158  34.491   8.550
 3302POPC   C2B 3716  28.131  34.534   8.250
 3302POPC   C3B 3717  28.162  34.582   7.950
 3302POPC   C4B 3718  28.108  34.511   7.650
 3303POPC   NC3 3719   2.032  11.279   9.450
 3303POPC   PO4 3720   2.015  11.262   9.150
 3303POPC   GL1 3721   1.957  11.327   8.850
 3303POPC   GL2 3722   2.102  11.403   8.850
 3303POPC   C1A 3723   1.989  11.286   8.550
 3303POPC   D2A 3724   1.954  11.336   8.250
 3303POPC   C3A 3725   1.978  11.288   7.950
 3303POPC   C4A 3726   2.024  11.344   7.650
 3303POPC   C1B 3727   2.253  11.422   8.550
 3303POPC   C2B 3728   2.194  11.383   8.250
 3303POPC   C3B 3729   2.211  11.466   7.950
 3303POPC   C4B 3730   2.244  11.426   7.650
 3304POPC   NC3 3731   7.387  40.031   9.450
 3304POPC   PO4 3732   7.421  39.959   9.150
 3304POPC   GL1 3733   7.403  40.057   8.850
 3304POPC   GL2 3734   7.527  39.981   8.850
 3304POPC   C1A 3735   7.397  40.043   8.550
 3304POPC   D2A 3736   7.437  40.050   8.250
 3304POPC   C3A 3737   7.470  40.019   7.950
 3304POPC   C4A 3738   7.395  40.019   7.650
 3304POPC   C1B 3739   7.693  39.955   8.550
 3304POPC   C2B 3740   7.666  39.993   8.250
 3304POPC   C3B 3741   7.621  40.003   7.950
 3304POPC   C4B 3742   7.698  39.958   7.650
 3305POPC   NC3 3743   3.585  30.679   9.450
 3305POPC   PO4 3744   3.498  30.734   9.150
 3305POPC   GL1 3745   3.559  30.714   8.850
 3305POPC   GL2 3746   3.467  30.617   8.850
 3305POPC   C1A 3747   3.564  30.731   8.550
 3305POPC   D2A 3748   3.504  30.714   8.250
 3305POPC   C3A 3749   3.559  30.700   7.950
 3305POPC   C4A 3750   3.518  30.697   7.650
 3305POPC   C1B 3751   3.445  30.418   8.550
 3305POPC   C2B 3752   3.479  30.417   8.250
 3305POPC   C3B 3753   3.479  30.472   7.950
 3305POPC   C4B 3754   3.489  30.496   7.650
 3306POPC   NC3 3755  12.895  27.544   9.450
 3306POPC   PO4 3756  12.867  27.617   9.150
 3306POPC   GL1 3757  12.815  27.636   8.850
 3306POPC   GL2 3758  12.880  27.737   8.850
 3306POPC   C1A 3759  12.879  27.564   8.550
 3306POPC   D2A 3760  12.855  27.576   8.250
 3306POPC   C3A 3761  12.899  27.557   7.950
 3306POPC   C4A 3762  12.859  27.577   7.650
 3306POPC   C1B 3763  12.942  27.833   8.550
 3306POPC   C2B 3764  13.013  27.826   8.250
 3306POPC   C3B 3765  12.932  27.858   7.950
 3306POPC   C4B 3766  12.969  27.773   7.650
 3307POPC   NC3 3767   3.495  34.566   9.450
 3307POPC   PO4 3768   3.510  34.540   9.150
 3307POPC   GL1 3769   3.544  34.594   8.850
 3307POPC   GL2 3770   3.636  34.597   8.850
 3307POPC   C1A 3771   3.578  34.548   8.550
 3307POPC   D2A 3772   3.561  34.610   8.250
 3307POPC   C3A 3773   3.562  34.601   7.950
 3307POPC   C4A 3774   3.554  34.547   7.650
 3307POPC   C1B 3775   3.757  34.670   8.550
 3307POPC   C2B 3776   3.759  34.601   8.250
 3307POPC   C3B 3777   3.801  34.669   7.950
 3307POPC   C4B 3778   3.742  34.695   7.650
 3308POPC   NC3 3779  12.896   1.191   9.450
 3308POPC   PO4 3780  12.845   1.263   9.150
 3308POPC   GL1 3781  12.848   1.193   8.850
 3308POPC   GL2 3782  12.919   1.298   8.850
 3308POPC   C1A 3783  12.838   1.233   8.550
 3308POPC   D2A 3784  12.839   1.215   8.250
 3308POPC   C3A 3785  12.891   1.222   7.950
 3308POPC   C4A 3786  12.841   1.186   7.650
 3308POPC   C1B 3787  12.938   1.426   8.550
 3308POPC   C2B 3788  12.927   1.501   8.250
 3308POPC   C3B 3789  12.975   1.430   7.950
 3308POPC   C4B 3790  12.928   1.459   7.650
 3309POPC   NC3 3791   6.637  32.289   9.450
 3309POPC   PO4 3792   6.612  32.221   9.150
 3309POPC   GL1 3793   6.646  32.269   8.850
 3309POPC   GL2 3794   6.634  32.400   8.850
 3309POPC   C1A 3795   6.641  32.210   8.550
 3309POPC   D2A 3796   6.645  32.257   8.250
 3309POPC   C3A 3797   6.652  32.199   7.950
 3309POPC   C4A 3798   6.678  32.208   7.650
 3309POPC   C1B 3799   6.694  32.543   8.550
 3309POPC   C2B 3800   6.659  32.539   8.250
 3309POPC   C3B 3801   6.628  32.497   7.950
 3309POPC   C4B 3802   6.697  32.464   7.650
 3310POPC   NC3 3803  36.110  12.844   9.450
 3310POPC   PO4 3804  36.168  12.814   9.150
 3310POPC   GL1 3805  36.169  12.862   8.850
 3310POPC   GL2 3806  36.250  12.819   8.850
 3310POPC   C1A 3807  36.081  12.856   8.550
 3310POPC   D2A 3808  36.088  12.815   8.250
 3310POPC   C3A 3809  36.166  12.832   7.950
 3310POPC   C4A 3810  36.131  12.857   7.650
 3310POPC   C1B 3811  36.305  12.728   8.550
 3310POPC   C2B 3812  36.360  12.669   8.250
 3310POPC   C3B 3813  36.325  12.687   7.950
 3310POPC   C4B 3814  36.333  12.700   7.650
 3311POPC   NC3 3815   2.743  35.367   9.450
 3311POPC   PO4 3816   2.726  35.371   9.150
 3311POPC   GL1 3817   2.738  35.384   8.850
 3311POPC   GL2 3818   2.848  35.242   8.850
 3311POPC   C1A 3819   2.794  35.372   8.550
 3311POPC   D2A 3820   2.791  35.346   8.250
 3311POPC   C3A 3821   2.739  35.370   7.950
 3311POPC   C4A 3822   2.727  35.393   7.650
 3311POPC   C1B 3823   2.933  35.188   8.550
 3311POPC   C2B 3824   2.982  35.261   8.250
 3311POPC   C3B 3825   2.997  35.173   7.950
 3311POPC   C4B 3826   3.000  35.194   7.650
 3312POPC   NC3 3827  43.082   1.951   9.450
 3312POPC   PO4 3828  43.062   1.991   9.150
 3312POPC   GL1 3829  43.062   2.033   8.850
 3312POPC   GL2 3830  43.132   1.890   8.850
 3312POPC   C1A 3831  43.158   1.967   8.550
 3312POPC   D2A 3832  43.148   1.987   8.250
 3312POPC   C3A 3833  43.085   2.005   7.950
 3312POPC   C4A 3834  43.124   1.943   7.650
 3312POPC   C1B 3835  43.225   1.743   8.550
 3312POPC   C2B 3836  43.200   1.716   8.250
 3312POPC   C3B 3837  43.220   1.733   7.950
 3312POPC   C4B 3838  43.224   1.769   7.650
 3313POPC   NC3 3839   2.009  13.612   9.450
 3313POPC   PO4 3840   1.973  13.589   9.150
 3313POPC   GL1 3841   1.966  13.588   8.850
 3313POPC   GL2 3842   1.983  13.788   8.850
 3313POPC   C1A 3843   1.948  13.580   8.550
 3313POPC   D2A 3844   1.940  13.609   8.250
 3313POPC   C3A 3845   2.030  13.638   7.950
 3313POPC   C4A 3846   1.976  13.665   7.650
 3313POPC   C1B 3847   1.911  13.868   8.550
 3313POPC   C2B 3848   1.872  13.841   8.250
 3313POPC   C3B 3849   1.906  13.881   7.950
 3313POPC   C4B 3850   1.900  13.822   7.650
 3314POPC   NC3 3851  32.293   3.584   9.450
 3314POPC   PO4 3852  32.218   3.496   9.150
 3314POPC   GL1 3853  32.278   3.501   8.850
 3314POPC   GL2 3854  32.389   3.477   8.850
 3314POPC   C1A 3855  32.245   3.517   8.550
 3314POPC   D2A 3856  32.240   3.528   8.250
 3314POPC   C3A 3857  32.245   3.517   7.950
 3314POPC   C4A 3858  32.288   3.559   7.650
 3314POPC   C1B 3859  32.432   3.393   8.550
 3314POPC   C2B 3860  32.423   3.409   8.250
 3314POPC   C3B 3861  32.515   3.406   7.950
 3314POPC   C4B 3862  32.484   3.415   7.650
 3315POPC   NC3 3863  39.980  18.314   9.450
 3315POPC   PO4 3864  40.011  18.277   9.150
 3315POPC   GL1 3865  39.977  18.247   8.850
 3315POPC   GL2 3866  40.074  18.326   8.850
 3315POPC   C1A 3867  40.025  18.234   8.550
 3315POPC   D2A 3868  39.983  18.275   8.250
 3315POPC   C3A 3869  39.979  18.332   7.950
 3315POPC   C4A 3870  39.961  18.271   7.650
 3315POPC   C1B 3871  40.208  18.411   8.550
 3315POPC   C2B 3872  40.217  18.459   8.250
 3315POPC   C3B 3873  40.166  18.411   7.950
 3315POPC   C4B 3874  40.223  18.488   7.650
 3316POPC   NC3 3875   2.024  39.199   9.450
 3316POPC   PO4 3876   1.987  39.274   9.150
 3316POPC   GL1 3877   1.994  39.264   8.850
 3316POPC   GL2 3878   1.937  39.064   8.850
 3316POPC   C1A 3879   2.012  39.279   8.550
 3316POPC   D2A 3880   1.973  39.223   8.250
 3316POPC   C3A 3881   1.976  39.184   7.950
 3316POPC   C4A 3882   1.991  39.249   7.650
 3316POPC   C1B 3883   1.933  38.949   8.550
 3316POPC   C2B 3884   1.938  39.024   8.250
 3316POPC   C3B 3885   2.004  39.013   7.950
 3316POPC   C4B 3886   2.003  38.984   7.650
 3317POPC   NC3 3887  29.130  31.510   9.450
 3317POPC   PO4 3888  29.162  31.489   9.150
 3317POPC   GL1 3889  29.151  31.474   8.850
 3317POPC   GL2 3890  29.220  31.609   8.850
 3317POPC   C1A 3891  29.194  31.455   8.550
 3317POPC   D2A 3892  29.102  31.472   8.250
 3317POPC   C3A 3893  29.149  31.467   7.950
 3317POPC   C4A 3894  29.129  31.497   7.650
 3317POPC   C1B 3895  29.227  31.707   8.550
 3317POPC   C2B 3896  29.257  31.677   8.250
 3317POPC   C3B 3897  29.265  31.662   7.950
 3317POPC   C4B 3898  29.235  31.727   7.650
 3318POPC   NC3 3899  43.880  12.087   9.450
 3318POPC   PO4 3900  43.893  12.103   9.150
 3318POPC   GL1 3901  43.895  12.031   8.850
 3318POPC   GL2 3902  43.732  12.102   8.850
 3318POPC   C1A 3903  43.934  12.115   8.550
 3318POPC   D2A 3904  43.872  12.083   8.250
 3318POPC   C3A 3905  43.919  12.115   7.950
 3318POPC   C4A 3906  43.888  12.102   7.650
 3318POPC   C1B 3907  43.610  12.201   8.550
 3318POPC   C2B 3908  43.683  12.219   8.250
 3318POPC   C3B 3909  43.681  12.184   7.950
 3318POPC   C4B 3910  43.679  12.159   7.650
 3319POPC   NC3 3911  27.610  30.729   9.450
 3319POPC   PO4 3912  27.593  30.674   9.150
 3319POPC   GL1 3913  27.565  30.737   8.850
 3319POPC   GL2 3914  27.605  30.815   8.850
 3319POPC   C1A 3915  27.547  30.661   8.550
 3319POPC   D2A 3916  27.583  30.697   8.250
 3319POPC   C3A 3917  27.607  30.657   7.950
 3319POPC   C4A 3918  27.615  30.649   7.650
 3319POPC   C1B 3919  27.507  30.968   8.550
 3319POPC   C2B 3920  27.575  30.968   8.250
 3319POPC   C3B 3921  27.576  30.953   7.950
 3319POPC   C4B 3922  27.547  30.938   7.650
 3320POPC   NC3 3923  44.664  43.110   9.450
 3320POPC   PO4 3924  44.659  43.108   9.150
 3320POPC   GL1 3925  44.665  43.096   8.850
 3320POPC   GL2 3926  44.804  43.197   8.850
 3320POPC   C1A 3927  44.637  43.137   8.550
 3320POPC   D2A 3928  44.612  43.112   8.250
 3320POPC   C3A 3929  44.624  43.112   7.950
 3320POPC   C4A 3930  44.670  43.128   7.650
 3320POPC   C1B 3931  44.896  43.227   8.550
 3320POPC   C2B 3932  44.934  43.150   8.250
 3320POPC   C3B 3933  44.855  43.240   7.950
 3320POPC   C4B 3934  44.929  43.247   7.650
 3321POPC   NC3 3935  36.154   8.982   9.450
 3321POPC   PO4 3936  36.102   9.021   9.150
 3321POPC   GL1 3937  36.126   8.929   8.850
 3321POPC   GL2 3938  36.203   8.968   8.850
 3321POPC   C1A 3939  36.092   8.924   8.550
 3321POPC   D2A 3940  36.127   8.987   8.250
 3321POPC   C3A 3941  36.152   8.944   7.950
 3321POPC   C4A 3942  36.163   9.008   7.650
 3321POPC   C1B 3943  36.418   8.997   8.550
 3321POPC   C2B 3944  36.354   9.079   8.250
 3321POPC   C3B 3945  36.373   9.005   7.950
 3321POPC   C4B 3946  36.409   9.086   7.650
 3322POPC   NC3 3947  12.874   5.900   9.450
 3322POPC   PO4 3948  12.863   5.887   9.150
 3322POPC   GL1 3949  12.895   5.839   8.850
 3322POPC   GL2 3950  12.934   5.798   8.850
 3322POPC   C1A 3951  12.871   5.852   8.550
 3322POPC   D2A 3952  12.805   5.918   8.250
 3322POPC   C3A 3953  12.826   5.882   7.950
 3322POPC   C4A 3954  12.851   5.837   7.650
 3322POPC   C1B 3955  13.110   5.760   8.550
 3322POPC   C2B 3956  13.123   5.754   8.250
 3322POPC   C3B 3957  13.132   5.740   7.950
 3322POPC   C4B 3958  13.103   5.742   7.650
 3323POPC   NC3 3959  19.071   7.385   9.450
 3323POPC   PO4 3960  19.075   7.400   9.150
 3323POPC   GL1 3961  19.103   7.394   8.850
 3323POPC   GL2 3962  19.193   7.320   8.850
 3323POPC   C1A 3963  19.017   7.388   8.550
 3323POPC   D2A 3964  19.068   7.405   8.250
 3323POPC   C3A 3965  19.107   7.429   7.950
 3323POPC   C4A 3966  19.056   7.456   7.650
 3323POPC   C1B 3967  19.285   7.307   8.550
 3323POPC   C2B 3968  19.281   7.277   8.250
 3323POPC   C3B 3969  19.248   7.251   7.950
 3323POPC   C4B 3970  19.243   7.266   7.650
 3324POPC   NC3 3971  26.800  26.798   9.450
 3324POPC   PO4 3972  26.780  26.810   9.150
 3324POPC   GL1 3973  26.826  26.783   8.850
 3324POPC   GL2 3974  26.900  26.679   8.850
 3324POPC   C1A 3975  26.799  26.778   8.550
 3324POPC   D2A 3976  26.777  26.842   8.250
 3324POPC   C3A 3977  26.787  26.853   7.950
 3324POPC   C4A 3978  26.857  26.855   7.650
 3324POPC   C1B 3979  26.958  26.580   8.550
 3324POPC   C2B 3980  26.992  26.593   8.250
 3324POPC   C3B 3981  27.001  26.655   7.950
 3324POPC   C4B 3982  27.013  26.654   7.650
 3325POPC   NC3 3983  12.833  37.696   9.450
 3325POPC   PO4 3984  12.856  37.694   9.150
 3325POPC   GL1 3985  12.826  37.722   8.850
 3325POPC   GL2 3986  12.883  37.803   8.850
 3325POPC   C1A 3987  12.822  37.675   8.550
 3325POPC   D2A 3988  12.858  37.642   8.250
 3325POPC   C3A 3989  12.837  37.645   7.950
 3325POPC   C4A 3990  12.820  37.630   7.650
 3325POPC   C1B 3991  12.856  37.911   8.550
 3325POPC   C2B 3992  12.843  37.935   8.250
 3325POPC   C3B 3993  12.817  37.937   7.950
 3325POPC   C4B 3994  12.867  37.952   7.650
 3326POPC   NC3 3995  44.622  26.058   9.450
 3326POPC   PO4 3996  44.681  26.061   9.150
 3326POPC   GL1 3997  44.664  26.033   8.850
 3326POPC   GL2 3998  44.737  25.973   8.850
 3326POPC   C1A 3999  44.671  26.001   8.550
 3326POPC   D2A 4000  44.664  26.047   8.250
 3326POPC   C3A 4001  44.708  25.992   7.950
 3326POPC   C4A 4002  44.644  26.053   7.650
 3326POPC   C1B 4003  44.881  25.944   8.550
 3326POPC   C2B 4004  44.895  25.904   8.250
 3326POPC   C3B 4005  44.904  25.917   7.950
 3326POPC   C4B 4006  44.898  25.864   7.650
 3327POPC   NC3 4007  37.704   9.012   9.450
 3327POPC   PO4 4008  37.658   8.939   9.150
 3327POPC   GL1 4009  37.692   8.924   8.850
 3327POPC   GL2 4010  37.760   8.842   8.850
 3327POPC   C1A 4011  37.686   8.960   8.550
 3327POPC   D2A 4012  37.665   8.955   8.250
 3327POPC   C3A 4013  37.665   8.985   7.950
 3327POPC   C4A 4014  37.686   8.937   7.650
 3327POPC   C1B 4015  37.870   8.814   8.550
 3327POPC   C2B 4016  37.851   8.781   8.250
 3327POPC   C3B 4017  37.803   8.786   7.950
 3327POPC   C4B 4018  37.813   8.811   7.650
 3328POPC   NC3 4019  41.570  32.982   9.450
 3328POPC   PO4 4020  41.513  32.984   9.150
 3328POPC   GL1 4021  41.527  33.050   8.850
 3328POPC   GL2 4022  41.456  33.124   8.850
 3328POPC   C1A 4023  41.581  33.064   8.550
 3328POPC   D2A 4024  41.514  33.011   8.250
 3328POPC   C3A 4025  41.519  33.071   7.950
 3328POPC   C4A 4026  41.515  33.009   7.650
 3328POPC   C1B 4027  41.358  33.234   8.550
 3328POPC   C2B 4028  41.421  33.199   8.250
 3328POPC   C3B 4029  41.378  33.250   7.950
 3328POPC   C4B 4030  41.412  33.177   7.650
 3329POPC   NC3 4031  20.576   6.651   9.450
 3329POPC   PO4 4032  20.576   6.694   9.150
 3329POPC   GL1 4033  20.591   6.669   8.850
 3329POPC   GL2 4034  20.747   6.626   8.850
 3329POPC   C1A 4035  20.578   6.623   8.550
 3329POPC   D2A 4036  20.570   6.668   8.250
 3329POPC   C3A 4037  20.606   6.602   7.950
 3329POPC   C4A 4038  20.588   6.678   7.650
 3329POPC   C1B 4039  20.813   6.592   8.550
 3329POPC   C2B 4040  20.897   6.565   8.250
 3329POPC   C3B 4041  20.864   6.557   7.950
 3329POPC   C4B 4042  20.866   6.540   7.650
 3330POPC   NC3 4043   5.104  27.623   9.450
 3330POPC   PO4 4044   5.075  27.633   9.150
 3330POPC   GL1 4045   5.085  27.570   8.850
 3330POPC   GL2 4046   5.176  27.451   8.850
 3330POPC   C1A 4047   5.128  27.628   8.550
 3330POPC   D2A 4048   5.100  27.635   8.250
 3330POPC   C3A 4049   5.106  27.566   7.950
 3330POPC   C4A 4050   5.114  27.585   7.650
 3330POPC   C1B 4051   5.259  27.362   8.550
 3330POPC   C2B 4052   5.241  27.433   8.250
 3330POPC   C3B 4053   5.242  27.364   7.950
 3330POPC   C4B 4054   5.235  27.427   7.650
 3331POPC   NC3 4055   0.463   3.556   9.450
 3331POPC   PO4 4056   0.433   3.580   9.150
 3331POPC   GL1 4057   0.436   3.510   8.850
 3331POPC   GL2 4058   0.503   3.460   8.850
 3331POPC   C1A 4059   0.458   3.521   8.550
 3331POPC   D2A 4060   0.473   3.538   8.250
 3331POPC   C3A 4061   0.448   3.515   7.950
 3331POPC   C4A 4062   0.453   3.572   7.650
 3331POPC   C1B 4063   0.604   3.403   8.550
 3331POPC   C2B 4064   0.682   3.438   8.250
 3331POPC   C3B 4065   0.625   3.406   7.950
 3331POPC   C4B 4066   0.612   3.406   7.650
 3332POPC   NC3 4067   2.785  36.865   9.450
 3332POPC   PO4 4068   2.784  36.936   9.150
 3332POPC   GL1 4069   2.757  36.870   8.850
 3332POPC   GL2 4070   2.873  36.831   8.850
 3332POPC   C1A 4071   2.722  36.899   8.550
 3332POPC   D2A 4072   2.731  36.879   8.250
 3332POPC   C3A 4073   2.776  36.952   7.950
 3332POPC   C4A 4074   2.799  36.867   7.650
 3332POPC   C1B 4075   2.969  36.767   8.550
 3332POPC   C2B 4076   2.977  36.774   8.250
 3332POPC   C3B 4077   2.986  36.770   7.950
 3332POPC   C4B 4078   2.992  36.771   7.650
 3333POPC   NC3 4079  44.658  36.905   9.450
 3333POPC   PO4 4080  44.618  36.888   9.150
 3333POPC   GL1 4081  44.708  36.890   8.850
 3333POPC   GL2 4082  44.637  36.818   8.850
 3333POPC   C1A 4083  44.674  36.921   8.550
 3333POPC   D2A 4084  44.696  36.928   8.250
 3333POPC   C3A 4085  44.624  36.944   7.950
 3333POPC   C4A 4086  44.703  36.944   7.650
 3333POPC   C1B 4087  44.609  36.636   8.550
 3333POPC   C2B 4088  44.563  36.635   8.250
 3333POPC   C3B 4089  44.597  36.719   7.950
 3333POPC   C4B 4090  44.550  36.694   7.650
 3334POPC   NC3 4091  39.248  31.470   9.450
 3334POPC   PO4 4092  39.260  31.470   9.150
 3334POPC   GL1 4093  39.217  31.439   8.850
 3334POPC   GL2 4094  39.210  31.626   8.850
 3334POPC   C1A 4095  39.182  31.435   8.550
 3334POPC   D2A 4096  39.216  31.480   8.250
 3334POPC   C3A 4097  39.258  31.507   7.950
 3334POPC   C4A 4098  39.268  31.456   7.650
 3334POPC   C1B 4099  39.219  31.749   8.550
 3334POPC   C2B 4100  39.271  31.768   8.250
 3334POPC   C3B 4101  39.261  31.715   7.950
 3334POPC   C4B 4102  39.215  31.682   7.650
 3335POPC   NC3 4103   1.991  41.583   9.450
 3335POPC   PO4 4104   2.001  41.598   9.150
 3335POPC   GL1 4105   2.015  41.517   8.850
 3335POPC   GL2 4106   2.029  41.412   8.850
 3335POPC   C1A 4107   1.983  41.607   8.550
 3335POPC   D2A 4108   1.985  41.509   8.250
 3335POPC   C3A 4109   2.030  41.512   7.950
 3335POPC   C4A 4110   2.009  41.526   7.650
 3335POPC   C1B 4111   2.112  41.355   8.550
 3335POPC   C2B 4112   2.037  41.310   8.250
 3335POPC   C3B 4113   2.052  41.359   7.950
 3335POPC   C4B 4114   2.100  41.296   7.650
 3336POPC   NC3 4115  22.925   4.341   9.450
 3336POPC   PO4 4116  22.976   4.338   9.150
 3336POPC   GL1 4117  22.931   4.366   8.850
 3336POPC   GL2 4118  22.804   4.267   8.850
 3336POPC   C1A 4119  22.945   4.283   8.550
 3336POPC   D2A 4120  22.897   4.300   8.250
 3336POPC   C3A 4121  22.912   4.302   7.950
 3336POPC   C4A 4122  22.975   4.363   7.650
 3336POPC   C1B 4123  22.740   4.260   8.550
 3336POPC   C2B 4124  22.728   4.198   8.250
 3336POPC   C3B 4125  22.707   4.266   7.950
 3336POPC   C4B 4126  22.718   4.291   7.650
 3337POPC   NC3 4127   4.316   9.701   9.450
 3337POPC   PO4 4128   4.313   9.768   9.150
 3337POPC   GL1 4129   4.353   9.777   8.850
 3337POPC   GL2 4130   4.477   9.719   8.850
 3337POPC   C1A 4131   4.318   9.791   8.550
 3337POPC   D2A 4132   4.297   9.747   8.250
 3337POPC   C3A 4133   4.291   9.791   7.950
 3337POPC   C4A 4134   4.309   9.714   7.650
 3337POPC   C1B 4135   4.563   9.757   8.550
 3337POPC   C2B 4136   4.585   9.710   8.250
 3337POPC   C3B 4137   4.569   9.779   7.950
 3337POPC   C4B 4138   4.612   9.711   7.650
 3338POPC   NC3 4139   7.403  17.505   9.450
 3338POPC   PO4 4140   7.448  17.545   9.150
 3338POPC   GL1 4141   7.391  17.503   8.850
 3338POPC   GL2 4142   7.547  17.457   8.850
 3338POPC   C1A 4143   7.411  17.524   8.550
 3338POPC   D2A 4144   7.431  17.501   8.250
 3338POPC   C3A 4145   7.402  17.510   7.950
 3338POPC   C4A 4146   7.457  17.503   7.650
 3338POPC   C1B 4147   7.717  17.467   8.550
 3338POPC   C2B 4148   7.704  17.491   8.250
 3338POPC   C3B 4149   7.707  17.531   7.950
 3338POPC   C4B 4150   7.681  17.490   7.650
 3339POPC   NC3 4151  26.002  33.028   9.450
 3339POPC   PO4 4152  25.996  32.977   9.150
 3339POPC   GL1 4153  26.018  33.007   8.850
 3339POPC   GL2 4154  26.167  32.982   8.850
 3339POPC   C1A 4155  26.036  33.039   8.550
 3339POPC   D2A 4156  26.033  32.981   8.250
 3339POPC   C3A 4157  26.063  33.068   7.950
 3339POPC   C4A 4158  26.026  33.009   7.650
 3339POPC   C1B 4159  26.234  32.909   8.550
 3339POPC   C2B 4160  26.285  32.904   8.250
 3339POPC   C3B 4161  26.257  32.861   7.950
 3339POPC   C4B 4162  26.303  32.945   7.650
 3340POPC   NC3 4163   7.373  30.736   9.450
 3340POPC   PO4 4164   7.438  30.693   9.150
 3340POPC   GL1 4165   7.453  30.692   8.850
 3340POPC   GL2 4166   7.359  30.740   8.850
 3340POPC   C1A 4167   7.394  30.674   8.550
 3340POPC   D2A 4168   7.442  30.647   8.250
 3340POPC   C3A 4169   7.382  30.706   7.950
 3340POPC   C4A 4170   7.372  30.708   7.650
 3340POPC   C1B 4171   7.173  30.872   8.550
 3340POPC   C2B 4172   7.259  30.823   8.250
 3340POPC   C3B 4173   7.176  30.848   7.950
 3340POPC   C4B 4174   7.257  30.819   7.650
 3341POPC   NC3 4175  13.625  17.495   9.450
 3341POPC   PO4 4176  13.617  17.512   9.150
 3341POPC   GL1 4177  13.667  17.530   8.850
 3341POPC   GL2 4178  13.647  17.581   8.850
 3341POPC   C1A 4179  13.661  17.464   8.550
 3341POPC   D2A 4180  13.658  17.500   8.250
 3341POPC   C3A 4181  13.666  17.468   7.950
 3341POPC   C4A 4182  13.662  17.493   7.650
 3341POPC   C1B 4183  13.765  17.754   8.550
 3341POPC   C2B 4184  13.708  17.728   8.250
 3341POPC   C3B 4185  13.708  17.775   7.950
 3341POPC   C4B 4186  13.717  17.782   7.650
 3342POPC   NC3 4187  11.309  28.373   9.450
 3342POPC   PO4 4188  11.301  28.336   9.150
 3342POPC   GL1 4189  11.340  28.365   8.850
 3342POPC   GL2 4190  11.458  28.335   8.850
 3342POPC   C1A 4191  11.348  28.403   8.550
 3342POPC   D2A 4192  11.254  28.323   8.250
 3342POPC   C3A 4193  11.264  28.372   7.950
 3342POPC   C4A 4194  11.271  28.413   7.650
 3342POPC   C1B 4195  11.500  28.397   8.550
 3342POPC   C2B 4196  11.531  28.309   8.250
 3342POPC   C3B 4197  11.584  28.342   7.950
 3342POPC   C4B 4198  11.562  28.361   7.650
 3343POPC   NC3 4199  19.874   3.580   9.450
 3343POPC   PO4 4200  19.836   3.551   9.150
 3343POPC   GL1 4201  19.817   3.497   8.850
 3343POPC   GL2 4202  19.765   3.447   8.850
 3343POPC   C1A 4203  19.794   3.533   8.550
 3343POPC   D2A 4204  19.813   3.509   8.250
 3343POPC   C3A 4205  19.788   3.577   7.950
 3343POPC   C4A 4206  19.838   3.570   7.650
 3343POPC   C1B 4207  19.635   3.357   8.550
 3343POPC   C2B 4208  19.641   3.343   8.250
 3343POPC   C3B 4209  19.673   3.392   7.950
 3343POPC   C4B 4210  19.642   3.320   7.650
 3344POPC   NC3 4211  42.311  39.269   9.450
 3344POPC   PO4 4212  42.331  39.213   9.150
 3344POPC   GL1 4213  42.353  39.211   8.850
 3344POPC   GL2 4214  42.414  39.141   8.850
 3344POPC   C1A 4215  42.286  39.231   8.550
 3344POPC   D2A 4216  42.367  39.197   8.250
 3344POPC   C3A 4217  42.330  39.182   7.950
 3344POPC   C4A 4218  42.322  39.228   7.650
 3344POPC   C1B 4219  42.610  39.119   8.550
 3344POPC   C2B 4220  42.582  39.107   8.250
 3344POPC   C3B 4221  42.594  39.143   7.950
 3344POPC   C4B 4222  42.591  39.113   7.650
 3345POPC   NC3 4223  16.691   1.216   9.450
 3345POPC   PO4 4224  16.748   1.191   9.150
 3345POPC   GL1 4225  16.706   1.166   8.850
 3345POPC   GL2 4226  16.827   1.236   8.850
 3345POPC   C1A 4227  16.736   1.220   8.550
 3345POPC   D2A 4228  16.730   1.263   8.250
 3345POPC   C3A 4229  16.760   1.262   7.950
 3345POPC   C4A 4230  16.772   1.207   7.650
 3345POPC   C1B 4231  16.976   1.258   8.550
 3345POPC   C2B 4232  16.995   1.250   8.250
 3345POPC   C3B 4233  16.979   1.325   7.950
 3345POPC   C4B 4234  16.944   1.324   7.650
 3346POPC   NC3 4235  33.754  36.085   9.450
 3346POPC   PO4 4236  33.801  36.085   9.150
 3346POPC   GL1 4237  33.793  36.150   8.850
 3346POPC   GL2 4238  33.718  36.133   8.850
 3346POPC   C1A 4239  33.755  36.149   8.550
 3346POPC   D2A 4240  33.792  36.122   8.250
 3346POPC   C3A 4241  33.847  36.152   7.950
 3346POPC   C4A 4242  33.759  36.135   7.650
 3346POPC   C1B 4243  33.570  36.187   8.550
 3346POPC   C2B 4244  33.530  36.161   8.250
 3346POPC   C3B 4245  33.515  36.117   7.950
 3346POPC   C4B 4246  33.588  36.144   7.650
 3347POPC   NC3 4247  37.654  34.569   9.450
 3347POPC   PO4 4248  37.687  34.597   9.150
 3347POPC   GL1 4249  37.661  34.567   8.850
 3347POPC   GL2 4250  37.518  34.580   8.850
 3347POPC   C1A 4251  37.696  34.536   8.550
 3347POPC   D2A 4252  37.685  34.621   8.250
 3347POPC   C3A 4253  37.689  34.558   7.950
 3347POPC   C4A 4254  37.717  34.538   7.650
 3347POPC   C1B 4255  37.434  34.614   8.550
 3347POPC   C2B 4256  37.409  34.630   8.250
 3347POPC   C3B 4257  37.443  34.595   7.950
 3347POPC   C4B 4258  37.390  34.628   7.650
 3348POPC   NC3 4259  17.557  26.803   9.450
 3348POPC   PO4 4260  17.471  26.824   9.150
 3348POPC   GL1 4261  17.517  26.799   8.850
 3348POPC   GL2 4262  17.439  26.702   8.850
 3348POPC   C1A 4263  17.530  26.787   8.550
 3348POPC   D2A 4264  17.511  26.768   8.250
 3348POPC   C3A 4265  17.461  26.782   7.950
 3348POPC   C4A 4266  17.543  26.831   7.650
 3348POPC   C1B 4267  17.451  26.634   8.550
 3348POPC   C2B 4268  17.424  26.554   8.250
 3348POPC   C3B 4269  17.407  26.587   7.950
 3348POPC   C4B 4270  17.417  26.631   7.650
 3349POPC   NC3 4271   4.334  30.689   9.450
 3349POPC   PO4 4272   4.328  30.729   9.150
 3349POPC   GL1 4273   4.366  30.716   8.850
 3349POPC   GL2 4274   4.284  30.623   8.850
 3349POPC   C1A 4275   4.296  30.677   8.550
 3349POPC   D2A 4276   4.299  30.656   8.250
 3349POPC   C3A 4277   4.350  30.699   7.950
 3349POPC   C4A 4278   4.360  30.648   7.650
 3349POPC   C1B 4279   4.246  30.470   8.550
 3349POPC   C2B 4280   4.323  30.494   8.250
 3349POPC   C3B 4281   4.303  30.459   7.950
 3349POPC   C4B 4282   4.302  30.401   7.650
 3350POPC   NC3 4283  36.158  29.913   9.450
 3350POPC   PO4 4284  36.091  29.956   9.150
 3350POPC   GL1 4285  36.086  29.894   8.850
 3350POPC   GL2 4286  36.244  29.912   8.850
 3350POPC   C1A 4287  36.160  29.949   8.550
 3350POPC   D2A 4288  36.085  29.897   8.250
 3350POPC   C3A 4289  36.176  29.881   7.950
 3350POPC   C4A 4290  36.176  29.928   7.650
 3350POPC   C1B 4291  36.391  29.892   8.550
 3350POPC   C2B 4292  36.356  29.930   8.250
 3350POPC   C3B 4293  36.371  29.961   7.950
 3350POPC   C4B 4294  36.328  29.906   7.650
 3351POPC   NC3 4295  19.813  32.262   9.450
 3351POPC   PO4 4296  19.795  32.224   9.150
 3351POPC   GL1 4297  19.819  32.223   8.850
 3351POPC   GL2 4298  19.743  32.204   8.850
 3351POPC   C1A 4299  19.815  32.217   8.550
 3351POPC   D2A 4300  19.806  32.294   8.250
 3351POPC   C3A 4301  19.858  32.202   7.950
 3351POPC   C4A 4302  19.807  32.276   7.650
 3351POPC   C1B 4303  19.573  32.094   8.550
 3351POPC   C2B 4304  19.604  32.128   8.250
 3351POPC   C3B 4305  19.572  32.093   7.950
 3351POPC   C4B 4306  19.643  32.155   7.650
 3352POPC   NC3 4307  23.709  16.717   9.450
 3352POPC   PO4 4308  23.696  16.777   9.150
 3352POPC   GL1 4309  23.674  16.703   8.850
 3352POPC   GL2 4310  23.862  16.681   8.850
 3352POPC   C1A 4311  23.683  16.741   8.550
 3352POPC   D2A 4312  23.711  16.714   8.250
 3352POPC   C3A 4313  23.687  16.755   7.950
 3352POPC   C4A 4314  23.674  16.694   7.650
 3352POPC   C1B 4315  23.939  16.729   8.550
 3352POPC   C2B 4316  23.999  16.701   8.250
 3352POPC   C3B 4317  23.973  16.715   7.950
 3352POPC   C4B 4318  23.937  16.685   7.650
 3353POPC   NC3 4319  15.189  42.298   9.450
 3353POPC   PO4 4320  15.133  42.335   9.150
 3353POPC   GL1 4321  15.142  42.350   8.850
 3353POPC   GL2 4322  15.099  42.239   8.850
 3353POPC   C1A 4323  15.183  42.313   8.550
 3353POPC   D2A 4324  15.192  42.346   8.250
 3353POPC   C3A 4325  15.139  42.345   7.950
 3353POPC   C4A 4326  15.147  42.290   7.650
 3353POPC   C1B 4327  15.140  42.049   8.550
 3353POPC   C2B 4328  15.144  42.096   8.250
 3353POPC   C3B 4329  15.152  42.123   7.950
 3353POPC   C4B 4330  15.060  42.125   7.650
 3354POPC   NC3 4331   3.557  21.357   9.450
 3354POPC   PO4 4332   3.512  21.432   9.150
 3354POPC   GL1 4333   3.576  21.374   8.850
 3354POPC   GL2 4334   3.422  21.357   8.850
 3354POPC   C1A 4335   3.518  21.399   8.550
 3354POPC   D2A 4336   3.543  21.433   8.250
 3354POPC   C3A 4337   3.590  21.373   7.950
 3354POPC   C4A 4338   3.501  21.368   7.650
 3354POPC   C1B 4339   3.305  21.246   8.550
 3354POPC   C2B 4340   3.326  21.251   8.250
 3354POPC   C3B 4341   3.371  21.213   7.950
 3354POPC   C4B 4342   3.320  21.207   7.650
 3355POPC   NC3 4343  23.703  31.436   9.450
 3355POPC   PO4 4344  23.737  31.522   9.150
 3355POPC   GL1 4345  23.696  31.426   8.850
 3355POPC   GL2 4346  23.861  31.575   8.850
 3355POPC   C1A 4347  23.754  31.431   8.550
 3355POPC   D2A 4348  23.731  31.494   8.250
 3355POPC   C3A 4349  23.682  31.465   7.950
 3355POPC   C4A 4350  23.757  31.513   7.650
 3355POPC   C1B 4351  23.935  31.654   8.550
 3355POPC   C2B 4352  23.955  31.621   8.250
 3355POPC   C3B 4353  23.930  31.608   7.950
 3355POPC   C4B 4354  23.936  31.631   7.650
 3356POPC   NC3 4355  41.589  18.253   9.450
 3356POPC   PO4 4356  41.602  18.268   9.150
 3356POPC   GL1 4357  41.530  18.248   8.850
 3356POPC   GL2 4358  41.629  18.202   8.850
 3356POPC   C1A 4359  41.593  18.305   8.550
 3356POPC   D2A 4360  41.550  18.262   8.250
 3356POPC   C3A 4361  41.535  18.316   7.950
 3356POPC   C4A 4362  41.584  18.318   7.650
 3356POPC   C1B 4363  41.781  18.138   8.550
 3356POPC   C2B 4364  41.756  18.103   8.250
 3356POPC   C3B 4365  41.729  18.091   7.950
 3356POPC   C4B 4366  41.758  18.146   7.650
 3357POPC   NC3 4367  29.948  32.278   9.450
 3357POPC   PO4 4368  29.936  32.267   9.150
 3357POPC   GL1 4369  29.876  32.257   8.850
 3357POPC   GL2 4370  29.840  32.276   8.850
 3357POPC   C1A 4371  29.925  32.202   8.550
 3357POPC   D2A 4372  29.957  32.289   8.250
 3357POPC   C3A 4373  29.887  32.246   7.950
 3357POPC   C4A 4374  29.941  32.253   7.650
 3357POPC   C1B 4375  29.722  32.374   8.550
 3357POPC   C2B 4376  29.639  32.285   8.250
 3357POPC   C3B 4377  29.689  32.290   7.950
 3357POPC   C4B 4378  29.701  32.342   7.650
 3358POPC   NC3 4379   1.262   0.481   9.450
 3358POPC   PO4 4380   1.181   0.467   9.150
 3358POPC   GL1 4381   1.185   0.472   8.850
 3358POPC   GL2 4382   1.303   0.518   8.850
 3358POPC   C1A 4383   1.249   0.415   8.550
 3358POPC   D2A 4384   1.191   0.400   8.250
 3358POPC   C3A 4385   1.238   0.462   7.950
 3358POPC   C4A 4386   1.191   0.486   7.650
 3358POPC   C1B 4387   1.373   0.634   8.550
 3358POPC   C2B 4388   1.395   0.614   8.250
 3358POPC   C3B 4389   1.405   0.613   7.950
 3358POPC   C4B 4390   1.355   0.617   7.650
 3359POPC   NC3 4391   4.311  19.053   9.450
 3359POPC   PO4 4392   4.292  19.013   9.150
 3359POPC   GL1 4393   4.291  19.012   8.850
 3359POPC   GL2 4394   4.416  19.128   8.850
 3359POPC   C1A 4395   4.272  19.074   8.550
 3359POPC   D2A 4396   4.314  19.100   8.250
 3359POPC   C3A 4397   4.274  19.046   7.950
 3359POPC   C4A 4398   4.333  19.014   7.650
 3359POPC   C1B 4399   4.425  19.304   8.550
 3359POPC   C2B 4400   4.445  19.307   8.250
 3359POPC   C3B 4401   4.380  19.275   7.950
 3359POPC   C4B 4402   4.416  19.252   7.650
 3360POPC   NC3 4403  21.353   9.782   9.450
 3360POPC   PO4 4404  21.345   9.703   9.150
 3360POPC   GL1 4405  21.410   9.719   8.850
 3360POPC   GL2 4406  21.361   9.600   8.850
 3360POPC   C1A 4407  21.337   9.709   8.550
 3360POPC   D2A 4408  21.365   9.716   8.250
 3360POPC   C3A 4409  21.389   9.745   7.950
 3360POPC   C4A 4410  21.413   9.795   7.650
 3360POPC   C1B 4411  21.376   9.510   8.550
 3360POPC   C2B 4412  21.407   9.531   8.250
 3360POPC   C3B 4413  21.400   9.535   7.950
 3360POPC   C4B 4414  21.337   9.490   7.650
 3361POPC   NC3 4415   9.712  18.312   9.450
 3361POPC   PO4 4416   9.727  18.296   9.150
 3361POPC   GL1 4417   9.732  18.304   8.850
 3361POPC   GL2 4418   9.660  18.349   8.850
 3361POPC   C1A 4419   9.710  18.234   8.550
 3361POPC   D2A 4420   9.782  18.273   8.250
 3361POPC   C3A 4421   9.728  18.241   7.950
 3361POPC   C4A 4422   9.787  18.267   7.650
 3361POPC   C1B 4423   9.618  18.434   8.550
 3361POPC   C2B 4424   9.606  18.452   8.250
 3361POPC   C3B 4425   9.642  18.489   7.950
 3361POPC   C4B 4426   9.635  18.445   7.650
 3362POPC   NC3 4427  26.794  29.900   9.450
 3362POPC   PO4 4428  26.852  29.883   9.150
 3362POPC   GL1 4429  26.777  29.885   8.850
 3362POPC   GL2 4430  26.797  29.748   8.850
 3362POPC   C1A 4431  26.839  29.919   8.550
 3362POPC   D2A 4432  26.856  29.943   8.250
 3362POPC   C3A 4433  26.851  29.916   7.950
 3362POPC   C4A 4434  26.850  29.901   7.650
 3362POPC   C1B 4435  26.826  29.624   8.550
 3362POPC   C2B 4436  26.804  29.653   8.250
 3362POPC   C3B 4437  26.778  29.627   7.950
 3362POPC   C4B 4438  26.819  29.690   7.650
 3363POPC   NC3 4439  33.068  26.041   9.450
 3363POPC   PO4 4440  33.048  26.073   9.150
 3363POPC   GL1 4441  32.987  26.071   8.850
 3363POPC   GL2 4442  33.102  25.974   8.850
 3363POPC   C1A 4443  33.040  26.087   8.550
 3363POPC   D2A 4444  33.006  26.081   8.250
 3363POPC   C3A 4445  32.980  26.019   7.950
 3363POPC   C4A 4446  33.008  26.074   7.650
 3363POPC   C1B 4447  33.296  25.941   8.550
 3363POPC   C2B 4448  33.265  25.985   8.250
 3363POPC   C3B 4449  33.267  25.982   7.950
 3363POPC   C4B 4450  33.285  25.967   7.650
 3364POPC   NC3 4451  43.130  37.667   9.450
 3364POPC   PO4 4452  43.082  37.708   9.150
 3364POPC   GL1 4453  43.113  37.681   8.850
 3364POPC   GL2 4454  43.036  37.693   8.850
 3364POPC   C1A 4455  43.119  37.653   8.550
 3364POPC   D2A 4456  43.079  37.668   8.250
 3364POPC   C3A 4457  43.092  37.681   7.950
 3364POPC   C4A 4458  43.124  37.701   7.650
 3364POPC   C1B 4459  42.855  37.786   8.550
 3364POPC   C2B 4460  42.841  37.748   8.250
 3364POPC   C3B 4461  42.854  37.741   7.950
 3364POPC   C4B 4462  42.845  37.768   7.650
 3365POPC   NC3 4463  19.080  24.469   9.450
 3365POPC   PO4 4464  19.015  24.499   9.150
 3365POPC   GL1 4465  19.059  24.482   8.850
 3365POPC   GL2 4466  18.986  24.521   8.850
 3365POPC   C1A 4467  19.101  24.463   8.550
 3365POPC   D2A 4468  19.021  24.483   8.250
 3365POPC   C3A 4469  19.055  24.519   7.950
 3365POPC   C4A 4470  19.105  24.448   7.650
 3365POPC   C1B 4471  18.874  24.651   8.550
 3365POPC   C2B 4472  18.860  24.589   8.250
 3365POPC   C3B 4473  18.852  24.569   7.950
 3365POPC   C4B 4474  18.820  24.634   7.650
 3366POPC   NC3 4475   2.734  38.447   9.450
 3366POPC   PO4 4476   2.734  38.455   9.150
 3366POPC   GL1 4477   2.732  38.457   8.850
 3366POPC   GL2 4478   2.826  38.306   8.850
 3366POPC   C1A 4479   2.745  38.459   8.550
 3366POPC   D2A 4480   2.776  38.419   8.250
 3366POPC   C3A 4481   2.745  38.433   7.950
 3366POPC   C4A 4482   2.761  38.408   7.650
 3366POPC   C1B 4483   2.942  38.273   8.550
 3366POPC   C2B 4484   2.933  38.267   8.250
 3366POPC   C3B 4485   2.898  38.236   7.950
 3366POPC   C4B 4486   2.867  38.282   7.650
 3367POPC   NC3 4487  39.275  22.120   9.450
 3367POPC   PO4 4488  39.254  22.197   9.150
 3367POPC   GL1 4489  39.193  22.196   8.850
 3367POPC   GL2 4490  39.106  22.224   8.850
 3367POPC   C1A 4491  39.224  22.125   8.550
 3367POPC   D2A 4492  39.211  22.139   8.250
 3367POPC   C3A 4493  39.190  22.138   7.950
 3367POPC   C4A 4494  39.242  22.195   7.650
 3367POPC   C1B 4495  39.081  22.318   8.550
 3367POPC   C2B 4496  39.089  22.324   8.250
 3367POPC   C3B 4497  39.077  22.396   7.950
 3367POPC   C4B 4498  39.077  22.342   7.650
 3368POPC   NC3 4499  43.922  21.431   9.450
 3368POPC   PO4 4500  43.858  21.352   9.150
 3368POPC   GL1 4501  43.843  21.337   8.850
 3368POPC   GL2 4502  43.963  21.480   8.850
 3368POPC   C1A 4503  43.916  21.401   8.550
 3368POPC   D2A 4504  43.901  21.347   8.250
 3368POPC   C3A 4505  43.852  21.416   7.950
 3368POPC   C4A 4506  43.838  21.397   7.650
 3368POPC   C1B 4507  44.069  21.495   8.550
 3368POPC   C2B 4508  44.126  21.465   8.250
 3368POPC   C3B 4509  44.087  21.526   7.950
 3368POPC   C4B 4510  44.147  21.480   7.650
 3369POPC   NC3 4511   5.855   8.193   9.450
 3369POPC   PO4 4512   5.894   8.246   9.150
 3369POPC   GL1 4513   5.883   8.220   8.850
 3369POPC   GL2 4514   5.721   8.098   8.850
 3369POPC   C1A 4515   5.893   8.161   8.550
 3369POPC   D2A 4516   5.848   8.211   8.250
 3369POPC   C3A 4517   5.852   8.227   7.950
 3369POPC   C4A 4518   5.820   8.237   7.650
 3369POPC   C1B 4519   5.604   8.054   8.550
 3369POPC   C2B 4520   5.618   8.103   8.250
 3369POPC   C3B 4521   5.609   8.076   7.950
 3369POPC   C4B 4522   5.614   8.035   7.650
 3370POPC   NC3 4523   5.097  36.860   9.450
 3370POPC   PO4 4524   5.134  36.874   9.150
 3370POPC   GL1 4525   5.138  36.920   8.850
 3370POPC   GL2 4526   5.021  37.048   8.850
 3370POPC   C1A 4527   5.083  36.927   8.550
 3370POPC   D2A 4528   5.059  36.929   8.250
 3370POPC   C3A 4529   5.141  36.890   7.950
 3370POPC   C4A 4530   5.060  36.929   7.650
 3370POPC   C1B 4531   5.000  37.103   8.550
 3370POPC   C2B 4532   4.998  37.197   8.250
 3370POPC   C3B 4533   5.077  37.134   7.950
 3370POPC   C4B 4534   5.029  37.133   7.650
 3371POPC   NC3 4535   4.309   7.422   9.450
 3371POPC   PO4 4536   4.326   7.386   9.150
 3371POPC   GL1 4537   4.308   7.401   8.850
 3371POPC   GL2 4538   4.245   7.557   8.850
 3371POPC   C1A 4539   4.321   7.398   8.550
 3371POPC   D2A 4540   4.328   7.453   8.250
 3371POPC   C3A 4541   4.277   7.446   7.950
 3371POPC   C4A 4542   4.344   7.400   7.650
 3371POPC   C1B 4543   4.202   7.677   8.550
 3371POPC   C2B 4544   4.270   7.710   8.250
 3371POPC   C3B 4545   4.211   7.702   7.950
 3371POPC   C4B 4546   4.229   7.624   7.650
 3372POPC   NC3 4547  44.694  35.374   9.450
 3372POPC   PO4 4548  44.685  35.335   9.150
 3372POPC   GL1 4549  44.617  35.402   8.850
 3372POPC   GL2 4550  44.574  35.278   8.850
 3372POPC   C1A 4551  44.702  35.358   8.550
 3372POPC   D2A 4552  44.612  35.356   8.250
 3372POPC   C3A 4553  44.645  35.397   7.950
 3372POPC   C4A 4554  44.675  35.306   7.650
 3372POPC   C1B 4555  44.492  35.176   8.550
 3372POPC   C2B 4556  44.464  35.250   8.250
 3372POPC   C3B 4557  44.501  35.200   7.950
 3372POPC   C4B 4558  44.425  35.198   7.650
 3373POPC   NC3 4559   1.219  42.323   9.450
 3373POPC   PO4 4560   1.195  42.294   9.150
 3373POPC   GL1 4561   1.220  42.299   8.850
 3373POPC   GL2 4562   1.135  42.266   8.850
 3373POPC   C1A 4563   1.209  42.383   8.550
 3373POPC   D2A 4564   1.235  42.354   8.250
 3373POPC   C3A 4565   1.249  42.292   7.950
 3373POPC   C4A 4566   1.172  42.357   7.650
 3373POPC   C1B 4567   1.102  42.091   8.550
 3373POPC   C2B 4568   1.091  42.076   8.250
 3373POPC   C3B 4569   1.127  42.096   7.950
 3373POPC   C4B 4570   1.179  42.108   7.650
 3374POPC   NC3 4571  37.641  25.235   9.450
 3374POPC   PO4 4572  37.631  25.307   9.150
 3374POPC   GL1 4573  37.671  25.265   8.850
 3374POPC   GL2 4574  37.750  25.185   8.850
 3374POPC   C1A 4575  37.683  25.277   8.550
 3374POPC   D2A 4576  37.681  25.231   8.250
 3374POPC   C3A 4577  37.662  25.231   7.950
 3374POPC   C4A 4578  37.718  25.250   7.650
 3374POPC   C1B 4579  37.765  25.038   8.550
 3374POPC   C2B 4580  37.769  25.028   8.250
 3374POPC   C3B 4581  37.779  25.034   7.950
 3374POPC   C4B 4582  37.831  25.087   7.650
 3375POPC   NC3 4583  21.394  11.290   9.450
 3375POPC   PO4 4584  21.408  11.257   9.150
 3375POPC   GL1 4585  21.340  11.269   8.850
 3375POPC   GL2 4586  21.372  11.213   8.850
 3375POPC   C1A 4587  21.395  11.261   8.550
 3375POPC   D2A 4588  21.404  11.339   8.250
 3375POPC   C3A 4589  21.428  11.281   7.950
 3375POPC   C4A 4590  21.361  11.270   7.650
 3375POPC   C1B 4591  21.288  11.108   8.550
 3375POPC   C2B 4592  21.352  11.062   8.250
 3375POPC   C3B 4593  21.291  11.014   7.950
 3375POPC   C4B 4594  21.299  11.053   7.650
 3376POPC   NC3 4595  35.373  14.408   9.450
 3376POPC   PO4 4596  35.338  14.385   9.150
 3376POPC   GL1 4597  35.401  14.419   8.850
 3376POPC   GL2 4598  35.267  14.373   8.850
 3376POPC   C1A 4599  35.356  14.434   8.550
 3376POPC   D2A 4600  35.368  14.388   8.250
 3376POPC   C3A 4601  35.337  14.448   7.950
 3376POPC   C4A 4602  35.375  14.425   7.650
 3376POPC   C1B 4603  35.100  14.426   8.550
 3376POPC   C2B 4604  35.123  14.397   8.250
 3376POPC   C3B 4605  35.086  14.403   7.950
 3376POPC   C4B 4606  35.070  14.433   7.650
 3377POPC   NC3 4607  26.816  36.864   9.450
 3377POPC   PO4 4608  26.814  36.864   9.150
 3377POPC   GL1 4609  26.835  36.910   8.850
 3377POPC   GL2 4610  26.944  36.811   8.850
 3377POPC   C1A 4611  26.838  36.854   8.550
 3377POPC   D2A 4612  26.803  36.906   8.250
 3377POPC   C3A 4613  26.781  36.917   7.950
 3377POPC   C4A 4614  26.835  36.947   7.650
 3377POPC   C1B 4615  27.000  36.839   8.550
 3377POPC   C2B 4616  27.023  36.782   8.250
 3377POPC   C3B 4617  26.996  36.775   7.950
 3377POPC   C4B 4618  27.016  36.839   7.650
 3378POPC   NC3 4619  37.633  19.058   9.450
 3378POPC   PO4 4620  37.667  19.055   9.150
 3378POPC   GL1 4621  37.648  19.050   8.850
 3378POPC   GL2 4622  37.620  19.229   8.850
 3378POPC   C1A 4623  37.711  19.036   8.550
 3378POPC   D2A 4624  37.689  19.013   8.250
 3378POPC   C3A 4625  37.707  19.066   7.950
 3378POPC   C4A 4626  37.676  19.067   7.650
 3378POPC   C1B 4627  37.672  19.266   8.550
 3378POPC   C2B 4628  37.673  19.315   8.250
 3378POPC   C3B 4629  37.655  19.328   7.950
 3378POPC   C4B 4630  37.655  19.280   7.650
 3379POPC   NC3 4631  16.760  36.142   9.450
 3379POPC   PO4 4632  16.707  36.167   9.150
 3379POPC   GL1 4633  16.738  36.080   8.850
 3379POPC   GL2 4634  16.855  36.093   8.850
 3379POPC   C1A 4635  16.738  36.100   8.550
 3379POPC   D2A 4636  16.772  36.151   8.250
 3379POPC   C3A 4637  16.770  36.167   7.950
 3379POPC   C4A 4638  16.683  36.087   7.650
 3379POPC   C1B 4639  16.943  36.063   8.550
 3379POPC   C2B 4640  16.997  36.084   8.250
 3379POPC   C3B 4641  17.000  36.045   7.950
 3379POPC   C4B 4642  16.923  36.021   7.650
 3380POPC   NC3 4643  28.381  11.321   9.450
 3380POPC   PO4 4644  28.321  11.341   9.150
 3380POPC   GL1 4645  28.376  11.317   8.850
 3380POPC   GL2 4646  28.457  11.313   8.850
 3380POPC   C1A 4647  28.354  11.331   8.550
 3380POPC   D2A 4648  28.382  11.260   8.250
 3380POPC   C3A 4649  28.390  11.291   7.950
 3380POPC   C4A 4650  28.409  11.286   7.650
 3380POPC   C1B 4651  28.591  11.319   8.550
 3380POPC   C2B 4652  28.612  11.343   8.250
 3380POPC   C3B 4653  28.583  11.361   7.950
 3380POPC   C4B 4654  28.660  11.375   7.650
 3381POPC   NC3 4655  29.109  36.861   9.450
 3381POPC   PO4 4656  29.141  36.861   9.150
 3381POPC   GL1 4657  29.170  36.940   8.850
 3381POPC   GL2 4658  29.280  36.882   8.850
 3381POPC   C1A 4659  29.124  36.914   8.550
 3381POPC   D2A 4660  29.114  36.885   8.250
 3381POPC   C3A 4661  29.151  36.875   7.950
 3381POPC   C4A 4662  29.184  36.882   7.650
 3381POPC   C1B 4663  29.396  36.827   8.550
 3381POPC   C2B 4664  29.325  36.821   8.250
 3381POPC   C3B 4665  29.392  36.782   7.950
 3381POPC   C4B 4666  29.365  36.845   7.650
 3382POPC   NC3 4667  33.067  20.571   9.450
 3382POPC   PO4 4668  32.982  20.659   9.150
 3382POPC   GL1 4669  33.026  20.658   8.850
 3382POPC   GL2 4670  33.004  20.466   8.850
 3382POPC   C1A 4671  33.015  20.609   8.550
 3382POPC   D2A 4672  32.996  20.619   8.250
 3382POPC   C3A 4673  32.975  20.643   7.950
 3382POPC   C4A 4674  33.011  20.621   7.650
 3382POPC   C1B 4675  32.943  20.397   8.550
 3382POPC   C2B 4676  32.903  20.344   8.250
 3382POPC   C3B 4677  32.939  20.395   7.950
 3382POPC   C4B 4678  32.981  20.366   7.650
 3383POPC   NC3 4679  35.361  27.601   9.450
 3383POPC   PO4 4680  35.391  27.635   9.150
 3383POPC   GL1 4681  35.378  27.544   8.850
 3383POPC   GL2 4682  35.214  27.706   8.850
 3383POPC   C1A 4683  35.350  27.578   8.550
 3383POPC   D2A 4684  35.306  27.643   8.250
 3383POPC   C3A 4685  35.365  27.550   7.950
 3383POPC   C4A 4686  35.310  27.607   7.650
 3383POPC   C1B 4687  35.114  27.803   8.550
 3383POPC   C2B 4688  35.159  27.710   8.250
 3383POPC   C3B 4689  35.121  27.750   7.950
 3383POPC   C4B 4690  35.196  27.720   7.650
 3384POPC   NC3 4691  43.843  19.861   9.450
 3384POPC   PO4 4692  43.873  19.788   9.150
 3384POPC   GL1 4693  43.898  19.841   8.850
 3384POPC   GL2 4694  43.967  19.719   8.850
 3384POPC   C1A 4695  43.843  19.790   8.550
 3384POPC   D2A 4696  43.873  19.839   8.250
 3384POPC   C3A 4697  43.870  19.814   7.950
 3384POPC   C4A 4698  43.892  19.870   7.650
 3384POPC   C1B 4699  44.007  19.630   8.550
 3384POPC   C2B 4700  43.983  19.631   8.250
 3384POPC   C3B 4701  44.005  19.591   7.950
 3384POPC   C4B 4702  44.028  19.613   7.650
 3385POPC   NC3 4703  40.791  12.049   9.450
 3385POPC   PO4 4704  40.798  12.051   9.150
 3385POPC   GL1 4705  40.785  12.063   8.850
 3385POPC   GL2 4706  40.774  12.184   8.850
 3385POPC   C1A 4707  40.773  12.103   8.550
 3385POPC   D2A 4708  40.752  12.030   8.250
 3385POPC   C3A 4709  40.782  12.112   7.950
 3385POPC   C4A 4710  40.832  12.050   7.650
 3385POPC   C1B 4711  40.704  12.291   8.550
 3385POPC   C2B 4712  40.741  12.295   8.250
 3385POPC   C3B 4713  40.785  12.280   7.950
 3385POPC   C4B 4714  40.750  12.346   7.650
 3386POPC   NC3 4715  20.583  16.733   9.450
 3386POPC   PO4 4716  20.636  16.694   9.150
 3386POPC   GL1 4717  20.635  16.747   8.850
 3386POPC   GL2 4718  20.744  16.710   8.850
 3386POPC   C1A 4719  20.626  16.764   8.550
 3386POPC   D2A 4720  20.561  16.748   8.250
 3386POPC   C3A 4721  20.645  16.749   7.950
 3386POPC   C4A 4722  20.597  16.719   7.650
 3386POPC   C1B 4723  20.801  16.628   8.550
 3386POPC   C2B 4724  20.867  16.679   8.250
 3386POPC   C3B 4725  20.890  16.639   7.950
 3386POPC   C4B 4726  20.881  16.614   7.650
 3387POPC   NC3 4727  34.587  37.653   9.450
 3387POPC   PO4 4728  34.550  37.650   9.150
 3387POPC   GL1 4729  34.571  37.697   8.850
 3387POPC   GL2 4730  34.465  37.762   8.850
 3387POPC   C1A 4731  34.590  37.656   8.550
 3387POPC   D2A 4732  34.595  37.715   8.250
 3387POPC   C3A 4733  34.595  37.687   7.950
 3387POPC   C4A 4734  34.579  37.703   7.650
 3387POPC   C1B 4735  34.372  37.739   8.550
 3387POPC   C2B 4736  34.395  37.802   8.250
 3387POPC   C3B 4737  34.347  37.763   7.950
 3387POPC   C4B 4738  34.391  37.825   7.650
 3388POPC   NC3 4739   5.109  17.485   9.450
 3388POPC   PO4 4740   5.114  17.487   9.150
 3388POPC   GL1 4741   5.093  17.525   8.850
 3388POPC   GL2 4742   5.207  17.566   8.850
 3388POPC   C1A 4743   5.090  17.502   8.550
 3388POPC   D2A 4744   5.089  17.527   8.250
 3388POPC   C3A 4745   5.110  17.457   7.950
 3388POPC   C4A 4746   5.078  17.531   7.650
 3388POPC   C1B 4747   5.336  17.541   8.550
 3388POPC   C2B 4748   5.322  17.582   8.250
 3388POPC   C3B 4749   5.341  17.609   7.950
 3388POPC   C4B 4750   5.372  17.528   7.650
 3389POPC   NC3 4751   6.656  39.232   9.450
 3389POPC   PO4 4752   6.671  39.279   9.150
 3389POPC   GL1 4753   6.608  39.247   8.850
 3389POPC   GL2 4754   6.719  39.146   8.850
 3389POPC   C1A 4755   6.695  39.268   8.550
 3389POPC   D2A 4756   6.660  39.253   8.250
 3389POPC   C3A 4757   6.615  39.236   7.950
 3389POPC   C4A 4758   6.658  39.226   7.650
 3389POPC   C1B 4759   6.664  38.943   8.550
 3389POPC   C2B 4760   6.716  39.002   8.250
 3389POPC   C3B 4761   6.676  38.996   7.950
 3389POPC   C4B 4762   6.678  38.990   7.650
 3390POPC   NC3 4763   2.002  38.459   9.450
 3390POPC   PO4 4764   1.982  38.436   9.150
 3390POPC   GL1 4765   2.033  38.436   8.850
 3390POPC   GL2 4766   2.127  38.428   8.850
 3390POPC   C1A 4767   1.942  38.450   8.550
 3390POPC   D2A 4768   1.997  38.491   8.250
 3390POPC   C3A 4769   1.956  38.426   7.950
 3390POPC   C4A 4770   2.000  38.455   7.650
 3390POPC   C1B 4771   2.203  38.424   8.550
 3390POPC   C2B 4772   2.259  38.495   8.250
 3390POPC   C3B 4773   2.289  38.412   7.950
 3390POPC   C4B 4774   2.223  38.483   7.650
 3391POPC   NC3 4775  23.677  32.211   9.450
 3391POPC   PO4 4776  23.696  32.259   9.150
 3391POPC   GL1 4777  23.681  32.218   8.850
 3391POPC   GL2 4778  23.811  32.321   8.850
 3391POPC   C1A 4779  23.688  32.279   8.550
 3391POPC   D2A 4780  23.722  32.221   8.250
 3391POPC   C3A 4781  23.689  32.249   7.950
 3391POPC   C4A 4782  23.740  32.286   7.650
 3391POPC   C1B 4783  23.960  32.412   8.550
 3391POPC   C2B 4784  23.981  32.371   8.250
 3391POPC   C3B 4785  23.914  32.407   7.950
 3391POPC   C4B 4786  23.943  32.361   7.650
 3392POPC   NC3 4787  26.033  17.460   9.450
 3392POPC   PO4 4788  26.002  17.511   9.150
 3392POPC   GL1 4789  26.040  17.478   8.850
 3392POPC   GL2 4790  26.096  17.644   8.850
 3392POPC   C1A 4791  26.090  17.542   8.550
 3392POPC   D2A 4792  26.000  17.548   8.250
 3392POPC   C3A 4793  26.075  17.506   7.950
 3392POPC   C4A 4794  26.059  17.465   7.650
 3392POPC   C1B 4795  26.187  17.726   8.550
 3392POPC   C2B 4796  26.235  17.709   8.250
 3392POPC   C3B 4797  26.166  17.691   7.950
 3392POPC   C4B 4798  26.210  17.679   7.650
 3393POPC   NC3 4799  21.383  24.441   9.450
 3393POPC   PO4 4800  21.350  24.494   9.150
 3393POPC   GL1 4801  21.340  24.449   8.850
 3393POPC   GL2 4802  21.357  24.598   8.850
 3393POPC   C1A 4803  21.404  24.465   8.550
 3393POPC   D2A 4804  21.352  24.517   8.250
 3393POPC   C3A 4805  21.424  24.507   7.950
 3393POPC   C4A 4806  21.428  24.515   7.650
 3393POPC   C1B 4807  21.391  24.720   8.550
 3393POPC   C2B 4808  21.384  24.718   8.250
 3393POPC   C3B 4809  21.323  24.719   7.950
 3393POPC   C4B 4810  21.360  24.689   7.650
 3394POPC   NC3 4811   5.077  22.900   9.450
 3394POPC   PO4 4812   5.103  22.938   9.150
 3394POPC   GL1 4813   5.139  22.963   8.850
 3394POPC   GL2 4814   5.012  22.865   8.850
 3394POPC   C1A 4815   5.059  22.910   8.550
 3394POPC   D2A 4816   5.098  22.954   8.250
 3394POPC   C3A 4817   5.053  22.971   7.950
 3394POPC   C4A 4818   5.088  22.913   7.650
 3394POPC   C1B 4819   4.889  22.835   8.550
 3394POPC   C2B 4820   4.870  22.844   8.250
 3394POPC   C3B 4821   4.845  22.823   7.950
 3394POPC   C4B 4822   4.862  22.830   7.650
 3395POPC   NC3 4823  43.899  15.994   9.450
 3395POPC   PO4 4824  43.898  15.909   9.150
 3395POPC   GL1 4825  43.907  15.946   8.850
 3395POPC   GL2 4826  43.775  16.011   8.850
 3395POPC   C1A 4827  43.897  15.953   8.550
 3395POPC   D2A 4828  43.934  15.919   8.250
 3395POPC   C3A 4829  43.907  15.938   7.950
 3395POPC   C4A 4830  43.854  15.945   7.650
 3395POPC   C1B 4831  43.672  16.085   8.550
 3395POPC   C2B 4832  43.710  16.083   8.250
 3395POPC   C3B 4833  43.670  16.100   7.950
 3395POPC   C4B 4834  43.721  16.120   7.650
 3396POPC   NC3 4835   2.742  32.297   9.450
 3396POPC   PO4 4836   2.782  32.240   9.150
 3396POPC   GL1 4837   2.792  32.231   8.850
 3396POPC   GL2 4838   2.843  32.239   8.850
 3396POPC   C1A 4839   2.802  32.250   8.550
 3396POPC   D2A 4840   2.753  32.290   8.250
 3396POPC   C3A 4841   2.773  32.199   7.950
 3396POPC   C4A 4842   2.751  32.274   7.650
 3396POPC   C1B 4843   3.054  32.230   8.550
 3396POPC   C2B 4844   3.019  32.154   8.250
 3396POPC   C3B 4845   3.002  32.145   7.950
 3396POPC   C4B 4846   3.035  32.156   7.650
 3397POPC   NC3 4847  14.411   5.864   9.450
 3397POPC   PO4 4848  14.378   5.874   9.150
 3397POPC   GL1 4849  14.375   5.889   8.850
 3397POPC   GL2 4850  14.317   5.868   8.850
 3397POPC   C1A 4851  14.410   5.859   8.550
 3397POPC   D2A 4852  14.424   5.917   8.250
 3397POPC   C3A 4853  14.379   5.883   7.950
 3397POPC   C4A 4854  14.431   5.830   7.650
 3397POPC   C1B 4855  14.119   5.794   8.550
 3397POPC   C2B 4856  14.195   5.864   8.250
 3397POPC   C3B 4857  14.202   5.872   7.950
 3397POPC   C4B 4858  14.201   5.780   7.650
 3398POPC   NC3 4859   0.441  22.892   9.450
 3398POPC   PO4 4860   0.479  22.958   9.150
 3398POPC   GL1 4861   0.480  22.916   8.850
 3398POPC   GL2 4862   0.451  23.051   8.850
 3398POPC   C1A 4863   0.424  22.922   8.550
 3398POPC   D2A 4864   0.416  22.900   8.250
 3398POPC   C3A 4865   0.405  22.944   7.950
 3398POPC   C4A 4866   0.424  22.914   7.650
 3398POPC   C1B 4867   0.446  23.202   8.550
 3398POPC   C2B 4868   0.420  23.188   8.250
 3398POPC   C3B 4869   0.441  23.226   7.950
 3398POPC   C4B 4870   0.366  23.158   7.650
 3399POPC   NC3 4871  13.619  13.655   9.450
 3399POPC   PO4 4872  13.629  13.666   9.150
 3399POPC   GL1 4873  13.595  13.586   8.850
 3399POPC   GL2 4874  13.624  13.470   8.850
 3399POPC   C1A 4875  13.675  13.598   8.550
 3399POPC   D2A 4876  13.670  13.590   8.250
 3399POPC   C3A 4877  13.664  13.637   7.950
 3399POPC   C4A 4878  13.585  13.592   7.650
 3399POPC   C1B 4879  13.629  13.353   8.550
 3399POPC   C2B 4880  13.593  13.405   8.250
 3399POPC   C3B 4881  13.644  13.361   7.950
 3399POPC   C4B 4882  13.670  13.407   7.650
 3400POPC   NC3 4883  32.980  19.009   9.450
 3400POPC   PO4 4884  33.032  19.090   9.150
 3400POPC   GL1 4885  33.020  19.093   8.850
 3400POPC   GL2 4886  33.061  19.160   8.850
 3400POPC   C1A 4887  33.022  19.089   8.550
 3400POPC   D2A 4888  32.985  19.098   8.250
 3400POPC   C3A 4889  33.040  19.036   7.950
 3400POPC   C4A 4890  33.024  19.045   7.650
 3400POPC   C1B 4891  33.087  19.301   8.550
 3400POPC   C2B 4892  33.129  19.265   8.250
 3400POPC   C3B 4893  33.103  19.254   7.950
 3400POPC   C4B 4894  33.094  19.320   7.650
 3401POPC   NC3 4895  40.754   7.416   9.450
 3401POPC   PO4 4896  40.814   7.405   9.150
 3401POPC   GL1 4897  40.829   7.390   8.850
 3401POPC   GL2 4898  40.714   7.350   8.850
 3401POPC   C1A 4899  40.779   7.385   8.550
 3401POPC   D2A 4900  40.759   7.421   8.250
 3401POPC   C3A 4901  40.797   7.463   7.950
 3401POPC   C4A 4902  40.763   7.386   7.650
 3401POPC   C1B 4903  40.595   7.231   8.550
 3401POPC   C2B 4904  40.614   7.211   8.250
 3401POPC   C3B 4905  40.637   7.276   7.950
 3401POPC   C4B 4906  40.589   7.227   7.650
 3402POPC   NC3 4907   7.417  29.921   9.450
 3402POPC   PO4 4908   7.394  29.888   9.150
 3402POPC   GL1 4909   7.390  29.956   8.850
 3402POPC   GL2 4910   7.367  29.819   8.850
 3402POPC   C1A 4911   7.463  29.956   8.550
 3402POPC   D2A 4912   7.398  29.938   8.250
 3402POPC   C3A 4913   7.384  29.939   7.950
 3402POPC   C4A 4914   7.419  29.882   7.650
 3402POPC   C1B 4915   7.254  29.713   8.550
 3402POPC   C2B 4916   7.213  29.732   8.250
 3402POPC   C3B 4917   7.261  29.708   7.950
 3402POPC   C4B 4918   7.272  29.793   7.650
 3403POPC   NC3 4919   1.180  37.715   9.450
 3403POPC   PO4 4920   1.220  37.718   9.150
 3403POPC   GL1 4921   1.195  37.728   8.850
 3403POPC   GL2 4922   1.357  37.608   8.850
 3403POPC   C1A 4923   1.251  37.722   8.550
 3403POPC   D2A 4924   1.253  37.658   8.250
 3403POPC   C3A 4925   1.164  37.670   7.950
 3403POPC   C4A 4926   1.198  37.664   7.650
 3403POPC   C1B 4927   1.404  37.542   8.550
 3403POPC   C2B 4928   1.429  37.536   8.250
 3403POPC   C3B 4929   1.370  37.513   7.950
 3403POPC   C4B 4930   1.388  37.517   7.650
 3404POPC   NC3 4931  42.308   8.211   9.450
 3404POPC   PO4 4932  42.339   8.244   9.150
 3404POPC   GL1 4933  42.299   8.213   8.850
 3404POPC   GL2 4934  42.279   8.080   8.850
 3404POPC   C1A 4935  42.307   8.178   8.550
 3404POPC   D2A 4936  42.306   8.223   8.250
 3404POPC   C3A 4937  42.304   8.217   7.950
 3404POPC   C4A 4938  42.366   8.147   7.650
 3404POPC   C1B 4939  42.231   7.950   8.550
 3404POPC   C2B 4940  42.225   7.931   8.250
 3404POPC   C3B 4941  42.267   7.956   7.950
 3404POPC   C4B 4942  42.195   7.959   7.650
 3405POPC   NC3 4943  41.583  22.113   9.450
 3405POPC   PO4 4944  41.535  22.172   9.150
 3405POPC   GL1 4945  41.601  22.189   8.850
 3405POPC   GL2 4946  41.504  22.091   8.850
 3405POPC   C1A 4947  41.584  22.202   8.550
 3405POPC   D2A 4948  41.579  22.210   8.250
 3405POPC   C3A 4949  41.547  22.188   7.950
 3405POPC   C4A 4950  41.509  22.189   7.650
 3405POPC   C1B 4951  41.404  21.912   8.550
 3405POPC   C2B 4952  41.411  21.981   8.250
 3405POPC   C3B 4953  41.425  21.984   7.950
 3405POPC   C4B 4954  41.403  21.907   7.650
 3406POPC   NC3 4955  28.357  22.963   9.450
 3406POPC   PO4 4956  28.321  22.984   9.150
 3406POPC   GL1 4957  28.396  22.900   8.850
 3406POPC   GL2 4958  28.347  22.858   8.850
 3406POPC   C1A 4959  28.401  22.915   8.550
 3406POPC   D2A 4960  28.412  22.893   8.250
 3406POPC   C3A 4961  28.333  22.979   7.950
 3406POPC   C4A 4962  28.400  22.961   7.650
 3406POPC   C1B 4963  28.252  22.746   8.550
 3406POPC   C2B 4964  28.222  22.668   8.250
 3406POPC   C3B 4965  28.214  22.752   7.950
 3406POPC   C4B 4966  28.250  22.747   7.650
 3407POPC   NC3 4967   5.819  44.666   9.450
 3407POPC   PO4 4968   5.831  44.652   9.150
 3407POPC   GL1 4969   5.903  44.619   8.850
 3407POPC   GL2 4970   5.871  44.549   8.850
 3407POPC   C1A 4971   5.897  44.706   8.550
 3407POPC   D2A 4972   5.840  44.647   8.250
 3407POPC   C3A 4973   5.901  44.700   7.950
 3407POPC   C4A 4974   5.878  44.650   7.650
 3407POPC   C1B 4975   5.794  44.449   8.550
 3407POPC   C2B 4976   5.839  44.450   8.250
 3407POPC   C3B 4977   5.849  44.436   7.950
 3407POPC   C4B 4978   5.803  44.439   7.650
 3408POPC   NC3 4979  13.673  34.532   9.450
 3408POPC   PO4 4980  13.622  34.548   9.150
 3408POPC   GL1 4981  13.668  34.617   8.850
 3408POPC   GL2 4982  13.739  34.537   8.850
 3408POPC   C1A 4983  13.626  34.547   8.550
 3408POPC   D2A 4984  13.582  34.602   8.250
 3408POPC   C3A 4985  13.673  34.581   7.950
 3408POPC   C4A 4986  13.616  34.605   7.650
 3408POPC   C1B 4987  13.876  34.465   8.550
 3408POPC   C2B 4988  13.878  34.428   8.250
 3408POPC   C3B 4989  13.844  34.436   7.950
 3408POPC   C4B 4990  13.795  34.439   7.650
 3409POPC   NC3 4991  44.650   2.814   9.450
 3409POPC   PO4 4992  44.650   2.767   9.150
 3409POPC   GL1 4993  44.674   2.743   8.850
 3409POPC   GL2 4994  44.673   2.681   8.850
 3409POPC   C1A 4995  44.632   2.775   8.550
 3409POPC   D2A 4996  44.667   2.760   8.250
 3409POPC   C3A 4997  44.689   2.764   7.950
 3409POPC   C4A 4998  44.710   2.788   7.650
 3409POPC   C1B 4999  44.666   2.533   8.550
 3409POPC   C2B 5000  44.661   2.471   8.250
 3409POPC   C3B 5001  44.631   2.499   7.950
 3409POPC   C4B 5002  44.712   2.541   7.650
 3410POPC   NC3 5003  23.750  21.337   9.450
 3410POPC   PO4 5004  23.707  21.434   9.150
 3410POPC   GL1 5005  23.699  21.394   8.850
 3410POPC   GL2 5006  23.631  21.362   8.850
 3410POPC   C1A 5007  23.709  21.400   8.550
 3410POPC   D2A 5008  23.681  21.371   8.250
 3410POPC   C3A 5009  23.749  21.428   7.950
 3410POPC   C4A 5010  23.728  21.419   7.650
 3410POPC   C1B 5011  23.462  21.303   8.550
 3410POPC   C2B 5012  23.508  21.267   8.250
 3410POPC   C3B 5013  23.509  21.277   7.950
 3410POPC   C4B 5014  23.496  21.321   7.650
 3411POPC   NC3 5015  39.186  26.790   9.450
 3411POPC   PO4 5016  39.245  26.845   9.150
 3411POPC   GL1 5017  39.216  26.857   8.850
 3411POPC   GL2 5018  39.272  26.714   8.850
 3411POPC   C1A 5019  39.261  26.779   8.550
 3411POPC   D2A 5020  39.209  26.806   8.250
 3411POPC   C3A 5021  39.248  26.803   7.950
 3411POPC   C4A 5022  39.215  26.800   7.650
 3411POPC   C1B 5023  39.250  26.607   8.550
 3411POPC   C2B 5024  39.242  26.536   8.250
 3411POPC   C3B 5025  39.305  26.599   7.950
 3411POPC   C4B 5026  39.227  26.584   7.650
 3412POPC   NC3 5027   9.730  41.535   9.450
 3412POPC   PO4 5028   9.743  41.540   9.150
 3412POPC   GL1 5029   9.752  41.576   8.850
 3412POPC   GL2 5030   9.827  41.660   8.850
 3412POPC   C1A 5031   9.716  41.520   8.550
 3412POPC   D2A 5032   9.768  41.535   8.250
 3412POPC   C3A 5033   9.781  41.517   7.950
 3412POPC   C4A 5034   9.770  41.574   7.650
 3412POPC   C1B 5035   9.838  41.736   8.550
 3412POPC   C2B 5036   9.878  41.738   8.250
 3412POPC   C3B 5037   9.899  41.769   7.950
 3412POPC   C4B 5038   9.847  41.750   7.650
 3413POPC   NC3 5039  25.220  32.224   9.450
 3413POPC   PO4 5040  25.217  32.203   9.150
 3413POPC   GL1 5041  25.236  32.237   8.850
 3413POPC   GL2 5042  25.396  32.267   8.850
 3413POPC   C1A 5043  25.275  32.297   8.550
 3413POPC   D2A 5044  25.283  32.241   8.250
 3413POPC   C3A 5045  25.296  32.294   7.950
 3413POPC   C4A 5046  25.254  32.206   7.650
 3413POPC   C1B 5047  25.527  32.233   8.550
 3413POPC   C2B 5048  25.560  32.210   8.250
 3413POPC   C3B 5049  25.555  32.260   7.950
 3413POPC   C4B 5050  25.482  32.185   7.650
 3414POPC   NC3 5051  11.272  36.915   9.450
 3414POPC   PO4 5052  11.282  36.945   9.150
 3414POPC   GL1 5053  11.256  36.933   8.850
 3414POPC   GL2 5054  11.365  36.893   8.850
 3414POPC   C1A 5055  11.275  36.940   8.550
 3414POPC   D2A 5056  11.286  36.944   8.250
 3414POPC   C3A 5057  11.349  36.946   7.950
 3414POPC   C4A 5058  11.343  36.895   7.650
 3414POPC   C1B 5059  11.564  36.815   8.550
 3414POPC   C2B 5060  11.482  36.830   8.250
 3414POPC   C3B 5061  11.500  36.805   7.950
 3414POPC   C4B 5062  11.563  36.834   7.650
 3415POPC   NC3 5063  36.907  11.292   9.450
 3415POPC   PO4 5064  36.866  11.251   9.150
 3415POPC   GL1 5065  36.946  11.318   8.850
 3415POPC   GL2 5066  36.936  11.421   8.850
 3415POPC   C1A 5067  36.909  11.348   8.550
 3415POPC   D2A 5068  36.878  11.350   8.250
 3415POPC   C3A 5069  36.946  11.334   7.950
 3415POPC   C4A 5070  36.949  11.319   7.650
 3415POPC   C1B 5071  36.962  11.591   8.550
 3415POPC   C2B 5072  36.880  11.556   8.250
 3415POPC   C3B 5073  36.973  11.526   7.950
 3415POPC   C4B 5074  36.932  11.524   7.650
 3416POPC   NC3 5075  43.924   9.718   9.450
 3416POPC   PO4 5076  43.890   9.740   9.150
 3416POPC   GL1 5077  43.928   9.798   8.850
 3416POPC   GL2 5078  43.714   9.748   8.850
 3416POPC   C1A 5079  43.919   9.780   8.550
 3416POPC   D2A 5080  43.902   9.753   8.250
 3416POPC   C3A 5081  43.898   9.770   7.950
 3416POPC   C4A 5082  43.917   9.729   7.650
 3416POPC   C1B 5083  43.611   9.708   8.550
 3416POPC   C2B 5084  43.644   9.684   8.250
 3416POPC   C3B 5085  43.628   9.669   7.950
 3416POPC   C4B 5086  43.642   9.661   7.650
 3417POPC   NC3 5087  36.877  36.925   9.450
 3417POPC   PO4 5088  36.864  36.947   9.150
 3417POPC   GL1 5089  36.854  36.876   8.850
 3417POPC   GL2 5090  37.059  36.950   8.850
 3417POPC   C1A 5091  36.886  36.855   8.550
 3417POPC   D2A 5092  36.922  36.926   8.250
 3417POPC   C3A 5093  36.870  36.883   7.950
 3417POPC   C4A 5094  36.896  36.878   7.650
 3417POPC   C1B 5095  37.176  37.031   8.550
 3417POPC   C2B 5096  37.116  36.973   8.250
 3417POPC   C3B 5097  37.134  36.998   7.950
 3417POPC   C4B 5098  37.123  37.010   7.650
 3418POPC   NC3 5099  22.185  22.184   9.450
 3418POPC   PO4 5100  22.176  22.122   9.150
 3418POPC   GL1 5101  22.190  22.157   8.850
 3418POPC   GL2 5102  22.303  22.087   8.850
 3418POPC   C1A 5103  22.160  22.114   8.550
 3418POPC   D2A 5104  22.180  22.163   8.250
 3418POPC   C3A 5105  22.158  22.136   7.950
 3418POPC   C4A 5106  22.180  22.190   7.650
 3418POPC   C1B 5107  22.349  22.046   8.550
 3418POPC   C2B 5108  22.436  22.047   8.250
 3418POPC   C3B 5109  22.406  22.043   7.950
 3418POPC   C4B 5110  22.393  22.099   7.650
 3419POPC   NC3 5111  37.713  27.546   9.450
 3419POPC   PO4 5112  37.650  27.641   9.150
 3419POPC   GL1 5113  37.656  27.577   8.850
 3419POPC   GL2 5114  37.711  27.723   8.850
 3419POPC   C1A 5115  37.644  27.550   8.550
 3419POPC   D2A 5116  37.704  27.639   8.250
 3419POPC   C3A 5117  37.719  27.606   7.950
 3419POPC   C4A 5118  37.682  27.594   7.650
 3419POPC   C1B 5119  37.777  27.811   8.550
 3419POPC   C2B 5120  37.846  27.845   8.250
 3419POPC   C3B 5121  37.796  27.824   7.950
 3419POPC   C4B 5122  37.840  27.784   7.650
 3420POPC   NC3 5123  42.348  43.878   9.450
 3420POPC   PO4 5124  42.362  43.933   9.150
 3420POPC   GL1 5125  42.329  43.889   8.850
 3420POPC   GL2 5126  42.363  44.033   8.850
 3420POPC   C1A 5127  42.291  43.929   8.550
 3420POPC   D2A 5128  42.326  43.917   8.250
 3420POPC   C3A 5129  42.303  43.885   7.950
 3420POPC   C4A 5130  42.348  43.916   7.650
 3420POPC   C1B 5131  42.331  44.118   8.550
 3420POPC   C2B 5132  42.288  44.165   8.250
 3420POPC   C3B 5133  42.290  44.100   7.950
 3420POPC   C4B 5134  42.357  44.106   7.650
 3421POPC   NC3 5135  12.899  24.479   9.450
 3421POPC   PO4 5136  12.805  24.473   9.150
 3421POPC   GL1 5137  12.866  24.442   8.850
 3421POPC   GL2 5138  12.865  24.320   8.850
 3421POPC   C1A 5139  12.877  24.455   8.550
 3421POPC   D2A 5140  12.886  24.466   8.250
 3421POPC   C3A 5141  12.831  24.521   7.950
 3421POPC   C4A 5142  12.847  24.453   7.650
 3421POPC   C1B 5143  12.861  24.259   8.550
 3421POPC   C2B 5144  12.800  24.255   8.250
 3421POPC   C3B 5145  12.780  24.285   7.950
 3421POPC   C4B 5146  12.863  24.232   7.650
 3422POPC   NC3 5147   5.821  22.193   9.450
 3422POPC   PO4 5148   5.863  22.208   9.150
 3422POPC   GL1 5149   5.914  22.145   8.850
 3422POPC   GL2 5150   5.992  22.140   8.850
 3422POPC   C1A 5151   5.900  22.209   8.550
 3422POPC   D2A 5152   5.856  22.148   8.250
 3422POPC   C3A 5153   5.840  22.197   7.950
 3422POPC   C4A 5154   5.826  22.120   7.650
 3422POPC   C1B 5155   6.071  22.246   8.550
 3422POPC   C2B 5156   6.115  22.203   8.250
 3422POPC   C3B 5157   6.114  22.250   7.950
 3422POPC   C4B 5158   6.077  22.229   7.650
 3423POPC   NC3 5159  43.855  23.696   9.450
 3423POPC   PO4 5160  43.881  23.710   9.150
 3423POPC   GL1 5161  43.903  23.666   8.850
 3423POPC   GL2 5162  43.732  23.644   8.850
 3423POPC   C1A 5163  43.927  23.691   8.550
 3423POPC   D2A 5164  43.847  23.720   8.250
 3423POPC   C3A 5165  43.917  23.723   7.950
 3423POPC   C4A 5166  43.890  23.721   7.650
 3423POPC   C1B 5167  43.664  23.652   8.550
 3423POPC   C2B 5168  43.638  23.607   8.250
 3423POPC   C3B 5169  43.640  23.596   7.950
 3423POPC   C4B 5170  43.671  23.582   7.650
 3424POPC   NC3 5171  27.635   1.940   9.450
 3424POPC   PO4 5172  27.613   1.976   9.150
 3424POPC   GL1 5173  27.614   2.003   8.850
 3424POPC   GL2 5174  27.477   2.062   8.850
 3424POPC   C1A 5175  27.572   2.002   8.550
 3424POPC   D2A 5176  27.607   2.024   8.250
 3424POPC   C3A 5177  27.608   2.000   7.950
 3424POPC   C4A 5178  27.594   1.983   7.650
 3424POPC   C1B 5179  27.387   2.140   8.550
 3424POPC   C2B 5180  27.377   2.191   8.250
 3424POPC   C3B 5181  27.398   2.187   7.950
 3424POPC   C4B 5182  27.380   2.132   7.650
 3425POPC   NC3 5183  23.725  19.014   9.450
 3425POPC   PO4 5184  23.742  19.053   9.150
 3425POPC   GL1 5185  23.750  19.092   8.850
 3425POPC   GL2 5186  23.546  19.105   8.850
 3425POPC   C1A 5187  23.707  19.075   8.550
 3425POPC   D2A 5188  23.706  19.037   8.250
 3425POPC   C3A 5189  23.722  19.017   7.950
 3425POPC   C4A 5190  23.740  19.023   7.650
 3425POPC   C1B 5191  23.493  19.188   8.550
 3425POPC   C2B 5192  23.525  19.166   8.250
 3425POPC   C3B 5193  23.469  19.133   7.950
 3425POPC   C4B 5194  23.458  19.117   7.650
 3426POPC   NC3 5195  33.040  15.192   9.450
 3426POPC   PO4 5196  33.042  15.155   9.150
 3426POPC   GL1 5197  33.064  15.155   8.850
 3426POPC   GL2 5198  32.885  15.105   8.850
 3426POPC   C1A 5199  33.021  15.163   8.550
 3426POPC   D2A 5200  32.982  15.205   8.250
 3426POPC   C3A 5201  32.990  15.156   7.950
 3426POPC   C4A 5202  33.025  15.212   7.650
 3426POPC   C1B 5203  32.810  15.115   8.550
 3426POPC   C2B 5204  32.788  15.093   8.250
 3426POPC   C3B 5205  32.777  15.081   7.950
 3426POPC   C4B 5206  32.749  15.143   7.650
 3427POPC   NC3 5207  35.374  40.733   9.450
 3427POPC   PO4 5208  35.386  40.800   9.150
 3427POPC   GL1 5209  35.399  40.806   8.850
 3427POPC   GL2 5210  35.434  40.677   8.850
 3427POPC   C1A 5211  35.326  40.785   8.550
 3427POPC   D2A 5212  35.303  40.796   8.250
 3427POPC   C3A 5213  35.339  40.792   7.950
 3427POPC   C4A 5214  35.344  40.783   7.650
 3427POPC   C1B 5215  35.544  40.590   8.550
 3427POPC   C2B 5216  35.516  40.673   8.250
 3427POPC   C3B 5217  35.549  40.672   7.950
 3427POPC   C4B 5218  35.542  40.600   7.650
 3428POPC   NC3 5219  34.563   8.949   9.450
 3428POPC   PO4 5220  34.582   8.984   9.150
 3428POPC   GL1 5221  34.559   8.946   8.850
 3428POPC   GL2 5222  34.475   8.960   8.850
 3428POPC   C1A 5223  34.581   9.017   8.550
 3428POPC   D2A 5224  34.600   8.923   8.250
 3428POPC   C3A 5225  34.566   8.975   7.950
 3428POPC   C4A 5226  34.577   8.965   7.650
 3428POPC   C1B 5227  34.352   9.020   8.550
 3428POPC   C2B 5228  34.347   8.984   8.250
 3428POPC   C3B 5229  34.286   8.997   7.950
 3428POPC   C4B 5230  34.320   8.960   7.650
 3429POPC   NC3 5231  36.880   7.397   9.450
 3429POPC   PO4 5232  36.900   7.378   9.150
 3429POPC   GL1 5233  36.888   7.427   8.850
 3429POPC   GL2 5234  36.934   7.318   8.850
 3429POPC   C1A 5235  36.869   7.427   8.550
 3429POPC   D2A 5236  36.883   7.433   8.250
 3429POPC   C3A 5237  36.937   7.450   7.950
 3429POPC   C4A 5238  36.859   7.443   7.650
 3429POPC   C1B 5239  36.965   7.234   8.550
 3429POPC   C2B 5240  37.019   7.203   8.250
 3429POPC   C3B 5241  36.976   7.177   7.950
 3429POPC   C4B 5242  37.050   7.236   7.650
 3430POPC   NC3 5243  40.023  16.688   9.450
 3430POPC   PO4 5244  40.006  16.723   9.150
 3430POPC   GL1 5245  40.030  16.767   8.850
 3430POPC   GL2 5246  40.109  16.794   8.850
 3430POPC   C1A 5247  40.024  16.715   8.550
 3430POPC   D2A 5248  39.987  16.780   8.250
 3430POPC   C3A 5249  40.004  16.748   7.950
 3430POPC   C4A 5250  39.975  16.726   7.650
 3430POPC   C1B 5251  40.287  16.843   8.550
 3430POPC   C2B 5252  40.274  16.840   8.250
 3430POPC   C3B 5253  40.213  16.813   7.950
 3430POPC   C4B 5254  40.217  16.864   7.650
 3431POPC   NC3 5255  13.578   0.474   9.450
 3431POPC   PO4 5256  13.660   0.406   9.150
 3431POPC   GL1 5257  13.668   0.464   8.850
 3431POPC   GL2 5258  13.484   0.375   8.850
 3431POPC   C1A 5259  13.615   0.448   8.550
 3431POPC   D2A 5260  13.590   0.481   8.250
 3431POPC   C3A 5261  13.661   0.458   7.950
 3431POPC   C4A 5262  13.580   0.393   7.650
 3431POPC   C1B 5263  13.411   0.282   8.550
 3431POPC   C2B 5264  13.434   0.244   8.250
 3431POPC   C3B 5265  13.435   0.238   7.950
 3431POPC   C4B 5266  13.432   0.282   7.650
 3432POPC   NC3 5267  34.542   7.452   9.450
 3432POPC   PO4 5268  34.597   7.385   9.150
 3432POPC   GL1 5269  34.530   7.452   8.850
 3432POPC   GL2 5270  34.681   7.485   8.850
 3432POPC   C1A 5271  34.539   7.390   8.550
 3432POPC   D2A 5272  34.590   7.451   8.250
 3432POPC   C3A 5273  34.591   7.453   7.950
 3432POPC   C4A 5274  34.619   7.464   7.650
 3432POPC   C1B 5275  34.790   7.610   8.550
 3432POPC   C2B 5276  34.769   7.592   8.250
 3432POPC   C3B 5277  34.751   7.584   7.950
 3432POPC   C4B 5278  34.772   7.636   7.650
 3433POPC   NC3 5279  35.386  22.122   9.450
 3433POPC   PO4 5280  35.378  22.206   9.150
 3433POPC   GL1 5281  35.310  22.194   8.850
 3433POPC   GL2 5282  35.409  21.994   8.850
 3433POPC   C1A 5283  35.357  22.123   8.550
 3433POPC   D2A 5284  35.316  22.177   8.250
 3433POPC   C3A 5285  35.357  22.116   7.950
 3433POPC   C4A 5286  35.371  22.188   7.650
 3433POPC   C1B 5287  35.340  21.869   8.550
 3433POPC   C2B 5288  35.413  21.904   8.250
 3433POPC   C3B 5289  35.392  21.887   7.950
 3433POPC   C4B 5290  35.349  21.929   7.650
 3434POPC   NC3 5291   0.451  42.347   9.450
 3434POPC   PO4 5292   0.477  42.376   9.150
 3434POPC   GL1 5293   0.393  42.306   8.850
 3434POPC   GL2 5294   0.388  42.246   8.850
 3434POPC   C1A 5295   0.407  42.327   8.550
 3434POPC   D2A 5296   0.449  42.367   8.250
 3434POPC   C3A 5297   0.398  42.288   7.950
 3434POPC   C4A 5298   0.394  42.374   7.650
 3434POPC   C1B 5299   0.322  42.119   8.550
 3434POPC   C2B 5300   0.326  42.051   8.250
 3434POPC   C3B 5301   0.335  42.079   7.950
 3434POPC   C4B 5302   0.344  42.049   7.650
 3435POPC   NC3 5303  12.873  13.586   9.450
 3435POPC   PO4 5304  12.815  13.639   9.150
 3435POPC   GL1 5305  12.874  13.646   8.850
 3435POPC   GL2 5306  12.979  13.638   8.850
 3435POPC   C1A 5307  12.855  13.604   8.550
 3435POPC   D2A 5308  12.889  13.678   8.250
 3435POPC   C3A 5309  12.833  13.670   7.950
 3435POPC   C4A 5310  12.886  13.640   7.650
 3435POPC   C1B 5311  13.048  13.732   8.550
 3435POPC   C2B 5312  13.129  13.673   8.250
 3435POPC   C3B 5313  13.122  13.704   7.950
 3435POPC   C4B 5314  13.102  13.699   7.650
 3436POPC   NC3 5315  12.896   6.669   9.450
 3436POPC   PO4 5316  12.814   6.652   9.150
 3436POPC   GL1 5317  12.871   6.617   8.850
 3436POPC   GL2 5318  12.928   6.671   8.850
 3436POPC   C1A 5319  12.860   6.677   8.550
 3436POPC   D2A 5320  12.864   6.613   8.250
 3436POPC   C3A 5321  12.886   6.659   7.950
 3436POPC   C4A 5322  12.841   6.691   7.650
 3436POPC   C1B 5323  13.114   6.742   8.550
 3436POPC   C2B 5324  13.102   6.757   8.250
 3436POPC   C3B 5325  13.126   6.734   7.950
 3436POPC   C4B 5326  13.107   6.733   7.650
 3437POPC   NC3 5327  11.322  39.979   9.450
 3437POPC   PO4 5328  11.265  39.999   9.150
 3437POPC   GL1 5329  11.326  39.994   8.850
 3437POPC   GL2 5330  11.224  40.050   8.850
 3437POPC   C1A 5331  11.268  39.981   8.550
 3437POPC   D2A 5332  11.285  40.008   8.250
 3437POPC   C3A 5333  11.348  40.014   7.950
 3437POPC   C4A 5334  11.257  40.033   7.650
 3437POPC   C1B 5335  11.008  39.979   8.550
 3437POPC   C2B 5336  11.039  39.994   8.250
 3437POPC   C3B 5337  11.055  40.044   7.950
 3437POPC   C4B 5338  11.037  39.988   7.650
 3438POPC   NC3 5339   8.233  42.349   9.450
 3438POPC   PO4 5340   8.211  42.317   9.150
 3438POPC   GL1 5341   8.239  42.376   8.850
 3438POPC   GL2 5342   8.132  42.217   8.850
 3438POPC   C1A 5343   8.207  42.333   8.550
 3438POPC   D2A 5344   8.177  42.288   8.250
 3438POPC   C3A 5345   8.216  42.365   7.950
 3438POPC   C4A 5346   8.242  42.302   7.650
 3438POPC   C1B 5347   7.965  42.140   8.550
 3438POPC   C2B 5348   7.996  42.180   8.250
 3438POPC   C3B 5349   7.987  42.167   7.950
 3438POPC   C4B 5350   8.045  42.216   7.650
 3439POPC   NC3 5351   2.806  19.812   9.450
 3439POPC   PO4 5352   2.790  19.816   9.150
 3439POPC   GL1 5353   2.751  19.812   8.850
 3439POPC   GL2 5354   2.756  19.733   8.850
 3439POPC   C1A 5355   2.815  19.793   8.550
 3439POPC   D2A 5356   2.805  19.836   8.250
 3439POPC   C3A 5357   2.792  19.877   7.950
 3439POPC   C4A 5358   2.766  19.827   7.650
 3439POPC   C1B 5359   2.845  19.569   8.550
 3439POPC   C2B 5360   2.865  19.576   8.250
 3439POPC   C3B 5361   2.876  19.630   7.950
 3439POPC   C4B 5362   2.884  19.626   7.650
 3440POPC   NC3 5363   8.154  40.787   9.450
 3440POPC   PO4 5364   8.186  40.796   9.150
 3440POPC   GL1 5365   8.203  40.811   8.850
 3440POPC   GL2 5366   8.355  40.731   8.850
 3440POPC   C1A 5367   8.180  40.787   8.550
 3440POPC   D2A 5368   8.157  40.737   8.250
 3440POPC   C3A 5369   8.219  40.775   7.950
 3440POPC   C4A 5370   8.172  40.746   7.650
 3440POPC   C1B 5371   8.394  40.683   8.550
 3440POPC   C2B 5372   8.398  40.677   8.250
 3440POPC   C3B 5373   8.426  40.651   7.950
 3440POPC   C4B 5374   8.401  40.717   7.650
 3441POPC   NC3 5375  15.213  29.136   9.450
 3441POPC   PO4 5376  15.163  29.177   9.150
 3441POPC   GL1 5377  15.173  29.101   8.850
 3441POPC   GL2 5378  15.340  29.151   8.850
 3441POPC   C1A 5379  15.207  29.101   8.550
 3441POPC   D2A 5380  15.176  29.143   8.250
 3441POPC   C3A 5381  15.219  29.146   7.950
 3441POPC   C4A 5382  15.210  29.183   7.650
 3441POPC   C1B 5383  15.437  29.179   8.550
 3441POPC   C2B 5384  15.413  29.262   8.250
 3441POPC   C3B 5385  15.458  29.240   7.950
 3441POPC   C4B 5386  15.433  29.191   7.650
 3442POPC   NC3 5387  20.580  39.964   9.450
 3442POPC   PO4 5388  20.599  40.034   9.150
 3442POPC   GL1 5389  20.629  39.974   8.850
 3442POPC   GL2 5390  20.547  40.118   8.850
 3442POPC   C1A 5391  20.625  40.016   8.550
 3442POPC   D2A 5392  20.563  39.974   8.250
 3442POPC   C3A 5393  20.569  39.960   7.950
 3442POPC   C4A 5394  20.623  40.054   7.650
 3442POPC   C1B 5395  20.451  40.211   8.550
 3442POPC   C2B 5396  20.413  40.243   8.250
 3442POPC   C3B 5397  20.454  40.194   7.950
 3442POPC   C4B 5398  20.431  40.189   7.650
 3443POPC   NC3 5399  15.199  24.442   9.450
 3443POPC   PO4 5400  15.210  24.445   9.150
 3443POPC   GL1 5401  15.220  24.491   8.850
 3443POPC   GL2 5402  15.062  24.530   8.850
 3443POPC   C1A 5403  15.155  24.441   8.550
 3443POPC   D2A 5404  15.169  24.485   8.250
 3443POPC   C3A 5405  15.213  24.473   7.950
 3443POPC   C4A 5406  15.142  24.534   7.650
 3443POPC   C1B 5407  14.908  24.434   8.550
 3443POPC   C2B 5408  14.910  24.451   8.250
 3443POPC   C3B 5409  14.884  24.458   7.950
 3443POPC   C4B 5410  14.887  24.482   7.650
 3444POPC   NC3 5411  24.456  39.195   9.450
 3444POPC   PO4 5412  24.469  39.247   9.150
 3444POPC   GL1 5413  24.470  39.200   8.850
 3444POPC   GL2 5414  24.454  39.345   8.850
 3444POPC   C1A 5415  24.445  39.222   8.550
 3444POPC   D2A 5416  24.447  39.192   8.250
 3444POPC   C3A 5417  24.503  39.194   7.950
 3444POPC   C4A 5418  24.515  39.274   7.650
 3444POPC   C1B 5419  24.375  39.451   8.550
 3444POPC   C2B 5420  24.333  39.433   8.250
 3444POPC   C3B 5421  24.396  39.492   7.950
 3444POPC   C4B 5422  24.386  39.405   7.650
 3445POPC   NC3 5423   9.751  30.717   9.450
 3445POPC   PO4 5424   9.734  30.710   9.150
 3445POPC   GL1 5425   9.791  30.708   8.850
 3445POPC   GL2 5426   9.852  30.574   8.850
 3445POPC   C1A 5427   9.761  30.737   8.550
 3445POPC   D2A 5428   9.706  30.660   8.250
 3445POPC   C3A 5429   9.700  30.708   7.950
 3445POPC   C4A 5430   9.778  30.732   7.650
 3445POPC   C1B 5431   9.874  30.498   8.550
 3445POPC   C2B 5432   9.886  30.543   8.250
 3445POPC   C3B 5433   9.889  30.545   7.950
 3445POPC   C4B 5434   9.952  30.476   7.650
 3446POPC   NC3 5435  12.850  25.246   9.450
 3446POPC   PO4 5436  12.808  25.301   9.150
 3446POPC   GL1 5437  12.871  25.217   8.850
 3446POPC   GL2 5438  12.930  25.140   8.850
 3446POPC   C1A 5439  12.881  25.285   8.550
 3446POPC   D2A 5440  12.826  25.253   8.250
 3446POPC   C3A 5441  12.900  25.306   7.950
 3446POPC   C4A 5442  12.834  25.296   7.650
 3446POPC   C1B 5443  12.945  25.102   8.550
 3446POPC   C2B 5444  12.955  25.065   8.250
 3446POPC   C3B 5445  12.971  25.090   7.950
 3446POPC   C4B 5446  12.970  25.098   7.650
 3447POPC   NC3 5447   6.646  30.648   9.450
 3447POPC   PO4 5448   6.603  30.735   9.150
 3447POPC   GL1 5449   6.622  30.711   8.850
 3447POPC   GL2 5450   6.541  30.730   8.850
 3447POPC   C1A 5451   6.599  30.716   8.550
 3447POPC   D2A 5452   6.672  30.672   8.250
 3447POPC   C3A 5453   6.685  30.699   7.950
 3447POPC   C4A 5454   6.670  30.707   7.650
 3447POPC   C1B 5455   6.449  30.740   8.550
 3447POPC   C2B 5456   6.412  30.816   8.250
 3447POPC   C3B 5457   6.443  30.794   7.950
 3447POPC   C4B 5458   6.449  30.747   7.650
 3448POPC   NC3 5459  42.311  26.775   9.450
 3448POPC   PO4 5460  42.285  26.772   9.150
 3448POPC   GL1 5461  42.307  26.820   8.850
 3448POPC   GL2 5462  42.269  26.888   8.850
 3448POPC   C1A 5463  42.320  26.856   8.550
 3448POPC   D2A 5464  42.292  26.810   8.250
 3448POPC   C3A 5465  42.297  26.842   7.950
 3448POPC   C4A 5466  42.323  26.828   7.650
 3448POPC   C1B 5467  42.241  27.057   8.550
 3448POPC   C2B 5468  42.193  27.028   8.250
 3448POPC   C3B 5469  42.241  27.055   7.950
 3448POPC   C4B 5470  42.191  27.020   7.650
 3449POPC   NC3 5471  39.958  11.275   9.450
 3449POPC   PO4 5472  39.959  11.284   9.150
 3449POPC   GL1 5473  40.042  11.264   8.850
 3449POPC   GL2 5474  39.928  11.209   8.850
 3449POPC   C1A 5475  40.041  11.252   8.550
 3449POPC   D2A 5476  40.032  11.259   8.250
 3449POPC   C3A 5477  39.972  11.263   7.950
 3449POPC   C4A 5478  40.016  11.270   7.650
 3449POPC   C1B 5479  39.730  11.181   8.550
 3449POPC   C2B 5480  39.736  11.181   8.250
 3449POPC   C3B 5481  39.766  11.186   7.950
 3449POPC   C4B 5482  39.795  11.227   7.650
 3450POPC   NC3 5483  40.029  20.655   9.450
 3450POPC   PO4 5484  39.976  20.654   9.150
 3450POPC   GL1 5485  39.963  20.654   8.850
 3450POPC   GL2 5486  39.897  20.571   8.850
 3450POPC   C1A 5487  39.964  20.610   8.550
 3450POPC   D2A 5488  39.990  20.597   8.250
 3450POPC   C3A 5489  39.973  20.636   7.950
 3450POPC   C4A 5490  40.025  20.592   7.650
 3450POPC   C1B 5491  39.861  20.406   8.550
 3450POPC   C2B 5492  39.833  20.450   8.250
 3450POPC   C3B 5493  39.817  20.477   7.950
 3450POPC   C4B 5494  39.825  20.465   7.650
 3451POPC   NC3 5495  40.779  33.789   9.450
 3451POPC   PO4 5496  40.807  33.837   9.150
 3451POPC   GL1 5497  40.739  33.776   8.850
 3451POPC   GL2 5498  40.679  33.872   8.850
 3451POPC   C1A 5499  40.806  33.806   8.550
 3451POPC   D2A 5500  40.817  33.833   8.250
 3451POPC   C3A 5501  40.769  33.831   7.950
 3451POPC   C4A 5502  40.740  33.803   7.650
 3451POPC   C1B 5503  40.710  34.061   8.550
 3451POPC   C2B 5504  40.663  33.985   8.250
 3451POPC   C3B 5505  40.675  34.061   7.950
 3451POPC   C4B 5506  40.698  33.982   7.650
 3452POPC   NC3 5507  18.326  41.579   9.450
 3452POPC   PO4 5508  18.278  41.587   9.150
 3452POPC   GL1 5509  18.251  41.509   8.850
 3452POPC   GL2 5510  18.408  41.620   8.850
 3452POPC   C1A 5511  18.283  41.586   8.550
 3452POPC   D2A 5512  18.272  41.569   8.250
 3452POPC   C3A 5513  18.305  41.528   7.950
 3452POPC   C4A 5514  18.254  41.548   7.650
 3452POPC   C1B 5515  18.494  41.595   8.550
 3452POPC   C2B 5516  18.542  41.570   8.250
 3452POPC   C3B 5517  18.497  41.645   7.950
 3452POPC   C4B 5518  18.546  41.662   7.650
 3453POPC   NC3 5519  27.596  24.473   9.450
 3453POPC   PO4 5520  27.613  24.496   9.150
 3453POPC   GL1 5521  27.574  24.506   8.850
 3453POPC   GL2 5522  27.593  24.365   8.850
 3453POPC   C1A 5523  27.635  24.472   8.550
 3453POPC   D2A 5524  27.585  24.512   8.250
 3453POPC   C3A 5525  27.550  24.448   7.950
 3453POPC   C4A 5526  27.616  24.455   7.650
 3453POPC   C1B 5527  27.544  24.252   8.550
 3453POPC   C2B 5528  27.574  24.228   8.250
 3453POPC   C3B 5529  27.558  24.199   7.950
 3453POPC   C4B 5530  27.541  24.192   7.650
 3454POPC   NC3 5531  15.161  31.481   9.450
 3454POPC   PO4 5532  15.161  31.522   9.150
 3454POPC   GL1 5533  15.164  31.474   8.850
 3454POPC   GL2 5534  15.249  31.626   8.850
 3454POPC   C1A 5535  15.175  31.477   8.550
 3454POPC   D2A 5536  15.142  31.521   8.250
 3454POPC   C3A 5537  15.201  31.433   7.950
 3454POPC   C4A 5538  15.193  31.435   7.650
 3454POPC   C1B 5539  15.289  31.752   8.550
 3454POPC   C2B 5540  15.296  31.667   8.250
 3454POPC   C3B 5541  15.233  31.729   7.950
 3454POPC   C4B 5542  15.250  31.701   7.650
 3455POPC   NC3 5543   2.760   9.751   9.450
 3455POPC   PO4 5544   2.791   9.795   9.150
 3455POPC   GL1 5545   2.717   9.767   8.850
 3455POPC   GL2 5546   2.742   9.828   8.850
 3455POPC   C1A 5547   2.740   9.794   8.550
 3455POPC   D2A 5548   2.730   9.775   8.250
 3455POPC   C3A 5549   2.803   9.792   7.950
 3455POPC   C4A 5550   2.776   9.759   7.650
 3455POPC   C1B 5551   2.763   9.978   8.550
 3455POPC   C2B 5552   2.819  10.045   8.250
 3455POPC   C3B 5553   2.823   9.962   7.950
 3455POPC   C4B 5554   2.745   9.967   7.650
 3456POPC   NC3 5555  12.866  38.479   9.450
 3456POPC   PO4 5556  12.860  38.493   9.150
 3456POPC   GL1 5557  12.851  38.438   8.850
 3456POPC   GL2 5558  12.871  38.353   8.850
 3456POPC   C1A 5559  12.846  38.446   8.550
 3456POPC   D2A 5560  12.849  38.501   8.250
 3456POPC   C3A 5561  12.882  38.429   7.950
 3456POPC   C4A 5562  12.875  38.477   7.650
 3456POPC   C1B 5563  12.801  38.161   8.550
 3456POPC   C2B 5564  12.770  38.227   8.250
 3456POPC   C3B 5565  12.814  38.206   7.950
 3456POPC   C4B 5566  12.830  38.213   7.650
 3457POPC   NC3 5567  23.741  15.915   9.450
 3457POPC   PO4 5568  23.675  15.916   9.150
 3457POPC   GL1 5569  23.713  15.988   8.850
 3457POPC   GL2 5570  23.665  15.861   8.850
 3457POPC   C1A 5571  23.709  15.933   8.550
 3457POPC   D2A 5572  23.706  15.985   8.250
 3457POPC   C3A 5573  23.677  15.930   7.950
 3457POPC   C4A 5574  23.701  15.990   7.650
 3457POPC   C1B 5575  23.574  15.705   8.550
 3457POPC   C2B 5576  23.593  15.753   8.250
 3457POPC   C3B 5577  23.595  15.728   7.950
 3457POPC   C4B 5578  23.565  15.769   7.650
 3458POPC   NC3 5579  42.352  18.307   9.450
 3458POPC   PO4 5580  42.379  18.303   9.150
 3458POPC   GL1 5581  42.335  18.252   8.850
 3458POPC   GL2 5582  42.241  18.340   8.850
 3458POPC   C1A 5583  42.317  18.235   8.550
 3458POPC   D2A 5584  42.375  18.301   8.250
 3458POPC   C3A 5585  42.329  18.320   7.950
 3458POPC   C4A 5586  42.300  18.271   7.650
 3458POPC   C1B 5587  42.174  18.460   8.550
 3458POPC   C2B 5588  42.151  18.518   8.250
 3458POPC   C3B 5589  42.178  18.517   7.950
 3458POPC   C4B 5590  42.161  18.440   7.650
 3459POPC   NC3 5591  22.942  16.758   9.450
 3459POPC   PO4 5592  22.955  16.689   9.150
 3459POPC   GL1 5593  22.937  16.781   8.850
 3459POPC   GL2 5594  22.798  16.649   8.850
 3459POPC   C1A 5595  22.951  16.774   8.550
 3459POPC   D2A 5596  22.911  16.725   8.250
 3459POPC   C3A 5597  22.896  16.733   7.950
 3459POPC   C4A 5598  22.914  16.763   7.650
 3459POPC   C1B 5599  22.783  16.555   8.550
 3459POPC   C2B 5600  22.763  16.608   8.250
 3459POPC   C3B 5601  22.730  16.615   7.950
 3459POPC   C4B 5602  22.762  16.607   7.650
 3460POPC   NC3 5603  24.526  17.549   9.450
 3460POPC   PO4 5604  24.479  17.549   9.150
 3460POPC   GL1 5605  24.476  17.540   8.850
 3460POPC   GL2 5606  24.590  17.604   8.850
 3460POPC   C1A 5607  24.514  17.522   8.550
 3460POPC   D2A 5608  24.445  17.490   8.250
 3460POPC   C3A 5609  24.509  17.534   7.950
 3460POPC   C4A 5610  24.455  17.470   7.650
 3460POPC   C1B 5611  24.722  17.659   8.550
 3460POPC   C2B 5612  24.667  17.661   8.250
 3460POPC   C3B 5613  24.691  17.635   7.950
 3460POPC   C4B 5614  24.696  17.676   7.650
 3461POPC   NC3 5615  41.570  12.123   9.450
 3461POPC   PO4 5616  41.582  12.066   9.150
 3461POPC   GL1 5617  41.597  12.108   8.850
 3461POPC   GL2 5618  41.681  11.968   8.850
 3461POPC   C1A 5619  41.565  12.053   8.550
 3461POPC   D2A 5620  41.602  12.031   8.250
 3461POPC   C3A 5621  41.559  12.106   7.950
 3461POPC   C4A 5622  41.571  12.080   7.650
 3461POPC   C1B 5623  41.754  11.860   8.550
 3461POPC   C2B 5624  41.741  11.868   8.250
 3461POPC   C3B 5625  41.760  11.902   7.950
 3461POPC   C4B 5626  41.750  11.920   7.650
 3462POPC   NC3 5627   2.761  25.222   9.450
 3462POPC   PO4 5628   2.814  25.269   9.150
 3462POPC   GL1 5629   2.767  25.237   8.850
 3462POPC   GL2 5630   2.804  25.344   8.850
 3462POPC   C1A 5631   2.774  25.283   8.550
 3462POPC   D2A 5632   2.809  25.292   8.250
 3462POPC   C3A 5633   2.799  25.228   7.950
 3462POPC   C4A 5634   2.751  25.239   7.650
 3462POPC   C1B 5635   2.911  25.412   8.550
 3462POPC   C2B 5636   2.978  25.425   8.250
 3462POPC   C3B 5637   2.928  25.476   7.950
 3462POPC   C4B 5638   2.897  25.481   7.650
 3463POPC   NC3 5639  29.132  20.598   9.450
 3463POPC   PO4 5640  29.154  20.609   9.150
 3463POPC   GL1 5641  29.156  20.569   8.850
 3463POPC   GL2 5642  29.074  20.499   8.850
 3463POPC   C1A 5643  29.150  20.588   8.550
 3463POPC   D2A 5644  29.188  20.604   8.250
 3463POPC   C3A 5645  29.187  20.612   7.950
 3463POPC   C4A 5646  29.129  20.647   7.650
 3463POPC   C1B 5647  28.990  20.383   8.550
 3463POPC   C2B 5648  28.973  20.401   8.250
 3463POPC   C3B 5649  28.951  20.435   7.950
 3463POPC   C4B 5650  28.926  20.426   7.650
 3464POPC   NC3 5651   5.846  35.379   9.450
 3464POPC   PO4 5652   5.859  35.302   9.150
 3464POPC   GL1 5653   5.883  35.355   8.850
 3464POPC   GL2 5654   5.833  35.426   8.850
 3464POPC   C1A 5655   5.833  35.388   8.550
 3464POPC   D2A 5656   5.855  35.324   8.250
 3464POPC   C3A 5657   5.852  35.364   7.950
 3464POPC   C4A 5658   5.903  35.347   7.650
 3464POPC   C1B 5659   5.750  35.588   8.550
 3464POPC   C2B 5660   5.738  35.615   8.250
 3464POPC   C3B 5661   5.821  35.548   7.950
 3464POPC   C4B 5662   5.753  35.544   7.650
 3465POPC   NC3 5663  27.632  17.549   9.450
 3465POPC   PO4 5664  27.601  17.542   9.150
 3465POPC   GL1 5665  27.627  17.546   8.850
 3465POPC   GL2 5666  27.581  17.648   8.850
 3465POPC   C1A 5667  27.621  17.489   8.550
 3465POPC   D2A 5668  27.587  17.549   8.250
 3465POPC   C3A 5669  27.583  17.536   7.950
 3465POPC   C4A 5670  27.627  17.501   7.650
 3465POPC   C1B 5671  27.594  17.758   8.550
 3465POPC   C2B 5672  27.548  17.758   8.250
 3465POPC   C3B 5673  27.626  17.728   7.950
 3465POPC   C4B 5674  27.611  17.719   7.650
 3466POPC   NC3 5675  10.501  26.785   9.450
 3466POPC   PO4 5676  10.489  26.796   9.150
 3466POPC   GL1 5677  10.539  26.819   8.850
 3466POPC   GL2 5678  10.626  26.698   8.850
 3466POPC   C1A 5679  10.555  26.824   8.550
 3466POPC   D2A 5680  10.551  26.859   8.250
 3466POPC   C3A 5681  10.523  26.850   7.950
 3466POPC   C4A 5682  10.570  26.795   7.650
 3466POPC   C1B 5683  10.676  26.576   8.550
 3466POPC   C2B 5684  10.615  26.592   8.250
 3466POPC   C3B 5685  10.692  26.576   7.950
 3466POPC   C4B 5686  10.637  26.603   7.650
 3467POPC   NC3 5687  19.805  15.191   9.450
 3467POPC   PO4 5688  19.796  15.217   9.150
 3467POPC   GL1 5689  19.812  15.173   8.850
 3467POPC   GL2 5690  19.713  15.154   8.850
 3467POPC   C1A 5691  19.877  15.148   8.550
 3467POPC   D2A 5692  19.793  15.181   8.250
 3467POPC   C3A 5693  19.878  15.173   7.950
 3467POPC   C4A 5694  19.817  15.137   7.650
 3467POPC   C1B 5695  19.626  15.127   8.550
 3467POPC   C2B 5696  19.616  15.097   8.250
 3467POPC   C3B 5697  19.629  15.107   7.950
 3467POPC   C4B 5698  19.548  15.151   7.650
 3468POPC   NC3 5699  29.133   0.424   9.450
 3468POPC   PO4 5700  29.096   0.454   9.150
 3468POPC   GL1 5701  29.120   0.427   8.850
 3468POPC   GL2 5702  29.102   0.523   8.850
 3468POPC   C1A 5703  29.101   0.443   8.550
 3468POPC   D2A 5704  29.153   0.418   8.250
 3468POPC   C3A 5705  29.108   0.453   7.950
 3468POPC   C4A 5706  29.101   0.444   7.650
 3468POPC   C1B 5707  29.117   0.648   8.550
 3468POPC   C2B 5708  29.095   0.643   8.250
 3468POPC   C3B 5709  29.129   0.681   7.950
 3468POPC   C4B 5710  29.154   0.721   7.650
 3469POPC   NC3 5711  18.236  15.906   9.450
 3469POPC   PO4 5712  18.309  15.917   9.150
 3469POPC   GL1 5713  18.330  16.005   8.850
 3469POPC   GL2 5714  18.330  16.106   8.850
 3469POPC   C1A 5715  18.247  15.947   8.550
 3469POPC   D2A 5716  18.242  15.954   8.250
 3469POPC   C3A 5717  18.314  15.983   7.950
 3469POPC   C4A 5718  18.310  15.945   7.650
 3469POPC   C1B 5719  18.354  16.224   8.550
 3469POPC   C2B 5720  18.368  16.144   8.250
 3469POPC   C3B 5721  18.361  16.206   7.950
 3469POPC   C4B 5722  18.408  16.165   7.650
 3470POPC   NC3 5723  38.490   5.130   9.450
 3470POPC   PO4 5724  38.483   5.076   9.150
 3470POPC   GL1 5725  38.466   5.090   8.850
 3470POPC   GL2 5726  38.555   5.056   8.850
 3470POPC   C1A 5727  38.496   5.085   8.550
 3470POPC   D2A 5728  38.419   5.098   8.250
 3470POPC   C3A 5729  38.502   5.101   7.950
 3470POPC   C4A 5730  38.496   5.097   7.650
 3470POPC   C1B 5731  38.674   5.032   8.550
 3470POPC   C2B 5732  38.710   5.054   8.250
 3470POPC   C3B 5733  38.734   5.122   7.950
 3470POPC   C4B 5734  38.751   5.033   7.650
 3471POPC   NC3 5735  43.867  14.364   9.450
 3471POPC   PO4 5736  43.850  14.375   9.150
 3471POPC   GL1 5737  43.899  14.401   8.850
 3471POPC   GL2 5738  43.749  14.427   8.850
 3471POPC   C1A 5739  43.843  14.410   8.550
 3471POPC   D2A 5740  43.909  14.377   8.250
 3471POPC   C3A 5741  43.925  14.365   7.950
 3471POPC   C4A 5742  43.922  14.438   7.650
 3471POPC   C1B 5743  43.620  14.392   8.550
 3471POPC   C2B 5744  43.655  14.420   8.250
 3471POPC   C3B 5745  43.671  14.472   7.950
 3471POPC   C4B 5746  43.593  14.430   7.650
 3472POPC   NC3 5747  19.797  11.341   9.450
 3472POPC   PO4 5748  19.791  11.256   9.150
 3472POPC   GL1 5749  19.866  11.308   8.850
 3472POPC   GL2 5750  19.770  11.215   8.850
 3472POPC   C1A 5751  19.874  11.282   8.550
 3472POPC   D2A 5752  19.848  11.293   8.250
 3472POPC   C3A 5753  19.825  11.349   7.950
 3472POPC   C4A 5754  19.850  11.313   7.650
 3472POPC   C1B 5755  19.769  11.047   8.550
 3472POPC   C2B 5756  19.682  11.065   8.250
 3472POPC   C3B 5757  19.752  11.101   7.950
 3472POPC   C4B 5758  19.684  11.107   7.650
 3473POPC   NC3 5759  40.759  36.139   9.450
 3473POPC   PO4 5760  40.736  36.142   9.150
 3473POPC   GL1 5761  40.733  36.096   8.850
 3473POPC   GL2 5762  40.800  36.204   8.850
 3473POPC   C1A 5763  40.831  36.110   8.550
 3473POPC   D2A 5764  40.826  36.088   8.250
 3473POPC   C3A 5765  40.829  36.089   7.950
 3473POPC   C4A 5766  40.791  36.126   7.650
 3473POPC   C1B 5767  40.754  36.386   8.550
 3473POPC   C2B 5768  40.736  36.413   8.250
 3473POPC   C3B 5769  40.794  36.421   7.950
 3473POPC   C4B 5770  40.785  36.338   7.650
 3474POPC   NC3 5771   2.756   8.997   9.450
 3474POPC   PO4 5772   2.775   9.010   9.150
 3474POPC   GL1 5773   2.798   8.973   8.850
 3474POPC   GL2 5774   2.883   8.869   8.850
 3474POPC   C1A 5775   2.772   9.022   8.550
 3474POPC   D2A 5776   2.773   8.986   8.250
 3474POPC   C3A 5777   2.772   9.018   7.950
 3474POPC   C4A 5778   2.745   8.990   7.650
 3474POPC   C1B 5779   2.942   8.791   8.550
 3474POPC   C2B 5780   2.917   8.782   8.250
 3474POPC   C3B 5781   2.989   8.810   7.950
 3474POPC   C4B 5782   2.951   8.757   7.650
 3475POPC   NC3 5783  39.224  15.174   9.450
 3475POPC   PO4 5784  39.257  15.130   9.150
 3475POPC   GL1 5785  39.214  15.188   8.850
 3475POPC   GL2 5786  39.216  15.100   8.850
 3475POPC   C1A 5787  39.232  15.226   8.550
 3475POPC   D2A 5788  39.181  15.169   8.250
 3475POPC   C3A 5789  39.243  15.165   7.950
 3475POPC   C4A 5790  39.258  15.156   7.650
 3475POPC   C1B 5791  39.170  14.973   8.550
 3475POPC   C2B 5792  39.154  14.967   8.250
 3475POPC   C3B 5793  39.114  14.999   7.950
 3475POPC   C4B 5794  39.083  14.994   7.650
 3476POPC   NC3 5795   1.218  40.813   9.450
 3476POPC   PO4 5796   1.242  40.816   9.150
 3476POPC   GL1 5797   1.208  40.805   8.850
 3476POPC   GL2 5798   1.129  40.896   8.850
 3476POPC   C1A 5799   1.261  40.805   8.550
 3476POPC   D2A 5800   1.256  40.763   8.250
 3476POPC   C3A 5801   1.199  40.736   7.950
 3476POPC   C4A 5802   1.256  40.831   7.650
 3476POPC   C1B 5803   1.072  40.943   8.550
 3476POPC   C2B 5804   1.067  40.970   8.250
 3476POPC   C3B 5805   0.999  40.934   7.950
 3476POPC   C4B 5806   1.015  40.991   7.650
 3477POPC   NC3 5807   9.019  11.323   9.450
 3477POPC   PO4 5808   9.002  11.275   9.150
 3477POPC   GL1 5809   8.946  11.325   8.850
 3477POPC   GL2 5810   9.132  11.350   8.850
 3477POPC   C1A 5811   8.973  11.349   8.550
 3477POPC   D2A 5812   8.972  11.332   8.250
 3477POPC   C3A 5813   8.923  11.333   7.950
 3477POPC   C4A 5814   8.941  11.280   7.650
 3477POPC   C1B 5815   9.235  11.384   8.550
 3477POPC   C2B 5816   9.215  11.449   8.250
 3477POPC   C3B 5817   9.206  11.356   7.950
 3477POPC   C4B 5818   9.158  11.359   7.650
 3478POPC   NC3 5819  35.343   5.833   9.450
 3478POPC   PO4 5820  35.362   5.848   9.150
 3478POPC   GL1 5821  35.322   5.898   8.850
 3478POPC   GL2 5822  35.240   5.995   8.850
 3478POPC   C1A 5823  35.394   5.830   8.550
 3478POPC   D2A 5824  35.392   5.880   8.250
 3478POPC   C3A 5825  35.307   5.881   7.950
 3478POPC   C4A 5826  35.308   5.851   7.650
 3478POPC   C1B 5827  35.161   6.034   8.550
 3478POPC   C2B 5828  35.193   6.079   8.250
 3478POPC   C3B 5829  35.199   6.092   7.950
 3478POPC   C4B 5830  35.240   6.054   7.650
 3479POPC   NC3 5831  22.968  42.332   9.450
 3479POPC   PO4 5832  22.938  42.285   9.150
 3479POPC   GL1 5833  22.973  42.381   8.850
 3479POPC   GL2 5834  23.050  42.392   8.850
 3479POPC   C1A 5835  22.960  42.337   8.550
 3479POPC   D2A 5836  22.915  42.341   8.250
 3479POPC   C3A 5837  22.950  42.339   7.950
 3479POPC   C4A 5838  22.921  42.361   7.650
 3479POPC   C1B 5839  23.168  42.392   8.550
 3479POPC   C2B 5840  23.126  42.462   8.250
 3479POPC   C3B 5841  23.200  42.404   7.950
 3479POPC   C4B 5842  23.157  42.457   7.650
 3480POPC   NC3 5843  33.770  20.584   9.450
 3480POPC   PO4 5844  33.844  20.582   9.150
 3480POPC   GL1 5845  33.761  20.599   8.850
 3480POPC   GL2 5846  33.768  20.779   8.850
 3480POPC   C1A 5847  33.786  20.625   8.550
 3480POPC   D2A 5848  33.827  20.613   8.250
 3480POPC   C3A 5849  33.809  20.575   7.950
 3480POPC   C4A 5850  33.758  20.639   7.650
 3480POPC   C1B 5851  33.737  20.834   8.550
 3480POPC   C2B 5852  33.708  20.874   8.250
 3480POPC   C3B 5853  33.712  20.897   7.950
 3480POPC   C4B 5854  33.754  20.900   7.650
 3481POPC   NC3 5855  26.778   9.727   9.450
 3481POPC   PO4 5856  26.814   9.751   9.150
 3481POPC   GL1 5857  26.782   9.798   8.850
 3481POPC   GL2 5858  26.834   9.661   8.850
 3481POPC   C1A 5859  26.769   9.779   8.550
 3481POPC   D2A 5860  26.832   9.715   8.250
 3481POPC   C3A 5861  26.805   9.739   7.950
 3481POPC   C4A 5862  26.770   9.791   7.650
 3481POPC   C1B 5863  26.913   9.458   8.550
 3481POPC   C2B 5864  26.884   9.464   8.250
 3481POPC   C3B 5865  26.892   9.509   7.950
 3481POPC   C4B 5866  26.891   9.481   7.650
 3482POPC   NC3 5867  32.978  32.984   9.450
 3482POPC   PO4 5868  32.984  32.975   9.150
 3482POPC   GL1 5869  33.071  33.068   8.850
 3482POPC   GL2 5870  33.062  32.881   8.850
 3482POPC   C1A 5871  33.016  33.070   8.550
 3482POPC   D2A 5872  33.004  32.997   8.250
 3482POPC   C3A 5873  33.056  32.994   7.950
 3482POPC   C4A 5874  33.070  32.998   7.650
 3482POPC   C1B 5875  33.009  32.738   8.550
 3482POPC   C2B 5876  33.054  32.777   8.250
 3482POPC   C3B 5877  33.011  32.771   7.950
 3482POPC   C4B 5878  33.001  32.737   7.650
 3483POPC   NC3 5879  35.366  16.691   9.450
 3483POPC   PO4 5880  35.349  16.723   9.150
 3483POPC   GL1 5881  35.348  16.715   8.850
 3483POPC   GL2 5882  35.453  16.623   8.850
 3483POPC   C1A 5883  35.391  16.774   8.550
 3483POPC   D2A 5884  35.351  16.692   8.250
 3483POPC   C3A 5885  35.317  16.745   7.950
 3483POPC   C4A 5886  35.379  16.742   7.650
 3483POPC   C1B 5887  35.459  16.483   8.550
 3483POPC   C2B 5888  35.542  16.552   8.250
 3483POPC   C3B 5889  35.475  16.580   7.950
 3483POPC   C4B 5890  35.499  16.492   7.650
 3484POPC   NC3 5891  42.298  20.597   9.450
 3484POPC   PO4 5892  42.296  20.615   9.150
 3484POPC   GL1 5893  42.311  20.608   8.850
 3484POPC   GL2 5894  42.368  20.463   8.850
 3484POPC   C1A 5895  42.337  20.569   8.550
 3484POPC   D2A 5896  42.306  20.612   8.250
 3484POPC   C3A 5897  42.377  20.625   7.950
 3484POPC   C4A 5898  42.302  20.618   7.650
 3484POPC   C1B 5899  42.369  20.320   8.550
 3484POPC   C2B 5900  42.355  20.387   8.250
 3484POPC   C3B 5901  42.296  20.327   7.950
 3484POPC   C4B 5902  42.287  20.333   7.650
 3485POPC   NC3 5903  15.949  22.137   9.450
 3485POPC   PO4 5904  15.916  22.125   9.150
 3485POPC   GL1 5905  15.913  22.145   8.850
 3485POPC   GL2 5906  15.939  22.277   8.850
 3485POPC   C1A 5907  16.004  22.171   8.550
 3485POPC   D2A 5908  15.925  22.180   8.250
 3485POPC   C3A 5909  15.964  22.165   7.950
 3485POPC   C4A 5910  15.986  22.160   7.650
 3485POPC   C1B 5911  16.037  22.411   8.550
 3485POPC   C2B 5912  15.970  22.421   8.250
 3485POPC   C3B 5913  15.944  22.418   7.950
 3485POPC   C4B 5914  15.964  22.379   7.650
 3486POPC   NC3 5915  10.503  13.583   9.450
 3486POPC   PO4 5916  10.526  13.623   9.150
 3486POPC   GL1 5917  10.541  13.645   8.850
 3486POPC   GL2 5918  10.487  13.485   8.850
 3486POPC   C1A 5919  10.483  13.629   8.550
 3486POPC   D2A 5920  10.570  13.588   8.250
 3486POPC   C3A 5921  10.543  13.611   7.950
 3486POPC   C4A 5922  10.560  13.624   7.650
 3486POPC   C1B 5923  10.378  13.442   8.550
 3486POPC   C2B 5924  10.448  13.419   8.250
 3486POPC   C3B 5925  10.453  13.377   7.950
 3486POPC   C4B 5926  10.399  13.378   7.650
 3487POPC   NC3 5927  43.132  32.989   9.450
 3487POPC   PO4 5928  43.129  33.057   9.150
 3487POPC   GL1 5929  43.089  33.008   8.850
 3487POPC   GL2 5930  43.128  33.142   8.850
 3487POPC   C1A 5931  43.078  33.031   8.550
 3487POPC   D2A 5932  43.096  33.006   8.250
 3487POPC   C3A 5933  43.143  32.982   7.950
 3487POPC   C4A 5934  43.069  32.998   7.650
 3487POPC   C1B 5935  43.247  33.261   8.550
 3487POPC   C2B 5936  43.238  33.283   8.250
 3487POPC   C3B 5937  43.244  33.244   7.950
 3487POPC   C4B 5938  43.181  33.291   7.650
 3488POPC   NC3 5939   1.182  10.520   9.450
 3488POPC   PO4 5940   1.215  10.537   9.150
 3488POPC   GL1 5941   1.186  10.542   8.850
 3488POPC   GL2 5942   1.066  10.458   8.850
 3488POPC   C1A 5943   1.231  10.507   8.550
 3488POPC   D2A 5944   1.165  10.488   8.250
 3488POPC   C3A 5945   1.205  10.480   7.950
 3488POPC   C4A 5946   1.240  10.516   7.650
 3488POPC   C1B 5947   1.025  10.366   8.550
 3488POPC   C2B 5948   0.981  10.348   8.250
 3488POPC   C3B 5949   0.966  10.392   7.950
 3488POPC   C4B 5950   1.007  10.411   7.650
 3489POPC   NC3 5951   9.748  16.742   9.450
 3489POPC   PO4 5952   9.785  16.709   9.150
 3489POPC   GL1 5953   9.793  16.739   8.850
 3489POPC   GL2 5954   9.780  16.885   8.850
 3489POPC   C1A 5955   9.789  16.716   8.550
 3489POPC   D2A 5956   9.762  16.693   8.250
 3489POPC   C3A 5957   9.771  16.771   7.950
 3489POPC   C4A 5958   9.726  16.755   7.650
 3489POPC   C1B 5959   9.761  16.960   8.550
 3489POPC   C2B 5960   9.706  16.945   8.250
 3489POPC   C3B 5961   9.768  16.957   7.950
 3489POPC   C4B 5962   9.797  16.957   7.650
 3490POPC   NC3 5963  29.886  33.040   9.450
 3490POPC   PO4 5964  29.920  33.006   9.150
 3490POPC   GL1 5965  29.941  33.064   8.850
 3490POPC   GL2 5966  29.854  33.098   8.850
 3490POPC   C1A 5967  29.891  33.058   8.550
 3490POPC   D2A 5968  29.958  33.031   8.250
 3490POPC   C3A 5969  29.951  33.073   7.950
 3490POPC   C4A 5970  29.888  32.989   7.650
 3490POPC   C1B 5971  29.851  33.290   8.550
 3490POPC   C2B 5972  29.854  33.316   8.250
 3490POPC   C3B 5973  29.914  33.241   7.950
 3490POPC   C4B 5974  29.906  33.253   7.650
 3491POPC   NC3 5975   5.065   8.245   9.450
 3491POPC   PO4 5976   5.083   8.202   9.150
 3491POPC   GL1 5977   5.080   8.211   8.850
 3491POPC   GL2 5978   5.220   8.098   8.850
 3491POPC   C1A 5979   5.116   8.183   8.550
 3491POPC   D2A 5980   5.139   8.238   8.250
 3491POPC   C3A 5981   5.057   8.212   7.950
 3491POPC   C4A 5982   5.071   8.246   7.650
 3491POPC   C1B 5983   5.241   8.009   8.550
 3491POPC   C2B 5984   5.320   8.054   8.250
 3491POPC   C3B 5985   5.238   8.061   7.950
 3491POPC   C4B 5986   5.266   8.016   7.650
 3492POPC   NC3 5987  26.022  33.813   9.450
 3492POPC   PO4 5988  25.992  33.797   9.150
 3492POPC   GL1 5989  26.034  33.805   8.850
 3492POPC   GL2 5990  26.201  33.767   8.850
 3492POPC   C1A 5991  26.019  33.803   8.550
 3492POPC   D2A 5992  26.025  33.844   8.250
 3492POPC   C3A 5993  25.993  33.777   7.950
 3492POPC   C4A 5994  26.083  33.800   7.650
 3492POPC   C1B 5995  26.266  33.670   8.550
 3492POPC   C2B 5996  26.259  33.738   8.250
 3492POPC   C3B 5997  26.248  33.649   7.950
 3492POPC   C4B 5998  26.253  33.716   7.650
 3493POPC   NC3 5999  28.400  18.280   9.450
 3493POPC   PO4 6000  28.340  18.320   9.150
 3493POPC   GL1 6001  28.380  18.264   8.850
 3493POPC   GL2 6002  28.385  18.410   8.850
 3493POPC   C1A 6003  28.400  18.317   8.550
 3493POPC   D2A 6004  28.385  18.248   8.250
 3493POPC   C3A 6005  28.394  18.274   7.950
 3493POPC   C4A 6006  28.419  18.240   7.650
 3493POPC   C1B 6007  28.341  18.524   8.550
 3493POPC   C2B 6008  28.336  18.555   8.250
 3493POPC   C3B 6009  28.335  18.563   7.950
 3493POPC   C4B 6010  28.361  18.530   7.650
 3494POPC   NC3 6011  35.376  30.712   9.450
 3494POPC   PO4 6012  35.377  30.743   9.150
 3494POPC   GL1 6013  35.377  30.740   8.850
 3494POPC   GL2 6014  35.388  30.801   8.850
 3494POPC   C1A 6015  35.358  30.650   8.550
 3494POPC   D2A 6016  35.368  30.672   8.250
 3494POPC   C3A 6017  35.311  30.739   7.950
 3494POPC   C4A 6018  35.323  30.741   7.650
 3494POPC   C1B 6019  35.474  30.889   8.550
 3494POPC   C2B 6020  35.494  30.898   8.250
 3494POPC   C3B 6021  35.456  30.960   7.950
 3494POPC   C4B 6022  35.473  30.958   7.650
 3495POPC   NC3 6023  35.304  12.043   9.450
 3495POPC   PO4 6024  35.393  12.027   9.150
 3495POPC   GL1 6025  35.398  12.040   8.850
 3495POPC   GL2 6026  35.184  12.157   8.850
 3495POPC   C1A 6027  35.372  12.086   8.550
 3495POPC   D2A 6028  35.327  12.041   8.250
 3495POPC   C3A 6029  35.302  12.112   7.950
 3495POPC   C4A 6030  35.354  12.073   7.650
 3495POPC   C1B 6031  35.075  12.138   8.550
 3495POPC   C2B 6032  35.076  12.156   8.250
 3495POPC   C3B 6033  35.067  12.130   7.950
 3495POPC   C4B 6034  35.066  12.119   7.650
 3496POPC   NC3 6035  18.280   2.015   9.450
 3496POPC   PO4 6036  18.280   1.994   9.150
 3496POPC   GL1 6037  18.281   2.031   8.850
 3496POPC   GL2 6038  18.137   2.093   8.850
 3496POPC   C1A 6039  18.330   1.982   8.550
 3496POPC   D2A 6040  18.266   1.959   8.250
 3496POPC   C3A 6041  18.299   2.002   7.950
 3496POPC   C4A 6042  18.239   1.967   7.650
 3496POPC   C1B 6043  18.027   2.099   8.550
 3496POPC   C2B 6044  18.077   2.090   8.250
 3496POPC   C3B 6045  18.093   2.178   7.950
 3496POPC   C4B 6046  18.096   2.121   7.650
 3497POPC   NC3 6047  27.616  19.828   9.450
 3497POPC   PO4 6048  27.578  19.810   9.150
 3497POPC   GL1 6049  27.564  19.844   8.850
 3497POPC   GL2 6050  27.739  19.742   8.850
 3497POPC   C1A 6051  27.628  19.839   8.550
 3497POPC   D2A 6052  27.635  19.834   8.250
 3497POPC   C3A 6053  27.598  19.881   7.950
 3497POPC   C4A 6054  27.581  19.851   7.650
 3497POPC   C1B 6055  27.840  19.721   8.550
 3497POPC   C2B 6056  27.791  19.711   8.250
 3497POPC   C3B 6057  27.798  19.703   7.950
 3497POPC   C4B 6058  27.840  19.706   7.650
 3498POPC   NC3 6059  24.483  36.125   9.450
 3498POPC   PO4 6060  24.484  36.166   9.150
 3498POPC   GL1 6061  24.455  36.172   8.850
 3498POPC   GL2 6062  24.622  36.117   8.850
 3498POPC   C1A 6063  24.494  36.109   8.550
 3498POPC   D2A 6064  24.474  36.177   8.250
 3498POPC   C3A 6065  24.479  36.176   7.950
 3498POPC   C4A 6066  24.491  36.145   7.650
 3498POPC   C1B 6067  24.701  36.056   8.550
 3498POPC   C2B 6068  24.686  36.108   8.250
 3498POPC   C3B 6069  24.702  36.115   7.950
 3498POPC   C4B 6070  24.690  36.094   7.650
 3499POPC   NC3 6071   7.450  33.018   9.450
 3499POPC   PO4 6072   7.457  33.008   9.150
 3499POPC   GL1 6073   7.409  33.063   8.850
 3499POPC   GL2 6074   7.583  33.083   8.850
 3499POPC   C1A 6075   7.451  33.025   8.550
 3499POPC   D2A 6076   7.468  32.991   8.250
 3499POPC   C3A 6077   7.434  32.981   7.950
 3499POPC   C4A 6078   7.429  32.998   7.650
 3499POPC   C1B 6079   7.611  33.084   8.550
 3499POPC   C2B 6080   7.661  33.162   8.250
 3499POPC   C3B 6081   7.650  33.154   7.950
 3499POPC   C4B 6082   7.631  33.135   7.650
 3500POPC   NC3 6083  27.641  20.568   9.450
 3500POPC   PO4 6084  27.585  20.642   9.150
 3500POPC   GL1 6085  27.546  20.604   8.850
 3500POPC   GL2 6086  27.570  20.465   8.850
 3500POPC   C1A 6087  27.630  20.586   8.550
 3500POPC   D2A 6088  27.626  20.566   8.250
 3500POPC   C3A 6089  27.576  20.595   7.950
 3500POPC   C4A 6090  27.576  20.602   7.650
 3500POPC   C1B 6091  27.524  20.355   8.550
 3500POPC   C2B 6092  27.490  20.425   8.250
 3500POPC   C3B 6093  27.489  20.406   7.950
 3500POPC   C4B 6094  27.440  20.344   7.650
 3501POPC   NC3 6095  12.095   8.974   9.450
 3501POPC   PO4 6096  12.037   9.005   9.150
 3501POPC   GL1 6097  12.119   8.996   8.850
 3501POPC   GL2 6098  12.025   8.841   8.850
 3501POPC   C1A 6099  12.116   8.954   8.550
 3501POPC   D2A 6100  12.070   8.934   8.250
 3501POPC   C3A 6101  12.121   8.949   7.950
 3501POPC   C4A 6102  12.056   8.968   7.650
 3501POPC   C1B 6103  11.899   8.731   8.550
 3501POPC   C2B 6104  11.890   8.753   8.250
 3501POPC   C3B 6105  11.940   8.819   7.950
 3501POPC   C4B 6106  11.914   8.719   7.650
 3502POPC   NC3 6107   9.741   4.320   9.450
 3502POPC   PO4 6108   9.730   4.357   9.150
 3502POPC   GL1 6109   9.754   4.340   8.850
 3502POPC   GL2 6110   9.869   4.363   8.850
 3502POPC   C1A 6111   9.791   4.307   8.550
 3502POPC   D2A 6112   9.708   4.300   8.250
 3502POPC   C3A 6113   9.786   4.269   7.950
 3502POPC   C4A 6114   9.718   4.346   7.650
 3502POPC   C1B 6115  10.024   4.383   8.550
 3502POPC   C2B 6116   9.966   4.329   8.250
 3502POPC   C3B 6117   9.978   4.401   7.950
 3502POPC   C4B 6118  10.034   4.323   7.650
 3503POPC   NC3 6119  34.561  19.059   9.450
 3503POPC   PO4 6120  34.624  19.033   9.150
 3503POPC   GL1 6121  34.537  19.048   8.850
 3503POPC   GL2 6122  34.458  18.984   8.850
 3503POPC   C1A 6123  34.588  19.097   8.550
 3503POPC   D2A 6124  34.587  19.041   8.250
 3503POPC   C3A 6125  34.614  19.083   7.950
 3503POPC   C4A 6126  34.566  19.067   7.650
 3503POPC   C1B 6127  34.350  18.959   8.550
 3503POPC   C2B 6128  34.347  18.946   8.250
 3503POPC   C3B 6129  34.338  19.019   7.950
 3503POPC   C4B 6130  34.304  19.041   7.650
 3504POPC   NC3 6131   1.258   8.184   9.450
 3504POPC   PO4 6132   1.242   8.233   9.150
 3504POPC   GL1 6133   1.196   8.176   8.850
 3504POPC   GL2 6134   1.220   8.073   8.850
 3504POPC   C1A 6135   1.230   8.202   8.550
 3504POPC   D2A 6136   1.262   8.165   8.250
 3504POPC   C3A 6137   1.183   8.221   7.950
 3504POPC   C4A 6138   1.169   8.173   7.650
 3504POPC   C1B 6139   1.142   7.995   8.550
 3504POPC   C2B 6140   1.176   7.987   8.250
 3504POPC   C3B 6141   1.205   7.899   7.950
 3504POPC   C4B 6142   1.148   7.913   7.650
 3505POPC   NC3 6143  40.832  19.091   9.450
 3505POPC   PO4 6144  40.813  19.103   9.150
 3505POPC   GL1 6145  40.788  19.107   8.850
 3505POPC   GL2 6146  40.721  19.003   8.850
 3505POPC   C1A 6147  40.793  19.020   8.550
 3505POPC   D2A 6148  40.774  19.090   8.250
 3505POPC   C3A 6149  40.772  19.055   7.950
 3505POPC   C4A 6150  40.737  19.021   7.650
 3505POPC   C1B 6151  40.592  18.899   8.550
 3505POPC   C2B 6152  40.589  18.884   8.250
 3505POPC   C3B 6153  40.587  18.830   7.950
 3505POPC   C4B 6154  40.605  18.891   7.650
 3506POPC   NC3 6155   1.245  29.103   9.450
 3506POPC   PO4 6156   1.190  29.103   9.150
 3506POPC   GL1 6157   1.209  29.178   8.850
 3506POPC   GL2 6158   1.077  29.153   8.850
 3506POPC   C1A 6159   1.219  29.138   8.550
 3506POPC   D2A 6160   1.213  29.136   8.250
 3506POPC   C3A 6161   1.181  29.103   7.950
 3506POPC   C4A 6162   1.258  29.110   7.650
 3506POPC   C1B 6163   0.934  29.063   8.550
 3506POPC   C2B 6164   1.022  29.114   8.250
 3506POPC   C3B 6165   1.001  29.110   7.950
 3506POPC   C4B 6166   0.941  29.110   7.650
 3507POPC   NC3 6167  43.107   5.866   9.450
 3507POPC   PO4 6168  43.148   5.864   9.150
 3507POPC   GL1 6169  43.098   5.863   8.850
 3507POPC   GL2 6170  43.087   5.722   8.850
 3507POPC   C1A 6171  43.132   5.866   8.550
 3507POPC   D2A 6172  43.117   5.825   8.250
 3507POPC   C3A 6173  43.115   5.911   7.950
 3507POPC   C4A 6174  43.125   5.875   7.650
 3507POPC   C1B 6175  43.185   5.612   8.550
 3507POPC   C2B 6176  43.155   5.644   8.250
 3507POPC   C3B 6177  43.099   5.577   7.950
 3507POPC   C4B 6178  43.149   5.663   7.650
 3508POPC   NC3 6179  23.749  20.592   9.450
 3508POPC   PO4 6180  23.669  20.635   9.150
 3508POPC   GL1 6181  23.758  20.604   8.850
 3508POPC   GL2 6182  23.833  20.499   8.850
 3508POPC   C1A 6183  23.742  20.616   8.550
 3508POPC   D2A 6184  23.674  20.649   8.250
 3508POPC   C3A 6185  23.739  20.594   7.950
 3508POPC   C4A 6186  23.691  20.654   7.650
 3508POPC   C1B 6187  23.962  20.465   8.550
 3508POPC   C2B 6188  23.878  20.475   8.250
 3508POPC   C3B 6189  23.949  20.441   7.950
 3508POPC   C4B 6190  23.961  20.429   7.650
 3509POPC   NC3 6191  33.796  44.674   9.450
 3509POPC   PO4 6192  33.848  44.706   9.150
 3509POPC   GL1 6193  33.831  44.677   8.850
 3509POPC   GL2 6194  33.897  44.615   8.850
 3509POPC   C1A 6195  33.789  44.658   8.550
 3509POPC   D2A 6196  33.824  44.707   8.250
 3509POPC   C3A 6197  33.776  44.654   7.950
 3509POPC   C4A 6198  33.765  44.639   7.650
 3509POPC   C1B 6199  34.076  44.656   8.550
 3509POPC   C2B 6200  34.008  44.627   8.250
 3509POPC   C3B 6201  34.080  44.651   7.950
 3509POPC   C4B 6202  34.005  44.640   7.650
 3510POPC   NC3 6203  10.572  41.583   9.450
 3510POPC   PO4 6204  10.566  41.536   9.150
 3510POPC   GL1 6205  10.475  41.596   8.850
 3510POPC   GL2 6206  10.668  41.633   8.850
 3510POPC   C1A 6207  10.519  41.510   8.550
 3510POPC   D2A 6208  10.541  41.513   8.250
 3510POPC   C3A 6209  10.549  41.554   7.950
 3510POPC   C4A 6210  10.482  41.525   7.650
 3510POPC   C1B 6211  10.735  41.674   8.550
 3510POPC   C2B 6212  10.798  41.630   8.250
 3510POPC   C3B 6213  10.780  41.653   7.950
 3510POPC   C4B 6214  10.779  41.684   7.650
 3511POPC   NC3 6215  33.849  16.747   9.450
 3511POPC   PO4 6216  33.828  16.702   9.150
 3511POPC   GL1 6217  33.772  16.717   8.850
 3511POPC   GL2 6218  33.709  16.776   8.850
 3511POPC   C1A 6219  33.821  16.717   8.550
 3511POPC   D2A 6220  33.817  16.713   8.250
 3511POPC   C3A 6221  33.838  16.759   7.950
 3511POPC   C4A 6222  33.775  16.727   7.650
 3511POPC   C1B 6223  33.508  16.744   8.550
 3511POPC   C2B 6224  33.574  16.720   8.250
 3511POPC   C3B 6225  33.545  16.787   7.950
 3511POPC   C4B 6226  33.517  16.722   7.650
 3512POPC   NC3 6227  29.135  21.402   9.450
 3512POPC   PO4 6228  29.105  21.402   9.150
 3512POPC   GL1 6229  29.127  21.384   8.850
 3512POPC   GL2 6230  29.099  21.300   8.850
 3512POPC   C1A 6231  29.169  21.429   8.550
 3512POPC   D2A 6232  29.155  21.425   8.250
 3512POPC   C3A 6233  29.148  21.375   7.950
 3512POPC   C4A 6234  29.189  21.349   7.650
 3512POPC   C1B 6235  29.152  21.113   8.550
 3512POPC   C2B 6236  29.107  21.103   8.250
 3512POPC   C3B 6237  29.141  21.100   7.950
 3512POPC   C4B 6238  29.184  21.177   7.650
 3513POPC   NC3 6239  12.880   3.559   9.450
 3513POPC   PO4 6240  12.882   3.502   9.150
 3513POPC   GL1 6241  12.838   3.543   8.850
 3513POPC   GL2 6242  12.791   3.475   8.850
 3513POPC   C1A 6243  12.839   3.492   8.550
 3513POPC   D2A 6244  12.896   3.555   8.250
 3513POPC   C3A 6245  12.818   3.520   7.950
 3513POPC   C4A 6246  12.856   3.562   7.650
 3513POPC   C1B 6247  12.651   3.385   8.550
 3513POPC   C2B 6248  12.614   3.367   8.250
 3513POPC   C3B 6249  12.655   3.446   7.950
 3513POPC   C4B 6250  12.643   3.424   7.650
 3514POPC   NC3 6251  36.103   1.165   9.450
 3514POPC   PO4 6252  36.082   1.193   9.150
 3514POPC   GL1 6253  36.145   1.188   8.850
 3514POPC   GL2 6254  35.967   1.255   8.850
 3514POPC   C1A 6255  36.104   1.250   8.550
 3514POPC   D2A 6256  36.153   1.228   8.250
 3514POPC   C3A 6257  36.105   1.247   7.950
 3514POPC   C4A 6258  36.136   1.205   7.650
 3514POPC   C1B 6259  35.857   1.254   8.550
 3514POPC   C2B 6260  35.848   1.264   8.250
 3514POPC   C3B 6261  35.908   1.333   7.950
 3514POPC   C4B 6262  35.878   1.318   7.650
 3515POPC   NC3 6263  15.923   9.706   9.450
 3515POPC   PO4 6264  15.934   9.766   9.150
 3515POPC   GL1 6265  15.957   9.744   8.850
 3515POPC   GL2 6266  15.953   9.854   8.850
 3515POPC   C1A 6267  15.964   9.792   8.550
 3515POPC   D2A 6268  15.930   9.698   8.250
 3515POPC   C3A 6269  15.965   9.782   7.950
 3515POPC   C4A 6270  15.998   9.749   7.650
 3515POPC   C1B 6271  16.050  10.006   8.550
 3515POPC   C2B 6272  16.033  10.010   8.250
 3515POPC   C3B 6273  15.991  10.015   7.950
 3515POPC   C4B 6274  16.033   9.956   7.650
 3516POPC   NC3 6275   3.540  31.505   9.450
 3516POPC   PO4 6276   3.493  31.453   9.150
 3516POPC   GL1 6277   3.533  31.513   8.850
 3516POPC   GL2 6278   3.471  31.551   8.850
 3516POPC   C1A 6279   3.535  31.480   8.550
 3516POPC   D2A 6280   3.534  31.484   8.250
 3516POPC   C3A 6281   3.557  31.510   7.950
 3516POPC   C4A 6282   3.529  31.499   7.650
 3516POPC   C1B 6283   3.376  31.689   8.550
 3516POPC   C2B 6284   3.329  31.675   8.250
 3516POPC   C3B 6285   3.340  31.681   7.950
 3516POPC   C4B 6286   3.350  31.668   7.650
 3517POPC   NC3 6287  32.278   5.829   9.450
 3517POPC   PO4 6288  32.230   5.866   9.150
 3517POPC   GL1 6289  32.199   5.866   8.850
 3517POPC   GL2 6290  32.338   5.820   8.850
 3517POPC   C1A 6291  32.231   5.893   8.550
 3517POPC   D2A 6292  32.231   5.911   8.250
 3517POPC   C3A 6293  32.208   5.836   7.950
 3517POPC   C4A 6294  32.297   5.899   7.650
 3517POPC   C1B 6295  32.448   5.902   8.550
 3517POPC   C2B 6296  32.521   5.853   8.250
 3517POPC   C3B 6297  32.486   5.859   7.950
 3517POPC   C4B 6298  32.473   5.869   7.650
 3518POPC   NC3 6299  43.062  29.969   9.450
 3518POPC   PO4 6300  43.102  29.950   9.150
 3518POPC   GL1 6301  43.087  29.883   8.850
 3518POPC   GL2 6302  43.026  30.059   8.850
 3518POPC   C1A 6303  43.068  29.948   8.550
 3518POPC   D2A 6304  43.123  29.894   8.250
 3518POPC   C3A 6305  43.138  29.894   7.950
 3518POPC   C4A 6306  43.085  29.935   7.650
 3518POPC   C1B 6307  42.981  30.152   8.550
 3518POPC   C2B 6308  42.939  30.115   8.250
 3518POPC   C3B 6309  42.935  30.157   7.950
 3518POPC   C4B 6310  42.964  30.150   7.650
 3519POPC   NC3 6311   7.407  33.757   9.450
 3519POPC   PO4 6312   7.442  33.802   9.150
 3519POPC   GL1 6313   7.436  33.773   8.850
 3519POPC   GL2 6314   7.384  33.707   8.850
 3519POPC   C1A 6315   7.423  33.846   8.550
 3519POPC   D2A 6316   7.424  33.849   8.250
 3519POPC   C3A 6317   7.380  33.831   7.950
 3519POPC   C4A 6318   7.412  33.836   7.650
 3519POPC   C1B 6319   7.375  33.610   8.550
 3519POPC   C2B 6320   7.367  33.592   8.250
 3519POPC   C3B 6321   7.372  33.596   7.950
 3519POPC   C4B 6322   7.310  33.533   7.650
 3520POPC   NC3 6323  26.025  16.766   9.450
 3520POPC   PO4 6324  26.000  16.734   9.150
 3520POPC   GL1 6325  26.018  16.779   8.850
 3520POPC   GL2 6326  26.208  16.733   8.850
 3520POPC   C1A 6327  26.045  16.724   8.550
 3520POPC   D2A 6328  25.999  16.709   8.250
 3520POPC   C3A 6329  26.005  16.777   7.950
 3520POPC   C4A 6330  26.001  16.723   7.650
 3520POPC   C1B 6331  26.281  16.720   8.550
 3520POPC   C2B 6332  26.330  16.728   8.250
 3520POPC   C3B 6333  26.284  16.694   7.950
 3520POPC   C4B 6334  26.333  16.731   7.650
 3521POPC   NC3 6335  40.795  15.962   9.450
 3521POPC   PO4 6336  40.763  15.976   9.150
 3521POPC   GL1 6337  40.765  15.969   8.850
 3521POPC   GL2 6338  40.734  15.849   8.850
 3521POPC   C1A 6339  40.736  16.001   8.550
 3521POPC   D2A 6340  40.750  15.915   8.250
 3521POPC   C3A 6341  40.734  15.944   7.950
 3521POPC   C4A 6342  40.796  15.923   7.650
 3521POPC   C1B 6343  40.678  15.706   8.550
 3521POPC   C2B 6344  40.663  15.696   8.250
 3521POPC   C3B 6345  40.619  15.707   7.950
 3521POPC   C4B 6346  40.661  15.794   7.650
 3522POPC   NC3 6347  40.773   2.799   9.450
 3522POPC   PO4 6348  40.780   2.725   9.150
 3522POPC   GL1 6349  40.826   2.788   8.850
 3522POPC   GL2 6350  40.909   2.727   8.850
 3522POPC   C1A 6351  40.806   2.760   8.550
 3522POPC   D2A 6352  40.772   2.774   8.250
 3522POPC   C3A 6353  40.756   2.720   7.950
 3522POPC   C4A 6354  40.790   2.751   7.650
 3522POPC   C1B 6355  41.060   2.806   8.550
 3522POPC   C2B 6356  41.012   2.761   8.250
 3522POPC   C3B 6357  40.995   2.741   7.950
 3522POPC   C4B 6358  41.079   2.762   7.650
 3523POPC   NC3 6359  44.651   3.560   9.450
 3523POPC   PO4 6360  44.662   3.500   9.150
 3523POPC   GL1 6361  44.613   3.570   8.850
 3523POPC   GL2 6362  44.590   3.424   8.850
 3523POPC   C1A 6363  44.614   3.540   8.550
 3523POPC   D2A 6364  44.696   3.512   8.250
 3523POPC   C3A 6365  44.614   3.562   7.950
 3523POPC   C4A 6366  44.688   3.560   7.650
 3523POPC   C1B 6367  44.513   3.343   8.550
 3523POPC   C2B 6368  44.503   3.388   8.250
 3523POPC   C3B 6369  44.496   3.372   7.950
 3523POPC   C4B 6370  44.449   3.365   7.650
 3524POPC   NC3 6371  19.103  33.052   9.450
 3524POPC   PO4 6372  19.063  33.022   9.150
 3524POPC   GL1 6373  19.101  33.026   8.850
 3524POPC   GL2 6374  19.215  33.029   8.850
 3524POPC   C1A 6375  19.030  32.982   8.550
 3524POPC   D2A 6376  19.105  33.022   8.250
 3524POPC   C3A 6377  19.095  32.978   7.950
 3524POPC   C4A 6378  19.063  33.045   7.650
 3524POPC   C1B 6379  19.341  32.914   8.550
 3524POPC   C2B 6380  19.340  32.980   8.250
 3524POPC   C3B 6381  19.247  32.896   7.950
 3524POPC   C4B 6382  19.263  32.893   7.650
 3525POPC   NC3 6383   5.093  24.482   9.450
 3525POPC   PO4 6384   5.113  24.450   9.150
 3525POPC   GL1 6385   5.089  24.474   8.850
 3525POPC   GL2 6386   5.162  24.358   8.850
 3525POPC   C1A 6387   5.075  24.483   8.550
 3525POPC   D2A 6388   5.100  24.480   8.250
 3525POPC   C3A 6389   5.129  24.446   7.950
 3525POPC   C4A 6390   5.067  24.515   7.650
 3525POPC   C1B 6391   5.264  24.300   8.550
 3525POPC   C2B 6392   5.188  24.290   8.250
 3525POPC   C3B 6393   5.228  24.298   7.950
 3525POPC   C4B 6394   5.220  24.232   7.650
 3526POPC   NC3 6395   7.424  12.045   9.450
 3526POPC   PO4 6396   7.429  12.069   9.150
 3526POPC   GL1 6397   7.409  12.031   8.850
 3526POPC   GL2 6398   7.488  12.126   8.850
 3526POPC   C1A 6399   7.414  12.060   8.550
 3526POPC   D2A 6400   7.425  12.082   8.250
 3526POPC   C3A 6401   7.444  12.043   7.950
 3526POPC   C4A 6402   7.410  12.054   7.650
 3526POPC   C1B 6403   7.656  12.247   8.550
 3526POPC   C2B 6404   7.626  12.162   8.250
 3526POPC   C3B 6405   7.678  12.154   7.950
 3526POPC   C4B 6406   7.682  12.173   7.650
 3527POPC   NC3 6407  34.549  43.904   9.450
 3527POPC   PO4 6408  34.555  43.853   9.150
 3527POPC   GL1 6409  34.583  43.899   8.850
 3527POPC   GL2 6410  34.712  43.959   8.850
 3527POPC   C1A 6411  34.551  43.842   8.550
 3527POPC   D2A 6412  34.623  43.854   8.250
 3527POPC   C3A 6413  34.610  43.889   7.950
 3527POPC   C4A 6414  34.564  43.858   7.650
 3527POPC   C1B 6415  34.730  44.107   8.550
 3527POPC   C2B 6416  34.707  44.033   8.250
 3527POPC   C3B 6417  34.791  44.066   7.950
 3527POPC   C4B 6418  34.745  44.088   7.650
 3528POPC   NC3 6419  18.274  24.514   9.450
 3528POPC   PO4 6420  18.281  24.504   9.150
 3528POPC   GL1 6421  18.278  24.454   8.850
 3528POPC   GL2 6422  18.292  24.409   8.850
 3528POPC   C1A 6423  18.307  24.463   8.550
 3528POPC   D2A 6424  18.272  24.509   8.250
 3528POPC   C3A 6425  18.242  24.465   7.950
 3528POPC   C4A 6426  18.265  24.468   7.650
 3528POPC   C1B 6427  18.201  24.217   8.550
 3528POPC   C2B 6428  18.245  24.234   8.250
 3528POPC   C3B 6429  18.200  24.228   7.950
 3528POPC   C4B 6430  18.185  24.229   7.650
 3529POPC   NC3 6431  25.257  35.397   9.450
 3529POPC   PO4 6432  25.311  35.396   9.150
 3529POPC   GL1 6433  25.305  35.385   8.850
 3529POPC   GL2 6434  25.111  35.350   8.850
 3529POPC   C1A 6435  25.217  35.315   8.550
 3529POPC   D2A 6436  25.262  35.371   8.250
 3529POPC   C3A 6437  25.302  35.371   7.950
 3529POPC   C4A 6438  25.257  35.324   7.650
 3529POPC   C1B 6439  24.993  35.349   8.550
 3529POPC   C2B 6440  25.059  35.374   8.250
 3529POPC   C3B 6441  25.054  35.332   7.950
 3529POPC   C4B 6442  25.008  35.401   7.650
 3530POPC   NC3 6443  19.038  43.903   9.450
 3530POPC   PO4 6444  19.030  43.850   9.150
 3530POPC   GL1 6445  19.073  43.880   8.850
 3530POPC   GL2 6446  19.121  43.785   8.850
 3530POPC   C1A 6447  19.022  43.845   8.550
 3530POPC   D2A 6448  19.016  43.891   8.250
 3530POPC   C3A 6449  19.072  43.926   7.950
 3530POPC   C4A 6450  19.015  43.837   7.650
 3530POPC   C1B 6451  19.098  43.645   8.550
 3530POPC   C2B 6452  19.143  43.678   8.250
 3530POPC   C3B 6453  19.130  43.638   7.950
 3530POPC   C4B 6454  19.166  43.671   7.650
 3531POPC   NC3 6455  24.460  12.026   9.450
 3531POPC   PO4 6456  24.480  12.048   9.150
 3531POPC   GL1 6457  24.512  12.037   8.850
 3531POPC   GL2 6458  24.377  12.089   8.850
 3531POPC   C1A 6459  24.505  12.071   8.550
 3531POPC   D2A 6460  24.514  12.051   8.250
 3531POPC   C3A 6461  24.509  12.074   7.950
 3531POPC   C4A 6462  24.470  12.099   7.650
 3531POPC   C1B 6463  24.211  12.111   8.550
 3531POPC   C2B 6464  24.198  12.160   8.250
 3531POPC   C3B 6465  24.260  12.120   7.950
 3531POPC   C4B 6466  24.268  12.145   7.650
 3532POPC   NC3 6467  21.399  42.295   9.450
 3532POPC   PO4 6468  21.345  42.371   9.150
 3532POPC   GL1 6469  21.397  42.317   8.850
 3532POPC   GL2 6470  21.377  42.428   8.850
 3532POPC   C1A 6471  21.419  42.300   8.550
 3532POPC   D2A 6472  21.366  42.303   8.250
 3532POPC   C3A 6473  21.408  42.312   7.950
 3532POPC   C4A 6474  21.428  42.352   7.650
 3532POPC   C1B 6475  21.305  42.584   8.550
 3532POPC   C2B 6476  21.358  42.556   8.250
 3532POPC   C3B 6477  21.330  42.601   7.950
 3532POPC   C4B 6478  21.355  42.591   7.650
 3533POPC   NC3 6479  21.388  17.533   9.450
 3533POPC   PO4 6480  21.399  17.465   9.150
 3533POPC   GL1 6481  21.343  17.467   8.850
 3533POPC   GL2 6482  21.516  17.526   8.850
 3533POPC   C1A 6483  21.401  17.459   8.550
 3533POPC   D2A 6484  21.360  17.503   8.250
 3533POPC   C3A 6485  21.419  17.457   7.950
 3533POPC   C4A 6486  21.419  17.535   7.650
 3533POPC   C1B 6487  21.630  17.621   8.550
 3533POPC   C2B 6488  21.664  17.599   8.250
 3533POPC   C3B 6489  21.656  17.601   7.950
 3533POPC   C4B 6490  21.674  17.570   7.650
 3534POPC   NC3 6491  22.184  31.481   9.450
 3534POPC   PO4 6492  22.179  31.508   9.150
 3534POPC   GL1 6493  22.159  31.503   8.850
 3534POPC   GL2 6494  22.251  31.329   8.850
 3534POPC   C1A 6495  22.180  31.519   8.550
 3534POPC   D2A 6496  22.147  31.442   8.250
 3534POPC   C3A 6497  22.205  31.452   7.950
 3534POPC   C4A 6498  22.176  31.465   7.650
 3534POPC   C1B 6499  22.232  31.238   8.550
 3534POPC   C2B 6500  22.287  31.198   8.250
 3534POPC   C3B 6501  22.212  31.201   7.950
 3534POPC   C4B 6502  22.238  31.198   7.650
 3535POPC   NC3 6503  37.726   6.666   9.450
 3535POPC   PO4 6504  37.636   6.622   9.150
 3535POPC   GL1 6505  37.681   6.608   8.850
 3535POPC   GL2 6506  37.634   6.770   8.850
 3535POPC   C1A 6507  37.651   6.618   8.550
 3535POPC   D2A 6508  37.689   6.620   8.250
 3535POPC   C3A 6509  37.643   6.609   7.950
 3535POPC   C4A 6510  37.702   6.665   7.650
 3535POPC   C1B 6511  37.577   6.802   8.550
 3535POPC   C2B 6512  37.572   6.795   8.250
 3535POPC   C3B 6513  37.540   6.890   7.950
 3535POPC   C4B 6514  37.559   6.809   7.650
 3536POPC   NC3 6515  19.047   6.664   9.450
 3536POPC   PO4 6516  19.015   6.619   9.150
 3536POPC   GL1 6517  19.042   6.648   8.850
 3536POPC   GL2 6518  18.889   6.638   8.850
 3536POPC   C1A 6519  19.026   6.661   8.550
 3536POPC   D2A 6520  19.058   6.616   8.250
 3536POPC   C3A 6521  19.050   6.621   7.950
 3536POPC   C4A 6522  19.048   6.627   7.650
 3536POPC   C1B 6523  18.800   6.669   8.550
 3536POPC   C2B 6524  18.793   6.704   8.250
 3536POPC   C3B 6525  18.791   6.706   7.950
 3536POPC   C4B 6526  18.822   6.652   7.650
 3537POPC   NC3 6527   8.984  43.891   9.450
 3537POPC   PO4 6528   8.923  43.933   9.150
 3537POPC   GL1 6529   9.019  43.907   8.850
 3537POPC   GL2 6530   8.864  43.946   8.850
 3537POPC   C1A 6531   8.952  43.855   8.550
 3537POPC   D2A 6532   8.999  43.879   8.250
 3537POPC   C3A 6533   9.011  43.879   7.950
 3537POPC   C4A 6534   8.987  43.843   7.650
 3537POPC   C1B 6535   8.679  43.893   8.550
 3537POPC   C2B 6536   8.694  43.886   8.250
 3537POPC   C3B 6537   8.722  43.962   7.950
 3537POPC   C4B 6538   8.700  43.960   7.650
 3538POPC   NC3 6539  21.404   3.560   9.450
 3538POPC   PO4 6540  21.377   3.497   9.150
 3538POPC   GL1 6541  21.341   3.573   8.850
 3538POPC   GL2 6542  21.501   3.462   8.850
 3538POPC   C1A 6543  21.433   3.518   8.550
 3538POPC   D2A 6544  21.345   3.580   8.250
 3538POPC   C3A 6545  21.354   3.504   7.950
 3538POPC   C4A 6546  21.364   3.540   7.650
 3538POPC   C1B 6547  21.549   3.343   8.550
 3538POPC   C2B 6548  21.605   3.355   8.250
 3538POPC   C3B 6549  21.533   3.396   7.950
 3538POPC   C4B 6550  21.590   3.336   7.650
 3539POPC   NC3 6551   9.771  11.277   9.450
 3539POPC   PO4 6552   9.790  11.255   9.150
 3539POPC   GL1 6553   9.789  11.311   8.850
 3539POPC   GL2 6554   9.910  11.295   8.850
 3539POPC   C1A 6555   9.703  11.262   8.550
 3539POPC   D2A 6556   9.781  11.322   8.250
 3539POPC   C3A 6557   9.764  11.306   7.950
 3539POPC   C4A 6558   9.713  11.255   7.650
 3539POPC   C1B 6559   9.994  11.354   8.550
 3539POPC   C2B 6560   9.976  11.369   8.250
 3539POPC   C3B 6561   9.966  11.417   7.950
 3539POPC   C4B 6562   9.994  11.391   7.650
 3540POPC   NC3 6563  13.592   8.937   9.450
 3540POPC   PO4 6564  13.620   8.941   9.150
 3540POPC   GL1 6565  13.597   9.018   8.850
 3540POPC   GL2 6566  13.550   8.856   8.850
 3540POPC   C1A 6567  13.598   8.956   8.550
 3540POPC   D2A 6568  13.635   8.954   8.250
 3540POPC   C3A 6569  13.590   8.982   7.950
 3540POPC   C4A 6570  13.639   8.976   7.650
 3540POPC   C1B 6571  13.446   8.801   8.550
 3540POPC   C2B 6572  13.384   8.805   8.250
 3540POPC   C3B 6573  13.381   8.791   7.950
 3540POPC   C4B 6574  13.426   8.790   7.650
 3541POPC   NC3 6575  16.749   8.154   9.450
 3541POPC   PO4 6576  16.726   8.215   9.150
 3541POPC   GL1 6577  16.748   8.194   8.850
 3541POPC   GL2 6578  16.655   8.189   8.850
 3541POPC   C1A 6579  16.720   8.163   8.550
 3541POPC   D2A 6580  16.739   8.152   8.250
 3541POPC   C3A 6581  16.709   8.157   7.950
 3541POPC   C4A 6582  16.692   8.151   7.650
 3541POPC   C1B 6583  16.479   8.162   8.550
 3541POPC   C2B 6584  16.528   8.095   8.250
 3541POPC   C3B 6585  16.455   8.111   7.950
 3541POPC   C4B 6586  16.459   8.170   7.650
 3542POPC   NC3 6587  15.197  15.958   9.450
 3542POPC   PO4 6588  15.204  15.982   9.150
 3542POPC   GL1 6589  15.228  15.906   8.850
 3542POPC   GL2 6590  15.270  15.985   8.850
 3542POPC   C1A 6591  15.227  15.951   8.550
 3542POPC   D2A 6592  15.182  15.927   8.250
 3542POPC   C3A 6593  15.209  15.917   7.950
 3542POPC   C4A 6594  15.160  15.947   7.650
 3542POPC   C1B 6595  15.418  16.011   8.550
 3542POPC   C2B 6596  15.415  16.028   8.250
 3542POPC   C3B 6597  15.440  16.036   7.950
 3542POPC   C4B 6598  15.426  16.082   7.650
 3543POPC   NC3 6599   8.970  31.446   9.450
 3543POPC   PO4 6600   8.961  31.430   9.150
 3543POPC   GL1 6601   8.968  31.438   8.850
 3543POPC   GL2 6602   8.952  31.595   8.850
 3543POPC   C1A 6603   8.943  31.449   8.550
 3543POPC   D2A 6604   8.938  31.484   8.250
 3543POPC   C3A 6605   8.992  31.468   7.950
 3543POPC   C4A 6606   9.013  31.436   7.650
 3543POPC   C1B 6607   8.972  31.722   8.550
 3543POPC   C2B 6608   8.981  31.695   8.250
 3543POPC   C3B 6609   8.997  31.720   7.950
 3543POPC   C4B 6610   9.023  31.771   7.650
 3544POPC   NC3 6611  24.508   9.798   9.450
 3544POPC   PO4 6612  24.482   9.720   9.150
 3544POPC   GL1 6613  24.509   9.754   8.850
 3544POPC   GL2 6614  24.414   9.857   8.850
 3544POPC   C1A 6615  24.459   9.732   8.550
 3544POPC   D2A 6616  24.511   9.774   8.250
 3544POPC   C3A 6617  24.486   9.719   7.950
 3544POPC   C4A 6618  24.511   9.704   7.650
 3544POPC   C1B 6619  24.379   9.918   8.550
 3544POPC   C2B 6620  24.326   9.948   8.250
 3544POPC   C3B 6621  24.388   9.934   7.950
 3544POPC   C4B 6622  24.329   9.992   7.650
 3545POPC   NC3 6623   8.246  22.130   9.450
 3545POPC   PO4 6624   8.148  22.174   9.150
 3545POPC   GL1 6625   8.229  22.118   8.850
 3545POPC   GL2 6626   8.332  22.112   8.850
 3545POPC   C1A 6627   8.237  22.205   8.550
 3545POPC   D2A 6628   8.225  22.154   8.250
 3545POPC   C3A 6629   8.172  22.175   7.950
 3545POPC   C4A 6630   8.186  22.211   7.650
 3545POPC   C1B 6631   8.419  22.155   8.550
 3545POPC   C2B 6632   8.412  22.127   8.250
 3545POPC   C3B 6633   8.401  22.097   7.950
 3545POPC   C4B 6634   8.394  22.152   7.650
 3546POPC   NC3 6635  22.177  30.713   9.450
 3546POPC   PO4 6636  22.151  30.742   9.150
 3546POPC   GL1 6637  22.203  30.733   8.850
 3546POPC   GL2 6638  22.017  30.797   8.850
 3546POPC   C1A 6639  22.157  30.676   8.550
 3546POPC   D2A 6640  22.210  30.699   8.250
 3546POPC   C3A 6641  22.135  30.674   7.950
 3546POPC   C4A 6642  22.115  30.709   7.650
 3546POPC   C1B 6643  22.002  30.886   8.550
 3546POPC   C2B 6644  21.989  30.809   8.250
 3546POPC   C3B 6645  21.970  30.856   7.950
 3546POPC   C4B 6646  21.927  30.823   7.650
 3547POPC   NC3 6647  35.374  41.559   9.450
 3547POPC   PO4 6648  35.349  41.567   9.150
 3547POPC   GL1 6649  35.338  41.570   8.850
 3547POPC   GL2 6650  35.217  41.582   8.850
 3547POPC   C1A 6651  35.319  41.556   8.550
 3547POPC   D2A 6652  35.368  41.540   8.250
 3547POPC   C3A 6653  35.311  41.584   7.950
 3547POPC   C4A 6654  35.314  41.608   7.650
 3547POPC   C1B 6655  35.056  41.584   8.550
 3547POPC   C2B 6656  35.070  41.522   8.250
 3547POPC   C3B 6657  35.121  41.565   7.950
 3547POPC   C4B 6658  35.073  41.575   7.650
 3548POPC   NC3 6659  30.695  38.483   9.450
 3548POPC   PO4 6660  30.727  38.500   9.150
 3548POPC   GL1 6661  30.683  38.437   8.850
 3548POPC   GL2 6662  30.800  38.440   8.850
 3548POPC   C1A 6663  30.694  38.486   8.550
 3548POPC   D2A 6664  30.727  38.433   8.250
 3548POPC   C3A 6665  30.651  38.440   7.950
 3548POPC   C4A 6666  30.740  38.468   7.650
 3548POPC   C1B 6667  30.950  38.489   8.550
 3548POPC   C2B 6668  30.938  38.553   8.250
 3548POPC   C3B 6669  30.913  38.494   7.950
 3548POPC   C4B 6670  30.913  38.532   7.650
 3549POPC   NC3 6671  39.202  17.544   9.450
 3549POPC   PO4 6672  39.213  17.551   9.150
 3549POPC   GL1 6673  39.281  17.461   8.850
 3549POPC   GL2 6674  39.246  17.381   8.850
 3549POPC   C1A 6675  39.239  17.490   8.550
 3549POPC   D2A 6676  39.277  17.543   8.250
 3549POPC   C3A 6677  39.238  17.486   7.950
 3549POPC   C4A 6678  39.196  17.460   7.650
 3549POPC   C1B 6679  39.344  17.292   8.550
 3549POPC   C2B 6680  39.311  17.321   8.250
 3549POPC   C3B 6681  39.354  17.240   7.950
 3549POPC   C4B 6682  39.381  17.255   7.650
 3550POPC   NC3 6683  31.458  13.673   9.450
 3550POPC   PO4 6684  31.424  13.630   9.150
 3550POPC   GL1 6685  31.478  13.638   8.850
 3550POPC   GL2 6686  31.642  13.648   8.850
 3550POPC   C1A 6687  31.467  13.617   8.550
 3550POPC   D2A 6688  31.480  13.627   8.250
 3550POPC   C3A 6689  31.495  13.622   7.950
 3550POPC   C4A 6690  31.435  13.648   7.650
 3550POPC   C1B 6691  31.696  13.610   8.550
 3550POPC   C2B 6692  31.689  13.610   8.250
 3550POPC   C3B 6693  31.758  13.645   7.950
 3550POPC   C4B 6694  31.718  13.668   7.650
 3551POPC   NC3 6695   2.004  43.100   9.450
 3551POPC   PO4 6696   2.011  43.061   9.150
 3551POPC   GL1 6697   2.029  43.149   8.850
 3551POPC   GL2 6698   1.895  43.012   8.850
 3551POPC   C1A 6699   1.952  43.147   8.550
 3551POPC   D2A 6700   1.949  43.111   8.250
 3551POPC   C3A 6701   1.993  43.119   7.950
 3551POPC   C4A 6702   2.037  43.119   7.650
 3551POPC   C1B 6703   1.878  42.883   8.550
 3551POPC   C2B 6704   1.862  42.872   8.250
 3551POPC   C3B 6705   1.797  42.893   7.950
 3551POPC   C4B 6706   1.788  42.924   7.650
 3552POPC   NC3 6707  37.703  40.762   9.450
 3552POPC   PO4 6708  37.710  40.749   9.150
 3552POPC   GL1 6709  37.709  40.795   8.850
 3552POPC   GL2 6710  37.735  40.848   8.850
 3552POPC   C1A 6711  37.642  40.813   8.550
 3552POPC   D2A 6712  37.662  40.735   8.250
 3552POPC   C3A 6713  37.637  40.753   7.950
 3552POPC   C4A 6714  37.645  40.736   7.650
 3552POPC   C1B 6715  37.866  40.976   8.550
 3552POPC   C2B 6716  37.883  40.971   8.250
 3552POPC   C3B 6717  37.810  40.955   7.950
 3552POPC   C4B 6718  37.852  40.932   7.650
 3553POPC   NC3 6719  26.849  39.240   9.450
 3553POPC   PO4 6720  26.829  39.194   9.150
 3553POPC   GL1 6721  26.768  39.207   8.850
 3553POPC   GL2 6722  26.869  39.352   8.850
 3553POPC   C1A 6723  26.815  39.264   8.550
 3553POPC   D2A 6724  26.777  39.264   8.250
 3553POPC   C3A 6725  26.811  39.272   7.950
 3553POPC   C4A 6726  26.850  39.233   7.650
 3553POPC   C1B 6727  27.046  39.425   8.550
 3553POPC   C2B 6728  27.051  39.374   8.250
 3553POPC   C3B 6729  27.007  39.417   7.950
 3553POPC   C4B 6730  26.965  39.431   7.650
 3554POPC   NC3 6731  38.406  40.773   9.450
 3554POPC   PO4 6732  38.430  40.797   9.150
 3554POPC   GL1 6733  38.494  40.791   8.850
 3554POPC   GL2 6734  38.572  40.675   8.850
 3554POPC   C1A 6735  38.459  40.788   8.550
 3554POPC   D2A 6736  38.410  40.743   8.250
 3554POPC   C3A 6737  38.448  40.823   7.950
 3554POPC   C4A 6738  38.476  40.818   7.650
 3554POPC   C1B 6739  38.677  40.689   8.550
 3554POPC   C2B 6740  38.621  40.622   8.250
 3554POPC   C3B 6741  38.641  40.669   7.950
 3554POPC   C4B 6742  38.694  40.623   7.650
 3555POPC   NC3 6743  26.821  39.987   9.450
 3555POPC   PO4 6744  26.842  40.012   9.150
 3555POPC   GL1 6745  26.849  40.047   8.850
 3555POPC   GL2 6746  26.746  40.083   8.850
 3555POPC   C1A 6747  26.794  40.015   8.550
 3555POPC   D2A 6748  26.801  40.044   8.250
 3555POPC   C3A 6749  26.781  40.029   7.950
 3555POPC   C4A 6750  26.831  40.055   7.650
 3555POPC   C1B 6751  26.659  40.152   8.550
 3555POPC   C2B 6752  26.635  40.110   8.250
 3555POPC   C3B 6753  26.575  40.156   7.950
 3555POPC   C4B 6754  26.586  40.176   7.650
 3556POPC   NC3 6755  40.733   9.732   9.450
 3556POPC   PO4 6756  40.781   9.718   9.150
 3556POPC   GL1 6757  40.747   9.782   8.850
 3556POPC   GL2 6758  40.714   9.681   8.850
 3556POPC   C1A 6759  40.735   9.797   8.550
 3556POPC   D2A 6760  40.816   9.789   8.250
 3556POPC   C3A 6761  40.746   9.761   7.950
 3556POPC   C4A 6762  40.804   9.767   7.650
 3556POPC   C1B 6763  40.630   9.478   8.550
 3556POPC   C2B 6764  40.725   9.569   8.250
 3556POPC   C3B 6765  40.632   9.473   7.950
 3556POPC   C4B 6766  40.652   9.567   7.650
 3557POPC   NC3 6767  44.653  31.495   9.450
 3557POPC   PO4 6768  44.699  31.429   9.150
 3557POPC   GL1 6769  44.664  31.477   8.850
 3557POPC   GL2 6770  44.734  31.575   8.850
 3557POPC   C1A 6771  44.690  31.429   8.550
 3557POPC   D2A 6772  44.694  31.495   8.250
 3557POPC   C3A 6773  44.662  31.460   7.950
 3557POPC   C4A 6774  44.692  31.448   7.650
 3557POPC   C1B 6775  44.765  31.678   8.550
 3557POPC   C2B 6776  44.784  31.705   8.250
 3557POPC   C3B 6777  44.841  31.717   7.950
 3557POPC   C4B 6778  44.778  31.645   7.650
 3558POPC   NC3 6779  36.104  42.370   9.450
 3558POPC   PO4 6780  36.097  42.306   9.150
 3558POPC   GL1 6781  36.172  42.346   8.850
 3558POPC   GL2 6782  36.229  42.399   8.850
 3558POPC   C1A 6783  36.094  42.291   8.550
 3558POPC   D2A 6784  36.145  42.379   8.250
 3558POPC   C3A 6785  36.136  42.311   7.950
 3558POPC   C4A 6786  36.142  42.308   7.650
 3558POPC   C1B 6787  36.348  42.485   8.550
 3558POPC   C2B 6788  36.371  42.455   8.250
 3558POPC   C3B 6789  36.347  42.418   7.950
 3558POPC   C4B 6790  36.327  42.502   7.650
 3559POPC   NC3 6791  22.977   5.898   9.450
 3559POPC   PO4 6792  22.932   5.832   9.150
 3559POPC   GL1 6793  22.945   5.919   8.850
 3559POPC   GL2 6794  22.948   5.988   8.850
 3559POPC   C1A 6795  22.890   5.864   8.550
 3559POPC   D2A 6796  22.916   5.911   8.250
 3559POPC   C3A 6797  22.951   5.895   7.950
 3559POPC   C4A 6798  22.926   5.882   7.650
 3559POPC   C1B 6799  22.967   6.111   8.550
 3559POPC   C2B 6800  22.932   6.079   8.250
 3559POPC   C3B 6801  22.879   6.162   7.950
 3559POPC   C4B 6802  22.962   6.101   7.650
 3560POPC   NC3 6803  42.326   1.243   9.450
 3560POPC   PO4 6804  42.342   1.247   9.150
 3560POPC   GL1 6805  42.293   1.246   8.850
 3560POPC   GL2 6806  42.239   1.303   8.850
 3560POPC   C1A 6807  42.379   1.180   8.550
 3560POPC   D2A 6808  42.292   1.175   8.250
 3560POPC   C3A 6809  42.318   1.180   7.950
 3560POPC   C4A 6810  42.375   1.248   7.650
 3560POPC   C1B 6811  42.186   1.465   8.550
 3560POPC   C2B 6812  42.194   1.462   8.250
 3560POPC   C3B 6813  42.258   1.441   7.950
 3560POPC   C4B 6814  42.223   1.477   7.650
 3561POPC   NC3 6815  24.468   8.147   9.450
 3561POPC   PO4 6816  24.531   8.224   9.150
 3561POPC   GL1 6817  24.466   8.162   8.850
 3561POPC   GL2 6818  24.471   8.301   8.850
 3561POPC   C1A 6819  24.526   8.246   8.550
 3561POPC   D2A 6820  24.514   8.154   8.250
 3561POPC   C3A 6821  24.457   8.227   7.950
 3561POPC   C4A 6822  24.532   8.237   7.650
 3561POPC   C1B 6823  24.455   8.450   8.550
 3561POPC   C2B 6824  24.422   8.444   8.250
 3561POPC   C3B 6825  24.501   8.432   7.950
 3561POPC   C4B 6826  24.493   8.495   7.650
 3562POPC   NC3 6827  23.664  40.742   9.450
 3562POPC   PO4 6828  23.738  40.822   9.150
 3562POPC   GL1 6829  23.759  40.804   8.850
 3562POPC   GL2 6830  23.763  40.923   8.850
 3562POPC   C1A 6831  23.698  40.752   8.550
 3562POPC   D2A 6832  23.689  40.743   8.250
 3562POPC   C3A 6833  23.714  40.785   7.950
 3562POPC   C4A 6834  23.714  40.811   7.650
 3562POPC   C1B 6835  23.812  40.947   8.550
 3562POPC   C2B 6836  23.853  41.010   8.250
 3562POPC   C3B 6837  23.828  41.004   7.950
 3562POPC   C4B 6838  23.863  40.993   7.650
 3563POPC   NC3 6839  33.073  33.802   9.450
 3563POPC   PO4 6840  33.055  33.825   9.150
 3563POPC   GL1 6841  33.039  33.779   8.850
 3563POPC   GL2 6842  32.985  33.951   8.850
 3563POPC   C1A 6843  33.001  33.799   8.550
 3563POPC   D2A 6844  33.018  33.844   8.250
 3563POPC   C3A 6845  33.042  33.819   7.950
 3563POPC   C4A 6846  32.994  33.759   7.650
 3563POPC   C1B 6847  32.935  34.039   8.550
 3563POPC   C2B 6848  32.904  34.020   8.250
 3563POPC   C3B 6849  32.929  33.985   7.950
 3563POPC   C4B 6850  32.941  34.058   7.650
 3564POPC   NC3 6851  30.704  18.248   9.450
 3564POPC   PO4 6852  30.739  18.305   9.150
 3564POPC   GL1 6853  30.701  18.295   8.850
 3564POPC   GL2 6854  30.698  18.383   8.850
 3564POPC   C1A 6855  30.733  18.255   8.550
 3564POPC   D2A 6856  30.658  18.315   8.250
 3564POPC   C3A 6857  30.683  18.236   7.950
 3564POPC   C4A 6858  30.736  18.324   7.650
 3564POPC   C1B 6859  30.709  18.572   8.550
 3564POPC   C2B 6860  30.792  18.563   8.250
 3564POPC   C3B 6861  30.787  18.559   7.950
 3564POPC   C4B 6862  30.781  18.530   7.650
 3565POPC   NC3 6863   6.655  42.350   9.450
 3565POPC   PO4 6864   6.669  42.297   9.150
 3565POPC   GL1 6865   6.632  42.371   8.850
 3565POPC   GL2 6866   6.651  42.205   8.850
 3565POPC   C1A 6867   6.621  42.312   8.550
 3565POPC   D2A 6868   6.600  42.374   8.250
 3565POPC   C3A 6869   6.662  42.310   7.950
 3565POPC   C4A 6870   6.650  42.371   7.650
 3565POPC   C1B 6871   6.651  42.132   8.550
 3565POPC   C2B 6872   6.596  42.081   8.250
 3565POPC   C3B 6873   6.662  42.129   7.950
 3565POPC   C4B 6874   6.677  42.056   7.650
 3566POPC   NC3 6875  15.183  28.394   9.450
 3566POPC   PO4 6876  15.179  28.354   9.150
 3566POPC   GL1 6877  15.140  28.352   8.850
 3566POPC   GL2 6878  15.228  28.513   8.850
 3566POPC   C1A 6879  15.212  28.367   8.550
 3566POPC   D2A 6880  15.160  28.323   8.250
 3566POPC   C3A 6881  15.219  28.341   7.950
 3566POPC   C4A 6882  15.169  28.322   7.650
 3566POPC   C1B 6883  15.237  28.581   8.550
 3566POPC   C2B 6884  15.259  28.644   8.250
 3566POPC   C3B 6885  15.204  28.603   7.950
 3566POPC   C4B 6886  15.248  28.620   7.650
 3567POPC   NC3 6887  11.287  36.141   9.450
 3567POPC   PO4 6888  11.282  36.156   9.150
 3567POPC   GL1 6889  11.312  36.163   8.850
 3567POPC   GL2 6890  11.312  35.955   8.850
 3567POPC   C1A 6891  11.288  36.121   8.550
 3567POPC   D2A 6892  11.292  36.143   8.250
 3567POPC   C3A 6893  11.324  36.140   7.950
 3567POPC   C4A 6894  11.321  36.088   7.650
 3567POPC   C1B 6895  11.325  35.896   8.550
 3567POPC   C2B 6896  11.357  35.867   8.250
 3567POPC   C3B 6897  11.295  35.892   7.950
 3567POPC   C4B 6898  11.321  35.915   7.650
 3568POPC   NC3 6899  24.496  16.733   9.450
 3568POPC   PO4 6900  24.488  16.723   9.150
 3568POPC   GL1 6901  24.467  16.759   8.850
 3568POPC   GL2 6902  24.372  16.656   8.850
 3568POPC   C1A 6903  24.534  16.702   8.550
 3568POPC   D2A 6904  24.523  16.736   8.250
 3568POPC   C3A 6905  24.507  16.726   7.950
 3568POPC   C4A 6906  24.473  16.714   7.650
 3568POPC   C1B 6907  24.219  16.679   8.550
 3568POPC   C2B 6908  24.260  16.714   8.250
 3568POPC   C3B 6909  24.274  16.685   7.950
 3568POPC   C4B 6910  24.208  16.644   7.650
 3569POPC   NC3 6911  30.678  13.660   9.450
 3569POPC   PO4 6912  30.708  13.673   9.150
 3569POPC   GL1 6913  30.667  13.587   8.850
 3569POPC   GL2 6914  30.575  13.597   8.850
 3569POPC   C1A 6915  30.707  13.605   8.550
 3569POPC   D2A 6916  30.680  13.579   8.250
 3569POPC   C3A 6917  30.703  13.643   7.950
 3569POPC   C4A 6918  30.707  13.632   7.650
 3569POPC   C1B 6919  30.492  13.562   8.550
 3569POPC   C2B 6920  30.443  13.517   8.250
 3569POPC   C3B 6921  30.501  13.534   7.950
 3569POPC   C4B 6922  30.492  13.575   7.650
 3570POPC   NC3 6923   4.367  33.754   9.450
 3570POPC   PO4 6924   4.325  33.800   9.150
 3570POPC   GL1 6925   4.293  33.820   8.850
 3570POPC   GL2 6926   4.224  33.685   8.850
 3570POPC   C1A 6927   4.319  33.766   8.550
 3570POPC   D2A 6928   4.352  33.765   8.250
 3570POPC   C3A 6929   4.276  33.791   7.950
 3570POPC   C4A 6930   4.326  33.800   7.650
 3570POPC   C1B 6931   4.121  33.608   8.550
 3570POPC   C2B 6932   4.184  33.624   8.250
 3570POPC   C3B 6933   4.109  33.597   7.950
 3570POPC   C4B 6934   4.114  33.630   7.650
 3571POPC   NC3 6935  44.657  10.574   9.450
 3571POPC   PO4 6936  44.623  10.523   9.150
 3571POPC   GL1 6937  44.680  10.537   8.850
 3571POPC   GL2 6938  44.790  10.511   8.850
 3571POPC   C1A 6939  44.663  10.500   8.550
 3571POPC   D2A 6940  44.650  10.554   8.250
 3571POPC   C3A 6941  44.637  10.487   7.950
 3571POPC   C4A 6942  44.618  10.491   7.650
 3571POPC   C1B 6943  44.936  10.559   8.550
 3571POPC   C2B 6944  44.877  10.532   8.250
 3571POPC   C3B 6945  44.912  10.599   7.950
 3571POPC   C4B 6946  44.923  10.606   7.650
 3572POPC   NC3 6947   2.002  19.866   9.450
 3572POPC   PO4 6948   1.985  19.857   9.150
 3572POPC   GL1 6949   1.948  19.827   8.850
 3572POPC   GL2 6950   1.907  19.873   8.850
 3572POPC   C1A 6951   1.980  19.796   8.550
 3572POPC   D2A 6952   1.940  19.814   8.250
 3572POPC   C3A 6953   1.997  19.828   7.950
 3572POPC   C4A 6954   2.024  19.802   7.650
 3572POPC   C1B 6955   1.777  19.952   8.550
 3572POPC   C2B 6956   1.810  19.978   8.250
 3572POPC   C3B 6957   1.806  19.994   7.950
 3572POPC   C4B 6958   1.734  19.980   7.650
 3573POPC   NC3 6959   6.616  18.301   9.450
 3573POPC   PO4 6960   6.648  18.292   9.150
 3573POPC   GL1 6961   6.604  18.295   8.850
 3573POPC   GL2 6962   6.520  18.270   8.850
 3573POPC   C1A 6963   6.684  18.299   8.550
 3573POPC   D2A 6964   6.683  18.263   8.250
 3573POPC   C3A 6965   6.649  18.250   7.950
 3573POPC   C4A 6966   6.651  18.263   7.650
 3573POPC   C1B 6967   6.381  18.213   8.550
 3573POPC   C2B 6968   6.367  18.195   8.250
 3573POPC   C3B 6969   6.394  18.180   7.950
 3573POPC   C4B 6970   6.400  18.157   7.650
 3574POPC   NC3 6971  22.962  36.160   9.450
 3574POPC   PO4 6972  22.945  36.105   9.150
 3574POPC   GL1 6973  22.988  36.122   8.850
 3574POPC   GL2 6974  22.906  36.240   8.850
 3574POPC   C1A 6975  22.972  36.155   8.550
 3574POPC   D2A 6976  22.984  36.105   8.250
 3574POPC   C3A 6977  22.925  36.166   7.950
 3574POPC   C4A 6978  22.956  36.084   7.650
 3574POPC   C1B 6979  22.856  36.360   8.550
 3574POPC   C2B 6980  22.865  36.388   8.250
 3574POPC   C3B 6981  22.775  36.316   7.950
 3574POPC   C4B 6982  22.854  36.342   7.650
 3575POPC   NC3 6983  13.586   5.061   9.450
 3575POPC   PO4 6984  13.642   5.096   9.150
 3575POPC   GL1 6985  13.617   5.065   8.850
 3575POPC   GL2 6986  13.647   4.982   8.850
 3575POPC   C1A 6987  13.581   5.112   8.550
 3575POPC   D2A 6988  13.613   5.079   8.250
 3575POPC   C3A 6989  13.584   5.083   7.950
 3575POPC   C4A 6990  13.614   5.074   7.650
 3575POPC   C1B 6991  13.702   4.835   8.550
 3575POPC   C2B 6992  13.702   4.899   8.250
 3575POPC   C3B 6993  13.688   4.873   7.950
 3575POPC   C4B 6994  13.654   4.810   7.650
 3576POPC   NC3 6995  13.642  36.857   9.450
 3576POPC   PO4 6996  13.612  36.891   9.150
 3576POPC   GL1 6997  13.624  36.882   8.850
 3576POPC   GL2 6998  13.705  36.899   8.850
 3576POPC   C1A 6999  13.602  36.879   8.550
 3576POPC   D2A 7000  13.599  36.901   8.250
 3576POPC   C3A 7001  13.649  36.930   7.950
 3576POPC   C4A 7002  13.589  36.930   7.650
 3576POPC   C1B 7003  13.838  36.968   8.550
 3576POPC   C2B 7004  13.855  36.945   8.250
 3576POPC   C3B 7005  13.899  37.007   7.950
 3576POPC   C4B 7006  13.840  36.982   7.650
 3577POPC   NC3 7007  36.857   1.987   9.450
 3577POPC   PO4 7008  36.881   2.007   9.150
 3577POPC   GL1 7009  36.933   1.959   8.850
 3577POPC   GL2 7010  36.874   2.135   8.850
 3577POPC   C1A 7011  36.925   2.021   8.550
 3577POPC   D2A 7012  36.902   1.984   8.250
 3577POPC   C3A 7013  36.941   1.987   7.950
 3577POPC   C4A 7014  36.926   2.003   7.650
 3577POPC   C1B 7015  36.845   2.197   8.550
 3577POPC   C2B 7016  36.834   2.209   8.250
 3577POPC   C3B 7017  36.896   2.270   7.950
 3577POPC   C4B 7018  36.826   2.208   7.650
 3578POPC   NC3 7019  12.108  40.816   9.450
 3578POPC   PO4 7020  12.080  40.797   9.150
 3578POPC   GL1 7021  12.068  40.738   8.850
 3578POPC   GL2 7022  12.146  40.695   8.850
 3578POPC   C1A 7023  12.036  40.748   8.550
 3578POPC   D2A 7024  12.115  40.769   8.250
 3578POPC   C3A 7025  12.097  40.819   7.950
 3578POPC   C4A 7026  12.051  40.742   7.650
 3578POPC   C1B 7027  12.263  40.641   8.550
 3578POPC   C2B 7028  12.267  40.599   8.250
 3578POPC   C3B 7029  12.234  40.611   7.950
 3578POPC   C4B 7030  12.295  40.551   7.650
 3579POPC   NC3 7031  22.893  21.353   9.450
 3579POPC   PO4 7032  22.930  21.338   9.150
 3579POPC   GL1 7033  22.927  21.424   8.850
 3579POPC   GL2 7034  23.050  21.352   8.850
 3579POPC   C1A 7035  22.911  21.347   8.550
 3579POPC   D2A 7036  22.985  21.345   8.250
 3579POPC   C3A 7037  22.923  21.339   7.950
 3579POPC   C4A 7038  22.962  21.346   7.650
 3579POPC   C1B 7039  23.182  21.267   8.550
 3579POPC   C2B 7040  23.174  21.252   8.250
 3579POPC   C3B 7041  23.119  21.239   7.950
 3579POPC   C4B 7042  23.169  21.223   7.650
 3580POPC   NC3 7043  34.528   8.191   9.450
 3580POPC   PO4 7044  34.594   8.150   9.150
 3580POPC   GL1 7045  34.606   8.229   8.850
 3580POPC   GL2 7046  34.475   8.275   8.850
 3580POPC   C1A 7047  34.602   8.157   8.550
 3580POPC   D2A 7048  34.592   8.179   8.250
 3580POPC   C3A 7049  34.596   8.171   7.950
 3580POPC   C4A 7050  34.591   8.164   7.650
 3580POPC   C1B 7051  34.300   8.320   8.550
 3580POPC   C2B 7052  34.302   8.297   8.250
 3580POPC   C3B 7053  34.296   8.337   7.950
 3580POPC   C4B 7054  34.363   8.250   7.650
 3581POPC   NC3 7055  12.033  33.061   9.450
 3581POPC   PO4 7056  12.074  33.001   9.150
 3581POPC   GL1 7057  12.058  33.018   8.850
 3581POPC   GL2 7058  11.942  32.979   8.850
 3581POPC   C1A 7059  12.076  33.025   8.550
 3581POPC   D2A 7060  12.103  33.022   8.250
 3581POPC   C3A 7061  12.118  33.060   7.950
 3581POPC   C4A 7062  12.123  33.030   7.650
 3581POPC   C1B 7063  11.849  32.977   8.550
 3581POPC   C2B 7064  11.818  33.023   8.250
 3581POPC   C3B 7065  11.872  33.028   7.950
 3581POPC   C4B 7066  11.859  33.036   7.650
 3582POPC   NC3 7067  36.894  26.856   9.450
 3582POPC   PO4 7068  36.940  26.793   9.150
 3582POPC   GL1 7069  36.889  26.795   8.850
 3582POPC   GL2 7070  37.002  26.727   8.850
 3582POPC   C1A 7071  36.896  26.812   8.550
 3582POPC   D2A 7072  36.891  26.848   8.250
 3582POPC   C3A 7073  36.880  26.812   7.950
 3582POPC   C4A 7074  36.952  26.787   7.650
 3582POPC   C1B 7075  37.162  26.690   8.550
 3582POPC   C2B 7076  37.163  26.709   8.250
 3582POPC   C3B 7077  37.126  26.759   7.950
 3582POPC   C4B 7078  37.147  26.705   7.650
 3583POPC   NC3 7079  22.146  22.936   9.450
 3583POPC   PO4 7080  22.207  22.987   9.150
 3583POPC   GL1 7081  22.151  22.975   8.850
 3583POPC   GL2 7082  22.026  23.007   8.850
 3583POPC   C1A 7083  22.160  22.943   8.550
 3583POPC   D2A 7084  22.145  22.905   8.250
 3583POPC   C3A 7085  22.173  22.950   7.950
 3583POPC   C4A 7086  22.136  22.947   7.650
 3583POPC   C1B 7087  21.981  23.039   8.550
 3583POPC   C2B 7088  21.981  23.126   8.250
 3583POPC   C3B 7089  21.976  23.056   7.950
 3583POPC   C4B 7090  21.912  23.114   7.650
 3584POPC   NC3 7091  38.495   9.017   9.450
 3584POPC   PO4 7092  38.492   8.958   9.150
 3584POPC   GL1 7093  38.481   8.939   8.850
 3584POPC   GL2 7094  38.316   8.868   8.850
 3584POPC   C1A 7095  38.423   8.971   8.550
 3584POPC   D2A 7096  38.421   8.966   8.250
 3584POPC   C3A 7097  38.418   8.989   7.950
 3584POPC   C4A 7098  38.444   8.949   7.650
 3584POPC   C1B 7099  38.295   8.835   8.550
 3584POPC   C2B 7100  38.214   8.808   8.250
 3584POPC   C3B 7101  38.235   8.826   7.950
 3584POPC   C4B 7102  38.271   8.859   7.650
 3585POPC   NC3 7103  15.165  43.905   9.450
 3585POPC   PO4 7104  15.172  43.845   9.150
 3585POPC   GL1 7105  15.175  43.883   8.850
 3585POPC   GL2 7106  15.080  43.882   8.850
 3585POPC   C1A 7107  15.218  43.914   8.550
 3585POPC   D2A 7108  15.201  43.936   8.250
 3585POPC   C3A 7109  15.205  43.907   7.950
 3585POPC   C4A 7110  15.217  43.845   7.650
 3585POPC   C1B 7111  14.983  43.991   8.550
 3585POPC   C2B 7112  14.962  43.967   8.250
 3585POPC   C3B 7113  14.979  43.976   7.950
 3585POPC   C4B 7114  14.928  44.005   7.650
 3586POPC   NC3 7115  44.631   8.937   9.450
 3586POPC   PO4 7116  44.699   8.940   9.150
 3586POPC   GL1 7117  44.678   8.993   8.850
 3586POPC   GL2 7118  44.690   9.060   8.850
 3586POPC   C1A 7119  44.663   8.986   8.550
 3586POPC   D2A 7120  44.673   8.952   8.250
 3586POPC   C3A 7121  44.638   8.959   7.950
 3586POPC   C4A 7122  44.648   8.935   7.650
 3586POPC   C1B 7123  44.799   9.231   8.550
 3586POPC   C2B 7124  44.787   9.137   8.250
 3586POPC   C3B 7125  44.778   9.138   7.950
 3586POPC   C4B 7126  44.819   9.156   7.650
 3587POPC   NC3 7127  33.024  16.743   9.450
 3587POPC   PO4 7128  32.994  16.738   9.150
 3587POPC   GL1 7129  33.063  16.778   8.850
 3587POPC   GL2 7130  33.110  16.669   8.850
 3587POPC   C1A 7131  33.045  16.760   8.550
 3587POPC   D2A 7132  33.052  16.764   8.250
 3587POPC   C3A 7133  33.024  16.690   7.950
 3587POPC   C4A 7134  33.042  16.726   7.650
 3587POPC   C1B 7135  33.261  16.671   8.550
 3587POPC   C2B 7136  33.280  16.622   8.250
 3587POPC   C3B 7137  33.277  16.608   7.950
 3587POPC   C4B 7138  33.235  16.622   7.650
 3588POPC   NC3 7139  14.385  21.351   9.450
 3588POPC   PO4 7140  14.418  21.355   9.150
 3588POPC   GL1 7141  14.381  21.379   8.850
 3588POPC   GL2 7142  14.404  21.225   8.850
 3588POPC   C1A 7143  14.362  21.398   8.550
 3588POPC   D2A 7144  14.403  21.364   8.250
 3588POPC   C3A 7145  14.375  21.436   7.950
 3588POPC   C4A 7146  14.414  21.400   7.650
 3588POPC   C1B 7147  14.401  21.152   8.550
 3588POPC   C2B 7148  14.432  21.099   8.250
 3588POPC   C3B 7149  14.370  21.165   7.950
 3588POPC   C4B 7150  14.379  21.141   7.650
 3589POPC   NC3 7151   1.253   4.363   9.450
 3589POPC   PO4 7152   1.197   4.274   9.150
 3589POPC   GL1 7153   1.220   4.295   8.850
 3589POPC   GL2 7154   1.304   4.171   8.850
 3589POPC   C1A 7155   1.178   4.326   8.550
 3589POPC   D2A 7156   1.171   4.303   8.250
 3589POPC   C3A 7157   1.200   4.350   7.950
 3589POPC   C4A 7158   1.221   4.303   7.650
 3589POPC   C1B 7159   1.346   4.076   8.550
 3589POPC   C2B 7160   1.352   4.104   8.250
 3589POPC   C3B 7161   1.336   4.111   7.950
 3589POPC   C4B 7162   1.292   4.075   7.650
 3590POPC   NC3 7163  26.779  14.409   9.450
 3590POPC   PO4 7164  26.862  14.397   9.150
 3590POPC   GL1 7165  26.854  14.407   8.850
 3590POPC   GL2 7166  26.671  14.388   8.850
 3590POPC   C1A 7167  26.860  14.443   8.550
 3590POPC   D2A 7168  26.854  14.406   8.250
 3590POPC   C3A 7169  26.789  14.390   7.950
 3590POPC   C4A 7170  26.792  14.392   7.650
 3590POPC   C1B 7171  26.582  14.293   8.550
 3590POPC   C2B 7172  26.572  14.316   8.250
 3590POPC   C3B 7173  26.557  14.355   7.950
 3590POPC   C4B 7174  26.535  14.313   7.650
 3591POPC   NC3 7175  35.316   3.496   9.450
 3591POPC   PO4 7176  35.317   3.512   9.150
 3591POPC   GL1 7177  35.341   3.518   8.850
 3591POPC   GL2 7178  35.449   3.475   8.850
 3591POPC   C1A 7179  35.343   3.542   8.550
 3591POPC   D2A 7180  35.370   3.532   8.250
 3591POPC   C3A 7181  35.364   3.553   7.950
 3591POPC   C4A 7182  35.385   3.529   7.650
 3591POPC   C1B 7183  35.550   3.480   8.550
 3591POPC   C2B 7184  35.637   3.488   8.250
 3591POPC   C3B 7185  35.607   3.502   7.950
 3591POPC   C4B 7186  35.549   3.458   7.650
 3592POPC   NC3 7187  20.579  18.248   9.450
 3592POPC   PO4 7188  20.618  18.293   9.150
 3592POPC   GL1 7189  20.571  18.296   8.850
 3592POPC   GL2 7190  20.649  18.397   8.850
 3592POPC   C1A 7191  20.655  18.262   8.550
 3592POPC   D2A 7192  20.600  18.248   8.250
 3592POPC   C3A 7193  20.577  18.243   7.950
 3592POPC   C4A 7194  20.588  18.270   7.650
 3592POPC   C1B 7195  20.646  18.541   8.550
 3592POPC   C2B 7196  20.638  18.522   8.250
 3592POPC   C3B 7197  20.638  18.521   7.950
 3592POPC   C4B 7198  20.625  18.536   7.650
 3593POPC   NC3 7199  16.780  18.269   9.450
 3593POPC   PO4 7200  16.681  18.269   9.150
 3593POPC   GL1 7201  16.752  18.295   8.850
 3593POPC   GL2 7202  16.620  18.251   8.850
 3593POPC   C1A 7203  16.771  18.248   8.550
 3593POPC   D2A 7204  16.728  18.288   8.250
 3593POPC   C3A 7205  16.706  18.306   7.950
 3593POPC   C4A 7206  16.778  18.284   7.650
 3593POPC   C1B 7207  16.462  18.207   8.550
 3593POPC   C2B 7208  16.464  18.272   8.250
 3593POPC   C3B 7209  16.460  18.194   7.950
 3593POPC   C4B 7210  16.465  18.191   7.650
 3594POPC   NC3 7211  19.856  41.553   9.450
 3594POPC   PO4 7212  19.850  41.597   9.150
 3594POPC   GL1 7213  19.822  41.606   8.850
 3594POPC   GL2 7214  19.747  41.580   8.850
 3594POPC   C1A 7215  19.798  41.538   8.550
 3594POPC   D2A 7216  19.866  41.571   8.250
 3594POPC   C3A 7217  19.800  41.608   7.950
 3594POPC   C4A 7218  19.786  41.587   7.650
 3594POPC   C1B 7219  19.580  41.732   8.550
 3594POPC   C2B 7220  19.614  41.677   8.250
 3594POPC   C3B 7221  19.613  41.643   7.950
 3594POPC   C4B 7222  19.601  41.708   7.650
 3595POPC   NC3 7223   0.415  43.836   9.450
 3595POPC   PO4 7224   0.472  43.870   9.150
 3595POPC   GL1 7225   0.432  43.929   8.850
 3595POPC   GL2 7226   0.369  44.017   8.850
 3595POPC   C1A 7227   0.451  43.935   8.550
 3595POPC   D2A 7228   0.476  43.851   8.250
 3595POPC   C3A 7229   0.429  43.870   7.950
 3595POPC   C4A 7230   0.427  43.899   7.650
 3595POPC   C1B 7231   0.283  44.110   8.550
 3595POPC   C2B 7232   0.334  44.117   8.250
 3595POPC   C3B 7233   0.309  44.050   7.950
 3595POPC   C4B 7234   0.329  44.044   7.650
 3596POPC   NC3 7235  28.405   5.105   9.450
 3596POPC   PO4 7236  28.339   5.059   9.150
 3596POPC   GL1 7237  28.327   5.084   8.850
 3596POPC   GL2 7238  28.520   5.052   8.850
 3596POPC   C1A 7239  28.377   5.052   8.550
 3596POPC   D2A 7240  28.348   5.057   8.250
 3596POPC   C3A 7241  28.370   5.100   7.950
 3596POPC   C4A 7242  28.319   5.142   7.650
 3596POPC   C1B 7243  28.607   5.051   8.550
 3596POPC   C2B 7244  28.581   5.088   8.250
 3596POPC   C3B 7245  28.603   5.082   7.950
 3596POPC   C4B 7246  28.633   5.009   7.650
 3597POPC   NC3 7247  39.969  15.958   9.450
 3597POPC   PO4 7248  40.000  15.989   9.150
 3597POPC   GL1 7249  39.986  15.912   8.850
 3597POPC   GL2 7250  40.128  15.943   8.850
 3597POPC   C1A 7251  40.037  15.974   8.550
 3597POPC   D2A 7252  39.979  15.938   8.250
 3597POPC   C3A 7253  40.024  15.908   7.950
 3597POPC   C4A 7254  40.023  15.930   7.650
 3597POPC   C1B 7255  40.212  15.887   8.550
 3597POPC   C2B 7256  40.293  15.939   8.250
 3597POPC   C3B 7257  40.286  15.945   7.950
 3597POPC   C4B 7258  40.249  15.902   7.650
 3598POPC   NC3 7259   1.168  19.884   9.450
 3598POPC   PO4 7260   1.178  19.882   9.150
 3598POPC   GL1 7261   1.181  19.787   8.850
 3598POPC   GL2 7262   1.322  19.898   8.850
 3598POPC   C1A 7263   1.215  19.795   8.550
 3598POPC   D2A 7264   1.197  19.881   8.250
 3598POPC   C3A 7265   1.198  19.872   7.950
 3598POPC   C4A 7266   1.166  19.807   7.650
 3598POPC   C1B 7267   1.421  19.999   8.550
 3598POPC   C2B 7268   1.466  20.001   8.250
 3598POPC   C3B 7269   1.443  19.972   7.950
 3598POPC   C4B 7270   1.481  19.914   7.650
 3599POPC   NC3 7271  43.079  12.075   9.450
 3599POPC   PO4 7272  43.155  12.077   9.150
 3599POPC   GL1 7273  43.154  12.058   8.850
 3599POPC   GL2 7274  42.965  12.115   8.850
 3599POPC   C1A 7275  43.127  12.071   8.550
 3599POPC   D2A 7276  43.064  12.087   8.250
 3599POPC   C3A 7277  43.136  12.082   7.950
 3599POPC   C4A 7278  43.084  12.058   7.650
 3599POPC   C1B 7279  42.909  12.177   8.550
 3599POPC   C2B 7280  42.898  12.136   8.250
 3599POPC   C3B 7281  42.860  12.197   7.950
 3599POPC   C4B 7282  42.880  12.161   7.650
 3600POPC   NC3 7283  19.021  26.862   9.450
 3600POPC   PO4 7284  19.020  26.805   9.150
 3600POPC   GL1 7285  19.049  26.778   8.850
 3600POPC   GL2 7286  18.932  26.827   8.850
 3600POPC   C1A 7287  19.012  26.785   8.550
 3600POPC   D2A 7288  19.065  26.829   8.250
 3600POPC   C3A 7289  19.058  26.865   7.950
 3600POPC   C4A 7290  19.089  26.859   7.650
 3600POPC   C1B 7291  18.768  26.833   8.550
 3600POPC   C2B 7292  18.813  26.902   8.250
 3600POPC   C3B 7293  18.845  26.883   7.950
 3600POPC   C4B 7294  18.834  26.894   7.650
 3601POPC   NC3 7295   5.914  43.844   9.450
 3601POPC   PO4 7296   5.833  43.907   9.150
 3601POPC   GL1 7297   5.903  43.899   8.850
 3601POPC   GL2 7298   5.964  43.921   8.850
 3601POPC   C1A 7299   5.880  43.929   8.550
 3601POPC   D2A 7300   5.863  43.882   8.250
 3601POPC   C3A 7301   5.878  43.883   7.950
 3601POPC   C4A 7302   5.867  43.852   7.650
 3601POPC   C1B 7303   6.154  43.842   8.550
 3601POPC   C2B 7304   6.083  43.898   8.250
 3601POPC   C3B 7305   6.109  43.842   7.950
 3601POPC   C4B 7306   6.165  43.840   7.650
 3602POPC   NC3 7307  40.756  44.624   9.450
 3602POPC   PO4 7308  40.736  44.683   9.150
 3602POPC   GL1 7309  40.784  44.647   8.850
 3602POPC   GL2 7310  40.861  44.677   8.850
 3602POPC   C1A 7311  40.756  44.683   8.550
 3602POPC   D2A 7312  40.804  44.708   8.250
 3602POPC   C3A 7313  40.808  44.708   7.950
 3602POPC   C4A 7314  40.771  44.700   7.650
 3602POPC   C1B 7315  41.030  44.808   8.550
 3602POPC   C2B 7316  41.037  44.795   8.250
 3602POPC   C3B 7317  41.039  44.800   7.950
 3602POPC   C4B 7318  41.043  44.740   7.650
 3603POPC   NC3 7319  43.086   8.206   9.450
 3603POPC   PO4 7320  43.123   8.178   9.150
 3603POPC   GL1 7321  43.158   8.190   8.850
 3603POPC   GL2 7322  43.034   8.133   8.850
 3603POPC   C1A 7323  43.112   8.194   8.550
 3603POPC   D2A 7324  43.130   8.162   8.250
 3603POPC   C3A 7325  43.151   8.189   7.950
 3603POPC   C4A 7326  43.140   8.230   7.650
 3603POPC   C1B 7327  42.949   7.995   8.550
 3603POPC   C2B 7328  43.024   7.996   8.250
 3603POPC   C3B 7329  43.021   7.932   7.950
 3603POPC   C4B 7330  42.986   8.022   7.650
 3604POPC   NC3 7331  11.336  41.590   9.450
 3604POPC   PO4 7332  11.271  41.596   9.150
 3604POPC   GL1 7333  11.260  41.524   8.850
 3604POPC   GL2 7334  11.395  41.439   8.850
 3604POPC   C1A 7335  11.305  41.576   8.550
 3604POPC   D2A 7336  11.296  41.513   8.250
 3604POPC   C3A 7337  11.291  41.580   7.950
 3604POPC   C4A 7338  11.310  41.515   7.650
 3604POPC   C1B 7339  11.391  41.336   8.550
 3604POPC   C2B 7340  11.418  41.309   8.250
 3604POPC   C3B 7341  11.435  41.283   7.950
 3604POPC   C4B 7342  11.379  41.288   7.650
 3605POPC   NC3 7343   0.476  25.274   9.450
 3605POPC   PO4 7344   0.444  25.222   9.150
 3605POPC   GL1 7345   0.399  25.272   8.850
 3605POPC   GL2 7346   0.307  25.298   8.850
 3605POPC   C1A 7347   0.397  25.309   8.550
 3605POPC   D2A 7348   0.473  25.234   8.250
 3605POPC   C3A 7349   0.447  25.269   7.950
 3605POPC   C4A 7350   0.418  25.251   7.650
 3605POPC   C1B 7351   0.204  25.446   8.550
 3605POPC   C2B 7352   0.200  25.378   8.250
 3605POPC   C3B 7353   0.215  25.412   7.950
 3605POPC   C4B 7354   0.259  25.402   7.650
 3606POPC   NC3 7355   9.725  10.554   9.450
 3606POPC   PO4 7356   9.738  10.551   9.150
 3606POPC   GL1 7357   9.745  10.559   8.850
 3606POPC   GL2 7358   9.625  10.636   8.850
 3606POPC   C1A 7359   9.787  10.498   8.550
 3606POPC   D2A 7360   9.733  10.497   8.250
 3606POPC   C3A 7361   9.721  10.551   7.950
 3606POPC   C4A 7362   9.713  10.557   7.650
 3606POPC   C1B 7363   9.569  10.692   8.550
 3606POPC   C2B 7364   9.542  10.733   8.250
 3606POPC   C3B 7365   9.551  10.750   7.950
 3606POPC   C4B 7366   9.613  10.718   7.650
 3607POPC   NC3 7367  19.798  19.074   9.450
 3607POPC   PO4 7368  19.853  19.014   9.150
 3607POPC   GL1 7369  19.833  19.056   8.850
 3607POPC   GL2 7370  19.682  18.987   8.850
 3607POPC   C1A 7371  19.801  19.099   8.550
 3607POPC   D2A 7372  19.869  19.015   8.250
 3607POPC   C3A 7373  19.879  19.056   7.950
 3607POPC   C4A 7374  19.870  19.059   7.650
 3607POPC   C1B 7375  19.633  18.964   8.550
 3607POPC   C2B 7376  19.647  18.938   8.250
 3607POPC   C3B 7377  19.646  18.985   7.950
 3607POPC   C4B 7378  19.578  18.967   7.650
 3608POPC   NC3 7379  19.811  30.670   9.450
 3608POPC   PO4 7380  19.861  30.671   9.150
 3608POPC   GL1 7381  19.859  30.700   8.850
 3608POPC   GL2 7382  19.910  30.732   8.850
 3608POPC   C1A 7383  19.883  30.686   8.550
 3608POPC   D2A 7384  19.863  30.742   8.250
 3608POPC   C3A 7385  19.856  30.650   7.950
 3608POPC   C4A 7386  19.874  30.745   7.650
 3608POPC   C1B 7387  20.038  30.700   8.550
 3608POPC   C2B 7388  20.048  30.708   8.250
 3608POPC   C3B 7389  20.077  30.694   7.950
 3608POPC   C4B 7390  20.128  30.632   7.650
 3609POPC   NC3 7391  39.214  33.842   9.450
 3609POPC   PO4 7392  39.231  33.846   9.150
 3609POPC   GL1 7393  39.229  33.758   8.850
 3609POPC   GL2 7394  39.112  33.760   8.850
 3609POPC   C1A 7395  39.194  33.816   8.550
 3609POPC   D2A 7396  39.196  33.840   8.250
 3609POPC   C3A 7397  39.206  33.758   7.950
 3609POPC   C4A 7398  39.254  33.836   7.650
 3609POPC   C1B 7399  38.958  33.741   8.550
 3609POPC   C2B 7400  39.031  33.743   8.250
 3609POPC   C3B 7401  39.004  33.699   7.950
 3609POPC   C4B 7402  38.992  33.757   7.650
 3610POPC   NC3 7403  12.047  18.267   9.450
 3610POPC   PO4 7404  12.089  18.330   9.150
 3610POPC   GL1 7405  12.053  18.303   8.850
 3610POPC   GL2 7406  12.122  18.193   8.850
 3610POPC   C1A 7407  12.037  18.265   8.550
 3610POPC   D2A 7408  12.115  18.317   8.250
 3610POPC   C3A 7409  12.104  18.244   7.950
 3610POPC   C4A 7410  12.057  18.308   7.650
 3610POPC   C1B 7411  12.242  18.130   8.550
 3610POPC   C2B 7412  12.218  18.125   8.250
 3610POPC   C3B 7413  12.256  18.093   7.950
 3610POPC   C4B 7414  12.241  18.092   7.650
 3611POPC   NC3 7415  25.279  18.268   9.450
 3611POPC   PO4 7416  25.227  18.255   9.150
 3611POPC   GL1 7417  25.314  18.331   8.850
 3611POPC   GL2 7418  25.373  18.271   8.850
 3611POPC   C1A 7419  25.267  18.316   8.550
 3611POPC   D2A 7420  25.255  18.276   8.250
 3611POPC   C3A 7421  25.246  18.310   7.950
 3611POPC   C4A 7422  25.277  18.249   7.650
 3611POPC   C1B 7423  25.513  18.280   8.550
 3611POPC   C2B 7424  25.542  18.204   8.250
 3611POPC   C3B 7425  25.499  18.199   7.950
 3611POPC   C4B 7426  25.540  18.202   7.650
 3612POPC   NC3 7427  33.813   7.440   9.450
 3612POPC   PO4 7428  33.775   7.389   9.150
 3612POPC   GL1 7429  33.754   7.386   8.850
 3612POPC   GL2 7430  33.780   7.256   8.850
 3612POPC   C1A 7431  33.755   7.390   8.550
 3612POPC   D2A 7432  33.778   7.414   8.250
 3612POPC   C3A 7433  33.769   7.402   7.950
 3612POPC   C4A 7434  33.763   7.395   7.650
 3612POPC   C1B 7435  33.759   7.170   8.550
 3612POPC   C2B 7436  33.734   7.213   8.250
 3612POPC   C3B 7437  33.712   7.220   7.950
 3612POPC   C4B 7438  33.720   7.220   7.650
 3613POPC   NC3 7439  38.466   2.016   9.450
 3613POPC   PO4 7440  38.470   2.021   9.150
 3613POPC   GL1 7441  38.489   1.986   8.850
 3613POPC   GL2 7442  38.616   2.022   8.850
 3613POPC   C1A 7443  38.437   2.016   8.550
 3613POPC   D2A 7444  38.485   1.970   8.250
 3613POPC   C3A 7445  38.430   2.004   7.950
 3613POPC   C4A 7446  38.481   1.956   7.650
 3613POPC   C1B 7447  38.727   1.928   8.550
 3613POPC   C2B 7448  38.713   1.954   8.250
 3613POPC   C3B 7449  38.700   1.964   7.950
 3613POPC   C4B 7450  38.752   1.950   7.650
 3614POPC   NC3 7451  14.381  14.402   9.450
 3614POPC   PO4 7452  14.356  14.359   9.150
 3614POPC   GL1 7453  14.406  14.363   8.850
 3614POPC   GL2 7454  14.252  14.500   8.850
 3614POPC   C1A 7455  14.390  14.402   8.550
 3614POPC   D2A 7456  14.375  14.422   8.250
 3614POPC   C3A 7457  14.377  14.356   7.950
 3614POPC   C4A 7458  14.385  14.412   7.650
 3614POPC   C1B 7459  14.183  14.512   8.550
 3614POPC   C2B 7460  14.178  14.473   8.250
 3614POPC   C3B 7461  14.216  14.517   7.950
 3614POPC   C4B 7462  14.175  14.496   7.650
 3615POPC   NC3 7463   1.956  10.507   9.450
 3615POPC   PO4 7464   1.950  10.504   9.150
 3615POPC   GL1 7465   1.973  10.550   8.850
 3615POPC   GL2 7466   2.033  10.469   8.850
 3615POPC   C1A 7467   2.024  10.550   8.550
 3615POPC   D2A 7468   2.003  10.537   8.250
 3615POPC   C3A 7469   1.991  10.494   7.950
 3615POPC   C4A 7470   2.006  10.566   7.650
 3615POPC   C1B 7471   2.115  10.332   8.550
 3615POPC   C2B 7472   2.120  10.388   8.250
 3615POPC   C3B 7473   2.138  10.347   7.950
 3615POPC   C4B 7474   2.189  10.339   7.650
 3616POPC   NC3 7475  22.954  39.233   9.450
 3616POPC   PO4 7476  22.926  39.184   9.150
 3616POPC   GL1 7477  22.954  39.205   8.850
 3616POPC   GL2 7478  22.878  39.169   8.850
 3616POPC   C1A 7479  22.954  39.274   8.550
 3616POPC   D2A 7480  22.951  39.250   8.250
 3616POPC   C3A 7481  22.902  39.273   7.950
 3616POPC   C4A 7482  22.893  39.216   7.650
 3616POPC   C1B 7483  22.832  39.063   8.550
 3616POPC   C2B 7484  22.828  39.069   8.250
 3616POPC   C3B 7485  22.791  39.034   7.950
 3616POPC   C4B 7486  22.824  39.013   7.650
 3617POPC   NC3 7487  31.513  15.143   9.450
 3617POPC   PO4 7488  31.450  15.195   9.150
 3617POPC   GL1 7489  31.473  15.216   8.850
 3617POPC   GL2 7490  31.352  15.285   8.850
 3617POPC   C1A 7491  31.517  15.136   8.550
 3617POPC   D2A 7492  31.497  15.212   8.250
 3617POPC   C3A 7493  31.450  15.179   7.950
 3617POPC   C4A 7494  31.487  15.173   7.650
 3617POPC   C1B 7495  31.293  15.357   8.550
 3617POPC   C2B 7496  31.304  15.367   8.250
 3617POPC   C3B 7497  31.271  15.336   7.950
 3617POPC   C4B 7498  31.266  15.393   7.650
 3618POPC   NC3 7499  33.758  11.299   9.450
 3618POPC   PO4 7500  33.821  11.323   9.150
 3618POPC   GL1 7501  33.780  11.304   8.850
 3618POPC   GL2 7502  33.933  11.407   8.850
 3618POPC   C1A 7503  33.832  11.259   8.550
 3618POPC   D2A 7504  33.797  11.303   8.250
 3618POPC   C3A 7505  33.785  11.282   7.950
 3618POPC   C4A 7506  33.767  11.308   7.650
 3618POPC   C1B 7507  34.045  11.391   8.550
 3618POPC   C2B 7508  33.961  11.451   8.250
 3618POPC   C3B 7509  34.030  11.486   7.950
 3618POPC   C4B 7510  34.018  11.393   7.650
 3619POPC   NC3 7511   8.998  26.860   9.450
 3619POPC   PO4 7512   8.973  26.768   9.150
 3619POPC   GL1 7513   8.924  26.793   8.850
 3619POPC   GL2 7514   8.882  26.841   8.850
 3619POPC   C1A 7515   8.979  26.824   8.550
 3619POPC   D2A 7516   8.933  26.782   8.250
 3619POPC   C3A 7517   8.948  26.822   7.950
 3619POPC   C4A 7518   8.936  26.817   7.650
 3619POPC   C1B 7519   8.698  26.751   8.550
 3619POPC   C2B 7520   8.699  26.757   8.250
 3619POPC   C3B 7521   8.700  26.809   7.950
 3619POPC   C4B 7522   8.768  26.768   7.650
 3620POPC   NC3 7523  12.836  42.315   9.450
 3620POPC   PO4 7524  12.835  42.335   9.150
 3620POPC   GL1 7525  12.879  42.345   8.850
 3620POPC   GL2 7526  12.942  42.457   8.850
 3620POPC   C1A 7527  12.875  42.352   8.550
 3620POPC   D2A 7528  12.806  42.366   8.250
 3620POPC   C3A 7529  12.863  42.329   7.950
 3620POPC   C4A 7530  12.825  42.288   7.650
 3620POPC   C1B 7531  13.025  42.509   8.550
 3620POPC   C2B 7532  12.958  42.501   8.250
 3620POPC   C3B 7533  13.037  42.555   7.950
 3620POPC   C4B 7534  13.001  42.579   7.650
 3621POPC   NC3 7535  18.251   9.776   9.450
 3621POPC   PO4 7536  18.329   9.774   9.150
 3621POPC   GL1 7537  18.310   9.717   8.850
 3621POPC   GL2 7538  18.176   9.692   8.850
 3621POPC   C1A 7539  18.318   9.745   8.550
 3621POPC   D2A 7540  18.237   9.725   8.250
 3621POPC   C3A 7541  18.329   9.755   7.950
 3621POPC   C4A 7542  18.309   9.767   7.650
 3621POPC   C1B 7543  18.067   9.583   8.550
 3621POPC   C2B 7544  18.133   9.568   8.250
 3621POPC   C3B 7545  18.101   9.630   7.950
 3621POPC   C4B 7546  18.056   9.614   7.650
 3622POPC   NC3 7547  12.829  22.156   9.450
 3622POPC   PO4 7548  12.802  22.145   9.150
 3622POPC   GL1 7549  12.849  22.133   8.850
 3622POPC   GL2 7550  12.754  22.238   8.850
 3622POPC   C1A 7551  12.891  22.211   8.550
 3622POPC   D2A 7552  12.813  22.180   8.250
 3622POPC   C3A 7553  12.832  22.202   7.950
 3622POPC   C4A 7554  12.853  22.200   7.650
 3622POPC   C1B 7555  12.666  22.258   8.550
 3622POPC   C2B 7556  12.639  22.313   8.250
 3622POPC   C3B 7557  12.643  22.292   7.950
 3622POPC   C4B 7558  12.626  22.285   7.650
 3623POPC   NC3 7559  12.839  30.665   9.450
 3623POPC   PO4 7560  12.869  30.730   9.150
 3623POPC   GL1 7561  12.854  30.709   8.850
 3623POPC   GL2 7562  12.777  30.582   8.850
 3623POPC   C1A 7563  12.861  30.691   8.550
 3623POPC   D2A 7564  12.843  30.712   8.250
 3623POPC   C3A 7565  12.809  30.696   7.950
 3623POPC   C4A 7566  12.805  30.700   7.650
 3623POPC   C1B 7567  12.669  30.514   8.550
 3623POPC   C2B 7568  12.646  30.529   8.250
 3623POPC   C3B 7569  12.655  30.532   7.950
 3623POPC   C4B 7570  12.610  30.507   7.650
 3624POPC   NC3 7571  11.295   7.448   9.450
 3624POPC   PO4 7572  11.298   7.442   9.150
 3624POPC   GL1 7573  11.328   7.445   8.850
 3624POPC   GL2 7574  11.376   7.524   8.850
 3624POPC   C1A 7575  11.299   7.406   8.550
 3624POPC   D2A 7576  11.284   7.392   8.250
 3624POPC   C3A 7577  11.348   7.423   7.950
 3624POPC   C4A 7578  11.298   7.456   7.650
 3624POPC   C1B 7579  11.416   7.684   8.550
 3624POPC   C2B 7580  11.409   7.669   8.250
 3624POPC   C3B 7581  11.415   7.659   7.950
 3624POPC   C4B 7582  11.356   7.665   7.650
 3625POPC   NC3 7583  34.586  21.434   9.450
 3625POPC   PO4 7584  34.597  21.353   9.150
 3625POPC   GL1 7585  34.538  21.356   8.850
 3625POPC   GL2 7586  34.719  21.333   8.850
 3625POPC   C1A 7587  34.595  21.368   8.550
 3625POPC   D2A 7588  34.604  21.392   8.250
 3625POPC   C3A 7589  34.539  21.427   7.950
 3625POPC   C4A 7590  34.584  21.388   7.650
 3625POPC   C1B 7591  34.845  21.325   8.550
 3625POPC   C2B 7592  34.853  21.344   8.250
 3625POPC   C3B 7593  34.809  21.396   7.950
 3625POPC   C4B 7594  34.864  21.335   7.650
 3626POPC   NC3 7595   4.318  23.688   9.450
 3626POPC   PO4 7596   4.315  23.753   9.150
 3626POPC   GL1 7597   4.307  23.741   8.850
 3626POPC   GL2 7598   4.158  23.724   8.850
 3626POPC   C1A 7599   4.358  23.703   8.550
 3626POPC   D2A 7600   4.292  23.690   8.250
 3626POPC   C3A 7601   4.348  23.683   7.950
 3626POPC   C4A 7602   4.302  23.735   7.650
 3626POPC   C1B 7603   4.086  23.731   8.550
 3626POPC   C2B 7604   4.111  23.780   8.250
 3626POPC   C3B 7605   4.115  23.770   7.950
 3626POPC   C4B 7606   4.031  23.716   7.650
 3627POPC   NC3 7607  20.618   1.241   9.450
 3627POPC   PO4 7608  20.624   1.219   9.150
 3627POPC   GL1 7609  20.632   1.228   8.850
 3627POPC   GL2 7610  20.562   1.121   8.850
 3627POPC   C1A 7611  20.586   1.250   8.550
 3627POPC   D2A 7612  20.629   1.189   8.250
 3627POPC   C3A 7613  20.630   1.210   7.950
 3627POPC   C4A 7614  20.603   1.201   7.650
 3627POPC   C1B 7615  20.577   0.979   8.550
 3627POPC   C2B 7616  20.538   0.945   8.250
 3627POPC   C3B 7617  20.561   1.014   7.950
 3627POPC   C4B 7618  20.555   1.016   7.650
 3628POPC   NC3 7619   3.520  39.967   9.450
 3628POPC   PO4 7620   3.553  40.004   9.150
 3628POPC   GL1 7621   3.538  39.965   8.850
 3628POPC   GL2 7622   3.555  40.092   8.850
 3628POPC   C1A 7623   3.555  39.979   8.550
 3628POPC   D2A 7624   3.505  40.049   8.250
 3628POPC   C3A 7625   3.542  40.019   7.950
 3628POPC   C4A 7626   3.566  40.039   7.650
 3628POPC   C1B 7627   3.685  40.192   8.550
 3628POPC   C2B 7628   3.644  40.193   8.250
 3628POPC   C3B 7629   3.659  40.254   7.950
 3628POPC   C4B 7630   3.628  40.224   7.650
 3629POPC   NC3 7631  12.102  15.963   9.450
 3629POPC   PO4 7632  12.051  16.002   9.150
 3629POPC   GL1 7633  12.059  15.941   8.850
 3629POPC   GL2 7634  12.084  15.844   8.850
 3629POPC   C1A 7635  12.093  15.969   8.550
 3629POPC   D2A 7636  12.030  15.926   8.250
 3629POPC   C3A 7637  12.112  16.003   7.950
 3629POPC   C4A 7638  12.072  15.997   7.650
 3629POPC   C1B 7639  12.105  15.714   8.550
 3629POPC   C2B 7640  12.090  15.744   8.250
 3629POPC   C3B 7641  12.109  15.693   7.950
 3629POPC   C4B 7642  12.099  15.733   7.650
 3630POPC   NC3 7643  17.556  23.689   9.450
 3630POPC   PO4 7644  17.483  23.703   9.150
 3630POPC   GL1 7645  17.550  23.736   8.850
 3630POPC   GL2 7646  17.438  23.632   8.850
 3630POPC   C1A 7647  17.510  23.689   8.550
 3630POPC   D2A 7648  17.493  23.723   8.250
 3630POPC   C3A 7649  17.475  23.672   7.950
 3630POPC   C4A 7650  17.544  23.758   7.650
 3630POPC   C1B 7651  17.407  23.454   8.550
 3630POPC   C2B 7652  17.408  23.497   8.250
 3630POPC   C3B 7653  17.386  23.444   7.950
 3630POPC   C4B 7654  17.353  23.450   7.650
 3631POPC   NC3 7655  38.428   8.175   9.450
 3631POPC   PO4 7656  38.446   8.189   9.150
 3631POPC   GL1 7657  38.491   8.240   8.850
 3631POPC   GL2 7658  38.448   8.316   8.850
 3631POPC   C1A 7659  38.453   8.209   8.550
 3631POPC   D2A 7660  38.471   8.149   8.250
 3631POPC   C3A 7661  38.414   8.230   7.950
 3631POPC   C4A 7662  38.453   8.201   7.650
 3631POPC   C1B 7663  38.435   8.454   8.550
 3631POPC   C2B 7664  38.393   8.446   8.250
 3631POPC   C3B 7665  38.424   8.427   7.950
 3631POPC   C4B 7666  38.428   8.487   7.650
 3632POPC   NC3 7667  12.824  39.279   9.450
 3632POPC   PO4 7668  12.882  39.215   9.150
 3632POPC   GL1 7669  12.898  39.184   8.850
 3632POPC   GL2 7670  12.755  39.288   8.850
 3632POPC   C1A 7671  12.809  39.258   8.550
 3632POPC   D2A 7672  12.873  39.234   8.250
 3632POPC   C3A 7673  12.896  39.250   7.950
 3632POPC   C4A 7674  12.884  39.233   7.650
 3632POPC   C1B 7675  12.563  39.272   8.550
 3632POPC   C2B 7676  12.622  39.276   8.250
 3632POPC   C3B 7677  12.576  39.282   7.950
 3632POPC   C4B 7678  12.620  39.284   7.650
 3633POPC   NC3 7679  15.218  36.145   9.450
 3633POPC   PO4 7680  15.202  36.176   9.150
 3633POPC   GL1 7681  15.186  36.087   8.850
 3633POPC   GL2 7682  15.038  36.158   8.850
 3633POPC   C1A 7683  15.179  36.157   8.550
 3633POPC   D2A 7684  15.224  36.151   8.250
 3633POPC   C3A 7685  15.155  36.148   7.950
 3633POPC   C4A 7686  15.222  36.086   7.650
 3633POPC   C1B 7687  14.938  36.070   8.550
 3633POPC   C2B 7688  14.925  36.127   8.250
 3633POPC   C3B 7689  14.932  36.076   7.950
 3633POPC   C4B 7690  14.934  36.114   7.650
 3634POPC   NC3 7691  40.048  13.640   9.450
 3634POPC   PO4 7692  40.053  13.642   9.150
 3634POPC   GL1 7693  40.018  13.673   8.850
 3634POPC   GL2 7694  40.008  13.748   8.850
 3634POPC   C1A 7695  40.048  13.627   8.550
 3634POPC   D2A 7696  39.960  13.658   8.250
 3634POPC   C3A 7697  39.970  13.594   7.950
 3634POPC   C4A 7698  40.052  13.658   7.650
 3634POPC   C1B 7699  39.947  13.858   8.550
 3634POPC   C2B 7700  39.974  13.882   8.250
 3634POPC   C3B 7701  39.993  13.920   7.950
 3634POPC   C4B 7702  39.953  13.915   7.650
 3635POPC   NC3 7703  21.419   1.967   9.450
 3635POPC   PO4 7704  21.413   2.017   9.150
 3635POPC   GL1 7705  21.397   1.948   8.850
 3635POPC   GL2 7706  21.242   1.981   8.850
 3635POPC   C1A 7707  21.424   1.943   8.550
 3635POPC   D2A 7708  21.345   1.953   8.250
 3635POPC   C3A 7709  21.415   1.978   7.950
 3635POPC   C4A 7710  21.410   1.948   7.650
 3635POPC   C1B 7711  21.115   1.938   8.550
 3635POPC   C2B 7712  21.137   1.951   8.250
 3635POPC   C3B 7713  21.124   1.938   7.950
 3635POPC   C4B 7714  21.167   1.943   7.650
 3636POPC   NC3 7715  42.357   4.338   9.450
 3636POPC   PO4 7716  42.366   4.355   9.150
 3636POPC   GL1 7717  42.307   4.303   8.850
 3636POPC   GL2 7718  42.336   4.185   8.850
 3636POPC   C1A 7719  42.292   4.313   8.550
 3636POPC   D2A 7720  42.301   4.269   8.250
 3636POPC   C3A 7721  42.300   4.320   7.950
 3636POPC   C4A 7722  42.373   4.285   7.650
 3636POPC   C1B 7723  42.350   4.019   8.550
 3636POPC   C2B 7724  42.387   4.047   8.250
 3636POPC   C3B 7725  42.398   4.090   7.950
 3636POPC   C4B 7726  42.360   4.082   7.650
 3637POPC   NC3 7727  17.557  41.518   9.450
 3637POPC   PO4 7728  17.522  41.537   9.150
 3637POPC   GL1 7729  17.544  41.522   8.850
 3637POPC   GL2 7730  17.635  41.503   8.850
 3637POPC   C1A 7731  17.482  41.546   8.550
 3637POPC   D2A 7732  17.508  41.548   8.250
 3637POPC   C3A 7733  17.554  41.586   7.950
 3637POPC   C4A 7734  17.481  41.510   7.650
 3637POPC   C1B 7735  17.662  41.418   8.550
 3637POPC   C2B 7736  17.676  41.400   8.250
 3637POPC   C3B 7737  17.667  41.447   7.950
 3637POPC   C4B 7738  17.675  41.383   7.650
 3638POPC   NC3 7739  34.529   3.542   9.450
 3638POPC   PO4 7740  34.609   3.552   9.150
 3638POPC   GL1 7741  34.621   3.583   8.850
 3638POPC   GL2 7742  34.571   3.613   8.850
 3638POPC   C1A 7743  34.590   3.552   8.550
 3638POPC   D2A 7744  34.584   3.566   8.250
 3638POPC   C3A 7745  34.592   3.566   7.950
 3638POPC   C4A 7746  34.575   3.566   7.650
 3638POPC   C1B 7747  34.493   3.745   8.550
 3638POPC   C2B 7748  34.501   3.817   8.250
 3638POPC   C3B 7749  34.541   3.749   7.950
 3638POPC   C4B 7750  34.486   3.815   7.650
 3639POPC   NC3 7751  44.641  14.408   9.450
 3639POPC   PO4 7752  44.691  14.433   9.150
 3639POPC   GL1 7753  44.703  14.370   8.850
 3639POPC   GL2 7754  44.803  14.455   8.850
 3639POPC   C1A 7755  44.661  14.443   8.550
 3639POPC   D2A 7756  44.613  14.439   8.250
 3639POPC   C3A 7757  44.659  14.368   7.950
 3639POPC   C4A 7758  44.650  14.429   7.650
 3639POPC   C1B 7759  44.880  14.386   8.550
 3639POPC   C2B 7760  44.863  14.415   8.250
 3639POPC   C3B 7761  44.941  14.385   7.950
 3639POPC   C4B 7762  44.934  14.404   7.650
 3640POPC   NC3 7763   2.721  15.165   9.450
 3640POPC   PO4 7764   2.756  15.130   9.150
 3640POPC   GL1 7765   2.780  15.149   8.850
 3640POPC   GL2 7766   2.683  15.288   8.850
 3640POPC   C1A 7767   2.811  15.201   8.550
 3640POPC   D2A 7768   2.744  15.171   8.250
 3640POPC   C3A 7769   2.815  15.170   7.950
 3640POPC   C4A 7770   2.781  15.185   7.650
 3640POPC   C1B 7771   2.624  15.377   8.550
 3640POPC   C2B 7772   2.577  15.317   8.250
 3640POPC   C3B 7773   2.615  15.306   7.950
 3640POPC   C4B 7774   2.536  15.314   7.650
 3641POPC   NC3 7775  22.153  44.678   9.450
 3641POPC   PO4 7776  22.195  44.698   9.150
 3641POPC   GL1 7777  22.129  44.702   8.850
 3641POPC   GL2 7778  22.079  44.705   8.850
 3641POPC   C1A 7779  22.156  44.627   8.550
 3641POPC   D2A 7780  22.162  44.692   8.250
 3641POPC   C3A 7781  22.161  44.634   7.950
 3641POPC   C4A 7782  22.203  44.657   7.650
 3641POPC   C1B 7783  22.016  44.792   8.550
 3641POPC   C2B 7784  21.996  44.811   8.250
 3641POPC   C3B 7785  21.939  44.841   7.950
 3641POPC   C4B 7786  21.979  44.878   7.650
 3642POPC   NC3 7787   9.012   4.295   9.450
 3642POPC   PO4 7788   8.999   4.341   9.150
 3642POPC   GL1 7789   8.979   4.311   8.850
 3642POPC   GL2 7790   8.908   4.392   8.850
 3642POPC   C1A 7791   8.972   4.363   8.550
 3642POPC   D2A 7792   8.964   4.329   8.250
 3642POPC   C3A 7793   8.990   4.292   7.950
 3642POPC   C4A 7794   8.932   4.268   7.650
 3642POPC   C1B 7795   8.965   4.529   8.550
 3642POPC   C2B 7796   8.941   4.561   8.250
 3642POPC   C3B 7797   8.965   4.523   7.950
 3642POPC   C4B 7798   8.955   4.590   7.650
 3643POPC   NC3 7799  34.550  22.939   9.450
 3643POPC   PO4 7800  34.586  22.960   9.150
 3643POPC   GL1 7801  34.544  22.964   8.850
 3643POPC   GL2 7802  34.642  22.967   8.850
 3643POPC   C1A 7803  34.547  22.888   8.550
 3643POPC   D2A 7804  34.569  22.914   8.250
 3643POPC   C3A 7805  34.564  22.949   7.950
 3643POPC   C4A 7806  34.551  22.975   7.650
 3643POPC   C1B 7807  34.765  23.079   8.550
 3643POPC   C2B 7808  34.744  23.096   8.250
 3643POPC   C3B 7809  34.753  23.053   7.950
 3643POPC   C4B 7810  34.760  23.079   7.650
 3644POPC   NC3 7811  33.809  10.504   9.450
 3644POPC   PO4 7812  33.824  10.475   9.150
 3644POPC   GL1 7813  33.753  10.560   8.850
 3644POPC   GL2 7814  33.698  10.469   8.850
 3644POPC   C1A 7815  33.803  10.490   8.550
 3644POPC   D2A 7816  33.779  10.550   8.250
 3644POPC   C3A 7817  33.792  10.507   7.950
 3644POPC   C4A 7818  33.849  10.511   7.650
 3644POPC   C1B 7819  33.609  10.407   8.550
 3644POPC   C2B 7820  33.533  10.455   8.250
 3644POPC   C3B 7821  33.601  10.409   7.950
 3644POPC   C4B 7822  33.555  10.417   7.650
 3645POPC   NC3 7823  17.541  33.783   9.450
 3645POPC   PO4 7824  17.462  33.830   9.150
 3645POPC   GL1 7825  17.464  33.753   8.850
 3645POPC   GL2 7826  17.497  33.681   8.850
 3645POPC   C1A 7827  17.502  33.809   8.550
 3645POPC   D2A 7828  17.516  33.786   8.250
 3645POPC   C3A 7829  17.536  33.774   7.950
 3645POPC   C4A 7830  17.540  33.825   7.650
 3645POPC   C1B 7831  17.397  33.541   8.550
 3645POPC   C2B 7832  17.462  33.565   8.250
 3645POPC   C3B 7833  17.396  33.563   7.950
 3645POPC   C4B 7834  17.367  33.540   7.650
 3646POPC   NC3 7835  12.901  36.090   9.450
 3646POPC   PO4 7836  12.886  36.150   9.150
 3646POPC   GL1 7837  12.889  36.090   8.850
 3646POPC   GL2 7838  12.880  36.225   8.850
 3646POPC   C1A 7839  12.888  36.162   8.550
 3646POPC   D2A 7840  12.882  36.125   8.250
 3646POPC   C3A 7841  12.864  36.089   7.950
 3646POPC   C4A 7842  12.865  36.171   7.650
 3646POPC   C1B 7843  12.935  36.348   8.550
 3646POPC   C2B 7844  12.952  36.388   8.250
 3646POPC   C3B 7845  12.896  36.389   7.950
 3646POPC   C4B 7846  12.923  36.330   7.650
 3647POPC   NC3 7847  44.699  22.185   9.450
 3647POPC   PO4 7848  44.646  22.134   9.150
 3647POPC   GL1 7849  44.701  22.208   8.850
 3647POPC   GL2 7850  44.591  22.054   8.850
 3647POPC   C1A 7851  44.636  22.196   8.550
 3647POPC   D2A 7852  44.670  22.188   8.250
 3647POPC   C3A 7853  44.663  22.172   7.950
 3647POPC   C4A 7854  44.712  22.193   7.650
 3647POPC   C1B 7855  44.565  21.997   8.550
 3647POPC   C2B 7856  44.543  21.928   8.250
 3647POPC   C3B 7857  44.479  21.987   7.950
 3647POPC   C4B 7858  44.563  21.972   7.650
 3648POPC   NC3 7859   7.387  26.037   9.450
 3648POPC   PO4 7860   7.439  26.034   9.150
 3648POPC   GL1 7861   7.387  26.090   8.850
 3648POPC   GL2 7862   7.346  25.951   8.850
 3648POPC   C1A 7863   7.430  26.054   8.550
 3648POPC   D2A 7864   7.400  26.083   8.250
 3648POPC   C3A 7865   7.397  26.013   7.950
 3648POPC   C4A 7866   7.440  26.054   7.650
 3648POPC   C1B 7867   7.366  25.808   8.550
 3648POPC   C2B 7868   7.299  25.758   8.250
 3648POPC   C3B 7869   7.290  25.786   7.950
 3648POPC   C4B 7870   7.346  25.777   7.650
 3649POPC   NC3 7871  36.910  33.784   9.450
 3649POPC   PO4 7872  36.947  33.806   9.150
 3649POPC   GL1 7873  36.876  33.804   8.850
 3649POPC   GL2 7874  36.817  33.769   8.850
 3649POPC   C1A 7875  36.886  33.805   8.550
 3649POPC   D2A 7876  36.878  33.779   8.250
 3649POPC   C3A 7877  36.951  33.807   7.950
 3649POPC   C4A 7878  36.856  33.764   7.650
 3649POPC   C1B 7879  36.742  33.611   8.550
 3649POPC   C2B 7880  36.671  33.612   8.250
 3649POPC   C3B 7881  36.652  33.706   7.950
 3649POPC   C4B 7882  36.663  33.695   7.650
 3650POPC   NC3 7883  30.714  35.339   9.450
 3650POPC   PO4 7884  30.657  35.326   9.150
 3650POPC   GL1 7885  30.741  35.325   8.850
 3650POPC   GL2 7886  30.687  35.244   8.850
 3650POPC   C1A 7887  30.653  35.395   8.550
 3650POPC   D2A 7888  30.657  35.369   8.250
 3650POPC   C3A 7889  30.670  35.393   7.950
 3650POPC   C4A 7890  30.709  35.340   7.650
 3650POPC   C1B 7891  30.700  35.127   8.550
 3650POPC   C2B 7892  30.701  35.141   8.250
 3650POPC   C3B 7893  30.657  35.109   7.950
 3650POPC   C4B 7894  30.746  35.105   7.650
 3651POPC   NC3 7895  43.904   5.085   9.450
 3651POPC   PO4 7896  43.935   5.138   9.150
 3651POPC   GL1 7897  43.911   5.047   8.850
 3651POPC   GL2 7898  43.974   5.203   8.850
 3651POPC   C1A 7899  43.910   5.088   8.550
 3651POPC   D2A 7900  43.892   5.092   8.250
 3651POPC   C3A 7901  43.849   5.083   7.950
 3651POPC   C4A 7902  43.926   5.116   7.650
 3651POPC   C1B 7903  44.045   5.219   8.550
 3651POPC   C2B 7904  44.061   5.245   8.250
 3651POPC   C3B 7905  44.047   5.255   7.950
 3651POPC   C4B 7906  44.100   5.237   7.650
 3652POPC   NC3 7907   8.243  20.638   9.450
 3652POPC   PO4 7908   8.183  20.629   9.150
 3652POPC   GL1 7909   8.220  20.594   8.850
 3652POPC   GL2 7910   8.354  20.646   8.850
 3652POPC   C1A 7911   8.212  20.595   8.550
 3652POPC   D2A 7912   8.192  20.622   8.250
 3652POPC   C3A 7913   8.177  20.616   7.950
 3652POPC   C4A 7914   8.209  20.564   7.650
 3652POPC   C1B 7915   8.418  20.647   8.550
 3652POPC   C2B 7916   8.417  20.628   8.250
 3652POPC   C3B 7917   8.485  20.620   7.950
 3652POPC   C4B 7918   8.418  20.656   7.650
 3653POPC   NC3 7919  37.690  42.293   9.450
 3653POPC   PO4 7920  37.681  42.375   9.150
 3653POPC   GL1 7921  37.700  42.324   8.850
 3653POPC   GL2 7922  37.592  42.348   8.850
 3653POPC   C1A 7923  37.694  42.340   8.550
 3653POPC   D2A 7924  37.642  42.357   8.250
 3653POPC   C3A 7925  37.711  42.334   7.950
 3653POPC   C4A 7926  37.717  42.293   7.650
 3653POPC   C1B 7927  37.455  42.367   8.550
 3653POPC   C2B 7928  37.389  42.374   8.250
 3653POPC   C3B 7929  37.399  42.382   7.950
 3653POPC   C4B 7930  37.479  42.356   7.650
 3654POPC   NC3 7931  28.349  26.073   9.450
 3654POPC   PO4 7932  28.363  26.061   9.150
 3654POPC   GL1 7933  28.340  26.020   8.850
 3654POPC   GL2 7934  28.511  25.955   8.850
 3654POPC   C1A 7935  28.410  26.019   8.550
 3654POPC   D2A 7936  28.372  26.051   8.250
 3654POPC   C3A 7937  28.387  26.050   7.950
 3654POPC   C4A 7938  28.409  26.090   7.650
 3654POPC   C1B 7939  28.631  25.940   8.550
 3654POPC   C2B 7940  28.566  25.953   8.250
 3654POPC   C3B 7941  28.543  25.921   7.950
 3654POPC   C4B 7942  28.589  25.891   7.650
 3655POPC   NC3 7943  33.029  28.406   9.450
 3655POPC   PO4 7944  32.999  28.323   9.150
 3655POPC   GL1 7945  33.056  28.338   8.850
 3655POPC   GL2 7946  32.984  28.441   8.850
 3655POPC   C1A 7947  33.052  28.357   8.550
 3655POPC   D2A 7948  32.983  28.397   8.250
 3655POPC   C3A 7949  33.008  28.334   7.950
 3655POPC   C4A 7950  33.029  28.415   7.650
 3655POPC   C1B 7951  32.847  28.539   8.550
 3655POPC   C2B 7952  32.861  28.557   8.250
 3655POPC   C3B 7953  32.828  28.612   7.950
 3655POPC   C4B 7954  32.913  28.530   7.650
 3656POPC   NC3 7955  35.354  12.885   9.450
 3656POPC   PO4 7956  35.371  12.822   9.150
 3656POPC   GL1 7957  35.333  12.892   8.850
 3656POPC   GL2 7958  35.475  12.912   8.850
 3656POPC   C1A 7959  35.395  12.876   8.550
 3656POPC   D2A 7960  35.390  12.870   8.250
 3656POPC   C3A 7961  35.393  12.884   7.950
 3656POPC   C4A 7962  35.401  12.825   7.650
 3656POPC   C1B 7963  35.585  12.962   8.550
 3656POPC   C2B 7964  35.608  12.975   8.250
 3656POPC   C3B 7965  35.570  12.984   7.950
 3656POPC   C4B 7966  35.574  12.952   7.650
 3657POPC   NC3 7967  43.071  15.922   9.450
 3657POPC   PO4 7968  43.089  15.949   9.150
 3657POPC   GL1 7969  43.140  15.999   8.850
 3657POPC   GL2 7970  43.079  15.814   8.850
 3657POPC   C1A 7971  43.152  15.911   8.550
 3657POPC   D2A 7972  43.114  15.986   8.250
 3657POPC   C3A 7973  43.158  15.922   7.950
 3657POPC   C4A 7974  43.155  15.958   7.650
 3657POPC   C1B 7975  43.047  15.670   8.550
 3657POPC   C2B 7976  43.051  15.701   8.250
 3657POPC   C3B 7977  43.093  15.731   7.950
 3657POPC   C4B 7978  43.019  15.731   7.650
 3658POPC   NC3 7979  36.150   8.154   9.450
 3658POPC   PO4 7980  36.079   8.234   9.150
 3658POPC   GL1 7981  36.144   8.189   8.850
 3658POPC   GL2 7982  36.229   8.054   8.850
 3658POPC   C1A 7983  36.097   8.239   8.550
 3658POPC   D2A 7984  36.107   8.204   8.250
 3658POPC   C3A 7985  36.130   8.222   7.950
 3658POPC   C4A 7986  36.091   8.180   7.650
 3658POPC   C1B 7987  36.265   8.015   8.550
 3658POPC   C2B 7988  36.258   8.013   8.250
 3658POPC   C3B 7989  36.272   8.035   7.950
 3658POPC   C4B 7990  36.293   7.973   7.650
 3659POPC   NC3 7991   7.446   3.555   9.450
 3659POPC   PO4 7992   7.415   3.514   9.150
 3659POPC   GL1 7993   7.403   3.535   8.850
 3659POPC   GL2 7994   7.360   3.450   8.850
 3659POPC   C1A 7995   7.410   3.534   8.550
 3659POPC   D2A 7996   7.375   3.502   8.250
 3659POPC   C3A 7997   7.383   3.582   7.950
 3659POPC   C4A 7998   7.375   3.576   7.650
 3659POPC   C1B 7999   7.199   3.403   8.550
 3659POPC   C2B 8000   7.225   3.376   8.250
 3659POPC   C3B 8001   7.258   3.372   7.950
 3659POPC   C4B 8002   7.242   3.434   7.650
 3660POPC   NC3 8003  36.909  27.619   9.450
 3660POPC   PO4 8004  36.863  27.547   9.150
 3660POPC   GL1 8005  36.910  27.638   8.850
 3660POPC   GL2 8006  36.759  27.631   8.850
 3660POPC   C1A 8007  36.903  27.561   8.550
 3660POPC   D2A 8008  36.927  27.595   8.250
 3660POPC   C3A 8009  36.914  27.620   7.950
 3660POPC   C4A 8010  36.953  27.623   7.650
 3660POPC   C1B 8011  36.674  27.672   8.550
 3660POPC   C2B 8012  36.633  27.699   8.250
 3660POPC   C3B 8013  36.684  27.732   7.950
 3660POPC   C4B 8014  36.623  27.691   7.650
 3661POPC   NC3 8015  33.071   2.035   9.450
 3661POPC   PO4 8016  33.067   1.977   9.150
 3661POPC   GL1 8017  32.986   2.007   8.850
 3661POPC   GL2 8018  33.023   2.130   8.850
 3661POPC   C1A 8019  33.055   1.949   8.550
 3661POPC   D2A 8020  32.990   2.023   8.250
 3661POPC   C3A 8021  33.014   1.957   7.950
 3661POPC   C4A 8022  33.054   1.948   7.650
 3661POPC   C1B 8023  33.064   2.253   8.550
 3661POPC   C2B 8024  33.018   2.274   8.250
 3661POPC   C3B 8025  33.084   2.218   7.950
 3661POPC   C4B 8026  33.044   2.248   7.650
 3662POPC   NC3 8027  12.085   4.340   9.450
 3662POPC   PO4 8028  12.102   4.282   9.150
 3662POPC   GL1 8029  12.031   4.311   8.850
 3662POPC   GL2 8030  11.941   4.431   8.850
 3662POPC   C1A 8031  12.056   4.335   8.550
 3662POPC   D2A 8032  12.081   4.285   8.250
 3662POPC   C3A 8033  12.027   4.299   7.950
 3662POPC   C4A 8034  12.114   4.327   7.650
 3662POPC   C1B 8035  11.833   4.432   8.550
 3662POPC   C2B 8036  11.882   4.454   8.250
 3662POPC   C3B 8037  11.869   4.449   7.950
 3662POPC   C4B 8038  11.863   4.468   7.650
 3663POPC   NC3 8039  32.223  10.498   9.450
 3663POPC   PO4 8040  32.280  10.535   9.150
 3663POPC   GL1 8041  32.204  10.560   8.850
 3663POPC   GL2 8042  32.101  10.501   8.850
 3663POPC   C1A 8043  32.270  10.498   8.550
 3663POPC   D2A 8044  32.233  10.527   8.250
 3663POPC   C3A 8045  32.298  10.495   7.950
 3663POPC   C4A 8046  32.215  10.536   7.650
 3663POPC   C1B 8047  32.030  10.426   8.550
 3663POPC   C2B 8048  32.007  10.427   8.250
 3663POPC   C3B 8049  32.016  10.418   7.950
 3663POPC   C4B 8050  31.993  10.430   7.650
 3664POPC   NC3 8051  13.672  39.983   9.450
 3664POPC   PO4 8052  13.665  40.018   9.150
 3664POPC   GL1 8053  13.579  40.013   8.850
 3664POPC   GL2 8054  13.666  40.117   8.850
 3664POPC   C1A 8055  13.657  39.962   8.550
 3664POPC   D2A 8056  13.664  40.007   8.250
 3664POPC   C3A 8057  13.638  39.995   7.950
 3664POPC   C4A 8058  13.630  39.988   7.650
 3664POPC   C1B 8059  13.677  40.243   8.550
 3664POPC   C2B 8060  13.639  40.252   8.250
 3664POPC   C3B 8061  13.665  40.281   7.950
 3664POPC   C4B 8062  13.657  40.224   7.650
 3665POPC   NC3 8063  43.908   5.906   9.450
 3665POPC   PO4 8064  43.841   5.913   9.150
 3665POPC   GL1 8065  43.918   5.878   8.850
 3665POPC   GL2 8066  43.803   5.730   8.850
 3665POPC   C1A 8067  43.840   5.844   8.550
 3665POPC   D2A 8068  43.869   5.909   8.250
 3665POPC   C3A 8069  43.936   5.902   7.950
 3665POPC   C4A 8070  43.845   5.822   7.650
 3665POPC   C1B 8071  43.711   5.671   8.550
 3665POPC   C2B 8072  43.791   5.656   8.250
 3665POPC   C3B 8073  43.787   5.646   7.950
 3665POPC   C4B 8074  43.771   5.637   7.650
 3666POPC   NC3 8075  35.347   8.935   9.450
 3666POPC   PO4 8076  35.351   8.928   9.150
 3666POPC   GL1 8077  35.361   8.930   8.850
 3666POPC   GL2 8078  35.259   8.877   8.850
 3666POPC   C1A 8079  35.312   8.947   8.550
 3666POPC   D2A 8080  35.383   9.014   8.250
 3666POPC   C3A 8081  35.317   8.935   7.950
 3666POPC   C4A 8082  35.312   8.999   7.650
 3666POPC   C1B 8083  35.228   8.739   8.550
 3666POPC   C2B 8084  35.222   8.700   8.250
 3666POPC   C3B 8085  35.243   8.717   7.950
 3666POPC   C4B 8086  35.260   8.771   7.650
 3667POPC   NC3 8087  31.434   6.633   9.450
 3667POPC   PO4 8088  31.512   6.622   9.150
 3667POPC   GL1 8089  31.470   6.639   8.850
 3667POPC   GL2 8090  31.488   6.545   8.850
 3667POPC   C1A 8091  31.441   6.612   8.550
 3667POPC   D2A 8092  31.513   6.653   8.250
 3667POPC   C3A 8093  31.522   6.612   7.950
 3667POPC   C4A 8094  31.451   6.668   7.650
 3667POPC   C1B 8095  31.464   6.429   8.550
 3667POPC   C2B 8096  31.408   6.444   8.250
 3667POPC   C3B 8097  31.378   6.390   7.950
 3667POPC   C4B 8098  31.420   6.409   7.650
 3668POPC   NC3 8099   8.153  38.482   9.450
 3668POPC   PO4 8100   8.218  38.417   9.150
 3668POPC   GL1 8101   8.226  38.444   8.850
 3668POPC   GL2 8102   8.124  38.549   8.850
 3668POPC   C1A 8103   8.185  38.417   8.550
 3668POPC   D2A 8104   8.223  38.454   8.250
 3668POPC   C3A 8105   8.224  38.495   7.950
 3668POPC   C4A 8106   8.243  38.457   7.650
 3668POPC   C1B 8107   8.027  38.682   8.550
 3668POPC   C2B 8108   8.046  38.673   8.250
 3668POPC   C3B 8109   8.005  38.610   7.950
 3668POPC   C4B 8110   8.007  38.599   7.650
 3669POPC   NC3 8111  40.832  35.390   9.450
 3669POPC   PO4 8112  40.777  35.320   9.150
 3669POPC   GL1 8113  40.793  35.306   8.850
 3669POPC   GL2 8114  40.833  35.216   8.850
 3669POPC   C1A 8115  40.790  35.376   8.550
 3669POPC   D2A 8116  40.736  35.362   8.250
 3669POPC   C3A 8117  40.739  35.355   7.950
 3669POPC   C4A 8118  40.832  35.344   7.650
 3669POPC   C1B 8119  40.860  35.116   8.550
 3669POPC   C2B 8120  40.904  35.131   8.250
 3669POPC   C3B 8121  40.895  35.132   7.950
 3669POPC   C4B 8122  40.888  35.075   7.650
 3670POPC   NC3 8123  29.926  43.093   9.450
 3670POPC   PO4 8124  29.922  43.067   9.150
 3670POPC   GL1 8125  29.890  43.063   8.850
 3670POPC   GL2 8126  30.026  43.172   8.850
 3670POPC   C1A 8127  29.889  43.147   8.550
 3670POPC   D2A 8128  29.912  43.117   8.250
 3670POPC   C3A 8129  29.878  43.102   7.950
 3670POPC   C4A 8130  29.953  43.110   7.650
 3670POPC   C1B 8131  30.183  43.204   8.550
 3670POPC   C2B 8132  30.150  43.196   8.250
 3670POPC   C3B 8133  30.210  43.214   7.950
 3670POPC   C4B 8134  30.114  43.157   7.650
 3671POPC   NC3 8135  42.357  12.092   9.450
 3671POPC   PO4 8136  42.381  12.077   9.150
 3671POPC   GL1 8137  42.322  12.059   8.850
 3671POPC   GL2 8138  42.211  12.045   8.850
 3671POPC   C1A 8139  42.371  12.073   8.550
 3671POPC   D2A 8140  42.292  12.106   8.250
 3671POPC   C3A 8141  42.341  12.029   7.950
 3671POPC   C4A 8142  42.290  12.065   7.650
 3671POPC   C1B 8143  42.044  12.051   8.550
 3671POPC   C2B 8144  42.111  12.019   8.250
 3671POPC   C3B 8145  42.086  11.996   7.950
 3671POPC   C4B 8146  42.095  12.022   7.650
 3672POPC   NC3 8147  12.875  10.489   9.450
 3672POPC   PO4 8148  12.845  10.552   9.150
 3672POPC   GL1 8149  12.862  10.543   8.850
 3672POPC   GL2 8150  12.761  10.612   8.850
 3672POPC   C1A 8151  12.898  10.477   8.550
 3672POPC   D2A 8152  12.818  10.559   8.250
 3672POPC   C3A 8153  12.842  10.487   7.950
 3672POPC   C4A 8154  12.887  10.481   7.650
 3672POPC   C1B 8155  12.596  10.662   8.550
 3672POPC   C2B 8156  12.650  10.622   8.250
 3672POPC   C3B 8157  12.611  10.586   7.950
 3672POPC   C4B 8158  12.571  10.572   7.650
 3673POPC   NC3 8159  27.639  43.062   9.450
 3673POPC   PO4 8160  27.567  43.096   9.150
 3673POPC   GL1 8161  27.615  43.154   8.850
 3673POPC   GL2 8162  27.724  43.102   8.850
 3673POPC   C1A 8163  27.611  43.122   8.550
 3673POPC   D2A 8164  27.558  43.128   8.250
 3673POPC   C3A 8165  27.601  43.087   7.950
 3673POPC   C4A 8166  27.566  43.073   7.650
 3673POPC   C1B 8167  27.826  43.141   8.550
 3673POPC   C2B 8168  27.842  43.130   8.250
 3673POPC   C3B 8169  27.850  43.118   7.950
 3673POPC   C4B 8170  27.872  43.063   7.650
 3674POPC   NC3 8171  12.118  17.530   9.450
 3674POPC   PO4 8172  12.083  17.508   9.150
 3674POPC   GL1 8173  12.037  17.546   8.850
 3674POPC   GL2 8174  12.204  17.443   8.850
 3674POPC   C1A 8175  12.100  17.509   8.550
 3674POPC   D2A 8176  12.119  17.511   8.250
 3674POPC   C3A 8177  12.066  17.524   7.950
 3674POPC   C4A 8178  12.079  17.503   7.650
 3674POPC   C1B 8179  12.305  17.358   8.550
 3674POPC   C2B 8180  12.231  17.333   8.250
 3674POPC   C3B 8181  12.266  17.384   7.950
 3674POPC   C4B 8182  12.310  17.385   7.650
 3675POPC   NC3 8183  27.566   8.949   9.450
 3675POPC   PO4 8184  27.618   8.952   9.150
 3675POPC   GL1 8185  27.553   9.002   8.850
 3675POPC   GL2 8186  27.716   8.981   8.850
 3675POPC   C1A 8187  27.622   8.945   8.550
 3675POPC   D2A 8188  27.564   8.994   8.250
 3675POPC   C3A 8189  27.636   8.997   7.950
 3675POPC   C4A 8190  27.586   8.942   7.650
 3675POPC   C1B 8191  27.839   9.021   8.550
 3675POPC   C2B 8192  27.815   9.038   8.250
 3675POPC   C3B 8193  27.841   9.019   7.950
 3675POPC   C4B 8194  27.805   8.991   7.650
 3676POPC   NC3 8195  17.466  36.147   9.450
 3676POPC   PO4 8196  17.483  36.080   9.150
 3676POPC   GL1 8197  17.531  36.134   8.850
 3676POPC   GL2 8198  17.597  36.263   8.850
 3676POPC   C1A 8199  17.517  36.118   8.550
 3676POPC   D2A 8200  17.511  36.140   8.250
 3676POPC   C3A 8201  17.468  36.093   7.950
 3676POPC   C4A 8202  17.468  36.147   7.650
 3676POPC   C1B 8203  17.699  36.337   8.550
 3676POPC   C2B 8204  17.609  36.285   8.250
 3676POPC   C3B 8205  17.664  36.349   7.950
 3676POPC   C4B 8206  17.626  36.373   7.650
 3677POPC   NC3 8207  30.707   0.480   9.450
 3677POPC   PO4 8208  30.672   0.481   9.150
 3677POPC   GL1 8209  30.727   0.422   8.850
 3677POPC   GL2 8210  30.770   0.287   8.850
 3677POPC   C1A 8211  30.670   0.409   8.550
 3677POPC   D2A 8212  30.708   0.428   8.250
 3677POPC   C3A 8213  30.736   0.400   7.950
 3677POPC   C4A 8214  30.720   0.420   7.650
 3677POPC   C1B 8215  30.812   0.208   8.550
 3677POPC   C2B 8216  30.793   0.207   8.250
 3677POPC   C3B 8217  30.778   0.212   7.950
 3677POPC   C4B 8218  30.749   0.181   7.650
 3678POPC   NC3 8219  26.774  37.712   9.450
 3678POPC   PO4 8220  26.798  37.655   9.150
 3678POPC   GL1 8221  26.804  37.644   8.850
 3678POPC   GL2 8222  26.714  37.551   8.850
 3678POPC   C1A 8223  26.863  37.644   8.550
 3678POPC   D2A 8224  26.814  37.708   8.250
 3678POPC   C3A 8225  26.773  37.694   7.950
 3678POPC   C4A 8226  26.859  37.710   7.650
 3678POPC   C1B 8227  26.697  37.464   8.550
 3678POPC   C2B 8228  26.752  37.471   8.250
 3678POPC   C3B 8229  26.663  37.464   7.950
 3678POPC   C4B 8230  26.748  37.485   7.650
 3679POPC   NC3 8231  13.610  23.672   9.450
 3679POPC   PO4 8232  13.661  23.724   9.150
 3679POPC   GL1 8233  13.603  23.686   8.850
 3679POPC   GL2 8234  13.491  23.651   8.850
 3679POPC   C1A 8235  13.594  23.739   8.550
 3679POPC   D2A 8236  13.653  23.712   8.250
 3679POPC   C3A 8237  13.632  23.729   7.950
 3679POPC   C4A 8238  13.665  23.751   7.650
 3679POPC   C1B 8239  13.482  23.544   8.550
 3679POPC   C2B 8240  13.438  23.536   8.250
 3679POPC   C3B 8241  13.421  23.495   7.950
 3679POPC   C4B 8242  13.422  23.493   7.650
 3680POPC   NC3 8243  21.406  33.763   9.450
 3680POPC   PO4 8244  21.355  33.815   9.150
 3680POPC   GL1 8245  21.434  33.823   8.850
 3680POPC   GL2 8246  21.384  33.651   8.850
 3680POPC   C1A 8247  21.427  33.843   8.550
 3680POPC   D2A 8248  21.428  33.838   8.250
 3680POPC   C3A 8249  21.380  33.762   7.950
 3680POPC   C4A 8250  21.408  33.769   7.650
 3680POPC   C1B 8251  21.496  33.540   8.550
 3680POPC   C2B 8252  21.494  33.548   8.250
 3680POPC   C3B 8253  21.469  33.587   7.950
 3680POPC   C4B 8254  21.452  33.515   7.650
 3681POPC   NC3 8255  31.439  38.447   9.450
 3681POPC   PO4 8256  31.447  38.408   9.150
 3681POPC   GL1 8257  31.505  38.489   8.850
 3681POPC   GL2 8258  31.622  38.417   8.850
 3681POPC   C1A 8259  31.438  38.459   8.550
 3681POPC   D2A 8260  31.455  38.499   8.250
 3681POPC   C3A 8261  31.465  38.487   7.950
 3681POPC   C4A 8262  31.517  38.408   7.650
 3681POPC   C1B 8263  31.691  38.450   8.550
 3681POPC   C2B 8264  31.740  38.488   8.250
 3681POPC   C3B 8265  31.720  38.467   7.950
 3681POPC   C4B 8266  31.752  38.478   7.650
 3682POPC   NC3 8267  44.689  42.297   9.450
 3682POPC   PO4 8268  44.705  42.331   9.150
 3682POPC   GL1 8269  44.680  42.322   8.850
 3682POPC   GL2 8270  44.713  42.408   8.850
 3682POPC   C1A 8271  44.674  42.305   8.550
 3682POPC   D2A 8272  44.678  42.325   8.250
 3682POPC   C3A 8273  44.668  42.312   7.950
 3682POPC   C4A 8274  44.635  42.335   7.650
 3682POPC   C1B 8275  44.879  42.548   8.550
 3682POPC   C2B 8276  44.895  42.503   8.250
 3682POPC   C3B 8277  44.842  42.530   7.950
 3682POPC   C4B 8278  44.805  42.539   7.650
 3683POPC   NC3 8279  17.480  18.285   9.450
 3683POPC   PO4 8280  17.478  18.247   9.150
 3683POPC   GL1 8281  17.472  18.247   8.850
 3683POPC   GL2 8282  17.346  18.284   8.850
 3683POPC   C1A 8283  17.554  18.306   8.550
 3683POPC   D2A 8284  17.501  18.290   8.250
 3683POPC   C3A 8285  17.479  18.281   7.950
 3683POPC   C4A 8286  17.484  18.251   7.650
 3683POPC   C1B 8287  17.263  18.316   8.550
 3683POPC   C2B 8288  17.286  18.348   8.250
 3683POPC   C3B 8289  17.249  18.344   7.950
 3683POPC   C4B 8290  17.257  18.273   7.650
 3684POPC   NC3 8291  22.982  33.838   9.450
 3684POPC   PO4 8292  22.987  33.832   9.150
 3684POPC   GL1 8293  22.912  33.829   8.850
 3684POPC   GL2 8294  22.814  33.723   8.850
 3684POPC   C1A 8295  22.955  33.792   8.550
 3684POPC   D2A 8296  22.928  33.847   8.250
 3684POPC   C3A 8297  22.891  33.813   7.950
 3684POPC   C4A 8298  22.907  33.787   7.650
 3684POPC   C1B 8299  22.701  33.613   8.550
 3684POPC   C2B 8300  22.772  33.625   8.250
 3684POPC   C3B 8301  22.727  33.690   7.950
 3684POPC   C4B 8302  22.707  33.631   7.650
 3685POPC   NC3 8303  16.771   6.612   9.450
 3685POPC   PO4 8304  16.709   6.686   9.150
 3685POPC   GL1 8305  16.738   6.599   8.850
 3685POPC   GL2 8306  16.844   6.673   8.850
 3685POPC   C1A 8307  16.703   6.667   8.550
 3685POPC   D2A 8308  16.752   6.642   8.250
 3685POPC   C3A 8309  16.690   6.694   7.950
 3685POPC   C4A 8310  16.712   6.677   7.650
 3685POPC   C1B 8311  17.019   6.615   8.550
 3685POPC   C2B 8312  16.987   6.659   8.250
 3685POPC   C3B 8313  17.015   6.659   7.950
 3685POPC   C4B 8314  16.988   6.636   7.650
 3686POPC   NC3 8315  36.945  17.538   9.450
 3686POPC   PO4 8316  36.936  17.485   9.150
 3686POPC   GL1 8317  36.952  17.462   8.850
 3686POPC   GL2 8318  36.955  17.628   8.850
 3686POPC   C1A 8319  36.924  17.536   8.550
 3686POPC   D2A 8320  36.858  17.520   8.250
 3686POPC   C3A 8321  36.908  17.458   7.950
 3686POPC   C4A 8322  36.953  17.556   7.650
 3686POPC   C1B 8323  37.090  17.644   8.550
 3686POPC   C2B 8324  37.081  17.722   8.250
 3686POPC   C3B 8325  37.042  17.670   7.950
 3686POPC   C4B 8326  37.113  17.699   7.650
 3687POPC   NC3 8327  13.613  22.147   9.450
 3687POPC   PO4 8328  13.585  22.136   9.150
 3687POPC   GL1 8329  13.597  22.147   8.850
 3687POPC   GL2 8330  13.738  22.150   8.850
 3687POPC   C1A 8331  13.662  22.206   8.550
 3687POPC   D2A 8332  13.617  22.126   8.250
 3687POPC   C3A 8333  13.578  22.149   7.950
 3687POPC   C4A 8334  13.633  22.134   7.650
 3687POPC   C1B 8335  13.875  22.004   8.550
 3687POPC   C2B 8336  13.847  22.037   8.250
 3687POPC   C3B 8337  13.810  22.037   7.950
 3687POPC   C4B 8338  13.797  22.055   7.650
 3688POPC   NC3 8339   8.155  43.886   9.450
 3688POPC   PO4 8340   8.217  43.843   9.150
 3688POPC   GL1 8341   8.165  43.880   8.850
 3688POPC   GL2 8342   8.042  43.867   8.850
 3688POPC   C1A 8343   8.240  43.881   8.550
 3688POPC   D2A 8344   8.242  43.853   8.250
 3688POPC   C3A 8345   8.240  43.858   7.950
 3688POPC   C4A 8346   8.196  43.886   7.650
 3688POPC   C1B 8347   7.933  43.844   8.550
 3688POPC   C2B 8348   7.991  43.814   8.250
 3688POPC   C3B 8349   7.978  43.827   7.950
 3688POPC   C4B 8350   7.997  43.891   7.650
 3689POPC   NC3 8351   0.448   4.354   9.450
 3689POPC   PO4 8352   0.456   4.347   9.150
 3689POPC   GL1 8353   0.483   4.269   8.850
 3689POPC   GL2 8354   0.537   4.342   8.850
 3689POPC   C1A 8355   0.418   4.296   8.550
 3689POPC   D2A 8356   0.462   4.322   8.250
 3689POPC   C3A 8357   0.445   4.340   7.950
 3689POPC   C4A 8358   0.481   4.323   7.650
 3689POPC   C1B 8359   0.663   4.414   8.550
 3689POPC   C2B 8360   0.693   4.366   8.250
 3689POPC   C3B 8361   0.638   4.368   7.950
 3689POPC   C4B 8362   0.637   4.357   7.650
 3690POPC   NC3 8363  43.873  24.476   9.450
 3690POPC   PO4 8364  43.853  24.519   9.150
 3690POPC   GL1 8365  43.927  24.500   8.850
 3690POPC   GL2 8366  43.794  24.494   8.850
 3690POPC   C1A 8367  43.853  24.467   8.550
 3690POPC   D2A 8368  43.859  24.484   8.250
 3690POPC   C3A 8369  43.910  24.529   7.950
 3690POPC   C4A 8370  43.877  24.531   7.650
 3690POPC   C1B 8371  43.598  24.520   8.550
 3690POPC   C2B 8372  43.622  24.523   8.250
 3690POPC   C3B 8373  43.589  24.482   7.950
 3690POPC   C4B 8374  43.624  24.536   7.650
 3691POPC   NC3 8375  15.160  18.286   9.450
 3691POPC   PO4 8376  15.194  18.258   9.150
 3691POPC   GL1 8377  15.154  18.245   8.850
 3691POPC   GL2 8378  15.156  18.428   8.850
 3691POPC   C1A 8379  15.147  18.301   8.550
 3691POPC   D2A 8380  15.218  18.319   8.250
 3691POPC   C3A 8381  15.138  18.284   7.950
 3691POPC   C4A 8382  15.141  18.272   7.650
 3691POPC   C1B 8383  15.191  18.570   8.550
 3691POPC   C2B 8384  15.168  18.546   8.250
 3691POPC   C3B 8385  15.196  18.533   7.950
 3691POPC   C4B 8386  15.177  18.518   7.650
 3692POPC   NC3 8387   4.309  26.783   9.450
 3692POPC   PO4 8388   4.366  26.815   9.150
 3692POPC   GL1 8389   4.350  26.770   8.850
 3692POPC   GL2 8390   4.274  26.975   8.850
 3692POPC   C1A 8391   4.287  26.772   8.550
 3692POPC   D2A 8392   4.348  26.778   8.250
 3692POPC   C3A 8393   4.332  26.784   7.950
 3692POPC   C4A 8394   4.322  26.775   7.650
 3692POPC   C1B 8395   4.279  27.099   8.550
 3692POPC   C2B 8396   4.239  27.100   8.250
 3692POPC   C3B 8397   4.281  27.091   7.950
 3692POPC   C4B 8398   4.286  27.043   7.650
 3693POPC   NC3 8399  34.616  31.460   9.450
 3693POPC   PO4 8400  34.571  31.438   9.150
 3693POPC   GL1 8401  34.527  31.481   8.850
 3693POPC   GL2 8402  34.618  31.340   8.850
 3693POPC   C1A 8403  34.592  31.450   8.550
 3693POPC   D2A 8404  34.605  31.492   8.250
 3693POPC   C3A 8405  34.605  31.507   7.950
 3693POPC   C4A 8406  34.567  31.450   7.650
 3693POPC   C1B 8407  34.631  31.278   8.550
 3693POPC   C2B 8408  34.594  31.273   8.250
 3693POPC   C3B 8409  34.649  31.239   7.950
 3693POPC   C4B 8410  34.650  31.231   7.650
 3694POPC   NC3 8411  30.728  17.495   9.450
 3694POPC   PO4 8412  30.721  17.496   9.150
 3694POPC   GL1 8413  30.715  17.463   8.850
 3694POPC   GL2 8414  30.781  17.522   8.850
 3694POPC   C1A 8415  30.700  17.527   8.550
 3694POPC   D2A 8416  30.693  17.544   8.250
 3694POPC   C3A 8417  30.685  17.494   7.950
 3694POPC   C4A 8418  30.687  17.509   7.650
 3694POPC   C1B 8419  30.990  17.502   8.550
 3694POPC   C2B 8420  30.902  17.538   8.250
 3694POPC   C3B 8421  30.915  17.472   7.950
 3694POPC   C4B 8422  30.957  17.542   7.650
 3695POPC   NC3 8423  16.715  16.684   9.450
 3695POPC   PO4 8424  16.686  16.708   9.150
 3695POPC   GL1 8425  16.738  16.703   8.850
 3695POPC   GL2 8426  16.630  16.830   8.850
 3695POPC   C1A 8427  16.696  16.773   8.550
 3695POPC   D2A 8428  16.724  16.778   8.250
 3695POPC   C3A 8429  16.752  16.773   7.950
 3695POPC   C4A 8430  16.753  16.757   7.650
 3695POPC   C1B 8431  16.519  16.890   8.550
 3695POPC   C2B 8432  16.585  16.915   8.250
 3695POPC   C3B 8433  16.527  16.962   7.950
 3695POPC   C4B 8434  16.543  16.963   7.650
 3696POPC   NC3 8435  31.493  29.163   9.450
 3696POPC   PO4 8436  31.429  29.151   9.150
 3696POPC   GL1 8437  31.430  29.115   8.850
 3696POPC   GL2 8438  31.444  29.281   8.850
 3696POPC   C1A 8439  31.453  29.096   8.550
 3696POPC   D2A 8440  31.493  29.173   8.250
 3696POPC   C3A 8441  31.461  29.103   7.950
 3696POPC   C4A 8442  31.445  29.109   7.650
 3696POPC   C1B 8443  31.362  29.403   8.550
 3696POPC   C2B 8444  31.312  29.313   8.250
 3696POPC   C3B 8445  31.341  29.396   7.950
 3696POPC   C4B 8446  31.383  29.363   7.650
 3697POPC   NC3 8447  14.359  27.601   9.450
 3697POPC   PO4 8448  14.389  27.609   9.150
 3697POPC   GL1 8449  14.449  27.598   8.850
 3697POPC   GL2 8450  14.424  27.662   8.850
 3697POPC   C1A 8451  14.371  27.640   8.550
 3697POPC   D2A 8452  14.378  27.609   8.250
 3697POPC   C3A 8453  14.407  27.641   7.950
 3697POPC   C4A 8454  14.385  27.632   7.650
 3697POPC   C1B 8455  14.456  27.817   8.550
 3697POPC   C2B 8456  14.489  27.861   8.250
 3697POPC   C3B 8457  14.472  27.779   7.950
 3697POPC   C4B 8458  14.532  27.863   7.650
 3698POPC   NC3 8459  10.475  36.855   9.450
 3698POPC   PO4 8460  10.557  36.859   9.150
 3698POPC   GL1 8461  10.503  36.951   8.850
 3698POPC   GL2 8462  10.403  36.855   8.850
 3698POPC   C1A 8463  10.512  36.935   8.550
 3698POPC   D2A 8464  10.477  36.937   8.250
 3698POPC   C3A 8465  10.561  36.885   7.950
 3698POPC   C4A 8466  10.539  36.951   7.650
 3698POPC   C1B 8467  10.326  36.799   8.550
 3698POPC   C2B 8468  10.262  36.819   8.250
 3698POPC   C3B 8469  10.296  36.851   7.950
 3698POPC   C4B 8470  10.286  36.809   7.650
 3699POPC   NC3 8471  13.631  26.090   9.450
 3699POPC   PO4 8472  13.669  26.066   9.150
 3699POPC   GL1 8473  13.606  26.037   8.850
 3699POPC   GL2 8474  13.736  26.056   8.850
 3699POPC   C1A 8475  13.585  26.052   8.550
 3699POPC   D2A 8476  13.668  26.078   8.250
 3699POPC   C3A 8477  13.607  26.073   7.950
 3699POPC   C4A 8478  13.663  26.024   7.650
 3699POPC   C1B 8479  13.856  26.018   8.550
 3699POPC   C2B 8480  13.911  26.061   8.250
 3699POPC   C3B 8481  13.898  26.037   7.950
 3699POPC   C4B 8482  13.877  26.076   7.650
 3700POPC   NC3 8483  32.281  31.478   9.450
 3700POPC   PO4 8484  32.203  31.446   9.150
 3700POPC   GL1 8485  32.282  31.517   8.850
 3700POPC   GL2 8486  32.088  31.455   8.850
 3700POPC   C1A 8487  32.204  31.460   8.550
 3700POPC   D2A 8488  32.298  31.437   8.250
 3700POPC   C3A 8489  32.285  31.516   7.950
 3700POPC   C4A 8490  32.241  31.462   7.650
 3700POPC   C1B 8491  32.036  31.446   8.550
 3700POPC   C2B 8492  31.964  31.471   8.250
 3700POPC   C3B 8493  31.972  31.500   7.950
 3700POPC   C4B 8494  32.032  31.484   7.650
 3701POPC   NC3 8495   5.845  37.713   9.450
 3701POPC   PO4 8496   5.907  37.720   9.150
 3701POPC   GL1 8497   5.883  37.706   8.850
 3701POPC   GL2 8498   6.026  37.670   8.850
 3701POPC   C1A 8499   5.897  37.666   8.550
 3701POPC   D2A 8500   5.864  37.645   8.250
 3701POPC   C3A 8501   5.854  37.698   7.950
 3701POPC   C4A 8502   5.878  37.666   7.650
 3701POPC   C1B 8503   6.119  37.656   8.550
 3701POPC   C2B 8504   6.133  37.667   8.250
 3701POPC   C3B 8505   6.129  37.637   7.950
 3701POPC   C4B 8506   6.109  37.599   7.650
 3702POPC   NC3 8507  23.727  33.040   9.450
 3702POPC   PO4 8508  23.743  33.043   9.150
 3702POPC   GL1 8509  23.700  33.068   8.850
 3702POPC   GL2 8510  23.829  33.046   8.850
 3702POPC   C1A 8511  23.712  33.022   8.550
 3702POPC   D2A 8512  23.722  33.037   8.250
 3702POPC   C3A 8513  23.666  33.073   7.950
 3702POPC   C4A 8514  23.671  32.986   7.650
 3702POPC   C1B 8515  23.984  33.030   8.550
 3702POPC   C2B 8516  23.940  33.107   8.250
 3702POPC   C3B 8517  23.956  33.099   7.950
 3702POPC   C4B 8518  24.007  33.072   7.650
 3703POPC   NC3 8519  15.179   6.606   9.450
 3703POPC   PO4 8520  15.204   6.682   9.150
 3703POPC   GL1 8521  15.212   6.622   8.850
 3703POPC   GL2 8522  15.075   6.593   8.850
 3703POPC   C1A 8523  15.148   6.684   8.550
 3703POPC   D2A 8524  15.143   6.666   8.250
 3703POPC   C3A 8525  15.157   6.657   7.950
 3703POPC   C4A 8526  15.206   6.625   7.650
 3703POPC   C1B 8527  14.948   6.621   8.550
 3703POPC   C2B 8528  14.896   6.540   8.250
 3703POPC   C3B 8529  14.954   6.584   7.950
 3703POPC   C4B 8530  14.962   6.596   7.650
 3704POPC   NC3 8531  24.443  32.999   9.450
 3704POPC   PO4 8532  24.487  33.030   9.150
 3704POPC   GL1 8533  24.538  32.995   8.850
 3704POPC   GL2 8534  24.595  32.997   8.850
 3704POPC   C1A 8535  24.524  33.036   8.550
 3704POPC   D2A 8536  24.497  33.025   8.250
 3704POPC   C3A 8537  24.509  33.017   7.950
 3704POPC   C4A 8538  24.490  33.015   7.650
 3704POPC   C1B 8539  24.711  32.929   8.550
 3704POPC   C2B 8540  24.683  32.964   8.250
 3704POPC   C3B 8541  24.724  32.903   7.950
 3704POPC   C4B 8542  24.678  32.905   7.650
 3705POPC   NC3 8543  29.925  35.349   9.450
 3705POPC   PO4 8544  29.945  35.354   9.150
 3705POPC   GL1 8545  29.970  35.376   8.850
 3705POPC   GL2 8546  29.958  35.455   8.850
 3705POPC   C1A 8547  29.956  35.376   8.550
 3705POPC   D2A 8548  29.945  35.309   8.250
 3705POPC   C3A 8549  29.940  35.362   7.950
 3705POPC   C4A 8550  29.909  35.395   7.650
 3705POPC   C1B 8551  29.913  35.605   8.550
 3705POPC   C2B 8552  29.909  35.584   8.250
 3705POPC   C3B 8553  29.903  35.643   7.950
 3705POPC   C4B 8554  29.922  35.635   7.650
 3706POPC   NC3 8555  34.571  30.721   9.450
 3706POPC   PO4 8556  34.621  30.733   9.150
 3706POPC   GL1 8557  34.574  30.651   8.850
 3706POPC   GL2 8558  34.669  30.734   8.850
 3706POPC   C1A 8559  34.559  30.739   8.550
 3706POPC   D2A 8560  34.528  30.679   8.250
 3706POPC   C3A 8561  34.602  30.729   7.950
 3706POPC   C4A 8562  34.610  30.700   7.650
 3706POPC   C1B 8563  34.851  30.658   8.550
 3706POPC   C2B 8564  34.835  30.664   8.250
 3706POPC   C3B 8565  34.815  30.695   7.950
 3706POPC   C4B 8566  34.867  30.710   7.650
 3707POPC   NC3 8567  27.617  10.560   9.450
 3707POPC   PO4 8568  27.639  10.542   9.150
 3707POPC   GL1 8569  27.642  10.531   8.850
 3707POPC   GL2 8570  27.590  10.667   8.850
 3707POPC   C1A 8571  27.632  10.496   8.550
 3707POPC   D2A 8572  27.612  10.565   8.250
 3707POPC   C3A 8573  27.605  10.543   7.950
 3707POPC   C4A 8574  27.636  10.518   7.650
 3707POPC   C1B 8575  27.513  10.770   8.550
 3707POPC   C2B 8576  27.567  10.786   8.250
 3707POPC   C3B 8577  27.579  10.816   7.950
 3707POPC   C4B 8578  27.551  10.801   7.650
 3708POPC   NC3 8579  22.142   9.716   9.450
 3708POPC   PO4 8580  22.150   9.737   9.150
 3708POPC   GL1 8581  22.203   9.718   8.850
 3708POPC   GL2 8582  22.206   9.832   8.850
 3708POPC   C1A 8583  22.141   9.720   8.550
 3708POPC   D2A 8584  22.197   9.769   8.250
 3708POPC   C3A 8585  22.146   9.718   7.950
 3708POPC   C4A 8586  22.167   9.768   7.650
 3708POPC   C1B 8587  22.309   9.924   8.550
 3708POPC   C2B 8588  22.274   9.966   8.250
 3708POPC   C3B 8589  22.262   9.956   7.950
 3708POPC   C4B 8590  22.329   9.978   7.650
 3709POPC   NC3 8591  36.952  32.243   9.450
 3709POPC   PO4 8592  36.949  32.202   9.150
 3709POPC   GL1 8593  36.922  32.292   8.850
 3709POPC   GL2 8594  36.897  32.353   8.850
 3709POPC   C1A 8595  36.911  32.234   8.550
 3709POPC   D2A 8596  36.932  32.220   8.250
 3709POPC   C3A 8597  36.946  32.234   7.950
 3709POPC   C4A 8598  36.938  32.242   7.650
 3709POPC   C1B 8599  36.804  32.458   8.550
 3709POPC   C2B 8600  36.826  32.467   8.250
 3709POPC   C3B 8601  36.887  32.444   7.950
 3709POPC   C4B 8602  36.878  32.465   7.650
 3710POPC   NC3 8603   2.801  40.806   9.450
 3710POPC   PO4 8604   2.759  40.758   9.150
 3710POPC   GL1 8605   2.754  40.772   8.850
 3710POPC   GL2 8606   2.782  40.676   8.850
 3710POPC   C1A 8607   2.797  40.776   8.550
 3710POPC   D2A 8608   2.717  40.768   8.250
 3710POPC   C3A 8609   2.730  40.793   7.950
 3710POPC   C4A 8610   2.788  40.748   7.650
 3710POPC   C1B 8611   2.889  40.610   8.550
 3710POPC   C2B 8612   2.923  40.560   8.250
 3710POPC   C3B 8613   2.923  40.593   7.950
 3710POPC   C4B 8614   2.856  40.569   7.650
 3711POPC   NC3 8615  19.078  39.197   9.450
 3711POPC   PO4 8616  19.035  39.273   9.150
 3711POPC   GL1 8617  19.067  39.213   8.850
 3711POPC   GL2 8618  19.088  39.336   8.850
 3711POPC   C1A 8619  19.034  39.187   8.550
 3711POPC   D2A 8620  19.100  39.252   8.250
 3711POPC   C3A 8621  19.031  39.247   7.950
 3711POPC   C4A 8622  19.010  39.269   7.650
 3711POPC   C1B 8623  19.141  39.496   8.550
 3711POPC   C2B 8624  19.157  39.443   8.250
 3711POPC   C3B 8625  19.113  39.445   7.950
 3711POPC   C4B 8626  19.105  39.525   7.650
 3712POPC   NC3 8627  12.089  15.151   9.450
 3712POPC   PO4 8628  12.113  15.156   9.150
 3712POPC   GL1 8629  12.059  15.153   8.850
 3712POPC   GL2 8630  11.921  15.207   8.850
 3712POPC   C1A 8631  12.113  15.153   8.550
 3712POPC   D2A 8632  12.069  15.152   8.250
 3712POPC   C3A 8633  12.108  15.158   7.950
 3712POPC   C4A 8634  12.044  15.192   7.650
 3712POPC   C1B 8635  11.797  15.253   8.550
 3712POPC   C2B 8636  11.806  15.261   8.250
 3712POPC   C3B 8637  11.800  15.221   7.950
 3712POPC   C4B 8638  11.830  15.303   7.650
 3713POPC   NC3 8639  43.930  25.233   9.450
 3713POPC   PO4 8640  43.915  25.254   9.150
 3713POPC   GL1 8641  43.871  25.311   8.850
 3713POPC   GL2 8642  43.831  25.156   8.850
 3713POPC   C1A 8643  43.845  25.221   8.550
 3713POPC   D2A 8644  43.871  25.293   8.250
 3713POPC   C3A 8645  43.885  25.260   7.950
 3713POPC   C4A 8646  43.903  25.269   7.650
 3713POPC   C1B 8647  43.765  25.059   8.550
 3713POPC   C2B 8648  43.816  25.049   8.250
 3713POPC   C3B 8649  43.803  25.040   7.950
 3713POPC   C4B 8650  43.755  25.003   7.650
 3714POPC   NC3 8651  30.695  19.796   9.450
 3714POPC   PO4 8652  30.658  19.805   9.150
 3714POPC   GL1 8653  30.683  19.831   8.850
 3714POPC   GL2 8654  30.649  19.981   8.850
 3714POPC   C1A 8655  30.715  19.876   8.550
 3714POPC   D2A 8656  30.744  19.862   8.250
 3714POPC   C3A 8657  30.729  19.791   7.950
 3714POPC   C4A 8658  30.672  19.826   7.650
 3714POPC   C1B 8659  30.693  20.058   8.550
 3714POPC   C2B 8660  30.666  20.113   8.250
 3714POPC   C3B 8661  30.697  20.121   7.950
 3714POPC   C4B 8662  30.681  20.111   7.650
 3715POPC   NC3 8663  14.451  42.372   9.450
 3715POPC   PO4 8664  14.383  42.321   9.150
 3715POPC   GL1 8665  14.426  42.285   8.850
 3715POPC   GL2 8666  14.271  42.342   8.850
 3715POPC   C1A 8667  14.368  42.325   8.550
 3715POPC   D2A 8668  14.428  42.359   8.250
 3715POPC   C3A 8669  14.427  42.288   7.950
 3715POPC   C4A 8670  14.423  42.383   7.650
 3715POPC   C1B 8671  14.120  42.267   8.550
 3715POPC   C2B 8672  14.150  42.292   8.250
 3715POPC   C3B 8673  14.110  42.270   7.950
 3715POPC   C4B 8674  14.108  42.242   7.650
 3716POPC   NC3 8675  19.859  16.752   9.450
 3716POPC   PO4 8676  19.811  16.763   9.150
 3716POPC   GL1 8677  19.815  16.719   8.850
 3716POPC   GL2 8678  19.738  16.606   8.850
 3716POPC   C1A 8679  19.827  16.717   8.550
 3716POPC   D2A 8680  19.870  16.767   8.250
 3716POPC   C3A 8681  19.867  16.754   7.950
 3716POPC   C4A 8682  19.791  16.741   7.650
 3716POPC   C1B 8683  19.771  16.487   8.550
 3716POPC   C2B 8684  19.746  16.535   8.250
 3716POPC   C3B 8685  19.740  16.541   7.950
 3716POPC   C4B 8686  19.703  16.518   7.650
 3717POPC   NC3 8687  43.896  18.263   9.450
 3717POPC   PO4 8688  43.906  18.329   9.150
 3717POPC   GL1 8689  43.913  18.266   8.850
 3717POPC   GL2 8690  43.876  18.137   8.850
 3717POPC   C1A 8691  43.929  18.313   8.550
 3717POPC   D2A 8692  43.878  18.273   8.250
 3717POPC   C3A 8693  43.879  18.295   7.950
 3717POPC   C4A 8694  43.929  18.313   7.650
 3717POPC   C1B 8695  43.894  18.025   8.550
 3717POPC   C2B 8696  43.894  17.995   8.250
 3717POPC   C3B 8697  43.932  18.052   7.950
 3717POPC   C4B 8698  43.954  18.070   7.650
 3718POPC   NC3 8699  26.011  15.927   9.450
 3718POPC   PO4 8700  26.081  15.948   9.150
 3718POPC   GL1 8701  26.080  15.983   8.850
 3718POPC   GL2 8702  25.932  15.912   8.850
 3718POPC   C1A 8703  26.069  15.936   8.550
 3718POPC   D2A 8704  26.084  15.935   8.250
 3718POPC   C3A 8705  26.036  16.001   7.950
 3718POPC   C4A 8706  26.013  15.960   7.650
 3718POPC   C1B 8707  25.827  15.912   8.550
 3718POPC   C2B 8708  25.835  15.856   8.250
 3718POPC   C3B 8709  25.847  15.880   7.950
 3718POPC   C4B 8710  25.855  15.854   7.650
 3719POPC   NC3 8711  31.462   8.944   9.450
 3719POPC   PO4 8712  31.461   8.942   9.150
 3719POPC   GL1 8713  31.490   8.991   8.850
 3719POPC   GL2 8714  31.326   8.872   8.850
 3719POPC   C1A 8715  31.479   8.932   8.550
 3719POPC   D2A 8716  31.436   9.004   8.250
 3719POPC   C3A 8717  31.514   8.991   7.950
 3719POPC   C4A 8718  31.493   8.938   7.650
 3719POPC   C1B 8719  31.248   8.811   8.550
 3719POPC   C2B 8720  31.211   8.809   8.250
 3719POPC   C3B 8721  31.239   8.888   7.950
 3719POPC   C4B 8722  31.248   8.814   7.650
 3720POPC   NC3 8723  12.817  35.309   9.450
 3720POPC   PO4 8724  12.810  35.329   9.150
 3720POPC   GL1 8725  12.821  35.391   8.850
 3720POPC   GL2 8726  12.747  35.289   8.850
 3720POPC   C1A 8727  12.894  35.313   8.550
 3720POPC   D2A 8728  12.835  35.360   8.250
 3720POPC   C3A 8729  12.815  35.388   7.950
 3720POPC   C4A 8730  12.835  35.399   7.650
 3720POPC   C1B 8731  12.624  35.257   8.550
 3720POPC   C2B 8732  12.650  35.237   8.250
 3720POPC   C3B 8733  12.633  35.246   7.950
 3720POPC   C4B 8734  12.610  35.240   7.650
 3721POPC   NC3 8735  44.702  32.259   9.450
 3721POPC   PO4 8736  44.677  32.206   9.150
 3721POPC   GL1 8737  44.704  32.298   8.850
 3721POPC   GL2 8738  44.554  32.268   8.850
 3721POPC   C1A 8739  44.691  32.216   8.550
 3721POPC   D2A 8740  44.622  32.278   8.250
 3721POPC   C3A 8741  44.665  32.228   7.950
 3721POPC   C4A 8742  44.623  32.269   7.650
 3721POPC   C1B 8743  44.471  32.363   8.550
 3721POPC   C2B 8744  44.397  32.282   8.250
 3721POPC   C3B 8745  44.397  32.360   7.950
 3721POPC   C4B 8746  44.381  32.333   7.650
 3722POPC   NC3 8747  20.633  12.115   9.450
 3722POPC   PO4 8748  20.639  12.071   9.150
 3722POPC   GL1 8749  20.636  12.076   8.850
 3722POPC   GL2 8750  20.710  12.007   8.850
 3722POPC   C1A 8751  20.659  12.069   8.550
 3722POPC   D2A 8752  20.609  12.049   8.250
 3722POPC   C3A 8753  20.564  12.084   7.950
 3722POPC   C4A 8754  20.655  12.086   7.650
 3722POPC   C1B 8755  20.771  11.971   8.550
 3722POPC   C2B 8756  20.793  11.908   8.250
 3722POPC   C3B 8757  20.862  11.899   7.950
 3722POPC   C4B 8758  20.858  11.918   7.650
 3723POPC   NC3 8759   5.124   3.531   9.450
 3723POPC   PO4 8760   5.125   3.509   9.150
 3723POPC   GL1 8761   5.107   3.545   8.850
 3723POPC   GL2 8762   5.018   3.643   8.850
 3723POPC   C1A 8763   5.123   3.517   8.550
 3723POPC   D2A 8764   5.060   3.561   8.250
 3723POPC   C3A 8765   5.079   3.555   7.950
 3723POPC   C4A 8766   5.142   3.550   7.650
 3723POPC   C1B 8767   4.994   3.813   8.550
 3723POPC   C2B 8768   5.025   3.762   8.250
 3723POPC   C3B 8769   5.035   3.734   7.950
 3723POPC   C4B 8770   5.035   3.797   7.650
 3724POPC   NC3 8771  36.092  10.562   9.450
 3724POPC   PO4 8772  36.145  10.549   9.150
 3724POPC   GL1 8773  36.082  10.532   8.850
 3724POPC   GL2 8774  36.252  10.581   8.850
 3724POPC   C1A 8775  36.115  10.512   8.550
 3724POPC   D2A 8776  36.158  10.556   8.250
 3724POPC   C3A 8777  36.123  10.504   7.950
 3724POPC   C4A 8778  36.146  10.540   7.650
 3724POPC   C1B 8779  36.412  10.519   8.550
 3724POPC   C2B 8780  36.380  10.505   8.250
 3724POPC   C3B 8781  36.359  10.530   7.950
 3724POPC   C4B 8782  36.408  10.534   7.650
 3725POPC   NC3 8783   4.276  29.958   9.450
 3725POPC   PO4 8784   4.289  29.950   9.150
 3725POPC   GL1 8785   4.330  29.931   8.850
 3725POPC   GL2 8786   4.219  29.970   8.850
 3725POPC   C1A 8787   4.324  29.954   8.550
 3725POPC   D2A 8788   4.315  29.916   8.250
 3725POPC   C3A 8789   4.295  29.878   7.950
 3725POPC   C4A 8790   4.302  29.900   7.650
 3725POPC   C1B 8791   4.044  29.944   8.550
 3725POPC   C2B 8792   4.108  29.915   8.250
 3725POPC   C3B 8793   4.036  29.969   7.950
 3725POPC   C4B 8794   4.056  29.887   7.650
 3726POPC   NC3 8795  15.905  23.759   9.450
 3726POPC   PO4 8796  15.944  23.730   9.150
 3726POPC   GL1 8797  15.940  23.665   8.850
 3726POPC   GL2 8798  15.859  23.782   8.850
 3726POPC   C1A 8799  15.905  23.688   8.550
 3726POPC   D2A 8800  15.969  23.671   8.250
 3726POPC   C3A 8801  15.972  23.714   7.950
 3726POPC   C4A 8802  15.907  23.745   7.650
 3726POPC   C1B 8803  15.846  23.971   8.550
 3726POPC   C2B 8804  15.784  23.964   8.250
 3726POPC   C3B 8805  15.811  23.957   7.950
 3726POPC   C4B 8806  15.820  23.898   7.650
 3727POPC   NC3 8807  29.181   8.975   9.450
 3727POPC   PO4 8808  29.148   8.943   9.150
 3727POPC   GL1 8809  29.101   9.019   8.850
 3727POPC   GL2 8810  29.105   9.043   8.850
 3727POPC   C1A 8811  29.110   8.945   8.550
 3727POPC   D2A 8812  29.128   8.975   8.250
 3727POPC   C3A 8813  29.169   8.968   7.950
 3727POPC   C4A 8814  29.187   8.930   7.650
 3727POPC   C1B 8815  29.104   9.234   8.550
 3727POPC   C2B 8816  29.048   9.205   8.250
 3727POPC   C3B 8817  29.063   9.188   7.950
 3727POPC   C4B 8818  29.080   9.259   7.650
 3728POPC   NC3 8819  34.537  39.240   9.450
 3728POPC   PO4 8820  34.538  39.189   9.150
 3728POPC   GL1 8821  34.608  39.239   8.850
 3728POPC   GL2 8822  34.463  39.342   8.850
 3728POPC   C1A 8823  34.609  39.226   8.550
 3728POPC   D2A 8824  34.596  39.240   8.250
 3728POPC   C3A 8825  34.592  39.225   7.950
 3728POPC   C4A 8826  34.601  39.220   7.650
 3728POPC   C1B 8827  34.446  39.384   8.550
 3728POPC   C2B 8828  34.452  39.426   8.250
 3728POPC   C3B 8829  34.463  39.418   7.950
 3728POPC   C4B 8830  34.403  39.467   7.650
 3729POPC   NC3 8831  17.540   7.414   9.450
 3729POPC   PO4 8832  17.542   7.378   9.150
 3729POPC   GL1 8833  17.525   7.454   8.850
 3729POPC   GL2 8834  17.594   7.388   8.850
 3729POPC   C1A 8835  17.498   7.461   8.550
 3729POPC   D2A 8836  17.524   7.427   8.250
 3729POPC   C3A 8837  17.467   7.456   7.950
 3729POPC   C4A 8838  17.541   7.402   7.650
 3729POPC   C1B 8839  17.770   7.341   8.550
 3729POPC   C2B 8840  17.727   7.288   8.250
 3729POPC   C3B 8841  17.780   7.354   7.950
 3729POPC   C4B 8842  17.703   7.311   7.650
 3730POPC   NC3 8843  32.201  22.136   9.450
 3730POPC   PO4 8844  32.257  22.123   9.150
 3730POPC   GL1 8845  32.226  22.132   8.850
 3730POPC   GL2 8846  32.223  22.043   8.850
 3730POPC   C1A 8847  32.250  22.210   8.550
 3730POPC   D2A 8848  32.226  22.210   8.250
 3730POPC   C3A 8849  32.230  22.162   7.950
 3730POPC   C4A 8850  32.248  22.149   7.650
 3730POPC   C1B 8851  32.174  21.987   8.550
 3730POPC   C2B 8852  32.109  21.923   8.250
 3730POPC   C3B 8853  32.094  21.960   7.950
 3730POPC   C4B 8854  32.154  21.917   7.650
 3731POPC   NC3 8855   5.116  32.210   9.450
 3731POPC   PO4 8856   5.085  32.229   9.150
 3731POPC   GL1 8857   5.098  32.236   8.850
 3731POPC   GL2 8858   4.957  32.246   8.850
 3731POPC   C1A 8859   5.088  32.274   8.550
 3731POPC   D2A 8860   5.117  32.278   8.250
 3731POPC   C3A 8861   5.062  32.285   7.950
 3731POPC   C4A 8862   5.085  32.257   7.650
 3731POPC   C1B 8863   4.841  32.180   8.550
 3731POPC   C2B 8864   4.826  32.247   8.250
 3731POPC   C3B 8865   4.852  32.216   7.950
 3731POPC   C4B 8866   4.818  32.278   7.650
 3732POPC   NC3 8867  26.785  26.012   9.450
 3732POPC   PO4 8868  26.839  26.048   9.150
 3732POPC   GL1 8869  26.845  26.032   8.850
 3732POPC   GL2 8870  26.891  26.128   8.850
 3732POPC   C1A 8871  26.817  26.000   8.550
 3732POPC   D2A 8872  26.857  26.001   8.250
 3732POPC   C3A 8873  26.820  26.053   7.950
 3732POPC   C4A 8874  26.835  26.032   7.650
 3732POPC   C1B 8875  27.013  26.127   8.550
 3732POPC   C2B 8876  27.046  26.148   8.250
 3732POPC   C3B 8877  27.019  26.136   7.950
 3732POPC   C4B 8878  26.993  26.217   7.650
 3733POPC   NC3 8879  33.033  35.343   9.450
 3733POPC   PO4 8880  32.984  35.313   9.150
 3733POPC   GL1 8881  33.024  35.388   8.850
 3733POPC   GL2 8882  32.915  35.434   8.850
 3733POPC   C1A 8883  33.000  35.392   8.550
 3733POPC   D2A 8884  32.982  35.309   8.250
 3733POPC   C3A 8885  33.072  35.352   7.950
 3733POPC   C4A 8886  33.041  35.308   7.650
 3733POPC   C1B 8887  32.834  35.476   8.550
 3733POPC   C2B 8888  32.783  35.501   8.250
 3733POPC   C3B 8889  32.824  35.469   7.950
 3733POPC   C4B 8890  32.864  35.541   7.650
 3734POPC   NC3 8891  10.558  39.961   9.450
 3734POPC   PO4 8892  10.559  40.052   9.150
 3734POPC   GL1 8893  10.481  39.962   8.850
 3734POPC   GL2 8894  10.610  39.933   8.850
 3734POPC   C1A 8895  10.555  39.991   8.550
 3734POPC   D2A 8896  10.511  40.000   8.250
 3734POPC   C3A 8897  10.506  39.999   7.950
 3734POPC   C4A 8898  10.525  40.004   7.650
 3734POPC   C1B 8899  10.731  39.833   8.550
 3734POPC   C2B 8900  10.754  39.855   8.250
 3734POPC   C3B 8901  10.737  39.816   7.950
 3734POPC   C4B 8902  10.757  39.796   7.650
 3735POPC   NC3 8903  36.924  34.591   9.450
 3735POPC   PO4 8904  36.931  34.539   9.150
 3735POPC   GL1 8905  36.925  34.542   8.850
 3735POPC   GL2 8906  36.865  34.653   8.850
 3735POPC   C1A 8907  36.874  34.582   8.550
 3735POPC   D2A 8908  36.942  34.599   8.250
 3735POPC   C3A 8909  36.952  34.603   7.950
 3735POPC   C4A 8910  36.922  34.556   7.650
 3735POPC   C1B 8911  36.854  34.869   8.550
 3735POPC   C2B 8912  36.921  34.862   8.250
 3735POPC   C3B 8913  36.916  34.814   7.950
 3735POPC   C4B 8914  36.852  34.822   7.650
 3736POPC   NC3 8915  43.935  41.533   9.450
 3736POPC   PO4 8916  43.860  41.538   9.150
 3736POPC   GL1 8917  43.856  41.546   8.850
 3736POPC   GL2 8918  43.912  41.455   8.850
 3736POPC   C1A 8919  43.891  41.567   8.550
 3736POPC   D2A 8920  43.924  41.514   8.250
 3736POPC   C3A 8921  43.893  41.557   7.950
 3736POPC   C4A 8922  43.926  41.603   7.650
 3736POPC   C1B 8923  44.024  41.405   8.550
 3736POPC   C2B 8924  44.075  41.402   8.250
 3736POPC   C3B 8925  44.058  41.327   7.950
 3736POPC   C4B 8926  44.034  41.346   7.650
 3737POPC   NC3 8927  43.881   7.432   9.450
 3737POPC   PO4 8928  43.913   7.404   9.150
 3737POPC   GL1 8929  43.899   7.405   8.850
 3737POPC   GL2 8930  43.973   7.518   8.850
 3737POPC   C1A 8931  43.850   7.406   8.550
 3737POPC   D2A 8932  43.839   7.395   8.250
 3737POPC   C3A 8933  43.841   7.400   7.950
 3737POPC   C4A 8934  43.892   7.430   7.650
 3737POPC   C1B 8935  44.077   7.575   8.550
 3737POPC   C2B 8936  44.011   7.661   8.250
 3737POPC   C3B 8937  44.040   7.605   7.950
 3737POPC   C4B 8938  44.085   7.577   7.650
 3738POPC   NC3 8939  36.146  38.414   9.450
 3738POPC   PO4 8940  36.127  38.414   9.150
 3738POPC   GL1 8941  36.090  38.422   8.850
 3738POPC   GL2 8942  36.232  38.376   8.850
 3738POPC   C1A 8943  36.080  38.433   8.550
 3738POPC   D2A 8944  36.118  38.450   8.250
 3738POPC   C3A 8945  36.110  38.471   7.950
 3738POPC   C4A 8946  36.131  38.449   7.650
 3738POPC   C1B 8947  36.224  38.238   8.550
 3738POPC   C2B 8948  36.219  38.221   8.250
 3738POPC   C3B 8949  36.220  38.267   7.950
 3738POPC   C4B 8950  36.258  38.237   7.650
 3739POPC   NC3 8951  39.243  14.412   9.450
 3739POPC   PO4 8952  39.275  14.405   9.150
 3739POPC   GL1 8953  39.221  14.430   8.850
 3739POPC   GL2 8954  39.113  14.428   8.850
 3739POPC   C1A 8955  39.219  14.415   8.550
 3739POPC   D2A 8956  39.232  14.413   8.250
 3739POPC   C3A 8957  39.215  14.397   7.950
 3739POPC   C4A 8958  39.274  14.358   7.650
 3739POPC   C1B 8959  38.959  14.462   8.550
 3739POPC   C2B 8960  39.025  14.455   8.250
 3739POPC   C3B 8961  38.998  14.435   7.950
 3739POPC   C4B 8962  39.006  14.446   7.650
 3740POPC   NC3 8963  25.218  16.731   9.450
 3740POPC   PO4 8964  25.311  16.700   9.150
 3740POPC   GL1 8965  25.303  16.682   8.850
 3740POPC   GL2 8966  25.143  16.680   8.850
 3740POPC   C1A 8967  25.261  16.716   8.550
 3740POPC   D2A 8968  25.307  16.712   8.250
 3740POPC   C3A 8969  25.271  16.777   7.950
 3740POPC   C4A 8970  25.238  16.746   7.650
 3740POPC   C1B 8971  25.052  16.684   8.550
 3740POPC   C2B 8972  25.030  16.608   8.250
 3740POPC   C3B 8973  25.066  16.646   7.950
 3740POPC   C4B 8974  25.009  16.604   7.650
 3741POPC   NC3 8975  22.968  43.093   9.450
 3741POPC   PO4 8976  22.963  43.082   9.150
 3741POPC   GL1 8977  22.895  43.072   8.850
 3741POPC   GL2 8978  22.834  43.099   8.850
 3741POPC   C1A 8979  22.920  43.062   8.550
 3741POPC   D2A 8980  22.975  43.065   8.250
 3741POPC   C3A 8981  22.977  43.160   7.950
 3741POPC   C4A 8982  22.950  43.144   7.650
 3741POPC   C1B 8983  22.659  43.148   8.550
 3741POPC   C2B 8984  22.696  43.143   8.250
 3741POPC   C3B 8985  22.711  43.098   7.950
 3741POPC   C4B 8986  22.700  43.109   7.650
 3742POPC   NC3 8987   1.233  41.586   9.450
 3742POPC   PO4 8988   1.165  41.591   9.150
 3742POPC   GL1 8989   1.174  41.591   8.850
 3742POPC   GL2 8990   1.131  41.394   8.850
 3742POPC   C1A 8991   1.166  41.539   8.550
 3742POPC   D2A 8992   1.248  41.524   8.250
 3742POPC   C3A 8993   1.210  41.608   7.950
 3742POPC   C4A 8994   1.255  41.575   7.650
 3742POPC   C1B 8995   1.171  41.275   8.550
 3742POPC   C2B 8996   1.120  41.327   8.250
 3742POPC   C3B 8997   1.091  41.329   7.950
 3742POPC   C4B 8998   1.131  41.371   7.650
 3743POPC   NC3 8999  19.039  43.063   9.450
 3743POPC   PO4 9000  19.080  43.093   9.150
 3743POPC   GL1 9001  19.017  43.127   8.850
 3743POPC   GL2 9002  19.082  42.968   8.850
 3743POPC   C1A 9003  19.071  43.083   8.550
 3743POPC   D2A 9004  19.024  43.103   8.250
 3743POPC   C3A 9005  19.087  43.068   7.950
 3743POPC   C4A 9006  19.096  43.077   7.650
 3743POPC   C1B 9007  19.172  42.823   8.550
 3743POPC   C2B 9008  19.152  42.856   8.250
 3743POPC   C3B 9009  19.168  42.842   7.950
 3743POPC   C4B 9010  19.083  42.842   7.650
 3744POPC   NC3 9011  34.599  34.614   9.450
 3744POPC   PO4 9012  34.563  34.592   9.150
 3744POPC   GL1 9013  34.590  34.561   8.850
 3744POPC   GL2 9014  34.490  34.605   8.850
 3744POPC   C1A 9015  34.625  34.580   8.550
 3744POPC   D2A 9016  34.613  34.607   8.250
 3744POPC   C3A 9017  34.556  34.569   7.950
 3744POPC   C4A 9018  34.601  34.625   7.650
 3744POPC   C1B 9019  34.360  34.707   8.550
 3744POPC   C2B 9020  34.412  34.729   8.250
 3744POPC   C3B 9021  34.340  34.712   7.950
 3744POPC   C4B 9022  34.397  34.725   7.650
 3745POPC   NC3 9023   3.574  43.067   9.450
 3745POPC   PO4 9024   3.529  43.146   9.150
 3745POPC   GL1 9025   3.501  43.160   8.850
 3745POPC   GL2 9026   3.561  42.959   8.850
 3745POPC   C1A 9027   3.550  43.138   8.550
 3745POPC   D2A 9028   3.541  43.128   8.250
 3745POPC   C3A 9029   3.492  43.104   7.950
 3745POPC   C4A 9030   3.517  43.116   7.650
 3745POPC   C1B 9031   3.613  42.855   8.550
 3745POPC   C2B 9032   3.642  42.909   8.250
 3745POPC   C3B 9033   3.604  42.882   7.950
 3745POPC   C4B 9034   3.613  42.893   7.650
 3746POPC   NC3 9035  31.503   8.157   9.450
 3746POPC   PO4 9036  31.439   8.195   9.150
 3746POPC   GL1 9037  31.512   8.165   8.850
 3746POPC   GL2 9038  31.322   8.110   8.850
 3746POPC   C1A 9039  31.514   8.235   8.550
 3746POPC   D2A 9040  31.460   8.235   8.250
 3746POPC   C3A 9041  31.493   8.191   7.950
 3746POPC   C4A 9042  31.425   8.243   7.650
 3746POPC   C1B 9043  31.258   8.106   8.550
 3746POPC   C2B 9044  31.246   8.066   8.250
 3746POPC   C3B 9045  31.308   8.072   7.950
 3746POPC   C4B 9046  31.299   8.068   7.650
 3747POPC   NC3 9047  10.545  15.995   9.450
 3747POPC   PO4 9048  10.540  15.923   9.150
 3747POPC   GL1 9049  10.485  15.950   8.850
 3747POPC   GL2 9050  10.443  16.073   8.850
 3747POPC   C1A 9051  10.480  15.956   8.550
 3747POPC   D2A 9052  10.531  15.963   8.250
 3747POPC   C3A 9053  10.553  15.918   7.950
 3747POPC   C4A 9054  10.480  15.984   7.650
 3747POPC   C1B 9055  10.359  16.156   8.550
 3747POPC   C2B 9056  10.408  16.136   8.250
 3747POPC   C3B 9057  10.336  16.193   7.950
 3747POPC   C4B 9058  10.374  16.162   7.650
 3748POPC   NC3 9059  19.044  11.274   9.450
 3748POPC   PO4 9060  19.060  11.345   9.150
 3748POPC   GL1 9061  19.030  11.303   8.850
 3748POPC   GL2 9062  18.950  11.379   8.850
 3748POPC   C1A 9063  19.063  11.261   8.550
 3748POPC   D2A 9064  19.062  11.279   8.250
 3748POPC   C3A 9065  19.095  11.344   7.950
 3748POPC   C4A 9066  19.044  11.320   7.650
 3748POPC   C1B 9067  18.881  11.462   8.550
 3748POPC   C2B 9068  18.860  11.535   8.250
 3748POPC   C3B 9069  18.866  11.506   7.950
 3748POPC   C4B 9070  18.914  11.486   7.650
 3749POPC   NC3 9071   7.408  22.979   9.450
 3749POPC   PO4 9072   7.385  22.896   9.150
 3749POPC   GL1 9073   7.438  22.969   8.850
 3749POPC   GL2 9074   7.345  22.933   8.850
 3749POPC   C1A 9075   7.434  22.953   8.550
 3749POPC   D2A 9076   7.448  22.895   8.250
 3749POPC   C3A 9077   7.383  22.897   7.950
 3749POPC   C4A 9078   7.448  22.911   7.650
 3749POPC   C1B 9079   7.153  22.996   8.550
 3749POPC   C2B 9080   7.201  22.974   8.250
 3749POPC   C3B 9081   7.133  23.020   7.950
 3749POPC   C4B 9082   7.195  22.959   7.650
 3750POPC   NC3 9083   2.038  19.099   9.450
 3750POPC   PO4 9084   1.984  19.051   9.150
 3750POPC   GL1 9085   2.006  19.100   8.850
 3750POPC   GL2 9086   1.863  19.019   8.850
 3750POPC   C1A 9087   1.987  19.022   8.550
 3750POPC   D2A 9088   1.951  19.049   8.250
 3750POPC   C3A 9089   2.021  19.101   7.950
 3750POPC   C4A 9090   2.011  19.048   7.650
 3750POPC   C1B 9091   1.758  18.883   8.550
 3750POPC   C2B 9092   1.815  18.935   8.250
 3750POPC   C3B 9093   1.752  18.874   7.950
 3750POPC   C4B 9094   1.762  18.903   7.650
 3751POPC   NC3 9095   3.501   7.375   9.450
 3751POPC   PO4 9096   3.579   7.460   9.150
 3751POPC   GL1 9097   3.591   7.409   8.850
 3751POPC   GL2 9098   3.622   7.389   8.850
 3751POPC   C1A 9099   3.532   7.458   8.550
 3751POPC   D2A 9100   3.536   7.391   8.250
 3751POPC   C3A 9101   3.572   7.378   7.950
 3751POPC   C4A 9102   3.513   7.459   7.650
 3751POPC   C1B 9103   3.715   7.307   8.550
 3751POPC   C2B 9104   3.714   7.331   8.250
 3751POPC   C3B 9105   3.810   7.282   7.950
 3751POPC   C4B 9106   3.767   7.283   7.650
 3752POPC   NC3 9107  23.743  36.941   9.450
 3752POPC   PO4 9108  23.728  36.924   9.150
 3752POPC   GL1 9109  23.693  36.882   8.850
 3752POPC   GL2 9110  23.726  37.022   8.850
 3752POPC   C1A 9111  23.730  36.936   8.550
 3752POPC   D2A 9112  23.760  36.909   8.250
 3752POPC   C3A 9113  23.718  36.891   7.950
 3752POPC   C4A 9114  23.731  36.926   7.650
 3752POPC   C1B 9115  23.618  37.139   8.550
 3752POPC   C2B 9116  23.624  37.093   8.250
 3752POPC   C3B 9117  23.615  37.130   7.950
 3752POPC   C4B 9118  23.667  37.119   7.650
 3753POPC   NC3 9119  39.220  35.321   9.450
 3753POPC   PO4 9120  39.267  35.331   9.150
 3753POPC   GL1 9121  39.201  35.320   8.850
 3753POPC   GL2 9122  39.152  35.421   8.850
 3753POPC   C1A 9123  39.245  35.349   8.550
 3753POPC   D2A 9124  39.194  35.369   8.250
 3753POPC   C3A 9125  39.272  35.319   7.950
 3753POPC   C4A 9126  39.245  35.358   7.650
 3753POPC   C1B 9127  39.109  35.564   8.550
 3753POPC   C2B 9128  39.136  35.595   8.250
 3753POPC   C3B 9129  39.152  35.546   7.950
 3753POPC   C4B 9130  39.153  35.616   7.650
 3754POPC   NC3 9131  18.330  25.242   9.450
 3754POPC   PO4 9132  18.270  25.274   9.150
 3754POPC   GL1 9133  18.310  25.216   8.850
 3754POPC   GL2 9134  18.210  25.398   8.850
 3754POPC   C1A 9135  18.286  25.289   8.550
 3754POPC   D2A 9136  18.246  25.313   8.250
 3754POPC   C3A 9137  18.245  25.262   7.950
 3754POPC   C4A 9138  18.252  25.295   7.650
 3754POPC   C1B 9139  18.080  25.468   8.550
 3754POPC   C2B 9140  18.099  25.411   8.250
 3754POPC   C3B 9141  18.078  25.493   7.950
 3754POPC   C4B 9142  18.105  25.421   7.650
 3755POPC   NC3 9143  29.877  34.553   9.450
 3755POPC   PO4 9144  29.947  34.572   9.150
 3755POPC   GL1 9145  29.945  34.624   8.850
 3755POPC   GL2 9146  29.789  34.488   8.850
 3755POPC   C1A 9147  29.900  34.561   8.550
 3755POPC   D2A 9148  29.886  34.531   8.250
 3755POPC   C3A 9149  29.950  34.562   7.950
 3755POPC   C4A 9150  29.939  34.572   7.650
 3755POPC   C1B 9151  29.740  34.402   8.550
 3755POPC   C2B 9152  29.697  34.376   8.250
 3755POPC   C3B 9153  29.696  34.441   7.950
 3755POPC   C4B 9154  29.697  34.399   7.650
 3756POPC   NC3 9155  41.511  37.657   9.450
 3756POPC   PO4 9156  41.597  37.643   9.150
 3756POPC   GL1 9157  41.555  37.669   8.850
 3756POPC   GL2 9158  41.476  37.632   8.850
 3756POPC   C1A 9159  41.599  37.702   8.550
 3756POPC   D2A 9160  41.552  37.722   8.250
 3756POPC   C3A 9161  41.546  37.724   7.950
 3756POPC   C4A 9162  41.569  37.692   7.650
 3756POPC   C1B 9163  41.291  37.610   8.550
 3756POPC   C2B 9164  41.339  37.607   8.250
 3756POPC   C3B 9165  41.367  37.602   7.950
 3756POPC   C4B 9166  41.296  37.633   7.650
 3757POPC   NC3 9167  12.125  44.613   9.450
 3757POPC   PO4 9168  12.097  44.636   9.150
 3757POPC   GL1 9169  12.068  44.650   8.850
 3757POPC   GL2 9170  12.133  44.717   8.850
 3757POPC   C1A 9171  12.089  44.614   8.550
 3757POPC   D2A 9172  12.032  44.706   8.250
 3757POPC   C3A 9173  12.102  44.642   7.950
 3757POPC   C4A 9174  12.043  44.658   7.650
 3757POPC   C1B 9175  12.293  44.857   8.550
 3757POPC   C2B 9176  12.312  44.822   8.250
 3757POPC   C3B 9177  12.234  44.840   7.950
 3757POPC   C4B 9178  12.252  44.814   7.650
 3758POPC   NC3 9179  36.883  19.873   9.450
 3758POPC   PO4 9180  36.872  19.796   9.150
 3758POPC   GL1 9181  36.877  19.801   8.850
 3758POPC   GL2 9182  37.051  19.907   8.850
 3758POPC   C1A 9183  36.938  19.832   8.550
 3758POPC   D2A 9184  36.927  19.854   8.250
 3758POPC   C3A 9185  36.953  19.875   7.950
 3758POPC   C4A 9186  36.863  19.850   7.650
 3758POPC   C1B 9187  37.128  19.979   8.550
 3758POPC   C2B 9188  37.076  19.989   8.250
 3758POPC   C3B 9189  37.090  19.973   7.950
 3758POPC   C4B 9190  37.158  19.951   7.650
 3759POPC   NC3 9191  23.758  34.547   9.450
 3759POPC   PO4 9192  23.725  34.564   9.150
 3759POPC   GL1 9193  23.747  34.571   8.850
 3759POPC   GL2 9194  23.808  34.630   8.850
 3759POPC   C1A 9195  23.734  34.591   8.550
 3759POPC   D2A 9196  23.673  34.613   8.250
 3759POPC   C3A 9197  23.672  34.611   7.950
 3759POPC   C4A 9198  23.690  34.535   7.650
 3759POPC   C1B 9199  23.943  34.653   8.550
 3759POPC   C2B 9200  23.960  34.697   8.250
 3759POPC   C3B 9201  23.910  34.662   7.950
 3759POPC   C4B 9202  23.952  34.690   7.650
 3760POPC   NC3 9203  28.349  10.560   9.450
 3760POPC   PO4 9204  28.417  10.494   9.150
 3760POPC   GL1 9205  28.349  10.512   8.850
 3760POPC   GL2 9206  28.288  10.420   8.850
 3760POPC   C1A 9207  28.382  10.529   8.550
 3760POPC   D2A 9208  28.419  10.522   8.250
 3760POPC   C3A 9209  28.362  10.524   7.950
 3760POPC   C4A 9210  28.401  10.497   7.650
 3760POPC   C1B 9211  28.181  10.332   8.550
 3760POPC   C2B 9212  28.227  10.372   8.250
 3760POPC   C3B 9213  28.214  10.320   7.950
 3760POPC   C4B 9214  28.201  10.335   7.650
 3761POPC   NC3 9215   1.958   6.664   9.450
 3761POPC   PO4 9216   1.979   6.632   9.150
 3761POPC   GL1 9217   1.989   6.631   8.850
 3761POPC   GL2 9218   2.053   6.499   8.850
 3761POPC   C1A 9219   1.996   6.678   8.550
 3761POPC   D2A 9220   2.039   6.656   8.250
 3761POPC   C3A 9221   2.010   6.629   7.950
 3761POPC   C4A 9222   2.033   6.610   7.650
 3761POPC   C1B 9223   2.010   6.422   8.550
 3761POPC   C2B 9224   2.074   6.357   8.250
 3761POPC   C3B 9225   2.055   6.442   7.950
 3761POPC   C4B 9226   2.045   6.423   7.650
 3762POPC   NC3 9227  15.942  29.157   9.450
 3762POPC   PO4 9228  15.928  29.186   9.150
 3762POPC   GL1 9229  15.970  29.115   8.850
 3762POPC   GL2 9230  15.873  29.247   8.850
 3762POPC   C1A 9231  15.958  29.101   8.550
 3762POPC   D2A 9232  15.986  29.096   8.250
 3762POPC   C3A 9233  15.998  29.104   7.950
 3762POPC   C4A 9234  15.923  29.161   7.650
 3762POPC   C1B 9235  15.808  29.308   8.550
 3762POPC   C2B 9236  15.789  29.390   8.250
 3762POPC   C3B 9237  15.821  29.306   7.950
 3762POPC   C4B 9238  15.802  29.386   7.650
 3763POPC   NC3 9239  22.964   8.924   9.450
 3763POPC   PO4 9240  22.900   8.993   9.150
 3763POPC   GL1 9241  22.913   9.007   8.850
 3763POPC   GL2 9242  22.929   8.838   8.850
 3763POPC   C1A 9243  22.960   8.967   8.550
 3763POPC   D2A 9244  22.955   9.022   8.250
 3763POPC   C3A 9245  22.892   8.990   7.950
 3763POPC   C4A 9246  22.942   8.923   7.650
 3763POPC   C1B 9247  22.884   8.760   8.550
 3763POPC   C2B 9248  22.897   8.762   8.250
 3763POPC   C3B 9249  22.908   8.774   7.950
 3763POPC   C4B 9250  22.874   8.705   7.650
 3764POPC   NC3 9251  22.987  43.928   9.450
 3764POPC   PO4 9252  22.928  43.879   9.150
 3764POPC   GL1 9253  22.921  43.842   8.850
 3764POPC   GL2 9254  22.961  43.752   8.850
 3764POPC   C1A 9255  22.963  43.895   8.550
 3764POPC   D2A 9256  22.967  43.861   8.250
 3764POPC   C3A 9257  22.924  43.865   7.950
 3764POPC   C4A 9258  22.942  43.851   7.650
 3764POPC   C1B 9259  23.044  43.666   8.550
 3764POPC   C2B 9260  23.069  43.638   8.250
 3764POPC   C3B 9261  23.031  43.683   7.950
 3764POPC   C4B 9262  23.033  43.625   7.650
 3765POPC   NC3 9263  10.506   0.407   9.450
 3765POPC   PO4 9264  10.495   0.391   9.150
 3765POPC   GL1 9265  10.525   0.465   8.850
 3765POPC   GL2 9266  10.554   0.321   8.850
 3765POPC   C1A 9267  10.560   0.427   8.550
 3765POPC   D2A 9268  10.544   0.483   8.250
 3765POPC   C3A 9269  10.531   0.412   7.950
 3765POPC   C4A 9270  10.549   0.481   7.650
 3765POPC   C1B 9271  10.655   0.162   8.550
 3765POPC   C2B 9272  10.574   0.172   8.250
 3765POPC   C3B 9273  10.616   0.208   7.950
 3765POPC   C4B 9274  10.603   0.179   7.650
 3766POPC   NC3 9275   5.859  28.343   9.450
 3766POPC   PO4 9276   5.838  28.388   9.150
 3766POPC   GL1 9277   5.916  28.402   8.850
 3766POPC   GL2 9278   5.948  28.465   8.850
 3766POPC   C1A 9279   5.847  28.381   8.550
 3766POPC   D2A 9280   5.871  28.339   8.250
 3766POPC   C3A 9281   5.894  28.401   7.950
 3766POPC   C4A 9282   5.822  28.319   7.650
 3766POPC   C1B 9283   6.106  28.453   8.550
 3766POPC   C2B 9284   6.120  28.493   8.250
 3766POPC   C3B 9285   6.047  28.489   7.950
 3766POPC   C4B 9286   6.123  28.487   7.650
 3767POPC   NC3 9287   2.750  28.406   9.450
 3767POPC   PO4 9288   2.773  28.335   9.150
 3767POPC   GL1 9289   2.795  28.396   8.850
 3767POPC   GL2 9290   2.811  28.439   8.850
 3767POPC   C1A 9291   2.737  28.374   8.550
 3767POPC   D2A 9292   2.747  28.393   8.250
 3767POPC   C3A 9293   2.776  28.410   7.950
 3767POPC   C4A 9294   2.783  28.319   7.650
 3767POPC   C1B 9295   2.943  28.545   8.550
 3767POPC   C2B 9296   2.947  28.540   8.250
 3767POPC   C3B 9297   2.912  28.526   7.950
 3767POPC   C4B 9298   2.925  28.583   7.650
 3768POPC   NC3 9299  33.048  12.840   9.450
 3768POPC   PO4 9300  32.975  12.839   9.150
 3768POPC   GL1 9301  32.980  12.850   8.850
 3768POPC   GL2 9302  33.026  13.011   8.850
 3768POPC   C1A 9303  33.029  12.896   8.550
 3768POPC   D2A 9304  32.981  12.840   8.250
 3768POPC   C3A 9305  33.057  12.823   7.950
 3768POPC   C4A 9306  32.984  12.874   7.650
 3768POPC   C1B 9307  33.054  13.075   8.550
 3768POPC   C2B 9308  33.094  13.130   8.250
 3768POPC   C3B 9309  33.075  13.105   7.950
 3768POPC   C4B 9310  33.052  13.077   7.650
 3769POPC   NC3 9311  36.112  34.569   9.450
 3769POPC   PO4 9312  36.099  34.574   9.150
 3769POPC   GL1 9313  36.157  34.622   8.850
 3769POPC   GL2 9314  35.986  34.613   8.850
 3769POPC   C1A 9315  36.105  34.622   8.550
 3769POPC   D2A 9316  36.115  34.584   8.250
 3769POPC   C3A 9317  36.105  34.553   7.950
 3769POPC   C4A 9318  36.169  34.621   7.650
 3769POPC   C1B 9319  35.901  34.683   8.550
 3769POPC   C2B 9320  35.848  34.617   8.250
 3769POPC   C3B 9321  35.907  34.658   7.950
 3769POPC   C4B 9322  35.905  34.605   7.650
 3770POPC   NC3 9323  43.910  40.803   9.450
 3770POPC   PO4 9324  43.898  40.805   9.150
 3770POPC   GL1 9325  43.876  40.817   8.850
 3770POPC   GL2 9326  43.913  40.646   8.850
 3770POPC   C1A 9327  43.896  40.783   8.550
 3770POPC   D2A 9328  43.898  40.783   8.250
 3770POPC   C3A 9329  43.936  40.806   7.950
 3770POPC   C4A 9330  43.926  40.789   7.650
 3770POPC   C1B 9331  43.927  40.555   8.550
 3770POPC   C2B 9332  43.948  40.513   8.250
 3770POPC   C3B 9333  43.910  40.526   7.950
 3770POPC   C4B 9334  43.946  40.571   7.650
 3771POPC   NC3 9335  43.156   8.958   9.450
 3771POPC   PO4 9336  43.095   8.937   9.150
 3771POPC   GL1 9337  43.072   8.949   8.850
 3771POPC   GL2 9338  43.074   9.050   8.850
 3771POPC   C1A 9339  43.116   8.991   8.550
 3771POPC   D2A 9340  43.158   8.998   8.250
 3771POPC   C3A 9341  43.090   8.960   7.950
 3771POPC   C4A 9342  43.155   9.009   7.650
 3771POPC   C1B 9343  43.002   9.209   8.550
 3771POPC   C2B 9344  42.999   9.175   8.250
 3771POPC   C3B 9345  42.924   9.187   7.950
 3771POPC   C4B 9346  42.970   9.218   7.650
 3772POPC   NC3 9347  36.872  25.298   9.450
 3772POPC   PO4 9348  36.892  25.283   9.150
 3772POPC   GL1 9349  36.942  25.286   8.850
 3772POPC   GL2 9350  36.752  25.331   8.850
 3772POPC   C1A 9351  36.942  25.312   8.550
 3772POPC   D2A 9352  36.914  25.237   8.250
 3772POPC   C3A 9353  36.876  25.233   7.950
 3772POPC   C4A 9354  36.909  25.239   7.650
 3772POPC   C1B 9355  36.625  25.369   8.550
 3772POPC   C2B 9356  36.650  25.364   8.250
 3772POPC   C3B 9357  36.650  25.294   7.950
 3772POPC   C4B 9358  36.642  25.307   7.650
 3773POPC   NC3 9359   3.581  33.850   9.450
 3773POPC   PO4 9360   3.513  33.786   9.150
 3773POPC   GL1 9361   3.556  33.814   8.850
 3773POPC   GL2 9362   3.625  33.717   8.850
 3773POPC   C1A 9363   3.514  33.782   8.550
 3773POPC   D2A 9364   3.548  33.848   8.250
 3773POPC   C3A 9365   3.523  33.819   7.950
 3773POPC   C4A 9366   3.583  33.811   7.650
 3773POPC   C1B 9367   3.755  33.708   8.550
 3773POPC   C2B 9368   3.796  33.687   8.250
 3773POPC   C3B 9369   3.714  33.666   7.950
 3773POPC   C4B 9370   3.783  33.706   7.650
 3774POPC   NC3 9371  41.535  20.604   9.450
 3774POPC   PO4 9372  41.587  20.628   9.150
 3774POPC   GL1 9373  41.517  20.579   8.850
 3774POPC   GL2 9374  41.628  20.536   8.850
 3774POPC   C1A 9375  41.584  20.606   8.550
 3774POPC   D2A 9376  41.585  20.651   8.250
 3774POPC   C3A 9377  41.575  20.596   7.950
 3774POPC   C4A 9378  41.523  20.574   7.650
 3774POPC   C1B 9379  41.758  20.466   8.550
 3774POPC   C2B 9380  41.762  20.442   8.250
 3774POPC   C3B 9381  41.793  20.461   7.950
 3774POPC   C4B 9382  41.775  20.430   7.650
 3775POPC   NC3 9383   3.512   5.106   9.450
 3775POPC   PO4 9384   3.555   5.131   9.150
 3775POPC   GL1 9385   3.556   5.131   8.850
 3775POPC   GL2 9386   3.438   5.194   8.850
 3775POPC   C1A 9387   3.564   5.049   8.550
 3775POPC   D2A 9388   3.587   5.049   8.250
 3775POPC   C3A 9389   3.531   5.092   7.950
 3775POPC   C4A 9390   3.549   5.071   7.650
 3775POPC   C1B 9391   3.306   5.185   8.550
 3775POPC   C2B 9392   3.285   5.262   8.250
 3775POPC   C3B 9393   3.333   5.237   7.950
 3775POPC   C4B 9394   3.344   5.210   7.650
 3776POPC   NC3 9395  42.325  28.366   9.450
 3776POPC   PO4 9396  42.324  28.332   9.150
 3776POPC   GL1 9397  42.334  28.352   8.850
 3776POPC   GL2 9398  42.389  28.267   8.850
 3776POPC   C1A 9399  42.360  28.399   8.550
 3776POPC   D2A 9400  42.343  28.328   8.250
 3776POPC   C3A 9401  42.339  28.386   7.950
 3776POPC   C4A 9402  42.333  28.365   7.650
 3776POPC   C1B 9403  42.333  28.091   8.550
 3776POPC   C2B 9404  42.403  28.112   8.250
 3776POPC   C3B 9405  42.329  28.171   7.950
 3776POPC   C4B 9406  42.346  28.126   7.650
 3777POPC   NC3 9407  19.083  34.553   9.450
 3777POPC   PO4 9408  19.019  34.597   9.150
 3777POPC   GL1 9409  19.092  34.588   8.850
 3777POPC   GL2 9410  19.222  34.607   8.850
 3777POPC   C1A 9411  19.084  34.616   8.550
 3777POPC   D2A 9412  19.054  34.552   8.250
 3777POPC   C3A 9413  19.077  34.567   7.950
 3777POPC   C4A 9414  19.037  34.609   7.650
 3777POPC   C1B 9415  19.261  34.564   8.550
 3777POPC   C2B 9416  19.352  34.526   8.250
 3777POPC   C3B 9417  19.322  34.503   7.950
 3777POPC   C4B 9418  19.295  34.516   7.650
 3778POPC   NC3 9419  43.849   1.952   9.450
 3778POPC   PO4 9420  43.928   1.944   9.150
 3778POPC   GL1 9421  43.932   2.034   8.850
 3778POPC   GL2 9422  43.918   1.861   8.850
 3778POPC   C1A 9423  43.868   2.031   8.550
 3778POPC   D2A 9424  43.870   1.979   8.250
 3778POPC   C3A 9425  43.890   1.955   7.950
 3778POPC   C4A 9426  43.868   1.950   7.650
 3778POPC   C1B 9427  43.986   1.785   8.550
 3778POPC   C2B 9428  44.033   1.787   8.250
 3778POPC   C3B 9429  43.983   1.752   7.950
 3778POPC   C4B 9430  43.969   1.733   7.650
 3779POPC   NC3 9431  18.324   1.200   9.450
 3779POPC   PO4 9432  18.321   1.215   9.150
 3779POPC   GL1 9433  18.310   1.221   8.850
 3779POPC   GL2 9434  18.413   1.246   8.850
 3779POPC   C1A 9435  18.319   1.252   8.550
 3779POPC   D2A 9436  18.303   1.245   8.250
 3779POPC   C3A 9437  18.245   1.214   7.950
 3779POPC   C4A 9438  18.254   1.262   7.650
 3779POPC   C1B 9439  18.565   1.274   8.550
 3779POPC   C2B 9440  18.569   1.210   8.250
 3779POPC   C3B 9441  18.492   1.208   7.950
 3779POPC   C4B 9442  18.510   1.231   7.650
 3780POPC   NC3 9443  43.120  10.557   9.450
 3780POPC   PO4 9444  43.087  10.569   9.150
 3780POPC   GL1 9445  43.134  10.570   8.850
 3780POPC   GL2 9446  43.241  10.443   8.850
 3780POPC   C1A 9447  43.096  10.561   8.550
 3780POPC   D2A 9448  43.098  10.513   8.250
 3780POPC   C3A 9449  43.085  10.556   7.950
 3780POPC   C4A 9450  43.094  10.540   7.650
 3780POPC   C1B 9451  43.343  10.420   8.550
 3780POPC   C2B 9452  43.327  10.495   8.250
 3780POPC   C3B 9453  43.340  10.457   7.950
 3780POPC   C4B 9454  43.369  10.472   7.650
 3781POPC   NC3 9455   2.023  12.110   9.450
 3781POPC   PO4 9456   1.993  12.060   9.150
 3781POPC   GL1 9457   2.002  12.053   8.850
 3781POPC   GL2 9458   1.935  12.219   8.850
 3781POPC   C1A 9459   2.004  12.056   8.550
 3781POPC   D2A 9460   1.999  12.061   8.250
 3781POPC   C3A 9461   1.965  12.090   7.950
 3781POPC   C4A 9462   1.991  12.071   7.650
 3781POPC   C1B 9463   1.841  12.232   8.550
 3781POPC   C2B 9464   1.897  12.274   8.250
 3781POPC   C3B 9465   1.832  12.279   7.950
 3781POPC   C4B 9466   1.854  12.315   7.650
 3782POPC   NC3 9467  37.687  32.236   9.450
 3782POPC   PO4 9468  37.712  32.273   9.150
 3782POPC   GL1 9469  37.716  32.244   8.850
 3782POPC   GL2 9470  37.649  32.158   8.850
 3782POPC   C1A 9471  37.654  32.271   8.550
 3782POPC   D2A 9472  37.694  32.261   8.250
 3782POPC   C3A 9473  37.685  32.227   7.950
 3782POPC   C4A 9474  37.725  32.275   7.650
 3782POPC   C1B 9475  37.496  32.016   8.550
 3782POPC   C2B 9476  37.538  32.083   8.250
 3782POPC   C3B 9477  37.546  32.075   7.950
 3782POPC   C4B 9478  37.492  32.034   7.650
 3783POPC   NC3 9479  16.732  42.298   9.450
 3783POPC   PO4 9480  16.748  42.384   9.150
 3783POPC   GL1 9481  16.704  42.313   8.850
 3783POPC   GL2 9482  16.762  42.184   8.850
 3783POPC   C1A 9483  16.716  42.308   8.550
 3783POPC   D2A 9484  16.713  42.344   8.250
 3783POPC   C3A 9485  16.726  42.383   7.950
 3783POPC   C4A 9486  16.779  42.296   7.650
 3783POPC   C1B 9487  16.777  42.105   8.550
 3783POPC   C2B 9488  16.861  42.059   8.250
 3783POPC   C3B 9489  16.868  42.073   7.950
 3783POPC   C4B 9490  16.794  42.091   7.650
 3784POPC   NC3 9491  15.926  12.829   9.450
 3784POPC   PO4 9492  16.004  12.836   9.150
 3784POPC   GL1 9493  16.001  12.853   8.850
 3784POPC   GL2 9494  16.026  12.827   8.850
 3784POPC   C1A 9495  15.948  12.860   8.550
 3784POPC   D2A 9496  15.926  12.834   8.250
 3784POPC   C3A 9497  15.935  12.890   7.950
 3784POPC   C4A 9498  15.928  12.897   7.650
 3784POPC   C1B 9499  16.207  12.720   8.550
 3784POPC   C2B 9500  16.115  12.697   8.250
 3784POPC   C3B 9501  16.173  12.747   7.950
 3784POPC   C4B 9502  16.160  12.698   7.650
 3785POPC   NC3 9503   0.408  29.888   9.450
 3785POPC   PO4 9504   0.441  29.926   9.150
 3785POPC   GL1 9505   0.457  29.909   8.850
 3785POPC   GL2 9506   0.300  29.962   8.850
 3785POPC   C1A 9507   0.442  29.970   8.550
 3785POPC   D2A 9508   0.418  29.923   8.250
 3785POPC   C3A 9509   0.485  29.955   7.950
 3785POPC   C4A 9510   0.425  29.908   7.650
 3785POPC   C1B 9511   0.174  30.018   8.550
 3785POPC   C2B 9512   0.221  29.962   8.250
 3785POPC   C3B 9513   0.202  29.946   7.950
 3785POPC   C4B 9514   0.208  30.035   7.650
 3786POPC   NC3 9515  32.994  38.490   9.450
 3786POPC   PO4 9516  32.979  38.497   9.150
 3786POPC   GL1 9517  33.052  38.470   8.850
 3786POPC   GL2 9518  32.924  38.354   8.850
 3786POPC   C1A 9519  32.984  38.467   8.550
 3786POPC   D2A 9520  33.025  38.494   8.250
 3786POPC   C3A 9521  33.008  38.416   7.950
 3786POPC   C4A 9522  33.009  38.422   7.650
 3786POPC   C1B 9523  32.811  38.241   8.550
 3786POPC   C2B 9524  32.860  38.288   8.250
 3786POPC   C3B 9525  32.882  38.309   7.950
 3786POPC   C4B 9526  32.837  38.337   7.650
 3787POPC   NC3 9527  14.438  41.529   9.450
 3787POPC   PO4 9528  14.420  41.577   9.150
 3787POPC   GL1 9529  14.411  41.551   8.850
 3787POPC   GL2 9530  14.258  41.469   8.850
 3787POPC   C1A 9531  14.355  41.547   8.550
 3787POPC   D2A 9532  14.359  41.519   8.250
 3787POPC   C3A 9533  14.354  41.515   7.950
 3787POPC   C4A 9534  14.415  41.597   7.650
 3787POPC   C1B 9535  14.204  41.445   8.550
 3787POPC   C2B 9536  14.192  41.376   8.250
 3787POPC   C3B 9537  14.191  41.411   7.950
 3787POPC   C4B 9538  14.176  41.391   7.650
 3788POPC   NC3 9539  41.536  11.338   9.450
 3788POPC   PO4 9540  41.602  11.310   9.150
 3788POPC   GL1 9541  41.588  11.256   8.850
 3788POPC   GL2 9542  41.433  11.211   8.850
 3788POPC   C1A 9543  41.529  11.297   8.550
 3788POPC   D2A 9544  41.535  11.308   8.250
 3788POPC   C3A 9545  41.552  11.270   7.950
 3788POPC   C4A 9546  41.574  11.294   7.650
 3788POPC   C1B 9547  41.420  11.127   8.550
 3788POPC   C2B 9548  41.374  11.138   8.250
 3788POPC   C3B 9549  41.342  11.071   7.950
 3788POPC   C4B 9550  41.432  11.075   7.650
 3789POPC   NC3 9551  20.580  32.239   9.450
 3789POPC   PO4 9552  20.621  32.198   9.150
 3789POPC   GL1 9553  20.614  32.295   8.850
 3789POPC   GL2 9554  20.695  32.349   8.850
 3789POPC   C1A 9555  20.597  32.236   8.550
 3789POPC   D2A 9556  20.657  32.219   8.250
 3789POPC   C3A 9557  20.586  32.245   7.950
 3789POPC   C4A 9558  20.561  32.237   7.650
 3789POPC   C1B 9559  20.671  32.443   8.550
 3789POPC   C2B 9560  20.650  32.485   8.250
 3789POPC   C3B 9561  20.727  32.507   7.950
 3789POPC   C4B 9562  20.708  32.468   7.650
 3790POPC   NC3 9563  29.905  27.570   9.450
 3790POPC   PO4 9564  29.967  27.602   9.150
 3790POPC   GL1 9565  29.908  27.565   8.850
 3790POPC   GL2 9566  29.837  27.656   8.850
 3790POPC   C1A 9567  29.880  27.606   8.550
 3790POPC   D2A 9568  29.935  27.623   8.250
 3790POPC   C3A 9569  29.967  27.611   7.950
 3790POPC   C4A 9570  29.930  27.578   7.650
 3790POPC   C1B 9571  29.737  27.731   8.550
 3790POPC   C2B 9572  29.676  27.759   8.250
 3790POPC   C3B 9573  29.668  27.698   7.950
 3790POPC   C4B 9574  29.711  27.732   7.650
 3791POPC   NC3 9575  29.913   5.898   9.450
 3791POPC   PO4 9576  29.911   5.872   9.150
 3791POPC   GL1 9577  29.921   5.853   8.850
 3791POPC   GL2 9578  29.960   5.943   8.850
 3791POPC   C1A 9579  29.885   5.873   8.550
 3791POPC   D2A 9580  29.943   5.850   8.250
 3791POPC   C3A 9581  29.890   5.868   7.950
 3791POPC   C4A 9582  29.871   5.897   7.650
 3791POPC   C1B 9583  30.065   6.021   8.550
 3791POPC   C2B 9584  30.137   6.034   8.250
 3791POPC   C3B 9585  30.112   6.064   7.950
 3791POPC   C4B 9586  30.051   6.021   7.650
 3792POPC   NC3 9587  33.779  19.094   9.450
 3792POPC   PO4 9588  33.800  19.086   9.150
 3792POPC   GL1 9589  33.798  19.038   8.850
 3792POPC   GL2 9590  33.822  19.209   8.850
 3792POPC   C1A 9591  33.808  19.100   8.550
 3792POPC   D2A 9592  33.787  19.059   8.250
 3792POPC   C3A 9593  33.754  19.014   7.950
 3792POPC   C4A 9594  33.845  19.073   7.650
 3792POPC   C1B 9595  33.862  19.339   8.550
 3792POPC   C2B 9596  33.870  19.352   8.250
 3792POPC   C3B 9597  33.810  19.342   7.950
 3792POPC   C4B 9598  33.887  19.307   7.650
 3793POPC   NC3 9599   5.047  37.678   9.450
 3793POPC   PO4 9600   5.130  37.721   9.150
 3793POPC   GL1 9601   5.104  37.648   8.850
 3793POPC   GL2 9602   5.058  37.770   8.850
 3793POPC   C1A 9603   5.056  37.678   8.550
 3793POPC   D2A 9604   5.122  37.725   8.250
 3793POPC   C3A 9605   5.095  37.657   7.950
 3793POPC   C4A 9606   5.117  37.655   7.650
 3793POPC   C1B 9607   4.986  37.893   8.550
 3793POPC   C2B 9608   5.074  37.910   8.250
 3793POPC   C3B 9609   5.043  37.929   7.950
 3793POPC   C4B 9610   5.013  37.966   7.650
 3794POPC   NC3 9611  16.748  20.608   9.450
 3794POPC   PO4 9612  16.761  20.626   9.150
 3794POPC   GL1 9613  16.708  20.614   8.850
 3794POPC   GL2 9614  16.663  20.560   8.850
 3794POPC   C1A 9615  16.731  20.619   8.550
 3794POPC   D2A 9616  16.712  20.654   8.250
 3794POPC   C3A 9617  16.748  20.578   7.950
 3794POPC   C4A 9618  16.773  20.616   7.650
 3794POPC   C1B 9619  16.527  20.433   8.550
 3794POPC   C2B 9620  16.577  20.467   8.250
 3794POPC   C3B 9621  16.518  20.418   7.950
 3794POPC   C4B 9622  16.579  20.472   7.650
 3795POPC   NC3 9623  18.277  30.667   9.450
 3795POPC   PO4 9624  18.321  30.664   9.150
 3795POPC   GL1 9625  18.266  30.671   8.850
 3795POPC   GL2 9626  18.311  30.864   8.850
 3795POPC   C1A 9627  18.263  30.723   8.550
 3795POPC   D2A 9628  18.260  30.651   8.250
 3795POPC   C3A 9629  18.303  30.651   7.950
 3795POPC   C4A 9630  18.290  30.668   7.650
 3795POPC   C1B 9631  18.290  30.944   8.550
 3795POPC   C2B 9632  18.296  30.947   8.250
 3795POPC   C3B 9633  18.366  30.968   7.950
 3795POPC   C4B 9634  18.318  30.978   7.650
 3796POPC   NC3 9635  26.042  34.568   9.450
 3796POPC   PO4 9636  26.062  34.555   9.150
 3796POPC   GL1 9637  26.068  34.622   8.850
 3796POPC   GL2 9638  26.183  34.633   8.850
 3796POPC   C1A 9639  26.090  34.593   8.550
 3796POPC   D2A 9640  26.058  34.613   8.250
 3796POPC   C3A 9641  26.042  34.529   7.950
 3796POPC   C4A 9642  26.036  34.591   7.650
 3796POPC   C1B 9643  26.230  34.701   8.550
 3796POPC   C2B 9644  26.287  34.686   8.250
 3796POPC   C3B 9645  26.302  34.678   7.950
 3796POPC   C4B 9646  26.291  34.642   7.650
 3797POPC   NC3 9647  27.619  15.974   9.450
 3797POPC   PO4 9648  27.556  15.916   9.150
 3797POPC   GL1 9649  27.584  15.967   8.850
 3797POPC   GL2 9650  27.741  15.928   8.850
 3797POPC   C1A 9651  27.571  15.970   8.550
 3797POPC   D2A 9652  27.583  15.975   8.250
 3797POPC   C3A 9653  27.625  15.957   7.950
 3797POPC   C4A 9654  27.563  15.949   7.650
 3797POPC   C1B 9655  27.743  15.810   8.550
 3797POPC   C2B 9656  27.754  15.768   8.250
 3797POPC   C3B 9657  27.813  15.810   7.950
 3797POPC   C4B 9658  27.797  15.769   7.650
 3798POPC   NC3 9659   3.539  17.536   9.450
 3798POPC   PO4 9660   3.571  17.469   9.150
 3798POPC   GL1 9661   3.498  17.521   8.850
 3798POPC   GL2 9662   3.632  17.532   8.850
 3798POPC   C1A 9663   3.499  17.527   8.550
 3798POPC   D2A 9664   3.511  17.473   8.250
 3798POPC   C3A 9665   3.573  17.493   7.950
 3798POPC   C4A 9666   3.559  17.480   7.650
 3798POPC   C1B 9667   3.795  17.610   8.550
 3798POPC   C2B 9668   3.792  17.586   8.250
 3798POPC   C3B 9669   3.729  17.624   7.950
 3798POPC   C4B 9670   3.751  17.616   7.650
 3799POPC   NC3 9671  29.885  11.299   9.450
 3799POPC   PO4 9672  29.902  11.265   9.150
 3799POPC   GL1 9673  29.911  11.341   8.850
 3799POPC   GL2 9674  29.882  11.401   8.850
 3799POPC   C1A 9675  29.960  11.309   8.550
 3799POPC   D2A 9676  29.946  11.311   8.250
 3799POPC   C3A 9677  29.904  11.305   7.950
 3799POPC   C4A 9678  29.895  11.280   7.650
 3799POPC   C1B 9679  29.890  11.538   8.550
 3799POPC   C2B 9680  29.910  11.561   8.250
 3799POPC   C3B 9681  29.893  11.597   7.950
 3799POPC   C4B 9682  29.883  11.521   7.650
 3800POPC   NC3 9683  30.739  12.836   9.450
 3800POPC   PO4 9684  30.731  12.810   9.150
 3800POPC   GL1 9685  30.731  12.877   8.850
 3800POPC   GL2 9686  30.755  12.774   8.850
 3800POPC   C1A 9687  30.736  12.832   8.550
 3800POPC   D2A 9688  30.679  12.878   8.250
 3800POPC   C3A 9689  30.745  12.869   7.950
 3800POPC   C4A 9690  30.705  12.831   7.650
 3800POPC   C1B 9691  30.873  12.696   8.550
 3800POPC   C2B 9692  30.957  12.721   8.250
 3800POPC   C3B 9693  30.943  12.702   7.950
 3800POPC   C4B 9694  30.871  12.726   7.650
 3801POPC   NC3 9695   7.458  40.828   9.450
 3801POPC   PO4 9696   7.442  40.739   9.150
 3801POPC   GL1 9697   7.397  40.764   8.850
 3801POPC   GL2 9698   7.554  40.748   8.850
 3801POPC   C1A 9699   7.460  40.744   8.550
 3801POPC   D2A 9700   7.457  40.762   8.250
 3801POPC   C3A 9701   7.440  40.821   7.950
 3801POPC   C4A 9702   7.410  40.773   7.650
 3801POPC   C1B 9703   7.684  40.686   8.550
 3801POPC   C2B 9704   7.610  40.653   8.250
 3801POPC   C3B 9705   7.668  40.647   7.950
 3801POPC   C4B 9706   7.685  40.630   7.650
 3802POPC   NC3 9707  38.502  12.041   9.450
 3802POPC   PO4 9708  38.425  12.070   9.150
 3802POPC   GL1 9709  38.495  12.055   8.850
 3802POPC   GL2 9710  38.419  11.965   8.850
 3802POPC   C1A 9711  38.426  12.110   8.550
 3802POPC   D2A 9712  38.493  12.102   8.250
 3802POPC   C3A 9713  38.493  12.056   7.950
 3802POPC   C4A 9714  38.445  12.086   7.650
 3802POPC   C1B 9715  38.309  11.917   8.550
 3802POPC   C2B 9716  38.242  11.900   8.250
 3802POPC   C3B 9717  38.247  11.896   7.950
 3802POPC   C4B 9718  38.336  11.878   7.650
 3803POPC   NC3 9719  17.499  40.778   9.450
 3803POPC   PO4 9720  17.522  40.826   9.150
 3803POPC   GL1 9721  17.467  40.780   8.850
 3803POPC   GL2 9722  17.670  40.839   8.850
 3803POPC   C1A 9723  17.500  40.809   8.550
 3803POPC   D2A 9724  17.523  40.778   8.250
 3803POPC   C3A 9725  17.506  40.822   7.950
 3803POPC   C4A 9726  17.491  40.753   7.650
 3803POPC   C1B 9727  17.716  40.776   8.550
 3803POPC   C2B 9728  17.729  40.815   8.250
 3803POPC   C3B 9729  17.774  40.850   7.950
 3803POPC   C4B 9730  17.761  40.770   7.650
 3804POPC   NC3 9731  29.897  19.808   9.450
 3804POPC   PO4 9732  29.875  19.794   9.150
 3804POPC   GL1 9733  29.931  19.878   8.850
 3804POPC   GL2 9734  29.953  19.703   8.850
 3804POPC   C1A 9735  29.963  19.853   8.550
 3804POPC   D2A 9736  29.920  19.820   8.250
 3804POPC   C3A 9737  29.943  19.813   7.950
 3804POPC   C4A 9738  29.913  19.865   7.650
 3804POPC   C1B 9739  29.989  19.632   8.550
 3804POPC   C2B 9740  30.038  19.592   8.250
 3804POPC   C3B 9741  29.964  19.613   7.950
 3804POPC   C4B 9742  29.993  19.548   7.650
 3805POPC   NC3 9743  22.163   4.346   9.450
 3805POPC   PO4 9744  22.167   4.341   9.150
 3805POPC   GL1 9745  22.187   4.355   8.850
 3805POPC   GL2 9746  22.285   4.243   8.850
 3805POPC   C1A 9747  22.201   4.331   8.550
 3805POPC   D2A 9748  22.203   4.277   8.250
 3805POPC   C3A 9749  22.158   4.343   7.950
 3805POPC   C4A 9750  22.164   4.332   7.650
 3805POPC   C1B 9751  22.342   4.230   8.550
 3805POPC   C2B 9752  22.357   4.225   8.250
 3805POPC   C3B 9753  22.394   4.187   7.950
 3805POPC   C4B 9754  22.360   4.141   7.650
 3806POPC   NC3 9755  22.911  36.882   9.450
 3806POPC   PO4 9756  22.975  36.945   9.150
 3806POPC   GL1 9757  22.896  36.943   8.850
 3806POPC   GL2 9758  23.027  36.912   8.850
 3806POPC   C1A 9759  22.938  36.949   8.550
 3806POPC   D2A 9760  22.901  36.882   8.250
 3806POPC   C3A 9761  22.946  36.943   7.950
 3806POPC   C4A 9762  22.955  36.911   7.650
 3806POPC   C1B 9763  23.194  36.969   8.550
 3806POPC   C2B 9764  23.224  36.924   8.250
 3806POPC   C3B 9765  23.155  36.977   7.950
 3806POPC   C4B 9766  23.162  36.916   7.650
 3807POPC   NC3 9767  16.739  44.711   9.450
 3807POPC   PO4 9768  16.740  44.651   9.150
 3807POPC   GL1 9769  16.762  44.673   8.850
 3807POPC   GL2 9770  16.874  44.642   8.850
 3807POPC   C1A 9771  16.730  44.687   8.550
 3807POPC   D2A 9772  16.767  44.658   8.250
 3807POPC   C3A 9773  16.756  44.698   7.950
 3807POPC   C4A 9774  16.751  44.656   7.650
 3807POPC   C1B 9775  16.943  44.682   8.550
 3807POPC   C2B 9776  16.973  44.737   8.250
 3807POPC   C3B 9777  16.931  44.668   7.950
 3807POPC   C4B 9778  17.025  44.654   7.650
 3808POPC   NC3 9779  16.686  31.485   9.450
 3808POPC   PO4 9780  16.740  31.442   9.150
 3808POPC   GL1 9781  16.720  31.463   8.850
 3808POPC   GL2 9782  16.817  31.385   8.850
 3808POPC   C1A 9783  16.760  31.488   8.550
 3808POPC   D2A 9784  16.737  31.450   8.250
 3808POPC   C3A 9785  16.689  31.470   7.950
 3808POPC   C4A 9786  16.762  31.435   7.650
 3808POPC   C1B 9787  16.849  31.292   8.550
 3808POPC   C2B 9788  16.884  31.241   8.250
 3808POPC   C3B 9789  16.876  31.280   7.950
 3808POPC   C4B 9790  16.941  31.293   7.650
 3809POPC   NC3 9791  38.454  39.195   9.450
 3809POPC   PO4 9792  38.493  39.246   9.150
 3809POPC   GL1 9793  38.443  39.259   8.850
 3809POPC   GL2 9794  38.376  39.386   8.850
 3809POPC   C1A 9795  38.469  39.252   8.550
 3809POPC   D2A 9796  38.442  39.265   8.250
 3809POPC   C3A 9797  38.471  39.192   7.950
 3809POPC   C4A 9798  38.455  39.183   7.650
 3809POPC   C1B 9799  38.362  39.422   8.550
 3809POPC   C2B 9800  38.342  39.423   8.250
 3809POPC   C3B 9801  38.358  39.505   7.950
 3809POPC   C4B 9802  38.416  39.459   7.650
 3810POPC   NC3 9803  27.580   5.111   9.450
 3810POPC   PO4 9804  27.635   5.107   9.150
 3810POPC   GL1 9805  27.622   5.142   8.850
 3810POPC   GL2 9806  27.666   5.140   8.850
 3810POPC   C1A 9807  27.566   5.049   8.550
 3810POPC   D2A 9808  27.552   5.128   8.250
 3810POPC   C3A 9809  27.560   5.127   7.950
 3810POPC   C4A 9810  27.552   5.062   7.650
 3810POPC   C1B 9811  27.826   5.230   8.550
 3810POPC   C2B 9812  27.808   5.218   8.250
 3810POPC   C3B 9813  27.852   5.225   7.950
 3810POPC   C4B 9814  27.795   5.175   7.650
 3811POPC   NC3 9815  42.323  13.588   9.450
 3811POPC   PO4 9816  42.311  13.598   9.150
 3811POPC   GL1 9817  42.358  13.664   8.850
 3811POPC   GL2 9818  42.440  13.584   8.850
 3811POPC   C1A 9819  42.365  13.624   8.550
 3811POPC   D2A 9820  42.328  13.633   8.250
 3811POPC   C3A 9821  42.382  13.643   7.950
 3811POPC   C4A 9822  42.331  13.590   7.650
 3811POPC   C1B 9823  42.531  13.469   8.550
 3811POPC   C2B 9824  42.475  13.414   8.250
 3811POPC   C3B 9825  42.453  13.428   7.950
 3811POPC   C4B 9826  42.539  13.447   7.650
 3812POPC   NC3 9827  10.515   9.009   9.450
 3812POPC   PO4 9828  10.493   8.963   9.150
 3812POPC   GL1 9829  10.567   8.948   8.850
 3812POPC   GL2 9830  10.563   8.901   8.850
 3812POPC   C1A 9831  10.496   8.935   8.550
 3812POPC   D2A 9832  10.495   8.991   8.250
 3812POPC   C3A 9833  10.515   8.962   7.950
 3812POPC   C4A 9834  10.574   8.946   7.650
 3812POPC   C1B 9835  10.595   8.742   8.550
 3812POPC   C2B 9836  10.630   8.753   8.250
 3812POPC   C3B 9837  10.667   8.736   7.950
 3812POPC   C4B 9838  10.614   8.716   7.650
 3813POPC   NC3 9839  22.142  18.282   9.450
 3813POPC   PO4 9840  22.210  18.321   9.150
 3813POPC   GL1 9841  22.142  18.316   8.850
 3813POPC   GL2 9842  22.070  18.376   8.850
 3813POPC   C1A 9843  22.197  18.251   8.550
 3813POPC   D2A 9844  22.200  18.272   8.250
 3813POPC   C3A 9845  22.199  18.243   7.950
 3813POPC   C4A 9846  22.141  18.309   7.650
 3813POPC   C1B 9847  21.977  18.348   8.550
 3813POPC   C2B 9848  21.947  18.410   8.250
 3813POPC   C3B 9849  21.927  18.400   7.950
 3813POPC   C4B 9850  21.970  18.397   7.650
 3814POPC   NC3 9851  27.608   8.246   9.450
 3814POPC   PO4 9852  27.643   8.180   9.150
 3814POPC   GL1 9853  27.589   8.151   8.850
 3814POPC   GL2 9854  27.446   8.140   8.850
 3814POPC   C1A 9855  27.603   8.182   8.550
 3814POPC   D2A 9856  27.634   8.177   8.250
 3814POPC   C3A 9857  27.606   8.150   7.950
 3814POPC   C4A 9858  27.630   8.178   7.650
 3814POPC   C1B 9859  27.398   8.029   8.550
 3814POPC   C2B 9860  27.403   8.070   8.250
 3814POPC   C3B 9861  27.331   8.056   7.950
 3814POPC   C4B 9862  27.398   8.065   7.650
 3815POPC   NC3 9863   4.296  12.810   9.450
 3815POPC   PO4 9864   4.313  12.842   9.150
 3815POPC   GL1 9865   4.354  12.875   8.850
 3815POPC   GL2 9866   4.410  12.957   8.850
 3815POPC   C1A 9867   4.345  12.886   8.550
 3815POPC   D2A 9868   4.294  12.840   8.250
 3815POPC   C3A 9869   4.286  12.858   7.950
 3815POPC   C4A 9870   4.343  12.855   7.650
 3815POPC   C1B 9871   4.525  12.958   8.550
 3815POPC   C2B 9872   4.497  12.934   8.250
 3815POPC   C3B 9873   4.559  12.951   7.950
 3815POPC   C4B 9874   4.517  12.972   7.650
 3816POPC   NC3 9875  19.818  26.021   9.450
 3816POPC   PO4 9876  19.835  26.069   9.150
 3816POPC   GL1 9877  19.787  26.012   8.850
 3816POPC   GL2 9878  19.811  26.140   8.850
 3816POPC   C1A 9879  19.870  26.062   8.550
 3816POPC   D2A 9880  19.874  26.074   8.250
 3816POPC   C3A 9881  19.836  25.998   7.950
 3816POPC   C4A 9882  19.851  26.017   7.650
 3816POPC   C1B 9883  19.718  26.239   8.550
 3816POPC   C2B 9884  19.708  26.228   8.250
 3816POPC   C3B 9885  19.736  26.250   7.950
 3816POPC   C4B 9886  19.668  26.276   7.650
 3817POPC   NC3 9887  12.864  19.051   9.450
 3817POPC   PO4 9888  12.884  19.073   9.150
 3817POPC   GL1 9889  12.876  19.106   8.850
 3817POPC   GL2 9890  12.777  19.026   8.850
 3817POPC   C1A 9891  12.853  19.091   8.550
 3817POPC   D2A 9892  12.852  19.057   8.250
 3817POPC   C3A 9893  12.836  19.071   7.950
 3817POPC   C4A 9894  12.895  19.031   7.650
 3817POPC   C1B 9895  12.584  18.992   8.550
 3817POPC   C2B 9896  12.587  18.949   8.250
 3817POPC   C3B 9897  12.652  18.996   7.950
 3817POPC   C4B 9898  12.598  19.039   7.650
 3818POPC   NC3 9899  24.486  18.267   9.450
 3818POPC   PO4 9900  24.506  18.332   9.150
 3818POPC   GL1 9901  24.509  18.325   8.850
 3818POPC   GL2 9902  24.374  18.254   8.850
 3818POPC   C1A 9903  24.495  18.318   8.550
 3818POPC   D2A 9904  24.527  18.304   8.250
 3818POPC   C3A 9905  24.482  18.266   7.950
 3818POPC   C4A 9906  24.539  18.292   7.650
 3818POPC   C1B 9907  24.216  18.161   8.550
 3818POPC   C2B 9908  24.270  18.139   8.250
 3818POPC   C3B 9909  24.296  18.194   7.950
 3818POPC   C4B 9910  24.280  18.145   7.650
 3819POPC   NC3 9911  10.534   2.022   9.450
 3819POPC   PO4 9912  10.557   1.984   9.150
 3819POPC   GL1 9913  10.485   2.038   8.850
 3819POPC   GL2 9914  10.398   2.031   8.850
 3819POPC   C1A 9915  10.534   2.031   8.550
 3819POPC   D2A 9916  10.515   1.982   8.250
 3819POPC   C3A 9917  10.516   1.968   7.950
 3819POPC   C4A 9918  10.529   1.983   7.650
 3819POPC   C1B 9919  10.315   2.101   8.550
 3819POPC   C2B 9920  10.323   2.106   8.250
 3819POPC   C3B 9921  10.312   2.091   7.950
 3819POPC   C4B 9922  10.279   2.143   7.650
 3820POPC   NC3 9923   3.546  35.333   9.450
 3820POPC   PO4 9924   3.586  35.367   9.150
 3820POPC   GL1 9925   3.561  35.324   8.850
 3820POPC   GL2 9926   3.479  35.243   8.850
 3820POPC   C1A 9927   3.501  35.399   8.550
 3820POPC   D2A 9928   3.545  35.337   8.250
 3820POPC   C3A 9929   3.503  35.326   7.950
 3820POPC   C4A 9930   3.553  35.304   7.650
 3820POPC   C1B 9931   3.339  35.151   8.550
 3820POPC   C2B 9932   3.322  35.193   8.250
 3820POPC   C3B 9933   3.381  35.162   7.950
 3820POPC   C4B 9934   3.315  35.193   7.650
 3821POPC   NC3 9935  32.269  11.288   9.450
 3821POPC   PO4 9936  32.203  11.253   9.150
 3821POPC   GL1 9937  32.204  11.294   8.850
 3821POPC   GL2 9938  32.315  11.386   8.850
 3821POPC   C1A 9939  32.199  11.344   8.550
 3821POPC   D2A 9940  32.261  11.318   8.250
 3821POPC   C3A 9941  32.275  11.308   7.950
 3821POPC   C4A 9942  32.247  11.331   7.650
 3821POPC   C1B 9943  32.438  11.428   8.550
 3821POPC   C2B 9944  32.444  11.450   8.250
 3821POPC   C3B 9945  32.458  11.408   7.950
 3821POPC   C4B 9946  32.424  11.395   7.650
 3822POPC   NC3 9947  39.966  34.572   9.450
 3822POPC   PO4 9948  40.047  34.623   9.150
 3822POPC   GL1 9949  39.996  34.551   8.850
 3822POPC   GL2 9950  39.892  34.569   8.850
 3822POPC   C1A 9951  39.996  34.571   8.550
 3822POPC   D2A 9952  39.973  34.583   8.250
 3822POPC   C3A 9953  39.963  34.552   7.950
 3822POPC   C4A 9954  40.048  34.582   7.650
 3822POPC   C1B 9955  39.786  34.571   8.550
 3822POPC   C2B 9956  39.752  34.571   8.250
 3822POPC   C3B 9957  39.767  34.572   7.950
 3822POPC   C4B 9958  39.782  34.502   7.650
 3823POPC   NC3 9959  19.033  18.317   9.450
 3823POPC   PO4 9960  19.049  18.269   9.150
 3823POPC   GL1 9961  19.102  18.238   8.850
 3823POPC   GL2 9962  18.944  18.280   8.850
 3823POPC   C1A 9963  19.024  18.277   8.550
 3823POPC   D2A 9964  19.089  18.294   8.250
 3823POPC   C3A 9965  19.049  18.285   7.950
 3823POPC   C4A 9966  19.108  18.286   7.650
 3823POPC   C1B 9967  18.781  18.299   8.550
 3823POPC   C2B 9968  18.820  18.393   8.250
 3823POPC   C3B 9969  18.842  18.390   7.950
 3823POPC   C4B 9970  18.776  18.320   7.650
 3824POPC   NC3 9971   1.965   1.224   9.450
 3824POPC   PO4 9972   1.989   1.193   9.150
 3824POPC   GL1 9973   1.945   1.208   8.850
 3824POPC   GL2 9974   1.996   1.295   8.850
 3824POPC   C1A 9975   1.944   1.198   8.550
 3824POPC   D2A 9976   2.001   1.198   8.250
 3824POPC   C3A 9977   1.946   1.258   7.950
 3824POPC   C4A 9978   2.005   1.256   7.650
 3824POPC   C1B 9979   1.916   1.502   8.550
 3824POPC   C2B 9980   1.996   1.504   8.250
 3824POPC   C3B 9981   1.926   1.414   7.950
 3824POPC   C4B 9982   1.995   1.488   7.650
 3825POPC   NC3 9983  44.671  12.071   9.450
 3825POPC   PO4 9984  44.707  12.097   9.150
 3825POPC   GL1 9985  44.692  12.109   8.850
 3825POPC   GL2 9986  44.496  12.053   8.850
 3825POPC   C1A 9987  44.655  12.079   8.550
 3825POPC   D2A 9988  44.695  12.090   8.250
 3825POPC   C3A 9989  44.626  12.099   7.950
 3825POPC   C4A 9990  44.683  12.044   7.650
 3825POPC   C1B 9991  44.424  12.155   8.550
 3825POPC   C2B 9992  44.413  12.073   8.250
 3825POPC   C3B 9993  44.391  12.155   7.950
 3825POPC   C4B 9994  44.449  12.116   7.650
 3826POPC   NC3 9995  33.038   8.227   9.450
 3826POPC   PO4 9996  33.047   8.241   9.150
 3826POPC   GL1 9997  32.981   8.225   8.850
 3826POPC   GL2 9998  33.128   8.173   8.850
 3826POPC   C1A 9999  33.016   8.192   8.550
 3826POPC   D2A10000  33.041   8.192   8.250
 3826POPC   C3A10001  33.024   8.192   7.950
 3826POPC   C4A10002  33.063   8.190   7.650
 3826POPC   C1B10003  33.218   8.093   8.550
 3826POPC   C2B10004  33.314   8.091   8.250
 3826POPC   C3B10005  33.280   8.168   7.950
 3826POPC   C4B10006  33.309   8.142   7.650
 3827POPC   NC310007   1.197  12.819   9.450
 3827POPC   PO410008   1.228  12.869   9.150
 3827POPC   GL110009   1.251  12.833   8.850
 3827POPC   GL210010   1.321  12.901   8.850
 3827POPC   C1A10011   1.250  12.868   8.550
 3827POPC   D2A10012   1.189  12.892   8.250
 3827POPC   C3A10013   1.220  12.833   7.950
 3827POPC   C4A10014   1.203  12.846   7.650
 3827POPC   C1B10015   1.436  12.901   8.550
 3827POPC   C2B10016   1.484  12.880   8.250
 3827POPC   C3B10017   1.483  12.832   7.950
 3827POPC   C4B10018   1.457  12.903   7.650
 3828POPC   NC310019  42.304   5.079   9.450
 3828POPC   PO410020  42.331   5.073   9.150
 3828POPC   GL110021  42.305   5.133   8.850
 3828POPC   GL210022  42.437   5.085   8.850
 3828POPC   C1A10023  42.369   5.141   8.550
 3828POPC   D2A10024  42.307   5.047   8.250
 3828POPC   C3A10025  42.378   5.097   7.950
 3828POPC   C4A10026  42.297   5.056   7.650
 3828POPC   C1B10027  42.582   5.138   8.550
 3828POPC   C2B10028  42.569   5.123   8.250
 3828POPC   C3B10029  42.598   5.177   7.950
 3828POPC   C4B10030  42.615   5.180   7.650
 3829POPC   NC310031  21.404  32.248   9.450
 3829POPC   PO410032  21.371  32.281   9.150
 3829POPC   GL110033  21.416  32.283   8.850
 3829POPC   GL210034  21.407  32.419   8.850
 3829POPC   C1A10035  21.402  32.272   8.550
 3829POPC   D2A10036  21.427  32.276   8.250
 3829POPC   C3A10037  21.423  32.244   7.950
 3829POPC   C4A10038  21.424  32.210   7.650
 3829POPC   C1B10039  21.468  32.478   8.550
 3829POPC   C2B10040  21.427  32.532   8.250
 3829POPC   C3B10041  21.429  32.458   7.950
 3829POPC   C4B10042  21.383  32.523   7.650
 3830POPC   NC310043  38.474  29.921   9.450
 3830POPC   PO410044  38.430  29.903   9.150
 3830POPC   GL110045  38.450  29.915   8.850
 3830POPC   GL210046  38.376  29.828   8.850
 3830POPC   C1A10047  38.495  29.908   8.550
 3830POPC   D2A10048  38.441  29.946   8.250
 3830POPC   C3A10049  38.487  29.954   7.950
 3830POPC   C4A10050  38.494  29.881   7.650
 3830POPC   C1B10051  38.279  29.760   8.550
 3830POPC   C2B10052  38.269  29.700   8.250
 3830POPC   C3B10053  38.286  29.729   7.950
 3830POPC   C4B10054  38.250  29.734   7.650
 3831POPC   NC310055  17.487   0.474   9.450
 3831POPC   PO410056  17.520   0.391   9.150
 3831POPC   GL110057  17.546   0.393   8.850
 3831POPC   GL210058  17.548   0.507   8.850
 3831POPC   C1A10059  17.498   0.417   8.550
 3831POPC   D2A10060  17.533   0.481   8.250
 3831POPC   C3A10061  17.550   0.397   7.950
 3831POPC   C4A10062  17.502   0.473   7.650
 3831POPC   C1B10063  17.642   0.631   8.550
 3831POPC   C2B10064  17.696   0.615   8.250
 3831POPC   C3B10065  17.700   0.638   7.950
 3831POPC   C4B10066  17.705   0.614   7.650
 3832POPC   NC310067  29.946  17.462   9.450
 3832POPC   PO410068  29.899  17.507   9.150
 3832POPC   GL110069  29.899  17.525   8.850
 3832POPC   GL210070  29.925  17.348   8.850
 3832POPC   C1A10071  29.931  17.527   8.550
 3832POPC   D2A10072  29.901  17.496   8.250
 3832POPC   C3A10073  29.893  17.523   7.950
 3832POPC   C4A10074  29.961  17.502   7.650
 3832POPC   C1B10075  30.038  17.279   8.550
 3832POPC   C2B10076  29.971  17.282   8.250
 3832POPC   C3B10077  30.034  17.252   7.950
 3832POPC   C4B10078  29.968  17.275   7.650
 3833POPC   NC310079   5.874  43.150   9.450
 3833POPC   PO410080   5.892  43.074   9.150
 3833POPC   GL110081   5.830  43.097   8.850
 3833POPC   GL210082   5.914  43.238   8.850
 3833POPC   C1A10083   5.914  43.084   8.550
 3833POPC   D2A10084   5.859  43.140   8.250
 3833POPC   C3A10085   5.869  43.096   7.950
 3833POPC   C4A10086   5.879  43.125   7.650
 3833POPC   C1B10087   6.025  43.240   8.550
 3833POPC   C2B10088   6.013  43.231   8.250
 3833POPC   C3B10089   6.053  43.268   7.950
 3833POPC   C4B10090   6.080  43.283   7.650
 3834POPC   NC310091  15.159  20.615   9.450
 3834POPC   PO410092  15.213  20.657   9.150
 3834POPC   GL110093  15.172  20.597   8.850
 3834POPC   GL210094  15.061  20.539   8.850
 3834POPC   C1A10095  15.154  20.560   8.550
 3834POPC   D2A10096  15.225  20.604   8.250
 3834POPC   C3A10097  15.210  20.644   7.950
 3834POPC   C4A10098  15.174  20.618   7.650
 3834POPC   C1B10099  14.958  20.489   8.550
 3834POPC   C2B10100  15.008  20.453   8.250
 3834POPC   C3B10101  14.973  20.495   7.950
 3834POPC   C4B10102  14.973  20.428   7.650
 3835POPC   NC310103  30.673  22.154   9.450
 3835POPC   PO410104  30.728  22.173   9.150
 3835POPC   GL110105  30.686  22.169   8.850
 3835POPC   GL210106  30.713  22.073   8.850
 3835POPC   C1A10107  30.726  22.127   8.550
 3835POPC   D2A10108  30.684  22.204   8.250
 3835POPC   C3A10109  30.701  22.177   7.950
 3835POPC   C4A10110  30.657  22.193   7.650
 3835POPC   C1B10111  30.682  21.956   8.550
 3835POPC   C2B10112  30.739  21.885   8.250
 3835POPC   C3B10113  30.707  21.955   7.950
 3835POPC   C4B10114  30.703  21.896   7.650
 3836POPC   NC310115  15.984  43.894   9.450
 3836POPC   PO410116  15.975  43.845   9.150
 3836POPC   GL110117  15.986  43.895   8.850
 3836POPC   GL210118  15.875  43.807   8.850
 3836POPC   C1A10119  15.991  43.870   8.550
 3836POPC   D2A10120  15.913  43.911   8.250
 3836POPC   C3A10121  15.927  43.915   7.950
 3836POPC   C4A10122  16.001  43.859   7.650
 3836POPC   C1B10123  15.748  43.752   8.550
 3836POPC   C2B10124  15.792  43.701   8.250
 3836POPC   C3B10125  15.752  43.771   7.950
 3836POPC   C4B10126  15.789  43.783   7.650
 3837POPC   NC310127  44.627  43.897   9.450
 3837POPC   PO410128  44.712  43.847   9.150
 3837POPC   GL110129  44.664  43.929   8.850
 3837POPC   GL210130  44.661  43.994   8.850
 3837POPC   C1A10131  44.668  43.901   8.550
 3837POPC   D2A10132  44.626  43.871   8.250
 3837POPC   C3A10133  44.652  43.871   7.950
 3837POPC   C4A10134  44.705  43.845   7.650
 3837POPC   C1B10135  44.708  44.150   8.550
 3837POPC   C2B10136  44.688  44.160   8.250
 3837POPC   C3B10137  44.690  44.110   7.950
 3837POPC   C4B10138  44.730  44.105   7.650
 3838POPC   NC310139   6.602  29.888   9.450
 3838POPC   PO410140   6.618  29.947   9.150
 3838POPC   GL110141   6.682  29.910   8.850
 3838POPC   GL210142   6.719  29.999   8.850
 3838POPC   C1A10143   6.687  29.891   8.550
 3838POPC   D2A10144   6.635  29.955   8.250
 3838POPC   C3A10145   6.682  29.883   7.950
 3838POPC   C4A10146   6.662  29.917   7.650
 3838POPC   C1B10147   6.776  30.191   8.550
 3838POPC   C2B10148   6.697  30.148   8.250
 3838POPC   C3B10149   6.717  30.193   7.950
 3838POPC   C4B10150   6.711  30.123   7.650
 3839POPC   NC310151   0.472  27.583   9.450
 3839POPC   PO410152   0.445  27.617   9.150
 3839POPC   GL110153   0.403  27.641   8.850
 3839POPC   GL210154   0.589  27.623   8.850
 3839POPC   C1A10155   0.449  27.556   8.550
 3839POPC   D2A10156   0.457  27.570   8.250
 3839POPC   C3A10157   0.423  27.545   7.950
 3839POPC   C4A10158   0.464  27.625   7.650
 3839POPC   C1B10159   0.616  27.664   8.550
 3839POPC   C2B10160   0.683  27.698   8.250
 3839POPC   C3B10161   0.633  27.750   7.950
 3839POPC   C4B10162   0.620  27.747   7.650
 3840POPC   NC310163  18.310  43.090   9.450
 3840POPC   PO410164  18.266  43.103   9.150
 3840POPC   GL110165  18.299  43.148   8.850
 3840POPC   GL210166  18.435  43.142   8.850
 3840POPC   C1A10167  18.267  43.092   8.550
 3840POPC   D2A10168  18.264  43.157   8.250
 3840POPC   C3A10169  18.301  43.120   7.950
 3840POPC   C4A10170  18.267  43.127   7.650
 3840POPC   C1B10171  18.526  43.169   8.550
 3840POPC   C2B10172  18.509  43.169   8.250
 3840POPC   C3B10173  18.490  43.151   7.950
 3840POPC   C4B10174  18.532  43.222   7.650
 3841POPC   NC310175  13.580  25.242   9.450
 3841POPC   PO410176  13.578  25.280   9.150
 3841POPC   GL110177  13.630  25.302   8.850
 3841POPC   GL210178  13.732  25.407   8.850
 3841POPC   C1A10179  13.621  25.314   8.550
 3841POPC   D2A10180  13.629  25.255   8.250
 3841POPC   C3A10181  13.658  25.284   7.950
 3841POPC   C4A10182  13.647  25.227   7.650
 3841POPC   C1B10183  13.755  25.441   8.550
 3841POPC   C2B10184  13.784  25.450   8.250
 3841POPC   C3B10185  13.781  25.502   7.950
 3841POPC   C4B10186  13.725  25.457   7.650
 3842POPC   NC310187   2.787  30.693   9.450
 3842POPC   PO410188   2.774  30.722   9.150
 3842POPC   GL110189   2.790  30.705   8.850
 3842POPC   GL210190   2.913  30.596   8.850
 3842POPC   C1A10191   2.732  30.697   8.550
 3842POPC   D2A10192   2.785  30.680   8.250
 3842POPC   C3A10193   2.771  30.652   7.950
 3842POPC   C4A10194   2.728  30.723   7.650
 3842POPC   C1B10195   2.956  30.530   8.550
 3842POPC   C2B10196   2.995  30.527   8.250
 3842POPC   C3B10197   2.912  30.537   7.950
 3842POPC   C4B10198   2.986  30.535   7.650
 3843POPC   NC310199  40.741   6.614   9.450
 3843POPC   PO410200  40.823   6.620   9.150
 3843POPC   GL110201  40.754   6.632   8.850
 3843POPC   GL210202  40.667   6.634   8.850
 3843POPC   C1A10203  40.765   6.664   8.550
 3843POPC   D2A10204  40.809   6.650   8.250
 3843POPC   C3A10205  40.784   6.636   7.950
 3843POPC   C4A10206  40.775   6.631   7.650
 3843POPC   C1B10207  40.515   6.635   8.550
 3843POPC   C2B10208  40.540   6.641   8.250
 3843POPC   C3B10209  40.493   6.614   7.950
 3843POPC   C4B10210  40.484   6.626   7.650
 3844POPC   NC310211  14.393  18.278   9.450
 3844POPC   PO410212  14.382  18.247   9.150
 3844POPC   GL110213  14.382  18.307   8.850
 3844POPC   GL210214  14.236  18.239   8.850
 3844POPC   C1A10215  14.364  18.316   8.550
 3844POPC   D2A10216  14.421  18.301   8.250
 3844POPC   C3A10217  14.432  18.311   7.950
 3844POPC   C4A10218  14.363  18.306   7.650
 3844POPC   C1B10219  14.185  18.241   8.550
 3844POPC   C2B10220  14.150  18.192   8.250
 3844POPC   C3B10221  14.123  18.176   7.950
 3844POPC   C4B10222  14.119  18.194   7.650
 3845POPC   NC310223  34.567  32.994   9.450
 3845POPC   PO410224  34.536  33.061   9.150
 3845POPC   GL110225  34.576  33.067   8.850
 3845POPC   GL210226  34.549  33.159   8.850
 3845POPC   C1A10227  34.531  33.032   8.550
 3845POPC   D2A10228  34.610  32.991   8.250
 3845POPC   C3A10229  34.590  32.994   7.950
 3845POPC   C4A10230  34.604  33.073   7.650
 3845POPC   C1B10231  34.598  33.228   8.550
 3845POPC   C2B10232  34.597  33.295   8.250
 3845POPC   C3B10233  34.606  33.241   7.950
 3845POPC   C4B10234  34.572  33.300   7.650
 3846POPC   NC310235   8.151  19.059   9.450
 3846POPC   PO410236   8.159  19.091   9.150
 3846POPC   GL110237   8.178  19.077   8.850
 3846POPC   GL210238   8.055  19.017   8.850
 3846POPC   C1A10239   8.148  19.069   8.550
 3846POPC   D2A10240   8.186  19.104   8.250
 3846POPC   C3A10241   8.224  19.025   7.950
 3846POPC   C4A10242   8.157  19.055   7.650
 3846POPC   C1B10243   7.959  19.017   8.550
 3846POPC   C2B10244   7.933  19.050   8.250
 3846POPC   C3B10245   7.985  18.976   7.950
 3846POPC   C4B10246   7.967  19.036   7.650
 3847POPC   NC310247  22.202  11.340   9.450
 3847POPC   PO410248  22.200  11.274   9.150
 3847POPC   GL110249  22.153  11.286   8.850
 3847POPC   GL210250  22.114  11.394   8.850
 3847POPC   C1A10251  22.161  11.332   8.550
 3847POPC   D2A10252  22.197  11.289   8.250
 3847POPC   C3A10253  22.184  11.252   7.950
 3847POPC   C4A10254  22.153  11.343   7.650
 3847POPC   C1B10255  22.156  11.565   8.550
 3847POPC   C2B10256  22.092  11.521   8.250
 3847POPC   C3B10257  22.132  11.579   7.950
 3847POPC   C4B10258  22.096  11.567   7.650
 3848POPC   NC310259  12.860   9.763   9.450
 3848POPC   PO410260  12.880   9.761   9.150
 3848POPC   GL110261  12.808   9.716   8.850
 3848POPC   GL210262  12.692   9.715   8.850
 3848POPC   C1A10263  12.846   9.716   8.550
 3848POPC   D2A10264  12.822   9.768   8.250
 3848POPC   C3A10265  12.899   9.708   7.950
 3848POPC   C4A10266  12.805   9.736   7.650
 3848POPC   C1B10267  12.613   9.690   8.550
 3848POPC   C2B10268  12.556   9.742   8.250
 3848POPC   C3B10269  12.575   9.764   7.950
 3848POPC   C4B10270  12.648   9.711   7.650
 3849POPC   NC310271  21.385   5.878   9.450
 3849POPC   PO410272  21.346   5.912   9.150
 3849POPC   GL110273  21.420   5.863   8.850
 3849POPC   GL210274  21.307   5.709   8.850
 3849POPC   C1A10275  21.408   5.886   8.550
 3849POPC   D2A10276  21.410   5.908   8.250
 3849POPC   C3A10277  21.387   5.844   7.950
 3849POPC   C4A10278  21.340   5.896   7.650
 3849POPC   C1B10279  21.317   5.626   8.550
 3849POPC   C2B10280  21.275   5.656   8.250
 3849POPC   C3B10281  21.311   5.663   7.950
 3849POPC   C4B10282  21.323   5.673   7.650
 3850POPC   NC310283  40.043  37.718   9.450
 3850POPC   PO410284  39.970  37.664   9.150
 3850POPC   GL110285  39.957  37.722   8.850
 3850POPC   GL210286  39.892  37.600   8.850
 3850POPC   C1A10287  40.016  37.678   8.550
 3850POPC   D2A10288  40.051  37.635   8.250
 3850POPC   C3A10289  40.038  37.654   7.950
 3850POPC   C4A10290  40.041  37.673   7.650
 3850POPC   C1B10291  39.794  37.539   8.550
 3850POPC   C2B10292  39.845  37.522   8.250
 3850POPC   C3B10293  39.795  37.536   7.950
 3850POPC   C4B10294  39.783  37.552   7.650
 3851POPC   NC310295  21.381  15.978   9.450
 3851POPC   PO410296  21.341  15.943   9.150
 3851POPC   GL110297  21.385  15.963   8.850
 3851POPC   GL210298  21.427  16.029   8.850
 3851POPC   C1A10299  21.346  15.938   8.550
 3851POPC   D2A10300  21.435  16.000   8.250
 3851POPC   C3A10301  21.429  15.929   7.950
 3851POPC   C4A10302  21.407  15.996   7.650
 3851POPC   C1B10303  21.551  16.120   8.550
 3851POPC   C2B10304  21.591  16.167   8.250
 3851POPC   C3B10305  21.518  16.116   7.950
 3851POPC   C4B10306  21.539  16.134   7.650
 3852POPC   NC310307   5.114  42.357   9.450
 3852POPC   PO410308   5.085  42.309   9.150
 3852POPC   GL110309   5.095  42.380   8.850
 3852POPC   GL210310   5.084  42.200   8.850
 3852POPC   C1A10311   5.070  42.334   8.550
 3852POPC   D2A10312   5.045  42.331   8.250
 3852POPC   C3A10313   5.078  42.297   7.950
 3852POPC   C4A10314   5.090  42.296   7.650
 3852POPC   C1B10315   5.140  42.045   8.550
 3852POPC   C2B10316   5.159  42.071   8.250
 3852POPC   C3B10317   5.130  42.066   7.950
 3852POPC   C4B10318   5.127  42.095   7.650
 3853POPC   NC310319  34.561  17.507   9.450
 3853POPC   PO410320  34.544  17.541   9.150
 3853POPC   GL110321  34.578  17.527   8.850
 3853POPC   GL210322  34.706  17.471   8.850
 3853POPC   C1A10323  34.569  17.527   8.550
 3853POPC   D2A10324  34.616  17.549   8.250
 3853POPC   C3A10325  34.527  17.512   7.950
 3853POPC   C4A10326  34.584  17.489   7.650
 3853POPC   C1B10327  34.786  17.544   8.550
 3853POPC   C2B10328  34.777  17.513   8.250
 3853POPC   C3B10329  34.871  17.510   7.950
 3853POPC   C4B10330  34.868  17.540   7.650
 3854POPC   NC310331  19.108  36.135   9.450
 3854POPC   PO410332  19.029  36.081   9.150
 3854POPC   GL110333  19.050  36.175   8.850
 3854POPC   GL210334  19.217  36.074   8.850
 3854POPC   C1A10335  19.073  36.157   8.550
 3854POPC   D2A10336  19.069  36.173   8.250
 3854POPC   C3A10337  19.015  36.128   7.950
 3854POPC   C4A10338  19.089  36.150   7.650
 3854POPC   C1B10339  19.285  36.057   8.550
 3854POPC   C2B10340  19.306  36.081   8.250
 3854POPC   C3B10341  19.278  36.106   7.950
 3854POPC   C4B10342  19.319  36.119   7.650
 3855POPC   NC310343  19.831  43.882   9.450
 3855POPC   PO410344  19.847  43.878   9.150
 3855POPC   GL110345  19.880  43.846   8.850
 3855POPC   GL210346  19.948  43.767   8.850
 3855POPC   C1A10347  19.788  43.837   8.550
 3855POPC   D2A10348  19.878  43.876   8.250
 3855POPC   C3A10349  19.817  43.854   7.950
 3855POPC   C4A10350  19.880  43.891   7.650
 3855POPC   C1B10351  20.015  43.695   8.550
 3855POPC   C2B10352  20.007  43.655   8.250
 3855POPC   C3B10353  20.006  43.644   7.950
 3855POPC   C4B10354  19.960  43.665   7.650
 3856POPC   NC310355  33.837  19.797   9.450
 3856POPC   PO410356  33.771  19.848   9.150
 3856POPC   GL110357  33.821  19.835   8.850
 3856POPC   GL210358  33.899  19.982   8.850
 3856POPC   C1A10359  33.818  19.820   8.550
 3856POPC   D2A10360  33.820  19.868   8.250
 3856POPC   C3A10361  33.772  19.835   7.950
 3856POPC   C4A10362  33.792  19.845   7.650
 3856POPC   C1B10363  33.915  20.009   8.550
 3856POPC   C2B10364  33.977  20.084   8.250
 3856POPC   C3B10365  33.976  20.019   7.950
 3856POPC   C4B10366  33.956  20.083   7.650
 3857POPC   NC310367  18.275  26.812   9.450
 3857POPC   PO410368  18.276  26.823   9.150
 3857POPC   GL110369  18.261  26.832   8.850
 3857POPC   GL210370  18.292  26.683   8.850
 3857POPC   C1A10371  18.237  26.771   8.550
 3857POPC   D2A10372  18.307  26.851   8.250
 3857POPC   C3A10373  18.281  26.774   7.950
 3857POPC   C4A10374  18.262  26.791   7.650
 3857POPC   C1B10375  18.247  26.567   8.550
 3857POPC   C2B10376  18.281  26.576   8.250
 3857POPC   C3B10377  18.263  26.606   7.950
 3857POPC   C4B10378  18.270  26.616   7.650
 3858POPC   NC310379  35.374   9.777   9.450
 3858POPC   PO410380  35.385   9.767   9.150
 3858POPC   GL110381  35.380   9.759   8.850
 3858POPC   GL210382  35.461   9.654   8.850
 3858POPC   C1A10383  35.381   9.707   8.550
 3858POPC   D2A10384  35.386   9.752   8.250
 3858POPC   C3A10385  35.401   9.725   7.950
 3858POPC   C4A10386  35.312   9.778   7.650
 3858POPC   C1B10387  35.526   9.622   8.550
 3858POPC   C2B10388  35.486   9.528   8.250
 3858POPC   C3B10389  35.551   9.565   7.950
 3858POPC   C4B10390  35.575   9.575   7.650
 3859POPC   NC310391  39.189   5.859   9.450
 3859POPC   PO410392  39.199   5.832   9.150
 3859POPC   GL110393  39.260   5.856   8.850
 3859POPC   GL210394  39.208   6.029   8.850
 3859POPC   C1A10395  39.215   5.875   8.550
 3859POPC   D2A10396  39.225   5.905   8.250
 3859POPC   C3A10397  39.192   5.855   7.950
 3859POPC   C4A10398  39.237   5.820   7.650
 3859POPC   C1B10399  39.290   6.089   8.550
 3859POPC   C2B10400  39.241   6.158   8.250
 3859POPC   C3B10401  39.290   6.153   7.950
 3859POPC   C4B10402  39.259   6.148   7.650
 3860POPC   NC310403  40.010   7.412   9.450
 3860POPC   PO410404  39.993   7.435   9.150
 3860POPC   GL110405  40.027   7.412   8.850
 3860POPC   GL210406  40.094   7.409   8.850
 3860POPC   C1A10407  39.971   7.411   8.550
 3860POPC   D2A10408  39.967   7.455   8.250
 3860POPC   C3A10409  39.978   7.455   7.950
 3860POPC   C4A10410  39.962   7.462   7.650
 3860POPC   C1B10411  40.271   7.364   8.550
 3860POPC   C2B10412  40.236   7.423   8.250
 3860POPC   C3B10413  40.289   7.430   7.950
 3860POPC   C4B10414  40.242   7.404   7.650
 3861POPC   NC310415  19.812   5.093   9.450
 3861POPC   PO410416  19.841   5.067   9.150
 3861POPC   GL110417  19.849   5.082   8.850
 3861POPC   GL210418  19.744   5.248   8.850
 3861POPC   C1A10419  19.793   5.137   8.550
 3861POPC   D2A10420  19.880   5.103   8.250
 3861POPC   C3A10421  19.855   5.053   7.950
 3861POPC   C4A10422  19.797   5.074   7.650
 3861POPC   C1B10423  19.750   5.300   8.550
 3861POPC   C2B10424  19.700   5.286   8.250
 3861POPC   C3B10425  19.698   5.317   7.950
 3861POPC   C4B10426  19.747   5.280   7.650
 3862POPC   NC310427  43.912  10.529   9.450
 3862POPC   PO410428  43.845  10.481   9.150
 3862POPC   GL110429  43.900  10.535   8.850
 3862POPC   GL210430  43.735  10.468   8.850
 3862POPC   C1A10431  43.873  10.495   8.550
 3862POPC   D2A10432  43.895  10.498   8.250
 3862POPC   C3A10433  43.915  10.539   7.950
 3862POPC   C4A10434  43.879  10.498   7.650
 3862POPC   C1B10435  43.619  10.482   8.550
 3862POPC   C2B10436  43.617  10.461   8.250
 3862POPC   C3B10437  43.660  10.480   7.950
 3862POPC   C4B10438  43.607  10.479   7.650
 3863POPC   NC310439  42.325  29.911   9.450
 3863POPC   PO410440  42.324  29.879   9.150
 3863POPC   GL110441  42.314  29.912   8.850
 3863POPC   GL210442  42.450  29.992   8.850
 3863POPC   C1A10443  42.301  29.927   8.550
 3863POPC   D2A10444  42.331  29.935   8.250
 3863POPC   C3A10445  42.329  29.934   7.950
 3863POPC   C4A10446  42.299  29.967   7.650
 3863POPC   C1B10447  42.587  29.984   8.550
 3863POPC   C2B10448  42.510  29.997   8.250
 3863POPC   C3B10449  42.543  30.058   7.950
 3863POPC   C4B10450  42.510  30.009   7.650
 3864POPC   NC310451  22.939  41.584   9.450
 3864POPC   PO410452  22.985  41.592   9.150
 3864POPC   GL110453  22.979  41.576   8.850
 3864POPC   GL210454  23.057  41.547   8.850
 3864POPC   C1A10455  22.926  41.562   8.550
 3864POPC   D2A10456  22.892  41.554   8.250
 3864POPC   C3A10457  22.907  41.589   7.950
 3864POPC   C4A10458  22.889  41.512   7.650
 3864POPC   C1B10459  23.145  41.455   8.550
 3864POPC   C2B10460  23.184  41.478   8.250
 3864POPC   C3B10461  23.131  41.435   7.950
 3864POPC   C4B10462  23.145  41.450   7.650
 3865POPC   NC310463  41.509   1.947   9.450
 3865POPC   PO410464  41.594   1.956   9.150
 3865POPC   GL110465  41.569   1.951   8.850
 3865POPC   GL210466  41.649   2.020   8.850
 3865POPC   C1A10467  41.599   1.977   8.550
 3865POPC   D2A10468  41.583   1.980   8.250
 3865POPC   C3A10469  41.522   2.025   7.950
 3865POPC   C4A10470  41.512   1.949   7.650
 3865POPC   C1B10471  41.826   2.062   8.550
 3865POPC   C2B10472  41.834   2.077   8.250
 3865POPC   C3B10473  41.794   2.048   7.950
 3865POPC   C4B10474  41.800   2.025   7.650
 3866POPC   NC310475   5.883  36.167   9.450
 3866POPC   PO410476   5.898  36.149   9.150
 3866POPC   GL110477   5.904  36.132   8.850
 3866POPC   GL210478   5.860  36.192   8.850
 3866POPC   C1A10479   5.905  36.098   8.550
 3866POPC   D2A10480   5.826  36.091   8.250
 3866POPC   C3A10481   5.852  36.096   7.950
 3866POPC   C4A10482   5.865  36.078   7.650
 3866POPC   C1B10483   5.769  36.381   8.550
 3866POPC   C2B10484   5.760  36.384   8.250
 3866POPC   C3B10485   5.746  36.327   7.950
 3866POPC   C4B10486   5.790  36.344   7.650
 3867POPC   NC310487  44.699  27.613   9.450
 3867POPC   PO410488  44.708  27.624   9.150
 3867POPC   GL110489  44.675  27.604   8.850
 3867POPC   GL210490  44.569  27.493   8.850
 3867POPC   C1A10491  44.667  27.610   8.550
 3867POPC   D2A10492  44.690  27.614   8.250
 3867POPC   C3A10493  44.689  27.598   7.950
 3867POPC   C4A10494  44.694  27.598   7.650
 3867POPC   C1B10495  44.450  27.445   8.550
 3867POPC   C2B10496  44.448  27.520   8.250
 3867POPC   C3B10497  44.446  27.454   7.950
 3867POPC   C4B10498  44.447  27.501   7.650
 3868POPC   NC310499  29.152  36.098   9.450
 3868POPC   PO410500  29.113  36.167   9.150
 3868POPC   GL110501  29.165  36.162   8.850
 3868POPC   GL210502  29.169  36.218   8.850
 3868POPC   C1A10503  29.184  36.144   8.550
 3868POPC   D2A10504  29.170  36.170   8.250
 3868POPC   C3A10505  29.145  36.123   7.950
 3868POPC   C4A10506  29.168  36.093   7.650
 3868POPC   C1B10507  29.263  36.375   8.550
 3868POPC   C2B10508  29.243  36.284   8.250
 3868POPC   C3B10509  29.332  36.361   7.950
 3868POPC   C4B10510  29.328  36.296   7.650
 3869POPC   NC310511  21.359  16.700   9.450
 3869POPC   PO410512  21.340  16.722   9.150
 3869POPC   GL110513  21.369  16.745   8.850
 3869POPC   GL210514  21.311  16.648   8.850
 3869POPC   C1A10515  21.364  16.750   8.550
 3869POPC   D2A10516  21.393  16.741   8.250
 3869POPC   C3A10517  21.424  16.690   7.950
 3869POPC   C4A10518  21.380  16.716   7.650
 3869POPC   C1B10519  21.178  16.596   8.550
 3869POPC   C2B10520  21.219  16.571   8.250
 3869POPC   C3B10521  21.183  16.527   7.950
 3869POPC   C4B10522  21.229  16.546   7.650
 3870POPC   NC310523  39.255  13.662   9.450
 3870POPC   PO410524  39.246  13.608   9.150
 3870POPC   GL110525  39.221  13.602   8.850
 3870POPC   GL210526  39.334  13.665   8.850
 3870POPC   C1A10527  39.219  13.584   8.550
 3870POPC   D2A10528  39.186  13.648   8.250
 3870POPC   C3A10529  39.264  13.609   7.950
 3870POPC   C4A10530  39.197  13.578   7.650
 3870POPC   C1B10531  39.445  13.710   8.550
 3870POPC   C2B10532  39.487  13.702   8.250
 3870POPC   C3B10533  39.437  13.722   7.950
 3870POPC   C4B10534  39.447  13.664   7.650
 3871POPC   NC310535  25.298   2.001   9.450
 3871POPC   PO410536  25.296   1.959   9.150
 3871POPC   GL110537  25.285   2.019   8.850
 3871POPC   GL210538  25.217   2.061   8.850
 3871POPC   C1A10539  25.288   1.981   8.550
 3871POPC   D2A10540  25.229   2.025   8.250
 3871POPC   C3A10541  25.310   2.001   7.950
 3871POPC   C4A10542  25.242   2.022   7.650
 3871POPC   C1B10543  25.228   2.242   8.550
 3871POPC   C2B10544  25.164   2.238   8.250
 3871POPC   C3B10545  25.202   2.242   7.950
 3871POPC   C4B10546  25.197   2.223   7.650
 3872POPC   NC310547  17.555  44.649   9.450
 3872POPC   PO410548  17.469  44.658   9.150
 3872POPC   GL110549  17.513  44.692   8.850
 3872POPC   GL210550  17.439  44.741   8.850
 3872POPC   C1A10551  17.555  44.632   8.550
 3872POPC   D2A10552  17.520  44.649   8.250
 3872POPC   C3A10553  17.458  44.669   7.950
 3872POPC   C4A10554  17.464  44.631   7.650
 3872POPC   C1B10555  17.352  44.913   8.550
 3872POPC   C2B10556  17.360  44.888   8.250
 3872POPC   C3B10557  17.397  44.829   7.950
 3872POPC   C4B10558  17.345  44.876   7.650
 3873POPC   NC310559  20.591  40.733   9.450
 3873POPC   PO410560  20.585  40.783   9.150
 3873POPC   GL110561  20.562  40.813   8.850
 3873POPC   GL210562  20.618  40.952   8.850
 3873POPC   C1A10563  20.588  40.801   8.550
 3873POPC   D2A10564  20.566  40.767   8.250
 3873POPC   C3A10565  20.595  40.760   7.950
 3873POPC   C4A10566  20.562  40.763   7.650
 3873POPC   C1B10567  20.668  41.013   8.550
 3873POPC   C2B10568  20.640  41.014   8.250
 3873POPC   C3B10569  20.637  41.059   7.950
 3873POPC   C4B10570  20.595  41.049   7.650
 3874POPC   NC310571  30.716  11.320   9.450
 3874POPC   PO410572  30.742  11.268   9.150
 3874POPC   GL110573  30.725  11.332   8.850
 3874POPC   GL210574  30.820  11.329   8.850
 3874POPC   C1A10575  30.665  11.289   8.550
 3874POPC   D2A10576  30.734  11.302   8.250
 3874POPC   C3A10577  30.665  11.344   7.950
 3874POPC   C4A10578  30.717  11.258   7.650
 3874POPC   C1B10579  30.896  11.447   8.550
 3874POPC   C2B10580  30.918  11.389   8.250
 3874POPC   C3B10581  30.926  11.390   7.950
 3874POPC   C4B10582  30.945  11.465   7.650
 3875POPC   NC310583  36.887  15.991   9.450
 3875POPC   PO410584  36.897  15.988   9.150
 3875POPC   GL110585  36.940  15.976   8.850
 3875POPC   GL210586  36.824  15.869   8.850
 3875POPC   C1A10587  36.888  15.944   8.550
 3875POPC   D2A10588  36.906  15.961   8.250
 3875POPC   C3A10589  36.937  15.959   7.950
 3875POPC   C4A10590  36.855  15.945   7.650
 3875POPC   C1B10591  36.837  15.769   8.550
 3875POPC   C2B10592  36.840  15.727   8.250
 3875POPC   C3B10593  36.847  15.746   7.950
 3875POPC   C4B10594  36.774  15.729   7.650
 3876POPC   NC310595   2.804  26.835   9.450
 3876POPC   PO410596   2.797  26.797   9.150
 3876POPC   GL110597   2.730  26.866   8.850
 3876POPC   GL210598   2.790  26.963   8.850
 3876POPC   C1A10599   2.724  26.844   8.550
 3876POPC   D2A10600   2.749  26.803   8.250
 3876POPC   C3A10601   2.773  26.771   7.950
 3876POPC   C4A10602   2.740  26.828   7.650
 3876POPC   C1B10603   2.888  27.039   8.550
 3876POPC   C2B10604   2.801  27.089   8.250
 3876POPC   C3B10605   2.864  27.045   7.950
 3876POPC   C4B10606   2.863  27.024   7.650
 3877POPC   NC310607  39.216  26.078   9.450
 3877POPC   PO410608  39.280  26.051   9.150
 3877POPC   GL110609  39.233  26.082   8.850
 3877POPC   GL210610  39.293  26.125   8.850
 3877POPC   C1A10611  39.195  26.065   8.550
 3877POPC   D2A10612  39.187  26.044   8.250
 3877POPC   C3A10613  39.211  26.064   7.950
 3877POPC   C4A10614  39.185  26.064   7.650
 3877POPC   C1B10615  39.260  26.248   8.550
 3877POPC   C2B10616  39.301  26.287   8.250
 3877POPC   C3B10617  39.319  26.293   7.950
 3877POPC   C4B10618  39.294  26.293   7.650
 3878POPC   NC310619  41.560  40.779   9.450
 3878POPC   PO410620  41.536  40.754   9.150
 3878POPC   GL110621  41.587  40.820   8.850
 3878POPC   GL210622  41.495  40.885   8.850
 3878POPC   C1A10623  41.590  40.736   8.550
 3878POPC   D2A10624  41.573  40.786   8.250
 3878POPC   C3A10625  41.578  40.751   7.950
 3878POPC   C4A10626  41.571  40.733   7.650
 3878POPC   C1B10627  41.502  41.013   8.550
 3878POPC   C2B10628  41.496  41.068   8.250
 3878POPC   C3B10629  41.491  41.001   7.950
 3878POPC   C4B10630  41.511  41.016   7.650
 3879POPC   NC310631  30.678   6.629   9.450
 3879POPC   PO410632  30.654   6.636   9.150
 3879POPC   GL110633  30.715   6.658   8.850
 3879POPC   GL210634  30.649   6.544   8.850
 3879POPC   C1A10635  30.714   6.614   8.550
 3879POPC   D2A10636  30.671   6.599   8.250
 3879POPC   C3A10637  30.668   6.608   7.950
 3879POPC   C4A10638  30.666   6.654   7.650
 3879POPC   C1B10639  30.655   6.437   8.550
 3879POPC   C2B10640  30.593   6.377   8.250
 3879POPC   C3B10641  30.652   6.431   7.950
 3879POPC   C4B10642  30.667   6.448   7.650
 3880POPC   NC310643  22.165   5.824   9.450
 3880POPC   PO410644  22.187   5.919   9.150
 3880POPC   GL110645  22.189   5.865   8.850
 3880POPC   GL210646  22.119   5.757   8.850
 3880POPC   C1A10647  22.186   5.847   8.550
 3880POPC   D2A10648  22.136   5.871   8.250
 3880POPC   C3A10649  22.153   5.913   7.950
 3880POPC   C4A10650  22.136   5.848   7.650
 3880POPC   C1B10651  21.960   5.707   8.550
 3880POPC   C2B10652  21.970   5.718   8.250
 3880POPC   C3B10653  21.961   5.716   7.950
 3880POPC   C4B10654  21.988   5.667   7.650
 3881POPC   NC310655  26.818   2.811   9.450
 3881POPC   PO410656  26.853   2.724   9.150
 3881POPC   GL110657  26.854   2.749   8.850
 3881POPC   GL210658  26.751   2.716   8.850
 3881POPC   C1A10659  26.813   2.764   8.550
 3881POPC   D2A10660  26.813   2.798   8.250
 3881POPC   C3A10661  26.824   2.783   7.950
 3881POPC   C4A10662  26.801   2.807   7.650
 3881POPC   C1B10663  26.598   2.651   8.550
 3881POPC   C2B10664  26.544   2.702   8.250
 3881POPC   C3B10665  26.610   2.699   7.950
 3881POPC   C4B10666  26.623   2.684   7.650
 3882POPC   NC310667  22.903   9.776   9.450
 3882POPC   PO410668  22.967   9.708   9.150
 3882POPC   GL110669  22.908   9.706   8.850
 3882POPC   GL210670  23.012   9.818   8.850
 3882POPC   C1A10671  22.969   9.781   8.550
 3882POPC   D2A10672  22.919   9.718   8.250
 3882POPC   C3A10673  22.963   9.762   7.950
 3882POPC   C4A10674  22.926   9.721   7.650
 3882POPC   C1B10675  23.135   9.934   8.550
 3882POPC   C2B10676  23.080   9.920   8.250
 3882POPC   C3B10677  23.126   9.960   7.950
 3882POPC   C4B10678  23.159   9.892   7.650
 3883POPC   NC310679   5.090   8.923   9.450
 3883POPC   PO410680   5.126   8.991   9.150
 3883POPC   GL110681   5.113   9.014   8.850
 3883POPC   GL210682   4.986   9.066   8.850
 3883POPC   C1A10683   5.097   8.982   8.550
 3883POPC   D2A10684   5.078   8.957   8.250
 3883POPC   C3A10685   5.087   8.927   7.950
 3883POPC   C4A10686   5.050   8.952   7.650
 3883POPC   C1B10687   4.951   9.176   8.550
 3883POPC   C2B10688   4.912   9.197   8.250
 3883POPC   C3B10689   4.924   9.120   7.950
 3883POPC   C4B10690   4.957   9.148   7.650
 3884POPC   NC310691   5.844  34.559   9.450
 3884POPC   PO410692   5.855  34.619   9.150
 3884POPC   GL110693   5.870  34.604   8.850
 3884POPC   GL210694   6.009  34.573   8.850
 3884POPC   C1A10695   5.833  34.612   8.550
 3884POPC   D2A10696   5.868  34.587   8.250
 3884POPC   C3A10697   5.852  34.544   7.950
 3884POPC   C4A10698   5.877  34.586   7.650
 3884POPC   C1B10699   6.138  34.534   8.550
 3884POPC   C2B10700   6.149  34.469   8.250
 3884POPC   C3B10701   6.065  34.503   7.950
 3884POPC   C4B10702   6.093  34.490   7.650
 3885POPC   NC310703  36.122   5.841   9.450
 3885POPC   PO410704  36.159   5.826   9.150
 3885POPC   GL110705  36.087   5.819   8.850
 3885POPC   GL210706  36.218   5.871   8.850
 3885POPC   C1A10707  36.130   5.825   8.550
 3885POPC   D2A10708  36.152   5.841   8.250
 3885POPC   C3A10709  36.121   5.891   7.950
 3885POPC   C4A10710  36.147   5.897   7.650
 3885POPC   C1B10711  36.364   5.919   8.550
 3885POPC   C2B10712  36.381   5.949   8.250
 3885POPC   C3B10713  36.367   5.959   7.950
 3885POPC   C4B10714  36.397   5.919   7.650
 3886POPC   NC310715  21.434  28.392   9.450
 3886POPC   PO410716  21.358  28.361   9.150
 3886POPC   GL110717  21.399  28.363   8.850
 3886POPC   GL210718  21.307  28.397   8.850
 3886POPC   C1A10719  21.401  28.405   8.550
 3886POPC   D2A10720  21.376  28.419   8.250
 3886POPC   C3A10721  21.367  28.369   7.950
 3886POPC   C4A10722  21.380  28.413   7.650
 3886POPC   C1B10723  21.154  28.489   8.550
 3886POPC   C2B10724  21.145  28.467   8.250
 3886POPC   C3B10725  21.114  28.474   7.950
 3886POPC   C4B10726  21.197  28.462   7.650
 3887POPC   NC310727   0.480  22.127   9.450
 3887POPC   PO410728   0.430  22.186   9.150
 3887POPC   GL110729   0.465  22.127   8.850
 3887POPC   GL210730   0.400  22.321   8.850
 3887POPC   C1A10731   0.433  22.161   8.550
 3887POPC   D2A10732   0.470  22.119   8.250
 3887POPC   C3A10733   0.483  22.128   7.950
 3887POPC   C4A10734   0.467  22.140   7.650
 3887POPC   C1B10735   0.346  22.344   8.550
 3887POPC   C2B10736   0.324  22.379   8.250
 3887POPC   C3B10737   0.347  22.357   7.950
 3887POPC   C4B10738   0.305  22.381   7.650
 3888POPC   NC310739  42.317  36.879   9.450
 3888POPC   PO410740  42.382  36.896   9.150
 3888POPC   GL110741  42.288  36.912   8.850
 3888POPC   GL210742  42.496  36.980   8.850
 3888POPC   C1A10743  42.312  36.855   8.550
 3888POPC   D2A10744  42.290  36.865   8.250
 3888POPC   C3A10745  42.296  36.857   7.950
 3888POPC   C4A10746  42.296  36.934   7.650
 3888POPC   C1B10747  42.541  37.017   8.550
 3888POPC   C2B10748  42.562  37.029   8.250
 3888POPC   C3B10749  42.523  37.048   7.950
 3888POPC   C4B10750  42.583  36.961   7.650
 3889POPC   NC310751  19.856  27.550   9.450
 3889POPC   PO410752  19.865  27.554   9.150
 3889POPC   GL110753  19.789  27.626   8.850
 3889POPC   GL210754  19.851  27.496   8.850
 3889POPC   C1A10755  19.789  27.602   8.550
 3889POPC   D2A10756  19.810  27.607   8.250
 3889POPC   C3A10757  19.788  27.596   7.950
 3889POPC   C4A10758  19.801  27.569   7.650
 3889POPC   C1B10759  19.818  27.392   8.550
 3889POPC   C2B10760  19.881  27.299   8.250
 3889POPC   C3B10761  19.838  27.387   7.950
 3889POPC   C4B10762  19.844  27.308   7.650
 3890POPC   NC310763  44.632  19.836   9.450
 3890POPC   PO410764  44.692  19.797   9.150
 3890POPC   GL110765  44.660  19.874   8.850
 3890POPC   GL210766  44.614  19.943   8.850
 3890POPC   C1A10767  44.655  19.877   8.550
 3890POPC   D2A10768  44.693  19.881   8.250
 3890POPC   C3A10769  44.688  19.824   7.950
 3890POPC   C4A10770  44.700  19.858   7.650
 3890POPC   C1B10771  44.677  20.097   8.550
 3890POPC   C2B10772  44.628  20.084   8.250
 3890POPC   C3B10773  44.638  20.111   7.950
 3890POPC   C4B10774  44.672  20.090   7.650
 3891POPC   NC310775   3.502  24.528   9.450
 3891POPC   PO410776   3.543  24.454   9.150
 3891POPC   GL110777   3.535  24.476   8.850
 3891POPC   GL210778   3.465  24.465   8.850
 3891POPC   C1A10779   3.519  24.477   8.550
 3891POPC   D2A10780   3.523  24.515   8.250
 3891POPC   C3A10781   3.512  24.521   7.950
 3891POPC   C4A10782   3.538  24.507   7.650
 3891POPC   C1B10783   3.311  24.526   8.550
 3891POPC   C2B10784   3.266  24.528   8.250
 3891POPC   C3B10785   3.271  24.559   7.950
 3891POPC   C4B10786   3.325  24.522   7.650
 3892POPC   NC310787   5.063  29.139   9.450
 3892POPC   PO410788   5.095  29.187   9.150
 3892POPC   GL110789   5.076  29.184   8.850
 3892POPC   GL210790   5.167  29.011   8.850
 3892POPC   C1A10791   5.142  29.115   8.550
 3892POPC   D2A10792   5.068  29.102   8.250
 3892POPC   C3A10793   5.082  29.179   7.950
 3892POPC   C4A10794   5.087  29.131   7.650
 3892POPC   C1B10795   5.183  28.921   8.550
 3892POPC   C2B10796   5.249  28.968   8.250
 3892POPC   C3B10797   5.196  28.955   7.950
 3892POPC   C4B10798   5.254  28.923   7.650
 3893POPC   NC310799  16.776   3.579   9.450
 3893POPC   PO410800  16.724   3.538   9.150
 3893POPC   GL110801  16.765   3.564   8.850
 3893POPC   GL210802  16.851   3.616   8.850
 3893POPC   C1A10803  16.733   3.561   8.550
 3893POPC   D2A10804  16.718   3.536   8.250
 3893POPC   C3A10805  16.757   3.551   7.950
 3893POPC   C4A10806  16.701   3.580   7.650
 3893POPC   C1B10807  16.898   3.698   8.550
 3893POPC   C2B10808  16.891   3.698   8.250
 3893POPC   C3B10809  16.917   3.655   7.950
 3893POPC   C4B10810  16.980   3.703   7.650
 3894POPC   NC310811  33.774  41.566   9.450
 3894POPC   PO410812  33.776  41.579   9.150
 3894POPC   GL110813  33.773  41.513   8.850
 3894POPC   GL210814  33.678  41.439   8.850
 3894POPC   C1A10815  33.829  41.556   8.550
 3894POPC   D2A10816  33.831  41.516   8.250
 3894POPC   C3A10817  33.765  41.547   7.950
 3894POPC   C4A10818  33.818  41.581   7.650
 3894POPC   C1B10819  33.638  41.363   8.550
 3894POPC   C2B10820  33.686  41.329   8.250
 3894POPC   C3B10821  33.686  41.402   7.950
 3894POPC   C4B10822  33.619  41.393   7.650
 3895POPC   NC310823   8.999  21.428   9.450
 3895POPC   PO410824   8.943  21.435   9.150
 3895POPC   GL110825   8.932  21.352   8.850
 3895POPC   GL210826   9.068  21.405   8.850
 3895POPC   C1A10827   8.941  21.415   8.550
 3895POPC   D2A10828   8.950  21.416   8.250
 3895POPC   C3A10829   8.942  21.386   7.950
 3895POPC   C4A10830   8.969  21.413   7.650
 3895POPC   C1B10831   9.218  21.490   8.550
 3895POPC   C2B10832   9.151  21.513   8.250
 3895POPC   C3B10833   9.184  21.507   7.950
 3895POPC   C4B10834   9.166  21.444   7.650
 3896POPC   NC310835  27.632  32.267   9.450
 3896POPC   PO410836  27.635  32.290   9.150
 3896POPC   GL110837  27.592  32.259   8.850
 3896POPC   GL210838  27.735  32.231   8.850
 3896POPC   C1A10839  27.615  32.204   8.550
 3896POPC   D2A10840  27.560  32.232   8.250
 3896POPC   C3A10841  27.624  32.244   7.950
 3896POPC   C4A10842  27.553  32.290   7.650
 3896POPC   C1B10843  27.813  32.163   8.550
 3896POPC   C2B10844  27.842  32.206   8.250
 3896POPC   C3B10845  27.831  32.174   7.950
 3896POPC   C4B10846  27.825  32.175   7.650
 3897POPC   NC310847   7.431  22.169   9.450
 3897POPC   PO410848   7.460  22.197   9.150
 3897POPC   GL110849   7.459  22.118   8.850
 3897POPC   GL210850   7.545  22.108   8.850
 3897POPC   C1A10851   7.439  22.159   8.550
 3897POPC   D2A10852   7.447  22.147   8.250
 3897POPC   C3A10853   7.375  22.208   7.950
 3897POPC   C4A10854   7.396  22.209   7.650
 3897POPC   C1B10855   7.624  22.006   8.550
 3897POPC   C2B10856   7.681  22.045   8.250
 3897POPC   C3B10857   7.591  21.999   7.950
 3897POPC   C4B10858   7.656  22.054   7.650
 3898POPC   NC310859  29.101  27.585   9.450
 3898POPC   PO410860  29.128  27.634   9.150
 3898POPC   GL110861  29.130  27.546   8.850
 3898POPC   GL210862  29.097  27.666   8.850
 3898POPC   C1A10863  29.183  27.548   8.550
 3898POPC   D2A10864  29.099  27.554   8.250
 3898POPC   C3A10865  29.143  27.574   7.950
 3898POPC   C4A10866  29.179  27.605   7.650
 3898POPC   C1B10867  28.963  27.800   8.550
 3898POPC   C2B10868  28.983  27.796   8.250
 3898POPC   C3B10869  28.993  27.751   7.950
 3898POPC   C4B10870  28.979  27.818   7.650
 3899POPC   NC310871  15.991  15.167   9.450
 3899POPC   PO410872  15.920  15.168   9.150
 3899POPC   GL110873  15.926  15.206   8.850
 3899POPC   GL210874  15.938  15.314   8.850
 3899POPC   C1A10875  15.940  15.172   8.550
 3899POPC   D2A10876  15.983  15.220   8.250
 3899POPC   C3A10877  15.939  15.213   7.950
 3899POPC   C4A10878  15.994  15.215   7.650
 3899POPC   C1B10879  15.858  15.440   8.550
 3899POPC   C2B10880  15.874  15.359   8.250
 3899POPC   C3B10881  15.879  15.451   7.950
 3899POPC   C4B10882  15.869  15.363   7.650
 3900POPC   NC310883  24.479  29.099   9.450
 3900POPC   PO410884  24.474  29.189   9.150
 3900POPC   GL110885  24.459  29.148   8.850
 3900POPC   GL210886  24.620  29.187   8.850
 3900POPC   C1A10887  24.537  29.140   8.550
 3900POPC   D2A10888  24.481  29.148   8.250
 3900POPC   C3A10889  24.462  29.100   7.950
 3900POPC   C4A10890  24.502  29.095   7.650
 3900POPC   C1B10891  24.684  29.265   8.550
 3900POPC   C2B10892  24.664  29.322   8.250
 3900POPC   C3B10893  24.649  29.323   7.950
 3900POPC   C4B10894  24.682  29.281   7.650
 3901POPC   NC310895  15.138  33.805   9.450
 3901POPC   PO410896  15.190  33.778   9.150
 3901POPC   GL110897  15.138  33.824   8.850
 3901POPC   GL210898  15.116  33.747   8.850
 3901POPC   C1A10899  15.198  33.839   8.550
 3901POPC   D2A10900  15.217  33.759   8.250
 3901POPC   C3A10901  15.221  33.833   7.950
 3901POPC   C4A10902  15.166  33.817   7.650
 3901POPC   C1B10903  15.012  33.642   8.550
 3901POPC   C2B10904  15.008  33.598   8.250
 3901POPC   C3B10905  15.027  33.595   7.950
 3901POPC   C4B10906  15.004  33.583   7.650
 3902POPC   NC310907  21.398  20.584   9.450
 3902POPC   PO410908  21.349  20.633   9.150
 3902POPC   GL110909  21.409  20.633   8.850
 3902POPC   GL210910  21.298  20.537   8.850
 3902POPC   C1A10911  21.338  20.638   8.550
 3902POPC   D2A10912  21.378  20.637   8.250
 3902POPC   C3A10913  21.409  20.660   7.950
 3902POPC   C4A10914  21.375  20.615   7.650
 3902POPC   C1B10915  21.314  20.373   8.550
 3902POPC   C2B10916  21.282  20.414   8.250
 3902POPC   C3B10917  21.284  20.388   7.950
 3902POPC   C4B10918  21.267  20.369   7.650
 3903POPC   NC310919   8.182  40.016   9.450
 3903POPC   PO410920   8.189  40.036   9.150
 3903POPC   GL110921   8.243  39.972   8.850
 3903POPC   GL210922   8.276  40.006   8.850
 3903POPC   C1A10923   8.208  40.006   8.550
 3903POPC   D2A10924   8.237  39.989   8.250
 3903POPC   C3A10925   8.183  40.053   7.950
 3903POPC   C4A10926   8.161  39.965   7.650
 3903POPC   C1B10927   8.480  40.045   8.550
 3903POPC   C2B10928   8.416  40.048   8.250
 3903POPC   C3B10929   8.392  40.074   7.950
 3903POPC   C4B10930   8.478  40.033   7.650
 3904POPC   NC310931  32.991  37.701   9.450
 3904POPC   PO410932  33.051  37.656   9.150
 3904POPC   GL110933  33.048  37.648   8.850
 3904POPC   GL210934  33.177  37.645   8.850
 3904POPC   C1A10935  33.064  37.631   8.550
 3904POPC   D2A10936  33.012  37.650   8.250
 3904POPC   C3A10937  33.038  37.686   7.950
 3904POPC   C4A10938  32.987  37.725   7.650
 3904POPC   C1B10939  33.253  37.599   8.550
 3904POPC   C2B10940  33.239  37.583   8.250
 3904POPC   C3B10941  33.231  37.568   7.950
 3904POPC   C4B10942  33.285  37.584   7.650
 3905POPC   NC310943  39.962  33.788   9.450
 3905POPC   PO410944  40.004  33.778   9.150
 3905POPC   GL110945  40.008  33.798   8.850
 3905POPC   GL210946  39.955  33.715   8.850
 3905POPC   C1A10947  39.964  33.828   8.550
 3905POPC   D2A10948  40.041  33.820   8.250
 3905POPC   C3A10949  40.025  33.781   7.950
 3905POPC   C4A10950  39.986  33.772   7.650
 3905POPC   C1B10951  39.951  33.522   8.550
 3905POPC   C2B10952  39.975  33.593   8.250
 3905POPC   C3B10953  40.002  33.518   7.950
 3905POPC   C4B10954  39.951  33.592   7.650
 3906POPC   NC310955  43.877   6.693   9.450
 3906POPC   PO410956  43.922   6.652   9.150
 3906POPC   GL110957  43.930   6.670   8.850
 3906POPC   GL210958  43.949   6.518   8.850
 3906POPC   C1A10959  43.880   6.693   8.550
 3906POPC   D2A10960  43.927   6.627   8.250
 3906POPC   C3A10961  43.861   6.670   7.950
 3906POPC   C4A10962  43.912   6.654   7.650
 3906POPC   C1B10963  44.033   6.447   8.550
 3906POPC   C2B10964  44.049   6.468   8.250
 3906POPC   C3B10965  44.056   6.447   7.950
 3906POPC   C4B10966  43.988   6.443   7.650
 3907POPC   NC310967  41.554   6.657   9.450
 3907POPC   PO410968  41.571   6.624   9.150
 3907POPC   GL110969  41.516   6.648   8.850
 3907POPC   GL210970  41.594   6.545   8.850
 3907POPC   C1A10971  41.608   6.614   8.550
 3907POPC   D2A10972  41.576   6.660   8.250
 3907POPC   C3A10973  41.522   6.686   7.950
 3907POPC   C4A10974  41.582   6.688   7.650
 3907POPC   C1B10975  41.572   6.414   8.550
 3907POPC   C2B10976  41.595   6.373   8.250
 3907POPC   C3B10977  41.635   6.356   7.950
 3907POPC   C4B10978  41.629   6.420   7.650
 3908POPC   NC310979  37.712   5.070   9.450
 3908POPC   PO410980  37.697   5.137   9.150
 3908POPC   GL110981  37.630   5.097   8.850
 3908POPC   GL210982  37.558   5.101   8.850
 3908POPC   C1A10983  37.704   5.134   8.550
 3908POPC   D2A10984  37.671   5.131   8.250
 3908POPC   C3A10985  37.637   5.114   7.950
 3908POPC   C4A10986  37.643   5.097   7.650
 3908POPC   C1B10987  37.445   5.028   8.550
 3908POPC   C2B10988  37.387   5.050   8.250
 3908POPC   C3B10989  37.421   5.095   7.950
 3908POPC   C4B10990  37.391   5.011   7.650
 3909POPC   NC310991  35.340  21.343   9.450
 3909POPC   PO410992  35.311  21.431   9.150
 3909POPC   GL110993  35.316  21.346   8.850
 3909POPC   GL210994  35.264  21.343   8.850
 3909POPC   C1A10995  35.320  21.395   8.550
 3909POPC   D2A10996  35.349  21.423   8.250
 3909POPC   C3A10997  35.381  21.411   7.950
 3909POPC   C4A10998  35.400  21.341   7.650
 3909POPC   C1B10999  35.161  21.212   8.550
 3909POPC   C2B11000  35.143  21.250   8.250
 3909POPC   C3B11001  35.209  21.218   7.950
 3909POPC   C4B11002  35.180  21.267   7.650
 3910POPC   NC311003  33.813  28.410   9.450
 3910POPC   PO411004  33.774  28.383   9.150
 3910POPC   GL111005  33.838  28.360   8.850
 3910POPC   GL211006  33.641  28.387   8.850
 3910POPC   C1A11007  33.756  28.345   8.550
 3910POPC   D2A11008  33.776  28.411   8.250
 3910POPC   C3A11009  33.785  28.396   7.950
 3910POPC   C4A11010  33.754  28.388   7.650
 3910POPC   C1B11011  33.604  28.500   8.550
 3910POPC   C2B11012  33.564  28.432   8.250
 3910POPC   C3B11013  33.553  28.456   7.950
 3910POPC   C4B11014  33.523  28.421   7.650
 3911POPC   NC311015  14.357  32.214   9.450
 3911POPC   PO411016  14.444  32.251   9.150
 3911POPC   GL111017  14.380  32.216   8.850
 3911POPC   GL211018  14.485  32.164   8.850
 3911POPC   C1A11019  14.365  32.258   8.550
 3911POPC   D2A11020  14.444  32.251   8.250
 3911POPC   C3A11021  14.447  32.220   7.950
 3911POPC   C4A11022  14.450  32.242   7.650
 3911POPC   C1B11023  14.491  31.981   8.550
 3911POPC   C2B11024  14.535  32.005   8.250
 3911POPC   C3B11025  14.479  32.042   7.950
 3911POPC   C4B11026  14.560  31.986   7.650
 3912POPC   NC311027  26.040  36.865   9.450
 3912POPC   PO411028  26.001  36.913   9.150
 3912POPC   GL111029  26.014  36.921   8.850
 3912POPC   GL211030  25.940  37.039   8.850
 3912POPC   C1A11031  26.054  36.870   8.550
 3912POPC   D2A11032  25.996  36.908   8.250
 3912POPC   C3A11033  25.996  36.854   7.950
 3912POPC   C4A11034  26.006  36.910   7.650
 3912POPC   C1B11035  25.908  37.077   8.550
 3912POPC   C2B11036  25.885  37.138   8.250
 3912POPC   C3B11037  25.939  37.160   7.950
 3912POPC   C4B11038  25.884  37.138   7.650
 3913POPC   NC311039  43.843  19.107   9.450
 3913POPC   PO411040  43.890  19.038   9.150
 3913POPC   GL111041  43.864  19.033   8.850
 3913POPC   GL211042  43.805  18.957   8.850
 3913POPC   C1A11043  43.921  19.022   8.550
 3913POPC   D2A11044  43.843  19.103   8.250
 3913POPC   C3A11045  43.928  19.058   7.950
 3913POPC   C4A11046  43.892  19.040   7.650
 3913POPC   C1B11047  43.687  18.938   8.550
 3913POPC   C2B11048  43.697  18.915   8.250
 3913POPC   C3B11049  43.694  18.885   7.950
 3913POPC   C4B11050  43.630  18.896   7.650
 3914POPC   NC311051   5.849  26.000   9.450
 3914POPC   PO411052   5.830  26.014   9.150
 3914POPC   GL111053   5.848  26.039   8.850
 3914POPC   GL211054   6.016  26.053   8.850
 3914POPC   C1A11055   5.824  26.025   8.550
 3914POPC   D2A11056   5.852  26.022   8.250
 3914POPC   C3A11057   5.828  26.035   7.950
 3914POPC   C4A11058   5.866  26.088   7.650
 3914POPC   C1B11059   6.121  26.183   8.550
 3914POPC   C2B11060   6.079  26.124   8.250
 3914POPC   C3B11061   6.111  26.170   7.950
 3914POPC   C4B11062   6.112  26.116   7.650
 3915POPC   NC311063  33.759  39.264   9.450
 3915POPC   PO411064  33.848  39.220   9.150
 3915POPC   GL111065  33.762  39.207   8.850
 3915POPC   GL211066  33.874  39.196   8.850
 3915POPC   C1A11067  33.757  39.247   8.550
 3915POPC   D2A11068  33.764  39.228   8.250
 3915POPC   C3A11069  33.776  39.209   7.950
 3915POPC   C4A11070  33.780  39.266   7.650
 3915POPC   C1B11071  33.994  39.155   8.550
 3915POPC   C2B11072  34.070  39.177   8.250
 3915POPC   C3B11073  34.019  39.139   7.950
 3915POPC   C4B11074  34.089  39.133   7.650
 3916POPC   NC311075  40.016  12.120   9.450
 3916POPC   PO411076  40.015  12.053   9.150
 3916POPC   GL111077  40.004  12.070   8.850
 3916POPC   GL211078  40.148  12.157   8.850
 3916POPC   C1A11079  39.965  12.104   8.550
 3916POPC   D2A11080  40.027  12.125   8.250
 3916POPC   C3A11081  39.991  12.094   7.950
 3916POPC   C4A11082  40.047  12.101   7.650
 3916POPC   C1B11083  40.251  12.135   8.550
 3916POPC   C2B11084  40.258  12.145   8.250
 3916POPC   C3B11085  40.274  12.139   7.950
 3916POPC   C4B11086  40.290  12.148   7.650
 3917POPC   NC311087  37.676  29.147   9.450
 3917POPC   PO411088  37.641  29.139   9.150
 3917POPC   GL111089  37.667  29.171   8.850
 3917POPC   GL211090  37.693  29.011   8.850
 3917POPC   C1A11091  37.662  29.166   8.550
 3917POPC   D2A11092  37.723  29.096   8.250
 3917POPC   C3A11093  37.725  29.135   7.950
 3917POPC   C4A11094  37.658  29.104   7.650
 3917POPC   C1B11095  37.656  28.863   8.550
 3917POPC   C2B11096  37.692  28.869   8.250
 3917POPC   C3B11097  37.685  28.936   7.950
 3917POPC   C4B11098  37.678  28.865   7.650
 3918POPC   NC311099   5.140   0.403   9.450
 3918POPC   PO411100   5.094   0.477   9.150
 3918POPC   GL111101   5.048   0.448   8.850
 3918POPC   GL211102   5.179   0.586   8.850
 3918POPC   C1A11103   5.138   0.411   8.550
 3918POPC   D2A11104   5.085   0.420   8.250
 3918POPC   C3A11105   5.108   0.451   7.950
 3918POPC   C4A11106   5.114   0.403   7.650
 3918POPC   C1B11107   5.270   0.593   8.550
 3918POPC   C2B11108   5.230   0.666   8.250
 3918POPC   C3B11109   5.227   0.606   7.950
 3918POPC   C4B11110   5.201   0.599   7.650
 3919POPC   NC311111  33.021   8.927   9.450
 3919POPC   PO411112  32.978   8.958   9.150
 3919POPC   GL111113  32.984   9.013   8.850
 3919POPC   GL211114  32.870   9.018   8.850
 3919POPC   C1A11115  32.977   8.947   8.550
 3919POPC   D2A11116  33.030   8.988   8.250
 3919POPC   C3A11117  33.048   8.981   7.950
 3919POPC   C4A11118  32.977   8.949   7.650
 3919POPC   C1B11119  32.735   9.069   8.550
 3919POPC   C2B11120  32.826   9.020   8.250
 3919POPC   C3B11121  32.746   8.997   7.950
 3919POPC   C4B11122  32.758   9.052   7.650
 3920POPC   NC311123  33.756   3.513   9.450
 3920POPC   PO411124  33.780   3.502   9.150
 3920POPC   GL111125  33.831   3.558   8.850
 3920POPC   GL211126  33.664   3.425   8.850
 3920POPC   C1A11127  33.804   3.561   8.550
 3920POPC   D2A11128  33.760   3.587   8.250
 3920POPC   C3A11129  33.846   3.510   7.950
 3920POPC   C4A11130  33.785   3.589   7.650
 3920POPC   C1B11131  33.595   3.360   8.550
 3920POPC   C2B11132  33.579   3.403   8.250
 3920POPC   C3B11133  33.565   3.386   7.950
 3920POPC   C4B11134  33.612   3.350   7.650
 3921POPC   NC311135   4.348  28.395   9.450
 3921POPC   PO411136   4.309  28.390   9.150
 3921POPC   GL111137   4.329  28.367   8.850
 3921POPC   GL211138   4.285  28.254   8.850
 3921POPC   C1A11139   4.291  28.327   8.550
 3921POPC   D2A11140   4.324  28.332   8.250
 3921POPC   C3A11141   4.325  28.385   7.950
 3921POPC   C4A11142   4.338  28.385   7.650
 3921POPC   C1B11143   4.221  28.144   8.550
 3921POPC   C2B11144   4.221  28.106   8.250
 3921POPC   C3B11145   4.257  28.106   7.950
 3921POPC   C4B11146   4.265  28.139   7.650
 3922POPC   NC311147  33.801  12.086   9.450
 3922POPC   PO411148  33.808  12.076   9.150
 3922POPC   GL111149  33.769  12.096   8.850
 3922POPC   GL211150  33.868  12.144   8.850
 3922POPC   C1A11151  33.785  12.028   8.550
 3922POPC   D2A11152  33.819  12.064   8.250
 3922POPC   C3A11153  33.783  12.121   7.950
 3922POPC   C4A11154  33.816  12.071   7.650
 3922POPC   C1B11155  33.840  12.331   8.550
 3922POPC   C2B11156  33.911  12.279   8.250
 3922POPC   C3B11157  33.887  12.267   7.950
 3922POPC   C4B11158  33.838  12.303   7.650
 3923POPC   NC311159  12.094  25.290   9.450
 3923POPC   PO411160  12.079  25.247   9.150
 3923POPC   GL111161  12.027  25.265   8.850
 3923POPC   GL211162  12.192  25.222   8.850
 3923POPC   C1A11163  12.071  25.228   8.550
 3923POPC   D2A11164  12.067  25.300   8.250
 3923POPC   C3A11165  12.050  25.264   7.950
 3923POPC   C4A11166  12.092  25.257   7.650
 3923POPC   C1B11167  12.289  25.149   8.550
 3923POPC   C2B11168  12.342  25.220   8.250
 3923POPC   C3B11169  12.353  25.161   7.950
 3923POPC   C4B11170  12.327  25.226   7.650
 3924POPC   NC311171   0.448  13.592   9.450
 3924POPC   PO411172   0.400  13.604   9.150
 3924POPC   GL111173   0.468  13.672   8.850
 3924POPC   GL211174   0.396  13.775   8.850
 3924POPC   C1A11175   0.400  13.595   8.550
 3924POPC   D2A11176   0.482  13.641   8.250
 3924POPC   C3A11177   0.391  13.643   7.950
 3924POPC   C4A11178   0.466  13.667   7.650
 3924POPC   C1B11179   0.323  13.863   8.550
 3924POPC   C2B11180   0.366  13.812   8.250
 3924POPC   C3B11181   0.314  13.817   7.950
 3924POPC   C4B11182   0.295  13.802   7.650
 3925POPC   NC311183  16.004  25.256   9.450
 3925POPC   PO411184  15.952  25.271   9.150
 3925POPC   GL111185  15.955  25.248   8.850
 3925POPC   GL211186  16.042  25.311   8.850
 3925POPC   C1A11187  15.980  25.217   8.550
 3925POPC   D2A11188  15.981  25.300   8.250
 3925POPC   C3A11189  15.966  25.246   7.950
 3925POPC   C4A11190  15.993  25.257   7.650
 3925POPC   C1B11191  16.177  25.373   8.550
 3925POPC   C2B11192  16.156  25.393   8.250
 3925POPC   C3B11193  16.171  25.331   7.950
 3925POPC   C4B11194  16.207  25.371   7.650
 3926POPC   NC311195  38.430   1.215   9.450
 3926POPC   PO411196  38.457   1.206   9.150
 3926POPC   GL111197  38.442   1.199   8.850
 3926POPC   GL211198  38.502   1.114   8.850
 3926POPC   C1A11199  38.477   1.225   8.550
 3926POPC   D2A11200  38.420   1.177   8.250
 3926POPC   C3A11201  38.482   1.247   7.950
 3926POPC   C4A11202  38.429   1.239   7.650
 3926POPC   C1B11203  38.515   1.016   8.550
 3926POPC   C2B11204  38.509   0.953   8.250
 3926POPC   C3B11205  38.580   0.985   7.950
 3926POPC   C4B11206  38.587   0.954   7.650
 3927POPC   NC311207  15.200   7.404   9.450
 3927POPC   PO411208  15.144   7.442   9.150
 3927POPC   GL111209  15.200   7.433   8.850
 3927POPC   GL211210  15.169   7.541   8.850
 3927POPC   C1A11211  15.176   7.457   8.550
 3927POPC   D2A11212  15.197   7.461   8.250
 3927POPC   C3A11213  15.170   7.459   7.950
 3927POPC   C4A11214  15.135   7.448   7.650
 3927POPC   C1B11215  15.102   7.694   8.550
 3927POPC   C2B11216  15.053   7.681   8.250
 3927POPC   C3B11217  15.113   7.671   7.950
 3927POPC   C4B11218  15.028   7.682   7.650
 3928POPC   NC311219   2.724  33.825   9.450
 3928POPC   PO411220   2.800  33.759   9.150
 3928POPC   GL111221   2.809  33.812   8.850
 3928POPC   GL211222   2.720  33.946   8.850
 3928POPC   C1A11223   2.737  33.834   8.550
 3928POPC   D2A11224   2.800  33.793   8.250
 3928POPC   C3A11225   2.814  33.825   7.950
 3928POPC   C4A11226   2.793  33.754   7.650
 3928POPC   C1B11227   2.608  34.046   8.550
 3928POPC   C2B11228   2.659  33.980   8.250
 3928POPC   C3B11229   2.657  34.025   7.950
 3928POPC   C4B11230   2.690  33.999   7.650
 3929POPC   NC311231  41.590  27.554   9.450
 3929POPC   PO411232  41.582  27.613   9.150
 3929POPC   GL111233  41.606  27.571   8.850
 3929POPC   GL211234  41.646  27.660   8.850
 3929POPC   C1A11235  41.588  27.583   8.550
 3929POPC   D2A11236  41.566  27.600   8.250
 3929POPC   C3A11237  41.511  27.588   7.950
 3929POPC   C4A11238  41.536  27.578   7.650
 3929POPC   C1B11239  41.647  27.778   8.550
 3929POPC   C2B11240  41.703  27.821   8.250
 3929POPC   C3B11241  41.627  27.793   7.950
 3929POPC   C4B11242  41.681  27.832   7.650
 3930POPC   NC311243  26.016  22.167   9.450
 3930POPC   PO411244  26.082  22.195   9.150
 3930POPC   GL111245  26.032  22.147   8.850
 3930POPC   GL211246  26.055  22.272   8.850
 3930POPC   C1A11247  26.013  22.197   8.550
 3930POPC   D2A11248  26.086  22.192   8.250
 3930POPC   C3A11249  26.013  22.193   7.950
 3930POPC   C4A11250  26.064  22.157   7.650
 3930POPC   C1B11251  26.097  22.395   8.550
 3930POPC   C2B11252  26.091  22.399   8.250
 3930POPC   C3B11253  26.095  22.422   7.950
 3930POPC   C4B11254  26.120  22.399   7.650
 3931POPC   NC311255  33.045  30.656   9.450
 3931POPC   PO411256  33.055  30.744   9.150
 3931POPC   GL111257  33.015  30.745   8.850
 3931POPC   GL211258  32.966  30.810   8.850
 3931POPC   C1A11259  33.060  30.719   8.550
 3931POPC   D2A11260  33.048  30.709   8.250
 3931POPC   C3A11261  33.040  30.700   7.950
 3931POPC   C4A11262  33.051  30.655   7.650
 3931POPC   C1B11263  32.843  30.909   8.550
 3931POPC   C2B11264  32.832  30.851   8.250
 3931POPC   C3B11265  32.907  30.861   7.950
 3931POPC   C4B11266  32.896  30.891   7.650
 3932POPC   NC311267  15.932  29.943   9.450
 3932POPC   PO411268  15.931  29.878   9.150
 3932POPC   GL111269  15.961  29.894   8.850
 3932POPC   GL211270  15.929  30.033   8.850
 3932POPC   C1A11271  15.948  29.970   8.550
 3932POPC   D2A11272  15.930  29.908   8.250
 3932POPC   C3A11273  15.955  29.931   7.950
 3932POPC   C4A11274  15.953  29.963   7.650
 3932POPC   C1B11275  15.900  30.176   8.550
 3932POPC   C2B11276  15.886  30.178   8.250
 3932POPC   C3B11277  15.867  30.157   7.950
 3932POPC   C4B11278  15.857  30.122   7.650
 3933POPC   NC311279  22.164  19.823   9.450
 3933POPC   PO411280  22.144  19.810   9.150
 3933POPC   GL111281  22.158  19.818   8.850
 3933POPC   GL211282  22.117  19.927   8.850
 3933POPC   C1A11283  22.196  19.844   8.550
 3933POPC   D2A11284  22.122  19.813   8.250
 3933POPC   C3A11285  22.184  19.801   7.950
 3933POPC   C4A11286  22.152  19.858   7.650
 3933POPC   C1B11287  22.181  20.076   8.550
 3933POPC   C2B11288  22.180  20.113   8.250
 3933POPC   C3B11289  22.089  20.070   7.950
 3933POPC   C4B11290  22.157  20.055   7.650
 3934POPC   NC311291  37.642  22.984   9.450
 3934POPC   PO411292  37.704  22.985   9.150
 3934POPC   GL111293  37.724  22.896   8.850
 3934POPC   GL211294  37.615  23.028   8.850
 3934POPC   C1A11295  37.708  22.921   8.550
 3934POPC   D2A11296  37.676  22.900   8.250
 3934POPC   C3A11297  37.669  22.906   7.950
 3934POPC   C4A11298  37.714  22.939   7.650
 3934POPC   C1B11299  37.547  23.196   8.550
 3934POPC   C2B11300  37.556  23.172   8.250
 3934POPC   C3B11301  37.536  23.150   7.950
 3934POPC   C4B11302  37.580  23.114   7.650
 3935POPC   NC311303  36.080  12.116   9.450
 3935POPC   PO411304  36.108  12.123   9.150
 3935POPC   GL111305  36.104  12.084   8.850
 3935POPC   GL211306  36.242  12.072   8.850
 3935POPC   C1A11307  36.082  12.110   8.550
 3935POPC   D2A11308  36.129  12.040   8.250
 3935POPC   C3A11309  36.080  12.113   7.950
 3935POPC   C4A11310  36.144  12.090   7.650
 3935POPC   C1B11311  36.353  12.184   8.550
 3935POPC   C2B11312  36.344  12.118   8.250
 3935POPC   C3B11313  36.367  12.154   7.950
 3935POPC   C4B11314  36.331  12.174   7.650
 3936POPC   NC311315  43.873  20.574   9.450
 3936POPC   PO411316  43.839  20.582   9.150
 3936POPC   GL111317  43.861  20.623   8.850
 3936POPC   GL211318  43.850  20.691   8.850
 3936POPC   C1A11319  43.904  20.571   8.550
 3936POPC   D2A11320  43.838  20.655   8.250
 3936POPC   C3A11321  43.854  20.632   7.950
 3936POPC   C4A11322  43.904  20.659   7.650
 3936POPC   C1B11323  43.845  20.848   8.550
 3936POPC   C2B11324  43.839  20.894   8.250
 3936POPC   C3B11325  43.831  20.880   7.950
 3936POPC   C4B11326  43.834  20.839   7.650
 3937POPC   NC311327  20.655  37.653   9.450
 3937POPC   PO411328  20.655  37.629   9.150
 3937POPC   GL111329  20.601  37.698   8.850
 3937POPC   GL211330  20.664  37.791   8.850
 3937POPC   C1A11331  20.645  37.693   8.550
 3937POPC   D2A11332  20.640  37.668   8.250
 3937POPC   C3A11333  20.640  37.703   7.950
 3937POPC   C4A11334  20.590  37.726   7.650
 3937POPC   C1B11335  20.784  37.803   8.550
 3937POPC   C2B11336  20.787  37.862   8.250
 3937POPC   C3B11337  20.765  37.818   7.950
 3937POPC   C4B11338  20.792  37.783   7.650
 3938POPC   NC311339  36.861   8.206   9.450
 3938POPC   PO411340  36.935   8.155   9.150
 3938POPC   GL111341  36.931   8.159   8.850
 3938POPC   GL211342  36.968   8.263   8.850
 3938POPC   C1A11343  36.919   8.215   8.550
 3938POPC   D2A11344  36.945   8.207   8.250
 3938POPC   C3A11345  36.940   8.170   7.950
 3938POPC   C4A11346  36.925   8.192   7.650
 3938POPC   C1B11347  37.027   8.439   8.550
 3938POPC   C2B11348  37.097   8.368   8.250
 3938POPC   C3B11349  37.062   8.350   7.950
 3938POPC   C4B11350  37.026   8.412   7.650
 3939POPC   NC311351  37.651  16.728   9.450
 3939POPC   PO411352  37.709  16.780   9.150
 3939POPC   GL111353  37.633  16.729   8.850
 3939POPC   GL211354  37.665  16.868   8.850
 3939POPC   C1A11355  37.695  16.759   8.550
 3939POPC   D2A11356  37.632  16.763   8.250
 3939POPC   C3A11357  37.703  16.686   7.950
 3939POPC   C4A11358  37.681  16.754   7.650
 3939POPC   C1B11359  37.699  16.979   8.550
 3939POPC   C2B11360  37.663  16.974   8.250
 3939POPC   C3B11361  37.665  16.953   7.950
 3939POPC   C4B11362  37.625  17.024   7.650
 3940POPC   NC311363  12.806  44.670   9.450
 3940POPC   PO411364  12.900  44.636   9.150
 3940POPC   GL111365  12.873  44.688   8.850
 3940POPC   GL211366  12.809  44.557   8.850
 3940POPC   C1A11367  12.815  44.645   8.550
 3940POPC   D2A11368  12.832  44.690   8.250
 3940POPC   C3A11369  12.898  44.699   7.950
 3940POPC   C4A11370  12.891  44.700   7.650
 3940POPC   C1B11371  12.720  44.460   8.550
 3940POPC   C2B11372  12.704  44.512   8.250
 3940POPC   C3B11373  12.644  44.493   7.950
 3940POPC   C4B11374  12.657  44.451   7.650
 3941POPC   NC311375  34.602  13.670   9.450
 3941POPC   PO411376  34.622  13.591   9.150
 3941POPC   GL111377  34.614  13.671   8.850
 3941POPC   GL211378  34.422  13.586   8.850
 3941POPC   C1A11379  34.609  13.620   8.550
 3941POPC   D2A11380  34.599  13.636   8.250
 3941POPC   C3A11381  34.625  13.636   7.950
 3941POPC   C4A11382  34.590  13.664   7.650
 3941POPC   C1B11383  34.321  13.637   8.550
 3941POPC   C2B11384  34.300  13.595   8.250
 3941POPC   C3B11385  34.278  13.606   7.950
 3941POPC   C4B11386  34.285  13.552   7.650
 3942POPC   NC311387   6.656   1.235   9.450
 3942POPC   PO411388   6.647   1.241   9.150
 3942POPC   GL111389   6.695   1.262   8.850
 3942POPC   GL211390   6.580   1.055   8.850
 3942POPC   C1A11391   6.658   1.257   8.550
 3942POPC   D2A11392   6.622   1.169   8.250
 3942POPC   C3A11393   6.614   1.244   7.950
 3942POPC   C4A11394   6.662   1.174   7.650
 3942POPC   C1B11395   6.654   0.953   8.550
 3942POPC   C2B11396   6.566   0.939   8.250
 3942POPC   C3B11397   6.562   0.936   7.950
 3942POPC   C4B11398   6.612   0.961   7.650
 3943POPC   NC311399  41.573  31.494   9.450
 3943POPC   PO411400  41.513  31.482   9.150
 3943POPC   GL111401  41.592  31.446   8.850
 3943POPC   GL211402  41.425  31.534   8.850
 3943POPC   C1A11403  41.595  31.501   8.550
 3943POPC   D2A11404  41.534  31.498   8.250
 3943POPC   C3A11405  41.579  31.489   7.950
 3943POPC   C4A11406  41.560  31.511   7.650
 3943POPC   C1B11407  41.316  31.532   8.550
 3943POPC   C2B11408  41.283  31.547   8.250
 3943POPC   C3B11409  41.300  31.521   7.950
 3943POPC   C4B11410  41.291  31.568   7.650
 3944POPC   NC311411  26.042  28.416   9.450
 3944POPC   PO411412  26.084  28.365   9.150
 3944POPC   GL111413  26.005  28.387   8.850
 3944POPC   GL211414  25.951  28.351   8.850
 3944POPC   C1A11415  26.005  28.362   8.550
 3944POPC   D2A11416  26.018  28.393   8.250
 3944POPC   C3A11417  26.087  28.331   7.950
 3944POPC   C4A11418  26.038  28.381   7.650
 3944POPC   C1B11419  25.780  28.208   8.550
 3944POPC   C2B11420  25.832  28.265   8.250
 3944POPC   C3B11421  25.827  28.281   7.950
 3944POPC   C4B11422  25.822  28.248   7.650
 3945POPC   NC311423   3.590  43.843   9.450
 3945POPC   PO411424   3.498  43.853   9.150
 3945POPC   GL111425   3.549  43.849   8.850
 3945POPC   GL211426   3.647  43.831   8.850
 3945POPC   C1A11427   3.544  43.877   8.550
 3945POPC   D2A11428   3.579  43.870   8.250
 3945POPC   C3A11429   3.494  43.841   7.950
 3945POPC   C4A11430   3.549  43.852   7.650
 3945POPC   C1B11431   3.730  43.718   8.550
 3945POPC   C2B11432   3.675  43.746   8.250
 3945POPC   C3B11433   3.712  43.675   7.950
 3945POPC   C4B11434   3.707  43.740   7.650
 3946POPC   NC311435  20.592  22.975   9.450
 3946POPC   PO411436  20.608  22.905   9.150
 3946POPC   GL111437  20.626  22.902   8.850
 3946POPC   GL211438  20.670  22.842   8.850
 3946POPC   C1A11439  20.621  22.977   8.550
 3946POPC   D2A11440  20.635  22.955   8.250
 3946POPC   C3A11441  20.632  22.906   7.950
 3946POPC   C4A11442  20.628  22.924   7.650
 3946POPC   C1B11443  20.818  22.699   8.550
 3946POPC   C2B11444  20.789  22.697   8.250
 3946POPC   C3B11445  20.765  22.776   7.950
 3946POPC   C4B11446  20.791  22.712   7.650
 3947POPC   NC311447   3.511  20.594   9.450
 3947POPC   PO411448   3.537  20.657   9.150
 3947POPC   GL111449   3.531  20.601   8.850
 3947POPC   GL211450   3.515  20.509   8.850
 3947POPC   C1A11451   3.525  20.589   8.550
 3947POPC   D2A11452   3.531  20.632   8.250
 3947POPC   C3A11453   3.591  20.564   7.950
 3947POPC   C4A11454   3.581  20.571   7.650
 3947POPC   C1B11455   3.416  20.346   8.550
 3947POPC   C2B11456   3.428  20.409   8.250
 3947POPC   C3B11457   3.391  20.365   7.950
 3947POPC   C4B11458   3.459  20.336   7.650
 3948POPC   NC311459  28.343  35.346   9.450
 3948POPC   PO411460  28.413  35.401   9.150
 3948POPC   GL111461  28.330  35.323   8.850
 3948POPC   GL211462  28.315  35.477   8.850
 3948POPC   C1A11463  28.337  35.392   8.550
 3948POPC   D2A11464  28.328  35.323   8.250
 3948POPC   C3A11465  28.398  35.339   7.950
 3948POPC   C4A11466  28.405  35.312   7.650
 3948POPC   C1B11467  28.271  35.605   8.550
 3948POPC   C2B11468  28.248  35.563   8.250
 3948POPC   C3B11469  28.267  35.574   7.950
 3948POPC   C4B11470  28.248  35.603   7.650
 3949POPC   NC311471  15.160  25.251   9.450
 3949POPC   PO411472  15.168  25.313   9.150
 3949POPC   GL111473  15.229  25.256   8.850
 3949POPC   GL211474  15.313  25.274   8.850
 3949POPC   C1A11475  15.177  25.297   8.550
 3949POPC   D2A11476  15.217  25.247   8.250
 3949POPC   C3A11477  15.187  25.267   7.950
 3949POPC   C4A11478  15.132  25.274   7.650
 3949POPC   C1B11479  15.369  25.314   8.550
 3949POPC   C2B11480  15.380  25.333   8.250
 3949POPC   C3B11481  15.385  25.362   7.950
 3949POPC   C4B11482  15.399  25.380   7.650
 3950POPC   NC311483   9.775  12.825   9.450
 3950POPC   PO411484   9.738  12.877   9.150
 3950POPC   GL111485   9.707  12.815   8.850
 3950POPC   GL211486   9.853  12.720   8.850
 3950POPC   C1A11487   9.750  12.830   8.550
 3950POPC   D2A11488   9.737  12.861   8.250
 3950POPC   C3A11489   9.735  12.843   7.950
 3950POPC   C4A11490   9.791  12.877   7.650
 3950POPC   C1B11491   9.874  12.690   8.550
 3950POPC   C2B11492   9.917  12.626   8.250
 3950POPC   C3B11493   9.879  12.692   7.950
 3950POPC   C4B11494   9.875  12.657   7.650
 3951POPC   NC311495  19.806  13.634   9.450
 3951POPC   PO411496  19.824  13.661   9.150
 3951POPC   GL111497  19.798  13.650   8.850
 3951POPC   GL211498  19.748  13.713   8.850
 3951POPC   C1A11499  19.807  13.622   8.550
 3951POPC   D2A11500  19.802  13.673   8.250
 3951POPC   C3A11501  19.848  13.590   7.950
 3951POPC   C4A11502  19.849  13.617   7.650
 3951POPC   C1B11503  19.697  13.829   8.550
 3951POPC   C2B11504  19.703  13.839   8.250
 3951POPC   C3B11505  19.709  13.815   7.950
 3951POPC   C4B11506  19.684  13.796   7.650
 3952POPC   NC311507  38.415  12.809   9.450
 3952POPC   PO411508  38.487  12.852   9.150
 3952POPC   GL111509  38.466  12.892   8.850
 3952POPC   GL211510  38.560  12.743   8.850
 3952POPC   C1A11511  38.460  12.899   8.550
 3952POPC   D2A11512  38.414  12.818   8.250
 3952POPC   C3A11513  38.424  12.870   7.950
 3952POPC   C4A11514  38.435  12.818   7.650
 3952POPC   C1B11515  38.578  12.631   8.550
 3952POPC   C2B11516  38.605  12.602   8.250
 3952POPC   C3B11517  38.588  12.624   7.950
 3952POPC   C4B11518  38.576  12.631   7.650
 3953POPC   NC311519  33.843  27.607   9.450
 3953POPC   PO411520  33.759  27.578   9.150
 3953POPC   GL111521  33.767  27.549   8.850
 3953POPC   GL211522  33.817  27.502   8.850
 3953POPC   C1A11523  33.760  27.630   8.550
 3953POPC   D2A11524  33.774  27.640   8.250
 3953POPC   C3A11525  33.759  27.569   7.950
 3953POPC   C4A11526  33.803  27.637   7.650
 3953POPC   C1B11527  33.845  27.312   8.550
 3953POPC   C2B11528  33.821  27.358   8.250
 3953POPC   C3B11529  33.851  27.373   7.950
 3953POPC   C4B11530  33.824  27.353   7.650
 3954POPC   NC311531  18.314  43.859   9.450
 3954POPC   PO411532  18.323  43.911   9.150
 3954POPC   GL111533  18.261  43.877   8.850
 3954POPC   GL211534  18.400  43.837   8.850
 3954POPC   C1A11535  18.296  43.902   8.550
 3954POPC   D2A11536  18.267  43.911   8.250
 3954POPC   C3A11537  18.262  43.930   7.950
 3954POPC   C4A11538  18.330  43.901   7.650
 3954POPC   C1B11539  18.505  43.705   8.550
 3954POPC   C2B11540  18.473  43.661   8.250
 3954POPC   C3B11541  18.428  43.680   7.950
 3954POPC   C4B11542  18.413  43.735   7.650
 3955POPC   NC311543  33.840  29.952   9.450
 3955POPC   PO411544  33.789  29.945   9.150
 3955POPC   GL111545  33.761  29.970   8.850
 3955POPC   GL211546  33.926  29.873   8.850
 3955POPC   C1A11547  33.805  29.953   8.550
 3955POPC   D2A11548  33.813  29.924   8.250
 3955POPC   C3A11549  33.801  29.876   7.950
 3955POPC   C4A11550  33.824  29.937   7.650
 3955POPC   C1B11551  33.983  29.817   8.550
 3955POPC   C2B11552  33.972  29.814   8.250
 3955POPC   C3B11553  33.993  29.769   7.950
 3955POPC   C4B11554  34.047  29.764   7.650
 3956POPC   NC311555  19.070  22.978   9.450
 3956POPC   PO411556  19.092  22.892   9.150
 3956POPC   GL111557  19.085  22.894   8.850
 3956POPC   GL211558  19.074  23.089   8.850
 3956POPC   C1A11559  19.049  22.898   8.550
 3956POPC   D2A11560  19.082  22.905   8.250
 3956POPC   C3A11561  19.044  22.932   7.950
 3956POPC   C4A11562  19.104  22.970   7.650
 3956POPC   C1B11563  19.060  23.232   8.550
 3956POPC   C2B11564  19.116  23.137   8.250
 3956POPC   C3B11565  19.115  23.150   7.950
 3956POPC   C4B11566  19.070  23.226   7.650
 3957POPC   NC311567   0.425   5.868   9.450
 3957POPC   PO411568   0.448   5.834   9.150
 3957POPC   GL111569   0.475   5.892   8.850
 3957POPC   GL211570   0.465   5.785   8.850
 3957POPC   C1A11571   0.480   5.904   8.550
 3957POPC   D2A11572   0.456   5.909   8.250
 3957POPC   C3A11573   0.430   5.902   7.950
 3957POPC   C4A11574   0.392   5.894   7.650
 3957POPC   C1B11575   0.449   5.665   8.550
 3957POPC   C2B11576   0.426   5.638   8.250
 3957POPC   C3B11577   0.443   5.601   7.950
 3957POPC   C4B11578   0.447   5.607   7.650
 3958POPC   NC311579  28.408   8.960   9.450
 3958POPC   PO411580  28.384   8.948   9.150
 3958POPC   GL111581  28.349   8.995   8.850
 3958POPC   GL211582  28.500   8.957   8.850
 3958POPC   C1A11583  28.347   8.929   8.550
 3958POPC   D2A11584  28.342   8.953   8.250
 3958POPC   C3A11585  28.368   8.959   7.950
 3958POPC   C4A11586  28.409   8.939   7.650
 3958POPC   C1B11587  28.602   8.923   8.550
 3958POPC   C2B11588  28.622   8.975   8.250
 3958POPC   C3B11589  28.635   8.961   7.950
 3958POPC   C4B11590  28.640   8.922   7.650
 3959POPC   NC311591  30.717   5.835   9.450
 3959POPC   PO411592  30.656   5.865   9.150
 3959POPC   GL111593  30.709   5.842   8.850
 3959POPC   GL211594  30.835   5.935   8.850
 3959POPC   C1A11595  30.703   5.891   8.550
 3959POPC   D2A11596  30.668   5.874   8.250
 3959POPC   C3A11597  30.710   5.829   7.950
 3959POPC   C4A11598  30.709   5.828   7.650
 3959POPC   C1B11599  30.972   5.943   8.550
 3959POPC   C2B11600  30.946   5.923   8.250
 3959POPC   C3B11601  30.903   5.911   7.950
 3959POPC   C4B11602  30.921   5.893   7.650
 3960POPC   NC311603   9.724  40.819   9.450
 3960POPC   PO411604   9.702  40.745   9.150
 3960POPC   GL111605   9.770  40.738   8.850
 3960POPC   GL211606   9.663  40.923   8.850
 3960POPC   C1A11607   9.789  40.750   8.550
 3960POPC   D2A11608   9.764  40.748   8.250
 3960POPC   C3A11609   9.780  40.802   7.950
 3960POPC   C4A11610   9.760  40.772   7.650
 3960POPC   C1B11611   9.566  40.990   8.550
 3960POPC   C2B11612   9.565  40.966   8.250
 3960POPC   C3B11613   9.656  40.954   7.950
 3960POPC   C4B11614   9.583  40.995   7.650
 3961POPC   NC311615  10.518  21.386   9.450
 3961POPC   PO411616  10.536  21.370   9.150
 3961POPC   GL111617  10.521  21.425   8.850
 3961POPC   GL211618  10.635  21.448   8.850
 3961POPC   C1A11619  10.500  21.403   8.550
 3961POPC   D2A11620  10.538  21.405   8.250
 3961POPC   C3A11621  10.510  21.396   7.950
 3961POPC   C4A11622  10.534  21.383   7.650
 3961POPC   C1B11623  10.786  21.434   8.550
 3961POPC   C2B11624  10.762  21.461   8.250
 3961POPC   C3B11625  10.723  21.435   7.950
 3961POPC   C4B11626  10.758  21.488   7.650
 3962POPC   NC311627  44.696  44.652   9.450
 3962POPC   PO411628  44.694  44.624   9.150
 3962POPC   GL111629  44.649  44.629   8.850
 3962POPC   GL211630  44.674  44.762   8.850
 3962POPC   C1A11631  44.647  44.679   8.550
 3962POPC   D2A11632  44.710  44.643   8.250
 3962POPC   C3A11633  44.622  44.640   7.950
 3962POPC   C4A11634  44.619  44.660   7.650
 3962POPC   C1B11635  44.650  44.863   8.550
 3962POPC   C2B11636  44.655  44.869   8.250
 3962POPC   C3B11637  44.644  44.911   7.950
 3962POPC   C4B11638  44.611  44.910   7.650
 3963POPC   NC311639  29.921  28.344   9.450
 3963POPC   PO411640  29.939  28.348   9.150
 3963POPC   GL111641  29.921  28.334   8.850
 3963POPC   GL211642  29.773  28.391   8.850
 3963POPC   C1A11643  29.919  28.405   8.550
 3963POPC   D2A11644  29.961  28.355   8.250
 3963POPC   C3A11645  29.896  28.409   7.950
 3963POPC   C4A11646  29.953  28.354   7.650
 3963POPC   C1B11647  29.711  28.417   8.550
 3963POPC   C2B11648  29.633  28.445   8.250
 3963POPC   C3B11649  29.672  28.423   7.950
 3963POPC   C4B11650  29.701  28.467   7.650
 3964POPC   NC311651   1.244  11.312   9.450
 3964POPC   PO411652   1.255  11.258   9.150
 3964POPC   GL111653   1.199  11.296   8.850
 3964POPC   GL211654   1.218  11.218   8.850
 3964POPC   C1A11655   1.237  11.338   8.550
 3964POPC   D2A11656   1.241  11.263   8.250
 3964POPC   C3A11657   1.187  11.270   7.950
 3964POPC   C4A11658   1.183  11.337   7.650
 3964POPC   C1B11659   1.139  11.041   8.550
 3964POPC   C2B11660   1.177  11.060   8.250
 3964POPC   C3B11661   1.106  11.081   7.950
 3964POPC   C4B11662   1.146  11.035   7.650
 3965POPC   NC311663  22.924   3.505   9.450
 3965POPC   PO411664  22.975   3.550   9.150
 3965POPC   GL111665  22.940   3.525   8.850
 3965POPC   GL211666  23.010   3.490   8.850
 3965POPC   C1A11667  22.927   3.523   8.550
 3965POPC   D2A11668  22.922   3.517   8.250
 3965POPC   C3A11669  22.958   3.564   7.950
 3965POPC   C4A11670  22.946   3.558   7.650
 3965POPC   C1B11671  23.049   3.303   8.550
 3965POPC   C2B11672  23.058   3.360   8.250
 3965POPC   C3B11673  23.059   3.301   7.950
 3965POPC   C4B11674  23.121   3.392   7.650
 3966POPC   NC311675  11.296   3.493   9.450
 3966POPC   PO411676  11.299   3.510   9.150
 3966POPC   GL111677  11.289   3.546   8.850
 3966POPC   GL211678  11.455   3.620   8.850
 3966POPC   C1A11679  11.336   3.546   8.550
 3966POPC   D2A11680  11.251   3.563   8.250
 3966POPC   C3A11681  11.310   3.516   7.950
 3966POPC   C4A11682  11.331   3.506   7.650
 3966POPC   C1B11683  11.531   3.678   8.550
 3966POPC   C2B11684  11.533   3.649   8.250
 3966POPC   C3B11685  11.491   3.649   7.950
 3966POPC   C4B11686  11.516   3.668   7.650
 3967POPC   NC311687   5.103  22.112   9.450
 3967POPC   PO411688   5.085  22.188   9.150
 3967POPC   GL111689   5.091  22.193   8.850
 3967POPC   GL211690   5.110  22.093   8.850
 3967POPC   C1A11691   5.049  22.200   8.550
 3967POPC   D2A11692   5.085  22.165   8.250
 3967POPC   C3A11693   5.081  22.167   7.950
 3967POPC   C4A11694   5.091  22.187   7.650
 3967POPC   C1B11695   5.264  21.965   8.550
 3967POPC   C2B11696   5.236  21.934   8.250
 3967POPC   C3B11697   5.214  21.953   7.950
 3967POPC   C4B11698   5.265  21.949   7.650
 3968POPC   NC311699  44.688   5.102   9.450
 3968POPC   PO411700  44.695   5.111   9.150
 3968POPC   GL111701  44.646   5.056   8.850
 3968POPC   GL211702  44.726   5.023   8.850
 3968POPC   C1A11703  44.631   5.103   8.550
 3968POPC   D2A11704  44.673   5.132   8.250
 3968POPC   C3A11705  44.686   5.081   7.950
 3968POPC   C4A11706  44.654   5.116   7.650
 3968POPC   C1B11707  44.862   4.938   8.550
 3968POPC   C2B11708  44.867   4.861   8.250
 3968POPC   C3B11709  44.797   4.901   7.950
 3968POPC   C4B11710  44.814   4.933   7.650
 3969POPC   NC311711  22.171  40.809   9.450
 3969POPC   PO411712  22.188  40.744   9.150
 3969POPC   GL111713  22.116  40.743   8.850
 3969POPC   GL211714  22.035  40.826   8.850
 3969POPC   C1A11715  22.137  40.772   8.550
 3969POPC   D2A11716  22.120  40.801   8.250
 3969POPC   C3A11717  22.143  40.804   7.950
 3969POPC   C4A11718  22.212  40.744   7.650
 3969POPC   C1B11719  21.922  40.811   8.550
 3969POPC   C2B11720  21.892  40.764   8.250
 3969POPC   C3B11721  21.887  40.811   7.950
 3969POPC   C4B11722  21.922  40.830   7.650
 3970POPC   NC311723  34.554   1.220   9.450
 3970POPC   PO411724  34.617   1.185   9.150
 3970POPC   GL111725  34.586   1.193   8.850
 3970POPC   GL211726  34.704   1.236   8.850
 3970POPC   C1A11727  34.600   1.231   8.550
 3970POPC   D2A11728  34.562   1.252   8.250
 3970POPC   C3A11729  34.608   1.187   7.950
 3970POPC   C4A11730  34.534   1.205   7.650
 3970POPC   C1B11731  34.861   1.278   8.550
 3970POPC   C2B11732  34.827   1.321   8.250
 3970POPC   C3B11733  34.786   1.314   7.950
 3970POPC   C4B11734  34.846   1.241   7.650
 3971POPC   NC311735  35.341   7.415   9.450
 3971POPC   PO411736  35.385   7.399   9.150
 3971POPC   GL111737  35.341   7.395   8.850
 3971POPC   GL211738  35.388   7.502   8.850
 3971POPC   C1A11739  35.351   7.467   8.550
 3971POPC   D2A11740  35.401   7.386   8.250
 3971POPC   C3A11741  35.310   7.423   7.950
 3971POPC   C4A11742  35.331   7.386   7.650
 3971POPC   C1B11743  35.448   7.675   8.550
 3971POPC   C2B11744  35.438   7.625   8.250
 3971POPC   C3B11745  35.405   7.599   7.950
 3971POPC   C4B11746  35.488   7.686   7.650
 3972POPC   NC311747  23.748  39.269   9.450
 3972POPC   PO411748  23.692  39.223   9.150
 3972POPC   GL111749  23.731  39.196   8.850
 3972POPC   GL211750  23.798  39.161   8.850
 3972POPC   C1A11751  23.756  39.239   8.550
 3972POPC   D2A11752  23.708  39.229   8.250
 3972POPC   C3A11753  23.679  39.213   7.950
 3972POPC   C4A11754  23.680  39.208   7.650
 3972POPC   C1B11755  23.959  39.137   8.550
 3972POPC   C2B11756  23.921  39.133   8.250
 3972POPC   C3B11757  23.914  39.054   7.950
 3972POPC   C4B11758  23.932  39.109   7.650
 3973POPC   NC311759  10.477  15.197   9.450
 3973POPC   PO411760  10.479  15.199   9.150
 3973POPC   GL111761  10.486  15.198   8.850
 3973POPC   GL211762  10.394  15.276   8.850
 3973POPC   C1A11763  10.493  15.177   8.550
 3973POPC   D2A11764  10.531  15.215   8.250
 3973POPC   C3A11765  10.494  15.201   7.950
 3973POPC   C4A11766  10.549  15.194   7.650
 3973POPC   C1B11767  10.330  15.322   8.550
 3973POPC   C2B11768  10.359  15.360   8.250
 3973POPC   C3B11769  10.368  15.370   7.950
 3973POPC   C4B11770  10.285  15.312   7.650
 3974POPC   NC311771  22.189  43.130   9.450
 3974POPC   PO411772  22.132  43.100   9.150
 3974POPC   GL111773  22.199  43.105   8.850
 3974POPC   GL211774  22.107  43.032   8.850
 3974POPC   C1A11775  22.179  43.123   8.550
 3974POPC   D2A11776  22.165  43.150   8.250
 3974POPC   C3A11777  22.127  43.102   7.950
 3974POPC   C4A11778  22.146  43.113   7.650
 3974POPC   C1B11779  21.966  42.992   8.550
 3974POPC   C2B11780  22.010  42.929   8.250
 3974POPC   C3B11781  22.017  42.981   7.950
 3974POPC   C4B11782  21.971  42.939   7.650
 3975POPC   NC311783  20.578  13.616   9.450
 3975POPC   PO411784  20.607  13.638   9.150
 3975POPC   GL111785  20.634  13.666   8.850
 3975POPC   GL211786  20.550  13.747   8.850
 3975POPC   C1A11787  20.584  13.585   8.550
 3975POPC   D2A11788  20.580  13.636   8.250
 3975POPC   C3A11789  20.617  13.617   7.950
 3975POPC   C4A11790  20.595  13.649   7.650
 3975POPC   C1B11791  20.448  13.813   8.550
 3975POPC   C2B11792  20.457  13.842   8.250
 3975POPC   C3B11793  20.490  13.825   7.950
 3975POPC   C4B11794  20.490  13.811   7.650
 3976POPC   NC311795   4.365  27.597   9.450
 3976POPC   PO411796   4.348  27.602   9.150
 3976POPC   GL111797   4.270  27.582   8.850
 3976POPC   GL211798   4.323  27.423   8.850
 3976POPC   C1A11799   4.296  27.590   8.550
 3976POPC   D2A11800   4.360  27.590   8.250
 3976POPC   C3A11801   4.271  27.559   7.950
 3976POPC   C4A11802   4.336  27.627   7.650
 3976POPC   C1B11803   4.350  27.331   8.550
 3976POPC   C2B11804   4.312  27.314   8.250
 3976POPC   C3B11805   4.316  27.330   7.950
 3976POPC   C4B11806   4.286  27.383   7.650
 3977POPC   NC311807  21.361  31.449   9.450
 3977POPC   PO411808  21.409  31.504   9.150
 3977POPC   GL111809  21.372  31.515   8.850
 3977POPC   GL211810  21.464  31.399   8.850
 3977POPC   C1A11811  21.393  31.498   8.550
 3977POPC   D2A11812  21.366  31.464   8.250
 3977POPC   C3A11813  21.371  31.464   7.950
 3977POPC   C4A11814  21.337  31.490   7.650
 3977POPC   C1B11815  21.460  31.254   8.550
 3977POPC   C2B11816  21.490  31.293   8.250
 3977POPC   C3B11817  21.520  31.219   7.950
 3977POPC   C4B11818  21.466  31.207   7.650
 3978POPC   NC311819  29.125  39.230   9.450
 3978POPC   PO411820  29.145  39.212   9.150
 3978POPC   GL111821  29.119  39.249   8.850
 3978POPC   GL211822  29.258  39.243   8.850
 3978POPC   C1A11823  29.126  39.221   8.550
 3978POPC   D2A11824  29.174  39.188   8.250
 3978POPC   C3A11825  29.157  39.208   7.950
 3978POPC   C4A11826  29.132  39.230   7.650
 3978POPC   C1B11827  29.362  39.244   8.550
 3978POPC   C2B11828  29.343  39.274   8.250
 3978POPC   C3B11829  29.359  39.302   7.950
 3978POPC   C4B11830  29.432  39.310   7.650
 3979POPC   NC311831  22.135  33.811   9.450
 3979POPC   PO411832  22.180  33.823   9.150
 3979POPC   GL111833  22.188  33.759   8.850
 3979POPC   GL211834  22.314  33.879   8.850
 3979POPC   C1A11835  22.208  33.778   8.550
 3979POPC   D2A11836  22.186  33.790   8.250
 3979POPC   C3A11837  22.152  33.784   7.950
 3979POPC   C4A11838  22.179  33.829   7.650
 3979POPC   C1B11839  22.440  33.851   8.550
 3979POPC   C2B11840  22.366  33.829   8.250
 3979POPC   C3B11841  22.390  33.878   7.950
 3979POPC   C4B11842  22.421  33.903   7.650
 3980POPC   NC311843  43.921   8.996   9.450
 3980POPC   PO411844  43.918   9.016   9.150
 3980POPC   GL111845  43.909   8.957   8.850
 3980POPC   GL211846  43.874   8.848   8.850
 3980POPC   C1A11847  43.896   8.967   8.550
 3980POPC   D2A11848  43.935   9.008   8.250
 3980POPC   C3A11849  43.919   8.979   7.950
 3980POPC   C4A11850  43.871   8.993   7.650
 3980POPC   C1B11851  43.793   8.702   8.550
 3980POPC   C2B11852  43.726   8.782   8.250
 3980POPC   C3B11853  43.777   8.797   7.950
 3980POPC   C4B11854  43.732   8.709   7.650
 3981POPC   NC311855  28.392   3.564   9.450
 3981POPC   PO411856  28.327   3.589   9.150
 3981POPC   GL111857  28.343   3.503   8.850
 3981POPC   GL211858  28.304   3.605   8.850
 3981POPC   C1A11859  28.381   3.510   8.550
 3981POPC   D2A11860  28.382   3.571   8.250
 3981POPC   C3A11861  28.362   3.565   7.950
 3981POPC   C4A11862  28.416   3.492   7.650
 3981POPC   C1B11863  28.157   3.763   8.550
 3981POPC   C2B11864  28.227   3.763   8.250
 3981POPC   C3B11865  28.242   3.677   7.950
 3981POPC   C4B11866  28.174   3.735   7.650
 3982POPC   NC311867  35.372  43.131   9.450
 3982POPC   PO411868  35.330  43.152   9.150
 3982POPC   GL111869  35.360  43.123   8.850
 3982POPC   GL211870  35.517  43.114   8.850
 3982POPC   C1A11871  35.332  43.077   8.550
 3982POPC   D2A11872  35.383  43.145   8.250
 3982POPC   C3A11873  35.353  43.125   7.950
 3982POPC   C4A11874  35.372  43.083   7.650
 3982POPC   C1B11875  35.637  43.231   8.550
 3982POPC   C2B11876  35.609  43.160   8.250
 3982POPC   C3B11877  35.579  43.209   7.950
 3982POPC   C4B11878  35.575  43.178   7.650
 3983POPC   NC311879  19.821  28.373   9.450
 3983POPC   PO411880  19.806  28.342   9.150
 3983POPC   GL111881  19.851  28.365   8.850
 3983POPC   GL211882  19.725  28.243   8.850
 3983POPC   C1A11883  19.870  28.346   8.550
 3983POPC   D2A11884  19.866  28.386   8.250
 3983POPC   C3A11885  19.881  28.361   7.950
 3983POPC   C4A11886  19.878  28.364   7.650
 3983POPC   C1B11887  19.662  28.159   8.550
 3983POPC   C2B11888  19.600  28.193   8.250
 3983POPC   C3B11889  19.664  28.238   7.950
 3983POPC   C4B11890  19.649  28.172   7.650
 3984POPC   NC311891   1.189  20.611   9.450
 3984POPC   PO411892   1.176  20.642   9.150
 3984POPC   GL111893   1.199  20.569   8.850
 3984POPC   GL211894   1.132  20.616   8.850
 3984POPC   C1A11895   1.233  20.585   8.550
 3984POPC   D2A11896   1.233  20.651   8.250
 3984POPC   C3A11897   1.222  20.594   7.950
 3984POPC   C4A11898   1.223  20.592   7.650
 3984POPC   C1B11899   0.995  20.604   8.550
 3984POPC   C2B11900   0.958  20.671   8.250
 3984POPC   C3B11901   1.012  20.618   7.950
 3984POPC   C4B11902   0.985  20.661   7.650
 3985POPC   NC311903  26.058  40.770   9.450
 3985POPC   PO411904  26.003  40.830   9.150
 3985POPC   GL111905  26.063  40.758   8.850
 3985POPC   GL211906  26.031  40.703   8.850
 3985POPC   C1A11907  26.057  40.757   8.550
 3985POPC   D2A11908  25.999  40.822   8.250
 3985POPC   C3A11909  26.035  40.743   7.950
 3985POPC   C4A11910  26.029  40.746   7.650
 3985POPC   C1B11911  26.021  40.518   8.550
 3985POPC   C2B11912  26.072  40.582   8.250
 3985POPC   C3B11913  26.063  40.584   7.950
 3985POPC   C4B11914  26.016  40.500   7.650
 3986POPC   NC311915  40.738  22.980   9.450
 3986POPC   PO411916  40.744  22.954   9.150
 3986POPC   GL111917  40.831  22.973   8.850
 3986POPC   GL211918  40.676  22.959   8.850
 3986POPC   C1A11919  40.829  22.909   8.550
 3986POPC   D2A11920  40.771  22.943   8.250
 3986POPC   C3A11921  40.797  22.912   7.950
 3986POPC   C4A11922  40.746  22.898   7.650
 3986POPC   C1B11923  40.531  22.955   8.550
 3986POPC   C2B11924  40.492  22.945   8.250
 3986POPC   C3B11925  40.487  23.017   7.950
 3986POPC   C4B11926  40.520  22.975   7.650
 3987POPC   NC311927  15.983  24.520   9.450
 3987POPC   PO411928  15.952  24.510   9.150
 3987POPC   GL111929  15.977  24.512   8.850
 3987POPC   GL211930  16.055  24.402   8.850
 3987POPC   C1A11931  15.938  24.444   8.550
 3987POPC   D2A11932  15.986  24.527   8.250
 3987POPC   C3A11933  15.960  24.511   7.950
 3987POPC   C4A11934  15.910  24.456   7.650
 3987POPC   C1B11935  16.196  24.451   8.550
 3987POPC   C2B11936  16.195  24.419   8.250
 3987POPC   C3B11937  16.179  24.417   7.950
 3987POPC   C4B11938  16.187  24.446   7.650
 3988POPC   NC311939  36.911  18.325   9.450
 3988POPC   PO411940  36.902  18.318   9.150
 3988POPC   GL111941  36.860  18.281   8.850
 3988POPC   GL211942  36.988  18.406   8.850
 3988POPC   C1A11943  36.868  18.313   8.550
 3988POPC   D2A11944  36.862  18.259   8.250
 3988POPC   C3A11945  36.944  18.311   7.950
 3988POPC   C4A11946  36.937  18.251   7.650
 3988POPC   C1B11947  37.040  18.481   8.550
 3988POPC   C2B11948  37.034  18.507   8.250
 3988POPC   C3B11949  37.062  18.447   7.950
 3988POPC   C4B11950  37.099  18.498   7.650
 3989POPC   NC311951  41.571   4.317   9.450
 3989POPC   PO411952  41.578   4.305   9.150
 3989POPC   GL111953  41.544   4.354   8.850
 3989POPC   GL211954  41.635   4.260   8.850
 3989POPC   C1A11955  41.558   4.282   8.550
 3989POPC   D2A11956  41.552   4.325   8.250
 3989POPC   C3A11957  41.520   4.328   7.950
 3989POPC   C4A11958  41.565   4.332   7.650
 3989POPC   C1B11959  41.735   4.139   8.550
 3989POPC   C2B11960  41.750   4.128   8.250
 3989POPC   C3B11961  41.721   4.112   7.950
 3989POPC   C4B11962  41.756   4.133   7.650
 3990POPC   NC311963  26.820  36.120   9.450
 3990POPC   PO411964  26.775  36.171   9.150
 3990POPC   GL111965  26.828  36.156   8.850
 3990POPC   GL211966  26.742  36.225   8.850
 3990POPC   C1A11967  26.849  36.127   8.550
 3990POPC   D2A11968  26.867  36.102   8.250
 3990POPC   C3A11969  26.816  36.172   7.950
 3990POPC   C4A11970  26.786  36.087   7.650
 3990POPC   C1B11971  26.683  36.311   8.550
 3990POPC   C2B11972  26.648  36.320   8.250
 3990POPC   C3B11973  26.618  36.277   7.950
 3990POPC   C4B11974  26.584  36.247   7.650
 3991POPC   NC311975   1.980  22.973   9.450
 3991POPC   PO411976   2.000  22.927   9.150
 3991POPC   GL111977   1.999  22.922   8.850
 3991POPC   GL211978   1.864  22.919   8.850
 3991POPC   C1A11979   2.001  22.966   8.550
 3991POPC   D2A11980   1.970  22.918   8.250
 3991POPC   C3A11981   2.038  22.918   7.950
 3991POPC   C4A11982   2.009  22.961   7.650
 3991POPC   C1B11983   1.707  23.004   8.550
 3991POPC   C2B11984   1.711  23.014   8.250
 3991POPC   C3B11985   1.708  22.942   7.950
 3991POPC   C4B11986   1.749  22.976   7.650
 3992POPC   NC311987  39.986   1.191   9.450
 3992POPC   PO411988  39.987   1.202   9.150
 3992POPC   GL111989  40.045   1.188   8.850
 3992POPC   GL211990  39.857   1.141   8.850
 3992POPC   C1A11991  39.997   1.223   8.550
 3992POPC   D2A11992  39.986   1.171   8.250
 3992POPC   C3A11993  40.030   1.244   7.950
 3992POPC   C4A11994  39.962   1.175   7.650
 3992POPC   C1B11995  39.745   1.111   8.550
 3992POPC   C2B11996  39.807   1.090   8.250
 3992POPC   C3B11997  39.763   1.118   7.950
 3992POPC   C4B11998  39.763   1.050   7.650
 3993POPC   NC311999  26.057  39.183   9.450
 3993POPC   PO412000  26.078  39.214   9.150
 3993POPC   GL112001  26.012  39.270   8.850
 3993POPC   GL212002  26.143  39.278   8.850
 3993POPC   C1A12003  26.003  39.230   8.550
 3993POPC   D2A12004  26.060  39.214   8.250
 3993POPC   C3A12005  26.045  39.226   7.950
 3993POPC   C4A12006  26.038  39.280   7.650
 3993POPC   C1B12007  26.309  39.267   8.550
 3993POPC   C2B12008  26.246  39.287   8.250
 3993POPC   C3B12009  26.305  39.301   7.950
 3993POPC   C4B12010  26.253  39.284   7.650
 3994POPC   NC312011   1.192  33.822   9.450
 3994POPC   PO412012   1.263  33.848   9.150
 3994POPC   GL112013   1.225  33.809   8.850
 3994POPC   GL212014   1.121  33.721   8.850
 3994POPC   C1A12015   1.202  33.831   8.550
 3994POPC   D2A12016   1.220  33.828   8.250
 3994POPC   C3A12017   1.199  33.827   7.950
 3994POPC   C4A12018   1.202  33.797   7.650
 3994POPC   C1B12019   1.006  33.660   8.550
 3994POPC   C2B12020   1.000  33.714   8.250
 3994POPC   C3B12021   0.993  33.694   7.950
 3994POPC   C4B12022   1.019  33.643   7.650
 3995POPC   NC312023   6.639   2.791   9.450
 3995POPC   PO412024   6.692   2.717   9.150
 3995POPC   GL112025   6.674   2.764   8.850
 3995POPC   GL212026   6.610   2.895   8.850
 3995POPC   C1A12027   6.643   2.798   8.550
 3995POPC   D2A12028   6.660   2.794   8.250
 3995POPC   C3A12029   6.690   2.785   7.950
 3995POPC   C4A12030   6.623   2.811   7.650
 3995POPC   C1B12031   6.552   3.003   8.550
 3995POPC   C2B12032   6.582   3.015   8.250
 3995POPC   C3B12033   6.498   2.990   7.950
 3995POPC   C4B12034   6.560   2.973   7.650
 3996POPC   NC312035  12.900  29.189   9.450
 3996POPC   PO412036  12.851  29.174   9.150
 3996POPC   GL112037  12.894  29.149   8.850
 3996POPC   GL212038  12.930  29.075   8.850
 3996POPC   C1A12039  12.844  29.119   8.550
 3996POPC   D2A12040  12.854  29.102   8.250
 3996POPC   C3A12041  12.884  29.149   7.950
 3996POPC   C4A12042  12.882  29.098   7.650
 3996POPC   C1B12043  12.993  28.934   8.550
 3996POPC   C2B12044  12.966  28.888   8.250
 3996POPC   C3B12045  12.907  28.923   7.950
 3996POPC   C4B12046  12.944  28.890   7.650
 3997POPC   NC312047  24.444  32.255   9.450
 3997POPC   PO412048  24.450  32.228   9.150
 3997POPC   GL112049  24.491  32.246   8.850
 3997POPC   GL212050  24.384  32.231   8.850
 3997POPC   C1A12051  24.511  32.211   8.550
 3997POPC   D2A12052  24.468  32.200   8.250
 3997POPC   C3A12053  24.470  32.252   7.950
 3997POPC   C4A12054  24.495  32.222   7.650
 3997POPC   C1B12055  24.292  32.112   8.550
 3997POPC   C2B12056  24.249  32.172   8.250
 3997POPC   C3B12057  24.283  32.161   7.950
 3997POPC   C4B12058  24.219  32.109   7.650
 3998POPC   NC312059  26.838  10.495   9.450
 3998POPC   PO412060  26.806  10.569   9.150
 3998POPC   GL112061  26.769  10.523   8.850
 3998POPC   GL212062  26.951  10.518   8.850
 3998POPC   C1A12063  26.841  10.509   8.550
 3998POPC   D2A12064  26.803  10.548   8.250
 3998POPC   C3A12065  26.774  10.482   7.950
 3998POPC   C4A12066  26.846  10.510   7.650
 3998POPC   C1B12067  27.025  10.424   8.550
 3998POPC   C2B12068  27.055  10.420   8.250
 3998POPC   C3B12069  27.047  10.448   7.950
 3998POPC   C4B12070  27.090  10.490   7.650
 3999POPC   NC312071  29.119  32.237   9.450
 3999POPC   PO412072  29.145  32.233   9.150
 3999POPC   GL112073  29.148  32.218   8.850
 3999POPC   GL212074  29.225  32.355   8.850
 3999POPC   C1A12075  29.109  32.291   8.550
 3999POPC   D2A12076  29.133  32.240   8.250
 3999POPC   C3A12077  29.102  32.223   7.950
 3999POPC   C4A12078  29.153  32.210   7.650
 3999POPC   C1B12079  29.275  32.481   8.550
 3999POPC   C2B12080  29.271  32.499   8.250
 3999POPC   C3B12081  29.301  32.469   7.950
 3999POPC   C4B12082  29.207  32.446   7.650
 4000POPC   NC312083  11.340   9.750   9.450
 4000POPC   PO412084  11.323   9.717   9.150
 4000POPC   GL112085  11.296   9.701   8.850
 4000POPC   GL212086  11.366   9.687   8.850
 4000POPC   C1A12087  11.298   9.765   8.550
 4000POPC   D2A12088  11.270   9.758   8.250
 4000POPC   C3A12089  11.298   9.747   7.950
 4000POPC   C4A12090  11.291   9.790   7.650
 4000POPC   C1B12091  11.537   9.572   8.550
 4000POPC   C2B12092  11.509   9.665   8.250
 4000POPC   C3B12093  11.492   9.630   7.950
 4000POPC   C4B12094  11.504   9.650   7.650
 4001POPC   NC312095  29.887   2.037   9.450
 4001POPC   PO412096  29.890   2.018   9.150
 4001POPC   GL112097  29.891   1.944   8.850
 4001POPC   GL212098  30.040   1.873   8.850
 4001POPC   C1A12099  29.880   2.034   8.550
 4001POPC   D2A12100  29.877   2.030   8.250
 4001POPC   C3A12101  29.878   2.004   7.950
 4001POPC   C4A12102  29.893   1.980   7.650
 4001POPC   C1B12103  30.090   1.770   8.550
 4001POPC   C2B12104  30.139   1.768   8.250
 4001POPC   C3B12105  30.138   1.812   7.950
 4001POPC   C4B12106  30.139   1.766   7.650
 4002POPC   NC312107  36.162  25.235   9.450
 4002POPC   PO412108  36.096  25.226   9.150
 4002POPC   GL112109  36.122  25.229   8.850
 4002POPC   GL212110  36.066  25.311   8.850
 4002POPC   C1A12111  36.111  25.273   8.550
 4002POPC   D2A12112  36.110  25.294   8.250
 4002POPC   C3A12113  36.121  25.295   7.950
 4002POPC   C4A12114  36.112  25.264   7.650
 4002POPC   C1B12115  35.949  25.398   8.550
 4002POPC   C2B12116  35.923  25.407   8.250
 4002POPC   C3B12117  35.877  25.430   7.950
 4002POPC   C4B12118  35.932  25.390   7.650
 4003POPC   NC312119  42.289  39.998   9.450
 4003POPC   PO412120  42.327  40.020   9.150
 4003POPC   GL112121  42.361  39.962   8.850
 4003POPC   GL212122  42.436  39.967   8.850
 4003POPC   C1A12123  42.368  40.024   8.550
 4003POPC   D2A12124  42.300  40.046   8.250
 4003POPC   C3A12125  42.340  40.034   7.950
 4003POPC   C4A12126  42.340  40.024   7.650
 4003POPC   C1B12127  42.588  40.022   8.550
 4003POPC   C2B12128  42.577  40.057   8.250
 4003POPC   C3B12129  42.583  39.993   7.950
 4003POPC   C4B12130  42.553  40.048   7.650
 4004POPC   NC312131  15.158  27.622   9.450
 4004POPC   PO412132  15.223  27.607   9.150
 4004POPC   GL112133  15.221  27.580   8.850
 4004POPC   GL212134  15.317  27.483   8.850
 4004POPC   C1A12135  15.180  27.548   8.550
 4004POPC   D2A12136  15.154  27.606   8.250
 4004POPC   C3A12137  15.142  27.629   7.950
 4004POPC   C4A12138  15.199  27.641   7.650
 4004POPC   C1B12139  15.412  27.482   8.550
 4004POPC   C2B12140  15.415  27.419   8.250
 4004POPC   C3B12141  15.390  27.402   7.950
 4004POPC   C4B12142  15.358  27.467   7.650
 4005POPC   NC312143   8.168  37.694   9.450
 4005POPC   PO412144   8.181  37.647   9.150
 4005POPC   GL112145   8.211  37.705   8.850
 4005POPC   GL212146   8.292  37.598   8.850
 4005POPC   C1A12147   8.239  37.665   8.550
 4005POPC   D2A12148   8.190  37.710   8.250
 4005POPC   C3A12149   8.235  37.645   7.950
 4005POPC   C4A12150   8.154  37.694   7.650
 4005POPC   C1B12151   8.405  37.527   8.550
 4005POPC   C2B12152   8.439  37.551   8.250
 4005POPC   C3B12153   8.437  37.603   7.950
 4005POPC   C4B12154   8.433  37.619   7.650
 4006POPC   NC312155  30.732  29.122   9.450
 4006POPC   PO412156  30.745  29.179   9.150
 4006POPC   GL112157  30.695  29.127   8.850
 4006POPC   GL212158  30.602  29.113   8.850
 4006POPC   C1A12159  30.662  29.137   8.550
 4006POPC   D2A12160  30.735  29.178   8.250
 4006POPC   C3A12161  30.685  29.104   7.950
 4006POPC   C4A12162  30.735  29.170   7.650
 4006POPC   C1B12163  30.443  29.156   8.550
 4006POPC   C2B12164  30.493  29.111   8.250
 4006POPC   C3B12165  30.423  29.121   7.950
 4006POPC   C4B12166  30.429  29.180   7.650
 4007POPC   NC312167  36.142  26.778   9.450
 4007POPC   PO412168  36.136  26.858   9.150
 4007POPC   GL112169  36.174  26.793   8.850
 4007POPC   GL212170  36.192  26.711   8.850
 4007POPC   C1A12171  36.096  26.810   8.550
 4007POPC   D2A12172  36.101  26.830   8.250
 4007POPC   C3A12173  36.172  26.862   7.950
 4007POPC   C4A12174  36.150  26.788   7.650
 4007POPC   C1B12175  36.228  26.645   8.550
 4007POPC   C2B12176  36.223  26.600   8.250
 4007POPC   C3B12177  36.284  26.606   7.950
 4007POPC   C4B12178  36.292  26.582   7.650
 4008POPC   NC312179  12.899  34.589   9.450
 4008POPC   PO412180  12.809  34.581   9.150
 4008POPC   GL112181  12.894  34.610   8.850
 4008POPC   GL212182  12.786  34.481   8.850
 4008POPC   C1A12183  12.829  34.606   8.550
 4008POPC   D2A12184  12.857  34.568   8.250
 4008POPC   C3A12185  12.855  34.533   7.950
 4008POPC   C4A12186  12.813  34.554   7.650
 4008POPC   C1B12187  12.780  34.329   8.550
 4008POPC   C2B12188  12.779  34.369   8.250
 4008POPC   C3B12189  12.792  34.293   7.950
 4008POPC   C4B12190  12.772  34.308   7.650
 4009POPC   NC312191  26.045   1.985   9.450
 4009POPC   PO412192  26.051   1.988   9.150
 4009POPC   GL112193  26.052   1.981   8.850
 4009POPC   GL212194  26.205   1.974   8.850
 4009POPC   C1A12195  26.052   2.012   8.550
 4009POPC   D2A12196  26.017   1.993   8.250
 4009POPC   C3A12197  26.025   2.034   7.950
 4009POPC   C4A12198  26.088   2.000   7.650
 4009POPC   C1B12199  26.287   1.878   8.550
 4009POPC   C2B12200  26.224   1.887   8.250
 4009POPC   C3B12201  26.287   1.881   7.950
 4009POPC   C4B12202  26.291   1.892   7.650
 4010POPC   NC312203  11.310  16.724   9.450
 4010POPC   PO412204  11.312  16.681   9.150
 4010POPC   GL112205  11.287  16.716   8.850
 4010POPC   GL212206  11.233  16.653   8.850
 4010POPC   C1A12207  11.260  16.750   8.550
 4010POPC   D2A12208  11.329  16.752   8.250
 4010POPC   C3A12209  11.331  16.725   7.950
 4010POPC   C4A12210  11.262  16.754   7.650
 4010POPC   C1B12211  11.170  16.551   8.550
 4010POPC   C2B12212  11.091  16.503   8.250
 4010POPC   C3B12213  11.174  16.506   7.950
 4010POPC   C4B12214  11.110  16.567   7.650
 4011POPC   NC312215  27.620  27.543   9.450
 4011POPC   PO412216  27.591  27.592   9.150
 4011POPC   GL112217  27.596  27.558   8.850
 4011POPC   GL212218  27.623  27.748   8.850
 4011POPC   C1A12219  27.599  27.589   8.550
 4011POPC   D2A12220  27.571  27.563   8.250
 4011POPC   C3A12221  27.629  27.577   7.950
 4011POPC   C4A12222  27.563  27.589   7.650
 4011POPC   C1B12223  27.663  27.792   8.550
 4011POPC   C2B12224  27.618  27.793   8.250
 4011POPC   C3B12225  27.698  27.790   7.950
 4011POPC   C4B12226  27.645  27.830   7.650
 4012POPC   NC312227   4.275  10.495   9.450
 4012POPC   PO412228   4.275  10.563   9.150
 4012POPC   GL112229   4.325  10.521   8.850
 4012POPC   GL212230   4.414  10.555   8.850
 4012POPC   C1A12231   4.358  10.531   8.550
 4012POPC   D2A12232   4.290  10.520   8.250
 4012POPC   C3A12233   4.303  10.558   7.950
 4012POPC   C4A12234   4.302  10.534   7.650
 4012POPC   C1B12235   4.515  10.624   8.550
 4012POPC   C2B12236   4.532  10.591   8.250
 4012POPC   C3B12237   4.562  10.643   7.950
 4012POPC   C4B12238   4.530  10.612   7.650
 4013POPC   NC312239  19.835  26.790   9.450
 4013POPC   PO412240  19.839  26.854   9.150
 4013POPC   GL112241  19.850  26.773   8.850
 4013POPC   GL212242  19.743  26.921   8.850
 4013POPC   C1A12243  19.843  26.829   8.550
 4013POPC   D2A12244  19.847  26.796   8.250
 4013POPC   C3A12245  19.876  26.832   7.950
 4013POPC   C4A12246  19.785  26.805   7.650
 4013POPC   C1B12247  19.676  26.971   8.550
 4013POPC   C2B12248  19.602  27.016   8.250
 4013POPC   C3B12249  19.656  26.969   7.950
 4013POPC   C4B12250  19.671  27.030   7.650
 4014POPC   NC312251  16.694   5.064   9.450
 4014POPC   PO412252  16.746   5.128   9.150
 4014POPC   GL112253  16.723   5.128   8.850
 4014POPC   GL212254  16.754   4.997   8.850
 4014POPC   C1A12255  16.745   5.090   8.550
 4014POPC   D2A12256  16.715   5.119   8.250
 4014POPC   C3A12257  16.765   5.139   7.950
 4014POPC   C4A12258  16.724   5.077   7.650
 4014POPC   C1B12259  16.867   4.893   8.550
 4014POPC   C2B12260  16.857   4.818   8.250
 4014POPC   C3B12261  16.866   4.907   7.950
 4014POPC   C4B12262  16.813   4.813   7.650
 4015POPC   NC312263  36.173  24.458   9.450
 4015POPC   PO412264  36.140  24.539   9.150
 4015POPC   GL112265  36.110  24.473   8.850
 4015POPC   GL212266  36.046  24.347   8.850
 4015POPC   C1A12267  36.121  24.537   8.550
 4015POPC   D2A12268  36.113  24.485   8.250
 4015POPC   C3A12269  36.139  24.512   7.950
 4015POPC   C4A12270  36.096  24.471   7.650
 4015POPC   C1B12271  36.021  24.262   8.550
 4015POPC   C2B12272  36.056  24.299   8.250
 4015POPC   C3B12273  36.060  24.288   7.950
 4015POPC   C4B12274  36.026  24.304   7.650
 4016POPC   NC312275   1.191  16.002   9.450
 4016POPC   PO412276   1.263  15.922   9.150
 4016POPC   GL112277   1.245  15.937   8.850
 4016POPC   GL212278   1.289  15.901   8.850
 4016POPC   C1A12279   1.263  15.966   8.550
 4016POPC   D2A12280   1.235  15.921   8.250
 4016POPC   C3A12281   1.236  15.946   7.950
 4016POPC   C4A12282   1.203  15.930   7.650
 4016POPC   C1B12283   1.436  15.855   8.550
 4016POPC   C2B12284   1.448  15.865   8.250
 4016POPC   C3B12285   1.403  15.840   7.950
 4016POPC   C4B12286   1.456  15.923   7.650
 4017POPC   NC312287  37.660   1.225   9.450
 4017POPC   PO412288  37.657   1.244   9.150
 4017POPC   GL112289  37.653   1.167   8.850
 4017POPC   GL212290  37.726   1.312   8.850
 4017POPC   C1A12291  37.673   1.213   8.550
 4017POPC   D2A12292  37.680   1.171   8.250
 4017POPC   C3A12293  37.712   1.257   7.950
 4017POPC   C4A12294  37.705   1.221   7.650
 4017POPC   C1B12295  37.638   1.435   8.550
 4017POPC   C2B12296  37.728   1.426   8.250
 4017POPC   C3B12297  37.700   1.427   7.950
 4017POPC   C4B12298  37.644   1.509   7.650
 4018POPC   NC312299  19.800   2.724   9.450
 4018POPC   PO412300  19.838   2.791   9.150
 4018POPC   GL112301  19.845   2.751   8.850
 4018POPC   GL212302  19.903   2.783   8.850
 4018POPC   C1A12303  19.882   2.797   8.550
 4018POPC   D2A12304  19.818   2.731   8.250
 4018POPC   C3A12305  19.838   2.755   7.950
 4018POPC   C4A12306  19.792   2.808   7.650
 4018POPC   C1B12307  20.041   2.804   8.550
 4018POPC   C2B12308  20.033   2.811   8.250
 4018POPC   C3B12309  20.103   2.834   7.950
 4018POPC   C4B12310  20.024   2.886   7.650
 4019POPC   NC312311  30.651   1.169   9.450
 4019POPC   PO412312  30.677   1.262   9.150
 4019POPC   GL112313  30.660   1.196   8.850
 4019POPC   GL212314  30.611   1.290   8.850
 4019POPC   C1A12315  30.677   1.182   8.550
 4019POPC   D2A12316  30.662   1.189   8.250
 4019POPC   C3A12317  30.673   1.223   7.950
 4019POPC   C4A12318  30.700   1.227   7.650
 4019POPC   C1B12319  30.486   1.247   8.550
 4019POPC   C2B12320  30.491   1.322   8.250
 4019POPC   C3B12321  30.451   1.229   7.950
 4019POPC   C4B12322  30.481   1.273   7.650
 4020POPC   NC312323   1.196  18.331   9.450
 4020POPC   PO412324   1.210  18.324   9.150
 4020POPC   GL112325   1.192  18.328   8.850
 4020POPC   GL212326   1.245  18.354   8.850
 4020POPC   C1A12327   1.182  18.324   8.550
 4020POPC   D2A12328   1.245  18.252   8.250
 4020POPC   C3A12329   1.223  18.267   7.950
 4020POPC   C4A12330   1.238  18.321   7.650
 4020POPC   C1B12331   1.271  18.498   8.550
 4020POPC   C2B12332   1.327  18.480   8.250
 4020POPC   C3B12333   1.288  18.560   7.950
 4020POPC   C4B12334   1.347  18.499   7.650
 4021POPC   NC312335  43.883  13.592   9.450
 4021POPC   PO412336  43.915  13.607   9.150
 4021POPC   GL112337  43.846  13.632   8.850
 4021POPC   GL212338  43.992  13.577   8.850
 4021POPC   C1A12339  43.868  13.607   8.550
 4021POPC   D2A12340  43.917  13.604   8.250
 4021POPC   C3A12341  43.914  13.589   7.950
 4021POPC   C4A12342  43.892  13.677   7.650
 4021POPC   C1B12343  44.109  13.436   8.550
 4021POPC   C2B12344  44.058  13.461   8.250
 4021POPC   C3B12345  44.074  13.524   7.950
 4021POPC   C4B12346  44.077  13.475   7.650
 4022POPC   NC312347  37.677  38.480   9.450
 4022POPC   PO412348  37.642  38.476   9.150
 4022POPC   GL112349  37.696  38.477   8.850
 4022POPC   GL212350  37.686  38.334   8.850
 4022POPC   C1A12351  37.656  38.487   8.550
 4022POPC   D2A12352  37.646  38.443   8.250
 4022POPC   C3A12353  37.720  38.419   7.950
 4022POPC   C4A12354  37.632  38.438   7.650
 4022POPC   C1B12355  37.699  38.252   8.550
 4022POPC   C2B12356  37.612  38.175   8.250
 4022POPC   C3B12357  37.622  38.215   7.950
 4022POPC   C4B12358  37.666  38.187   7.650
 4023POPC   NC312359  28.354  23.694   9.450
 4023POPC   PO412360  28.340  23.718   9.150
 4023POPC   GL112361  28.378  23.707   8.850
 4023POPC   GL212362  28.473  23.767   8.850
 4023POPC   C1A12363  28.334  23.719   8.550
 4023POPC   D2A12364  28.406  23.722   8.250
 4023POPC   C3A12365  28.324  23.701   7.950
 4023POPC   C4A12366  28.376  23.686   7.650
 4023POPC   C1B12367  28.526  23.917   8.550
 4023POPC   C2B12368  28.574  23.903   8.250
 4023POPC   C3B12369  28.577  23.896   7.950
 4023POPC   C4B12370  28.599  23.843   7.650
 4024POPC   NC312371  21.424   6.651   9.450
 4024POPC   PO412372  21.338   6.613   9.150
 4024POPC   GL112373  21.361   6.657   8.850
 4024POPC   GL212374  21.336   6.572   8.850
 4024POPC   C1A12375  21.367   6.617   8.550
 4024POPC   D2A12376  21.373   6.676   8.250
 4024POPC   C3A12377  21.364   6.628   7.950
 4024POPC   C4A12378  21.358   6.673   7.650
 4024POPC   C1B12379  21.253   6.370   8.550
 4024POPC   C2B12380  21.288   6.450   8.250
 4024POPC   C3B12381  21.284   6.380   7.950
 4024POPC   C4B12382  21.309   6.441   7.650
 4025POPC   NC312383  38.439  25.998   9.450
 4025POPC   PO412384  38.449  25.993   9.150
 4025POPC   GL112385  38.454  25.996   8.850
 4025POPC   GL212386  38.396  25.962   8.850
 4025POPC   C1A12387  38.504  26.068   8.550
 4025POPC   D2A12388  38.463  26.042   8.250
 4025POPC   C3A12389  38.493  26.078   7.950
 4025POPC   C4A12390  38.491  25.997   7.650
 4025POPC   C1B12391  38.411  25.818   8.550
 4025POPC   C2B12392  38.397  25.765   8.250
 4025POPC   C3B12393  38.415  25.752   7.950
 4025POPC   C4B12394  38.416  25.818   7.650
 4026POPC   NC312395  25.270  22.893   9.450
 4026POPC   PO412396  25.269  22.910   9.150
 4026POPC   GL112397  25.219  22.967   8.850
 4026POPC   GL212398  25.385  22.918   8.850
 4026POPC   C1A12399  25.252  22.943   8.550
 4026POPC   D2A12400  25.263  22.962   8.250
 4026POPC   C3A12401  25.298  22.916   7.950
 4026POPC   C4A12402  25.217  22.953   7.650
 4026POPC   C1B12403  25.528  22.864   8.550
 4026POPC   C2B12404  25.558  22.891   8.250
 4026POPC   C3B12405  25.517  22.859   7.950
 4026POPC   C4B12406  25.545  22.863   7.650
 4027POPC   NC312407  37.674   9.771   9.450
 4027POPC   PO412408  37.686   9.718   9.150
 4027POPC   GL112409  37.634   9.712   8.850
 4027POPC   GL212410  37.753   9.874   8.850
 4027POPC   C1A12411  37.641   9.772   8.550
 4027POPC   D2A12412  37.654   9.707   8.250
 4027POPC   C3A12413  37.664   9.783   7.950
 4027POPC   C4A12414  37.703   9.797   7.650
 4027POPC   C1B12415  37.753  10.026   8.550
 4027POPC   C2B12416  37.743   9.988   8.250
 4027POPC   C3B12417  37.769   9.948   7.950
 4027POPC   C4B12418  37.774  10.031   7.650
 4028POPC   NC312419  28.382  29.919   9.450
 4028POPC   PO412420  28.327  29.971   9.150
 4028POPC   GL112421  28.343  29.957   8.850
 4028POPC   GL212422  28.500  29.906   8.850
 4028POPC   C1A12423  28.334  29.894   8.550
 4028POPC   D2A12424  28.393  29.951   8.250
 4028POPC   C3A12425  28.352  29.885   7.950
 4028POPC   C4A12426  28.389  29.902   7.650
 4028POPC   C1B12427  28.586  29.999   8.550
 4028POPC   C2B12428  28.624  29.935   8.250
 4028POPC   C3B12429  28.602  29.917   7.950
 4028POPC   C4B12430  28.656  29.973   7.650
 4029POPC   NC312431  26.775  16.704   9.450
 4029POPC   PO412432  26.857  16.696   9.150
 4029POPC   GL112433  26.832  16.759   8.850
 4029POPC   GL212434  26.989  16.747   8.850
 4029POPC   C1A12435  26.818  16.767   8.550
 4029POPC   D2A12436  26.820  16.762   8.250
 4029POPC   C3A12437  26.802  16.700   7.950
 4029POPC   C4A12438  26.850  16.690   7.650
 4029POPC   C1B12439  27.064  16.759   8.550
 4029POPC   C2B12440  27.024  16.740   8.250
 4029POPC   C3B12441  27.088  16.708   7.950
 4029POPC   C4B12442  27.083  16.785   7.650
 4030POPC   NC312443   8.973   9.787   9.450
 4030POPC   PO412444   8.973   9.796   9.150
 4030POPC   GL112445   9.003   9.759   8.850
 4030POPC   GL212446   9.065   9.770   8.850
 4030POPC   C1A12447   9.008   9.709   8.550
 4030POPC   D2A12448   9.001   9.760   8.250
 4030POPC   C3A12449   9.010   9.699   7.950
 4030POPC   C4A12450   8.926   9.731   7.650
 4030POPC   C1B12451   9.214   9.887   8.550
 4030POPC   C2B12452   9.202   9.811   8.250
 4030POPC   C3B12453   9.188   9.806   7.950
 4030POPC   C4B12454   9.206   9.864   7.650
 4031POPC   NC312455  25.297  15.984   9.450
 4031POPC   PO412456  25.285  15.987   9.150
 4031POPC   GL112457  25.277  15.932   8.850
 4031POPC   GL212458  25.246  15.830   8.850
 4031POPC   C1A12459  25.309  15.998   8.550
 4031POPC   D2A12460  25.314  15.959   8.250
 4031POPC   C3A12461  25.296  15.912   7.950
 4031POPC   C4A12462  25.236  16.004   7.650
 4031POPC   C1B12463  25.182  15.768   8.550
 4031POPC   C2B12464  25.152  15.778   8.250
 4031POPC   C3B12465  25.169  15.748   7.950
 4031POPC   C4B12466  25.198  15.768   7.650
 4032POPC   NC312467  29.956  36.131   9.450
 4032POPC   PO412468  29.940  36.170   9.150
 4032POPC   GL112469  29.930  36.111   8.850
 4032POPC   GL212470  30.076  36.160   8.850
 4032POPC   C1A12471  29.883  36.110   8.550
 4032POPC   D2A12472  29.921  36.156   8.250
 4032POPC   C3A12473  29.918  36.162   7.950
 4032POPC   C4A12474  29.931  36.079   7.650
 4032POPC   C1B12475  30.142  36.256   8.550
 4032POPC   C2B12476  30.184  36.186   8.250
 4032POPC   C3B12477  30.197  36.202   7.950
 4032POPC   C4B12478  30.175  36.185   7.650
 4033POPC   NC312479   4.354  39.194   9.450
 4033POPC   PO412480   4.279  39.230   9.150
 4033POPC   GL112481   4.354  39.246   8.850
 4033POPC   GL212482   4.183  39.168   8.850
 4033POPC   C1A12483   4.310  39.207   8.550
 4033POPC   D2A12484   4.328  39.221   8.250
 4033POPC   C3A12485   4.294  39.206   7.950
 4033POPC   C4A12486   4.276  39.214   7.650
 4033POPC   C1B12487   4.063  39.130   8.550
 4033POPC   C2B12488   4.104  39.197   8.250
 4033POPC   C3B12489   4.063  39.196   7.950
 4033POPC   C4B12490   4.038  39.163   7.650
 4034POPC   NC312491  21.347  22.167   9.450
 4034POPC   PO412492  21.391  22.183   9.150
 4034POPC   GL112493  21.423  22.204   8.850
 4034POPC   GL212494  21.282  22.290   8.850
 4034POPC   C1A12495  21.405  22.148   8.550
 4034POPC   D2A12496  21.392  22.157   8.250
 4034POPC   C3A12497  21.426  22.121   7.950
 4034POPC   C4A12498  21.380  22.176   7.650
 4034POPC   C1B12499  21.271  22.335   8.550
 4034POPC   C2B12500  21.218  22.375   8.250
 4034POPC   C3B12501  21.244  22.368   7.950
 4034POPC   C4B12502  21.206  22.362   7.650
 4035POPC   NC312503  23.672  10.556   9.450
 4035POPC   PO412504  23.711  10.479   9.150
 4035POPC   GL112505  23.669  10.548   8.850
 4035POPC   GL212506  23.740  10.408   8.850
 4035POPC   C1A12507  23.703  10.519   8.550
 4035POPC   D2A12508  23.743  10.528   8.250
 4035POPC   C3A12509  23.755  10.509   7.950
 4035POPC   C4A12510  23.734  10.534   7.650
 4035POPC   C1B12511  23.857  10.281   8.550
 4035POPC   C2B12512  23.838  10.273   8.250
 4035POPC   C3B12513  23.864  10.283   7.950
 4035POPC   C4B12514  23.837  10.304   7.650
 4036POPC   NC312515  15.914  28.354   9.450
 4036POPC   PO412516  15.972  28.412   9.150
 4036POPC   GL112517  15.916  28.382   8.850
 4036POPC   GL212518  16.029  28.267   8.850
 4036POPC   C1A12519  15.976  28.367   8.550
 4036POPC   D2A12520  15.985  28.322   8.250
 4036POPC   C3A12521  15.939  28.356   7.950
 4036POPC   C4A12522  15.981  28.362   7.650
 4036POPC   C1B12523  16.144  28.167   8.550
 4036POPC   C2B12524  16.102  28.180   8.250
 4036POPC   C3B12525  16.164  28.245   7.950
 4036POPC   C4B12526  16.159  28.248   7.650
 4037POPC   NC312527  37.676  23.690   9.450
 4037POPC   PO412528  37.728  23.690   9.150
 4037POPC   GL112529  37.725  23.697   8.850
 4037POPC   GL212530  37.631  23.599   8.850
 4037POPC   C1A12531  37.642  23.694   8.550
 4037POPC   D2A12532  37.710  23.730   8.250
 4037POPC   C3A12533  37.642  23.692   7.950
 4037POPC   C4A12534  37.678  23.665   7.650
 4037POPC   C1B12535  37.532  23.516   8.550
 4037POPC   C2B12536  37.517  23.529   8.250
 4037POPC   C3B12537  37.502  23.497   7.950
 4037POPC   C4B12538  37.533  23.566   7.650
 4038POPC   NC312539  42.337  29.119   9.450
 4038POPC   PO412540  42.349  29.114   9.150
 4038POPC   GL112541  42.354  29.176   8.850
 4038POPC   GL212542  42.213  29.117   8.850
 4038POPC   C1A12543  42.308  29.152   8.550
 4038POPC   D2A12544  42.319  29.178   8.250
 4038POPC   C3A12545  42.347  29.176   7.950
 4038POPC   C4A12546  42.321  29.161   7.650
 4038POPC   C1B12547  42.145  28.976   8.550
 4038POPC   C2B12548  42.150  28.998   8.250
 4038POPC   C3B12549  42.112  29.030   7.950
 4038POPC   C4B12550  42.098  28.950   7.650
 4039POPC   NC312551  25.261  23.694   9.450
 4039POPC   PO412552  25.231  23.687   9.150
 4039POPC   GL112553  25.246  23.691   8.850
 4039POPC   GL212554  25.377  23.575   8.850
 4039POPC   C1A12555  25.238  23.755   8.550
 4039POPC   D2A12556  25.290  23.735   8.250
 4039POPC   C3A12557  25.221  23.739   7.950
 4039POPC   C4A12558  25.290  23.752   7.650
 4039POPC   C1B12559  25.386  23.530   8.550
 4039POPC   C2B12560  25.344  23.520   8.250
 4039POPC   C3B12561  25.417  23.451   7.950
 4039POPC   C4B12562  25.383  23.539   7.650
 4040POPC   NC312563   1.216  39.218   9.450
 4040POPC   PO412564   1.236  39.228   9.150
 4040POPC   GL112565   1.194  39.228   8.850
 4040POPC   GL212566   1.058  39.266   8.850
 4040POPC   C1A12567   1.210  39.278   8.550
 4040POPC   D2A12568   1.196  39.252   8.250
 4040POPC   C3A12569   1.257  39.228   7.950
 4040POPC   C4A12570   1.169  39.219   7.650
 4040POPC   C1B12571   1.019  39.374   8.550
 4040POPC   C2B12572   0.993  39.363   8.250
 4040POPC   C3B12573   0.960  39.317   7.950
 4040POPC   C4B12574   0.981  39.365   7.650
 4041POPC   NC312575  29.156  29.884   9.450
 4041POPC   PO412576  29.121  29.939   9.150
 4041POPC   GL112577  29.099  29.894   8.850
 4041POPC   GL212578  29.115  29.836   8.850
 4041POPC   C1A12579  29.185  29.947   8.550
 4041POPC   D2A12580  29.126  29.903   8.250
 4041POPC   C3A12581  29.153  29.956   7.950
 4041POPC   C4A12582  29.099  29.934   7.650
 4041POPC   C1B12583  29.056  29.724   8.550
 4041POPC   C2B12584  29.099  29.662   8.250
 4041POPC   C3B12585  29.077  29.679   7.950
 4041POPC   C4B12586  29.020  29.727   7.650
 4042POPC   NC312587  15.954  44.618   9.450
 4042POPC   PO412588  15.957  44.709   9.150
 4042POPC   GL112589  15.980  44.671   8.850
 4042POPC   GL212590  15.940  44.551   8.850
 4042POPC   C1A12591  15.947  44.684   8.550
 4042POPC   D2A12592  15.977  44.702   8.250
 4042POPC   C3A12593  15.995  44.648   7.950
 4042POPC   C4A12594  16.002  44.634   7.650
 4042POPC   C1B12595  15.999  44.422   8.550
 4042POPC   C2B12596  15.926  44.380   8.250
 4042POPC   C3B12597  15.937  44.435   7.950
 4042POPC   C4B12598  15.963  44.429   7.650
 4043POPC   NC312599  33.001  39.971   9.450
 4043POPC   PO412600  32.981  39.998   9.150
 4043POPC   GL112601  33.021  40.044   8.850
 4043POPC   GL212602  32.923  40.155   8.850
 4043POPC   C1A12603  33.036  40.013   8.550
 4043POPC   D2A12604  33.039  40.027   8.250
 4043POPC   C3A12605  33.049  40.047   7.950
 4043POPC   C4A12606  33.032  40.007   7.650
 4043POPC   C1B12607  32.889  40.219   8.550
 4043POPC   C2B12608  32.897  40.244   8.250
 4043POPC   C3B12609  32.836  40.202   7.950
 4043POPC   C4B12610  32.873  40.245   7.650
 4044POPC   NC312611   5.829   0.394   9.450
 4044POPC   PO412612   5.899   0.398   9.150
 4044POPC   GL112613   5.903   0.449   8.850
 4044POPC   GL212614   6.033   0.457   8.850
 4044POPC   C1A12615   5.872   0.446   8.550
 4044POPC   D2A12616   5.827   0.397   8.250
 4044POPC   C3A12617   5.841   0.477   7.950
 4044POPC   C4A12618   5.889   0.472   7.650
 4044POPC   C1B12619   6.114   0.510   8.550
 4044POPC   C2B12620   6.082   0.482   8.250
 4044POPC   C3B12621   6.120   0.510   7.950
 4044POPC   C4B12622   6.136   0.446   7.650
 4045POPC   NC312623  26.816  33.057   9.450
 4045POPC   PO412624  26.777  33.055   9.150
 4045POPC   GL112625  26.817  33.028   8.850
 4045POPC   GL212626  26.724  33.097   8.850
 4045POPC   C1A12627  26.772  33.064   8.550
 4045POPC   D2A12628  26.859  33.052   8.250
 4045POPC   C3A12629  26.768  32.997   7.950
 4045POPC   C4A12630  26.823  33.020   7.650
 4045POPC   C1B12631  26.525  33.125   8.550
 4045POPC   C2B12632  26.601  33.056   8.250
 4045POPC   C3B12633  26.555  33.038   7.950
 4045POPC   C4B12634  26.539  33.049   7.650
 4046POPC   NC312635   0.429  29.150   9.450
 4046POPC   PO412636   0.404  29.126   9.150
 4046POPC   GL112637   0.469  29.176   8.850
 4046POPC   GL212638   0.325  29.165   8.850
 4046POPC   C1A12639   0.437  29.108   8.550
 4046POPC   D2A12640   0.463  29.169   8.250
 4046POPC   C3A12641   0.468  29.173   7.950
 4046POPC   C4A12642   0.438  29.143   7.650
 4046POPC   C1B12643   0.204  29.200   8.550
 4046POPC   C2B12644   0.188  29.246   8.250
 4046POPC   C3B12645   0.175  29.246   7.950
 4046POPC   C4B12646   0.197  29.177   7.650
 4047POPC   NC312647   5.063  43.082   9.450
 4047POPC   PO412648   5.136  43.075   9.150
 4047POPC   GL112649   5.141  43.149   8.850
 4047POPC   GL212650   5.031  43.183   8.850
 4047POPC   C1A12651   5.087  43.069   8.550
 4047POPC   D2A12652   5.061  43.142   8.250
 4047POPC   C3A12653   5.088  43.105   7.950
 4047POPC   C4A12654   5.091  43.077   7.650
 4047POPC   C1B12655   4.851  43.221   8.550
 4047POPC   C2B12656   4.905  43.269   8.250
 4047POPC   C3B12657   4.897  43.211   7.950
 4047POPC   C4B12658   4.918  43.269   7.650
 4048POPC   NC312659   1.239  21.418   9.450
 4048POPC   PO412660   1.226  21.352   9.150
 4048POPC   GL112661   1.252  21.402   8.850
 4048POPC   GL212662   1.318  21.288   8.850
 4048POPC   C1A12663   1.231  21.382   8.550
 4048POPC   D2A12664   1.201  21.351   8.250
 4048POPC   C3A12665   1.253  21.353   7.950
 4048POPC   C4A12666   1.185  21.396   7.650
 4048POPC   C1B12667   1.363  21.248   8.550
 4048POPC   C2B12668   1.434  21.160   8.250
 4048POPC   C3B12669   1.383  21.234   7.950
 4048POPC   C4B12670   1.415  21.209   7.650
 4049POPC   NC312671  40.001  26.083   9.450
 4049POPC   PO412672  40.049  26.025   9.150
 4049POPC   GL112673  40.047  26.077   8.850
 4049POPC   GL212674  39.937  26.083   8.850
 4049POPC   C1A12675  40.012  26.023   8.550
 4049POPC   D2A12676  39.960  26.004   8.250
 4049POPC   C3A12677  40.011  26.091   7.950
 4049POPC   C4A12678  39.981  25.995   7.650
 4049POPC   C1B12679  39.823  26.163   8.550
 4049POPC   C2B12680  39.834  26.123   8.250
 4049POPC   C3B12681  39.791  26.124   7.950
 4049POPC   C4B12682  39.808  26.189   7.650
 4050POPC   NC312683   3.529  27.569   9.450
 4050POPC   PO412684   3.506  27.609   9.150
 4050POPC   GL112685   3.494  27.629   8.850
 4050POPC   GL212686   3.415  27.467   8.850
 4050POPC   C1A12687   3.528  27.564   8.550
 4050POPC   D2A12688   3.527  27.623   8.250
 4050POPC   C3A12689   3.556  27.633   7.950
 4050POPC   C4A12690   3.591  27.614   7.650
 4050POPC   C1B12691   3.383  27.372   8.550
 4050POPC   C2B12692   3.313  27.385   8.250
 4050POPC   C3B12693   3.323  27.446   7.950
 4050POPC   C4B12694   3.411  27.468   7.650
 4051POPC   NC312695  33.053  29.919   9.450
 4051POPC   PO412696  33.019  29.940   9.150
 4051POPC   GL112697  33.049  29.965   8.850
 4051POPC   GL212698  32.957  29.978   8.850
 4051POPC   C1A12699  33.069  29.949   8.550
 4051POPC   D2A12700  32.994  29.885   8.250
 4051POPC   C3A12701  33.000  29.963   7.950
 4051POPC   C4A12702  33.012  29.887   7.650
 4051POPC   C1B12703  32.787  30.020   8.550
 4051POPC   C2B12704  32.779  29.971   8.250
 4051POPC   C3B12705  32.809  30.036   7.950
 4051POPC   C4B12706  32.829  29.976   7.650
 4052POPC   NC312707   6.631  40.815   9.450
 4052POPC   PO412708   6.628  40.779   9.150
 4052POPC   GL112709   6.665  40.774   8.850
 4052POPC   GL212710   6.509  40.812   8.850
 4052POPC   C1A12711   6.596  40.744   8.550
 4052POPC   D2A12712   6.665  40.759   8.250
 4052POPC   C3A12713   6.634  40.759   7.950
 4052POPC   C4A12714   6.630  40.751   7.650
 4052POPC   C1B12715   6.440  40.925   8.550
 4052POPC   C2B12716   6.486  40.967   8.250
 4052POPC   C3B12717   6.401  40.933   7.950
 4052POPC   C4B12718   6.415  40.970   7.650
 4053POPC   NC312719  36.091  36.130   9.450
 4053POPC   PO412720  36.097  36.153   9.150
 4053POPC   GL112721  36.138  36.135   8.850
 4053POPC   GL212722  35.980  36.144   8.850
 4053POPC   C1A12723  36.111  36.128   8.550
 4053POPC   D2A12724  36.089  36.174   8.250
 4053POPC   C3A12725  36.082  36.132   7.950
 4053POPC   C4A12726  36.147  36.089   7.650
 4053POPC   C1B12727  35.901  36.107   8.550
 4053POPC   C2B12728  35.926  36.154   8.250
 4053POPC   C3B12729  35.915  36.106   7.950
 4053POPC   C4B12730  35.889  36.077   7.650
 4054POPC   NC312731  29.896  22.919   9.450
 4054POPC   PO412732  29.928  22.932   9.150
 4054POPC   GL112733  29.926  22.957   8.850
 4054POPC   GL212734  29.941  22.855   8.850
 4054POPC   C1A12735  29.921  22.969   8.550
 4054POPC   D2A12736  29.966  22.910   8.250
 4054POPC   C3A12737  29.929  22.966   7.950
 4054POPC   C4A12738  29.951  22.934   7.650
 4054POPC   C1B12739  30.051  22.711   8.550
 4054POPC   C2B12740  29.961  22.659   8.250
 4054POPC   C3B12741  29.984  22.681   7.950
 4054POPC   C4B12742  29.972  22.745   7.650
 4055POPC   NC312743  20.655   0.423   9.450
 4055POPC   PO412744  20.647   0.429   9.150
 4055POPC   GL112745  20.617   0.447   8.850
 4055POPC   GL212746  20.667   0.386   8.850
 4055POPC   C1A12747  20.566   0.441   8.550
 4055POPC   D2A12748  20.626   0.473   8.250
 4055POPC   C3A12749  20.639   0.401   7.950
 4055POPC   C4A12750  20.574   0.399   7.650
 4055POPC   C1B12751  20.729   0.222   8.550
 4055POPC   C2B12752  20.770   0.232   8.250
 4055POPC   C3B12753  20.745   0.280   7.950
 4055POPC   C4B12754  20.787   0.290   7.650
 4056POPC   NC312755  37.710  13.606   9.450
 4056POPC   PO412756  37.694  13.619   9.150
 4056POPC   GL112757  37.724  13.672   8.850
 4056POPC   GL212758  37.760  13.521   8.850
 4056POPC   C1A12759  37.692  13.674   8.550
 4056POPC   D2A12760  37.700  13.595   8.250
 4056POPC   C3A12761  37.662  13.587   7.950
 4056POPC   C4A12762  37.693  13.657   7.650
 4056POPC   C1B12763  37.884  13.474   8.550
 4056POPC   C2B12764  37.887  13.437   8.250
 4056POPC   C3B12765  37.905  13.454   7.950
 4056POPC   C4B12766  37.837  13.467   7.650
 4057POPC   NC312767   8.202   0.418   9.450
 4057POPC   PO412768   8.236   0.396   9.150
 4057POPC   GL112769   8.161   0.473   8.850
 4057POPC   GL212770   8.344   0.452   8.850
 4057POPC   C1A12771   8.180   0.390   8.550
 4057POPC   D2A12772   8.172   0.441   8.250
 4057POPC   C3A12773   8.206   0.464   7.950
 4057POPC   C4A12774   8.184   0.469   7.650
 4057POPC   C1B12775   8.449   0.353   8.550
 4057POPC   C2B12776   8.444   0.363   8.250
 4057POPC   C3B12777   8.418   0.392   7.950
 4057POPC   C4B12778   8.482   0.414   7.650
 4058POPC   NC312779  33.771  25.999   9.450
 4058POPC   PO412780  33.840  26.044   9.150
 4058POPC   GL112781  33.818  26.018   8.850
 4058POPC   GL212782  33.924  25.982   8.850
 4058POPC   C1A12783  33.764  26.077   8.550
 4058POPC   D2A12784  33.827  26.039   8.250
 4058POPC   C3A12785  33.794  25.994   7.950
 4058POPC   C4A12786  33.846  26.044   7.650
 4058POPC   C1B12787  34.006  25.837   8.550
 4058POPC   C2B12788  34.027  25.920   8.250
 4058POPC   C3B12789  33.979  25.864   7.950
 4058POPC   C4B12790  34.003  25.843   7.650
 4059POPC   NC312791  20.590  44.702   9.450
 4059POPC   PO412792  20.627  44.708   9.150
 4059POPC   GL112793  20.621  44.628   8.850
 4059POPC   GL212794  20.624  44.796   8.850
 4059POPC   C1A12795  20.595  44.661   8.550
 4059POPC   D2A12796  20.587  44.667   8.250
 4059POPC   C3A12797  20.589  44.643   7.950
 4059POPC   C4A12798  20.574  44.635   7.650
 4059POPC   C1B12799  20.702  44.877   8.550
 4059POPC   C2B12800  20.663  44.911   8.250
 4059POPC   C3B12801  20.709  44.892   7.950
 4059POPC   C4B12802  20.690  44.854   7.650
 4060POPC   NC312803  21.419   2.725   9.450
 4060POPC   PO412804  21.381   2.748   9.150
 4060POPC   GL112805  21.423   2.786   8.850
 4060POPC   GL212806  21.474   2.787   8.850
 4060POPC   C1A12807  21.341   2.722   8.550
 4060POPC   D2A12808  21.418   2.792   8.250
 4060POPC   C3A12809  21.422   2.779   7.950
 4060POPC   C4A12810  21.417   2.740   7.650
 4060POPC   C1B12811  21.653   2.794   8.550
 4060POPC   C2B12812  21.611   2.822   8.250
 4060POPC   C3B12813  21.607   2.863   7.950
 4060POPC   C4B12814  21.617   2.848   7.650
 4061POPC   NC312815  22.129  23.670   9.450
 4061POPC   PO412816  22.147  23.684   9.150
 4061POPC   GL112817  22.186  23.709   8.850
 4061POPC   GL212818  22.161  23.541   8.850
 4061POPC   C1A12819  22.186  23.667   8.550
 4061POPC   D2A12820  22.113  23.664   8.250
 4061POPC   C3A12821  22.185  23.731   7.950
 4061POPC   C4A12822  22.149  23.760   7.650
 4061POPC   C1B12823  22.099  23.431   8.550
 4061POPC   C2B12824  22.155  23.416   8.250
 4061POPC   C3B12825  22.109  23.441   7.950
 4061POPC   C4B12826  22.158  23.491   7.650
 4062POPC   NC312827  15.966   6.632   9.450
 4062POPC   PO412828  15.971   6.627   9.150
 4062POPC   GL112829  15.943   6.648   8.850
 4062POPC   GL212830  16.070   6.743   8.850
 4062POPC   C1A12831  15.983   6.654   8.550
 4062POPC   D2A12832  15.994   6.678   8.250
 4062POPC   C3A12833  15.951   6.625   7.950
 4062POPC   C4A12834  15.973   6.602   7.650
 4062POPC   C1B12835  16.123   6.792   8.550
 4062POPC   C2B12836  16.193   6.789   8.250
 4062POPC   C3B12837  16.210   6.786   7.950
 4062POPC   C4B12838  16.138   6.754   7.650
 4063POPC   NC312839  11.349  12.033   9.450
 4063POPC   PO412840  11.296  12.030   9.150
 4063POPC   GL112841  11.303  12.108   8.850
 4063POPC   GL212842  11.347  11.936   8.850
 4063POPC   C1A12843  11.287  12.059   8.550
 4063POPC   D2A12844  11.317  12.099   8.250
 4063POPC   C3A12845  11.335  12.118   7.950
 4063POPC   C4A12846  11.256  12.054   7.650
 4063POPC   C1B12847  11.419  11.868   8.550
 4063POPC   C2B12848  11.427  11.846   8.250
 4063POPC   C3B12849  11.369  11.849   7.950
 4063POPC   C4B12850  11.378  11.821   7.650
 4064POPC   NC312851  14.362  13.587   9.450
 4064POPC   PO412852  14.449  13.596   9.150
 4064POPC   GL112853  14.355  13.597   8.850
 4064POPC   GL212854  14.273  13.673   8.850
 4064POPC   C1A12855  14.359  13.630   8.550
 4064POPC   D2A12856  14.399  13.662   8.250
 4064POPC   C3A12857  14.404  13.614   7.950
 4064POPC   C4A12858  14.371  13.597   7.650
 4064POPC   C1B12859  14.145  13.643   8.550
 4064POPC   C2B12860  14.109  13.684   8.250
 4064POPC   C3B12861  14.178  13.690   7.950
 4064POPC   C4B12862  14.137  13.678   7.650
 4065POPC   NC312863  43.071   9.742   9.450
 4065POPC   PO412864  43.159   9.790   9.150
 4065POPC   GL112865  43.143   9.729   8.850
 4065POPC   GL212866  43.032   9.628   8.850
 4065POPC   C1A12867  43.103   9.794   8.550
 4065POPC   D2A12868  43.159   9.777   8.250
 4065POPC   C3A12869  43.086   9.724   7.950
 4065POPC   C4A12870  43.159   9.741   7.650
 4065POPC   C1B12871  43.028   9.527   8.550
 4065POPC   C2B12872  43.023   9.550   8.250
 4065POPC   C3B12873  42.934   9.500   7.950
 4065POPC   C4B12874  42.949   9.499   7.650
 4066POPC   NC312875  13.660  41.604   9.450
 4066POPC   PO412876  13.592  41.605   9.150
 4066POPC   GL112877  13.633  41.537   8.850
 4066POPC   GL212878  13.742  41.549   8.850
 4066POPC   C1A12879  13.633  41.567   8.550
 4066POPC   D2A12880  13.603  41.591   8.250
 4066POPC   C3A12881  13.671  41.602   7.950
 4066POPC   C4A12882  13.602  41.513   7.650
 4066POPC   C1B12883  13.842  41.665   8.550
 4066POPC   C2B12884  13.885  41.665   8.250
 4066POPC   C3B12885  13.853  41.630   7.950
 4066POPC   C4B12886  13.821  41.586   7.650
 4067POPC   NC312887  42.297  12.818   9.450
 4067POPC   PO412888  42.315  12.893   9.150
 4067POPC   GL112889  42.312  12.869   8.850
 4067POPC   GL212890  42.384  12.781   8.850
 4067POPC   C1A12891  42.332  12.867   8.550
 4067POPC   D2A12892  42.305  12.883   8.250
 4067POPC   C3A12893  42.291  12.820   7.950
 4067POPC   C4A12894  42.329  12.830   7.650
 4067POPC   C1B12895  42.451  12.620   8.550
 4067POPC   C2B12896  42.423  12.607   8.250
 4067POPC   C3B12897  42.461  12.608   7.950
 4067POPC   C4B12898  42.473  12.598   7.650
 4068POPC   NC312899  19.833  42.373   9.450
 4068POPC   PO412900  19.878  42.341   9.150
 4068POPC   GL112901  19.857  42.327   8.850
 4068POPC   GL212902  19.758  42.289   8.850
 4068POPC   C1A12903  19.841  42.313   8.550
 4068POPC   D2A12904  19.836  42.319   8.250
 4068POPC   C3A12905  19.825  42.367   7.950
 4068POPC   C4A12906  19.808  42.336   7.650
 4068POPC   C1B12907  19.598  42.238   8.550
 4068POPC   C2B12908  19.606  42.207   8.250
 4068POPC   C3B12909  19.651  42.240   7.950
 4068POPC   C4B12910  19.633  42.223   7.650
 4069POPC   NC312911   8.956   5.068   9.450
 4069POPC   PO412912   9.022   5.105   9.150
 4069POPC   GL112913   8.974   5.060   8.850
 4069POPC   GL212914   9.104   4.963   8.850
 4069POPC   C1A12915   8.974   5.058   8.550
 4069POPC   D2A12916   8.942   5.125   8.250
 4069POPC   C3A12917   8.971   5.110   7.950
 4069POPC   C4A12918   8.939   5.047   7.650
 4069POPC   C1B12919   9.153   4.942   8.550
 4069POPC   C2B12920   9.132   4.932   8.250
 4069POPC   C3B12921   9.156   4.907   7.950
 4069POPC   C4B12922   9.153   4.963   7.650
 4070POPC   NC312923  41.554  23.739   9.450
 4070POPC   PO412924  41.562  23.736   9.150
 4070POPC   GL112925  41.590  23.747   8.850
 4070POPC   GL212926  41.438  23.610   8.850
 4070POPC   C1A12927  41.524  23.718   8.550
 4070POPC   D2A12928  41.598  23.746   8.250
 4070POPC   C3A12929  41.529  23.709   7.950
 4070POPC   C4A12930  41.550  23.713   7.650
 4070POPC   C1B12931  41.335  23.541   8.550
 4070POPC   C2B12932  41.418  23.529   8.250
 4070POPC   C3B12933  41.379  23.499   7.950
 4070POPC   C4B12934  41.386  23.570   7.650
 4071POPC   NC312935  15.971  33.810   9.450
 4071POPC   PO412936  15.944  33.755   9.150
 4071POPC   GL112937  15.952  33.751   8.850
 4071POPC   GL212938  15.908  33.719   8.850
 4071POPC   C1A12939  15.995  33.760   8.550
 4071POPC   D2A12940  16.002  33.776   8.250
 4071POPC   C3A12941  15.940  33.788   7.950
 4071POPC   C4A12942  15.949  33.752   7.650
 4071POPC   C1B12943  15.872  33.622   8.550
 4071POPC   C2B12944  15.853  33.581   8.250
 4071POPC   C3B12945  15.810  33.624   7.950
 4071POPC   C4B12946  15.809  33.618   7.650
 4072POPC   NC312947  34.565  15.167   9.450
 4072POPC   PO412948  34.570  15.221   9.150
 4072POPC   GL112949  34.550  15.151   8.850
 4072POPC   GL212950  34.547  15.281   8.850
 4072POPC   C1A12951  34.606  15.166   8.550
 4072POPC   D2A12952  34.569  15.146   8.250
 4072POPC   C3A12953  34.594  15.199   7.950
 4072POPC   C4A12954  34.587  15.172   7.650
 4072POPC   C1B12955  34.492  15.427   8.550
 4072POPC   C2B12956  34.497  15.447   8.250
 4072POPC   C3B12957  34.467  15.369   7.950
 4072POPC   C4B12958  34.433  15.383   7.650
 4073POPC   NC312959  25.315  41.550   9.450
 4073POPC   PO412960  25.266  41.529   9.150
 4073POPC   GL112961  25.271  41.530   8.850
 4073POPC   GL212962  25.393  41.626   8.850
 4073POPC   C1A12963  25.254  41.515   8.550
 4073POPC   D2A12964  25.262  41.540   8.250
 4073POPC   C3A12965  25.313  41.525   7.950
 4073POPC   C4A12966  25.258  41.556   7.650
 4073POPC   C1B12967  25.439  41.706   8.550
 4073POPC   C2B12968  25.429  41.721   8.250
 4073POPC   C3B12969  25.450  41.748   7.950
 4073POPC   C4B12970  25.462  41.789   7.650
 4074POPC   NC312971  19.046  38.473   9.450
 4074POPC   PO412972  19.062  38.477   9.150
 4074POPC   GL112973  19.010  38.503   8.850
 4074POPC   GL212974  19.217  38.431   8.850
 4074POPC   C1A12975  19.104  38.481   8.550
 4074POPC   D2A12976  19.025  38.411   8.250
 4074POPC   C3A12977  19.038  38.468   7.950
 4074POPC   C4A12978  19.085  38.468   7.650
 4074POPC   C1B12979  19.309  38.444   8.550
 4074POPC   C2B12980  19.318  38.472   8.250
 4074POPC   C3B12981  19.320  38.496   7.950
 4074POPC   C4B12982  19.276  38.485   7.650
 4075POPC   NC312983  23.679  29.127   9.450
 4075POPC   PO412984  23.703  29.183   9.150
 4075POPC   GL112985  23.737  29.118   8.850
 4075POPC   GL212986  23.610  29.230   8.850
 4075POPC   C1A12987  23.694  29.138   8.550
 4075POPC   D2A12988  23.676  29.134   8.250
 4075POPC   C3A12989  23.693  29.187   7.950
 4075POPC   C4A12990  23.747  29.113   7.650
 4075POPC   C1B12991  23.522  29.365   8.550
 4075POPC   C2B12992  23.516  29.308   8.250
 4075POPC   C3B12993  23.554  29.350   7.950
 4075POPC   C4B12994  23.603  29.354   7.650
 4076POPC   NC312995  19.082  13.615   9.450
 4076POPC   PO412996  19.043  13.632   9.150
 4076POPC   GL112997  19.010  13.622   8.850
 4076POPC   GL212998  19.048  13.696   8.850
 4076POPC   C1A12999  19.034  13.604   8.550
 4076POPC   D2A13000  19.080  13.614   8.250
 4076POPC   C3A13001  19.044  13.610   7.950
 4076POPC   C4A13002  19.028  13.672   7.650
 4076POPC   C1B13003  18.937  13.901   8.550
 4076POPC   C2B13004  18.929  13.813   8.250
 4076POPC   C3B13005  18.975  13.895   7.950
 4076POPC   C4B13006  18.965  13.891   7.650
 4077POPC   NC313007   1.955  27.615   9.450
 4077POPC   PO413008   2.037  27.630   9.150
 4077POPC   GL113009   1.977  27.553   8.850
 4077POPC   GL213010   1.873  27.666   8.850
 4077POPC   C1A13011   1.986  27.621   8.550
 4077POPC   D2A13012   1.964  27.589   8.250
 4077POPC   C3A13013   2.000  27.615   7.950
 4077POPC   C4A13014   1.956  27.557   7.650
 4077POPC   C1B13015   1.839  27.804   8.550
 4077POPC   C2B13016   1.857  27.765   8.250
 4077POPC   C3B13017   1.795  27.751   7.950
 4077POPC   C4B13018   1.856  27.811   7.650
 4078POPC   NC313019  20.609  17.553   9.450
 4078POPC   PO413020  20.616  17.477   9.150
 4078POPC   GL113021  20.569  17.526   8.850
 4078POPC   GL213022  20.516  17.557   8.850
 4078POPC   C1A13023  20.611  17.463   8.550
 4078POPC   D2A13024  20.634  17.462   8.250
 4078POPC   C3A13025  20.652  17.524   7.950
 4078POPC   C4A13026  20.585  17.499   7.650
 4078POPC   C1B13027  20.386  17.648   8.550
 4078POPC   C2B13028  20.395  17.642   8.250
 4078POPC   C3B13029  20.431  17.702   7.950
 4078POPC   C4B13030  20.424  17.702   7.650
 4079POPC   NC313031  41.571  36.142   9.450
 4079POPC   PO413032  41.537  36.148   9.150
 4079POPC   GL113033  41.592  36.135   8.850
 4079POPC   GL213034  41.527  36.225   8.850
 4079POPC   C1A13035  41.593  36.109   8.550
 4079POPC   D2A13036  41.578  36.124   8.250
 4079POPC   C3A13037  41.595  36.151   7.950
 4079POPC   C4A13038  41.549  36.162   7.650
 4079POPC   C1B13039  41.430  36.322   8.550
 4079POPC   C2B13040  41.441  36.312   8.250
 4079POPC   C3B13041  41.500  36.359   7.950
 4079POPC   C4B13042  41.405  36.306   7.650
 4080POPC   NC313043  25.266  40.817   9.450
 4080POPC   PO413044  25.306  40.745   9.150
 4080POPC   GL113045  25.236  40.799   8.850
 4080POPC   GL213046  25.374  40.834   8.850
 4080POPC   C1A13047  25.267  40.768   8.550
 4080POPC   D2A13048  25.226  40.784   8.250
 4080POPC   C3A13049  25.244  40.744   7.950
 4080POPC   C4A13050  25.223  40.816   7.650
 4080POPC   C1B13051  25.441  40.882   8.550
 4080POPC   C2B13052  25.461  40.889   8.250
 4080POPC   C3B13053  25.523  40.847   7.950
 4080POPC   C4B13054  25.452  40.872   7.650
 4081POPC   NC313055  15.177  26.027   9.450
 4081POPC   PO413056  15.193  26.058   9.150
 4081POPC   GL113057  15.229  26.076   8.850
 4081POPC   GL213058  15.202  25.970   8.850
 4081POPC   C1A13059  15.186  26.082   8.550
 4081POPC   D2A13060  15.228  26.036   8.250
 4081POPC   C3A13061  15.213  26.061   7.950
 4081POPC   C4A13062  15.186  26.078   7.650
 4081POPC   C1B13063  15.331  25.866   8.550
 4081POPC   C2B13064  15.302  25.786   8.250
 4081POPC   C3B13065  15.307  25.783   7.950
 4081POPC   C4B13066  15.329  25.782   7.650
 4082POPC   NC313067  29.132   1.962   9.450
 4082POPC   PO413068  29.109   2.032   9.150
 4082POPC   GL113069  29.117   2.017   8.850
 4082POPC   GL213070  29.268   2.020   8.850
 4082POPC   C1A13071  29.188   1.945   8.550
 4082POPC   D2A13072  29.166   1.991   8.250
 4082POPC   C3A13073  29.169   2.000   7.950
 4082POPC   C4A13074  29.145   2.005   7.650
 4082POPC   C1B13075  29.352   1.999   8.550
 4082POPC   C2B13076  29.370   2.056   8.250
 4082POPC   C3B13077  29.389   2.085   7.950
 4082POPC   C4B13078  29.366   2.047   7.650
 4083POPC   NC313079  32.283  12.059   9.450
 4083POPC   PO413080  32.269  12.064   9.150
 4083POPC   GL113081  32.288  12.087   8.850
 4083POPC   GL213082  32.279  11.962   8.850
 4083POPC   C1A13083  32.225  12.050   8.550
 4083POPC   D2A13084  32.285  12.055   8.250
 4083POPC   C3A13085  32.256  12.081   7.950
 4083POPC   C4A13086  32.242  12.060   7.650
 4083POPC   C1B13087  32.288  11.823   8.550
 4083POPC   C2B13088  32.281  11.788   8.250
 4083POPC   C3B13089  32.288  11.828   7.950
 4083POPC   C4B13090  32.254  11.787   7.650
 4084POPC   NC313091   5.078  26.060   9.450
 4084POPC   PO413092   5.054  26.076   9.150
 4084POPC   GL113093   5.053  26.074   8.850
 4084POPC   GL213094   5.195  26.126   8.850
 4084POPC   C1A13095   5.127  26.032   8.550
 4084POPC   D2A13096   5.093  26.052   8.250
 4084POPC   C3A13097   5.095  25.994   7.950
 4084POPC   C4A13098   5.084  26.010   7.650
 4084POPC   C1B13099   5.237  26.165   8.550
 4084POPC   C2B13100   5.254  26.220   8.250
 4084POPC   C3B13101   5.230  26.161   7.950
 4084POPC   C4B13102   5.269  26.248   7.650
 4085POPC   NC313103  31.424  22.195   9.450
 4085POPC   PO413104  31.515  22.168   9.150
 4085POPC   GL113105  31.501  22.181   8.850
 4085POPC   GL213106  31.571  22.263   8.850
 4085POPC   C1A13107  31.441  22.118   8.550
 4085POPC   D2A13108  31.517  22.137   8.250
 4085POPC   C3A13109  31.500  22.190   7.950
 4085POPC   C4A13110  31.522  22.196   7.650
 4085POPC   C1B13111  31.703  22.266   8.550
 4085POPC   C2B13112  31.672  22.302   8.250
 4085POPC   C3B13113  31.719  22.313   7.950
 4085POPC   C4B13114  31.674  22.279   7.650
 4086POPC   NC313115  27.606  42.301   9.450
 4086POPC   PO413116  27.547  42.364   9.150
 4086POPC   GL113117  27.561  42.334   8.850
 4086POPC   GL213118  27.532  42.421   8.850
 4086POPC   C1A13119  27.636  42.331   8.550
 4086POPC   D2A13120  27.554  42.302   8.250
 4086POPC   C3A13121  27.558  42.356   7.950
 4086POPC   C4A13122  27.616  42.311   7.650
 4086POPC   C1B13123  27.380  42.505   8.550
 4086POPC   C2B13124  27.432  42.554   8.250
 4086POPC   C3B13125  27.416  42.519   7.950
 4086POPC   C4B13126  27.420  42.477   7.650
 4087POPC   NC313127  27.621  40.763   9.450
 4087POPC   PO413128  27.550  40.788   9.150
 4087POPC   GL113129  27.601  40.807   8.850
 4087POPC   GL213130  27.591  40.888   8.850
 4087POPC   C1A13131  27.629  40.757   8.550
 4087POPC   D2A13132  27.562  40.781   8.250
 4087POPC   C3A13133  27.634  40.801   7.950
 4087POPC   C4A13134  27.633  40.756   7.650
 4087POPC   C1B13135  27.597  41.016   8.550
 4087POPC   C2B13136  27.592  40.993   8.250
 4087POPC   C3B13137  27.586  41.068   7.950
 4087POPC   C4B13138  27.631  41.007   7.650
 4088POPC   NC313139  20.622  22.174   9.450
 4088POPC   PO413140  20.655  22.203   9.150
 4088POPC   GL113141  20.642  22.168   8.850
 4088POPC   GL213142  20.759  22.140   8.850
 4088POPC   C1A13143  20.614  22.163   8.550
 4088POPC   D2A13144  20.589  22.140   8.250
 4088POPC   C3A13145  20.605  22.198   7.950
 4088POPC   C4A13146  20.566  22.202   7.650
 4088POPC   C1B13147  20.885  22.260   8.550
 4088POPC   C2B13148  20.854  22.241   8.250
 4088POPC   C3B13149  20.894  22.229   7.950
 4088POPC   C4B13150  20.834  22.247   7.650
 4089POPC   NC313151  13.645  19.797   9.450
 4089POPC   PO413152  13.591  19.871   9.150
 4089POPC   GL113153  13.618  19.804   8.850
 4089POPC   GL213154  13.621  19.668   8.850
 4089POPC   C1A13155  13.594  19.877   8.550
 4089POPC   D2A13156  13.676  19.806   8.250
 4089POPC   C3A13157  13.606  19.869   7.950
 4089POPC   C4A13158  13.661  19.822   7.650
 4089POPC   C1B13159  13.647  19.596   8.550
 4089POPC   C2B13160  13.707  19.618   8.250
 4089POPC   C3B13161  13.639  19.595   7.950
 4089POPC   C4B13162  13.737  19.554   7.650
 4090POPC   NC313163  27.565   6.642   9.450
 4090POPC   PO413164  27.602   6.674   9.150
 4090POPC   GL113165  27.571   6.636   8.850
 4090POPC   GL213166  27.583   6.764   8.850
 4090POPC   C1A13167  27.578   6.675   8.550
 4090POPC   D2A13168  27.592   6.626   8.250
 4090POPC   C3A13169  27.578   6.623   7.950
 4090POPC   C4A13170  27.551   6.610   7.650
 4090POPC   C1B13171  27.497   6.857   8.550
 4090POPC   C2B13172  27.477   6.891   8.250
 4090POPC   C3B13173  27.465   6.919   7.950
 4090POPC   C4B13174  27.494   6.902   7.650
 4091POPC   NC313175   1.213   9.790   9.450
 4091POPC   PO413176   1.174   9.764   9.150
 4091POPC   GL113177   1.218   9.773   8.850
 4091POPC   GL213178   1.308   9.724   8.850
 4091POPC   C1A13179   1.214   9.791   8.550
 4091POPC   D2A13180   1.244   9.767   8.250
 4091POPC   C3A13181   1.233   9.706   7.950
 4091POPC   C4A13182   1.222   9.794   7.650
 4091POPC   C1B13183   1.480   9.677   8.550
 4091POPC   C2B13184   1.470   9.641   8.250
 4091POPC   C3B13185   1.396   9.604   7.950
 4091POPC   C4B13186   1.412   9.640   7.650
 4092POPC   NC313187  43.070  27.635   9.450
 4092POPC   PO413188  43.146  27.553   9.150
 4092POPC   GL113189  43.075  27.567   8.850
 4092POPC   GL213190  43.037  27.519   8.850
 4092POPC   C1A13191  43.132  27.565   8.550
 4092POPC   D2A13192  43.134  27.630   8.250
 4092POPC   C3A13193  43.092  27.643   7.950
 4092POPC   C4A13194  43.133  27.610   7.650
 4092POPC   C1B13195  43.000  27.396   8.550
 4092POPC   C2B13196  43.002  27.331   8.250
 4092POPC   C3B13197  43.035  27.416   7.950
 4092POPC   C4B13198  43.003  27.399   7.650
 4093POPC   NC313199  39.984  43.110   9.450
 4093POPC   PO413200  39.975  43.106   9.150
 4093POPC   GL113201  40.003  43.070   8.850
 4093POPC   GL213202  39.854  43.124   8.850
 4093POPC   C1A13203  39.962  43.083   8.550
 4093POPC   D2A13204  39.989  43.081   8.250
 4093POPC   C3A13205  39.975  43.143   7.950
 4093POPC   C4A13206  40.009  43.099   7.650
 4093POPC   C1B13207  39.722  43.202   8.550
 4093POPC   C2B13208  39.728  43.192   8.250
 4093POPC   C3B13209  39.739  43.137   7.950
 4093POPC   C4B13210  39.738  43.162   7.650
 4094POPC   NC313211   9.798  26.843   9.450
 4094POPC   PO413212   9.786  26.775   9.150
 4094POPC   GL113213   9.792  26.829   8.850
 4094POPC   GL213214   9.841  26.880   8.850
 4094POPC   C1A13215   9.731  26.784   8.550
 4094POPC   D2A13216   9.724  26.808   8.250
 4094POPC   C3A13217   9.699  26.788   7.950
 4094POPC   C4A13218   9.788  26.803   7.650
 4094POPC   C1B13219   9.964  26.988   8.550
 4094POPC   C2B13220   9.916  26.962   8.250
 4094POPC   C3B13221   9.967  26.936   7.950
 4094POPC   C4B13222   9.912  26.933   7.650
 4095POPC   NC313223   5.055   2.005   9.450
 4095POPC   PO413224   5.072   1.962   9.150
 4095POPC   GL113225   5.134   1.968   8.850
 4095POPC   GL213226   5.032   1.926   8.850
 4095POPC   C1A13227   5.099   1.982   8.550
 4095POPC   D2A13228   5.085   2.032   8.250
 4095POPC   C3A13229   5.082   1.968   7.950
 4095POPC   C4A13230   5.089   1.979   7.650
 4095POPC   C1B13231   4.887   1.838   8.550
 4095POPC   C2B13232   4.904   1.763   8.250
 4095POPC   C3B13233   4.961   1.795   7.950
 4095POPC   C4B13234   4.917   1.810   7.650
 4096POPC   NC313235   1.185  24.527   9.450
 4096POPC   PO413236   1.165  24.450   9.150
 4096POPC   GL113237   1.236  24.468   8.850
 4096POPC   GL213238   1.340  24.432   8.850
 4096POPC   C1A13239   1.237  24.496   8.550
 4096POPC   D2A13240   1.203  24.488   8.250
 4096POPC   C3A13241   1.172  24.506   7.950
 4096POPC   C4A13242   1.255  24.461   7.650
 4096POPC   C1B13243   1.484  24.377   8.550
 4096POPC   C2B13244   1.504  24.383   8.250
 4096POPC   C3B13245   1.467  24.374   7.950
 4096POPC   C4B13246   1.437  24.438   7.650
 4097POPC   NC313247  36.933   9.726   9.450
 4097POPC   PO413248  36.873   9.782   9.150
 4097POPC   GL113249  36.860   9.721   8.850
 4097POPC   GL213250  36.928   9.661   8.850
 4097POPC   C1A13251  36.876   9.746   8.550
 4097POPC   D2A13252  36.940   9.705   8.250
 4097POPC   C3A13253  36.940   9.775   7.950
 4097POPC   C4A13254  36.943   9.755   7.650
 4097POPC   C1B13255  36.912   9.511   8.550
 4097POPC   C2B13256  36.933   9.518   8.250
 4097POPC   C3B13257  36.913   9.490   7.950
 4097POPC   C4B13258  36.955   9.516   7.650
 4098POPC   NC313259  42.300  30.662   9.450
 4098POPC   PO413260  42.289  30.687   9.150
 4098POPC   GL113261  42.320  30.688   8.850
 4098POPC   GL213262  42.400  30.644   8.850
 4098POPC   C1A13263  42.343  30.657   8.550
 4098POPC   D2A13264  42.334  30.713   8.250
 4098POPC   C3A13265  42.371  30.712   7.950
 4098POPC   C4A13266  42.337  30.697   7.650
 4098POPC   C1B13267  42.534  30.551   8.550
 4098POPC   C2B13268  42.571  30.524   8.250
 4098POPC   C3B13269  42.516  30.522   7.950
 4098POPC   C4B13270  42.585  30.525   7.650
 4099POPC   NC313271  19.025   1.239   9.450
 4099POPC   PO413272  19.059   1.181   9.150
 4099POPC   GL113273  19.058   1.199   8.850
 4099POPC   GL213274  19.210   1.201   8.850
 4099POPC   C1A13275  19.012   1.240   8.550
 4099POPC   D2A13276  19.075   1.193   8.250
 4099POPC   C3A13277  19.087   1.195   7.950
 4099POPC   C4A13278  19.031   1.235   7.650
 4099POPC   C1B13279  19.329   1.157   8.550
 4099POPC   C2B13280  19.270   1.128   8.250
 4099POPC   C3B13281  19.342   1.128   7.950
 4099POPC   C4B13282  19.322   1.171   7.650
 4100POPC   NC313283  44.676  24.493   9.450
 4100POPC   PO413284  44.662  24.476   9.150
 4100POPC   GL113285  44.644  24.460   8.850
 4100POPC   GL213286  44.603  24.368   8.850
 4100POPC   C1A13287  44.684  24.482   8.550
 4100POPC   D2A13288  44.663  24.535   8.250
 4100POPC   C3A13289  44.653  24.524   7.950
 4100POPC   C4A13290  44.704  24.470   7.650
 4100POPC   C1B13291  44.470  24.284   8.550
 4100POPC   C2B13292  44.517  24.287   8.250
 4100POPC   C3B13293  44.530  24.352   7.950
 4100POPC   C4B13294  44.523  24.337   7.650
 4101POPC   NC313295  33.843  33.048   9.450
 4101POPC   PO413296  33.831  32.996   9.150
 4101POPC   GL113297  33.779  33.019   8.850
 4101POPC   GL213298  33.940  32.910   8.850
 4101POPC   C1A13299  33.753  33.007   8.550
 4101POPC   D2A13300  33.833  33.059   8.250
 4101POPC   C3A13301  33.850  33.048   7.950
 4101POPC   C4A13302  33.842  33.044   7.650
 4101POPC   C1B13303  33.982  32.884   8.550
 4101POPC   C2B13304  34.039  32.841   8.250
 4101POPC   C3B13305  33.997  32.881   7.950
 4101POPC   C4B13306  33.987  32.829   7.650
 4102POPC   NC313307  43.925  12.810   9.450
 4102POPC   PO413308  43.886  12.900   9.150
 4102POPC   GL113309  43.934  12.824   8.850
 4102POPC   GL213310  43.752  12.897   8.850
 4102POPC   C1A13311  43.936  12.806   8.550
 4102POPC   D2A13312  43.861  12.854   8.250
 4102POPC   C3A13313  43.933  12.866   7.950
 4102POPC   C4A13314  43.909  12.864   7.650
 4102POPC   C1B13315  43.593  12.893   8.550
 4102POPC   C2B13316  43.674  12.911   8.250
 4102POPC   C3B13317  43.616  12.892   7.950
 4102POPC   C4B13318  43.667  12.889   7.650
 4103POPC   NC313319  25.297  42.372   9.450
 4103POPC   PO413320  25.313  42.313   9.150
 4103POPC   GL113321  25.245  42.353   8.850
 4103POPC   GL213322  25.243  42.229   8.850
 4103POPC   C1A13323  25.234  42.310   8.550
 4103POPC   D2A13324  25.286  42.368   8.250
 4103POPC   C3A13325  25.264  42.381   7.950
 4103POPC   C4A13326  25.276  42.337   7.650
 4103POPC   C1B13327  25.287  42.059   8.550
 4103POPC   C2B13328  25.288  42.103   8.250
 4103POPC   C3B13329  25.293  42.092   7.950
 4103POPC   C4B13330  25.269  42.070   7.650
 4104POPC   NC313331   3.555  44.697   9.450
 4104POPC   PO413332   3.498  44.657   9.150
 4104POPC   GL113333   3.583  44.649   8.850
 4104POPC   GL213334   3.508  44.768   8.850
 4104POPC   C1A13335   3.522  44.660   8.550
 4104POPC   D2A13336   3.551  44.636   8.250
 4104POPC   C3A13337   3.533  44.641   7.950
 4104POPC   C4A13338   3.548  44.663   7.650
 4104POPC   C1B13339   3.415  44.884   8.550
 4104POPC   C2B13340   3.414  44.926   8.250
 4104POPC   C3B13341   3.406  44.914   7.950
 4104POPC   C4B13342   3.435  44.846   7.650
 4105POPC   NC313343  18.320  14.420   9.450
 4105POPC   PO413344  18.237  14.370   9.150
 4105POPC   GL113345  18.320  14.359   8.850
 4105POPC   GL213346  18.227  14.535   8.850
 4105POPC   C1A13347  18.256  14.359   8.550
 4105POPC   D2A13348  18.286  14.370   8.250
 4105POPC   C3A13349  18.248  14.405   7.950
 4105POPC   C4A13350  18.319  14.415   7.650
 4105POPC   C1B13351  18.164  14.629   8.550
 4105POPC   C2B13352  18.167  14.676   8.250
 4105POPC   C3B13353  18.187  14.662   7.950
 4105POPC   C4B13354  18.243  14.605   7.650
 4106POPC   NC313355   5.835  29.101   9.450
 4106POPC   PO413356   5.822  29.124   9.150
 4106POPC   GL113357   5.907  29.119   8.850
 4106POPC   GL213358   5.764  29.057   8.850
 4106POPC   C1A13359   5.902  29.100   8.550
 4106POPC   D2A13360   5.867  29.126   8.250
 4106POPC   C3A13361   5.900  29.133   7.950
 4106POPC   C4A13362   5.840  29.136   7.650
 4106POPC   C1B13363   5.746  28.963   8.550
 4106POPC   C2B13364   5.695  28.975   8.250
 4106POPC   C3B13365   5.696  28.970   7.950
 4106POPC   C4B13366   5.752  28.984   7.650
 4107POPC   NC313367  34.545  24.515   9.450
 4107POPC   PO413368  34.558  24.510   9.150
 4107POPC   GL113369  34.559  24.532   8.850
 4107POPC   GL213370  34.441  24.533   8.850
 4107POPC   C1A13371  34.614  24.498   8.550
 4107POPC   D2A13372  34.540  24.505   8.250
 4107POPC   C3A13373  34.601  24.509   7.950
 4107POPC   C4A13374  34.614  24.486   7.650
 4107POPC   C1B13375  34.376  24.579   8.550
 4107POPC   C2B13376  34.354  24.648   8.250
 4107POPC   C3B13377  34.368  24.626   7.950
 4107POPC   C4B13378  34.387  24.646   7.650
 4108POPC   NC313379  10.531  39.270   9.450
 4108POPC   PO413380  10.491  39.280   9.150
 4108POPC   GL113381  10.513  39.184   8.850
 4108POPC   GL213382  10.672  39.265   8.850
 4108POPC   C1A13383  10.478  39.233   8.550
 4108POPC   D2A13384  10.553  39.276   8.250
 4108POPC   C3A13385  10.480  39.190   7.950
 4108POPC   C4A13386  10.500  39.195   7.650
 4108POPC   C1B13387  10.697  39.366   8.550
 4108POPC   C2B13388  10.727  39.389   8.250
 4108POPC   C3B13389  10.746  39.384   7.950
 4108POPC   C4B13390  10.767  39.374   7.650
 4109POPC   NC313391  21.422   8.964   9.450
 4109POPC   PO413392  21.424   8.980   9.150
 4109POPC   GL113393  21.373   8.973   8.850
 4109POPC   GL213394  21.344   9.048   8.850
 4109POPC   C1A13395  21.394   8.966   8.550
 4109POPC   D2A13396  21.415   8.995   8.250
 4109POPC   C3A13397  21.371   8.934   7.950
 4109POPC   C4A13398  21.355   8.974   7.650
 4109POPC   C1B13399  21.298   9.171   8.550
 4109POPC   C2B13400  21.241   9.196   8.250
 4109POPC   C3B13401  21.231   9.174   7.950
 4109POPC   C4B13402  21.278   9.237   7.650
 4110POPC   NC313403  43.865   2.813   9.450
 4110POPC   PO413404  43.930   2.721   9.150
 4110POPC   GL113405  43.931   2.748   8.850
 4110POPC   GL213406  43.958   2.657   8.850
 4110POPC   C1A13407  43.918   2.743   8.550
 4110POPC   D2A13408  43.838   2.723   8.250
 4110POPC   C3A13409  43.892   2.807   7.950
 4110POPC   C4A13410  43.897   2.790   7.650
 4110POPC   C1B13411  44.000   2.595   8.550
 4110POPC   C2B13412  44.024   2.555   8.250
 4110POPC   C3B13413  44.028   2.589   7.950
 4110POPC   C4B13414  44.032   2.516   7.650
 4111POPC   NC313415   7.424   8.176   9.450
 4111POPC   PO413416   7.459   8.183   9.150
 4111POPC   GL113417   7.390   8.225   8.850
 4111POPC   GL213418   7.385   8.101   8.850
 4111POPC   C1A13419   7.376   8.160   8.550
 4111POPC   D2A13420   7.424   8.223   8.250
 4111POPC   C3A13421   7.454   8.222   7.950
 4111POPC   C4A13422   7.453   8.168   7.650
 4111POPC   C1B13423   7.290   8.042   8.550
 4111POPC   C2B13424   7.238   7.974   8.250
 4111POPC   C3B13425   7.271   7.996   7.950
 4111POPC   C4B13426   7.255   7.962   7.650
 4112POPC   NC313427   0.462  24.491   9.450
 4112POPC   PO413428   0.405  24.507   9.150
 4112POPC   GL113429   0.420  24.537   8.850
 4112POPC   GL213430   0.455  24.639   8.850
 4112POPC   C1A13431   0.478  24.536   8.550
 4112POPC   D2A13432   0.398  24.487   8.250
 4112POPC   C3A13433   0.440  24.524   7.950
 4112POPC   C4A13434   0.402  24.492   7.650
 4112POPC   C1B13435   0.439  24.704   8.550
 4112POPC   C2B13436   0.452  24.745   8.250
 4112POPC   C3B13437   0.449  24.720   7.950
 4112POPC   C4B13438   0.404  24.716   7.650
 4113POPC   NC313439  22.188  32.252   9.450
 4113POPC   PO413440  22.119  32.243   9.150
 4113POPC   GL113441  22.201  32.243   8.850
 4113POPC   GL213442  22.221  32.315   8.850
 4113POPC   C1A13443  22.125  32.275   8.550
 4113POPC   D2A13444  22.159  32.259   8.250
 4113POPC   C3A13445  22.123  32.293   7.950
 4113POPC   C4A13446  22.129  32.261   7.650
 4113POPC   C1B13447  22.236  32.444   8.550
 4113POPC   C2B13448  22.237  32.502   8.250
 4113POPC   C3B13449  22.295  32.427   7.950
 4113POPC   C4B13450  22.232  32.421   7.650
 4114POPC   NC313451   0.398   5.119   9.450
 4114POPC   PO413452   0.481   5.068   9.150
 4114POPC   GL113453   0.452   5.138   8.850
 4114POPC   GL213454   0.541   5.023   8.850
 4114POPC   C1A13455   0.389   5.131   8.550
 4114POPC   D2A13456   0.398   5.065   8.250
 4114POPC   C3A13457   0.473   5.101   7.950
 4114POPC   C4A13458   0.460   5.137   7.650
 4114POPC   C1B13459   0.704   4.996   8.550
 4114POPC   C2B13460   0.715   4.987   8.250
 4114POPC   C3B13461   0.642   5.028   7.950
 4114POPC   C4B13462   0.661   5.035   7.650
 4115POPC   NC313463  36.936  44.617   9.450
 4115POPC   PO413464  36.939  44.685   9.150
 4115POPC   GL113465  36.915  44.711   8.850
 4115POPC   GL213466  36.760  44.624   8.850
 4115POPC   C1A13467  36.885  44.667   8.550
 4115POPC   D2A13468  36.881  44.704   8.250
 4115POPC   C3A13469  36.914  44.686   7.950
 4115POPC   C4A13470  36.887  44.658   7.650
 4115POPC   C1B13471  36.710  44.563   8.550
 4115POPC   C2B13472  36.622  44.544   8.250
 4115POPC   C3B13473  36.714  44.552   7.950
 4115POPC   C4B13474  36.708  44.558   7.650
 4116POPC   NC313475   9.716  31.465   9.450
 4116POPC   PO413476   9.705  31.519   9.150
 4116POPC   GL113477   9.710  31.423   8.850
 4116POPC   GL213478   9.637  31.549   8.850
 4116POPC   C1A13479   9.727  31.483   8.550
 4116POPC   D2A13480   9.753  31.457   8.250
 4116POPC   C3A13481   9.737  31.518   7.950
 4116POPC   C4A13482   9.719  31.489   7.650
 4116POPC   C1B13483   9.564  31.614   8.550
 4116POPC   C2B13484   9.581  31.553   8.250
 4116POPC   C3B13485   9.496  31.638   7.950
 4116POPC   C4B13486   9.568  31.588   7.650
 4117POPC   NC313487  18.305  32.258   9.450
 4117POPC   PO413488  18.274  32.199   9.150
 4117POPC   GL113489  18.267  32.218   8.850
 4117POPC   GL213490  18.347  32.137   8.850
 4117POPC   C1A13491  18.329  32.291   8.550
 4117POPC   D2A13492  18.290  32.202   8.250
 4117POPC   C3A13493  18.279  32.243   7.950
 4117POPC   C4A13494  18.298  32.227   7.650
 4117POPC   C1B13495  18.360  31.981   8.550
 4117POPC   C2B13496  18.352  32.023   8.250
 4117POPC   C3B13497  18.407  32.049   7.950
 4117POPC   C4B13498  18.376  32.006   7.650
 4118POPC   NC313499  25.223   5.055   9.450
 4118POPC   PO413500  25.284   5.127   9.150
 4118POPC   GL113501  25.268   5.120   8.850
 4118POPC   GL213502  25.403   5.068   8.850
 4118POPC   C1A13503  25.242   5.132   8.550
 4118POPC   D2A13504  25.250   5.109   8.250
 4118POPC   C3A13505  25.289   5.135   7.950
 4118POPC   C4A13506  25.285   5.130   7.650
 4118POPC   C1B13507  25.487   4.936   8.550
 4118POPC   C2B13508  25.431   4.937   8.250
 4118POPC   C3B13509  25.464   4.958   7.950
 4118POPC   C4B13510  25.524   4.989   7.650
 4119POPC   NC313511  41.524   8.157   9.450
 4119POPC   PO413512  41.531   8.167   9.150
 4119POPC   GL113513  41.565   8.168   8.850
 4119POPC   GL213514  41.416   8.126   8.850
 4119POPC   C1A13515  41.541   8.186   8.550
 4119POPC   D2A13516  41.586   8.227   8.250
 4119POPC   C3A13517  41.582   8.203   7.950
 4119POPC   C4A13518  41.535   8.243   7.650
 4119POPC   C1B13519  41.405   8.056   8.550
 4119POPC   C2B13520  41.368   8.004   8.250
 4119POPC   C3B13521  41.347   8.044   7.950
 4119POPC   C4B13522  41.356   7.989   7.650
 4120POPC   NC313523   3.566  26.827   9.450
 4120POPC   PO413524   3.574  26.824   9.150
 4120POPC   GL113525   3.536  26.846   8.850
 4120POPC   GL213526   3.478  26.933   8.850
 4120POPC   C1A13527   3.527  26.793   8.550
 4120POPC   D2A13528   3.503  26.807   8.250
 4120POPC   C3A13529   3.500  26.785   7.950
 4120POPC   C4A13530   3.530  26.803   7.650
 4120POPC   C1B13531   3.395  27.064   8.550
 4120POPC   C2B13532   3.429  26.992   8.250
 4120POPC   C3B13533   3.434  27.008   7.950
 4120POPC   C4B13534   3.413  27.022   7.650
 4121POPC   NC313535  14.424  23.720   9.450
 4121POPC   PO413536  14.390  23.682   9.150
 4121POPC   GL113537  14.358  23.731   8.850
 4121POPC   GL213538  14.524  23.614   8.850
 4121POPC   C1A13539  14.405  23.672   8.550
 4121POPC   D2A13540  14.420  23.723   8.250
 4121POPC   C3A13541  14.408  23.734   7.950
 4121POPC   C4A13542  14.403  23.665   7.650
 4121POPC   C1B13543  14.575  23.476   8.550
 4121POPC   C2B13544  14.524  23.498   8.250
 4121POPC   C3B13545  14.552  23.561   7.950
 4121POPC   C4B13546  14.560  23.560   7.650
 4122POPC   NC313547   1.224   2.039   9.450
 4122POPC   PO413548   1.205   2.025   9.150
 4122POPC   GL113549   1.169   1.976   8.850
 4122POPC   GL213550   1.200   2.074   8.850
 4122POPC   C1A13551   1.211   1.975   8.550
 4122POPC   D2A13552   1.252   1.980   8.250
 4122POPC   C3A13553   1.247   2.001   7.950
 4122POPC   C4A13554   1.228   1.962   7.650
 4122POPC   C1B13555   1.093   2.187   8.550
 4122POPC   C2B13556   1.175   2.196   8.250
 4122POPC   C3B13557   1.171   2.228   7.950
 4122POPC   C4B13558   1.126   2.259   7.650
 4123POPC   NC313559  22.920  17.555   9.450
 4123POPC   PO413560  22.889  17.462   9.150
 4123POPC   GL113561  22.960  17.534   8.850
 4123POPC   GL213562  22.956  17.386   8.850
 4123POPC   C1A13563  22.955  17.528   8.550
 4123POPC   D2A13564  22.933  17.513   8.250
 4123POPC   C3A13565  22.942  17.472   7.950
 4123POPC   C4A13566  22.934  17.545   7.650
 4123POPC   C1B13567  22.922  17.233   8.550
 4123POPC   C2B13568  22.911  17.307   8.250
 4123POPC   C3B13569  22.878  17.222   7.950
 4123POPC   C4B13570  22.889  17.219   7.650
 4124POPC   NC313571   9.725   8.164   9.450
 4124POPC   PO413572   9.780   8.177   9.150
 4124POPC   GL113573   9.746   8.240   8.850
 4124POPC   GL213574   9.751   8.041   8.850
 4124POPC   C1A13575   9.768   8.155   8.550
 4124POPC   D2A13576   9.758   8.172   8.250
 4124POPC   C3A13577   9.761   8.154   7.950
 4124POPC   C4A13578   9.727   8.218   7.650
 4124POPC   C1B13579   9.713   7.960   8.550
 4124POPC   C2B13580   9.656   7.929   8.250
 4124POPC   C3B13581   9.696   7.978   7.950
 4124POPC   C4B13582   9.669   7.993   7.650
 4125POPC   NC313583  30.660  19.093   9.450
 4125POPC   PO413584  30.735  19.052   9.150
 4125POPC   GL113585  30.703  19.084   8.850
 4125POPC   GL213586  30.856  18.983   8.850
 4125POPC   C1A13587  30.650  19.076   8.550
 4125POPC   D2A13588  30.661  19.030   8.250
 4125POPC   C3A13589  30.707  19.062   7.950
 4125POPC   C4A13590  30.674  19.056   7.650
 4125POPC   C1B13591  30.908  18.979   8.550
 4125POPC   C2B13592  30.892  19.030   8.250
 4125POPC   C3B13593  30.967  19.011   7.950
 4125POPC   C4B13594  30.989  19.005   7.650
 4126POPC   NC313595  18.298  44.651   9.450
 4126POPC   PO413596  18.254  44.664   9.150
 4126POPC   GL113597  18.326  44.630   8.850
 4126POPC   GL213598  18.173  44.631   8.850
 4126POPC   C1A13599  18.268  44.653   8.550
 4126POPC   D2A13600  18.316  44.708   8.250
 4126POPC   C3A13601  18.244  44.659   7.950
 4126POPC   C4A13602  18.234  44.649   7.650
 4126POPC   C1B13603  18.091  44.524   8.550
 4126POPC   C2B13604  18.073  44.545   8.250
 4126POPC   C3B13605  18.025  44.544   7.950
 4126POPC   C4B13606  18.102  44.596   7.650
 4127POPC   NC313607  37.646  40.023   9.450
 4127POPC   PO413608  37.681  39.975   9.150
 4127POPC   GL113609  37.646  40.029   8.850
 4127POPC   GL213610  37.665  39.887   8.850
 4127POPC   C1A13611  37.702  39.988   8.550
 4127POPC   D2A13612  37.716  40.022   8.250
 4127POPC   C3A13613  37.692  39.964   7.950
 4127POPC   C4A13614  37.703  40.001   7.650
 4127POPC   C1B13615  37.728  39.784   8.550
 4127POPC   C2B13616  37.727  39.771   8.250
 4127POPC   C3B13617  37.731  39.806   7.950
 4127POPC   C4B13618  37.706  39.777   7.650
 4128POPC   NC313619  17.463  35.329   9.450
 4128POPC   PO413620  17.501  35.387   9.150
 4128POPC   GL113621  17.484  35.370   8.850
 4128POPC   GL213622  17.570  35.364   8.850
 4128POPC   C1A13623  17.539  35.322   8.550
 4128POPC   D2A13624  17.481  35.380   8.250
 4128POPC   C3A13625  17.518  35.311   7.950
 4128POPC   C4A13626  17.493  35.342   7.650
 4128POPC   C1B13627  17.752  35.478   8.550
 4128POPC   C2B13628  17.712  35.449   8.250
 4128POPC   C3B13629  17.714  35.439   7.950
 4128POPC   C4B13630  17.678  35.436   7.650
 4129POPC   NC313631   0.392  26.840   9.450
 4129POPC   PO413632   0.419  26.777   9.150
 4129POPC   GL113633   0.460  26.857   8.850
 4129POPC   GL213634   0.406  26.931   8.850
 4129POPC   C1A13635   0.449  26.827   8.550
 4129POPC   D2A13636   0.476  26.785   8.250
 4129POPC   C3A13637   0.414  26.784   7.950
 4129POPC   C4A13638   0.434  26.794   7.650
 4129POPC   C1B13639   0.301  26.992   8.550
 4129POPC   C2B13640   0.266  26.977   8.250
 4129POPC   C3B13641   0.318  27.037   7.950
 4129POPC   C4B13642   0.308  27.025   7.650
 4130POPC   NC313643  14.381  26.016   9.450
 4130POPC   PO413644  14.451  26.070   9.150
 4130POPC   GL113645  14.418  26.012   8.850
 4130POPC   GL213646  14.489  26.091   8.850
 4130POPC   C1A13647  14.399  26.023   8.550
 4130POPC   D2A13648  14.416  26.059   8.250
 4130POPC   C3A13649  14.433  26.004   7.950
 4130POPC   C4A13650  14.422  26.012   7.650
 4130POPC   C1B13651  14.676  26.126   8.550
 4130POPC   C2B13652  14.657  26.185   8.250
 4130POPC   C3B13653  14.656  26.136   7.950
 4130POPC   C4B13654  14.606  26.140   7.650
 4131POPC   NC313655  28.404  32.983   9.450
 4131POPC   PO413656  28.356  33.059   9.150
 4131POPC   GL113657  28.411  33.003   8.850
 4131POPC   GL213658  28.393  33.149   8.850
 4131POPC   C1A13659  28.326  33.052   8.550
 4131POPC   D2A13660  28.332  33.009   8.250
 4131POPC   C3A13661  28.333  32.996   7.950
 4131POPC   C4A13662  28.384  33.024   7.650
 4131POPC   C1B13663  28.495  33.277   8.550
 4131POPC   C2B13664  28.488  33.196   8.250
 4131POPC   C3B13665  28.525  33.257   7.950
 4131POPC   C4B13666  28.480  33.264   7.650
 4132POPC   NC313667   1.974  26.808   9.450
 4132POPC   PO413668   1.977  26.833   9.150
 4132POPC   GL113669   1.985  26.831   8.850
 4132POPC   GL213670   1.982  26.956   8.850
 4132POPC   C1A13671   1.999  26.787   8.550
 4132POPC   D2A13672   1.999  26.832   8.250
 4132POPC   C3A13673   1.979  26.854   7.950
 4132POPC   C4A13674   1.974  26.795   7.650
 4132POPC   C1B13675   1.913  27.072   8.550
 4132POPC   C2B13676   1.963  27.047   8.250
 4132POPC   C3B13677   1.904  27.063   7.950
 4132POPC   C4B13678   1.887  27.021   7.650
 4133POPC   NC313679  21.369  40.051   9.450
 4133POPC   PO413680  21.397  40.039   9.150
 4133POPC   GL113681  21.421  40.053   8.850
 4133POPC   GL213682  21.313  40.096   8.850
 4133POPC   C1A13683  21.349  40.016   8.550
 4133POPC   D2A13684  21.423  40.053   8.250
 4133POPC   C3A13685  21.431  40.002   7.950
 4133POPC   C4A13686  21.429  40.026   7.650
 4133POPC   C1B13687  21.323  40.263   8.550
 4133POPC   C2B13688  21.290  40.210   8.250
 4133POPC   C3B13689  21.298  40.235   7.950
 4133POPC   C4B13690  21.362  40.282   7.650
 4134POPC   NC313691  40.811  10.549   9.450
 4134POPC   PO413692  40.788  10.490   9.150
 4134POPC   GL113693  40.781  10.476   8.850
 4134POPC   GL213694  40.764  10.685   8.850
 4134POPC   C1A13695  40.768  10.554   8.550
 4134POPC   D2A13696  40.780  10.498   8.250
 4134POPC   C3A13697  40.768  10.523   7.950
 4134POPC   C4A13698  40.782  10.557   7.650
 4134POPC   C1B13699  40.716  10.709   8.550
 4134POPC   C2B13700  40.638  10.735   8.250
 4134POPC   C3B13701  40.727  10.737   7.950
 4134POPC   C4B13702  40.650  10.727   7.650
 4135POPC   NC313703  28.353   2.789   9.450
 4135POPC   PO413704  28.352   2.736   9.150
 4135POPC   GL113705  28.395   2.768   8.850
 4135POPC   GL213706  28.462   2.811   8.850
 4135POPC   C1A13707  28.408   2.754   8.550
 4135POPC   D2A13708  28.337   2.768   8.250
 4135POPC   C3A13709  28.334   2.757   7.950
 4135POPC   C4A13710  28.360   2.763   7.650
 4135POPC   C1B13711  28.569   2.761   8.550
 4135POPC   C2B13712  28.642   2.778   8.250
 4135POPC   C3B13713  28.636   2.786   7.950
 4135POPC   C4B13714  28.572   2.827   7.650
 4136POPC   NC313715   5.843  32.985   9.450
 4136POPC   PO413716   5.850  33.044   9.150
 4136POPC   GL113717   5.826  32.988   8.850
 4136POPC   GL213718   5.761  33.069   8.850
 4136POPC   C1A13719   5.850  32.978   8.550
 4136POPC   D2A13720   5.821  33.016   8.250
 4136POPC   C3A13721   5.879  33.061   7.950
 4136POPC   C4A13722   5.917  33.030   7.650
 4136POPC   C1B13723   5.657  33.210   8.550
 4136POPC   C2B13724   5.680  33.178   8.250
 4136POPC   C3B13725   5.655  33.137   7.950
 4136POPC   C4B13726   5.652  33.117   7.650
 4137POPC   NC313727  18.262  22.128   9.450
 4137POPC   PO413728  18.248  22.185   9.150
 4137POPC   GL113729  18.333  22.174   8.850
 4137POPC   GL213730  18.277  22.008   8.850
 4137POPC   C1A13731  18.253  22.133   8.550
 4137POPC   D2A13732  18.236  22.189   8.250
 4137POPC   C3A13733  18.257  22.126   7.950
 4137POPC   C4A13734  18.244  22.165   7.650
 4137POPC   C1B13735  18.337  21.904   8.550
 4137POPC   C2B13736  18.301  21.918   8.250
 4137POPC   C3B13737  18.348  21.922   7.950
 4137POPC   C4B13738  18.363  21.902   7.650
 4138POPC   NC313739   8.974  20.570   9.450
 4138POPC   PO413740   8.998  20.630   9.150
 4138POPC   GL113741   8.996  20.591   8.850
 4138POPC   GL213742   8.992  20.744   8.850
 4138POPC   C1A13743   8.974  20.601   8.550
 4138POPC   D2A13744   8.979  20.597   8.250
 4138POPC   C3A13745   8.954  20.583   7.950
 4138POPC   C4A13746   8.953  20.583   7.650
 4138POPC   C1B13747   9.050  20.877   8.550
 4138POPC   C2B13748   9.019  20.846   8.250
 4138POPC   C3B13749   9.046  20.856   7.950
 4138POPC   C4B13750   9.013  20.883   7.650
 4139POPC   NC313751  42.324  23.761   9.450
 4139POPC   PO413752  42.321  23.710   9.150
 4139POPC   GL113753  42.300  23.677   8.850
 4139POPC   GL213754  42.219  23.778   8.850
 4139POPC   C1A13755  42.293  23.744   8.550
 4139POPC   D2A13756  42.379  23.676   8.250
 4139POPC   C3A13757  42.310  23.751   7.950
 4139POPC   C4A13758  42.288  23.758   7.650
 4139POPC   C1B13759  42.186  23.861   8.550
 4139POPC   C2B13760  42.181  23.922   8.250
 4139POPC   C3B13761  42.190  23.868   7.950
 4139POPC   C4B13762  42.152  23.958   7.650
 4140POPC   NC313763  36.146  29.190   9.450
 4140POPC   PO413764  36.079  29.160   9.150
 4140POPC   GL113765  36.113  29.162   8.850
 4140POPC   GL213766  36.038  29.177   8.850
 4140POPC   C1A13767  36.142  29.119   8.550
 4140POPC   D2A13768  36.113  29.168   8.250
 4140POPC   C3A13769  36.096  29.144   7.950
 4140POPC   C4A13770  36.170  29.124   7.650
 4140POPC   C1B13771  35.921  29.128   8.550
 4140POPC   C2B13772  35.833  29.106   8.250
 4140POPC   C3B13773  35.858  29.065   7.950
 4140POPC   C4B13774  35.879  29.144   7.650
 4141POPC   NC313775  43.129  25.232   9.450
 4141POPC   PO413776  43.154  25.306   9.150
 4141POPC   GL113777  43.151  25.298   8.850
 4141POPC   GL213778  42.960  25.223   8.850
 4141POPC   C1A13779  43.096  25.217   8.550
 4141POPC   D2A13780  43.065  25.256   8.250
 4141POPC   C3A13781  43.150  25.234   7.950
 4141POPC   C4A13782  43.121  25.265   7.650
 4141POPC   C1B13783  42.937  25.156   8.550
 4141POPC   C2B13784  42.934  25.098   8.250
 4141POPC   C3B13785  42.928  25.140   7.950
 4141POPC   C4B13786  42.930  25.141   7.650
 4142POPC   NC313787   3.585  28.405   9.450
 4142POPC   PO413788   3.524  28.406   9.150
 4142POPC   GL113789   3.576  28.370   8.850
 4142POPC   GL213790   3.518  28.263   8.850
 4142POPC   C1A13791   3.500  28.371   8.550
 4142POPC   D2A13792   3.503  28.370   8.250
 4142POPC   C3A13793   3.508  28.416   7.950
 4142POPC   C4A13794   3.541  28.332   7.650
 4142POPC   C1B13795   3.507  28.109   8.550
 4142POPC   C2B13796   3.550  28.145   8.250
 4142POPC   C3B13797   3.522  28.154   7.950
 4142POPC   C4B13798   3.506  28.082   7.650
 4143POPC   NC313799  26.001  26.063   9.450
 4143POPC   PO413800  26.051  26.080   9.150
 4143POPC   GL113801  26.020  26.011   8.850
 4143POPC   GL213802  25.920  26.184   8.850
 4143POPC   C1A13803  26.000  26.046   8.550
 4143POPC   D2A13804  26.090  26.001   8.250
 4143POPC   C3A13805  26.078  26.036   7.950
 4143POPC   C4A13806  26.009  26.080   7.650
 4143POPC   C1B13807  25.870  26.225   8.550
 4143POPC   C2B13808  25.882  26.230   8.250
 4143POPC   C3B13809  25.886  26.203   7.950
 4143POPC   C4B13810  25.941  26.223   7.650
 4144POPC   NC313811  37.699  17.540   9.450
 4144POPC   PO413812  37.695  17.530   9.150
 4144POPC   GL113813  37.669  17.465   8.850
 4144POPC   GL213814  37.802  17.432   8.850
 4144POPC   C1A13815  37.678  17.513   8.550
 4144POPC   D2A13816  37.641  17.552   8.250
 4144POPC   C3A13817  37.645  17.457   7.950
 4144POPC   C4A13818  37.712  17.480   7.650
 4144POPC   C1B13819  37.917  17.417   8.550
 4144POPC   C2B13820  37.878  17.363   8.250
 4144POPC   C3B13821  37.914  17.419   7.950
 4144POPC   C4B13822  37.911  17.396   7.650
 4145POPC   NC313823   7.408   2.717   9.450
 4145POPC   PO413824   7.427   2.764   9.150
 4145POPC   GL113825   7.459   2.787   8.850
 4145POPC   GL213826   7.278   2.827   8.850
 4145POPC   C1A13827   7.432   2.809   8.550
 4145POPC   D2A13828   7.382   2.744   8.250
 4145POPC   C3A13829   7.431   2.794   7.950
 4145POPC   C4A13830   7.419   2.745   7.650
 4145POPC   C1B13831   7.156   2.827   8.550
 4145POPC   C2B13832   7.173   2.822   8.250
 4145POPC   C3B13833   7.188   2.846   7.950
 4145POPC   C4B13834   7.184   2.849   7.650
 4146POPC   NC313835   7.387  18.311   9.450
 4146POPC   PO413836   7.457  18.262   9.150
 4146POPC   GL113837   7.385  18.248   8.850
 4146POPC   GL213838   7.492  18.193   8.850
 4146POPC   C1A13839   7.448  18.263   8.550
 4146POPC   D2A13840   7.454  18.316   8.250
 4146POPC   C3A13841   7.460  18.308   7.950
 4146POPC   C4A13842   7.374  18.315   7.650
 4146POPC   C1B13843   7.433  18.005   8.550
 4146POPC   C2B13844   7.487  18.005   8.250
 4146POPC   C3B13845   7.523  18.075   7.950
 4146POPC   C4B13846   7.469  18.078   7.650
 4147POPC   NC313847  12.858  21.380   9.450
 4147POPC   PO413848  12.832  21.377   9.150
 4147POPC   GL113849  12.886  21.348   8.850
 4147POPC   GL213850  12.891  21.492   8.850
 4147POPC   C1A13851  12.859  21.370   8.550
 4147POPC   D2A13852  12.897  21.430   8.250
 4147POPC   C3A13853  12.850  21.401   7.950
 4147POPC   C4A13854  12.868  21.369   7.650
 4147POPC   C1B13855  13.005  21.584   8.550
 4147POPC   C2B13856  13.020  21.570   8.250
 4147POPC   C3B13857  12.974  21.618   7.950
 4147POPC   C4B13858  13.035  21.634   7.650
 4148POPC   NC313859  29.887   8.186   9.450
 4148POPC   PO413860  29.951   8.160   9.150
 4148POPC   GL113861  29.959   8.210   8.850
 4148POPC   GL213862  29.800   8.110   8.850
 4148POPC   C1A13863  29.916   8.150   8.550
 4148POPC   D2A13864  29.913   8.235   8.250
 4148POPC   C3A13865  29.938   8.231   7.950
 4148POPC   C4A13866  29.877   8.218   7.650
 4148POPC   C1B13867  29.735   8.004   8.550
 4148POPC   C2B13868  29.735   8.018   8.250
 4148POPC   C3B13869  29.722   7.960   7.950
 4148POPC   C4B13870  29.763   7.984   7.650
 4149POPC   NC313871   3.530  15.988   9.450
 4149POPC   PO413872   3.510  15.923   9.150
 4149POPC   GL113873   3.560  15.945   8.850
 4149POPC   GL213874   3.461  15.981   8.850
 4149POPC   C1A13875   3.576  15.974   8.550
 4149POPC   D2A13876   3.521  15.915   8.250
 4149POPC   C3A13877   3.546  15.937   7.950
 4149POPC   C4A13878   3.549  15.914   7.650
 4149POPC   C1B13879   3.326  16.015   8.550
 4149POPC   C2B13880   3.273  16.007   8.250
 4149POPC   C3B13881   3.337  16.099   7.950
 4149POPC   C4B13882   3.323  16.045   7.650
 4150POPC   NC313883  27.620  38.408   9.450
 4150POPC   PO413884  27.566  38.437   9.150
 4150POPC   GL113885  27.565  38.439   8.850
 4150POPC   GL213886  27.707  38.388   8.850
 4150POPC   C1A13887  27.630  38.503   8.550
 4150POPC   D2A13888  27.553  38.503   8.250
 4150POPC   C3A13889  27.557  38.504   7.950
 4150POPC   C4A13890  27.632  38.485   7.650
 4150POPC   C1B13891  27.748  38.256   8.550
 4150POPC   C2B13892  27.784  38.284   8.250
 4150POPC   C3B13893  27.780  38.333   7.950
 4150POPC   C4B13894  27.840  38.339   7.650
 4151POPC   NC313895  16.690  29.147   9.450
 4151POPC   PO413896  16.706  29.104   9.150
 4151POPC   GL113897  16.686  29.123   8.850
 4151POPC   GL213898  16.652  29.136   8.850
 4151POPC   C1A13899  16.765  29.190   8.550
 4151POPC   D2A13900  16.721  29.118   8.250
 4151POPC   C3A13901  16.714  29.120   7.950
 4151POPC   C4A13902  16.690  29.099   7.650
 4151POPC   C1B13903  16.461  29.130   8.550
 4151POPC   C2B13904  16.489  29.095   8.250
 4151POPC   C3B13905  16.501  29.113   7.950
 4151POPC   C4B13906  16.488  29.086   7.650
 4152POPC   NC313907  15.911  36.144   9.450
 4152POPC   PO413908  15.972  36.150   9.150
 4152POPC   GL113909  15.987  36.177   8.850
 4152POPC   GL213910  15.845  36.133   8.850
 4152POPC   C1A13911  15.984  36.132   8.550
 4152POPC   D2A13912  15.995  36.100   8.250
 4152POPC   C3A13913  15.937  36.168   7.950
 4152POPC   C4A13914  15.978  36.116   7.650
 4152POPC   C1B13915  15.759  36.046   8.550
 4152POPC   C2B13916  15.679  36.121   8.250
 4152POPC   C3B13917  15.759  36.070   7.950
 4152POPC   C4B13918  15.715  36.105   7.650
 4153POPC   NC313919  15.160   5.856   9.450
 4153POPC   PO413920  15.143   5.909   9.150
 4153POPC   GL113921  15.197   5.825   8.850
 4153POPC   GL213922  15.193   5.777   8.850
 4153POPC   C1A13923  15.183   5.890   8.550
 4153POPC   D2A13924  15.228   5.864   8.250
 4153POPC   C3A13925  15.134   5.906   7.950
 4153POPC   C4A13926  15.205   5.898   7.650
 4153POPC   C1B13927  15.222   5.631   8.550
 4153POPC   C2B13928  15.251   5.618   8.250
 4153POPC   C3B13929  15.229   5.629   7.950
 4153POPC   C4B13930  15.268   5.641   7.650
 4154POPC   NC313931  24.492  10.552   9.450
 4154POPC   PO413932  24.484  10.511   9.150
 4154POPC   GL113933  24.488  10.564   8.850
 4154POPC   GL213934  24.506  10.363   8.850
 4154POPC   C1A13935  24.470  10.480   8.550
 4154POPC   D2A13936  24.522  10.543   8.250
 4154POPC   C3A13937  24.472  10.483   7.950
 4154POPC   C4A13938  24.463  10.493   7.650
 4154POPC   C1B13939  24.535  10.287   8.550
 4154POPC   C2B13940  24.552  10.334   8.250
 4154POPC   C3B13941  24.578  10.247   7.950
 4154POPC   C4B13942  24.519  10.297   7.650
 4155POPC   NC313943  10.477  29.101   9.450
 4155POPC   PO413944  10.508  29.147   9.150
 4155POPC   GL113945  10.512  29.099   8.850
 4155POPC   GL213946  10.683  29.132   8.850
 4155POPC   C1A13947  10.510  29.180   8.550
 4155POPC   D2A13948  10.526  29.195   8.250
 4155POPC   C3A13949  10.565  29.135   7.950
 4155POPC   C4A13950  10.544  29.180   7.650
 4155POPC   C1B13951  10.790  29.184   8.550
 4155POPC   C2B13952  10.799  29.142   8.250
 4155POPC   C3B13953  10.736  29.173   7.950
 4155POPC   C4B13954  10.765  29.160   7.650
 4156POPC   NC313955  34.623   4.340   9.450
 4156POPC   PO413956  34.617   4.268   9.150
 4156POPC   GL113957  34.563   4.306   8.850
 4156POPC   GL213958  34.695   4.447   8.850
 4156POPC   C1A13959  34.536   4.339   8.550
 4156POPC   D2A13960  34.610   4.296   8.250
 4156POPC   C3A13961  34.579   4.351   7.950
 4156POPC   C4A13962  34.606   4.349   7.650
 4156POPC   C1B13963  34.724   4.523   8.550
 4156POPC   C2B13964  34.780   4.459   8.250
 4156POPC   C3B13965  34.776   4.462   7.950
 4156POPC   C4B13966  34.773   4.550   7.650
 4157POPC   NC313967  14.356  17.541   9.450
 4157POPC   PO413968  14.368  17.518   9.150
 4157POPC   GL113969  14.418  17.499   8.850
 4157POPC   GL213970  14.315  17.607   8.850
 4157POPC   C1A13971  14.400  17.465   8.550
 4157POPC   D2A13972  14.433  17.516   8.250
 4157POPC   C3A13973  14.404  17.512   7.950
 4157POPC   C4A13974  14.424  17.550   7.650
 4157POPC   C1B13975  14.329  17.759   8.550
 4157POPC   C2B13976  14.294  17.736   8.250
 4157POPC   C3B13977  14.303  17.789   7.950
 4157POPC   C4B13978  14.343  17.785   7.650
 4158POPC   NC313979  27.544  12.040   9.450
 4158POPC   PO413980  27.576  12.117   9.150
 4158POPC   GL113981  27.584  12.072   8.850
 4158POPC   GL213982  27.718  12.080   8.850
 4158POPC   C1A13983  27.623  12.097   8.550
 4158POPC   D2A13984  27.560  12.096   8.250
 4158POPC   C3A13985  27.607  12.058   7.950
 4158POPC   C4A13986  27.550  12.114   7.650
 4158POPC   C1B13987  27.804  12.105   8.550
 4158POPC   C2B13988  27.858  12.063   8.250
 4158POPC   C3B13989  27.860  12.086   7.950
 4158POPC   C4B13990  27.830  12.106   7.650
 4159POPC   NC313991  25.263  19.835   9.450
 4159POPC   PO413992  25.260  19.831   9.150
 4159POPC   GL113993  25.308  19.846   8.850
 4159POPC   GL213994  25.195  19.939   8.850
 4159POPC   C1A13995  25.293  19.883   8.550
 4159POPC   D2A13996  25.262  19.871   8.250
 4159POPC   C3A13997  25.252  19.840   7.950
 4159POPC   C4A13998  25.224  19.801   7.650
 4159POPC   C1B13999  25.087  20.043   8.550
 4159POPC   C2B14000  25.113  20.058   8.250
 4159POPC   C3B14001  25.059  20.052   7.950
 4159POPC   C4B14002  25.140  19.981   7.650
 4160POPC   NC314003  37.680   0.400   9.450
 4160POPC   PO414004  37.689   0.463   9.150
 4160POPC   GL114005  37.706   0.411   8.850
 4160POPC   GL214006  37.641   0.596   8.850
 4160POPC   C1A14007  37.634   0.392   8.550
 4160POPC   D2A14008  37.686   0.473   8.250
 4160POPC   C3A14009  37.701   0.445   7.950
 4160POPC   C4A14010  37.691   0.474   7.650
 4160POPC   C1B14011  37.635   0.711   8.550
 4160POPC   C2B14012  37.553   0.662   8.250
 4160POPC   C3B14013  37.569   0.664   7.950
 4160POPC   C4B14014  37.544   0.690   7.650
 4161POPC   NC314015  43.881   3.494   9.450
 4161POPC   PO414016  43.865   3.547   9.150
 4161POPC   GL114017  43.885   3.502   8.850
 4161POPC   GL214018  44.038   3.534   8.850
 4161POPC   C1A14019  43.906   3.554   8.550
 4161POPC   D2A14020  43.893   3.496   8.250
 4161POPC   C3A14021  43.922   3.521   7.950
 4161POPC   C4A14022  43.841   3.512   7.650
 4161POPC   C1B14023  44.169   3.520   8.550
 4161POPC   C2B14024  44.112   3.584   8.250
 4161POPC   C3B14025  44.089   3.562   7.950
 4161POPC   C4B14026  44.113   3.589   7.650
 4162POPC   NC314027  23.744  43.917   9.450
 4162POPC   PO414028  23.731  43.880   9.150
 4162POPC   GL114029  23.670  43.884   8.850
 4162POPC   GL214030  23.799  43.946   8.850
 4162POPC   C1A14031  23.737  43.836   8.550
 4162POPC   D2A14032  23.679  43.893   8.250
 4162POPC   C3A14033  23.734  43.911   7.950
 4162POPC   C4A14034  23.730  43.847   7.650
 4162POPC   C1B14035  23.910  44.026   8.550
 4162POPC   C2B14036  23.931  44.015   8.250
 4162POPC   C3B14037  23.934  44.005   7.950
 4162POPC   C4B14038  23.913  44.014   7.650
 4163POPC   NC314039  40.010  22.135   9.450
 4163POPC   PO414040  39.972  22.185   9.150
 4163POPC   GL114041  40.042  22.192   8.850
 4163POPC   GL214042  39.909  22.304   8.850
 4163POPC   C1A14043  40.001  22.164   8.550
 4163POPC   D2A14044  40.044  22.148   8.250
 4163POPC   C3A14045  39.984  22.148   7.950
 4163POPC   C4A14046  39.972  22.147   7.650
 4163POPC   C1B14047  39.844  22.424   8.550
 4163POPC   C2B14048  39.855  22.370   8.250
 4163POPC   C3B14049  39.931  22.366   7.950
 4163POPC   C4B14050  39.844  22.352   7.650
 4164POPC   NC314051  26.046  42.345   9.450
 4164POPC   PO414052  26.032  42.362   9.150
 4164POPC   GL114053  26.032  42.362   8.850
 4164POPC   GL214054  25.917  42.273   8.850
 4164POPC   C1A14055  26.073  42.308   8.550
 4164POPC   D2A14056  26.026  42.310   8.250
 4164POPC   C3A14057  26.016  42.303   7.950
 4164POPC   C4A14058  26.053  42.348   7.650
 4164POPC   C1B14059  25.842  42.125   8.550
 4164POPC   C2B14060  25.843  42.123   8.250
 4164POPC   C3B14061  25.894  42.190   7.950
 4164POPC   C4B14062  25.812  42.172   7.650
 4165POPC   NC314063   4.300  26.009   9.450
 4165POPC   PO414064   4.298  26.000   9.150
 4165POPC   GL114065   4.331  26.021   8.850
 4165POPC   GL214066   4.367  25.932   8.850
 4165POPC   C1A14067   4.300  26.077   8.550
 4165POPC   D2A14068   4.360  25.994   8.250
 4165POPC   C3A14069   4.268  26.050   7.950
 4165POPC   C4A14070   4.339  26.004   7.650
 4165POPC   C1B14071   4.280  25.792   8.550
 4165POPC   C2B14072   4.270  25.782   8.250
 4165POPC   C3B14073   4.281  25.745   7.950
 4165POPC   C4B14074   4.360  25.796   7.650
 4166POPC   NC314075  25.284  40.026   9.450
 4166POPC   PO414076  25.302  40.017   9.150
 4166POPC   GL114077  25.240  40.009   8.850
 4166POPC   GL214078  25.389  39.978   8.850
 4166POPC   C1A14079  25.258  39.986   8.550
 4166POPC   D2A14080  25.216  40.033   8.250
 4166POPC   C3A14081  25.292  39.992   7.950
 4166POPC   C4A14082  25.255  40.008   7.650
 4166POPC   C1B14083  25.497  40.052   8.550
 4166POPC   C2B14084  25.482  40.045   8.250
 4166POPC   C3B14085  25.480  40.058   7.950
 4166POPC   C4B14086  25.544  40.042   7.650
 4167POPC   NC314087   8.156  18.298   9.450
 4167POPC   PO414088   8.177  18.245   9.150
 4167POPC   GL114089   8.218  18.251   8.850
 4167POPC   GL214090   8.300  18.213   8.850
 4167POPC   C1A14091   8.157  18.292   8.550
 4167POPC   D2A14092   8.176  18.278   8.250
 4167POPC   C3A14093   8.226  18.304   7.950
 4167POPC   C4A14094   8.238  18.260   7.650
 4167POPC   C1B14095   8.352  18.133   8.550
 4167POPC   C2B14096   8.402  18.079   8.250
 4167POPC   C3B14097   8.368  18.103   7.950
 4167POPC   C4B14098   8.369  18.162   7.650
 4168POPC   NC314099   5.895  31.463   9.450
 4168POPC   PO414100   5.842  31.450   9.150
 4168POPC   GL114101   5.830  31.441   8.850
 4168POPC   GL214102   5.854  31.622   8.850
 4168POPC   C1A14103   5.871  31.429   8.550
 4168POPC   D2A14104   5.876  31.442   8.250
 4168POPC   C3A14105   5.914  31.498   7.950
 4168POPC   C4A14106   5.885  31.437   7.650
 4168POPC   C1B14107   5.783  31.718   8.550
 4168POPC   C2B14108   5.742  31.682   8.250
 4168POPC   C3B14109   5.739  31.655   7.950
 4168POPC   C4B14110   5.760  31.663   7.650
 4169POPC   NC314111   6.630  29.179   9.450
 4169POPC   PO414112   6.692  29.118   9.150
 4169POPC   GL114113   6.685  29.190   8.850
 4169POPC   GL214114   6.617  28.999   8.850
 4169POPC   C1A14115   6.671  29.104   8.550
 4169POPC   D2A14116   6.633  29.168   8.250
 4169POPC   C3A14117   6.686  29.129   7.950
 4169POPC   C4A14118   6.683  29.167   7.650
 4169POPC   C1B14119   6.497  28.901   8.550
 4169POPC   C2B14120   6.511  28.896   8.250
 4169POPC   C3B14121   6.551  28.895   7.950
 4169POPC   C4B14122   6.498  28.950   7.650
 4170POPC   NC314123  32.293  19.085   9.450
 4170POPC   PO414124  32.253  19.099   9.150
 4170POPC   GL114125  32.238  19.044   8.850
 4170POPC   GL214126  32.143  19.132   8.850
 4170POPC   C1A14127  32.258  19.029   8.550
 4170POPC   D2A14128  32.215  19.029   8.250
 4170POPC   C3A14129  32.213  19.101   7.950
 4170POPC   C4A14130  32.215  19.106   7.650
 4170POPC   C1B14131  32.070  19.180   8.550
 4170POPC   C2B14132  32.029  19.223   8.250
 4170POPC   C3B14133  32.019  19.134   7.950
 4170POPC   C4B14134  32.075  19.198   7.650
 4171POPC   NC314135  40.800  24.511   9.450
 4171POPC   PO414136  40.751  24.461   9.150
 4171POPC   GL114137  40.795  24.494   8.850
 4171POPC   GL214138  40.918  24.504   8.850
 4171POPC   C1A14139  40.763  24.463   8.550
 4171POPC   D2A14140  40.742  24.539   8.250
 4171POPC   C3A14141  40.766  24.477   7.950
 4171POPC   C4A14142  40.741  24.488   7.650
 4171POPC   C1B14143  41.057  24.558   8.550
 4171POPC   C2B14144  40.976  24.576   8.250
 4171POPC   C3B14145  41.060  24.580   7.950
 4171POPC   C4B14146  40.965  24.552   7.650
 4172POPC   NC314147  27.554  31.511   9.450
 4172POPC   PO414148  27.546  31.453   9.150
 4172POPC   GL114149  27.616  31.450   8.850
 4172POPC   GL214150  27.725  31.401   8.850
 4172POPC   C1A14151  27.572  31.487   8.550
 4172POPC   D2A14152  27.594  31.458   8.250
 4172POPC   C3A14153  27.595  31.437   7.950
 4172POPC   C4A14154  27.627  31.519   7.650
 4172POPC   C1B14155  27.812  31.291   8.550
 4172POPC   C2B14156  27.749  31.379   8.250
 4172POPC   C3B14157  27.782  31.308   7.950
 4172POPC   C4B14158  27.810  31.286   7.650
 4173POPC   NC314159  38.462   4.299   9.450
 4173POPC   PO414160  38.462   4.341   9.150
 4173POPC   GL114161  38.440   4.283   8.850
 4173POPC   GL214162  38.373   4.273   8.850
 4173POPC   C1A14163  38.488   4.280   8.550
 4173POPC   D2A14164  38.458   4.305   8.250
 4173POPC   C3A14165  38.426   4.272   7.950
 4173POPC   C4A14166  38.469   4.354   7.650
 4173POPC   C1B14167  38.222   4.223   8.550
 4173POPC   C2B14168  38.212   4.240   8.250
 4173POPC   C3B14169  38.185   4.231   7.950
 4173POPC   C4B14170  38.211   4.255   7.650
 4174POPC   NC314171  29.185  33.840   9.450
 4174POPC   PO414172  29.133  33.776   9.150
 4174POPC   GL114173  29.126  33.847   8.850
 4174POPC   GL214174  29.183  33.671   8.850
 4174POPC   C1A14175  29.146  33.757   8.550
 4174POPC   D2A14176  29.114  33.764   8.250
 4174POPC   C3A14177  29.134  33.818   7.950
 4174POPC   C4A14178  29.154  33.805   7.650
 4174POPC   C1B14179  29.186  33.582   8.550
 4174POPC   C2B14180  29.137  33.510   8.250
 4174POPC   C3B14181  29.169  33.581   7.950
 4174POPC   C4B14182  29.156  33.571   7.650
 4175POPC   NC314183   5.891  32.281   9.450
 4175POPC   PO414184   5.909  32.231   9.150
 4175POPC   GL114185   5.846  32.221   8.850
 4175POPC   GL214186   5.989  32.167   8.850
 4175POPC   C1A14187   5.891  32.268   8.550
 4175POPC   D2A14188   5.882  32.251   8.250
 4175POPC   C3A14189   5.909  32.211   7.950
 4175POPC   C4A14190   5.865  32.269   7.650
 4175POPC   C1B14191   6.073  32.106   8.550
 4175POPC   C2B14192   6.114  32.174   8.250
 4175POPC   C3B14193   6.128  32.099   7.950
 4175POPC   C4B14194   6.107  32.097   7.650
 4176POPC   NC314195  13.629   6.644   9.450
 4176POPC   PO414196  13.605   6.679   9.150
 4176POPC   GL114197  13.631   6.680   8.850
 4176POPC   GL214198  13.506   6.594   8.850
 4176POPC   C1A14199  13.650   6.667   8.550
 4176POPC   D2A14200  13.667   6.618   8.250
 4176POPC   C3A14201  13.598   6.658   7.950
 4176POPC   C4A14202  13.651   6.689   7.650
 4176POPC   C1B14203  13.353   6.598   8.550
 4176POPC   C2B14204  13.385   6.627   8.250
 4176POPC   C3B14205  13.349   6.590   7.950
 4176POPC   C4B14206  13.365   6.640   7.650
 4177POPC   NC314207   8.233  27.639   9.450
 4177POPC   PO414208   8.236  27.557   9.150
 4177POPC   GL114209   8.236  27.640   8.850
 4177POPC   GL214210   8.140  27.503   8.850
 4177POPC   C1A14211   8.219  27.566   8.550
 4177POPC   D2A14212   8.242  27.641   8.250
 4177POPC   C3A14213   8.176  27.584   7.950
 4177POPC   C4A14214   8.239  27.587   7.650
 4177POPC   C1B14215   8.058  27.443   8.550
 4177POPC   C2B14216   8.000  27.437   8.250
 4177POPC   C3B14217   8.055  27.372   7.950
 4177POPC   C4B14218   8.032  27.391   7.650
 4178POPC   NC314219  39.228  29.890   9.450
 4178POPC   PO414220  39.212  29.880   9.150
 4178POPC   GL114221  39.279  29.921   8.850
 4178POPC   GL214222  39.159  29.793   8.850
 4178POPC   C1A14223  39.224  29.875   8.550
 4178POPC   D2A14224  39.197  29.945   8.250
 4178POPC   C3A14225  39.181  29.889   7.950
 4178POPC   C4A14226  39.254  29.943   7.650
 4178POPC   C1B14227  39.120  29.658   8.550
 4178POPC   C2B14228  39.111  29.666   8.250
 4178POPC   C3B14229  39.155  29.685   7.950
 4178POPC   C4B14230  39.101  29.725   7.650
 4179POPC   NC314231   8.960  41.585   9.450
 4179POPC   PO414232   8.952  41.549   9.150
 4179POPC   GL114233   8.989  41.608   8.850
 4179POPC   GL214234   8.875  41.598   8.850
 4179POPC   C1A14235   8.989  41.540   8.550
 4179POPC   D2A14236   9.014  41.597   8.250
 4179POPC   C3A14237   9.011  41.534   7.950
 4179POPC   C4A14238   8.997  41.543   7.650
 4179POPC   C1B14239   8.699  41.537   8.550
 4179POPC   C2B14240   8.700  41.571   8.250
 4179POPC   C3B14241   8.715  41.549   7.950
 4179POPC   C4B14242   8.757  41.534   7.650
 4180POPC   NC314243   1.190  22.917   9.450
 4180POPC   PO414244   1.167  22.936   9.150
 4180POPC   GL114245   1.198  22.983   8.850
 4180POPC   GL214246   1.212  23.075   8.850
 4180POPC   C1A14247   1.179  22.901   8.550
 4180POPC   D2A14248   1.198  22.917   8.250
 4180POPC   C3A14249   1.255  22.937   7.950
 4180POPC   C4A14250   1.252  22.963   7.650
 4180POPC   C1B14251   1.318  23.200   8.550
 4180POPC   C2B14252   1.265  23.157   8.250
 4180POPC   C3B14253   1.314  23.158   7.950
 4180POPC   C4B14254   1.295  23.149   7.650
 4181POPC   NC314255  42.287  32.223   9.450
 4181POPC   PO414256  42.352  32.278   9.150
 4181POPC   GL114257  42.303  32.257   8.850
 4181POPC   GL214258  42.416  32.375   8.850
 4181POPC   C1A14259  42.348  32.199   8.550
 4181POPC   D2A14260  42.312  32.275   8.250
 4181POPC   C3A14261  42.317  32.295   7.950
 4181POPC   C4A14262  42.371  32.200   7.650
 4181POPC   C1B14263  42.497  32.443   8.550
 4181POPC   C2B14264  42.423  32.491   8.250
 4181POPC   C3B14265  42.449  32.502   7.950
 4181POPC   C4B14266  42.421  32.428   7.650
 4182POPC   NC314267  39.256  12.900   9.450
 4182POPC   PO414268  39.279  12.878   9.150
 4182POPC   GL114269  39.265  12.857   8.850
 4182POPC   GL214270  39.320  13.011   8.850
 4182POPC   C1A14271  39.238  12.824   8.550
 4182POPC   D2A14272  39.223  12.842   8.250
 4182POPC   C3A14273  39.188  12.897   7.950
 4182POPC   C4A14274  39.189  12.898   7.650
 4182POPC   C1B14275  39.262  13.075   8.550
 4182POPC   C2B14276  39.277  13.090   8.250
 4182POPC   C3B14277  39.280  13.135   7.950
 4182POPC   C4B14278  39.339  13.045   7.650
 4183POPC   NC314279   5.916  12.118   9.450
 4183POPC   PO414280   5.819  12.094   9.150
 4183POPC   GL114281   5.878  12.027   8.850
 4183POPC   GL214282   5.704  12.020   8.850
 4183POPC   C1A14283   5.875  12.070   8.550
 4183POPC   D2A14284   5.906  12.074   8.250
 4183POPC   C3A14285   5.870  12.036   7.950
 4183POPC   C4A14286   5.912  12.050   7.650
 4183POPC   C1B14287   5.652  12.051   8.550
 4183POPC   C2B14288   5.584  11.995   8.250
 4183POPC   C3B14289   5.602  12.031   7.950
 4183POPC   C4B14290   5.622  12.009   7.650
 4184POPC   NC314291  18.244  20.599   9.450
 4184POPC   PO414292  18.316  20.638   9.150
 4184POPC   GL114293  18.271  20.616   8.850
 4184POPC   GL214294  18.300  20.686   8.850
 4184POPC   C1A14295  18.251  20.605   8.550
 4184POPC   D2A14296  18.237  20.630   8.250
 4184POPC   C3A14297  18.333  20.623   7.950
 4184POPC   C4A14298  18.285  20.640   7.650
 4184POPC   C1B14299  18.326  20.866   8.550
 4184POPC   C2B14300  18.329  20.844   8.250
 4184POPC   C3B14301  18.318  20.808   7.950
 4184POPC   C4B14302  18.313  20.883   7.650
 4185POPC   NC314303  35.373  28.328   9.450
 4185POPC   PO414304  35.320  28.360   9.150
 4185POPC   GL114305  35.342  28.410   8.850
 4185POPC   GL214306  35.393  28.506   8.850
 4185POPC   C1A14307  35.335  28.389   8.550
 4185POPC   D2A14308  35.326  28.372   8.250
 4185POPC   C3A14309  35.337  28.416   7.950
 4185POPC   C4A14310  35.377  28.406   7.650
 4185POPC   C1B14311  35.487  28.518   8.550
 4185POPC   C2B14312  35.508  28.595   8.250
 4185POPC   C3B14313  35.483  28.568   7.950
 4185POPC   C4B14314  35.535  28.555   7.650
 4186POPC   NC314315  27.604  36.092   9.450
 4186POPC   PO414316  27.581  36.107   9.150
 4186POPC   GL114317  27.626  36.155   8.850
 4186POPC   GL214318  27.615  36.013   8.850
 4186POPC   C1A14319  27.634  36.085   8.550
 4186POPC   D2A14320  27.642  36.114   8.250
 4186POPC   C3A14321  27.567  36.108   7.950
 4186POPC   C4A14322  27.580  36.102   7.650
 4186POPC   C1B14323  27.741  35.859   8.550
 4186POPC   C2B14324  27.749  35.870   8.250
 4186POPC   C3B14325  27.710  35.915   7.950
 4186POPC   C4B14326  27.690  35.898   7.650
 4187POPC   NC314327  12.855  32.263   9.450
 4187POPC   PO414328  12.865  32.288   9.150
 4187POPC   GL114329  12.867  32.217   8.850
 4187POPC   GL214330  12.805  32.373   8.850
 4187POPC   C1A14331  12.814  32.256   8.550
 4187POPC   D2A14332  12.819  32.269   8.250
 4187POPC   C3A14333  12.809  32.220   7.950
 4187POPC   C4A14334  12.817  32.228   7.650
 4187POPC   C1B14335  12.801  32.518   8.550
 4187POPC   C2B14336  12.856  32.466   8.250
 4187POPC   C3B14337  12.866  32.546   7.950
 4187POPC   C4B14338  12.822  32.495   7.650
 4188POPC   NC314339  19.060  29.939   9.450
 4188POPC   PO414340  19.048  29.874   9.150
 4188POPC   GL114341  19.012  29.925   8.850
 4188POPC   GL214342  19.125  29.840   8.850
 4188POPC   C1A14343  19.034  29.949   8.550
 4188POPC   D2A14344  19.099  29.875   8.250
 4188POPC   C3A14345  19.066  29.906   7.950
 4188POPC   C4A14346  19.060  29.874   7.650
 4188POPC   C1B14347  19.251  29.765   8.550
 4188POPC   C2B14348  19.301  29.843   8.250
 4188POPC   C3B14349  19.265  29.827   7.950
 4188POPC   C4B14350  19.323  29.799   7.650
 4189POPC   NC314351  15.912   7.386   9.450
 4189POPC   PO414352  15.950   7.393   9.150
 4189POPC   GL114353  16.003   7.373   8.850
 4189POPC   GL214354  15.874   7.523   8.850
 4189POPC   C1A14355  15.949   7.389   8.550
 4189POPC   D2A14356  15.911   7.424   8.250
 4189POPC   C3A14357  15.919   7.396   7.950
 4189POPC   C4A14358  16.004   7.435   7.650
 4189POPC   C1B14359  15.742   7.614   8.550
 4189POPC   C2B14360  15.770   7.528   8.250
 4189POPC   C3B14361  15.729   7.536   7.950
 4189POPC   C4B14362  15.768   7.541   7.650
 4190POPC   NC314363   8.231  19.824   9.450
 4190POPC   PO414364   8.186  19.796   9.150
 4190POPC   GL114365   8.179  19.823   8.850
 4190POPC   GL214366   8.150  19.677   8.850
 4190POPC   C1A14367   8.247  19.884   8.550
 4190POPC   D2A14368   8.160  19.884   8.250
 4190POPC   C3A14369   8.183  19.871   7.950
 4190POPC   C4A14370   8.230  19.835   7.650
 4190POPC   C1B14371   8.163  19.633   8.550
 4190POPC   C2B14372   8.227  19.544   8.250
 4190POPC   C3B14373   8.139  19.561   7.950
 4190POPC   C4B14374   8.139  19.601   7.650
 4191POPC   NC314375  29.115  41.545   9.450
 4191POPC   PO414376  29.173  41.605   9.150
 4191POPC   GL114377  29.137  41.558   8.850
 4191POPC   GL214378  29.263  41.461   8.850
 4191POPC   C1A14379  29.187  41.608   8.550
 4191POPC   D2A14380  29.187  41.605   8.250
 4191POPC   C3A14381  29.106  41.559   7.950
 4191POPC   C4A14382  29.099  41.550   7.650
 4191POPC   C1B14383  29.351  41.440   8.550
 4191POPC   C2B14384  29.367  41.494   8.250
 4191POPC   C3B14385  29.385  41.461   7.950
 4191POPC   C4B14386  29.413  41.434   7.650
 4192POPC   NC314387  12.848  26.808   9.450
 4192POPC   PO414388  12.897  26.863   9.150
 4192POPC   GL114389  12.869  26.774   8.850
 4192POPC   GL214390  12.955  26.815   8.850
 4192POPC   C1A14391  12.806  26.805   8.550
 4192POPC   D2A14392  12.848  26.851   8.250
 4192POPC   C3A14393  12.808  26.818   7.950
 4192POPC   C4A14394  12.807  26.771   7.650
 4192POPC   C1B14395  13.091  26.889   8.550
 4192POPC   C2B14396  13.106  26.896   8.250
 4192POPC   C3B14397  13.053  26.900   7.950
 4192POPC   C4B14398  13.086  26.907   7.650
 4193POPC   NC314399  27.560  33.770   9.450
 4193POPC   PO414400  27.571  33.838   9.150
 4193POPC   GL114401  27.608  33.767   8.850
 4193POPC   GL214402  27.669  33.801   8.850
 4193POPC   C1A14403  27.589  33.754   8.550
 4193POPC   D2A14404  27.551  33.805   8.250
 4193POPC   C3A14405  27.602  33.782   7.950
 4193POPC   C4A14406  27.622  33.849   7.650
 4193POPC   C1B14407  27.844  33.890   8.550
 4193POPC   C2B14408  27.797  33.880   8.250
 4193POPC   C3B14409  27.852  33.836   7.950
 4193POPC   C4B14410  27.871  33.843   7.650
 4194POPC   NC314411  21.342   1.185   9.450
 4194POPC   PO414412  21.435   1.209   9.150
 4194POPC   GL114413  21.347   1.201   8.850
 4194POPC   GL214414  21.395   1.110   8.850
 4194POPC   C1A14415  21.422   1.261   8.550
 4194POPC   D2A14416  21.366   1.171   8.250
 4194POPC   C3A14417  21.409   1.207   7.950
 4194POPC   C4A14418  21.400   1.244   7.650
 4194POPC   C1B14419  21.469   0.968   8.550
 4194POPC   C2B14420  21.450   0.946   8.250
 4194POPC   C3B14421  21.425   0.937   7.950
 4194POPC   C4B14422  21.482   0.993   7.650
 4195POPC   NC314423  43.099  31.506   9.450
 4195POPC   PO414424  43.135  31.472   9.150
 4195POPC   GL114425  43.158  31.497   8.850
 4195POPC   GL214426  42.999  31.601   8.850
 4195POPC   C1A14427  43.154  31.496   8.550
 4195POPC   D2A14428  43.113  31.499   8.250
 4195POPC   C3A14429  43.061  31.475   7.950
 4195POPC   C4A14430  43.063  31.455   7.650
 4195POPC   C1B14431  42.931  31.704   8.550
 4195POPC   C2B14432  42.957  31.670   8.250
 4195POPC   C3B14433  42.973  31.704   7.950
 4195POPC   C4B14434  42.894  31.689   7.650
 4196POPC   NC314435   2.793  10.504   9.450
 4196POPC   PO414436   2.761  10.561   9.150
 4196POPC   GL114437   2.748  10.547   8.850
 4196POPC   GL214438   2.839  10.583   8.850
 4196POPC   C1A14439   2.796  10.551   8.550
 4196POPC   D2A14440   2.775  10.487   8.250
 4196POPC   C3A14441   2.752  10.558   7.950
 4196POPC   C4A14442   2.717  10.530   7.650
 4196POPC   C1B14443   2.870  10.702   8.550
 4196POPC   C2B14444   2.881  10.697   8.250
 4196POPC   C3B14445   2.904  10.725   7.950
 4196POPC   C4B14446   2.941  10.687   7.650
 4197POPC   NC314447  44.651  16.705   9.450
 4197POPC   PO414448  44.673  16.738   9.150
 4197POPC   GL114449  44.677  16.688   8.850
 4197POPC   GL214450  44.538  16.648   8.850
 4197POPC   C1A14451  44.693  16.759   8.550
 4197POPC   D2A14452  44.674  16.759   8.250
 4197POPC   C3A14453  44.617  16.703   7.950
 4197POPC   C4A14454  44.700  16.760   7.650
 4197POPC   C1B14455  44.416  16.650   8.550
 4197POPC   C2B14456  44.461  16.630   8.250
 4197POPC   C3B14457  44.397  16.625   7.950
 4197POPC   C4B14458  44.401  16.645   7.650
 4198POPC   NC314459  38.456   6.654   9.450
 4198POPC   PO414460  38.445   6.673   9.150
 4198POPC   GL114461  38.481   6.655   8.850
 4198POPC   GL214462  38.494   6.755   8.850
 4198POPC   C1A14463  38.450   6.606   8.550
 4198POPC   D2A14464  38.451   6.631   8.250
 4198POPC   C3A14465  38.430   6.610   7.950
 4198POPC   C4A14466  38.460   6.625   7.650
 4198POPC   C1B14467  38.486   6.931   8.550
 4198POPC   C2B14468  38.531   6.917   8.250
 4198POPC   C3B14469  38.512   6.909   7.950
 4198POPC   C4B14470  38.540   6.889   7.650
 4199POPC   NC314471  43.067  26.789   9.450
 4199POPC   PO414472  43.086  26.768   9.150
 4199POPC   GL114473  43.143  26.814   8.850
 4199POPC   GL214474  43.179  26.730   8.850
 4199POPC   C1A14475  43.101  26.781   8.550
 4199POPC   D2A14476  43.158  26.850   8.250
 4199POPC   C3A14477  43.144  26.797   7.950
 4199POPC   C4A14478  43.093  26.792   7.650
 4199POPC   C1B14479  43.376  26.707   8.550
 4199POPC   C2B14480  43.312  26.726   8.250
 4199POPC   C3B14481  43.296  26.709   7.950
 4199POPC   C4B14482  43.342  26.761   7.650
 4200POPC   NC314483  40.052  21.356   9.450
 4200POPC   PO414484  40.027  21.408   9.150
 4200POPC   GL114485  39.989  21.374   8.850
 4200POPC   GL214486  40.022  21.229   8.850
 4200POPC   C1A14487  40.034  21.339   8.550
 4200POPC   D2A14488  40.048  21.352   8.250
 4200POPC   C3A14489  39.972  21.338   7.950
 4200POPC   C4A14490  39.989  21.356   7.650
 4200POPC   C1B14491  40.069  21.139   8.550
 4200POPC   C2B14492  40.022  21.142   8.250
 4200POPC   C3B14493  40.098  21.184   7.950
 4200POPC   C4B14494  40.079  21.174   7.650
 4201POPC   NC314495  38.453  22.987   9.450
 4201POPC   PO414496  38.412  22.968   9.150
 4201POPC   GL114497  38.435  22.956   8.850
 4201POPC   GL214498  38.454  22.777   8.850
 4201POPC   C1A14499  38.480  22.964   8.550
 4201POPC   D2A14500  38.444  22.949   8.250
 4201POPC   C3A14501  38.484  22.976   7.950
 4201POPC   C4A14502  38.425  22.946   7.650
 4201POPC   C1B14503  38.318  22.751   8.550
 4201POPC   C2B14504  38.372  22.672   8.250
 4201POPC   C3B14505  38.385  22.715   7.950
 4201POPC   C4B14506  38.308  22.694   7.650
 4202POPC   NC314507   8.953   2.741   9.450
 4202POPC   PO414508   8.967   2.753   9.150
 4202POPC   GL114509   9.016   2.813   8.850
 4202POPC   GL214510   9.079   2.762   8.850
 4202POPC   C1A14511   8.993   2.789   8.550
 4202POPC   D2A14512   9.022   2.765   8.250
 4202POPC   C3A14513   8.977   2.776   7.950
 4202POPC   C4A14514   8.929   2.763   7.650
 4202POPC   C1B14515   9.239   2.737   8.550
 4202POPC   C2B14516   9.209   2.667   8.250
 4202POPC   C3B14517   9.203   2.705   7.950
 4202POPC   C4B14518   9.215   2.713   7.650
 4203POPC   NC314519  12.090   2.785   9.450
 4203POPC   PO414520  12.117   2.718   9.150
 4203POPC   GL114521  12.073   2.787   8.850
 4203POPC   GL214522  12.189   2.834   8.850
 4203POPC   C1A14523  12.046   2.743   8.550
 4203POPC   D2A14524  12.086   2.801   8.250
 4203POPC   C3A14525  12.100   2.810   7.950
 4203POPC   C4A14526  12.077   2.735   7.650
 4203POPC   C1B14527  12.244   2.923   8.550
 4203POPC   C2B14528  12.268   2.980   8.250
 4203POPC   C3B14529  12.233   2.978   7.950
 4203POPC   C4B14530  12.214   2.978   7.650
 4204POPC   NC314531  17.509   1.181   9.450
 4204POPC   PO414532  17.468   1.223   9.150
 4204POPC   GL114533  17.496   1.172   8.850
 4204POPC   GL214534  17.629   1.238   8.850
 4204POPC   C1A14535  17.522   1.239   8.550
 4204POPC   D2A14536  17.472   1.260   8.250
 4204POPC   C3A14537  17.543   1.245   7.950
 4204POPC   C4A14538  17.510   1.238   7.650
 4204POPC   C1B14539  17.710   1.294   8.550
 4204POPC   C2B14540  17.737   1.297   8.250
 4204POPC   C3B14541  17.711   1.367   7.950
 4204POPC   C4B14542  17.756   1.312   7.650
 4205POPC   NC314543  22.942  39.975   9.450
 4205POPC   PO414544  22.916  40.017   9.150
 4205POPC   GL114545  22.922  39.992   8.850
 4205POPC   GL214546  22.887  40.128   8.850
 4205POPC   C1A14547  22.912  39.983   8.550
 4205POPC   D2A14548  22.926  40.048   8.250
 4205POPC   C3A14549  22.967  40.008   7.950
 4205POPC   C4A14550  22.967  40.018   7.650
 4205POPC   C1B14551  22.735  40.202   8.550
 4205POPC   C2B14552  22.770  40.166   8.250
 4205POPC   C3B14553  22.815  40.185   7.950
 4205POPC   C4B14554  22.764  40.154   7.650
 4206POPC   NC314555  18.321   6.627   9.450
 4206POPC   PO414556  18.264   6.665   9.150
 4206POPC   GL114557  18.246   6.674   8.850
 4206POPC   GL214558  18.408   6.530   8.850
 4206POPC   C1A14559  18.253   6.649   8.550
 4206POPC   D2A14560  18.316   6.664   8.250
 4206POPC   C3A14561  18.297   6.599   7.950
 4206POPC   C4A14562  18.287   6.612   7.650
 4206POPC   C1B14563  18.484   6.436   8.550
 4206POPC   C2B14564  18.486   6.446   8.250
 4206POPC   C3B14565  18.445   6.511   7.950
 4206POPC   C4B14566  18.450   6.486   7.650
 4207POPC   NC314567  33.020  21.388   9.450
 4207POPC   PO414568  32.992  21.391   9.150
 4207POPC   GL114569  33.040  21.435   8.850
 4207POPC   GL214570  32.988  21.242   8.850
 4207POPC   C1A14571  33.011  21.431   8.550
 4207POPC   D2A14572  33.058  21.412   8.250
 4207POPC   C3A14573  33.025  21.399   7.950
 4207POPC   C4A14574  33.066  21.418   7.650
 4207POPC   C1B14575  32.888  21.122   8.550
 4207POPC   C2B14576  32.959  21.188   8.250
 4207POPC   C3B14577  32.939  21.161   7.950
 4207POPC   C4B14578  32.872  21.119   7.650
 4208POPC   NC314579  12.073  12.856   9.450
 4208POPC   PO414580  12.107  12.823   9.150
 4208POPC   GL114581  12.039  12.835   8.850
 4208POPC   GL214582  12.072  12.934   8.850
 4208POPC   C1A14583  12.113  12.858   8.550
 4208POPC   D2A14584  12.117  12.872   8.250
 4208POPC   C3A14585  12.088  12.856   7.950
 4208POPC   C4A14586  12.032  12.897   7.650
 4208POPC   C1B14587  12.111  13.116   8.550
 4208POPC   C2B14588  12.190  13.127   8.250
 4208POPC   C3B14589  12.156  13.042   7.950
 4208POPC   C4B14590  12.164  13.059   7.650
 4209POPC   NC314591  26.032  30.718   9.450
 4209POPC   PO414592  26.026  30.685   9.150
 4209POPC   GL114593  26.058  30.685   8.850
 4209POPC   GL214594  26.047  30.606   8.850
 4209POPC   C1A14595  26.003  30.730   8.550
 4209POPC   D2A14596  25.997  30.689   8.250
 4209POPC   C3A14597  26.063  30.729   7.950
 4209POPC   C4A14598  26.070  30.701   7.650
 4209POPC   C1B14599  26.114  30.507   8.550
 4209POPC   C2B14600  26.119  30.486   8.250
 4209POPC   C3B14601  26.119  30.474   7.950
 4209POPC   C4B14602  26.134  30.416   7.650
 4210POPC   NC314603   5.917  22.907   9.450
 4210POPC   PO414604   5.912  22.976   9.150
 4210POPC   GL114605   5.866  22.912   8.850
 4210POPC   GL214606   5.897  22.836   8.850
 4210POPC   C1A14607   5.823  22.984   8.550
 4210POPC   D2A14608   5.824  22.951   8.250
 4210POPC   C3A14609   5.871  22.927   7.950
 4210POPC   C4A14610   5.877  22.926   7.650
 4210POPC   C1B14611   5.890  22.693   8.550
 4210POPC   C2B14612   5.853  22.680   8.250
 4210POPC   C3B14613   5.831  22.661   7.950
 4210POPC   C4B14614   5.916  22.737   7.650
 4211POPC   NC314615  13.674  29.960   9.450
 4211POPC   PO414616  13.672  29.884   9.150
 4211POPC   GL114617  13.587  29.939   8.850
 4211POPC   GL214618  13.770  29.859   8.850
 4211POPC   C1A14619  13.624  29.937   8.550
 4211POPC   D2A14620  13.641  29.964   8.250
 4211POPC   C3A14621  13.628  29.884   7.950
 4211POPC   C4A14622  13.648  29.928   7.650
 4211POPC   C1B14623  13.896  29.906   8.550
 4211POPC   C2B14624  13.905  29.903   8.250
 4211POPC   C3B14625  13.878  29.895   7.950
 4211POPC   C4B14626  13.885  29.863   7.650
 4212POPC   NC314627  29.171  26.056   9.450
 4212POPC   PO414628  29.102  26.006   9.150
 4212POPC   GL114629  29.182  26.074   8.850
 4212POPC   GL214630  29.127  26.162   8.850
 4212POPC   C1A14631  29.179  26.027   8.550
 4212POPC   D2A14632  29.184  26.049   8.250
 4212POPC   C3A14633  29.095  26.025   7.950
 4212POPC   C4A14634  29.098  26.083   7.650
 4212POPC   C1B14635  29.156  26.313   8.550
 4212POPC   C2B14636  29.221  26.330   8.250
 4212POPC   C3B14637  29.170  26.267   7.950
 4212POPC   C4B14638  29.178  26.333   7.650
 4213POPC   NC314639   5.077  33.825   9.450
 4213POPC   PO414640   5.058  33.826   9.150
 4213POPC   GL114641   5.053  33.768   8.850
 4213POPC   GL214642   5.045  33.683   8.850
 4213POPC   C1A14643   5.064  33.780   8.550
 4213POPC   D2A14644   5.099  33.771   8.250
 4213POPC   C3A14645   5.123  33.815   7.950
 4213POPC   C4A14646   5.110  33.751   7.650
 4213POPC   C1B14647   5.133  33.505   8.550
 4213POPC   C2B14648   5.098  33.532   8.250
 4213POPC   C3B14649   5.111  33.583   7.950
 4213POPC   C4B14650   5.064  33.553   7.650
 4214POPC   NC314651  38.467  24.444   9.450
 4214POPC   PO414652  38.503  24.497   9.150
 4214POPC   GL114653  38.425  24.470   8.850
 4214POPC   GL214654  38.385  24.542   8.850
 4214POPC   C1A14655  38.495  24.443   8.550
 4214POPC   D2A14656  38.456  24.502   8.250
 4214POPC   C3A14657  38.478  24.467   7.950
 4214POPC   C4A14658  38.497  24.463   7.650
 4214POPC   C1B14659  38.255  24.662   8.550
 4214POPC   C2B14660  38.283  24.710   8.250
 4214POPC   C3B14661  38.319  24.692   7.950
 4214POPC   C4B14662  38.229  24.625   7.650
 4215POPC   NC314663  41.600  13.665   9.450
 4215POPC   PO414664  41.533  13.591   9.150
 4215POPC   GL114665  41.541  13.579   8.850
 4215POPC   GL214666  41.679  13.673   8.850
 4215POPC   C1A14667  41.510  13.608   8.550
 4215POPC   D2A14668  41.511  13.667   8.250
 4215POPC   C3A14669  41.604  13.595   7.950
 4215POPC   C4A14670  41.587  13.618   7.650
 4215POPC   C1B14671  41.814  13.718   8.550
 4215POPC   C2B14672  41.789  13.757   8.250
 4215POPC   C3B14673  41.812  13.709   7.950
 4215POPC   C4B14674  41.784  13.722   7.650
 4216POPC   NC314675  28.366  32.214   9.450
 4216POPC   PO414676  28.381  32.199   9.150
 4216POPC   GL114677  28.408  32.274   8.850
 4216POPC   GL214678  28.271  32.231   8.850
 4216POPC   C1A14679  28.353  32.232   8.550
 4216POPC   D2A14680  28.369  32.271   8.250
 4216POPC   C3A14681  28.336  32.218   7.950
 4216POPC   C4A14682  28.341  32.287   7.650
 4216POPC   C1B14683  28.117  32.254   8.550
 4216POPC   C2B14684  28.144  32.301   8.250
 4216POPC   C3B14685  28.145  32.238   7.950
 4216POPC   C4B14686  28.098  32.303   7.650
 4217POPC   NC314687  12.064  32.261   9.450
 4217POPC   PO414688  12.032  32.298   9.150
 4217POPC   GL114689  12.122  32.270   8.850
 4217POPC   GL214690  12.096  32.133   8.850
 4217POPC   C1A14691  12.075  32.242   8.550
 4217POPC   D2A14692  12.093  32.237   8.250
 4217POPC   C3A14693  12.082  32.279   7.950
 4217POPC   C4A14694  12.053  32.269   7.650
 4217POPC   C1B14695  11.983  32.032   8.550
 4217POPC   C2B14696  12.050  31.996   8.250
 4217POPC   C3B14697  11.996  32.025   7.950
 4217POPC   C4B14698  12.027  31.967   7.650
 4218POPC   NC314699  43.129  40.770   9.450
 4218POPC   PO414700  43.116  40.807   9.150
 4218POPC   GL114701  43.096  40.738   8.850
 4218POPC   GL214702  43.097  40.924   8.850
 4218POPC   C1A14703  43.096  40.825   8.550
 4218POPC   D2A14704  43.066  40.735   8.250
 4218POPC   C3A14705  43.123  40.763   7.950
 4218POPC   C4A14706  43.081  40.747   7.650
 4218POPC   C1B14707  43.058  41.059   8.550
 4218POPC   C2B14708  43.078  41.017   8.250
 4218POPC   C3B14709  43.019  41.067   7.950
 4218POPC   C4B14710  43.005  41.014   7.650
 4219POPC   NC314711  29.179  37.708   9.450
 4219POPC   PO414712  29.106  37.641   9.150
 4219POPC   GL114713  29.110  37.715   8.850
 4219POPC   GL214714  29.206  37.531   8.850
 4219POPC   C1A14715  29.183  37.692   8.550
 4219POPC   D2A14716  29.177  37.699   8.250
 4219POPC   C3A14717  29.181  37.702   7.950
 4219POPC   C4A14718  29.142  37.642   7.650
 4219POPC   C1B14719  29.175  37.441   8.550
 4219POPC   C2B14720  29.180  37.384   8.250
 4219POPC   C3B14721  29.140  37.399   7.950
 4219POPC   C4B14722  29.197  37.457   7.650
 4220POPC   NC314723  40.042  26.807   9.450
 4220POPC   PO414724  40.039  26.771   9.150
 4220POPC   GL114725  40.004  26.779   8.850
 4220POPC   GL214726  40.153  26.755   8.850
 4220POPC   C1A14727  40.050  26.788   8.550
 4220POPC   D2A14728  39.979  26.768   8.250
 4220POPC   C3A14729  40.008  26.833   7.950
 4220POPC   C4A14730  39.982  26.785   7.650
 4220POPC   C1B14731  40.273  26.800   8.550
 4220POPC   C2B14732  40.266  26.759   8.250
 4220POPC   C3B14733  40.229  26.794   7.950
 4220POPC   C4B14734  40.267  26.808   7.650
 4221POPC   NC314735  42.364  11.324   9.450
 4221POPC   PO414736  42.285  11.344   9.150
 4221POPC   GL114737  42.300  11.304   8.850
 4221POPC   GL214738  42.184  11.338   8.850
 4221POPC   C1A14739  42.363  11.260   8.550
 4221POPC   D2A14740  42.350  11.305   8.250
 4221POPC   C3A14741  42.372  11.259   7.950
 4221POPC   C4A14742  42.340  11.261   7.650
 4221POPC   C1B14743  42.086  11.377   8.550
 4221POPC   C2B14744  42.117  11.366   8.250
 4221POPC   C3B14745  42.139  11.400   7.950
 4221POPC   C4B14746  42.151  11.407   7.650
 4222POPC   NC314747  24.450  21.403   9.450
 4222POPC   PO414748  24.488  21.409   9.150
 4222POPC   GL114749  24.444  21.373   8.850
 4222POPC   GL214750  24.476  21.539   8.850
 4222POPC   C1A14751  24.525  21.391   8.550
 4222POPC   D2A14752  24.496  21.392   8.250
 4222POPC   C3A14753  24.520  21.390   7.950
 4222POPC   C4A14754  24.483  21.397   7.650
 4222POPC   C1B14755  24.415  21.632   8.550
 4222POPC   C2B14756  24.419  21.592   8.250
 4222POPC   C3B14757  24.420  21.597   7.950
 4222POPC   C4B14758  24.460  21.657   7.650
 4223POPC   NC314759  32.209   7.395   9.450
 4223POPC   PO414760  32.201   7.460   9.150
 4223POPC   GL114761  32.288   7.408   8.850
 4223POPC   GL214762  32.199   7.543   8.850
 4223POPC   C1A14763  32.274   7.445   8.550
 4223POPC   D2A14764  32.262   7.446   8.250
 4223POPC   C3A14765  32.204   7.412   7.950
 4223POPC   C4A14766  32.297   7.404   7.650
 4223POPC   C1B14767  32.190   7.625   8.550
 4223POPC   C2B14768  32.187   7.637   8.250
 4223POPC   C3B14769  32.190   7.668   7.950
 4223POPC   C4B14770  32.216   7.671   7.650
 4224POPC   NC314771   6.662  12.041   9.450
 4224POPC   PO414772   6.643  12.055   9.150
 4224POPC   GL114773   6.653  12.070   8.850
 4224POPC   GL214774   6.670  11.958   8.850
 4224POPC   C1A14775   6.620  12.051   8.550
 4224POPC   D2A14776   6.650  12.093   8.250
 4224POPC   C3A14777   6.597  12.097   7.950
 4224POPC   C4A14778   6.633  12.052   7.650
 4224POPC   C1B14779   6.744  11.883   8.550
 4224POPC   C2B14780   6.727  11.902   8.250
 4224POPC   C3B14781   6.784  11.851   7.950
 4224POPC   C4B14782   6.755  11.875   7.650
 4225POPC   NC314783  24.454  27.598   9.450
 4225POPC   PO414784  24.475  27.603   9.150
 4225POPC   GL114785  24.445  27.616   8.850
 4225POPC   GL214786  24.460  27.462   8.850
 4225POPC   C1A14787  24.510  27.602   8.550
 4225POPC   D2A14788  24.515  27.558   8.250
 4225POPC   C3A14789  24.533  27.623   7.950
 4225POPC   C4A14790  24.463  27.580   7.650
 4225POPC   C1B14791  24.312  27.421   8.550
 4225POPC   C2B14792  24.321  27.355   8.250
 4225POPC   C3B14793  24.344  27.384   7.950
 4225POPC   C4B14794  24.296  27.350   7.650
 4226POPC   NC314795   3.496   0.426   9.450
 4226POPC   PO414796   3.512   0.452   9.150
 4226POPC   GL114797   3.526   0.459   8.850
 4226POPC   GL214798   3.448   0.434   8.850
 4226POPC   C1A14799   3.498   0.448   8.550
 4226POPC   D2A14800   3.548   0.465   8.250
 4226POPC   C3A14801   3.504   0.484   7.950
 4226POPC   C4A14802   3.551   0.448   7.650
 4226POPC   C1B14803   3.260   0.400   8.550
 4226POPC   C2B14804   3.315   0.487   8.250
 4226POPC   C3B14805   3.319   0.452   7.950
 4226POPC   C4B14806   3.308   0.444   7.650
 4227POPC   NC314807  41.602   1.210   9.450
 4227POPC   PO414808  41.593   1.194   9.150
 4227POPC   GL114809  41.512   1.251   8.850
 4227POPC   GL214810  41.486   1.291   8.850
 4227POPC   C1A14811  41.558   1.216   8.550
 4227POPC   D2A14812  41.538   1.255   8.250
 4227POPC   C3A14813  41.566   1.170   7.950
 4227POPC   C4A14814  41.577   1.233   7.650
 4227POPC   C1B14815  41.388   1.386   8.550
 4227POPC   C2B14816  41.379   1.397   8.250
 4227POPC   C3B14817  41.399   1.417   7.950
 4227POPC   C4B14818  41.433   1.418   7.650
 4228POPC   NC314819  36.165  28.356   9.450
 4228POPC   PO414820  36.121  28.321   9.150
 4228POPC   GL114821  36.154  28.399   8.850
 4228POPC   GL214822  36.171  28.437   8.850
 4228POPC   C1A14823  36.102  28.373   8.550
 4228POPC   D2A14824  36.132  28.335   8.250
 4228POPC   C3A14825  36.090  28.409   7.950
 4228POPC   C4A14826  36.152  28.334   7.650
 4228POPC   C1B14827  36.232  28.571   8.550
 4228POPC   C2B14828  36.253  28.580   8.250
 4228POPC   C3B14829  36.302  28.612   7.950
 4228POPC   C4B14830  36.217  28.539   7.650
 4229POPC   NC314831  43.071  26.070   9.450
 4229POPC   PO414832  43.126  26.001   9.150
 4229POPC   GL114833  43.133  26.081   8.850
 4229POPC   GL214834  42.992  25.920   8.850
 4229POPC   C1A14835  43.108  26.033   8.550
 4229POPC   D2A14836  43.152  26.043   8.250
 4229POPC   C3A14837  43.112  26.004   7.950
 4229POPC   C4A14838  43.079  26.067   7.650
 4229POPC   C1B14839  42.956  25.870   8.550
 4229POPC   C2B14840  43.009  25.873   8.250
 4229POPC   C3B14841  42.915  25.813   7.950
 4229POPC   C4B14842  42.970  25.875   7.650
 4230POPC   NC314843  28.380  40.749   9.450
 4230POPC   PO414844  28.351  40.768   9.150
 4230POPC   GL114845  28.361  40.790   8.850
 4230POPC   GL214846  28.217  40.750   8.850
 4230POPC   C1A14847  28.417  40.793   8.550
 4230POPC   D2A14848  28.379  40.780   8.250
 4230POPC   C3A14849  28.378  40.782   7.950
 4230POPC   C4A14850  28.383  40.774   7.650
 4230POPC   C1B14851  28.147  40.798   8.550
 4230POPC   C2B14852  28.103  40.799   8.250
 4230POPC   C3B14853  28.141  40.743   7.950
 4230POPC   C4B14854  28.112  40.809   7.650
 4231POPC   NC314855  38.411  28.354   9.450
 4231POPC   PO414856  38.414  28.383   9.150
 4231POPC   GL114857  38.427  28.332   8.850
 4231POPC   GL214858  38.552  28.413   8.850
 4231POPC   C1A14859  38.452  28.350   8.550
 4231POPC   D2A14860  38.449  28.347   8.250
 4231POPC   C3A14861  38.447  28.329   7.950
 4231POPC   C4A14862  38.484  28.370   7.650
 4231POPC   C1B14863  38.665  28.426   8.550
 4231POPC   C2B14864  38.673  28.374   8.250
 4231POPC   C3B14865  38.695  28.363   7.950
 4231POPC   C4B14866  38.663  28.427   7.650
 4232POPC   NC314867  32.296  34.556   9.450
 4232POPC   PO414868  32.203  34.582   9.150
 4232POPC   GL114869  32.241  34.562   8.850
 4232POPC   GL214870  32.189  34.708   8.850
 4232POPC   C1A14871  32.211  34.566   8.550
 4232POPC   D2A14872  32.234  34.547   8.250
 4232POPC   C3A14873  32.261  34.615   7.950
 4232POPC   C4A14874  32.280  34.586   7.650
 4232POPC   C1B14875  32.111  34.800   8.550
 4232POPC   C2B14876  32.077  34.809   8.250
 4232POPC   C3B14877  32.114  34.756   7.950
 4232POPC   C4B14878  32.163  34.767   7.650
 4233POPC   NC314879   4.315   6.657   9.450
 4233POPC   PO414880   4.310   6.671   9.150
 4233POPC   GL114881   4.291   6.639   8.850
 4233POPC   GL214882   4.214   6.705   8.850
 4233POPC   C1A14883   4.282   6.670   8.550
 4233POPC   D2A14884   4.290   6.689   8.250
 4233POPC   C3A14885   4.292   6.631   7.950
 4233POPC   C4A14886   4.303   6.632   7.650
 4233POPC   C1B14887   4.209   6.807   8.550
 4233POPC   C2B14888   4.202   6.806   8.250
 4233POPC   C3B14889   4.165   6.800   7.950
 4233POPC   C4B14890   4.150   6.864   7.650
 4234POPC   NC314891  12.104  23.744   9.450
 4234POPC   PO414892  12.054  23.731   9.150
 4234POPC   GL114893  12.036  23.762   8.850
 4234POPC   GL214894  12.097  23.845   8.850
 4234POPC   C1A14895  12.091  23.708   8.550
 4234POPC   D2A14896  12.121  23.673   8.250
 4234POPC   C3A14897  12.060  23.726   7.950
 4234POPC   C4A14898  12.066  23.753   7.650
 4234POPC   C1B14899  12.175  23.932   8.550
 4234POPC   C2B14900  12.095  23.963   8.250
 4234POPC   C3B14901  12.099  23.948   7.950
 4234POPC   C4B14902  12.107  23.962   7.650
 4235POPC   NC314903   8.993  15.921   9.450
 4235POPC   PO414904   8.934  15.914   9.150
 4235POPC   GL114905   8.930  15.974   8.850
 4235POPC   GL214906   8.980  15.843   8.850
 4235POPC   C1A14907   8.978  15.965   8.550
 4235POPC   D2A14908   8.958  15.952   8.250
 4235POPC   C3A14909   8.976  15.960   7.950
 4235POPC   C4A14910   9.014  15.949   7.650
 4235POPC   C1B14911   8.918  15.690   8.550
 4235POPC   C2B14912   8.876  15.671   8.250
 4235POPC   C3B14913   8.935  15.731   7.950
 4235POPC   C4B14914   8.916  15.675   7.650
 4236POPC   NC314915  32.990  39.215   9.450
 4236POPC   PO414916  32.983  39.252   9.150
 4236POPC   GL114917  33.062  39.271   8.850
 4236POPC   GL214918  33.129  39.281   8.850
 4236POPC   C1A14919  33.022  39.182   8.550
 4236POPC   D2A14920  33.026  39.203   8.250
 4236POPC   C3A14921  33.012  39.268   7.950
 4236POPC   C4A14922  33.000  39.207   7.650
 4236POPC   C1B14923  33.223  39.302   8.550
 4236POPC   C2B14924  33.205  39.369   8.250
 4236POPC   C3B14925  33.274  39.315   7.950
 4236POPC   C4B14926  33.254  39.332   7.650
 4237POPC   NC314927  19.043  12.830   9.450
 4237POPC   PO414928  19.026  12.851   9.150
 4237POPC   GL114929  19.093  12.888   8.850
 4237POPC   GL214930  19.195  12.826   8.850
 4237POPC   C1A14931  19.020  12.895   8.550
 4237POPC   D2A14932  19.016  12.842   8.250
 4237POPC   C3A14933  19.098  12.820   7.950
 4237POPC   C4A14934  19.061  12.894   7.650
 4237POPC   C1B14935  19.303  12.850   8.550
 4237POPC   C2B14936  19.276  12.860   8.250
 4237POPC   C3B14937  19.267  12.882   7.950
 4237POPC   C4B14938  19.350  12.841   7.650
 4238POPC   NC314939  29.950  21.404   9.450
 4238POPC   PO414940  29.948  21.402   9.150
 4238POPC   GL114941  29.881  21.346   8.850
 4238POPC   GL214942  29.891  21.541   8.850
 4238POPC   C1A14943  29.948  21.403   8.550
 4238POPC   D2A14944  29.905  21.434   8.250
 4238POPC   C3A14945  29.925  21.427   7.950
 4238POPC   C4A14946  29.907  21.414   7.650
 4238POPC   C1B14947  29.835  21.655   8.550
 4238POPC   C2B14948  29.838  21.609   8.250
 4238POPC   C3B14949  29.910  21.591   7.950
 4238POPC   C4B14950  29.912  21.631   7.650
 4239POPC   NC314951  36.929  29.117   9.450
 4239POPC   PO414952  36.904  29.187   9.150
 4239POPC   GL114953  36.875  29.187   8.850
 4239POPC   GL214954  37.017  29.060   8.850
 4239POPC   C1A14955  36.930  29.141   8.550
 4239POPC   D2A14956  36.879  29.136   8.250
 4239POPC   C3A14957  36.875  29.130   7.950
 4239POPC   C4A14958  36.889  29.117   7.650
 4239POPC   C1B14959  37.023  28.956   8.550
 4239POPC   C2B14960  37.040  28.916   8.250
 4239POPC   C3B14961  37.037  28.959   7.950
 4239POPC   C4B14962  37.046  28.958   7.650
 4240POPC   NC314963  23.749  42.332   9.450
 4240POPC   PO414964  23.718  42.350   9.150
 4240POPC   GL114965  23.666  42.290   8.850
 4240POPC   GL214966  23.797  42.337   8.850
 4240POPC   C1A14967  23.730  42.338   8.550
 4240POPC   D2A14968  23.674  42.364   8.250
 4240POPC   C3A14969  23.677  42.368   7.950
 4240POPC   C4A14970  23.762  42.305   7.650
 4240POPC   C1B14971  23.958  42.234   8.550
 4240POPC   C2B14972  23.943  42.246   8.250
 4240POPC   C3B14973  23.929  42.274   7.950
 4240POPC   C4B14974  23.969  42.253   7.650
 4241POPC   NC314975   9.754  14.441   9.450
 4241POPC   PO414976   9.727  14.426   9.150
 4241POPC   GL114977   9.792  14.444   8.850
 4241POPC   GL214978   9.784  14.274   8.850
 4241POPC   C1A14979   9.778  14.424   8.550
 4241POPC   D2A14980   9.699  14.432   8.250
 4241POPC   C3A14981   9.785  14.377   7.950
 4241POPC   C4A14982   9.715  14.445   7.650
 4241POPC   C1B14983   9.833  14.155   8.550
 4241POPC   C2B14984   9.865  14.139   8.250
 4241POPC   C3B14985   9.863  14.191   7.950
 4241POPC   C4B14986   9.861  14.181   7.650
 4242POPC   NC314987   5.832  38.473   9.450
 4242POPC   PO414988   5.880  38.466   9.150
 4242POPC   GL114989   5.902  38.471   8.850
 4242POPC   GL214990   5.858  38.344   8.850
 4242POPC   C1A14991   5.896  38.447   8.550
 4242POPC   D2A14992   5.857  38.458   8.250
 4242POPC   C3A14993   5.859  38.484   7.950
 4242POPC   C4A14994   5.828  38.494   7.650
 4242POPC   C1B14995   5.809  38.234   8.550
 4242POPC   C2B14996   5.834  38.207   8.250
 4242POPC   C3B14997   5.811  38.223   7.950
 4242POPC   C4B14998   5.840  38.199   7.650
 4243POPC   NC314999   5.849  17.479   9.450
 4243POPC   PO415000   5.856  17.505   9.150
 4243POPC   GL115001   5.886  17.507   8.850
 4243POPC   GL215002   5.848  17.386   8.850
 4243POPC   C1A15003   5.888  17.527   8.550
 4243POPC   D2A15004   5.828  17.467   8.250
 4243POPC   C3A15005   5.839  17.465   7.950
 4243POPC   C4A15006   5.875  17.502   7.650
 4243POPC   C1B15007   5.923  17.253   8.550
 4243POPC   C2B15008   5.930  17.291   8.250
 4243POPC   C3B15009   5.959  17.295   7.950
 4243POPC   C4B15010   5.943  17.216   7.650
 4244POPC   NC315011   5.119  23.728   9.450
 4244POPC   PO415012   5.049  23.762   9.150
 4244POPC   GL115013   5.049  23.665   8.850
 4244POPC   GL215014   5.231  23.626   8.850
 4244POPC   C1A15015   5.079  23.713   8.550
 4244POPC   D2A15016   5.083  23.668   8.250
 4244POPC   C3A15017   5.054  23.702   7.950
 4244POPC   C4A15018   5.064  23.727   7.650
 4244POPC   C1B15019   5.299  23.542   8.550
 4244POPC   C2B15020   5.316  23.617   8.250
 4244POPC   C3B15021   5.286  23.630   7.950
 4244POPC   C4B15022   5.265  23.625   7.650
 4245POPC   NC315023  13.612   9.792   9.450
 4245POPC   PO415024  13.639   9.744   9.150
 4245POPC   GL115025  13.602   9.737   8.850
 4245POPC   GL215026  13.674   9.644   8.850
 4245POPC   C1A15027  13.643   9.705   8.550
 4245POPC   D2A15028  13.591   9.771   8.250
 4245POPC   C3A15029  13.582   9.715   7.950
 4245POPC   C4A15030  13.580   9.797   7.650
 4245POPC   C1B15031  13.803   9.604   8.550
 4245POPC   C2B15032  13.804   9.575   8.250
 4245POPC   C3B15033  13.768   9.556   7.950
 4245POPC   C4B15034  13.746   9.546   7.650
 4246POPC   NC315035  20.612  41.583   9.450
 4246POPC   PO415036  20.636  41.512   9.150
 4246POPC   GL115037  20.653  41.560   8.850
 4246POPC   GL215038  20.453  41.540   8.850
 4246POPC   C1A15039  20.611  41.608   8.550
 4246POPC   D2A15040  20.607  41.563   8.250
 4246POPC   C3A15041  20.564  41.586   7.950
 4246POPC   C4A15042  20.582  41.540   7.650
 4246POPC   C1B15043  20.369  41.508   8.550
 4246POPC   C2B15044  20.406  41.467   8.250
 4246POPC   C3B15045  20.386  41.494   7.950
 4246POPC   C4B15046  20.414  41.507   7.650
 4247POPC   NC315047  43.138  22.926   9.450
 4247POPC   PO415048  43.086  22.909   9.150
 4247POPC   GL115049  43.081  22.938   8.850
 4247POPC   GL215050  43.088  22.808   8.850
 4247POPC   C1A15051  43.067  22.923   8.550
 4247POPC   D2A15052  43.140  22.961   8.250
 4247POPC   C3A15053  43.094  22.953   7.950
 4247POPC   C4A15054  43.070  22.970   7.650
 4247POPC   C1B15055  43.102  22.682   8.550
 4247POPC   C2B15056  43.019  22.692   8.250
 4247POPC   C3B15057  43.022  22.701   7.950
 4247POPC   C4B15058  43.021  22.718   7.650
 4248POPC   NC315059  28.393  43.928   9.450
 4248POPC   PO415060  28.337  43.919   9.150
 4248POPC   GL115061  28.356  43.926   8.850
 4248POPC   GL215062  28.403  44.038   8.850
 4248POPC   C1A15063  28.327  43.855   8.550
 4248POPC   D2A15064  28.325  43.838   8.250
 4248POPC   C3A15065  28.370  43.926   7.950
 4248POPC   C4A15066  28.416  43.906   7.650
 4248POPC   C1B15067  28.361  44.087   8.550
 4248POPC   C2B15068  28.302  44.175   8.250
 4248POPC   C3B15069  28.339  44.099   7.950
 4248POPC   C4B15070  28.385  44.169   7.650
 4249POPC   NC315071  37.715   4.360   9.450
 4249POPC   PO415072  37.714   4.290   9.150
 4249POPC   GL115073  37.671   4.337   8.850
 4249POPC   GL215074  37.537   4.223   8.850
 4249POPC   C1A15075  37.630   4.331   8.550
 4249POPC   D2A15076  37.692   4.324   8.250
 4249POPC   C3A15077  37.647   4.300   7.950
 4249POPC   C4A15078  37.722   4.285   7.650
 4249POPC   C1B15079  37.457   4.166   8.550
 4249POPC   C2B15080  37.426   4.220   8.250
 4249POPC   C3B15081  37.512   4.205   7.950
 4249POPC   C4B15082  37.492   4.201   7.650
 4250POPC   NC315083  38.436  21.341   9.450
 4250POPC   PO415084  38.468  21.399   9.150
 4250POPC   GL115085  38.406  21.342   8.850
 4250POPC   GL215086  38.573  21.385   8.850
 4250POPC   C1A15087  38.504  21.401   8.550
 4250POPC   D2A15088  38.454  21.372   8.250
 4250POPC   C3A15089  38.421  21.376   7.950
 4250POPC   C4A15090  38.470  21.360   7.650
 4250POPC   C1B15091  38.714  21.310   8.550
 4250POPC   C2B15092  38.691  21.293   8.250
 4250POPC   C3B15093  38.666  21.338   7.950
 4250POPC   C4B15094  38.718  21.319   7.650
 4251POPC   NC315095  14.365  34.605   9.450
 4251POPC   PO415096  14.390  34.620   9.150
 4251POPC   GL115097  14.390  34.595   8.850
 4251POPC   GL215098  14.517  34.604   8.850
 4251POPC   C1A15099  14.394  34.529   8.550
 4251POPC   D2A15100  14.392  34.611   8.250
 4251POPC   C3A15101  14.371  34.624   7.950
 4251POPC   C4A15102  14.369  34.580   7.650
 4251POPC   C1B15103  14.695  34.590   8.550
 4251POPC   C2B15104  14.641  34.559   8.250
 4251POPC   C3B15105  14.644  34.527   7.950
 4251POPC   C4B15106  14.637  34.543   7.650
 4252POPC   NC315107  44.633   6.651   9.450
 4252POPC   PO415108  44.674   6.630   9.150
 4252POPC   GL115109  44.703   6.691   8.850
 4252POPC   GL215110  44.701   6.566   8.850
 4252POPC   C1A15111  44.650   6.674   8.550
 4252POPC   D2A15112  44.646   6.650   8.250
 4252POPC   C3A15113  44.636   6.676   7.950
 4252POPC   C4A15114  44.656   6.692   7.650
 4252POPC   C1B15115  44.765   6.398   8.550
 4252POPC   C2B15116  44.740   6.392   8.250
 4252POPC   C3B15117  44.702   6.390   7.950
 4252POPC   C4B15118  44.687   6.446   7.650
 4253POPC   NC315119  39.184   3.527   9.450
 4253POPC   PO415120  39.241   3.500   9.150
 4253POPC   GL115121  39.209   3.546   8.850
 4253POPC   GL215122  39.130   3.628   8.850
 4253POPC   C1A15123  39.255   3.586   8.550
 4253POPC   D2A15124  39.234   3.581   8.250
 4253POPC   C3A15125  39.227   3.498   7.950
 4253POPC   C4A15126  39.208   3.575   7.650
 4253POPC   C1B15127  39.080   3.720   8.550
 4253POPC   C2B15128  39.086   3.716   8.250
 4253POPC   C3B15129  39.116   3.763   7.950
 4253POPC   C4B15130  39.048   3.763   7.650
 4254POPC   NC315131  12.046  21.412   9.450
 4254POPC   PO415132  12.046  21.390   9.150
 4254POPC   GL115133  12.101  21.424   8.850
 4254POPC   GL215134  12.195  21.347   8.850
 4254POPC   C1A15135  12.071  21.424   8.550
 4254POPC   D2A15136  12.046  21.373   8.250
 4254POPC   C3A15137  12.110  21.432   7.950
 4254POPC   C4A15138  12.111  21.405   7.650
 4254POPC   C1B15139  12.264  21.235   8.550
 4254POPC   C2B15140  12.221  21.197   8.250
 4254POPC   C3B15141  12.290  21.203   7.950
 4254POPC   C4B15142  12.288  21.253   7.650
 4255POPC   NC315143  11.319  22.960   9.450
 4255POPC   PO415144  11.287  22.903   9.150
 4255POPC   GL115145  11.267  22.897   8.850
 4255POPC   GL215146  11.199  22.870   8.850
 4255POPC   C1A15147  11.277  22.971   8.550
 4255POPC   D2A15148  11.329  22.915   8.250
 4255POPC   C3A15149  11.310  22.958   7.950
 4255POPC   C4A15150  11.309  22.889   7.650
 4255POPC   C1B15151  11.141  22.750   8.550
 4255POPC   C2B15152  11.180  22.778   8.250
 4255POPC   C3B15153  11.175  22.793   7.950
 4255POPC   C4B15154  11.190  22.723   7.650
 4256POPC   NC315155  38.426  40.000   9.450
 4256POPC   PO415156  38.461  40.043   9.150
 4256POPC   GL115157  38.503  40.025   8.850
 4256POPC   GL215158  38.547  40.008   8.850
 4256POPC   C1A15159  38.470  40.025   8.550
 4256POPC   D2A15160  38.441  40.027   8.250
 4256POPC   C3A15161  38.407  40.013   7.950
 4256POPC   C4A15162  38.426  39.993   7.650
 4256POPC   C1B15163  38.710  39.981   8.550
 4256POPC   C2B15164  38.716  40.011   8.250
 4256POPC   C3B15165  38.704  40.041   7.950
 4256POPC   C4B15166  38.748  40.002   7.650
 4257POPC   NC315167  26.855   4.284   9.450
 4257POPC   PO415168  26.812   4.332   9.150
 4257POPC   GL115169  26.783   4.366   8.850
 4257POPC   GL215170  26.791   4.182   8.850
 4257POPC   C1A15171  26.833   4.320   8.550
 4257POPC   D2A15172  26.824   4.362   8.250
 4257POPC   C3A15173  26.827   4.308   7.950
 4257POPC   C4A15174  26.857   4.358   7.650
 4257POPC   C1B15175  26.837   4.023   8.550
 4257POPC   C2B15176  26.757   4.020   8.250
 4257POPC   C3B15177  26.809   4.039   7.950
 4257POPC   C4B15178  26.799   4.069   7.650
 4258POPC   NC315179  40.819  20.634   9.450
 4258POPC   PO415180  40.819  20.573   9.150
 4258POPC   GL115181  40.749  20.620   8.850
 4258POPC   GL215182  40.865  20.496   8.850
 4258POPC   C1A15183  40.736  20.564   8.550
 4258POPC   D2A15184  40.824  20.581   8.250
 4258POPC   C3A15185  40.760  20.596   7.950
 4258POPC   C4A15186  40.758  20.584   7.650
 4258POPC   C1B15187  40.896  20.370   8.550
 4258POPC   C2B15188  40.966  20.455   8.250
 4258POPC   C3B15189  40.932  20.462   7.950
 4258POPC   C4B15190  40.963  20.392   7.650
 4259POPC   NC315191  12.046  36.936   9.450
 4259POPC   PO415192  12.121  36.909   9.150
 4259POPC   GL115193  12.095  36.891   8.850
 4259POPC   GL215194  12.241  36.904   8.850
 4259POPC   C1A15195  12.054  36.938   8.550
 4259POPC   D2A15196  12.113  36.942   8.250
 4259POPC   C3A15197  12.083  36.872   7.950
 4259POPC   C4A15198  12.080  36.898   7.650
 4259POPC   C1B15199  12.299  36.897   8.550
 4259POPC   C2B15200  12.371  36.918   8.250
 4259POPC   C3B15201  12.370  36.925   7.950
 4259POPC   C4B15202  12.350  36.922   7.650
 4260POPC   NC315203  22.952  23.730   9.450
 4260POPC   PO415204  22.984  23.708   9.150
 4260POPC   GL115205  22.904  23.673   8.850
 4260POPC   GL215206  22.807  23.733   8.850
 4260POPC   C1A15207  22.970  23.730   8.550
 4260POPC   D2A15208  22.960  23.668   8.250
 4260POPC   C3A15209  22.896  23.694   7.950
 4260POPC   C4A15210  22.893  23.717   7.650
 4260POPC   C1B15211  22.694  23.729   8.550
 4260POPC   C2B15212  22.717  23.754   8.250
 4260POPC   C3B15213  22.703  23.727   7.950
 4260POPC   C4B15214  22.723  23.758   7.650
 4261POPC   NC315215   1.966  18.294   9.450
 4261POPC   PO415216   2.005  18.307   9.150
 4261POPC   GL115217   1.981  18.288   8.850
 4261POPC   GL215218   2.132  18.395   8.850
 4261POPC   C1A15219   1.983  18.316   8.550
 4261POPC   D2A15220   1.967  18.235   8.250
 4261POPC   C3A15221   2.010  18.295   7.950
 4261POPC   C4A15222   1.991  18.290   7.650
 4261POPC   C1B15223   2.245  18.392   8.550
 4261POPC   C2B15224   2.147  18.442   8.250
 4261POPC   C3B15225   2.148  18.377   7.950
 4261POPC   C4B15226   2.164  18.436   7.650
 4262POPC   NC315227   0.418  12.806   9.450
 4262POPC   PO415228   0.437  12.815   9.150
 4262POPC   GL115229   0.424  12.839   8.850
 4262POPC   GL215230   0.414  12.928   8.850
 4262POPC   C1A15231   0.404  12.857   8.550
 4262POPC   D2A15232   0.433  12.890   8.250
 4262POPC   C3A15233   0.481  12.863   7.950
 4262POPC   C4A15234   0.409  12.826   7.650
 4262POPC   C1B15235   0.510  13.080   8.550
 4262POPC   C2B15236   0.522  13.105   8.250
 4262POPC   C3B15237   0.493  13.064   7.950
 4262POPC   C4B15238   0.437  13.132   7.650
 4263POPC   NC315239  43.157   0.464   9.450
 4263POPC   PO415240  43.152   0.389   9.150
 4263POPC   GL115241  43.151   0.398   8.850
 4263POPC   GL215242  43.142   0.337   8.850
 4263POPC   C1A15243  43.109   0.426   8.550
 4263POPC   D2A15244  43.126   0.457   8.250
 4263POPC   C3A15245  43.069   0.447   7.950
 4263POPC   C4A15246  43.063   0.397   7.650
 4263POPC   C1B15247  43.106   0.210   8.550
 4263POPC   C2B15248  43.136   0.199   8.250
 4263POPC   C3B15249  43.137   0.179   7.950
 4263POPC   C4B15250  43.050   0.194   7.650
 4264POPC   NC315251  14.373  33.822   9.450
 4264POPC   PO415252  14.395  33.835   9.150
 4264POPC   GL115253  14.373  33.803   8.850
 4264POPC   GL215254  14.533  33.736   8.850
 4264POPC   C1A15255  14.371  33.846   8.550
 4264POPC   D2A15256  14.398  33.793   8.250
 4264POPC   C3A15257  14.434  33.781   7.950
 4264POPC   C4A15258  14.451  33.807   7.650
 4264POPC   C1B15259  14.595  33.696   8.550
 4264POPC   C2B15260  14.613  33.655   8.250
 4264POPC   C3B15261  14.610  33.693   7.950
 4264POPC   C4B15262  14.623  33.644   7.650
 4265POPC   NC315263  19.820  17.494   9.450
 4265POPC   PO415264  19.883  17.550   9.150
 4265POPC   GL115265  19.871  17.530   8.850
 4265POPC   GL215266  19.739  17.468   8.850
 4265POPC   C1A15267  19.811  17.551   8.550
 4265POPC   D2A15268  19.870  17.483   8.250
 4265POPC   C3A15269  19.785  17.532   7.950
 4265POPC   C4A15270  19.805  17.466   7.650
 4265POPC   C1B15271  19.637  17.490   8.550
 4265POPC   C2B15272  19.583  17.456   8.250
 4265POPC   C3B15273  19.615  17.488   7.950
 4265POPC   C4B15274  19.541  17.440   7.650
 4266POPC   NC315275  44.674  23.753   9.450
 4266POPC   PO415276  44.651  23.761   9.150
 4266POPC   GL115277  44.695  23.690   8.850
 4266POPC   GL215278  44.619  23.799   8.850
 4266POPC   C1A15279  44.700  23.710   8.550
 4266POPC   D2A15280  44.635  23.720   8.250
 4266POPC   C3A15281  44.643  23.751   7.950
 4266POPC   C4A15282  44.698  23.741   7.650
 4266POPC   C1B15283  44.544  23.928   8.550
 4266POPC   C2B15284  44.639  23.978   8.250
 4266POPC   C3B15285  44.575  23.948   7.950
 4266POPC   C4B15286  44.553  23.948   7.650
 4267POPC   NC315287  13.606  16.726   9.450
 4267POPC   PO415288  13.634  16.726   9.150
 4267POPC   GL115289  13.578  16.687   8.850
 4267POPC   GL215290  13.552  16.826   8.850
 4267POPC   C1A15291  13.673  16.681   8.550
 4267POPC   D2A15292  13.629  16.755   8.250
 4267POPC   C3A15293  13.617  16.742   7.950
 4267POPC   C4A15294  13.676  16.729   7.650
 4267POPC   C1B15295  13.483  16.941   8.550
 4267POPC   C2B15296  13.500  16.904   8.250
 4267POPC   C3B15297  13.470  16.938   7.950
 4267POPC   C4B15298  13.483  16.947   7.650
 4268POPC   NC315299  35.377   0.439   9.450
 4268POPC   PO415300  35.330   0.445   9.150
 4268POPC   GL115301  35.321   0.427   8.850
 4268POPC   GL215302  35.345   0.348   8.850
 4268POPC   C1A15303  35.366   0.421   8.550
 4268POPC   D2A15304  35.393   0.460   8.250
 4268POPC   C3A15305  35.386   0.417   7.950
 4268POPC   C4A15306  35.384   0.435   7.650
 4268POPC   C1B15307  35.209   0.166   8.550
 4268POPC   C2B15308  35.219   0.221   8.250
 4268POPC   C3B15309  35.257   0.217   7.950
 4268POPC   C4B15310  35.206   0.183   7.650
 4269POPC   NC315311  29.158  26.821   9.450
 4269POPC   PO415312  29.135  26.805   9.150
 4269POPC   GL115313  29.128  26.820   8.850
 4269POPC   GL215314  29.025  26.729   8.850
 4269POPC   C1A15315  29.116  26.787   8.550
 4269POPC   D2A15316  29.160  26.768   8.250
 4269POPC   C3A15317  29.140  26.810   7.950
 4269POPC   C4A15318  29.166  26.810   7.650
 4269POPC   C1B15319  29.050  26.609   8.550
 4269POPC   C2B15320  29.040  26.574   8.250
 4269POPC   C3B15321  28.984  26.659   7.950
 4269POPC   C4B15322  29.012  26.644   7.650
 4270POPC   NC315323  38.440   5.893   9.450
 4270POPC   PO415324  38.449   5.896   9.150
 4270POPC   GL115325  38.458   5.863   8.850
 4270POPC   GL215326  38.589   5.919   8.850
 4270POPC   C1A15327  38.469   5.834   8.550
 4270POPC   D2A15328  38.475   5.889   8.250
 4270POPC   C3A15329  38.461   5.840   7.950
 4270POPC   C4A15330  38.472   5.833   7.650
 4270POPC   C1B15331  38.675   5.938   8.550
 4270POPC   C2B15332  38.658   5.928   8.250
 4270POPC   C3B15333  38.732   5.983   7.950
 4270POPC   C4B15334  38.711   5.916   7.650
 4271POPC   NC315335  12.048  43.843   9.450
 4271POPC   PO415336  12.109  43.910   9.150
 4271POPC   GL115337  12.060  43.931   8.850
 4271POPC   GL215338  12.160  43.967   8.850
 4271POPC   C1A15339  12.123  43.883   8.550
 4271POPC   D2A15340  12.096  43.882   8.250
 4271POPC   C3A15341  12.054  43.918   7.950
 4271POPC   C4A15342  12.029  43.924   7.650
 4271POPC   C1B15343  12.252  44.039   8.550
 4271POPC   C2B15344  12.293  44.060   8.250
 4271POPC   C3B15345  12.285  44.076   7.950
 4271POPC   C4B15346  12.230  44.072   7.650
 4272POPC   NC315347   9.736   2.743   9.450
 4272POPC   PO415348   9.785   2.761   9.150
 4272POPC   GL115349   9.762   2.738   8.850
 4272POPC   GL215350   9.773   2.910   8.850
 4272POPC   C1A15351   9.772   2.813   8.550
 4272POPC   D2A15352   9.738   2.725   8.250
 4272POPC   C3A15353   9.715   2.740   7.950
 4272POPC   C4A15354   9.729   2.750   7.650
 4272POPC   C1B15355   9.845   2.962   8.550
 4272POPC   C2B15356   9.757   2.976   8.250
 4272POPC   C3B15357   9.783   2.969   7.950
 4272POPC   C4B15358   9.754   3.024   7.650
 4273POPC   NC315359  25.222  12.870   9.450
 4273POPC   PO415360  25.282  12.865   9.150
 4273POPC   GL115361  25.261  12.832   8.850
 4273POPC   GL215362  25.363  12.827   8.850
 4273POPC   C1A15363  25.232  12.817   8.550
 4273POPC   D2A15364  25.294  12.814   8.250
 4273POPC   C3A15365  25.261  12.870   7.950
 4273POPC   C4A15366  25.301  12.845   7.650
 4273POPC   C1B15367  25.495  12.903   8.550
 4273POPC   C2B15368  25.490  12.891   8.250
 4273POPC   C3B15369  25.479  12.929   7.950
 4273POPC   C4B15370  25.503  12.929   7.650
 4274POPC   NC315371  34.595  42.315   9.450
 4274POPC   PO415372  34.562  42.380   9.150
 4274POPC   GL115373  34.601  42.316   8.850
 4274POPC   GL215374  34.494  42.241   8.850
 4274POPC   C1A15375  34.527  42.306   8.550
 4274POPC   D2A15376  34.557  42.380   8.250
 4274POPC   C3A15377  34.601  42.300   7.950
 4274POPC   C4A15378  34.536  42.286   7.650
 4274POPC   C1B15379  34.303  42.248   8.550
 4274POPC   C2B15380  34.354  42.261   8.250
 4274POPC   C3B15381  34.366  42.190   7.950
 4274POPC   C4B15382  34.318  42.254   7.650
 4275POPC   NC315383   5.917  27.569   9.450
 4275POPC   PO415384   5.826  27.639   9.150
 4275POPC   GL115385   5.850  27.596   8.850
 4275POPC   GL215386   5.786  27.598   8.850
 4275POPC   C1A15387   5.885  27.634   8.550
 4275POPC   D2A15388   5.906  27.591   8.250
 4275POPC   C3A15389   5.831  27.590   7.950
 4275POPC   C4A15390   5.868  27.616   7.650
 4275POPC   C1B15391   5.602  27.671   8.550
 4275POPC   C2B15392   5.665  27.639   8.250
 4275POPC   C3B15393   5.639  27.664   7.950
 4275POPC   C4B15394   5.667  27.710   7.650
 4276POPC   NC315395  39.997  36.864   9.450
 4276POPC   PO415396  39.960  36.948   9.150
 4276POPC   GL115397  40.013  36.908   8.850
 4276POPC   GL215398  40.026  37.075   8.850
 4276POPC   C1A15399  40.030  36.949   8.550
 4276POPC   D2A15400  40.042  36.888   8.250
 4276POPC   C3A15401  40.001  36.866   7.950
 4276POPC   C4A15402  40.036  36.876   7.650
 4276POPC   C1B15403  40.057  37.146   8.550
 4276POPC   C2B15404  40.071  37.165   8.250
 4276POPC   C3B15405  40.071  37.164   7.950
 4276POPC   C4B15406  40.059  37.182   7.650
 4277POPC   NC315407  34.596  11.279   9.450
 4277POPC   PO415408  34.542  11.304   9.150
 4277POPC   GL115409  34.543  11.331   8.850
 4277POPC   GL215410  34.681  11.322   8.850
 4277POPC   C1A15411  34.607  11.284   8.550
 4277POPC   D2A15412  34.596  11.250   8.250
 4277POPC   C3A15413  34.555  11.337   7.950
 4277POPC   C4A15414  34.576  11.338   7.650
 4277POPC   C1B15415  34.780  11.307   8.550
 4277POPC   C2B15416  34.804  11.385   8.250
 4277POPC   C3B15417  34.827  11.352   7.950
 4277POPC   C4B15418  34.799  11.398   7.650
 4278POPC   NC315419  18.313   2.723   9.450
 4278POPC   PO415420  18.297   2.743   9.150
 4278POPC   GL115421  18.319   2.760   8.850
 4278POPC   GL215422  18.216   2.788   8.850
 4278POPC   C1A15423  18.237   2.784   8.550
 4278POPC   D2A15424  18.324   2.716   8.250
 4278POPC   C3A15425  18.315   2.753   7.950
 4278POPC   C4A15426  18.234   2.746   7.650
 4278POPC   C1B15427  18.121   2.924   8.550
 4278POPC   C2B15428  18.048   2.934   8.250
 4278POPC   C3B15429  18.027   2.912   7.950
 4278POPC   C4B15430  18.117   2.953   7.650
 4279POPC   NC315431  41.595  21.423   9.450
 4279POPC   PO415432  41.538  21.403   9.150
 4279POPC   GL115433  41.523  21.425   8.850
 4279POPC   GL215434  41.589  21.286   8.850
 4279POPC   C1A15435  41.572  21.436   8.550
 4279POPC   D2A15436  41.555  21.406   8.250
 4279POPC   C3A15437  41.575  21.338   7.950
 4279POPC   C4A15438  41.515  21.380   7.650
 4279POPC   C1B15439  41.721  21.153   8.550
 4279POPC   C2B15440  41.733  21.144   8.250
 4279POPC   C3B15441  41.744  21.215   7.950
 4279POPC   C4B15442  41.679  21.135   7.650
 4280POPC   NC315443  39.211   1.209   9.450
 4280POPC   PO415444  39.209   1.199   9.150
 4280POPC   GL115445  39.218   1.186   8.850
 4280POPC   GL215446  39.176   1.334   8.850
 4280POPC   C1A15447  39.251   1.180   8.550
 4280POPC   D2A15448  39.232   1.243   8.250
 4280POPC   C3A15449  39.255   1.240   7.950
 4280POPC   C4A15450  39.249   1.252   7.650
 4280POPC   C1B15451  39.044   1.321   8.550
 4280POPC   C2B15452  39.033   1.314   8.250
 4280POPC   C3B15453  39.050   1.344   7.950
 4280POPC   C4B15454  39.050   1.333   7.650
 4281POPC   NC315455   7.465   1.946   9.450
 4281POPC   PO415456   7.442   1.951   9.150
 4281POPC   GL115457   7.398   1.991   8.850
 4281POPC   GL215458   7.296   1.877   8.850
 4281POPC   C1A15459   7.428   1.951   8.550
 4281POPC   D2A15460   7.448   1.981   8.250
 4281POPC   C3A15461   7.427   1.958   7.950
 4281POPC   C4A15462   7.402   1.992   7.650
 4281POPC   C1B15463   7.263   1.809   8.550
 4281POPC   C2B15464   7.270   1.838   8.250
 4281POPC   C3B15465   7.263   1.825   7.950
 4281POPC   C4B15466   7.256   1.835   7.650
 4282POPC   NC315467  10.529   8.164   9.450
 4282POPC   PO415468  10.552   8.185   9.150
 4282POPC   GL115469  10.482   8.243   8.850
 4282POPC   GL215470  10.450   8.130   8.850
 4282POPC   C1A15471  10.543   8.175   8.550
 4282POPC   D2A15472  10.555   8.183   8.250
 4282POPC   C3A15473  10.511   8.233   7.950
 4282POPC   C4A15474  10.488   8.196   7.650
 4282POPC   C1B15475  10.418   7.990   8.550
 4282POPC   C2B15476  10.386   7.986   8.250
 4282POPC   C3B15477  10.342   7.971   7.950
 4282POPC   C4B15478  10.398   7.938   7.650
 4283POPC   NC315479  18.238  12.108   9.450
 4283POPC   PO415480  18.255  12.075   9.150
 4283POPC   GL115481  18.328  12.052   8.850
 4283POPC   GL215482  18.200  12.092   8.850
 4283POPC   C1A15483  18.306  12.097   8.550
 4283POPC   D2A15484  18.316  12.060   8.250
 4283POPC   C3A15485  18.240  12.029   7.950
 4283POPC   C4A15486  18.233  12.050   7.650
 4283POPC   C1B15487  17.992  11.991   8.550
 4283POPC   C2B15488  18.079  11.975   8.250
 4283POPC   C3B15489  18.000  12.031   7.950
 4283POPC   C4B15490  18.032  12.013   7.650
 4284POPC   NC315491  17.541  19.064   9.450
 4284POPC   PO415492  17.501  19.043   9.150
 4284POPC   GL115493  17.488  19.036   8.850
 4284POPC   GL215494  17.639  19.050   8.850
 4284POPC   C1A15495  17.538  19.045   8.550
 4284POPC   D2A15496  17.486  19.012   8.250
 4284POPC   C3A15497  17.489  19.038   7.950
 4284POPC   C4A15498  17.472  19.097   7.650
 4284POPC   C1B15499  17.752  19.028   8.550
 4284POPC   C2B15500  17.723  19.036   8.250
 4284POPC   C3B15501  17.741  19.111   7.950
 4284POPC   C4B15502  17.764  19.097   7.650
 4285POPC   NC315503  12.116  20.560   9.450
 4285POPC   PO415504  12.114  20.602   9.150
 4285POPC   GL115505  12.091  20.609   8.850
 4285POPC   GL215506  12.197  20.509   8.850
 4285POPC   C1A15507  12.097  20.567   8.550
 4285POPC   D2A15508  12.060  20.596   8.250
 4285POPC   C3A15509  12.036  20.605   7.950
 4285POPC   C4A15510  12.075  20.606   7.650
 4285POPC   C1B15511  12.242  20.461   8.550
 4285POPC   C2B15512  12.220  20.453   8.250
 4285POPC   C3B15513  12.253  20.416   7.950
 4285POPC   C4B15514  12.285  20.438   7.650
 4286POPC   NC315515  12.853  43.854   9.450
 4286POPC   PO415516  12.898  43.928   9.150
 4286POPC   GL115517  12.826  43.844   8.850
 4286POPC   GL215518  12.743  43.859   8.850
 4286POPC   C1A15519  12.805  43.935   8.550
 4286POPC   D2A15520  12.889  43.923   8.250
 4286POPC   C3A15521  12.809  43.864   7.950
 4286POPC   C4A15522  12.867  43.882   7.650
 4286POPC   C1B15523  12.615  43.799   8.550
 4286POPC   C2B15524  12.576  43.856   8.250
 4286POPC   C3B15525  12.630  43.821   7.950
 4286POPC   C4B15526  12.644  43.852   7.650
 4287POPC   NC315527  39.278   6.642   9.450
 4287POPC   PO415528  39.243   6.643   9.150
 4287POPC   GL115529  39.235   6.673   8.850
 4287POPC   GL215530  39.141   6.544   8.850
 4287POPC   C1A15531  39.227   6.671   8.550
 4287POPC   D2A15532  39.251   6.640   8.250
 4287POPC   C3A15533  39.230   6.662   7.950
 4287POPC   C4A15534  39.219   6.596   7.650
 4287POPC   C1B15535  39.093   6.423   8.550
 4287POPC   C2B15536  39.124   6.439   8.250
 4287POPC   C3B15537  39.097   6.446   7.950
 4287POPC   C4B15538  39.104   6.479   7.650
 4288POPC   NC315539  36.887  15.209   9.450
 4288POPC   PO415540  36.939  15.194   9.150
 4288POPC   GL115541  36.933  15.161   8.850
 4288POPC   GL215542  36.933  15.077   8.850
 4288POPC   C1A15543  36.867  15.147   8.550
 4288POPC   D2A15544  36.871  15.218   8.250
 4288POPC   C3A15545  36.895  15.196   7.950
 4288POPC   C4A15546  36.855  15.224   7.650
 4288POPC   C1B15547  37.039  14.948   8.550
 4288POPC   C2B15548  37.005  14.949   8.250
 4288POPC   C3B15549  37.044  14.988   7.950
 4288POPC   C4B15550  36.976  14.983   7.650
 4289POPC   NC315551  30.693  34.569   9.450
 4289POPC   PO415552  30.736  34.546   9.150
 4289POPC   GL115553  30.656  34.614   8.850
 4289POPC   GL215554  30.779  34.688   8.850
 4289POPC   C1A15555  30.650  34.619   8.550
 4289POPC   D2A15556  30.716  34.586   8.250
 4289POPC   C3A15557  30.666  34.581   7.950
 4289POPC   C4A15558  30.670  34.623   7.650
 4289POPC   C1B15559  30.808  34.816   8.550
 4289POPC   C2B15560  30.764  34.807   8.250
 4289POPC   C3B15561  30.803  34.782   7.950
 4289POPC   C4B15562  30.834  34.824   7.650
 4290POPC   NC315563  13.662  42.382   9.450
 4290POPC   PO415564  13.673  42.382   9.150
 4290POPC   GL115565  13.614  42.368   8.850
 4290POPC   GL215566  13.479  42.367   8.850
 4290POPC   C1A15567  13.595  42.344   8.550
 4290POPC   D2A15568  13.640  42.292   8.250
 4290POPC   C3A15569  13.603  42.372   7.950
 4290POPC   C4A15570  13.670  42.376   7.650
 4290POPC   C1B15571  13.354  42.337   8.550
 4290POPC   C2B15572  13.413  42.344   8.250
 4290POPC   C3B15573  13.382  42.356   7.950
 4290POPC   C4B15574  13.425  42.349   7.650
 4291POPC   NC315575  24.521  19.819   9.450
 4291POPC   PO415576  24.490  19.848   9.150
 4291POPC   GL115577  24.462  19.857   8.850
 4291POPC   GL215578  24.623  19.787   8.850
 4291POPC   C1A15579  24.523  19.797   8.550
 4291POPC   D2A15580  24.459  19.878   8.250
 4291POPC   C3A15581  24.491  19.867   7.950
 4291POPC   C4A15582  24.460  19.853   7.650
 4291POPC   C1B15583  24.661  19.753   8.550
 4291POPC   C2B15584  24.757  19.706   8.250
 4291POPC   C3B15585  24.698  19.668   7.950
 4291POPC   C4B15586  24.722  19.689   7.650
 4292POPC   NC315587  38.500  42.301   9.450
 4292POPC   PO415588  38.449  42.358   9.150
 4292POPC   GL115589  38.413  42.330   8.850
 4292POPC   GL215590  38.360  42.309   8.850
 4292POPC   C1A15591  38.446  42.368   8.550
 4292POPC   D2A15592  38.460  42.315   8.250
 4292POPC   C3A15593  38.474  42.304   7.950
 4292POPC   C4A15594  38.444  42.348   7.650
 4292POPC   C1B15595  38.161  42.321   8.550
 4292POPC   C2B15596  38.241  42.373   8.250
 4292POPC   C3B15597  38.175  42.371   7.950
 4292POPC   C4B15598  38.210  42.409   7.650
 4293POPC   NC315599  29.127  28.385   9.450
 4293POPC   PO415600  29.150  28.405   9.150
 4293POPC   GL115601  29.158  28.331   8.850
 4293POPC   GL215602  29.231  28.423   8.850
 4293POPC   C1A15603  29.123  28.322   8.550
 4293POPC   D2A15604  29.099  28.365   8.250
 4293POPC   C3A15605  29.175  28.331   7.950
 4293POPC   C4A15606  29.191  28.394   7.650
 4293POPC   C1B15607  29.427  28.432   8.550
 4293POPC   C2B15608  29.372  28.375   8.250
 4293POPC   C3B15609  29.429  28.434   7.950
 4293POPC   C4B15610  29.433  28.421   7.650
 4294POPC   NC315611  26.814  32.229   9.450
 4294POPC   PO415612  26.851  32.294   9.150
 4294POPC   GL115613  26.774  32.241   8.850
 4294POPC   GL215614  26.890  32.179   8.850
 4294POPC   C1A15615  26.815  32.264   8.550
 4294POPC   D2A15616  26.811  32.281   8.250
 4294POPC   C3A15617  26.785  32.223   7.950
 4294POPC   C4A15618  26.835  32.219   7.650
 4294POPC   C1B15619  27.100  32.186   8.550
 4294POPC   C2B15620  27.059  32.219   8.250
 4294POPC   C3B15621  27.067  32.181   7.950
 4294POPC   C4B15622  27.084  32.150   7.650
 4295POPC   NC315623  15.218  12.070   9.450
 4295POPC   PO415624  15.211  12.083   9.150
 4295POPC   GL115625  15.177  12.118   8.850
 4295POPC   GL215626  15.021  12.105   8.850
 4295POPC   C1A15627  15.151  12.114   8.550
 4295POPC   D2A15628  15.200  12.111   8.250
 4295POPC   C3A15629  15.206  12.053   7.950
 4295POPC   C4A15630  15.195  12.026   7.650
 4295POPC   C1B15631  14.984  12.216   8.550
 4295POPC   C2B15632  14.996  12.172   8.250
 4295POPC   C3B15633  14.924  12.142   7.950
 4295POPC   C4B15634  14.921  12.143   7.650
 4296POPC   NC315635   9.744  38.415   9.450
 4296POPC   PO415636   9.740  38.444   9.150
 4296POPC   GL115637   9.711  38.423   8.850
 4296POPC   GL215638   9.622  38.472   8.850
 4296POPC   C1A15639   9.736  38.418   8.550
 4296POPC   D2A15640   9.781  38.422   8.250
 4296POPC   C3A15641   9.733  38.435   7.950
 4296POPC   C4A15642   9.708  38.451   7.650
 4296POPC   C1B15643   9.508  38.372   8.550
 4296POPC   C2B15644   9.507  38.393   8.250
 4296POPC   C3B15645   9.486  38.413   7.950
 4296POPC   C4B15646   9.547  38.389   7.650
 4297POPC   NC315647  41.568  44.629   9.450
 4297POPC   PO415648  41.594  44.664   9.150
 4297POPC   GL115649  41.575  44.676   8.850
 4297POPC   GL215650  41.472  44.586   8.850
 4297POPC   C1A15651  41.596  44.650   8.550
 4297POPC   D2A15652  41.516  44.669   8.250
 4297POPC   C3A15653  41.587  44.629   7.950
 4297POPC   C4A15654  41.597  44.671   7.650
 4297POPC   C1B15655  41.389  44.425   8.550
 4297POPC   C2B15656  41.470  44.410   8.250
 4297POPC   C3B15657  41.447  44.398   7.950
 4297POPC   C4B15658  41.412  44.493   7.650
 4298POPC   NC315659  17.497  42.332   9.450
 4298POPC   PO415660  17.502  42.354   9.150
 4298POPC   GL115661  17.513  42.335   8.850
 4298POPC   GL215662  17.494  42.178   8.850
 4298POPC   C1A15663  17.538  42.295   8.550
 4298POPC   D2A15664  17.503  42.288   8.250
 4298POPC   C3A15665  17.471  42.374   7.950
 4298POPC   C4A15666  17.547  42.360   7.650
 4298POPC   C1B15667  17.403  42.083   8.550
 4298POPC   C2B15668  17.460  42.062   8.250
 4298POPC   C3B15669  17.443  42.106   7.950
 4298POPC   C4B15670  17.427  42.116   7.650
 4299POPC   NC315671  44.639   1.219   9.450
 4299POPC   PO415672  44.709   1.234   9.150
 4299POPC   GL115673  44.699   1.253   8.850
 4299POPC   GL215674  44.677   1.129   8.850
 4299POPC   C1A15675  44.685   1.252   8.550
 4299POPC   D2A15676  44.697   1.216   8.250
 4299POPC   C3A15677  44.672   1.203   7.950
 4299POPC   C4A15678  44.662   1.190   7.650
 4299POPC   C1B15679  44.749   0.957   8.550
 4299POPC   C2B15680  44.682   0.949   8.250
 4299POPC   C3B15681  44.729   0.961   7.950
 4299POPC   C4B15682  44.695   0.940   7.650
 4300POPC   NC315683  29.917  29.161   9.450
 4300POPC   PO415684  29.925  29.130   9.150
 4300POPC   GL115685  29.956  29.111   8.850
 4300POPC   GL215686  30.054  29.205   8.850
 4300POPC   C1A15687  29.881  29.163   8.550
 4300POPC   D2A15688  29.919  29.187   8.250
 4300POPC   C3A15689  29.890  29.137   7.950
 4300POPC   C4A15690  29.924  29.149   7.650
 4300POPC   C1B15691  30.093  29.312   8.550
 4300POPC   C2B15692  30.169  29.313   8.250
 4300POPC   C3B15693  30.103  29.258   7.950
 4300POPC   C4B15694  30.153  29.311   7.650
 4301POPC   NC315695  36.931  37.670   9.450
 4301POPC   PO415696  36.893  37.705   9.150
 4301POPC   GL115697  36.869  37.644   8.850
 4301POPC   GL215698  37.008  37.771   8.850
 4301POPC   C1A15699  36.871  37.684   8.550
 4301POPC   D2A15700  36.888  37.640   8.250
 4301POPC   C3A15701  36.889  37.693   7.950
 4301POPC   C4A15702  36.933  37.679   7.650
 4301POPC   C1B15703  37.069  37.928   8.550
 4301POPC   C2B15704  37.023  37.923   8.250
 4301POPC   C3B15705  37.061  37.860   7.950
 4301POPC   C4B15706  37.083  37.930   7.650
 4302POPC   NC315707  44.700  39.226   9.450
 4302POPC   PO415708  44.649  39.232   9.150
 4302POPC   GL115709  44.669  39.230   8.850
 4302POPC   GL215710  44.776  39.342   8.850
 4302POPC   C1A15711  44.711  39.213   8.550
 4302POPC   D2A15712  44.668  39.268   8.250
 4302POPC   C3A15713  44.695  39.265   7.950
 4302POPC   C4A15714  44.635  39.248   7.650
 4302POPC   C1B15715  44.823  39.392   8.550
 4302POPC   C2B15716  44.833  39.403   8.250
 4302POPC   C3B15717  44.830  39.456   7.950
 4302POPC   C4B15718  44.793  39.439   7.650
 4303POPC   NC315719  32.292  14.354   9.450
 4303POPC   PO415720  32.241  14.388   9.150
 4303POPC   GL115721  32.215  14.393   8.850
 4303POPC   GL215722  32.316  14.548   8.850
 4303POPC   C1A15723  32.215  14.417   8.550
 4303POPC   D2A15724  32.260  14.410   8.250
 4303POPC   C3A15725  32.237  14.384   7.950
 4303POPC   C4A15726  32.218  14.408   7.650
 4303POPC   C1B15727  32.380  14.600   8.550
 4303POPC   C2B15728  32.388  14.660   8.250
 4303POPC   C3B15729  32.328  14.617   7.950
 4303POPC   C4B15730  32.406  14.577   7.650
 4304POPC   NC315731  19.097  37.706   9.450
 4304POPC   PO415732  19.048  37.647   9.150
 4304POPC   GL115733  19.070  37.660   8.850
 4304POPC   GL215734  19.220  37.728   8.850
 4304POPC   C1A15735  19.103  37.672   8.550
 4304POPC   D2A15736  19.096  37.678   8.250
 4304POPC   C3A15737  19.051  37.640   7.950
 4304POPC   C4A15738  19.071  37.721   7.650
 4304POPC   C1B15739  19.333  37.792   8.550
 4304POPC   C2B15740  19.256  37.807   8.250
 4304POPC   C3B15741  19.248  37.746   7.950
 4304POPC   C4B15742  19.279  37.812   7.650
 4305POPC   NC315743  17.513  21.370   9.450
 4305POPC   PO415744  17.550  21.414   9.150
 4305POPC   GL115745  17.461  21.429   8.850
 4305POPC   GL215746  17.481  21.550   8.850
 4305POPC   C1A15747  17.463  21.344   8.550
 4305POPC   D2A15748  17.467  21.378   8.250
 4305POPC   C3A15749  17.491  21.358   7.950
 4305POPC   C4A15750  17.502  21.403   7.650
 4305POPC   C1B15751  17.485  21.600   8.550
 4305POPC   C2B15752  17.430  21.598   8.250
 4305POPC   C3B15753  17.437  21.635   7.950
 4305POPC   C4B15754  17.441  21.671   7.650
 4306POPC   NC315755   7.397  32.243   9.450
 4306POPC   PO415756   7.446  32.236   9.150
 4306POPC   GL115757   7.416  32.207   8.850
 4306POPC   GL215758   7.320  32.175   8.850
 4306POPC   C1A15759   7.466  32.221   8.550
 4306POPC   D2A15760   7.447  32.266   8.250
 4306POPC   C3A15761   7.452  32.257   7.950
 4306POPC   C4A15762   7.412  32.207   7.650
 4306POPC   C1B15763   7.177  32.142   8.550
 4306POPC   C2B15764   7.212  32.142   8.250
 4306POPC   C3B15765   7.183  32.158   7.950
 4306POPC   C4B15766   7.179  32.106   7.650
 4307POPC   NC315767  20.591  19.852   9.450
 4307POPC   PO415768  20.583  19.795   9.150
 4307POPC   GL115769  20.603  19.818   8.850
 4307POPC   GL215770  20.724  19.884   8.850
 4307POPC   C1A15771  20.589  19.819   8.550
 4307POPC   D2A15772  20.566  19.794   8.250
 4307POPC   C3A15773  20.595  19.847   7.950
 4307POPC   C4A15774  20.640  19.803   7.650
 4307POPC   C1B15775  20.869  19.891   8.550
 4307POPC   C2B15776  20.909  19.886   8.250
 4307POPC   C3B15777  20.841  19.863   7.950
 4307POPC   C4B15778  20.868  19.808   7.650
 4308POPC   NC315779   0.431  40.749   9.450
 4308POPC   PO415780   0.451  40.769   9.150
 4308POPC   GL115781   0.405  40.767   8.850
 4308POPC   GL215782   0.475  40.706   8.850
 4308POPC   C1A15783   0.451  40.814   8.550
 4308POPC   D2A15784   0.475  40.822   8.250
 4308POPC   C3A15785   0.420  40.767   7.950
 4308POPC   C4A15786   0.485  40.829   7.650
 4308POPC   C1B15787   0.430  40.508   8.550
 4308POPC   C2B15788   0.403  40.579   8.250
 4308POPC   C3B15789   0.462  40.496   7.950
 4308POPC   C4B15790   0.446  40.568   7.650
 4309POPC   NC315791  26.852  11.283   9.450
 4309POPC   PO415792  26.830  11.291   9.150
 4309POPC   GL115793  26.816  11.339   8.850
 4309POPC   GL215794  26.720  11.398   8.850
 4309POPC   C1A15795  26.792  11.261   8.550
 4309POPC   D2A15796  26.789  11.349   8.250
 4309POPC   C3A15797  26.831  11.309   7.950
 4309POPC   C4A15798  26.809  11.306   7.650
 4309POPC   C1B15799  26.636  11.497   8.550
 4309POPC   C2B15800  26.618  11.531   8.250
 4309POPC   C3B15801  26.610  11.525   7.950
 4309POPC   C4B15802  26.677  11.448   7.650
 4310POPC   NC315803  19.878  24.493   9.450
 4310POPC   PO415804  19.802  24.479   9.150
 4310POPC   GL115805  19.787  24.504   8.850
 4310POPC   GL215806  19.852  24.624   8.850
 4310POPC   C1A15807  19.856  24.471   8.550
 4310POPC   D2A15808  19.877  24.527   8.250
 4310POPC   C3A15809  19.825  24.440   7.950
 4310POPC   C4A15810  19.874  24.466   7.650
 4310POPC   C1B15811  19.911  24.751   8.550
 4310POPC   C2B15812  19.891  24.699   8.250
 4310POPC   C3B15813  19.951  24.780   7.950
 4310POPC   C4B15814  19.950  24.698   7.650
 4311POPC   NC315815  12.039  36.139   9.450
 4311POPC   PO415816  12.087  36.147   9.150
 4311POPC   GL115817  12.045  36.112   8.850
 4311POPC   GL215818  12.047  36.234   8.850
 4311POPC   C1A15819  12.043  36.116   8.550
 4311POPC   D2A15820  12.032  36.170   8.250
 4311POPC   C3A15821  12.105  36.123   7.950
 4311POPC   C4A15822  12.118  36.143   7.650
 4311POPC   C1B15823  11.950  36.366   8.550
 4311POPC   C2B15824  11.921  36.354   8.250
 4311POPC   C3B15825  11.886  36.332   7.950
 4311POPC   C4B15826  11.966  36.293   7.650
 4312POPC   NC315827  12.814  16.001   9.450
 4312POPC   PO415828  12.829  15.995   9.150
 4312POPC   GL115829  12.845  15.949   8.850
 4312POPC   GL215830  12.804  15.828   8.850
 4312POPC   C1A15831  12.900  15.922   8.550
 4312POPC   D2A15832  12.874  15.979   8.250
 4312POPC   C3A15833  12.839  15.936   7.950
 4312POPC   C4A15834  12.848  16.001   7.650
 4312POPC   C1B15835  12.817  15.677   8.550
 4312POPC   C2B15836  12.802  15.681   8.250
 4312POPC   C3B15837  12.778  15.725   7.950
 4312POPC   C4B15838  12.779  15.725   7.650
 4313POPC   NC315839  36.153   2.755   9.450
 4313POPC   PO415840  36.135   2.787   9.150
 4313POPC   GL115841  36.096   2.809   8.850
 4313POPC   GL215842  36.085   2.669   8.850
 4313POPC   C1A15843  36.080   2.732   8.550
 4313POPC   D2A15844  36.157   2.733   8.250
 4313POPC   C3A15845  36.099   2.767   7.950
 4313POPC   C4A15846  36.166   2.787   7.650
 4313POPC   C1B15847  36.027   2.530   8.550
 4313POPC   C2B15848  35.959   2.527   8.250
 4313POPC   C3B15849  36.017   2.586   7.950
 4313POPC   C4B15850  35.959   2.534   7.650
 4314POPC   NC315851   2.806  33.010   9.450
 4314POPC   PO415852   2.774  33.059   9.150
 4314POPC   GL115853   2.750  33.025   8.850
 4314POPC   GL215854   2.836  32.953   8.850
 4314POPC   C1A15855   2.746  32.992   8.550
 4314POPC   D2A15856   2.760  33.067   8.250
 4314POPC   C3A15857   2.751  33.011   7.950
 4314POPC   C4A15858   2.742  33.016   7.650
 4314POPC   C1B15859   2.995  32.829   8.550
 4314POPC   C2B15860   2.977  32.845   8.250
 4314POPC   C3B15861   3.009  32.854   7.950
 4314POPC   C4B15862   3.000  32.852   7.650
 4315POPC   NC315863   1.237   8.986   9.450
 4315POPC   PO415864   1.221   8.992   9.150
 4315POPC   GL115865   1.234   8.938   8.850
 4315POPC   GL215866   1.062   9.054   8.850
 4315POPC   C1A15867   1.185   8.955   8.550
 4315POPC   D2A15868   1.245   8.935   8.250
 4315POPC   C3A15869   1.204   8.955   7.950
 4315POPC   C4A15870   1.212   8.925   7.650
 4315POPC   C1B15871   1.022   9.075   8.550
 4315POPC   C2B15872   1.024   9.109   8.250
 4315POPC   C3B15873   1.026   9.068   7.950
 4315POPC   C4B15874   1.011   9.103   7.650
 4316POPC   NC315875  39.963  43.871   9.450
 4316POPC   PO415876  39.980  43.903   9.150
 4316POPC   GL115877  39.976  43.868   8.850
 4316POPC   GL215878  40.017  44.030   8.850
 4316POPC   C1A15879  40.037  43.867   8.550
 4316POPC   D2A15880  40.024  43.860   8.250
 4316POPC   C3A15881  40.041  43.883   7.950
 4316POPC   C4A15882  39.993  43.859   7.650
 4316POPC   C1B15883  40.071  44.132   8.550
 4316POPC   C2B15884  40.030  44.126   8.250
 4316POPC   C3B15885  40.029  44.134   7.950
 4316POPC   C4B15886  40.087  44.104   7.650
 4317POPC   NC315887  11.269  26.791   9.450
 4317POPC   PO415888  11.320  26.842   9.150
 4317POPC   GL115889  11.286  26.836   8.850
 4317POPC   GL215890  11.394  26.735   8.850
 4317POPC   C1A15891  11.281  26.860   8.550
 4317POPC   D2A15892  11.340  26.771   8.250
 4317POPC   C3A15893  11.334  26.775   7.950
 4317POPC   C4A15894  11.293  26.846   7.650
 4317POPC   C1B15895  11.483  26.653   8.550
 4317POPC   C2B15896  11.516  26.697   8.250
 4317POPC   C3B15897  11.511  26.663   7.950
 4317POPC   C4B15898  11.530  26.677   7.650
 4318POPC   NC315899   5.893  41.545   9.450
 4318POPC   PO415900   5.915  41.543   9.150
 4318POPC   GL115901   5.823  41.581   8.850
 4318POPC   GL215902   5.767  41.689   8.850
 4318POPC   C1A15903   5.894  41.534   8.550
 4318POPC   D2A15904   5.884  41.571   8.250
 4318POPC   C3A15905   5.827  41.555   7.950
 4318POPC   C4A15906   5.855  41.570   7.650
 4318POPC   C1B15907   5.718  41.793   8.550
 4318POPC   C2B15908   5.744  41.745   8.250
 4318POPC   C3B15909   5.735  41.816   7.950
 4318POPC   C4B15910   5.687  41.808   7.650
 4319POPC   NC315911   8.218  10.528   9.450
 4319POPC   PO415912   8.196  10.552   9.150
 4319POPC   GL115913   8.187  10.485   8.850
 4319POPC   GL215914   8.209  10.634   8.850
 4319POPC   C1A15915   8.217  10.500   8.550
 4319POPC   D2A15916   8.224  10.525   8.250
 4319POPC   C3A15917   8.188  10.481   7.950
 4319POPC   C4A15918   8.205  10.544   7.650
 4319POPC   C1B15919   8.129  10.815   8.550
 4319POPC   C2B15920   8.192  10.812   8.250
 4319POPC   C3B15921   8.113  10.731   7.950
 4319POPC   C4B15922   8.132  10.762   7.650
 4320POPC   NC315923  26.851  15.177   9.450
 4320POPC   PO415924  26.854  15.152   9.150
 4320POPC   GL115925  26.857  15.195   8.850
 4320POPC   GL215926  26.756  15.311   8.850
 4320POPC   C1A15927  26.804  15.215   8.550
 4320POPC   D2A15928  26.779  15.129   8.250
 4320POPC   C3A15929  26.790  15.208   7.950
 4320POPC   C4A15930  26.804  15.166   7.650
 4320POPC   C1B15931  26.808  15.425   8.550
 4320POPC   C2B15932  26.804  15.465   8.250
 4320POPC   C3B15933  26.773  15.390   7.950
 4320POPC   C4B15934  26.823  15.412   7.650
 4321POPC   NC315935   0.487  15.227   9.450
 4321POPC   PO415936   0.435  15.159   9.150
 4321POPC   GL115937   0.467  15.173   8.850
 4321POPC   GL215938   0.396  15.304   8.850
 4321POPC   C1A15939   0.443  15.142   8.550
 4321POPC   D2A15940   0.488  15.199   8.250
 4321POPC   C3A15941   0.438  15.207   7.950
 4321POPC   C4A15942   0.461  15.166   7.650
 4321POPC   C1B15943   0.385  15.403   8.550
 4321POPC   C2B15944   0.326  15.460   8.250
 4321POPC   C3B15945   0.419  15.465   7.950
 4321POPC   C4B15946   0.364  15.453   7.650
 4322POPC   NC315947  30.741   3.505   9.450
 4322POPC   PO415948  30.718   3.509   9.150
 4322POPC   GL115949  30.707   3.571   8.850
 4322POPC   GL215950  30.582   3.503   8.850
 4322POPC   C1A15951  30.718   3.540   8.550
 4322POPC   D2A15952  30.716   3.558   8.250
 4322POPC   C3A15953  30.709   3.499   7.950
 4322POPC   C4A15954  30.688   3.589   7.650
 4322POPC   C1B15955  30.403   3.464   8.550
 4322POPC   C2B15956  30.410   3.539   8.250
 4322POPC   C3B15957  30.469   3.502   7.950
 4322POPC   C4B15958  30.495   3.468   7.650
 4323POPC   NC315959  29.115  35.351   9.450
 4323POPC   PO415960  29.109  35.318   9.150
 4323POPC   GL115961  29.139  35.395   8.850
 4323POPC   GL215962  29.314  35.414   8.850
 4323POPC   C1A15963  29.138  35.399   8.550
 4323POPC   D2A15964  29.147  35.330   8.250
 4323POPC   C3A15965  29.114  35.399   7.950
 4323POPC   C4A15966  29.096  35.380   7.650
 4323POPC   C1B15967  29.349  35.423   8.550
 4323POPC   C2B15968  29.421  35.395   8.250
 4323POPC   C3B15969  29.378  35.426   7.950
 4323POPC   C4B15970  29.407  35.371   7.650
 4324POPC   NC315971   0.419  37.724   9.450
 4324POPC   PO415972   0.485  37.660   9.150
 4324POPC   GL115973   0.445  37.661   8.850
 4324POPC   GL215974   0.433  37.579   8.850
 4324POPC   C1A15975   0.449  37.699   8.550
 4324POPC   D2A15976   0.403  37.686   8.250
 4324POPC   C3A15977   0.463  37.678   7.950
 4324POPC   C4A15978   0.403  37.726   7.650
 4324POPC   C1B15979   0.294  37.476   8.550
 4324POPC   C2B15980   0.342  37.472   8.250
 4324POPC   C3B15981   0.313  37.426   7.950
 4324POPC   C4B15982   0.314  37.408   7.650
 4325POPC   NC315983   5.076  38.441   9.450
 4325POPC   PO415984   5.097  38.494   9.150
 4325POPC   GL115985   5.138  38.462   8.850
 4325POPC   GL215986   5.223  38.522   8.850
 4325POPC   C1A15987   5.106  38.419   8.550
 4325POPC   D2A15988   5.082  38.430   8.250
 4325POPC   C3A15989   5.063  38.460   7.950
 4325POPC   C4A15990   5.125  38.471   7.650
 4325POPC   C1B15991   5.318  38.498   8.550
 4325POPC   C2B15992   5.280  38.495   8.250
 4325POPC   C3B15993   5.298  38.526   7.950
 4325POPC   C4B15994   5.287  38.563   7.650
 4326POPC   NC315995  25.247  24.527   9.450
 4326POPC   PO415996  25.285  24.506   9.150
 4326POPC   GL115997  25.219  24.441   8.850
 4326POPC   GL215998  25.245  24.610   8.850
 4326POPC   C1A15999  25.313  24.472   8.550
 4326POPC   D2A16000  25.237  24.526   8.250
 4326POPC   C3A16001  25.278  24.483   7.950
 4326POPC   C4A16002  25.251  24.486   7.650
 4326POPC   C1B16003  25.323  24.730   8.550
 4326POPC   C2B16004  25.314  24.714   8.250
 4326POPC   C3B16005  25.301  24.752   7.950
 4326POPC   C4B16006  25.274  24.758   7.650
 4327POPC   NC316007   5.143  36.116   9.450
 4327POPC   PO416008   5.059  36.144   9.150
 4327POPC   GL116009   5.071  36.089   8.850
 4327POPC   GL216010   5.179  36.020   8.850
 4327POPC   C1A16011   5.104  36.105   8.550
 4327POPC   D2A16012   5.058  36.110   8.250
 4327POPC   C3A16013   5.102  36.095   7.950
 4327POPC   C4A16014   5.126  36.112   7.650
 4327POPC   C1B16015   5.332  35.995   8.550
 4327POPC   C2B16016   5.344  35.979   8.250
 4327POPC   C3B16017   5.306  35.993   7.950
 4327POPC   C4B16018   5.277  35.972   7.650
 4328POPC   NC316019  17.461  43.132   9.450
 4328POPC   PO416020  17.528  43.132   9.150
 4328POPC   GL116021  17.488  43.094   8.850
 4328POPC   GL216022  17.389  43.216   8.850
 4328POPC   C1A16023  17.485  43.080   8.550
 4328POPC   D2A16024  17.480  43.112   8.250
 4328POPC   C3A16025  17.535  43.087   7.950
 4328POPC   C4A16026  17.529  43.090   7.650
 4328POPC   C1B16027  17.371  43.273   8.550
 4328POPC   C2B16028  17.397  43.313   8.250
 4328POPC   C3B16029  17.332  43.345   7.950
 4328POPC   C4B16030  17.324  43.273   7.650
 4329POPC   NC316031  28.398  12.804   9.450
 4329POPC   PO416032  28.364  12.812   9.150
 4329POPC   GL116033  28.351  12.895   8.850
 4329POPC   GL216034  28.461  12.785   8.850
 4329POPC   C1A16035  28.335  12.877   8.550
 4329POPC   D2A16036  28.414  12.822   8.250
 4329POPC   C3A16037  28.400  12.896   7.950
 4329POPC   C4A16038  28.406  12.852   7.650
 4329POPC   C1B16039  28.477  12.660   8.550
 4329POPC   C2B16040  28.469  12.597   8.250
 4329POPC   C3B16041  28.544  12.678   7.950
 4329POPC   C4B16042  28.496  12.644   7.650
 4330POPC   NC316043   4.299  34.571   9.450
 4330POPC   PO416044   4.358  34.546   9.150
 4330POPC   GL116045   4.276  34.597   8.850
 4330POPC   GL216046   4.258  34.663   8.850
 4330POPC   C1A16047   4.298  34.610   8.550
 4330POPC   D2A16048   4.321  34.582   8.250
 4330POPC   C3A16049   4.299  34.616   7.950
 4330POPC   C4A16050   4.349  34.531   7.650
 4330POPC   C1B16051   4.097  34.704   8.550
 4330POPC   C2B16052   4.094  34.719   8.250
 4330POPC   C3B16053   4.160  34.754   7.950
 4330POPC   C4B16054   4.098  34.722   7.650
 4331POPC   NC316055  40.018  31.504   9.450
 4331POPC   PO416056  39.958  31.453   9.150
 4331POPC   GL116057  39.999  31.450   8.850
 4331POPC   GL216058  39.892  31.491   8.850
 4331POPC   C1A16059  40.006  31.491   8.550
 4331POPC   D2A16060  39.969  31.491   8.250
 4331POPC   C3A16061  40.046  31.482   7.950
 4331POPC   C4A16062  40.021  31.441   7.650
 4331POPC   C1B16063  39.792  31.404   8.550
 4331POPC   C2B16064  39.779  31.434   8.250
 4331POPC   C3B16065  39.798  31.470   7.950
 4331POPC   C4B16066  39.730  31.410   7.650
 4332POPC   NC316067  10.490  44.653   9.450
 4332POPC   PO416068  10.480  44.627   9.150
 4332POPC   GL116069  10.525  44.620   8.850
 4332POPC   GL216070  10.419  44.605   8.850
 4332POPC   C1A16071  10.479  44.708   8.550
 4332POPC   D2A16072  10.478  44.624   8.250
 4332POPC   C3A16073  10.523  44.664   7.950
 4332POPC   C4A16074  10.533  44.678   7.650
 4332POPC   C1B16075  10.261  44.583   8.550
 4332POPC   C2B16076  10.271  44.539   8.250
 4332POPC   C3B16077  10.281  44.541   7.950
 4332POPC   C4B16078  10.344  44.577   7.650
 4333POPC   NC316079  36.081  32.992   9.450
 4333POPC   PO416080  36.151  32.997   9.150
 4333POPC   GL116081  36.176  32.975   8.850
 4333POPC   GL216082  36.151  32.925   8.850
 4333POPC   C1A16083  36.149  32.983   8.550
 4333POPC   D2A16084  36.119  32.991   8.250
 4333POPC   C3A16085  36.124  33.068   7.950
 4333POPC   C4A16086  36.131  32.990   7.650
 4333POPC   C1B16087  36.068  32.730   8.550
 4333POPC   C2B16088  36.079  32.746   8.250
 4333POPC   C3B16089  36.118  32.735   7.950
 4333POPC   C4B16090  36.113  32.789   7.650
 4334POPC   NC316091  44.623  39.978   9.450
 4334POPC   PO416092  44.613  39.960   9.150
 4334POPC   GL116093  44.705  39.965   8.850
 4334POPC   GL216094  44.666  40.104   8.850
 4334POPC   C1A16095  44.687  40.004   8.550
 4334POPC   D2A16096  44.703  40.017   8.250
 4334POPC   C3A16097  44.666  40.044   7.950
 4334POPC   C4A16098  44.630  39.960   7.650
 4334POPC   C1B16099  44.755  40.228   8.550
 4334POPC   C2B16100  44.729  40.196   8.250
 4334POPC   C3B16101  44.729  40.288   7.950
 4334POPC   C4B16102  44.731  40.201   7.650
 4335POPC   NC316103  33.025   5.898   9.450
 4335POPC   PO416104  33.037   5.836   9.150
 4335POPC   GL116105  32.978   5.864   8.850
 4335POPC   GL216106  33.027   5.733   8.850
 4335POPC   C1A16107  33.027   5.904   8.550
 4335POPC   D2A16108  33.053   5.900   8.250
 4335POPC   C3A16109  33.051   5.844   7.950
 4335POPC   C4A16110  33.063   5.829   7.650
 4335POPC   C1B16111  33.128   5.676   8.550
 4335POPC   C2B16112  33.042   5.616   8.250
 4335POPC   C3B16113  33.042   5.642   7.950
 4335POPC   C4B16114  33.131   5.639   7.650
 4336POPC   NC316115  20.612  29.134   9.450
 4336POPC   PO416116  20.636  29.148   9.150
 4336POPC   GL116117  20.618  29.100   8.850
 4336POPC   GL216118  20.633  29.062   8.850
 4336POPC   C1A16119  20.637  29.145   8.550
 4336POPC   D2A16120  20.656  29.153   8.250
 4336POPC   C3A16121  20.580  29.122   7.950
 4336POPC   C4A16122  20.579  29.183   7.650
 4336POPC   C1B16123  20.607  28.912   8.550
 4336POPC   C2B16124  20.563  28.856   8.250
 4336POPC   C3B16125  20.594  28.866   7.950
 4336POPC   C4B16126  20.554  28.901   7.650
 4337POPC   NC316127   0.445  14.410   9.450
 4337POPC   PO416128   0.418  14.399   9.150
 4337POPC   GL116129   0.468  14.382   8.850
 4337POPC   GL216130   0.493  14.560   8.850
 4337POPC   C1A16131   0.420  14.375   8.550
 4337POPC   D2A16132   0.473  14.364   8.250
 4337POPC   C3A16133   0.410  14.396   7.950
 4337POPC   C4A16134   0.441  14.375   7.650
 4337POPC   C1B16135   0.565  14.678   8.550
 4337POPC   C2B16136   0.568  14.614   8.250
 4337POPC   C3B16137   0.522  14.595   7.950
 4337POPC   C4B16138   0.521  14.607   7.650
 4338POPC   NC316139   8.927  44.678   9.450
 4338POPC   PO416140   8.948  44.670   9.150
 4338POPC   GL116141   8.983  44.653   8.850
 4338POPC   GL216142   8.959  44.545   8.850
 4338POPC   C1A16143   8.960  44.681   8.550
 4338POPC   D2A16144   9.016  44.706   8.250
 4338POPC   C3A16145   9.011  44.662   7.950
 4338POPC   C4A16146   8.923  44.636   7.650
 4338POPC   C1B16147   8.862  44.469   8.550
 4338POPC   C2B16148   8.861  44.444   8.250
 4338POPC   C3B16149   8.886  44.382   7.950
 4338POPC   C4B16150   8.864  44.473   7.650
 4339POPC   NC316151  27.608  14.443   9.450
 4339POPC   PO416152  27.565  14.395   9.150
 4339POPC   GL116153  27.552  14.374   8.850
 4339POPC   GL216154  27.494  14.416   8.850
 4339POPC   C1A16155  27.590  14.423   8.550
 4339POPC   D2A16156  27.564  14.426   8.250
 4339POPC   C3A16157  27.585  14.432   7.950
 4339POPC   C4A16158  27.626  14.427   7.650
 4339POPC   C1B16159  27.345  14.333   8.550
 4339POPC   C2B16160  27.344  14.342   8.250
 4339POPC   C3B16161  27.309  14.323   7.950
 4339POPC   C4B16162  27.360  14.301   7.650
 4340POPC   NC316163   8.171   9.738   9.450
 4340POPC   PO416164   8.169   9.702   9.150
 4340POPC   GL116165   8.242   9.760   8.850
 4340POPC   GL216166   8.085   9.741   8.850
 4340POPC   C1A16167   8.235   9.740   8.550
 4340POPC   D2A16168   8.195   9.726   8.250
 4340POPC   C3A16169   8.196   9.735   7.950
 4340POPC   C4A16170   8.195   9.709   7.650
 4340POPC   C1B16171   7.951   9.769   8.550
 4340POPC   C2B16172   7.902   9.787   8.250
 4340POPC   C3B16173   7.987   9.725   7.950
 4340POPC   C4B16174   7.992   9.771   7.650
 4341POPC   NC316175  30.732  20.576   9.450
 4341POPC   PO416176  30.737  20.612   9.150
 4341POPC   GL116177  30.733  20.648   8.850
 4341POPC   GL216178  30.704  20.715   8.850
 4341POPC   C1A16179  30.738  20.603   8.550
 4341POPC   D2A16180  30.691  20.598   8.250
 4341POPC   C3A16181  30.652  20.601   7.950
 4341POPC   C4A16182  30.730  20.639   7.650
 4341POPC   C1B16183  30.753  20.804   8.550
 4341POPC   C2B16184  30.754  20.804   8.250
 4341POPC   C3B16185  30.781  20.877   7.950
 4341POPC   C4B16186  30.781  20.817   7.650
 4342POPC   NC316187  43.107  42.318   9.450
 4342POPC   PO416188  43.099  42.306   9.150
 4342POPC   GL116189  43.087  42.323   8.850
 4342POPC   GL216190  43.099  42.201   8.850
 4342POPC   C1A16191  43.124  42.368   8.550
 4342POPC   D2A16192  43.149  42.316   8.250
 4342POPC   C3A16193  43.160  42.359   7.950
 4342POPC   C4A16194  43.103  42.369   7.650
 4342POPC   C1B16195  43.101  42.067   8.550
 4342POPC   C2B16196  43.047  42.079   8.250
 4342POPC   C3B16197  43.101  42.059   7.950
 4342POPC   C4B16198  43.087  42.070   7.650
 4343POPC   NC316199  12.834   7.464   9.450
 4343POPC   PO416200  12.843   7.434   9.150
 4343POPC   GL116201  12.868   7.387   8.850
 4343POPC   GL216202  12.940   7.549   8.850
 4343POPC   C1A16203  12.829   7.469   8.550
 4343POPC   D2A16204  12.883   7.392   8.250
 4343POPC   C3A16205  12.805   7.454   7.950
 4343POPC   C4A16206  12.848   7.403   7.650
 4343POPC   C1B16207  12.993   7.567   8.550
 4343POPC   C2B16208  13.021   7.624   8.250
 4343POPC   C3B16209  13.024   7.584   7.950
 4343POPC   C4B16210  12.997   7.565   7.650
 4344POPC   NC316211  12.852  36.860   9.450
 4344POPC   PO416212  12.871  36.855   9.150
 4344POPC   GL116213  12.868  36.857   8.850
 4344POPC   GL216214  12.704  36.924   8.850
 4344POPC   C1A16215  12.861  36.888   8.550
 4344POPC   D2A16216  12.808  36.863   8.250
 4344POPC   C3A16217  12.846  36.944   7.950
 4344POPC   C4A16218  12.806  36.854   7.650
 4344POPC   C1B16219  12.619  36.912   8.550
 4344POPC   C2B16220  12.625  36.910   8.250
 4344POPC   C3B16221  12.574  36.949   7.950
 4344POPC   C4B16222  12.608  36.931   7.650
 4345POPC   NC316223  38.458  10.476   9.450
 4345POPC   PO416224  38.455  10.505   9.150
 4345POPC   GL116225  38.423  10.487   8.850
 4345POPC   GL216226  38.371  10.668   8.850
 4345POPC   C1A16227  38.471  10.539   8.550
 4345POPC   D2A16228  38.426  10.504   8.250
 4345POPC   C3A16229  38.455  10.511   7.950
 4345POPC   C4A16230  38.468  10.497   7.650
 4345POPC   C1B16231  38.346  10.771   8.550
 4345POPC   C2B16232  38.378  10.707   8.250
 4345POPC   C3B16233  38.341  10.788   7.950
 4345POPC   C4B16234  38.340  10.747   7.650
 4346POPC   NC316235  23.683  43.143   9.450
 4346POPC   PO416236  23.702  43.148   9.150
 4346POPC   GL116237  23.670  43.073   8.850
 4346POPC   GL216238  23.633  42.980   8.850
 4346POPC   C1A16239  23.699  43.079   8.550
 4346POPC   D2A16240  23.756  43.117   8.250
 4346POPC   C3A16241  23.718  43.140   7.950
 4346POPC   C4A16242  23.688  43.133   7.650
 4346POPC   C1B16243  23.561  42.894   8.550
 4346POPC   C2B16244  23.546  42.926   8.250
 4346POPC   C3B16245  23.533  42.941   7.950
 4346POPC   C4B16246  23.513  42.920   7.650
 4347POPC   NC316247  36.867  13.677   9.450
 4347POPC   PO416248  36.895  13.621   9.150
 4347POPC   GL116249  36.931  13.623   8.850
 4347POPC   GL216250  37.002  13.685   8.850
 4347POPC   C1A16251  36.916  13.636   8.550
 4347POPC   D2A16252  36.924  13.606   8.250
 4347POPC   C3A16253  36.907  13.621   7.950
 4347POPC   C4A16254  36.914  13.621   7.650
 4347POPC   C1B16255  37.177  13.650   8.550
 4347POPC   C2B16256  37.174  13.663   8.250
 4347POPC   C3B16257  37.106  13.677   7.950
 4347POPC   C4B16258  37.110  13.609   7.650
 4348POPC   NC316259  16.706  24.491   9.450
 4348POPC   PO416260  16.778  24.494   9.150
 4348POPC   GL116261  16.755  24.519   8.850
 4348POPC   GL216262  16.583  24.490   8.850
 4348POPC   C1A16263  16.698  24.465   8.550
 4348POPC   D2A16264  16.694  24.490   8.250
 4348POPC   C3A16265  16.775  24.448   7.950
 4348POPC   C4A16266  16.766  24.486   7.650
 4348POPC   C1B16267  16.520  24.508   8.550
 4348POPC   C2B16268  16.462  24.562   8.250
 4348POPC   C3B16269  16.517  24.510   7.950
 4348POPC   C4B16270  16.523  24.517   7.650
 4349POPC   NC316271   4.340  40.050   9.450
 4349POPC   PO416272   4.275  39.988   9.150
 4349POPC   GL116273   4.291  40.011   8.850
 4349POPC   GL216274   4.408  40.028   8.850
 4349POPC   C1A16275   4.289  39.988   8.550
 4349POPC   D2A16276   4.295  39.972   8.250
 4349POPC   C3A16277   4.337  40.019   7.950
 4349POPC   C4A16278   4.363  40.013   7.650
 4349POPC   C1B16279   4.526  40.170   8.550
 4349POPC   C2B16280   4.504  40.120   8.250
 4349POPC   C3B16281   4.561  40.093   7.950
 4349POPC   C4B16282   4.489  40.074   7.650
 4350POPC   NC316283  30.651  37.652   9.450
 4350POPC   PO416284  30.717  37.657   9.150
 4350POPC   GL116285  30.647  37.644   8.850
 4350POPC   GL216286  30.812  37.594   8.850
 4350POPC   C1A16287  30.681  37.723   8.550
 4350POPC   D2A16288  30.722  37.683   8.250
 4350POPC   C3A16289  30.711  37.703   7.950
 4350POPC   C4A16290  30.727  37.711   7.650
 4350POPC   C1B16291  30.801  37.489   8.550
 4350POPC   C2B16292  30.874  37.466   8.250
 4350POPC   C3B16293  30.785  37.470   7.950
 4350POPC   C4B16294  30.863  37.490   7.650
 4351POPC   NC316295  17.525  19.832   9.450
 4351POPC   PO416296  17.546  19.857   9.150
 4351POPC   GL116297  17.496  19.876   8.850
 4351POPC   GL216298  17.447  19.883   8.850
 4351POPC   C1A16299  17.498  19.827   8.550
 4351POPC   D2A16300  17.523  19.845   8.250
 4351POPC   C3A16301  17.477  19.828   7.950
 4351POPC   C4A16302  17.510  19.837   7.650
 4351POPC   C1B16303  17.317  20.054   8.550
 4351POPC   C2B16304  17.305  20.006   8.250
 4351POPC   C3B16305  17.356  20.034   7.950
 4351POPC   C4B16306  17.300  20.009   7.650
 4352POPC   NC316307  15.145  44.712   9.450
 4352POPC   PO416308  15.225  44.651   9.150
 4352POPC   GL116309  15.193  44.617   8.850
 4352POPC   GL216310  15.284  44.661   8.850
 4352POPC   C1A16311  15.145  44.696   8.550
 4352POPC   D2A16312  15.155  44.632   8.250
 4352POPC   C3A16313  15.133  44.626   7.950
 4352POPC   C4A16314  15.178  44.661   7.650
 4352POPC   C1B16315  15.467  44.682   8.550
 4352POPC   C2B16316  15.405  44.661   8.250
 4352POPC   C3B16317  15.379  44.620   7.950
 4352POPC   C4B16318  15.457  44.655   7.650
 4353POPC   NC316319  35.313   1.229   9.450
 4353POPC   PO416320  35.313   1.218   9.150
 4353POPC   GL116321  35.343   1.246   8.850
 4353POPC   GL216322  35.245   1.200   8.850
 4353POPC   C1A16323  35.395   1.179   8.550
 4353POPC   D2A16324  35.399   1.230   8.250
 4353POPC   C3A16325  35.326   1.202   7.950
 4353POPC   C4A16326  35.315   1.169   7.650
 4353POPC   C1B16327  35.090   1.264   8.550
 4353POPC   C2B16328  35.150   1.274   8.250
 4353POPC   C3B16329  35.096   1.235   7.950
 4353POPC   C4B16330  35.156   1.239   7.650
 4354POPC   NC316331  15.195  26.844   9.450
 4354POPC   PO416332  15.221  26.814   9.150
 4354POPC   GL116333  15.131  26.829   8.850
 4354POPC   GL216334  15.109  26.876   8.850
 4354POPC   C1A16335  15.213  26.783   8.550
 4354POPC   D2A16336  15.149  26.786   8.250
 4354POPC   C3A16337  15.184  26.834   7.950
 4354POPC   C4A16338  15.208  26.800   7.650
 4354POPC   C1B16339  14.982  26.899   8.550
 4354POPC   C2B16340  14.942  26.933   8.250
 4354POPC   C3B16341  14.954  26.894   7.950
 4354POPC   C4B16342  14.938  26.967   7.650
 4355POPC   NC316343   0.416  17.531   9.450
 4355POPC   PO416344   0.480  17.465   9.150
 4355POPC   GL116345   0.434  17.496   8.850
 4355POPC   GL216346   0.578  17.569   8.850
 4355POPC   C1A16347   0.468  17.467   8.550
 4355POPC   D2A16348   0.412  17.510   8.250
 4355POPC   C3A16349   0.432  17.461   7.950
 4355POPC   C4A16350   0.453  17.552   7.650
 4355POPC   C1B16351   0.664  17.579   8.550
 4355POPC   C2B16352   0.732  17.553   8.250
 4355POPC   C3B16353   0.690  17.571   7.950
 4355POPC   C4B16354   0.644  17.566   7.650
 4356POPC   NC316355  25.285  33.058   9.450
 4356POPC   PO416356  25.299  33.000   9.150
 4356POPC   GL116357  25.295  33.018   8.850
 4356POPC   GL216358  25.423  33.021   8.850
 4356POPC   C1A16359  25.301  33.014   8.550
 4356POPC   D2A16360  25.279  33.003   8.250
 4356POPC   C3A16361  25.257  33.024   7.950
 4356POPC   C4A16362  25.271  33.055   7.650
 4356POPC   C1B16363  25.458  33.128   8.550
 4356POPC   C2B16364  25.519  33.086   8.250
 4356POPC   C3B16365  25.464  33.128   7.950
 4356POPC   C4B16366  25.466  33.126   7.650
 4357POPC   NC316367  32.989  31.489   9.450
 4357POPC   PO416368  32.983  31.502   9.150
 4357POPC   GL116369  33.064  31.512   8.850
 4357POPC   GL216370  33.002  31.564   8.850
 4357POPC   C1A16371  33.023  31.501   8.550
 4357POPC   D2A16372  33.000  31.518   8.250
 4357POPC   C3A16373  33.017  31.510   7.950
 4357POPC   C4A16374  32.984  31.484   7.650
 4357POPC   C1B16375  33.046  31.751   8.550
 4357POPC   C2B16376  33.025  31.713   8.250
 4357POPC   C3B16377  33.059  31.765   7.950
 4357POPC   C4B16378  33.036  31.710   7.650
 4358POPC   NC316379  40.025  39.265   9.450
 4358POPC   PO416380  39.963  39.212   9.150
 4358POPC   GL116381  40.057  39.207   8.850
 4358POPC   GL216382  39.872  39.287   8.850
 4358POPC   C1A16383  40.046  39.188   8.550
 4358POPC   D2A16384  40.014  39.260   8.250
 4358POPC   C3A16385  40.006  39.192   7.950
 4358POPC   C4A16386  40.045  39.280   7.650
 4358POPC   C1B16387  39.764  39.388   8.550
 4358POPC   C2B16388  39.814  39.405   8.250
 4358POPC   C3B16389  39.773  39.419   7.950
 4358POPC   C4B16390  39.846  39.368   7.650
 4359POPC   NC316391  26.816  21.411   9.450
 4359POPC   PO416392  26.802  21.404   9.150
 4359POPC   GL116393  26.860  21.364   8.850
 4359POPC   GL216394  26.857  21.497   8.850
 4359POPC   C1A16395  26.841  21.415   8.550
 4359POPC   D2A16396  26.861  21.385   8.250
 4359POPC   C3A16397  26.847  21.410   7.950
 4359POPC   C4A16398  26.844  21.419   7.650
 4359POPC   C1B16399  26.869  21.641   8.550
 4359POPC   C2B16400  26.818  21.665   8.250
 4359POPC   C3B16401  26.887  21.599   7.950
 4359POPC   C4B16402  26.792  21.594   7.650
 4360POPC   NC316403  13.667  43.888   9.450
 4360POPC   PO416404  13.635  43.851   9.150
 4360POPC   GL116405  13.626  43.918   8.850
 4360POPC   GL216406  13.498  43.974   8.850
 4360POPC   C1A16407  13.588  43.906   8.550
 4360POPC   D2A16408  13.672  43.845   8.250
 4360POPC   C3A16409  13.611  43.846   7.950
 4360POPC   C4A16410  13.643  43.887   7.650
 4360POPC   C1B16411  13.410  43.947   8.550
 4360POPC   C2B16412  13.411  43.984   8.250
 4360POPC   C3B16413  13.422  43.970   7.950
 4360POPC   C4B16414  13.434  43.969   7.650
 4361POPC   NC316415  44.703  29.132   9.450
 4361POPC   PO416416  44.639  29.132   9.150
 4361POPC   GL116417  44.698  29.180   8.850
 4361POPC   GL216418  44.593  29.138   8.850
 4361POPC   C1A16419  44.638  29.129   8.550
 4361POPC   D2A16420  44.623  29.122   8.250
 4361POPC   C3A16421  44.686  29.135   7.950
 4361POPC   C4A16422  44.627  29.154   7.650
 4361POPC   C1B16423  44.469  29.274   8.550
 4361POPC   C2B16424  44.394  29.220   8.250
 4361POPC   C3B16425  44.454  29.183   7.950
 4361POPC   C4B16426  44.409  29.267   7.650
 4362POPC   NC316427  25.242  22.196   9.450
 4362POPC   PO416428  25.293  22.181   9.150
 4362POPC   GL116429  25.293  22.132   8.850
 4362POPC   GL216430  25.434  22.233   8.850
 4362POPC   C1A16431  25.292  22.190   8.550
 4362POPC   D2A16432  25.218  22.147   8.250
 4362POPC   C3A16433  25.262  22.206   7.950
 4362POPC   C4A16434  25.293  22.141   7.650
 4362POPC   C1B16435  25.546  22.203   8.550
 4362POPC   C2B16436  25.511  22.233   8.250
 4362POPC   C3B16437  25.489  22.205   7.950
 4362POPC   C4B16438  25.530  22.233   7.650
 4363POPC   NC316439  10.552   1.182   9.450
 4363POPC   PO416440  10.563   1.206   9.150
 4363POPC   GL116441  10.543   1.222   8.850
 4363POPC   GL216442  10.596   1.296   8.850
 4363POPC   C1A16443  10.475   1.223   8.550
 4363POPC   D2A16444  10.551   1.241   8.250
 4363POPC   C3A16445  10.500   1.190   7.950
 4363POPC   C4A16446  10.552   1.218   7.650
 4363POPC   C1B16447  10.559   1.474   8.550
 4363POPC   C2B16448  10.603   1.426   8.250
 4363POPC   C3B16449  10.611   1.490   7.950
 4363POPC   C4B16450  10.610   1.480   7.650
 4364POPC   NC316451  23.706   2.805   9.450
 4364POPC   PO416452  23.687   2.736   9.150
 4364POPC   GL116453  23.685   2.781   8.850
 4364POPC   GL216454  23.731   2.870   8.850
 4364POPC   C1A16455  23.717   2.753   8.550
 4364POPC   D2A16456  23.672   2.788   8.250
 4364POPC   C3A16457  23.713   2.733   7.950
 4364POPC   C4A16458  23.743   2.791   7.650
 4364POPC   C1B16459  23.796   2.974   8.550
 4364POPC   C2B16460  23.715   3.023   8.250
 4364POPC   C3B16461  23.749   3.060   7.950
 4364POPC   C4B16462  23.735   3.014   7.650
 4365POPC   NC316463  35.363  26.058   9.450
 4365POPC   PO416464  35.396  26.057   9.150
 4365POPC   GL116465  35.357  26.071   8.850
 4365POPC   GL216466  35.481  25.957   8.850
 4365POPC   C1A16467  35.308  25.995   8.550
 4365POPC   D2A16468  35.335  25.992   8.250
 4365POPC   C3A16469  35.358  26.028   7.950
 4365POPC   C4A16470  35.363  26.021   7.650
 4365POPC   C1B16471  35.578  25.898   8.550
 4365POPC   C2B16472  35.542  25.930   8.250
 4365POPC   C3B16473  35.563  25.856   7.950
 4365POPC   C4B16474  35.554  25.930   7.650
 4366POPC   NC316475  11.324  12.808   9.450
 4366POPC   PO416476  11.338  12.843   9.150
 4366POPC   GL116477  11.324  12.865   8.850
 4366POPC   GL216478  11.225  12.851   8.850
 4366POPC   C1A16479  11.321  12.866   8.550
 4366POPC   D2A16480  11.312  12.864   8.250
 4366POPC   C3A16481  11.252  12.837   7.950
 4366POPC   C4A16482  11.310  12.863   7.650
 4366POPC   C1B16483  11.059  12.886   8.550
 4366POPC   C2B16484  11.086  12.935   8.250
 4366POPC   C3B16485  11.103  12.905   7.950
 4366POPC   C4B16486  11.055  12.964   7.650
 4367POPC   NC316487   1.967  15.207   9.450
 4367POPC   PO416488   2.033  15.223   9.150
 4367POPC   GL116489   2.036  15.186   8.850
 4367POPC   GL216490   1.907  15.118   8.850
 4367POPC   C1A16491   1.945  15.176   8.550
 4367POPC   D2A16492   2.035  15.187   8.250
 4367POPC   C3A16493   1.978  15.193   7.950
 4367POPC   C4A16494   1.970  15.149   7.650
 4367POPC   C1B16495   1.829  15.039   8.550
 4367POPC   C2B16496   1.781  15.064   8.250
 4367POPC   C3B16497   1.803  14.976   7.950
 4367POPC   C4B16498   1.763  15.016   7.650
 4368POPC   NC316499  43.922  31.479   9.450
 4368POPC   PO416500  43.868  31.519   9.150
 4368POPC   GL116501  43.866  31.425   8.850
 4368POPC   GL216502  43.823  31.336   8.850
 4368POPC   C1A16503  43.865  31.492   8.550
 4368POPC   D2A16504  43.910  31.425   8.250
 4368POPC   C3A16505  43.882  31.437   7.950
 4368POPC   C4A16506  43.866  31.439   7.650
 4368POPC   C1B16507  43.760  31.251   8.550
 4368POPC   C2B16508  43.836  31.269   8.250
 4368POPC   C3B16509  43.787  31.239   7.950
 4368POPC   C4B16510  43.797  31.220   7.650
 4369POPC   NC316511  32.212  40.006   9.450
 4369POPC   PO416512  32.235  39.987   9.150
 4369POPC   GL116513  32.285  39.988   8.850
 4369POPC   GL216514  32.353  40.112   8.850
 4369POPC   C1A16515  32.208  39.982   8.550
 4369POPC   D2A16516  32.246  40.025   8.250
 4369POPC   C3A16517  32.276  39.964   7.950
 4369POPC   C4A16518  32.236  40.021   7.650
 4369POPC   C1B16519  32.463  40.107   8.550
 4369POPC   C2B16520  32.442  40.191   8.250
 4369POPC   C3B16521  32.455  40.188   7.950
 4369POPC   C4B16522  32.472  40.146   7.650
 4370POPC   NC316523  16.684  13.617   9.450
 4370POPC   PO416524  16.731  13.597   9.150
 4370POPC   GL116525  16.718  13.647   8.850
 4370POPC   GL216526  16.673  13.720   8.850
 4370POPC   C1A16527  16.712  13.602   8.550
 4370POPC   D2A16528  16.739  13.633   8.250
 4370POPC   C3A16529  16.771  13.658   7.950
 4370POPC   C4A16530  16.779  13.599   7.650
 4370POPC   C1B16531  16.719  13.892   8.550
 4370POPC   C2B16532  16.640  13.890   8.250
 4370POPC   C3B16533  16.672  13.897   7.950
 4370POPC   C4B16534  16.696  13.843   7.650
 4371POPC   NC316535  35.373   2.803   9.450
 4371POPC   PO416536  35.313   2.776   9.150
 4371POPC   GL116537  35.366   2.799   8.850
 4371POPC   GL216538  35.412   2.810   8.850
 4371POPC   C1A16539  35.354   2.739   8.550
 4371POPC   D2A16540  35.383   2.739   8.250
 4371POPC   C3A16541  35.375   2.774   7.950
 4371POPC   C4A16542  35.398   2.771   7.650
 4371POPC   C1B16543  35.486   2.987   8.550
 4371POPC   C2B16544  35.520   2.924   8.250
 4371POPC   C3B16545  35.533   2.935   7.950
 4371POPC   C4B16546  35.546   2.966   7.650
 4372POPC   NC316547  13.630   3.539   9.450
 4372POPC   PO416548  13.582   3.527   9.150
 4372POPC   GL116549  13.648   3.513   8.850
 4372POPC   GL216550  13.753   3.627   8.850
 4372POPC   C1A16551  13.579   3.589   8.550
 4372POPC   D2A16552  13.637   3.536   8.250
 4372POPC   C3A16553  13.586   3.510   7.950
 4372POPC   C4A16554  13.657   3.530   7.650
 4372POPC   C1B16555  13.811   3.691   8.550
 4372POPC   C2B16556  13.826   3.707   8.250
 4372POPC   C3B16557  13.856   3.704   7.950
 4372POPC   C4B16558  13.782   3.681   7.650
 4373POPC   NC316559   2.803   4.321   9.450
 4373POPC   PO416560   2.758   4.347   9.150
 4373POPC   GL116561   2.743   4.324   8.850
 4373POPC   GL216562   2.881   4.222   8.850
 4373POPC   C1A16563   2.749   4.339   8.550
 4373POPC   D2A16564   2.778   4.350   8.250
 4373POPC   C3A16565   2.785   4.351   7.950
 4373POPC   C4A16566   2.738   4.314   7.650
 4373POPC   C1B16567   3.017   4.250   8.550
 4373POPC   C2B16568   2.943   4.193   8.250
 4373POPC   C3B16569   3.007   4.233   7.950
 4373POPC   C4B16570   3.035   4.168   7.650
 4374POPC   NC316571   2.012  21.385   9.450
 4374POPC   PO416572   1.955  21.406   9.150
 4374POPC   GL116573   2.036  21.380   8.850
 4374POPC   GL216574   2.024  21.529   8.850
 4374POPC   C1A16575   1.958  21.396   8.550
 4374POPC   D2A16576   2.008  21.382   8.250
 4374POPC   C3A16577   1.978  21.426   7.950
 4374POPC   C4A16578   1.952  21.398   7.650
 4374POPC   C1B16579   1.994  21.640   8.550
 4374POPC   C2B16580   2.019  21.598   8.250
 4374POPC   C3B16581   2.057  21.634   7.950
 4374POPC   C4B16582   2.028  21.592   7.650
 4375POPC   NC316583   3.550  42.298   9.450
 4375POPC   PO416584   3.568  42.374   9.150
 4375POPC   GL116585   3.511  42.333   8.850
 4375POPC   GL216586   3.443  42.483   8.850
 4375POPC   C1A16587   3.503  42.355   8.550
 4375POPC   D2A16588   3.587  42.345   8.250
 4375POPC   C3A16589   3.533  42.380   7.950
 4375POPC   C4A16590   3.534  42.296   7.650
 4375POPC   C1B16591   3.446  42.532   8.550
 4375POPC   C2B16592   3.470  42.515   8.250
 4375POPC   C3B16593   3.446  42.550   7.950
 4375POPC   C4B16594   3.443  42.539   7.650
 4376POPC   NC316595   9.760  27.566   9.450
 4376POPC   PO416596   9.785  27.578   9.150
 4376POPC   GL116597   9.797  27.643   8.850
 4376POPC   GL216598   9.603  27.574   8.850
 4376POPC   C1A16599   9.758  27.636   8.550
 4376POPC   D2A16600   9.716  27.561   8.250
 4376POPC   C3A16601   9.707  27.565   7.950
 4376POPC   C4A16602   9.721  27.593   7.650
 4376POPC   C1B16603   9.545  27.468   8.550
 4376POPC   C2B16604   9.467  27.516   8.250
 4376POPC   C3B16605   9.504  27.545   7.950
 4376POPC   C4B16606   9.464  27.533   7.650
 4377POPC   NC316607  20.606   8.192   9.450
 4377POPC   PO416608  20.593   8.173   9.150
 4377POPC   GL116609  20.627   8.148   8.850
 4377POPC   GL216610  20.703   8.120   8.850
 4377POPC   C1A16611  20.586   8.232   8.550
 4377POPC   D2A16612  20.609   8.238   8.250
 4377POPC   C3A16613  20.607   8.213   7.950
 4377POPC   C4A16614  20.629   8.240   7.650
 4377POPC   C1B16615  20.766   8.006   8.550
 4377POPC   C2B16616  20.761   7.988   8.250
 4377POPC   C3B16617  20.759   8.033   7.950
 4377POPC   C4B16618  20.823   8.037   7.650
 4378POPC   NC316619  15.132  15.144   9.450
 4378POPC   PO416620  15.172  15.183   9.150
 4378POPC   GL116621  15.165  15.202   8.850
 4378POPC   GL216622  15.105  15.071   8.850
 4378POPC   C1A16623  15.173  15.161   8.550
 4378POPC   D2A16624  15.202  15.170   8.250
 4378POPC   C3A16625  15.167  15.192   7.950
 4378POPC   C4A16626  15.227  15.204   7.650
 4378POPC   C1B16627  15.053  14.963   8.550
 4378POPC   C2B16628  15.047  15.005   8.250
 4378POPC   C3B16629  15.088  14.959   7.950
 4378POPC   C4B16630  15.072  14.976   7.650
 4379POPC   NC316631  39.215  37.723   9.450
 4379POPC   PO416632  39.197  37.714   9.150
 4379POPC   GL116633  39.193  37.673   8.850
 4379POPC   GL216634  39.363  37.710   8.850
 4379POPC   C1A16635  39.260  37.685   8.550
 4379POPC   D2A16636  39.264  37.658   8.250
 4379POPC   C3A16637  39.228  37.705   7.950
 4379POPC   C4A16638  39.245  37.647   7.650
 4379POPC   C1B16639  39.464  37.665   8.550
 4379POPC   C2B16640  39.452  37.617   8.250
 4379POPC   C3B16641  39.465  37.694   7.950
 4379POPC   C4B16642  39.471  37.689   7.650
 4380POPC   NC316643  22.895  10.559   9.450
 4380POPC   PO416644  22.906  10.553   9.150
 4380POPC   GL116645  22.981  10.494   8.850
 4380POPC   GL216646  22.810  10.499   8.850
 4380POPC   C1A16647  22.948  10.569   8.550
 4380POPC   D2A16648  22.923  10.475   8.250
 4380POPC   C3A16649  22.986  10.515   7.950
 4380POPC   C4A16650  22.980  10.571   7.650
 4380POPC   C1B16651  22.703  10.453   8.550
 4380POPC   C2B16652  22.680  10.481   8.250
 4380POPC   C3B16653  22.683  10.534   7.950
 4380POPC   C4B16654  22.717  10.550   7.650
 4381POPC   NC316655   1.168   7.389   9.450
 4381POPC   PO416656   1.253   7.385   9.150
 4381POPC   GL116657   1.200   7.398   8.850
 4381POPC   GL216658   1.318   7.380   8.850
 4381POPC   C1A16659   1.233   7.421   8.550
 4381POPC   D2A16660   1.250   7.399   8.250
 4381POPC   C3A16661   1.177   7.396   7.950
 4381POPC   C4A16662   1.209   7.418   7.650
 4381POPC   C1B16663   1.399   7.311   8.550
 4381POPC   C2B16664   1.429   7.271   8.250
 4381POPC   C3B16665   1.370   7.285   7.950
 4381POPC   C4B16666   1.387   7.248   7.650
 4382POPC   NC316667  29.142  17.506   9.450
 4382POPC   PO416668  29.106  17.503   9.150
 4382POPC   GL116669  29.111  17.484   8.850
 4382POPC   GL216670  29.067  17.554   8.850
 4382POPC   C1A16671  29.190  17.511   8.550
 4382POPC   D2A16672  29.174  17.482   8.250
 4382POPC   C3A16673  29.131  17.458   7.950
 4382POPC   C4A16674  29.114  17.481   7.650
 4382POPC   C1B16675  28.921  17.620   8.550
 4382POPC   C2B16676  28.966  17.643   8.250
 4382POPC   C3B16677  28.936  17.616   7.950
 4382POPC   C4B16678  28.915  17.609   7.650
 4383POPC   NC316679  39.219  43.109   9.450
 4383POPC   PO416680  39.276  43.128   9.150
 4383POPC   GL116681  39.198  43.105   8.850
 4383POPC   GL216682  39.157  43.183   8.850
 4383POPC   C1A16683  39.240  43.063   8.550
 4383POPC   D2A16684  39.280  43.068   8.250
 4383POPC   C3A16685  39.220  43.102   7.950
 4383POPC   C4A16686  39.236  43.129   7.650
 4383POPC   C1B16687  38.999  43.203   8.550
 4383POPC   C2B16688  38.979  43.253   8.250
 4383POPC   C3B16689  38.977  43.163   7.950
 4383POPC   C4B16690  39.030  43.237   7.650
 4384POPC   NC316691  43.909  27.584   9.450
 4384POPC   PO416692  43.927  27.583   9.150
 4384POPC   GL116693  43.912  27.635   8.850
 4384POPC   GL216694  43.963  27.604   8.850
 4384POPC   C1A16695  43.929  27.588   8.550
 4384POPC   D2A16696  43.889  27.640   8.250
 4384POPC   C3A16697  43.840  27.551   7.950
 4384POPC   C4A16698  43.849  27.622   7.650
 4384POPC   C1B16699  44.093  27.585   8.550
 4384POPC   C2B16700  44.164  27.606   8.250
 4384POPC   C3B16701  44.091  27.581   7.950
 4384POPC   C4B16702  44.095  27.553   7.650
 4385POPC   NC316703  32.288  12.815   9.450
 4385POPC   PO416704  32.290  12.878   9.150
 4385POPC   GL116705  32.218  12.814   8.850
 4385POPC   GL216706  32.166  12.947   8.850
 4385POPC   C1A16707  32.228  12.830   8.550
 4385POPC   D2A16708  32.200  12.857   8.250
 4385POPC   C3A16709  32.285  12.817   7.950
 4385POPC   C4A16710  32.268  12.851   7.650
 4385POPC   C1B16711  32.146  13.081   8.550
 4385POPC   C2B16712  32.153  13.117   8.250
 4385POPC   C3B16713  32.145  13.098   7.950
 4385POPC   C4B16714  32.108  13.083   7.650
 4386POPC   NC316715  17.471   1.954   9.450
 4386POPC   PO416716  17.511   1.969   9.150
 4386POPC   GL116717  17.557   2.024   8.850
 4386POPC   GL216718  17.409   1.972   8.850
 4386POPC   C1A16719  17.535   1.940   8.550
 4386POPC   D2A16720  17.515   1.965   8.250
 4386POPC   C3A16721  17.498   2.022   7.950
 4386POPC   C4A16722  17.481   1.942   7.650
 4386POPC   C1B16723  17.263   1.972   8.550
 4386POPC   C2B16724  17.253   2.046   8.250
 4386POPC   C3B16725  17.249   1.982   7.950
 4386POPC   C4B16726  17.242   2.009   7.650
 4387POPC   NC316727  25.287   6.692   9.450
 4387POPC   PO416728  25.237   6.616   9.150
 4387POPC   GL116729  25.279   6.680   8.850
 4387POPC   GL216730  25.276   6.533   8.850
 4387POPC   C1A16731  25.253   6.660   8.550
 4387POPC   D2A16732  25.250   6.596   8.250
 4387POPC   C3A16733  25.261   6.605   7.950
 4387POPC   C4A16734  25.263   6.643   7.650
 4387POPC   C1B16735  25.168   6.399   8.550
 4387POPC   C2B16736  25.212   6.422   8.250
 4387POPC   C3B16737  25.232   6.453   7.950
 4387POPC   C4B16738  25.212   6.451   7.650
 4388POPC   NC316739  21.342   8.151   9.450
 4388POPC   PO416740  21.340   8.181   9.150
 4388POPC   GL116741  21.382   8.190   8.850
 4388POPC   GL216742  21.326   8.336   8.850
 4388POPC   C1A16743  21.340   8.159   8.550
 4388POPC   D2A16744  21.429   8.223   8.250
 4388POPC   C3A16745  21.363   8.243   7.950
 4388POPC   C4A16746  21.408   8.177   7.650
 4388POPC   C1B16747  21.226   8.399   8.550
 4388POPC   C2B16748  21.213   8.414   8.250
 4388POPC   C3B16749  21.259   8.413   7.950
 4388POPC   C4B16750  21.255   8.398   7.650
 4389POPC   NC316751   6.673  41.533   9.450
 4389POPC   PO416752   6.635  41.531   9.150
 4389POPC   GL116753   6.624  41.577   8.850
 4389POPC   GL216754   6.574  41.628   8.850
 4389POPC   C1A16755   6.689  41.542   8.550
 4389POPC   D2A16756   6.611  41.527   8.250
 4389POPC   C3A16757   6.665  41.595   7.950
 4389POPC   C4A16758   6.678  41.532   7.650
 4389POPC   C1B16759   6.534  41.751   8.550
 4389POPC   C2B16760   6.513  41.762   8.250
 4389POPC   C3B16761   6.575  41.809   7.950
 4389POPC   C4B16762   6.587  41.782   7.650
 4390POPC   NC316763  37.651   3.514   9.450
 4390POPC   PO416764  37.644   3.511   9.150
 4390POPC   GL116765  37.656   3.508   8.850
 4390POPC   GL216766  37.571   3.526   8.850
 4390POPC   C1A16767  37.693   3.521   8.550
 4390POPC   D2A16768  37.683   3.525   8.250
 4390POPC   C3A16769  37.709   3.590   7.950
 4390POPC   C4A16770  37.668   3.498   7.650
 4390POPC   C1B16771  37.485   3.448   8.550
 4390POPC   C2B16772  37.449   3.371   8.250
 4390POPC   C3B16773  37.505   3.379   7.950
 4390POPC   C4B16774  37.449   3.376   7.650
 4391POPC   NC316775  12.073  16.721   9.450
 4391POPC   PO416776  12.086  16.763   9.150
 4391POPC   GL116777  12.085  16.707   8.850
 4391POPC   GL216778  12.010  16.734   8.850
 4391POPC   C1A16779  12.037  16.758   8.550
 4391POPC   D2A16780  12.100  16.745   8.250
 4391POPC   C3A16781  12.091  16.721   7.950
 4391POPC   C4A16782  12.110  16.699   7.650
 4391POPC   C1B16783  11.818  16.832   8.550
 4391POPC   C2B16784  11.834  16.803   8.250
 4391POPC   C3B16785  11.850  16.832   7.950
 4391POPC   C4B16786  11.848  16.882   7.650
 4392POPC   NC316787  37.721  44.685   9.450
 4392POPC   PO416788  37.689  44.624   9.150
 4392POPC   GL116789  37.648  44.675   8.850
 4392POPC   GL216790  37.605  44.620   8.850
 4392POPC   C1A16791  37.713  44.619   8.550
 4392POPC   D2A16792  37.712  44.613   8.250
 4392POPC   C3A16793  37.725  44.712   7.950
 4392POPC   C4A16794  37.651  44.641   7.650
 4392POPC   C1B16795  37.421  44.563   8.550
 4392POPC   C2B16796  37.485  44.571   8.250
 4392POPC   C3B16797  37.480  44.621   7.950
 4392POPC   C4B16798  37.459  44.581   7.650
 4393POPC   NC316799  42.340  24.484   9.450
 4393POPC   PO416800  42.356  24.459   9.150
 4393POPC   GL116801  42.365  24.508   8.850
 4393POPC   GL216802  42.179  24.489   8.850
 4393POPC   C1A16803  42.379  24.469   8.550
 4393POPC   D2A16804  42.378  24.465   8.250
 4393POPC   C3A16805  42.367  24.516   7.950
 4393POPC   C4A16806  42.290  24.482   7.650
 4393POPC   C1B16807  42.147  24.443   8.550
 4393POPC   C2B16808  42.078  24.407   8.250
 4393POPC   C3B16809  42.058  24.431   7.950
 4393POPC   C4B16810  42.056  24.432   7.650
 4394POPC   NC316811  36.101  15.906   9.450
 4394POPC   PO416812  36.138  15.937   9.150
 4394POPC   GL116813  36.136  15.951   8.850
 4394POPC   GL216814  36.026  16.035   8.850
 4394POPC   C1A16815  36.168  15.996   8.550
 4394POPC   D2A16816  36.107  15.947   8.250
 4394POPC   C3A16817  36.098  15.948   7.950
 4394POPC   C4A16818  36.134  15.973   7.650
 4394POPC   C1B16819  35.983  16.147   8.550
 4394POPC   C2B16820  35.977  16.168   8.250
 4394POPC   C3B16821  35.991  16.173   7.950
 4394POPC   C4B16822  35.992  16.187   7.650
 4395POPC   NC316823  43.134  43.921   9.450
 4395POPC   PO416824  43.104  43.843   9.150
 4395POPC   GL116825  43.158  43.936   8.850
 4395POPC   GL216826  43.012  43.806   8.850
 4395POPC   C1A16827  43.085  43.854   8.550
 4395POPC   D2A16828  43.143  43.903   8.250
 4395POPC   C3A16829  43.120  43.839   7.950
 4395POPC   C4A16830  43.109  43.892   7.650
 4395POPC   C1B16831  42.998  43.650   8.550
 4395POPC   C2B16832  43.010  43.680   8.250
 4395POPC   C3B16833  43.005  43.699   7.950
 4395POPC   C4B16834  43.026  43.662   7.650
 4396POPC   NC316835   1.950   5.856   9.450
 4396POPC   PO416836   1.971   5.860   9.150
 4396POPC   GL116837   2.014   5.820   8.850
 4396POPC   GL216838   1.969   5.721   8.850
 4396POPC   C1A16839   1.947   5.882   8.550
 4396POPC   D2A16840   1.990   5.861   8.250
 4396POPC   C3A16841   2.005   5.835   7.950
 4396POPC   C4A16842   1.986   5.832   7.650
 4396POPC   C1B16843   1.931   5.653   8.550
 4396POPC   C2B16844   1.943   5.633   8.250
 4396POPC   C3B16845   2.001   5.622   7.950
 4396POPC   C4B16846   1.966   5.604   7.650
 4397POPC   NC316847  32.978   7.412   9.450
 4397POPC   PO416848  32.999   7.405   9.150
 4397POPC   GL116849  32.977   7.409   8.850
 4397POPC   GL216850  33.137   7.500   8.850
 4397POPC   C1A16851  33.016   7.465   8.550
 4397POPC   D2A16852  33.040   7.464   8.250
 4397POPC   C3A16853  33.074   7.379   7.950
 4397POPC   C4A16854  33.037   7.464   7.650
 4397POPC   C1B16855  33.238   7.595   8.550
 4397POPC   C2B16856  33.228   7.570   8.250
 4397POPC   C3B16857  33.155   7.638   7.950
 4397POPC   C4B16858  33.166   7.560   7.650
 4398POPC   NC316859  29.146  40.043   9.450
 4398POPC   PO416860  29.127  39.995   9.150
 4398POPC   GL116861  29.163  39.966   8.850
 4398POPC   GL216862  29.301  40.065   8.850
 4398POPC   C1A16863  29.122  39.973   8.550
 4398POPC   D2A16864  29.144  40.050   8.250
 4398POPC   C3A16865  29.143  40.004   7.950
 4398POPC   C4A16866  29.171  39.986   7.650
 4398POPC   C1B16867  29.439  40.077   8.550
 4398POPC   C2B16868  29.419  40.102   8.250
 4398POPC   C3B16869  29.424  40.041   7.950
 4398POPC   C4B16870  29.366  40.082   7.650
 4399POPC   NC316871  34.592   5.047   9.450
 4399POPC   PO416872  34.545   5.064   9.150
 4399POPC   GL116873  34.577   5.063   8.850
 4399POPC   GL216874  34.675   5.110   8.850
 4399POPC   C1A16875  34.576   5.059   8.550
 4399POPC   D2A16876  34.526   5.058   8.250
 4399POPC   C3A16877  34.592   5.048   7.950
 4399POPC   C4A16878  34.526   5.112   7.650
 4399POPC   C1B16879  34.761   5.247   8.550
 4399POPC   C2B16880  34.804   5.223   8.250
 4399POPC   C3B16881  34.806   5.196   7.950
 4399POPC   C4B16882  34.826   5.182   7.650
 4400POPC   NC316883  19.874   5.878   9.450
 4400POPC   PO416884  19.809   5.885   9.150
 4400POPC   GL116885  19.838   5.916   8.850
 4400POPC   GL216886  19.816   5.953   8.850
 4400POPC   C1A16887  19.870   5.862   8.550
 4400POPC   D2A16888  19.822   5.910   8.250
 4400POPC   C3A16889  19.839   5.890   7.950
 4400POPC   C4A16890  19.876   5.875   7.650
 4400POPC   C1B16891  19.812   6.103   8.550
 4400POPC   C2B16892  19.775   6.119   8.250
 4400POPC   C3B16893  19.824   6.147   7.950
 4400POPC   C4B16894  19.760   6.100   7.650
 4401POPC   NC316895  11.337  29.139   9.450
 4401POPC   PO416896  11.327  29.156   9.150
 4401POPC   GL116897  11.281  29.183   8.850
 4401POPC   GL216898  11.193  29.262   8.850
 4401POPC   C1A16899  11.258  29.105   8.550
 4401POPC   D2A16900  11.338  29.165   8.250
 4401POPC   C3A16901  11.263  29.132   7.950
 4401POPC   C4A16902  11.304  29.123   7.650
 4401POPC   C1B16903  11.138  29.269   8.550
 4401POPC   C2B16904  11.099  29.246   8.250
 4401POPC   C3B16905  11.100  29.263   7.950
 4401POPC   C4B16906  11.069  29.295   7.650
 4402POPC   NC316907  26.032  18.291   9.450
 4402POPC   PO416908  26.078  18.282   9.150
 4402POPC   GL116909  26.076  18.250   8.850
 4402POPC   GL216910  25.905  18.357   8.850
 4402POPC   C1A16911  26.041  18.332   8.550
 4402POPC   D2A16912  26.051  18.299   8.250
 4402POPC   C3A16913  26.027  18.277   7.950
 4402POPC   C4A16914  26.070  18.318   7.650
 4402POPC   C1B16915  25.820  18.397   8.550
 4402POPC   C2B16916  25.867  18.408   8.250
 4402POPC   C3B16917  25.813  18.445   7.950
 4402POPC   C4B16918  25.799  18.409   7.650
 4403POPC   NC316919  19.883   6.630   9.450
 4403POPC   PO416920  19.874   6.663   9.150
 4403POPC   GL116921  19.785   6.669   8.850
 4403POPC   GL216922  19.728   6.673   8.850
 4403POPC   C1A16923  19.788   6.693   8.550
 4403POPC   D2A16924  19.795   6.640   8.250
 4403POPC   C3A16925  19.862   6.630   7.950
 4403POPC   C4A16926  19.841   6.628   7.650
 4403POPC   C1B16927  19.554   6.577   8.550
 4403POPC   C2B16928  19.568   6.632   8.250
 4403POPC   C3B16929  19.589   6.608   7.950
 4403POPC   C4B16930  19.597   6.575   7.650
 4404POPC   NC316931  18.264  19.821   9.450
 4404POPC   PO416932  18.238  19.800   9.150
 4404POPC   GL116933  18.251  19.870   8.850
 4404POPC   GL216934  18.234  19.952   8.850
 4404POPC   C1A16935  18.316  19.858   8.550
 4404POPC   D2A16936  18.330  19.814   8.250
 4404POPC   C3A16937  18.269  19.865   7.950
 4404POPC   C4A16938  18.289  19.831   7.650
 4404POPC   C1B16939  18.145  20.087   8.550
 4404POPC   C2B16940  18.145  20.083   8.250
 4404POPC   C3B16941  18.122  20.079   7.950
 4404POPC   C4B16942  18.130  20.062   7.650
 4405POPC   NC316943  40.752  15.203   9.450
 4405POPC   PO416944  40.811  15.154   9.150
 4405POPC   GL116945  40.764  15.209   8.850
 4405POPC   GL216946  40.824  15.269   8.850
 4405POPC   C1A16947  40.807  15.222   8.550
 4405POPC   D2A16948  40.782  15.217   8.250
 4405POPC   C3A16949  40.743  15.136   7.950
 4405POPC   C4A16950  40.734  15.226   7.650
 4405POPC   C1B16951  40.832  15.370   8.550
 4405POPC   C2B16952  40.862  15.418   8.250
 4405POPC   C3B16953  40.839  15.415   7.950
 4405POPC   C4B16954  40.864  15.392   7.650
 4406POPC   NC316955  39.227  34.555   9.450
 4406POPC   PO416956  39.224  34.580   9.150
 4406POPC   GL116957  39.211  34.536   8.850
 4406POPC   GL216958  39.260  34.713   8.850
 4406POPC   C1A16959  39.211  34.574   8.550
 4406POPC   D2A16960  39.232  34.550   8.250
 4406POPC   C3A16961  39.267  34.624   7.950
 4406POPC   C4A16962  39.215  34.566   7.650
 4406POPC   C1B16963  39.331  34.818   8.550
 4406POPC   C2B16964  39.274  34.817   8.250
 4406POPC   C3B16965  39.364  34.761   7.950
 4406POPC   C4B16966  39.345  34.772   7.650
 4407POPC   NC316967   4.364  37.722   9.450
 4407POPC   PO416968   4.284  37.726   9.150
 4407POPC   GL116969   4.289  37.703   8.850
 4407POPC   GL216970   4.332  37.838   8.850
 4407POPC   C1A16971   4.350  37.695   8.550
 4407POPC   D2A16972   4.270  37.674   8.250
 4407POPC   C3A16973   4.267  37.715   7.950
 4407POPC   C4A16974   4.351  37.653   7.650
 4407POPC   C1B16975   4.426  37.938   8.550
 4407POPC   C2B16976   4.396  37.896   8.250
 4407POPC   C3B16977   4.414  37.897   7.950
 4407POPC   C4B16978   4.459  37.946   7.650
 4408POPC   NC316979  19.053  23.757   9.450
 4408POPC   PO416980  19.099  23.695   9.150
 4408POPC   GL116981  19.029  23.730   8.850
 4408POPC   GL216982  19.066  23.595   8.850
 4408POPC   C1A16983  19.022  23.747   8.550
 4408POPC   D2A16984  19.027  23.678   8.250
 4408POPC   C3A16985  19.108  23.724   7.950
 4408POPC   C4A16986  19.038  23.714   7.650
 4408POPC   C1B16987  19.042  23.471   8.550
 4408POPC   C2B16988  19.042  23.484   8.250
 4408POPC   C3B16989  19.027  23.498   7.950
 4408POPC   C4B16990  18.981  23.432   7.650
 4409POPC   NC316991   3.560   1.258   9.450
 4409POPC   PO416992   3.557   1.194   9.150
 4409POPC   GL116993   3.589   1.182   8.850
 4409POPC   GL216994   3.648   1.265   8.850
 4409POPC   C1A16995   3.562   1.246   8.550
 4409POPC   D2A16996   3.539   1.251   8.250
 4409POPC   C3A16997   3.497   1.223   7.950
 4409POPC   C4A16998   3.534   1.178   7.650
 4409POPC   C1B16999   3.778   1.324   8.550
 4409POPC   C2B17000   3.783   1.318   8.250
 4409POPC   C3B17001   3.723   1.308   7.950
 4409POPC   C4B17002   3.766   1.389   7.650
 4410POPC   NC317003  12.893  14.423   9.450
 4410POPC   PO417004  12.838  14.447   9.150
 4410POPC   GL117005  12.803  14.360   8.850
 4410POPC   GL217006  12.885  14.556   8.850
 4410POPC   C1A17007  12.859  14.359   8.550
 4410POPC   D2A17008  12.865  14.427   8.250
 4410POPC   C3A17009  12.852  14.444   7.950
 4410POPC   C4A17010  12.861  14.419   7.650
 4410POPC   C1B17011  12.838  14.672   8.550
 4410POPC   C2B17012  12.831  14.641   8.250
 4410POPC   C3B17013  12.892  14.621   7.950
 4410POPC   C4B17014  12.905  14.610   7.650
 4411POPC   NC317015  33.072   2.759   9.450
 4411POPC   PO417016  33.013   2.784   9.150
 4411POPC   GL117017  33.049   2.741   8.850
 4411POPC   GL217018  32.998   2.684   8.850
 4411POPC   C1A17019  33.049   2.783   8.550
 4411POPC   D2A17020  33.050   2.739   8.250
 4411POPC   C3A17021  33.060   2.812   7.950
 4411POPC   C4A17022  33.036   2.772   7.650
 4411POPC   C1B17023  32.875   2.505   8.550
 4411POPC   C2B17024  32.932   2.570   8.250
 4411POPC   C3B17025  32.967   2.501   7.950
 4411POPC   C4B17026  32.886   2.586   7.650
 4412POPC   NC317027   3.538  12.812   9.450
 4412POPC   PO417028   3.551  12.868   9.150
 4412POPC   GL117029   3.578  12.873   8.850
 4412POPC   GL217030   3.576  12.975   8.850
 4412POPC   C1A17031   3.563  12.901   8.550
 4412POPC   D2A17032   3.504  12.883   8.250
 4412POPC   C3A17033   3.515  12.901   7.950
 4412POPC   C4A17034   3.531  12.875   7.650
 4412POPC   C1B17035   3.663  13.063   8.550
 4412POPC   C2B17036   3.749  13.022   8.250
 4412POPC   C3B17037   3.706  13.056   7.950
 4412POPC   C4B17038   3.675  13.041   7.650
 4413POPC   NC317039   0.420   1.941   9.450
 4413POPC   PO417040   0.415   1.990   9.150
 4413POPC   GL117041   0.410   1.992   8.850
 4413POPC   GL217042   0.561   1.931   8.850
 4413POPC   C1A17043   0.432   2.040   8.550
 4413POPC   D2A17044   0.425   2.021   8.250
 4413POPC   C3A17045   0.418   1.957   7.950
 4413POPC   C4A17046   0.408   2.033   7.650
 4413POPC   C1B17047   0.623   1.853   8.550
 4413POPC   C2B17048   0.594   1.843   8.250
 4413POPC   C3B17049   0.597   1.776   7.950
 4413POPC   C4B17050   0.664   1.837   7.650
 4414POPC   NC317051  22.977   0.407   9.450
 4414POPC   PO417052  22.905   0.399   9.150
 4414POPC   GL117053  22.898   0.414   8.850
 4414POPC   GL217054  23.060   0.558   8.850
 4414POPC   C1A17055  22.906   0.460   8.550
 4414POPC   D2A17056  22.961   0.478   8.250
 4414POPC   C3A17057  22.963   0.472   7.950
 4414POPC   C4A17058  22.924   0.421   7.650
 4414POPC   C1B17059  23.153   0.598   8.550
 4414POPC   C2B17060  23.106   0.566   8.250
 4414POPC   C3B17061  23.073   0.602   7.950
 4414POPC   C4B17062  23.089   0.574   7.650
 4415POPC   NC317063  39.240  30.681   9.450
 4415POPC   PO417064  39.238  30.746   9.150
 4415POPC   GL117065  39.232  30.671   8.850
 4415POPC   GL217066  39.194  30.581   8.850
 4415POPC   C1A17067  39.200  30.733   8.550
 4415POPC   D2A17068  39.225  30.736   8.250
 4415POPC   C3A17069  39.199  30.745   7.950
 4415POPC   C4A17070  39.259  30.712   7.650
 4415POPC   C1B17071  39.013  30.467   8.550
 4415POPC   C2B17072  39.038  30.565   8.250
 4415POPC   C3B17073  39.065  30.476   7.950
 4415POPC   C4B17074  39.072  30.501   7.650
 4416POPC   NC317075   1.993  12.812   9.450
 4416POPC   PO417076   1.997  12.856   9.150
 4416POPC   GL117077   2.031  12.872   8.850
 4416POPC   GL217078   1.995  12.727   8.850
 4416POPC   C1A17079   2.036  12.886   8.550
 4416POPC   D2A17080   1.948  12.851   8.250
 4416POPC   C3A17081   1.969  12.814   7.950
 4416POPC   C4A17082   1.945  12.840   7.650
 4416POPC   C1B17083   1.977  12.647   8.550
 4416POPC   C2B17084   2.015  12.557   8.250
 4416POPC   C3B17085   2.016  12.597   7.950
 4416POPC   C4B17086   1.966  12.589   7.650
 4417POPC   NC317087  28.360  26.832   9.450
 4417POPC   PO417088  28.325  26.821   9.150
 4417POPC   GL117089  28.390  26.855   8.850
 4417POPC   GL217090  28.452  26.920   8.850
 4417POPC   C1A17091  28.338  26.856   8.550
 4417POPC   D2A17092  28.324  26.768   8.250
 4417POPC   C3A17093  28.350  26.779   7.950
 4417POPC   C4A17094  28.353  26.768   7.650
 4417POPC   C1B17095  28.402  27.044   8.550
 4417POPC   C2B17096  28.495  27.041   8.250
 4417POPC   C3B17097  28.404  27.101   7.950
 4417POPC   C4B17098  28.485  27.011   7.650
 4418POPC   NC317099  22.919  24.500   9.450
 4418POPC   PO417100  22.987  24.477   9.150
 4418POPC   GL117101  22.928  24.521   8.850
 4418POPC   GL217102  22.871  24.406   8.850
 4418POPC   C1A17103  22.966  24.518   8.550
 4418POPC   D2A17104  22.890  24.532   8.250
 4418POPC   C3A17105  22.966  24.467   7.950
 4418POPC   C4A17106  22.892  24.518   7.650
 4418POPC   C1B17107  22.737  24.347   8.550
 4418POPC   C2B17108  22.716  24.385   8.250
 4418POPC   C3B17109  22.749  24.385   7.950
 4418POPC   C4B17110  22.765  24.334   7.650
 4419POPC   NC317111  29.900   9.009   9.450
 4419POPC   PO417112  29.908   8.942   9.150
 4419POPC   GL117113  29.930   9.016   8.850
 4419POPC   GL217114  29.826   8.995   8.850
 4419POPC   C1A17115  29.883   8.998   8.550
 4419POPC   D2A17116  29.953   8.952   8.250
 4419POPC   C3A17117  29.908   9.005   7.950
 4419POPC   C4A17118  29.961   8.985   7.650
 4419POPC   C1B17119  29.741   9.102   8.550
 4419POPC   C2B17120  29.711   9.082   8.250
 4419POPC   C3B17121  29.694   9.080   7.950
 4419POPC   C4B17122  29.695   9.095   7.650
 4420POPC   NC317123  23.731  37.654   9.450
 4420POPC   PO417124  23.733  37.692   9.150
 4420POPC   GL117125  23.747  37.686   8.850
 4420POPC   GL217126  23.664  37.794   8.850
 4420POPC   C1A17127  23.735  37.699   8.550
 4420POPC   D2A17128  23.731  37.632   8.250
 4420POPC   C3A17129  23.711  37.726   7.950
 4420POPC   C4A17130  23.759  37.643   7.650
 4420POPC   C1B17131  23.630  37.901   8.550
 4420POPC   C2B17132  23.598  37.934   8.250
 4420POPC   C3B17133  23.625  37.878   7.950
 4420POPC   C4B17134  23.571  37.891   7.650
 4421POPC   NC317135  24.445  19.086   9.450
 4421POPC   PO417136  24.468  19.023   9.150
 4421POPC   GL117137  24.454  19.094   8.850
 4421POPC   GL217138  24.405  18.943   8.850
 4421POPC   C1A17139  24.522  19.020   8.550
 4421POPC   D2A17140  24.480  19.019   8.250
 4421POPC   C3A17141  24.445  19.056   7.950
 4421POPC   C4A17142  24.473  19.030   7.650
 4421POPC   C1B17143  24.362  18.820   8.550
 4421POPC   C2B17144  24.352  18.805   8.250
 4421POPC   C3B17145  24.407  18.848   7.950
 4421POPC   C4B17146  24.408  18.790   7.650
 4422POPC   NC317147  22.205  29.157   9.450
 4422POPC   PO417148  22.127  29.180   9.150
 4422POPC   GL117149  22.130  29.097   8.850
 4422POPC   GL217150  22.094  29.201   8.850
 4422POPC   C1A17151  22.200  29.168   8.550
 4422POPC   D2A17152  22.164  29.131   8.250
 4422POPC   C3A17153  22.128  29.162   7.950
 4422POPC   C4A17154  22.154  29.109   7.650
 4422POPC   C1B17155  22.013  29.320   8.550
 4422POPC   C2B17156  21.936  29.288   8.250
 4422POPC   C3B17157  21.941  29.349   7.950
 4422POPC   C4B17158  22.015  29.312   7.650
 4423POPC   NC317159  26.854  30.690   9.450
 4423POPC   PO417160  26.866  30.665   9.150
 4423POPC   GL117161  26.812  30.653   8.850
 4423POPC   GL217162  26.761  30.816   8.850
 4423POPC   C1A17163  26.825  30.666   8.550
 4423POPC   D2A17164  26.858  30.702   8.250
 4423POPC   C3A17165  26.839  30.668   7.950
 4423POPC   C4A17166  26.852  30.740   7.650
 4423POPC   C1B17167  26.717  30.886   8.550
 4423POPC   C2B17168  26.625  30.884   8.250
 4423POPC   C3B17169  26.670  30.895   7.950
 4423POPC   C4B17170  26.684  30.935   7.650
 4424POPC   NC317171  14.416  40.765   9.450
 4424POPC   PO417172  14.402  40.737   9.150
 4424POPC   GL117173  14.440  40.776   8.850
 4424POPC   GL217174  14.395  40.689   8.850
 4424POPC   C1A17175  14.451  40.745   8.550
 4424POPC   D2A17176  14.437  40.822   8.250
 4424POPC   C3A17177  14.398  40.802   7.950
 4424POPC   C4A17178  14.440  40.766   7.650
 4424POPC   C1B17179  14.392  40.494   8.550
 4424POPC   C2B17180  14.392  40.509   8.250
 4424POPC   C3B17181  14.364  40.576   7.950
 4424POPC   C4B17182  14.379  40.556   7.650
 4425POPC   NC317183  28.329  16.704   9.450
 4425POPC   PO417184  28.406  16.720   9.150
 4425POPC   GL117185  28.368  16.741   8.850
 4425POPC   GL217186  28.501  16.793   8.850
 4425POPC   C1A17187  28.344  16.724   8.550
 4425POPC   D2A17188  28.384  16.713   8.250
 4425POPC   C3A17189  28.401  16.753   7.950
 4425POPC   C4A17190  28.409  16.724   7.650
 4425POPC   C1B17191  28.594  16.795   8.550
 4425POPC   C2B17192  28.654  16.748   8.250
 4425POPC   C3B17193  28.574  16.738   7.950
 4425POPC   C4B17194  28.623  16.822   7.650
 4426POPC   NC317195  33.776  21.435   9.450
 4426POPC   PO417196  33.766  21.421   9.150
 4426POPC   GL117197  33.816  21.372   8.850
 4426POPC   GL217198  33.666  21.388   8.850
 4426POPC   C1A17199  33.787  21.340   8.550
 4426POPC   D2A17200  33.825  21.409   8.250
 4426POPC   C3A17201  33.824  21.393   7.950
 4426POPC   C4A17202  33.814  21.364   7.650
 4426POPC   C1B17203  33.555  21.456   8.550
 4426POPC   C2B17204  33.518  21.479   8.250
 4426POPC   C3B17205  33.534  21.480   7.950
 4426POPC   C4B17206  33.595  21.460   7.650
 4427POPC   NC317207  31.471   1.204   9.450
 4427POPC   PO417208  31.440   1.178   9.150
 4427POPC   GL117209  31.493   1.244   8.850
 4427POPC   GL217210  31.575   1.261   8.850
 4427POPC   C1A17211  31.424   1.168   8.550
 4427POPC   D2A17212  31.441   1.209   8.250
 4427POPC   C3A17213  31.487   1.234   7.950
 4427POPC   C4A17214  31.475   1.164   7.650
 4427POPC   C1B17215  31.690   1.267   8.550
 4427POPC   C2B17216  31.760   1.299   8.250
 4427POPC   C3B17217  31.684   1.274   7.950
 4427POPC   C4B17218  31.725   1.216   7.650
 4428POPC   NC317219  14.406  30.716   9.450
 4428POPC   PO417220  14.431  30.687   9.150
 4428POPC   GL117221  14.443  30.741   8.850
 4428POPC   GL217222  14.344  30.815   8.850
 4428POPC   C1A17223  14.443  30.695   8.550
 4428POPC   D2A17224  14.375  30.714   8.250
 4428POPC   C3A17225  14.447  30.699   7.950
 4428POPC   C4A17226  14.428  30.729   7.650
 4428POPC   C1B17227  14.260  30.902   8.550
 4428POPC   C2B17228  14.238  30.891   8.250
 4428POPC   C3B17229  14.300  30.913   7.950
 4428POPC   C4B17230  14.301  30.896   7.650
 4429POPC   NC317231   3.550   2.010   9.450
 4429POPC   PO417232   3.549   2.011   9.150
 4429POPC   GL117233   3.507   1.997   8.850
 4429POPC   GL217234   3.558   1.825   8.850
 4429POPC   C1A17235   3.584   1.954   8.550
 4429POPC   D2A17236   3.496   2.028   8.250
 4429POPC   C3A17237   3.509   1.947   7.950
 4429POPC   C4A17238   3.539   1.995   7.650
 4429POPC   C1B17239   3.536   1.698   8.550
 4429POPC   C2B17240   3.499   1.762   8.250
 4429POPC   C3B17241   3.563   1.745   7.950
 4429POPC   C4B17242   3.495   1.713   7.650
 4430POPC   NC317243  20.571  23.679   9.450
 4430POPC   PO417244  20.641  23.715   9.150
 4430POPC   GL117245  20.626  23.723   8.850
 4430POPC   GL217246  20.690  23.854   8.850
 4430POPC   C1A17247  20.565  23.679   8.550
 4430POPC   D2A17248  20.599  23.688   8.250
 4430POPC   C3A17249  20.620  23.735   7.950
 4430POPC   C4A17250  20.570  23.746   7.650
 4430POPC   C1B17251  20.772  23.940   8.550
 4430POPC   C2B17252  20.782  23.944   8.250
 4430POPC   C3B17253  20.729  23.898   7.950
 4430POPC   C4B17254  20.727  23.913   7.650
 4431POPC   NC317255  26.811   6.617   9.450
 4431POPC   PO417256  26.821   6.639   9.150
 4431POPC   GL117257  26.779   6.612   8.850
 4431POPC   GL217258  26.891   6.601   8.850
 4431POPC   C1A17259  26.824   6.689   8.550
 4431POPC   D2A17260  26.808   6.690   8.250
 4431POPC   C3A17261  26.812   6.659   7.950
 4431POPC   C4A17262  26.812   6.678   7.650
 4431POPC   C1B17263  27.034   6.459   8.550
 4431POPC   C2B17264  26.997   6.472   8.250
 4431POPC   C3B17265  27.046   6.484   7.950
 4431POPC   C4B17266  26.979   6.475   7.650
 4432POPC   NC317267  18.247   4.275   9.450
 4432POPC   PO417268  18.310   4.354   9.150
 4432POPC   GL117269  18.239   4.290   8.850
 4432POPC   GL217270  18.278   4.461   8.850
 4432POPC   C1A17271  18.301   4.322   8.550
 4432POPC   D2A17272  18.261   4.316   8.250
 4432POPC   C3A17273  18.311   4.328   7.950
 4432POPC   C4A17274  18.256   4.356   7.650
 4432POPC   C1B17275  18.259   4.519   8.550
 4432POPC   C2B17276  18.285   4.528   8.250
 4432POPC   C3B17277  18.209   4.613   7.950
 4432POPC   C4B17278  18.291   4.550   7.650
 4433POPC   NC317279  10.519  28.401   9.450
 4433POPC   PO417280  10.570  28.353   9.150
 4433POPC   GL117281  10.502  28.381   8.850
 4433POPC   GL217282  10.572  28.490   8.850
 4433POPC   C1A17283  10.485  28.394   8.550
 4433POPC   D2A17284  10.505  28.394   8.250
 4433POPC   C3A17285  10.504  28.380   7.950
 4433POPC   C4A17286  10.520  28.412   7.650
 4433POPC   C1B17287  10.707  28.626   8.550
 4433POPC   C2B17288  10.710  28.594   8.250
 4433POPC   C3B17289  10.662  28.565   7.950
 4433POPC   C4B17290  10.670  28.531   7.650
 4434POPC   NC317291  35.369  36.909   9.450
 4434POPC   PO417292  35.369  36.923   9.150
 4434POPC   GL117293  35.355  36.930   8.850
 4434POPC   GL217294  35.492  37.001   8.850
 4434POPC   C1A17295  35.362  36.939   8.550
 4434POPC   D2A17296  35.357  36.866   8.250
 4434POPC   C3A17297  35.316  36.920   7.950
 4434POPC   C4A17298  35.375  36.858   7.650
 4434POPC   C1B17299  35.600  36.993   8.550
 4434POPC   C2B17300  35.562  37.003   8.250
 4434POPC   C3B17301  35.578  37.008   7.950
 4434POPC   C4B17302  35.531  37.022   7.650
 4435POPC   NC317303   5.892  42.307   9.450
 4435POPC   PO417304   5.838  42.287   9.150
 4435POPC   GL117305   5.904  42.323   8.850
 4435POPC   GL217306   5.908  42.201   8.850
 4435POPC   C1A17307   5.869  42.382   8.550
 4435POPC   D2A17308   5.827  42.306   8.250
 4435POPC   C3A17309   5.858  42.290   7.950
 4435POPC   C4A17310   5.857  42.291   7.650
 4435POPC   C1B17311   5.935  42.135   8.550
 4435POPC   C2B17312   5.901  42.114   8.250
 4435POPC   C3B17313   5.967  42.047   7.950
 4435POPC   C4B17314   5.894  42.133   7.650
 4436POPC   NC317315  19.072  19.029   9.450
 4436POPC   PO417316  19.052  19.023   9.150
 4436POPC   GL117317  19.055  19.010   8.850
 4436POPC   GL217318  19.005  19.185   8.850
 4436POPC   C1A17319  19.063  19.106   8.550
 4436POPC   D2A17320  19.049  19.062   8.250
 4436POPC   C3A17321  19.100  19.078   7.950
 4436POPC   C4A17322  19.103  19.045   7.650
 4436POPC   C1B17323  18.922  19.215   8.550
 4436POPC   C2B17324  18.919  19.237   8.250
 4436POPC   C3B17325  18.915  19.217   7.950
 4436POPC   C4B17326  18.884  19.293   7.650
 4437POPC   NC317327  29.141  15.919   9.450
 4437POPC   PO417328  29.149  15.930   9.150
 4437POPC   GL117329  29.131  16.004   8.850
 4437POPC   GL217330  29.025  16.079   8.850
 4437POPC   C1A17331  29.095  15.926   8.550
 4437POPC   D2A17332  29.184  16.000   8.250
 4437POPC   C3A17333  29.182  15.927   7.950
 4437POPC   C4A17334  29.120  15.930   7.650
 4437POPC   C1B17335  29.017  16.175   8.550
 4437POPC   C2B17336  29.019  16.130   8.250
 4437POPC   C3B17337  28.947  16.126   7.950
 4437POPC   C4B17338  29.027  16.142   7.650
 4438POPC   NC317339   9.018   6.667   9.450
 4438POPC   PO417340   8.981   6.659   9.150
 4438POPC   GL117341   8.946   6.635   8.850
 4438POPC   GL217342   9.025   6.537   8.850
 4438POPC   C1A17343   8.972   6.666   8.550
 4438POPC   D2A17344   8.926   6.673   8.250
 4438POPC   C3A17345   8.988   6.637   7.950
 4438POPC   C4A17346   8.988   6.655   7.650
 4438POPC   C1B17347   9.116   6.468   8.550
 4438POPC   C2B17348   9.145   6.427   8.250
 4438POPC   C3B17349   9.109   6.456   7.950
 4438POPC   C4B17350   9.134   6.415   7.650
 4439POPC   NC317351  26.008   2.724   9.450
 4439POPC   PO417352  26.062   2.774   9.150
 4439POPC   GL117353  26.045   2.721   8.850
 4439POPC   GL217354  25.875   2.752   8.850
 4439POPC   C1A17355  26.044   2.792   8.550
 4439POPC   D2A17356  26.014   2.782   8.250
 4439POPC   C3A17357  26.084   2.758   7.950
 4439POPC   C4A17358  26.065   2.720   7.650
 4439POPC   C1B17359  25.751   2.836   8.550
 4439POPC   C2B17360  25.827   2.798   8.250
 4439POPC   C3B17361  25.757   2.847   7.950
 4439POPC   C4B17362  25.775   2.846   7.650
 4440POPC   NC317363   6.664  40.003   9.450
 4440POPC   PO417364   6.624  39.995   9.150
 4440POPC   GL117365   6.680  39.996   8.850
 4440POPC   GL217366   6.637  39.908   8.850
 4440POPC   C1A17367   6.676  40.002   8.550
 4440POPC   D2A17368   6.689  40.022   8.250
 4440POPC   C3A17369   6.654  39.975   7.950
 4440POPC   C4A17370   6.648  40.031   7.650
 4440POPC   C1B17371   6.645  39.710   8.550
 4440POPC   C2B17372   6.669  39.781   8.250
 4440POPC   C3B17373   6.687  39.774   7.950
 4440POPC   C4B17374   6.693  39.719   7.650
 4441POPC   NC317375  40.786  13.606   9.450
 4441POPC   PO417376  40.749  13.624   9.150
 4441POPC   GL117377  40.819  13.587   8.850
 4441POPC   GL217378  40.682  13.677   8.850
 4441POPC   C1A17379  40.821  13.651   8.550
 4441POPC   D2A17380  40.778  13.628   8.250
 4441POPC   C3A17381  40.792  13.628   7.950
 4441POPC   C4A17382  40.747  13.673   7.650
 4441POPC   C1B17383  40.563  13.731   8.550
 4441POPC   C2B17384  40.572  13.696   8.250
 4441POPC   C3B17385  40.545  13.751   7.950
 4441POPC   C4B17386  40.602  13.771   7.650
 4442POPC   NC317387  23.693  22.189   9.450
 4442POPC   PO417388  23.756  22.207   9.150
 4442POPC   GL117389  23.750  22.153   8.850
 4442POPC   GL217390  23.712  22.040   8.850
 4442POPC   C1A17391  23.727  22.191   8.550
 4442POPC   D2A17392  23.757  22.177   8.250
 4442POPC   C3A17393  23.707  22.125   7.950
 4442POPC   C4A17394  23.670  22.162   7.650
 4442POPC   C1B17395  23.727  21.926   8.550
 4442POPC   C2B17396  23.747  21.935   8.250
 4442POPC   C3B17397  23.734  21.917   7.950
 4442POPC   C4B17398  23.757  21.944   7.650
 4443POPC   NC317399  26.007  20.575   9.450
 4443POPC   PO417400  26.053  20.573   9.150
 4443POPC   GL117401  26.042  20.641   8.850
 4443POPC   GL217402  25.999  20.498   8.850
 4443POPC   C1A17403  26.017  20.654   8.550
 4443POPC   D2A17404  25.994  20.578   8.250
 4443POPC   C3A17405  26.037  20.590   7.950
 4443POPC   C4A17406  26.010  20.649   7.650
 4443POPC   C1B17407  26.042  20.322   8.550
 4443POPC   C2B17408  26.025  20.324   8.250
 4443POPC   C3B17409  26.034  20.343   7.950
 4443POPC   C4B17410  26.006  20.349   7.650
 4444POPC   NC317411  26.852  31.502   9.450
 4444POPC   PO417412  26.819  31.454   9.150
 4444POPC   GL117413  26.828  31.498   8.850
 4444POPC   GL217414  26.925  31.326   8.850
 4444POPC   C1A17415  26.863  31.469   8.550
 4444POPC   D2A17416  26.809  31.450   8.250
 4444POPC   C3A17417  26.768  31.514   7.950
 4444POPC   C4A17418  26.768  31.474   7.650
 4444POPC   C1B17419  27.017  31.258   8.550
 4444POPC   C2B17420  26.957  31.238   8.250
 4444POPC   C3B17421  26.981  31.304   7.950
 4444POPC   C4B17422  26.980  31.286   7.650
 4445POPC   NC317423  20.655   3.573   9.450
 4445POPC   PO417424  20.586   3.510   9.150
 4445POPC   GL117425  20.612   3.507   8.850
 4445POPC   GL217426  20.682   3.659   8.850
 4445POPC   C1A17427  20.660   3.581   8.550
 4445POPC   D2A17428  20.584   3.515   8.250
 4445POPC   C3A17429  20.650   3.507   7.950
 4445POPC   C4A17430  20.649   3.532   7.650
 4445POPC   C1B17431  20.643   3.778   8.550
 4445POPC   C2B17432  20.683   3.772   8.250
 4445POPC   C3B17433  20.707   3.816   7.950
 4445POPC   C4B17434  20.686   3.757   7.650
 4446POPC   NC317435  29.109  43.127   9.450
 4446POPC   PO417436  29.192  43.148   9.150
 4446POPC   GL117437  29.146  43.117   8.850
 4446POPC   GL217438  29.039  43.202   8.850
 4446POPC   C1A17439  29.113  43.111   8.550
 4446POPC   D2A17440  29.124  43.156   8.250
 4446POPC   C3A17441  29.154  43.126   7.950
 4446POPC   C4A17442  29.107  43.069   7.650
 4446POPC   C1B17443  28.936  43.232   8.550
 4446POPC   C2B17444  28.880  43.221   8.250
 4446POPC   C3B17445  28.956  43.157   7.950
 4446POPC   C4B17446  28.881  43.245   7.650
 4447POPC   NC317447   8.985  10.507   9.450
 4447POPC   PO417448   8.960  10.564   9.150
 4447POPC   GL117449   9.014  10.520   8.850
 4447POPC   GL217450   8.859  10.587   8.850
 4447POPC   C1A17451   9.000  10.536   8.550
 4447POPC   D2A17452   8.989  10.571   8.250
 4447POPC   C3A17453   8.958  10.495   7.950
 4447POPC   C4A17454   9.009  10.511   7.650
 4447POPC   C1B17455   8.796  10.653   8.550
 4447POPC   C2B17456   8.765  10.592   8.250
 4447POPC   C3B17457   8.725  10.580   7.950
 4447POPC   C4B17458   8.766  10.639   7.650
 4448POPC   NC317459   7.388  12.881   9.450
 4448POPC   PO417460   7.427  12.856   9.150
 4448POPC   GL117461   7.378  12.804   8.850
 4448POPC   GL217462   7.408  13.021   8.850
 4448POPC   C1A17463   7.437  12.832   8.550
 4448POPC   D2A17464   7.382  12.855   8.250
 4448POPC   C3A17465   7.444  12.835   7.950
 4448POPC   C4A17466   7.417  12.878   7.650
 4448POPC   C1B17467   7.448  13.072   8.550
 4448POPC   C2B17468   7.474  13.060   8.250
 4448POPC   C3B17469   7.424  13.148   7.950
 4448POPC   C4B17470   7.444  13.110   7.650
 4449POPC   NC317471   9.709  29.950   9.450
 4449POPC   PO417472   9.796  29.900   9.150
 4449POPC   GL117473   9.714  29.902   8.850
 4449POPC   GL217474   9.636  29.932   8.850
 4449POPC   C1A17475   9.742  29.884   8.550
 4449POPC   D2A17476   9.728  29.905   8.250
 4449POPC   C3A17477   9.794  29.929   7.950
 4449POPC   C4A17478   9.719  29.888   7.650
 4449POPC   C1B17479   9.478  29.864   8.550
 4449POPC   C2B17480   9.532  29.882   8.250
 4449POPC   C3B17481   9.450  29.937   7.950
 4449POPC   C4B17482   9.476  29.936   7.650
 4450POPC   NC317483  27.566   9.747   9.450
 4450POPC   PO417484  27.589   9.745   9.150
 4450POPC   GL117485  27.546   9.759   8.850
 4450POPC   GL217486  27.677   9.774   8.850
 4450POPC   C1A17487  27.604   9.720   8.550
 4450POPC   D2A17488  27.613   9.778   8.250
 4450POPC   C3A17489  27.620   9.769   7.950
 4450POPC   C4A17490  27.575   9.712   7.650
 4450POPC   C1B17491  27.776   9.896   8.550
 4450POPC   C2B17492  27.777   9.914   8.250
 4450POPC   C3B17493  27.753   9.835   7.950
 4450POPC   C4B17494  27.789   9.861   7.650
 4451POPC   NC317495   4.357  36.878   9.450
 4451POPC   PO417496   4.327  36.903   9.150
 4451POPC   GL117497   4.287  36.892   8.850
 4451POPC   GL217498   4.445  37.020   8.850
 4451POPC   C1A17499   4.286  36.865   8.550
 4451POPC   D2A17500   4.271  36.949   8.250
 4451POPC   C3A17501   4.365  36.926   7.950
 4451POPC   C4A17502   4.359  36.911   7.650
 4451POPC   C1B17503   4.540  37.067   8.550
 4451POPC   C2B17504   4.519  37.071   8.250
 4451POPC   C3B17505   4.463  37.098   7.950
 4451POPC   C4B17506   4.466  37.029   7.650
 4452POPC   NC317507  19.801  21.405   9.450
 4452POPC   PO417508  19.852  21.411   9.150
 4452POPC   GL117509  19.845  21.377   8.850
 4452POPC   GL217510  19.914  21.532   8.850
 4452POPC   C1A17511  19.799  21.378   8.550
 4452POPC   D2A17512  19.816  21.401   8.250
 4452POPC   C3A17513  19.795  21.387   7.950
 4452POPC   C4A17514  19.840  21.388   7.650
 4452POPC   C1B17515  20.034  21.543   8.550
 4452POPC   C2B17516  19.945  21.617   8.250
 4452POPC   C3B17517  19.992  21.535   7.950
 4452POPC   C4B17518  19.968  21.614   7.650
 4453POPC   NC317519  28.418  36.137   9.450
 4453POPC   PO417520  28.379  36.102   9.150
 4453POPC   GL117521  28.410  36.134   8.850
 4453POPC   GL217522  28.391  36.216   8.850
 4453POPC   C1A17523  28.319  36.132   8.550
 4453POPC   D2A17524  28.410  36.127   8.250
 4453POPC   C3A17525  28.410  36.083   7.950
 4453POPC   C4A17526  28.418  36.161   7.650
 4453POPC   C1B17527  28.387  36.408   8.550
 4453POPC   C2B17528  28.344  36.394   8.250
 4453POPC   C3B17529  28.363  36.343   7.950
 4453POPC   C4B17530  28.379  36.331   7.650
 4454POPC   NC317531  29.949  20.613   9.450
 4454POPC   PO417532  29.953  20.591   9.150
 4454POPC   GL117533  29.964  20.605   8.850
 4454POPC   GL217534  29.984  20.710   8.850
 4454POPC   C1A17535  29.882  20.625   8.550
 4454POPC   D2A17536  29.915  20.583   8.250
 4454POPC   C3A17537  29.873  20.640   7.950
 4454POPC   C4A17538  29.917  20.647   7.650
 4454POPC   C1B17539  30.149  20.678   8.550
 4454POPC   C2B17540  30.105  20.676   8.250
 4454POPC   C3B17541  30.180  20.704   7.950
 4454POPC   C4B17542  30.164  20.727   7.650
 4455POPC   NC317543  31.476  30.697   9.450
 4455POPC   PO417544  31.431  30.656   9.150
 4455POPC   GL117545  31.457  30.743   8.850
 4455POPC   GL217546  31.501  30.591   8.850
 4455POPC   C1A17547  31.437  30.692   8.550
 4455POPC   D2A17548  31.477  30.695   8.250
 4455POPC   C3A17549  31.431  30.648   7.950
 4455POPC   C4A17550  31.428  30.720   7.650
 4455POPC   C1B17551  31.568  30.420   8.550
 4455POPC   C2B17552  31.527  30.434   8.250
 4455POPC   C3B17553  31.541  30.415   7.950
 4455POPC   C4B17554  31.540  30.451   7.650
 4456POPC   NC317555  11.322  32.225   9.450
 4456POPC   PO417556  11.328  32.210   9.150
 4456POPC   GL117557  11.343  32.225   8.850
 4456POPC   GL217558  11.194  32.383   8.850
 4456POPC   C1A17559  11.293  32.277   8.550
 4456POPC   D2A17560  11.317  32.225   8.250
 4456POPC   C3A17561  11.349  32.202   7.950
 4456POPC   C4A17562  11.285  32.247   7.650
 4456POPC   C1B17563  11.145  32.396   8.550
 4456POPC   C2B17564  11.179  32.396   8.250
 4456POPC   C3B17565  11.084  32.410   7.950
 4456POPC   C4B17566  11.115  32.447   7.650
 4457POPC   NC317567  16.756  36.903   9.450
 4457POPC   PO417568  16.697  36.923   9.150
 4457POPC   GL117569  16.692  36.873   8.850
 4457POPC   GL217570  16.755  36.761   8.850
 4457POPC   C1A17571  16.774  36.934   8.550
 4457POPC   D2A17572  16.710  36.935   8.250
 4457POPC   C3A17573  16.737  36.895   7.950
 4457POPC   C4A17574  16.775  36.890   7.650
 4457POPC   C1B17575  16.830  36.692   8.550
 4457POPC   C2B17576  16.809  36.667   8.250
 4457POPC   C3B17577  16.867  36.654   7.950
 4457POPC   C4B17578  16.898  36.667   7.650
 4458POPC   NC317579  36.862   5.113   9.450
 4458POPC   PO417580  36.854   5.137   9.150
 4458POPC   GL117581  36.882   5.065   8.850
 4458POPC   GL217582  36.846   5.146   8.850
 4458POPC   C1A17583  36.867   5.112   8.550
 4458POPC   D2A17584  36.897   5.142   8.250
 4458POPC   C3A17585  36.877   5.070   7.950
 4458POPC   C4A17586  36.857   5.138   7.650
 4458POPC   C1B17587  36.747   5.286   8.550
 4458POPC   C2B17588  36.740   5.267   8.250
 4458POPC   C3B17589  36.713   5.242   7.950
 4458POPC   C4B17590  36.731   5.221   7.650
 4459POPC   NC317591   8.226   3.527   9.450
 4459POPC   PO417592   8.238   3.571   9.150
 4459POPC   GL117593   8.228   3.549   8.850
 4459POPC   GL217594   8.170   3.418   8.850
 4459POPC   C1A17595   8.153   3.534   8.550
 4459POPC   D2A17596   8.214   3.590   8.250
 4459POPC   C3A17597   8.168   3.545   7.950
 4459POPC   C4A17598   8.182   3.591   7.650
 4459POPC   C1B17599   8.117   3.290   8.550
 4459POPC   C2B17600   8.048   3.364   8.250
 4459POPC   C3B17601   8.096   3.336   7.950
 4459POPC   C4B17602   8.111   3.297   7.650
 4460POPC   NC317603   9.019  39.246   9.450
 4460POPC   PO417604   9.014  39.272   9.150
 4460POPC   GL117605   9.001  39.280   8.850
 4460POPC   GL217606   8.844  39.132   8.850
 4460POPC   C1A17607   8.964  39.185   8.550
 4460POPC   D2A17608   8.933  39.266   8.250
 4460POPC   C3A17609   8.973  39.267   7.950
 4460POPC   C4A17610   8.974  39.203   7.650
 4460POPC   C1B17611   8.786  39.056   8.550
 4460POPC   C2B17612   8.706  39.107   8.250
 4460POPC   C3B17613   8.764  39.060   7.950
 4460POPC   C4B17614   8.757  39.094   7.650
 4461POPC   NC317615  31.451   5.084   9.450
 4461POPC   PO417616  31.458   5.121   9.150
 4461POPC   GL117617  31.508   5.047   8.850
 4461POPC   GL217618  31.384   5.090   8.850
 4461POPC   C1A17619  31.479   5.078   8.550
 4461POPC   D2A17620  31.474   5.077   8.250
 4461POPC   C3A17621  31.517   5.087   7.950
 4461POPC   C4A17622  31.501   5.139   7.650
 4461POPC   C1B17623  31.221   5.164   8.550
 4461POPC   C2B17624  31.207   5.218   8.250
 4461POPC   C3B17625  31.250   5.194   7.950
 4461POPC   C4B17626  31.256   5.163   7.650
 4462POPC   NC317627  17.470   2.774   9.450
 4462POPC   PO417628  17.458   2.788   9.150
 4462POPC   GL117629  17.551   2.724   8.850
 4462POPC   GL217630  17.416   2.648   8.850
 4462POPC   C1A17631  17.535   2.762   8.550
 4462POPC   D2A17632  17.504   2.745   8.250
 4462POPC   C3A17633  17.529   2.726   7.950
 4462POPC   C4A17634  17.487   2.739   7.650
 4462POPC   C1B17635  17.368   2.623   8.550
 4462POPC   C2B17636  17.349   2.599   8.250
 4462POPC   C3B17637  17.366   2.551   7.950
 4462POPC   C4B17638  17.354   2.579   7.650
 4463POPC   NC317639  35.375  29.096   9.450
 4463POPC   PO417640  35.338  29.163   9.150
 4463POPC   GL117641  35.353  29.142   8.850
 4463POPC   GL217642  35.379  29.259   8.850
 4463POPC   C1A17643  35.398  29.097   8.550
 4463POPC   D2A17644  35.332  29.166   8.250
 4463POPC   C3A17645  35.356  29.100   7.950
 4463POPC   C4A17646  35.331  29.105   7.650
 4463POPC   C1B17647  35.410  29.417   8.550
 4463POPC   C2B17648  35.424  29.337   8.250
 4463POPC   C3B17649  35.478  29.383   7.950
 4463POPC   C4B17650  35.499  29.383   7.650
 4464POPC   NC317651   5.902  33.760   9.450
 4464POPC   PO417652   5.877  33.845   9.150
 4464POPC   GL117653   5.885  33.795   8.850
 4464POPC   GL217654   5.968  33.799   8.850
 4464POPC   C1A17655   5.826  33.752   8.550
 4464POPC   D2A17656   5.864  33.780   8.250
 4464POPC   C3A17657   5.853  33.793   7.950
 4464POPC   C4A17658   5.867  33.796   7.650
 4464POPC   C1B17659   6.152  33.823   8.550
 4464POPC   C2B17660   6.116  33.844   8.250
 4464POPC   C3B17661   6.123  33.860   7.950
 4464POPC   C4B17662   6.099  33.866   7.650
 4465POPC   NC317663  18.246   5.853   9.450
 4465POPC   PO417664  18.278   5.827   9.150
 4465POPC   GL117665  18.235   5.843   8.850
 4465POPC   GL217666  18.302   5.732   8.850
 4465POPC   C1A17667  18.332   5.862   8.550
 4465POPC   D2A17668  18.270   5.844   8.250
 4465POPC   C3A17669  18.313   5.890   7.950
 4465POPC   C4A17670  18.329   5.842   7.650
 4465POPC   C1B17671  18.371   5.630   8.550
 4465POPC   C2B17672  18.418   5.680   8.250
 4465POPC   C3B17673  18.432   5.611   7.950
 4465POPC   C4B17674  18.413   5.647   7.650
 4466POPC   NC317675   4.327  35.321   9.450
 4466POPC   PO417676   4.299  35.398   9.150
 4466POPC   GL117677   4.340  35.327   8.850
 4466POPC   GL217678   4.233  35.476   8.850
 4466POPC   C1A17679   4.300  35.394   8.550
 4466POPC   D2A17680   4.282  35.355   8.250
 4466POPC   C3A17681   4.345  35.353   7.950
 4466POPC   C4A17682   4.300  35.372   7.650
 4466POPC   C1B17683   4.075  35.505   8.550
 4466POPC   C2B17684   4.151  35.529   8.250
 4466POPC   C3B17685   4.161  35.552   7.950
 4466POPC   C4B17686   4.100  35.532   7.650
 4467POPC   NC317687   6.652  20.654   9.450
 4467POPC   PO417688   6.632  20.596   9.150
 4467POPC   GL117689   6.687  20.588   8.850
 4467POPC   GL217690   6.707  20.704   8.850
 4467POPC   C1A17691   6.671  20.631   8.550
 4467POPC   D2A17692   6.628  20.636   8.250
 4467POPC   C3A17693   6.674  20.629   7.950
 4467POPC   C4A17694   6.645  20.658   7.650
 4467POPC   C1B17695   6.641  20.848   8.550
 4467POPC   C2B17696   6.648  20.906   8.250
 4467POPC   C3B17697   6.670  20.857   7.950
 4467POPC   C4B17698   6.694  20.901   7.650
 4468POPC   NC317699  37.703  18.324   9.450
 4468POPC   PO417700  37.672  18.275   9.150
 4468POPC   GL117701  37.696  18.275   8.850
 4468POPC   GL217702  37.755  18.176   8.850
 4468POPC   C1A17703  37.717  18.279   8.550
 4468POPC   D2A17704  37.682  18.259   8.250
 4468POPC   C3A17705  37.712  18.247   7.950
 4468POPC   C4A17706  37.702  18.322   7.650
 4468POPC   C1B17707  37.911  18.138   8.550
 4468POPC   C2B17708  37.874  18.089   8.250
 4468POPC   C3B17709  37.900  18.067   7.950
 4468POPC   C4B17710  37.906  18.150   7.650
 4469POPC   NC317711  25.311  26.772   9.450
 4469POPC   PO417712  25.286  26.834   9.150
 4469POPC   GL117713  25.221  26.793   8.850
 4469POPC   GL217714  25.178  26.882   8.850
 4469POPC   C1A17715  25.242  26.791   8.550
 4469POPC   D2A17716  25.291  26.863   8.250
 4469POPC   C3A17717  25.312  26.775   7.950
 4469POPC   C4A17718  25.295  26.819   7.650
 4469POPC   C1B17719  25.104  26.945   8.550
 4469POPC   C2B17720  25.044  26.961   8.250
 4469POPC   C3B17721  25.096  27.033   7.950
 4469POPC   C4B17722  25.127  26.981   7.650
 4470POPC   NC317723  33.818  25.232   9.450
 4470POPC   PO417724  33.761  25.297   9.150
 4470POPC   GL117725  33.790  25.280   8.850
 4470POPC   GL217726  33.836  25.394   8.850
 4470POPC   C1A17727  33.768  25.275   8.550
 4470POPC   D2A17728  33.797  25.258   8.250
 4470POPC   C3A17729  33.823  25.242   7.950
 4470POPC   C4A17730  33.809  25.221   7.650
 4470POPC   C1B17731  33.911  25.470   8.550
 4470POPC   C2B17732  33.900  25.484   8.250
 4470POPC   C3B17733  33.885  25.497   7.950
 4470POPC   C4B17734  33.920  25.516   7.650
 4471POPC   NC317735  42.300  22.122   9.450
 4471POPC   PO417736  42.301  22.208   9.150
 4471POPC   GL117737  42.324  22.176   8.850
 4471POPC   GL217738  42.442  22.133   8.850
 4471POPC   C1A17739  42.312  22.210   8.550
 4471POPC   D2A17740  42.350  22.187   8.250
 4471POPC   C3A17741  42.309  22.114   7.950
 4471POPC   C4A17742  42.342  22.113   7.650
 4471POPC   C1B17743  42.572  22.168   8.550
 4471POPC   C2B17744  42.619  22.203   8.250
 4471POPC   C3B17745  42.600  22.170   7.950
 4471POPC   C4B17746  42.536  22.236   7.650
 4472POPC   NC317747  18.239  36.137   9.450
 4472POPC   PO417748  18.296  36.083   9.150
 4472POPC   GL117749  18.239  36.078   8.850
 4472POPC   GL217750  18.212  36.020   8.850
 4472POPC   C1A17751  18.240  36.081   8.550
 4472POPC   D2A17752  18.262  36.084   8.250
 4472POPC   C3A17753  18.324  36.173   7.950
 4472POPC   C4A17754  18.261  36.170   7.650
 4472POPC   C1B17755  18.189  35.952   8.550
 4472POPC   C2B17756  18.133  35.891   8.250
 4472POPC   C3B17757  18.117  35.965   7.950
 4472POPC   C4B17758  18.158  35.947   7.650
 4473POPC   NC317759  43.097  22.139   9.450
 4473POPC   PO417760  43.087  22.115   9.150
 4473POPC   GL117761  43.103  22.179   8.850
 4473POPC   GL217762  43.185  22.303   8.850
 4473POPC   C1A17763  43.122  22.116   8.550
 4473POPC   D2A17764  43.117  22.172   8.250
 4473POPC   C3A17765  43.111  22.184   7.950
 4473POPC   C4A17766  43.142  22.117   7.650
 4473POPC   C1B17767  43.214  22.363   8.550
 4473POPC   C2B17768  43.261  22.417   8.250
 4473POPC   C3B17769  43.243  22.351   7.950
 4473POPC   C4B17770  43.189  22.363   7.650
 4474POPC   NC317771  35.371  22.964   9.450
 4474POPC   PO417772  35.354  22.976   9.150
 4474POPC   GL117773  35.303  22.930   8.850
 4474POPC   GL217774  35.298  22.785   8.850
 4474POPC   C1A17775  35.318  22.956   8.550
 4474POPC   D2A17776  35.319  22.973   8.250
 4474POPC   C3A17777  35.345  22.909   7.950
 4474POPC   C4A17778  35.387  22.968   7.650
 4474POPC   C1B17779  35.256  22.669   8.550
 4474POPC   C2B17780  35.285  22.673   8.250
 4474POPC   C3B17781  35.227  22.757   7.950
 4474POPC   C4B17782  35.278  22.749   7.650
 4475POPC   NC317783  44.647  22.952   9.450
 4475POPC   PO417784  44.670  22.891   9.150
 4475POPC   GL117785  44.709  22.945   8.850
 4475POPC   GL217786  44.663  22.863   8.850
 4475POPC   C1A17787  44.622  22.888   8.550
 4475POPC   D2A17788  44.686  22.918   8.250
 4475POPC   C3A17789  44.711  22.978   7.950
 4475POPC   C4A17790  44.708  22.911   7.650
 4475POPC   C1B17791  44.570  22.693   8.550
 4475POPC   C2B17792  44.646  22.726   8.250
 4475POPC   C3B17793  44.594  22.663   7.950
 4475POPC   C4B17794  44.654  22.656   7.650
 4476POPC   NC317795   0.448  10.489   9.450
 4476POPC   PO417796   0.475  10.524   9.150
 4476POPC   GL117797   0.467  10.560   8.850
 4476POPC   GL217798   0.349  10.470   8.850
 4476POPC   C1A17799   0.412  10.560   8.550
 4476POPC   D2A17800   0.446  10.482   8.250
 4476POPC   C3A17801   0.466  10.568   7.950
 4476POPC   C4A17802   0.467  10.498   7.650
 4476POPC   C1B17803   0.150  10.503   8.550
 4476POPC   C2B17804   0.221  10.484   8.250
 4476POPC   C3B17805   0.149  10.458   7.950
 4476POPC   C4B17806   0.227  10.528   7.650
 4477POPC   NC317807  41.607  15.935   9.450
 4477POPC   PO417808  41.524  15.936   9.150
 4477POPC   GL117809  41.565  15.927   8.850
 4477POPC   GL217810  41.416  15.988   8.850
 4477POPC   C1A17811  41.533  15.923   8.550
 4477POPC   D2A17812  41.590  15.917   8.250
 4477POPC   C3A17813  41.535  15.911   7.950
 4477POPC   C4A17814  41.552  15.915   7.650
 4477POPC   C1B17815  41.385  16.122   8.550
 4477POPC   C2B17816  41.333  16.073   8.250
 4477POPC   C3B17817  41.299  16.036   7.950
 4477POPC   C4B17818  41.297  16.046   7.650
 4478POPC   NC317819   8.993  43.090   9.450
 4478POPC   PO417820   8.984  43.082   9.150
 4478POPC   GL117821   8.940  43.102   8.850
 4478POPC   GL217822   9.101  43.154   8.850
 4478POPC   C1A17823   9.018  43.061   8.550
 4478POPC   D2A17824   8.998  43.082   8.250
 4478POPC   C3A17825   8.986  43.142   7.950
 4478POPC   C4A17826   8.936  43.137   7.650
 4478POPC   C1B17827   9.204  43.266   8.550
 4478POPC   C2B17828   9.235  43.262   8.250
 4478POPC   C3B17829   9.234  43.201   7.950
 4478POPC   C4B17830   9.185  43.251   7.650
 4479POPC   NC317831  19.812  29.112   9.450
 4479POPC   PO417832  19.870  29.190   9.150
 4479POPC   GL117833  19.856  29.169   8.850
 4479POPC   GL217834  19.776  29.019   8.850
 4479POPC   C1A17835  19.827  29.155   8.550
 4479POPC   D2A17836  19.883  29.156   8.250
 4479POPC   C3A17837  19.884  29.185   7.950
 4479POPC   C4A17838  19.863  29.115   7.650
 4479POPC   C1B17839  19.706  28.898   8.550
 4479POPC   C2B17840  19.671  28.962   8.250
 4479POPC   C3B17841  19.660  28.941   7.950
 4479POPC   C4B17842  19.672  28.967   7.650
 4480POPC   NC317843  15.148  22.909   9.450
 4480POPC   PO417844  15.196  22.920   9.150
 4480POPC   GL117845  15.169  22.940   8.850
 4480POPC   GL217846  15.294  22.968   8.850
 4480POPC   C1A17847  15.203  22.936   8.550
 4480POPC   D2A17848  15.186  22.906   8.250
 4480POPC   C3A17849  15.198  22.949   7.950
 4480POPC   C4A17850  15.158  22.891   7.650
 4480POPC   C1B17851  15.452  23.030   8.550
 4480POPC   C2B17852  15.371  22.964   8.250
 4480POPC   C3B17853  15.406  22.969   7.950
 4480POPC   C4B17854  15.380  23.017   7.650
 4481POPC   NC317855   2.807  31.473   9.450
 4481POPC   PO417856   2.802  31.512   9.150
 4481POPC   GL117857   2.770  31.491   8.850
 4481POPC   GL217858   2.930  31.472   8.850
 4481POPC   C1A17859   2.727  31.463   8.550
 4481POPC   D2A17860   2.777  31.455   8.250
 4481POPC   C3A17861   2.785  31.443   7.950
 4481POPC   C4A17862   2.749  31.466   7.650
 4481POPC   C1B17863   2.999  31.592   8.550
 4481POPC   C2B17864   2.982  31.571   8.250
 4481POPC   C3B17865   3.026  31.516   7.950
 4481POPC   C4B17866   2.976  31.558   7.650
 4482POPC   NC317867   4.274  24.474   9.450
 4482POPC   PO417868   4.330  24.519   9.150
 4482POPC   GL117869   4.354  24.509   8.850
 4482POPC   GL217870   4.306  24.570   8.850
 4482POPC   C1A17871   4.318  24.534   8.550
 4482POPC   D2A17872   4.298  24.471   8.250
 4482POPC   C3A17873   4.327  24.454   7.950
 4482POPC   C4A17874   4.328  24.449   7.650
 4482POPC   C1B17875   4.348  24.729   8.550
 4482POPC   C2B17876   4.341  24.781   8.250
 4482POPC   C3B17877   4.324  24.726   7.950
 4482POPC   C4B17878   4.389  24.757   7.650
 4483POPC   NC317879   0.414  36.136   9.450
 4483POPC   PO417880   0.455  36.137   9.150
 4483POPC   GL117881   0.398  36.165   8.850
 4483POPC   GL217882   0.352  36.178   8.850
 4483POPC   C1A17883   0.414  36.159   8.550
 4483POPC   D2A17884   0.467  36.105   8.250
 4483POPC   C3A17885   0.470  36.100   7.950
 4483POPC   C4A17886   0.485  36.095   7.650
 4483POPC   C1B17887   0.200  36.159   8.550
 4483POPC   C2B17888   0.188  36.214   8.250
 4483POPC   C3B17889   0.228  36.150   7.950
 4483POPC   C4B17890   0.230  36.199   7.650
 4484POPC   NC317891  31.473  21.379   9.450
 4484POPC   PO417892  31.520  21.346   9.150
 4484POPC   GL117893  31.470  21.385   8.850
 4484POPC   GL217894  31.485  21.475   8.850
 4484POPC   C1A17895  31.512  21.410   8.550
 4484POPC   D2A17896  31.520  21.383   8.250
 4484POPC   C3A17897  31.496  21.435   7.950
 4484POPC   C4A17898  31.522  21.390   7.650
 4484POPC   C1B17899  31.561  21.620   8.550
 4484POPC   C2B17900  31.467  21.645   8.250
 4484POPC   C3B17901  31.480  21.658   7.950
 4484POPC   C4B17902  31.497  21.662   7.650
 4485POPC   NC317903   1.238  29.878   9.450
 4485POPC   PO417904   1.210  29.920   9.150
 4485POPC   GL117905   1.177  29.884   8.850
 4485POPC   GL217906   1.293  29.958   8.850
 4485POPC   C1A17907   1.255  29.922   8.550
 4485POPC   D2A17908   1.175  29.884   8.250
 4485POPC   C3A17909   1.205  29.910   7.950
 4485POPC   C4A17910   1.199  29.932   7.650
 4485POPC   C1B17911   1.402  30.040   8.550
 4485POPC   C2B17912   1.368  30.125   8.250
 4485POPC   C3B17913   1.409  30.059   7.950
 4485POPC   C4B17914   1.420  30.061   7.650
 4486POPC   NC317915  35.402   1.945   9.450
 4486POPC   PO417916  35.372   2.028   9.150
 4486POPC   GL117917  35.370   2.037   8.850
 4486POPC   GL217918  35.320   1.865   8.850
 4486POPC   C1A17919  35.346   1.968   8.550
 4486POPC   D2A17920  35.348   1.941   8.250
 4486POPC   C3A17921  35.376   2.028   7.950
 4486POPC   C4A17922  35.349   2.024   7.650
 4486POPC   C1B17923  35.280   1.799   8.550
 4486POPC   C2B17924  35.302   1.773   8.250
 4486POPC   C3B17925  35.301   1.714   7.950
 4486POPC   C4B17926  35.252   1.802   7.650
 4487POPC   NC317927  21.425  40.762   9.450
 4487POPC   PO417928  21.436  40.804   9.150
 4487POPC   GL117929  21.351  40.828   8.850
 4487POPC   GL217930  21.468  40.778   8.850
 4487POPC   C1A17931  21.433  40.812   8.550
 4487POPC   D2A17932  21.358  40.743   8.250
 4487POPC   C3A17933  21.422  40.821   7.950
 4487POPC   C4A17934  21.374  40.747   7.650
 4487POPC   C1B17935  21.670  40.804   8.550
 4487POPC   C2B17936  21.590  40.795   8.250
 4487POPC   C3B17937  21.598  40.782   7.950
 4487POPC   C4B17938  21.666  40.831   7.650
 4488POPC   NC317939  19.845   0.447   9.450
 4488POPC   PO417940  19.839   0.394   9.150
 4488POPC   GL117941  19.822   0.410   8.850
 4488POPC   GL217942  19.933   0.369   8.850
 4488POPC   C1A17943  19.880   0.420   8.550
 4488POPC   D2A17944  19.801   0.468   8.250
 4488POPC   C3A17945  19.880   0.419   7.950
 4488POPC   C4A17946  19.873   0.417   7.650
 4488POPC   C1B17947  20.065   0.347   8.550
 4488POPC   C2B17948  20.077   0.352   8.250
 4488POPC   C3B17949  20.054   0.355   7.950
 4488POPC   C4B17950  20.004   0.299   7.650
 4489POPC   NC317951  13.587  32.218   9.450
 4489POPC   PO417952  13.633  32.253   9.150
 4489POPC   GL117953  13.657  32.269   8.850
 4489POPC   GL217954  13.656  32.323   8.850
 4489POPC   C1A17955  13.602  32.225   8.550
 4489POPC   D2A17956  13.673  32.262   8.250
 4489POPC   C3A17957  13.667  32.200   7.950
 4489POPC   C4A17958  13.601  32.286   7.650
 4489POPC   C1B17959  13.742  32.518   8.550
 4489POPC   C2B17960  13.702  32.450   8.250
 4489POPC   C3B17961  13.767  32.484   7.950
 4489POPC   C4B17962  13.722  32.430   7.650
 4490POPC   NC317963  29.097   4.295   9.450
 4490POPC   PO417964  29.105   4.285   9.150
 4490POPC   GL117965  29.118   4.326   8.850
 4490POPC   GL217966  29.241   4.448   8.850
 4490POPC   C1A17967  29.165   4.362   8.550
 4490POPC   D2A17968  29.109   4.268   8.250
 4490POPC   C3A17969  29.157   4.316   7.950
 4490POPC   C4A17970  29.114   4.271   7.650
 4490POPC   C1B17971  29.339   4.472   8.550
 4490POPC   C2B17972  29.342   4.537   8.250
 4490POPC   C3B17973  29.347   4.521   7.950
 4490POPC   C4B17974  29.329   4.470   7.650
 4491POPC   NC317975  20.609  33.792   9.450
 4491POPC   PO417976  20.620  33.822   9.150
 4491POPC   GL117977  20.649  33.766   8.850
 4491POPC   GL217978  20.699  33.935   8.850
 4491POPC   C1A17979  20.642  33.766   8.550
 4491POPC   D2A17980  20.610  33.771   8.250
 4491POPC   C3A17981  20.631  33.811   7.950
 4491POPC   C4A17982  20.564  33.785   7.650
 4491POPC   C1B17983  20.729  34.018   8.550
 4491POPC   C2B17984  20.750  33.943   8.250
 4491POPC   C3B17985  20.783  34.039   7.950
 4491POPC   C4B17986  20.756  34.021   7.650
 4492POPC   NC317987  16.721   9.009   9.450
 4492POPC   PO417988  16.730   8.982   9.150
 4492POPC   GL117989  16.700   9.007   8.850
 4492POPC   GL217990  16.862   8.888   8.850
 4492POPC   C1A17991  16.693   8.985   8.550
 4492POPC   D2A17992  16.736   8.932   8.250
 4492POPC   C3A17993  16.715   8.949   7.950
 4492POPC   C4A17994  16.778   8.932   7.650
 4492POPC   C1B17995  16.897   8.748   8.550
 4492POPC   C2B17996  16.902   8.747   8.250
 4492POPC   C3B17997  16.857   8.796   7.950
 4492POPC   C4B17998  16.870   8.808   7.650
 4493POPC   NC317999  20.641  11.260   9.450
 4493POPC   PO418000  20.648  11.290   9.150
 4493POPC   GL118001  20.637  11.329   8.850
 4493POPC   GL218002  20.533  11.252   8.850
 4493POPC   C1A18003  20.596  11.305   8.550
 4493POPC   D2A18004  20.625  11.301   8.250
 4493POPC   C3A18005  20.627  11.330   7.950
 4493POPC   C4A18006  20.649  11.253   7.650
 4493POPC   C1B18007  20.396  11.130   8.550
 4493POPC   C2B18008  20.395  11.158   8.250
 4493POPC   C3B18009  20.424  11.198   7.950
 4493POPC   C4B18010  20.428  11.114   7.650
 4494POPC   NC318011   8.195   6.597   9.450
 4494POPC   PO418012   8.231   6.611   9.150
 4494POPC   GL118013   8.169   6.639   8.850
 4494POPC   GL218014   8.157   6.771   8.850
 4494POPC   C1A18015   8.179   6.618   8.550
 4494POPC   D2A18016   8.159   6.603   8.250
 4494POPC   C3A18017   8.161   6.620   7.950
 4494POPC   C4A18018   8.237   6.595   7.650
 4494POPC   C1B18019   8.190   6.890   8.550
 4494POPC   C2B18020   8.196   6.938   8.250
 4494POPC   C3B18021   8.199   6.927   7.950
 4494POPC   C4B18022   8.146   6.889   7.650
 4495POPC   NC318023  33.798   1.996   9.450
 4495POPC   PO418024  33.811   1.997   9.150
 4495POPC   GL118025  33.787   2.002   8.850
 4495POPC   GL218026  33.720   1.949   8.850
 4495POPC   C1A18027  33.780   2.031   8.550
 4495POPC   D2A18028  33.790   1.954   8.250
 4495POPC   C3A18029  33.755   1.979   7.950
 4495POPC   C4A18030  33.845   2.016   7.650
 4495POPC   C1B18031  33.532   1.893   8.550
 4495POPC   C2B18032  33.532   1.948   8.250
 4495POPC   C3B18033  33.586   1.918   7.950
 4495POPC   C4B18034  33.572   1.899   7.650
 4496POPC   NC318035  36.127   7.457   9.450
 4496POPC   PO418036  36.078   7.470   9.150
 4496POPC   GL118037  36.136   7.373   8.850
 4496POPC   GL218038  36.233   7.380   8.850
 4496POPC   C1A18039  36.154   7.389   8.550
 4496POPC   D2A18040  36.115   7.458   8.250
 4496POPC   C3A18041  36.132   7.397   7.950
 4496POPC   C4A18042  36.091   7.427   7.650
 4496POPC   C1B18043  36.394   7.435   8.550
 4496POPC   C2B18044  36.340   7.431   8.250
 4496POPC   C3B18045  36.361   7.426   7.950
 4496POPC   C4B18046  36.363   7.401   7.650
 4497POPC   NC318047  23.763  35.372   9.450
 4497POPC   PO418048  23.699  35.384   9.150
 4497POPC   GL118049  23.691  35.367   8.850
 4497POPC   GL218050  23.847  35.272   8.850
 4497POPC   C1A18051  23.682  35.324   8.550
 4497POPC   D2A18052  23.752  35.371   8.250
 4497POPC   C3A18053  23.709  35.316   7.950
 4497POPC   C4A18054  23.686  35.332   7.650
 4497POPC   C1B18055  23.948  35.291   8.550
 4497POPC   C2B18056  23.938  35.307   8.250
 4497POPC   C3B18057  23.927  35.293   7.950
 4497POPC   C4B18058  23.976  35.240   7.650
 4498POPC   NC318059  20.629   7.377   9.450
 4498POPC   PO418060  20.564   7.446   9.150
 4498POPC   GL118061  20.586   7.389   8.850
 4498POPC   GL218062  20.531   7.525   8.850
 4498POPC   C1A18063  20.625   7.407   8.550
 4498POPC   D2A18064  20.590   7.426   8.250
 4498POPC   C3A18065  20.629   7.420   7.950
 4498POPC   C4A18066  20.622   7.457   7.650
 4498POPC   C1B18067  20.427   7.578   8.550
 4498POPC   C2B18068  20.465   7.531   8.250
 4498POPC   C3B18069  20.375   7.567   7.950
 4498POPC   C4B18070  20.415   7.579   7.650
 4499POPC   NC318071  15.228  10.552   9.450
 4499POPC   PO418072  15.167  10.552   9.150
 4499POPC   GL118073  15.164  10.532   8.850
 4499POPC   GL218074  15.218  10.604   8.850
 4499POPC   C1A18075  15.218  10.494   8.550
 4499POPC   D2A18076  15.196  10.494   8.250
 4499POPC   C3A18077  15.191  10.514   7.950
 4499POPC   C4A18078  15.130  10.532   7.650
 4499POPC   C1B18079  15.229  10.747   8.550
 4499POPC   C2B18080  15.259  10.754   8.250
 4499POPC   C3B18081  15.219  10.765   7.950
 4499POPC   C4B18082  15.243  10.813   7.650
 4500POPC   NC318083  23.665   5.140   9.450
 4500POPC   PO418084  23.721   5.054   9.150
 4500POPC   GL118085  23.747   5.102   8.850
 4500POPC   GL218086  23.790   4.954   8.850
 4500POPC   C1A18087  23.733   5.048   8.550
 4500POPC   D2A18088  23.712   5.119   8.250
 4500POPC   C3A18089  23.698   5.050   7.950
 4500POPC   C4A18090  23.739   5.089   7.650
 4500POPC   C1B18091  23.783   4.834   8.550
 4500POPC   C2B18092  23.790   4.890   8.250
 4500POPC   C3B18093  23.834   4.826   7.950
 4500POPC   C4B18094  23.766   4.907   7.650
 4501POPC   NC318095   8.956   3.567   9.450
 4501POPC   PO418096   8.963   3.545   9.150
 4501POPC   GL118097   8.945   3.515   8.850
 4501POPC   GL218098   9.004   3.654   8.850
 4501POPC   C1A18099   9.018   3.577   8.550
 4501POPC   D2A18100   8.950   3.526   8.250
 4501POPC   C3A18101   8.995   3.531   7.950
 4501POPC   C4A18102   8.927   3.587   7.650
 4501POPC   C1B18103   9.073   3.800   8.550
 4501POPC   C2B18104   9.053   3.772   8.250
 4501POPC   C3B18105   9.031   3.806   7.950
 4501POPC   C4B18106   9.023   3.737   7.650
 4502POPC   NC318107   4.326  16.730   9.450
 4502POPC   PO418108   4.345  16.740   9.150
 4502POPC   GL118109   4.329  16.712   8.850
 4502POPC   GL218110   4.368  16.866   8.850
 4502POPC   C1A18111   4.284  16.745   8.550
 4502POPC   D2A18112   4.329  16.749   8.250
 4502POPC   C3A18113   4.285  16.752   7.950
 4502POPC   C4A18114   4.355  16.720   7.650
 4502POPC   C1B18115   4.387  16.951   8.550
 4502POPC   C2B18116   4.388  17.004   8.250
 4502POPC   C3B18117   4.418  16.957   7.950
 4502POPC   C4B18118   4.351  16.996   7.650
 4503POPC   NC318119  22.207  43.930   9.450
 4503POPC   PO418120  22.128  43.887   9.150
 4503POPC   GL118121  22.174  43.914   8.850
 4503POPC   GL218122  22.259  43.845   8.850
 4503POPC   C1A18123  22.211  43.864   8.550
 4503POPC   D2A18124  22.201  43.844   8.250
 4503POPC   C3A18125  22.132  43.857   7.950
 4503POPC   C4A18126  22.167  43.872   7.650
 4503POPC   C1B18127  22.433  43.808   8.550
 4503POPC   C2B18128  22.378  43.819   8.250
 4503POPC   C3B18129  22.404  43.793   7.950
 4503POPC   C4B18130  22.371  43.790   7.650
 4504POPC   NC318131  36.894   4.291   9.450
 4504POPC   PO418132  36.907   4.313   9.150
 4504POPC   GL118133  36.923   4.329   8.850
 4504POPC   GL218134  36.817   4.420   8.850
 4504POPC   C1A18135  36.943   4.285   8.550
 4504POPC   D2A18136  36.882   4.307   8.250
 4504POPC   C3A18137  36.929   4.346   7.950
 4504POPC   C4A18138  36.862   4.268   7.650
 4504POPC   C1B18139  36.732   4.533   8.550
 4504POPC   C2B18140  36.706   4.506   8.250
 4504POPC   C3B18141  36.701   4.469   7.950
 4504POPC   C4B18142  36.768   4.485   7.650
 4505POPC   NC318143  43.924  17.479   9.450
 4505POPC   PO418144  43.856  17.523   9.150
 4505POPC   GL118145  43.921  17.525   8.850
 4505POPC   GL218146  44.004  17.410   8.850
 4505POPC   C1A18147  43.893  17.502   8.550
 4505POPC   D2A18148  43.845  17.545   8.250
 4505POPC   C3A18149  43.912  17.534   7.950
 4505POPC   C4A18150  43.895  17.468   7.650
 4505POPC   C1B18151  44.047  17.371   8.550
 4505POPC   C2B18152  44.138  17.408   8.250
 4505POPC   C3B18153  44.105  17.367   7.950
 4505POPC   C4B18154  44.078  17.396   7.650
 4506POPC   NC318155  26.806  28.385   9.450
 4506POPC   PO418156  26.786  28.409   9.150
 4506POPC   GL118157  26.783  28.407   8.850
 4506POPC   GL218158  26.782  28.289   8.850
 4506POPC   C1A18159  26.830  28.374   8.550
 4506POPC   D2A18160  26.836  28.391   8.250
 4506POPC   C3A18161  26.830  28.394   7.950
 4506POPC   C4A18162  26.804  28.364   7.650
 4506POPC   C1B18163  26.849  28.143   8.550
 4506POPC   C2B18164  26.798  28.119   8.250
 4506POPC   C3B18165  26.803  28.104   7.950
 4506POPC   C4B18166  26.773  28.069   7.650
 4507POPC   NC318167   0.397  16.698   9.450
 4507POPC   PO418168   0.423  16.754   9.150
 4507POPC   GL118169   0.442  16.776   8.850
 4507POPC   GL218170   0.349  16.722   8.850
 4507POPC   C1A18171   0.456  16.744   8.550
 4507POPC   D2A18172   0.470  16.760   8.250
 4507POPC   C3A18173   0.475  16.692   7.950
 4507POPC   C4A18174   0.463  16.695   7.650
 4507POPC   C1B18175   0.200  16.631   8.550
 4507POPC   C2B18176   0.240  16.616   8.250
 4507POPC   C3B18177   0.218  16.631   7.950
 4507POPC   C4B18178   0.230  16.614   7.650
 4508POPC   NC318179   8.946   7.453   9.450
 4508POPC   PO418180   9.000   7.392   9.150
 4508POPC   GL118181   8.962   7.407   8.850
 4508POPC   GL218182   8.833   7.417   8.850
 4508POPC   C1A18183   8.995   7.452   8.550
 4508POPC   D2A18184   9.006   7.383   8.250
 4508POPC   C3A18185   8.958   7.406   7.950
 4508POPC   C4A18186   8.991   7.389   7.650
 4508POPC   C1B18187   8.731   7.530   8.550
 4508POPC   C2B18188   8.724   7.556   8.250
 4508POPC   C3B18189   8.718   7.549   7.950
 4508POPC   C4B18190   8.745   7.485   7.650
 4509POPC   NC318191   2.720   5.845   9.450
 4509POPC   PO418192   2.771   5.852   9.150
 4509POPC   GL118193   2.746   5.861   8.850
 4509POPC   GL218194   2.685   5.989   8.850
 4509POPC   C1A18195   2.799   5.852   8.550
 4509POPC   D2A18196   2.741   5.846   8.250
 4509POPC   C3A18197   2.776   5.835   7.950
 4509POPC   C4A18198   2.720   5.828   7.650
 4509POPC   C1B18199   2.683   6.054   8.550
 4509POPC   C2B18200   2.645   6.087   8.250
 4509POPC   C3B18201   2.654   6.066   7.950
 4509POPC   C4B18202   2.670   6.069   7.650
 4510POPC   NC318203  39.997  36.105   9.450
 4510POPC   PO418204  40.044  36.132   9.150
 4510POPC   GL118205  40.018  36.115   8.850
 4510POPC   GL218206  39.947  36.018   8.850
 4510POPC   C1A18207  40.054  36.150   8.550
 4510POPC   D2A18208  40.049  36.154   8.250
 4510POPC   C3A18209  40.008  36.101   7.950
 4510POPC   C4A18210  40.029  36.105   7.650
 4510POPC   C1B18211  39.876  35.931   8.550
 4510POPC   C2B18212  39.855  35.954   8.250
 4510POPC   C3B18213  39.872  35.917   7.950
 4510POPC   C4B18214  39.825  35.890   7.650
 4511POPC   NC318215  17.538  12.819   9.450
 4511POPC   PO418216  17.502  12.866   9.150
 4511POPC   GL118217  17.517  12.900   8.850
 4511POPC   GL218218  17.568  12.939   8.850
 4511POPC   C1A18219  17.536  12.876   8.550
 4511POPC   D2A18220  17.528  12.884   8.250
 4511POPC   C3A18221  17.462  12.901   7.950
 4511POPC   C4A18222  17.549  12.815   7.650
 4511POPC   C1B18223  17.555  13.069   8.550
 4511POPC   C2B18224  17.485  13.115   8.250
 4511POPC   C3B18225  17.575  13.149   7.950
 4511POPC   C4B18226  17.526  13.131   7.650
 4512POPC   NC318227  19.865  36.157   9.450
 4512POPC   PO418228  19.854  36.158   9.150
 4512POPC   GL118229  19.839  36.102   8.850
 4512POPC   GL218230  19.769  36.230   8.850
 4512POPC   C1A18231  19.805  36.108   8.550
 4512POPC   D2A18232  19.840  36.080   8.250
 4512POPC   C3A18233  19.807  36.119   7.950
 4512POPC   C4A18234  19.821  36.094   7.650
 4512POPC   C1B18235  19.686  36.319   8.550
 4512POPC   C2B18236  19.722  36.279   8.250
 4512POPC   C3B18237  19.676  36.292   7.950
 4512POPC   C4B18238  19.677  36.299   7.650
 4513POPC   NC318239  44.662   4.358   9.450
 4513POPC   PO418240  44.672   4.356   9.150
 4513POPC   GL118241  44.690   4.276   8.850
 4513POPC   GL218242  44.779   4.294   8.850
 4513POPC   C1A18243  44.704   4.367   8.550
 4513POPC   D2A18244  44.672   4.302   8.250
 4513POPC   C3A18245  44.647   4.329   7.950
 4513POPC   C4A18246  44.626   4.312   7.650
 4513POPC   C1B18247  44.956   4.300   8.550
 4513POPC   C2B18248  44.901   4.288   8.250
 4513POPC   C3B18249  44.899   4.304   7.950
 4513POPC   C4B18250  44.878   4.234   7.650
 4514POPC   NC318251   8.195  43.136   9.450
 4514POPC   PO418252   8.196  43.095   9.150
 4514POPC   GL118253   8.233  43.125   8.850
 4514POPC   GL218254   8.130  43.002   8.850
 4514POPC   C1A18255   8.225  43.118   8.550
 4514POPC   D2A18256   8.205  43.144   8.250
 4514POPC   C3A18257   8.197  43.156   7.950
 4514POPC   C4A18258   8.232  43.136   7.650
 4514POPC   C1B18259   8.048  42.861   8.550
 4514POPC   C2B18260   8.071  42.877   8.250
 4514POPC   C3B18261   8.074  42.908   7.950
 4514POPC   C4B18262   8.097  42.879   7.650
 4515POPC   NC318263   5.854  18.300   9.450
 4515POPC   PO418264   5.910  18.261   9.150
 4515POPC   GL118265   5.889  18.243   8.850
 4515POPC   GL218266   5.782  18.284   8.850
 4515POPC   C1A18267   5.914  18.304   8.550
 4515POPC   D2A18268   5.843  18.329   8.250
 4515POPC   C3A18269   5.900  18.320   7.950
 4515POPC   C4A18270   5.866  18.324   7.650
 4515POPC   C1B18271   5.584  18.241   8.550
 4515POPC   C2B18272   5.596  18.264   8.250
 4515POPC   C3B18273   5.583  18.272   7.950
 4515POPC   C4B18274   5.647  18.274   7.650
 4516POPC   NC318275  10.558  19.816   9.450
 4516POPC   PO418276  10.550  19.875   9.150
 4516POPC   GL118277  10.557  19.834   8.850
 4516POPC   GL218278  10.435  19.743   8.850
 4516POPC   C1A18279  10.574  19.849   8.550
 4516POPC   D2A18280  10.574  19.882   8.250
 4516POPC   C3A18281  10.549  19.815   7.950
 4516POPC   C4A18282  10.538  19.851   7.650
 4516POPC   C1B18283  10.320  19.702   8.550
 4516POPC   C2B18284  10.319  19.696   8.250
 4516POPC   C3B18285  10.351  19.657   7.950
 4516POPC   C4B18286  10.338  19.687   7.650
 4517POPC   NC318287  39.183  16.780   9.450
 4517POPC   PO418288  39.215  16.760   9.150
 4517POPC   GL118289  39.205  16.718   8.850
 4517POPC   GL218290  39.081  16.822   8.850
 4517POPC   C1A18291  39.235  16.699   8.550
 4517POPC   D2A18292  39.220  16.719   8.250
 4517POPC   C3A18293  39.231  16.745   7.950
 4517POPC   C4A18294  39.237  16.735   7.650
 4517POPC   C1B18295  39.026  16.822   8.550
 4517POPC   C2B18296  39.049  16.830   8.250
 4517POPC   C3B18297  39.038  16.818   7.950
 4517POPC   C4B18298  39.033  16.828   7.650
 4518POPC   NC318299   7.374  39.207   9.450
 4518POPC   PO418300   7.412  39.234   9.150
 4518POPC   GL118301   7.467  39.188   8.850
 4518POPC   GL218302   7.259  39.232   8.850
 4518POPC   C1A18303   7.402  39.190   8.550
 4518POPC   D2A18304   7.430  39.244   8.250
 4518POPC   C3A18305   7.429  39.221   7.950
 4518POPC   C4A18306   7.420  39.206   7.650
 4518POPC   C1B18307   7.201  39.194   8.550
 4518POPC   C2B18308   7.203  39.258   8.250
 4518POPC   C3B18309   7.204  39.246   7.950
 4518POPC   C4B18310   7.199  39.220   7.650
 4519POPC   NC318311   9.749  12.086   9.450
 4519POPC   PO418312   9.784  12.037   9.150
 4519POPC   GL118313   9.742  12.045   8.850
 4519POPC   GL218314   9.779  11.964   8.850
 4519POPC   C1A18315   9.775  12.046   8.550
 4519POPC   D2A18316   9.777  12.057   8.250
 4519POPC   C3A18317   9.719  12.054   7.950
 4519POPC   C4A18318   9.775  12.124   7.650
 4519POPC   C1B18319   9.873  11.835   8.550
 4519POPC   C2B18320   9.900  11.830   8.250
 4519POPC   C3B18321   9.818  11.869   7.950
 4519POPC   C4B18322   9.853  11.865   7.650
 4520POPC   NC318323  27.569  13.637   9.450
 4520POPC   PO418324  27.616  13.592   9.150
 4520POPC   GL118325  27.558  13.666   8.850
 4520POPC   GL218326  27.549  13.509   8.850
 4520POPC   C1A18327  27.636  13.616   8.550
 4520POPC   D2A18328  27.554  13.646   8.250
 4520POPC   C3A18329  27.605  13.635   7.950
 4520POPC   C4A18330  27.608  13.590   7.650
 4520POPC   C1B18331  27.443  13.396   8.550
 4520POPC   C2B18332  27.401  13.415   8.250
 4520POPC   C3B18333  27.445  13.446   7.950
 4520POPC   C4B18334  27.468  13.449   7.650
 4521POPC   NC318335  15.953   3.570   9.450
 4521POPC   PO418336  15.948   3.549   9.150
 4521POPC   GL118337  15.909   3.576   8.850
 4521POPC   GL218338  16.066   3.518   8.850
 4521POPC   C1A18339  15.994   3.549   8.550
 4521POPC   D2A18340  15.952   3.514   8.250
 4521POPC   C3A18341  15.943   3.533   7.950
 4521POPC   C4A18342  15.936   3.512   7.650
 4521POPC   C1B18343  16.189   3.367   8.550
 4521POPC   C2B18344  16.143   3.415   8.250
 4521POPC   C3B18345  16.206   3.364   7.950
 4521POPC   C4B18346  16.116   3.361   7.650
 4522POPC   NC318347  25.245  38.423   9.450
 4522POPC   PO418348  25.262  38.454   9.150
 4522POPC   GL118349  25.233  38.492   8.850
 4522POPC   GL218350  25.418  38.459   8.850
 4522POPC   C1A18351  25.294  38.488   8.550
 4522POPC   D2A18352  25.239  38.499   8.250
 4522POPC   C3A18353  25.301  38.405   7.950
 4522POPC   C4A18354  25.314  38.459   7.650
 4522POPC   C1B18355  25.485  38.439   8.550
 4522POPC   C2B18356  25.551  38.370   8.250
 4522POPC   C3B18357  25.554  38.386   7.950
 4522POPC   C4B18358  25.514  38.362   7.650
 4523POPC   NC318359   5.906   1.955   9.450
 4523POPC   PO418360   5.872   1.975   9.150
 4523POPC   GL118361   5.895   2.029   8.850
 4523POPC   GL218362   5.998   2.045   8.850
 4523POPC   C1A18363   5.868   1.993   8.550
 4523POPC   D2A18364   5.918   2.020   8.250
 4523POPC   C3A18365   5.875   1.982   7.950
 4523POPC   C4A18366   5.914   2.014   7.650
 4523POPC   C1B18367   6.123   2.055   8.550
 4523POPC   C2B18368   6.144   2.021   8.250
 4523POPC   C3B18369   6.117   1.966   7.950
 4523POPC   C4B18370   6.100   2.045   7.650
 4524POPC   NC318371  21.402  39.217   9.450
 4524POPC   PO418372  21.380  39.208   9.150
 4524POPC   GL118373  21.383  39.273   8.850
 4524POPC   GL218374  21.322  39.261   8.850
 4524POPC   C1A18375  21.414  39.187   8.550
 4524POPC   D2A18376  21.416  39.205   8.250
 4524POPC   C3A18377  21.398  39.279   7.950
 4524POPC   C4A18378  21.339  39.273   7.650
 4524POPC   C1B18379  21.143  39.404   8.550
 4524POPC   C2B18380  21.215  39.328   8.250
 4524POPC   C3B18381  21.199  39.335   7.950
 4524POPC   C4B18382  21.179  39.393   7.650
 4525POPC   NC318383  41.537  33.807   9.450
 4525POPC   PO418384  41.549  33.763   9.150
 4525POPC   GL118385  41.530  33.839   8.850
 4525POPC   GL218386  41.676  33.875   8.850
 4525POPC   C1A18387  41.585  33.825   8.550
 4525POPC   D2A18388  41.514  33.752   8.250
 4525POPC   C3A18389  41.509  33.834   7.950
 4525POPC   C4A18390  41.598  33.815   7.650
 4525POPC   C1B18391  41.745  33.959   8.550
 4525POPC   C2B18392  41.731  34.033   8.250
 4525POPC   C3B18393  41.746  34.001   7.950
 4525POPC   C4B18394  41.675  33.974   7.650
 4526POPC   NC318395  22.924  22.211   9.450
 4526POPC   PO418396  22.895  22.160   9.150
 4526POPC   GL118397  22.976  22.197   8.850
 4526POPC   GL218398  23.036  22.105   8.850
 4526POPC   C1A18399  22.941  22.205   8.550
 4526POPC   D2A18400  22.916  22.116   8.250
 4526POPC   C3A18401  22.970  22.136   7.950
 4526POPC   C4A18402  22.896  22.153   7.650
 4526POPC   C1B18403  23.199  22.037   8.550
 4526POPC   C2B18404  23.161  22.016   8.250
 4526POPC   C3B18405  23.216  22.047   7.950
 4526POPC   C4B18406  23.149  22.029   7.650
 4527POPC   NC318407  19.791  10.499   9.450
 4527POPC   PO418408  19.789  10.513   9.150
 4527POPC   GL118409  19.837  10.509   8.850
 4527POPC   GL218410  19.879  10.410   8.850
 4527POPC   C1A18411  19.793  10.531   8.550
 4527POPC   D2A18412  19.842  10.514   8.250
 4527POPC   C3A18413  19.845  10.483   7.950
 4527POPC   C4A18414  19.812  10.530   7.650
 4527POPC   C1B18415  19.949  10.376   8.550
 4527POPC   C2B18416  19.970  10.359   8.250
 4527POPC   C3B18417  20.029  10.300   7.950
 4527POPC   C4B18418  20.037  10.364   7.650
 4528POPC   NC318419  29.901  44.675   9.450
 4528POPC   PO418420  29.925  44.617   9.150
 4528POPC   GL118421  29.905  44.708   8.850
 4528POPC   GL218422  30.005  44.571   8.850
 4528POPC   C1A18423  29.873  44.697   8.550
 4528POPC   D2A18424  29.888  44.646   8.250
 4528POPC   C3A18425  29.933  44.614   7.950
 4528POPC   C4A18426  29.915  44.690   7.650
 4528POPC   C1B18427  30.063  44.521   8.550
 4528POPC   C2B18428  30.133  44.462   8.250
 4528POPC   C3B18429  30.115  44.465   7.950
 4528POPC   C4B18430  30.071  44.476   7.650
 4529POPC   NC318431  40.768  39.236   9.450
 4529POPC   PO418432  40.816  39.263   9.150
 4529POPC   GL118433  40.802  39.209   8.850
 4529POPC   GL218434  40.615  39.251   8.850
 4529POPC   C1A18435  40.794  39.218   8.550
 4529POPC   D2A18436  40.795  39.206   8.250
 4529POPC   C3A18437  40.738  39.269   7.950
 4529POPC   C4A18438  40.776  39.225   7.650
 4529POPC   C1B18439  40.530  39.139   8.550
 4529POPC   C2B18440  40.558  39.159   8.250
 4529POPC   C3B18441  40.515  39.145   7.950
 4529POPC   C4B18442  40.575  39.197   7.650
 4530POPC   NC318443  33.056   9.722   9.450
 4530POPC   PO418444  33.006   9.737   9.150
 4530POPC   GL118445  33.072   9.749   8.850
 4530POPC   GL218446  33.133   9.870   8.850
 4530POPC   C1A18447  33.056   9.751   8.550
 4530POPC   D2A18448  33.034   9.718   8.250
 4530POPC   C3A18449  33.048   9.748   7.950
 4530POPC   C4A18450  33.022   9.733   7.650
 4530POPC   C1B18451  33.103   9.931   8.550
 4530POPC   C2B18452  33.115   9.988   8.250
 4530POPC   C3B18453  33.146   9.989   7.950
 4530POPC   C4B18454  33.168   9.946   7.650
 4531POPC   NC318455  20.653  15.134   9.450
 4531POPC   PO418456  20.589  15.227   9.150
 4531POPC   GL118457  20.578  15.206   8.850
 4531POPC   GL218458  20.527  15.282   8.850
 4531POPC   C1A18459  20.635  15.158   8.550
 4531POPC   D2A18460  20.582  15.205   8.250
 4531POPC   C3A18461  20.612  15.159   7.950
 4531POPC   C4A18462  20.638  15.159   7.650
 4531POPC   C1B18463  20.520  15.416   8.550
 4531POPC   C2B18464  20.502  15.374   8.250
 4531POPC   C3B18465  20.498  15.403   7.950
 4531POPC   C4B18466  20.498  15.362   7.650
 4532POPC   NC318467  36.890  24.467   9.450
 4532POPC   PO418468  36.863  24.505   9.150
 4532POPC   GL118469  36.915  24.477   8.850
 4532POPC   GL218470  36.862  24.647   8.850
 4532POPC   C1A18471  36.886  24.498   8.550
 4532POPC   D2A18472  36.907  24.468   8.250
 4532POPC   C3A18473  36.855  24.490   7.950
 4532POPC   C4A18474  36.927  24.475   7.650
 4532POPC   C1B18475  36.871  24.739   8.550
 4532POPC   C2B18476  36.928  24.774   8.250
 4532POPC   C3B18477  36.834  24.738   7.950
 4532POPC   C4B18478  36.903  24.710   7.650
 4533POPC   NC318479  24.538  11.309   9.450
 4533POPC   PO418480  24.534  11.272   9.150
 4533POPC   GL118481  24.492  11.292   8.850
 4533POPC   GL218482  24.571  11.178   8.850
 4533POPC   C1A18483  24.533  11.276   8.550
 4533POPC   D2A18484  24.507  11.261   8.250
 4533POPC   C3A18485  24.449  11.295   7.950
 4533POPC   C4A18486  24.447  11.298   7.650
 4533POPC   C1B18487  24.729  11.202   8.550
 4533POPC   C2B18488  24.661  11.120   8.250
 4533POPC   C3B18489  24.661  11.196   7.950
 4533POPC   C4B18490  24.712  11.140   7.650
 4534POPC   NC318491  17.531  33.072   9.450
 4534POPC   PO418492  17.545  33.042   9.150
 4534POPC   GL118493  17.462  33.013   8.850
 4534POPC   GL218494  17.422  33.133   8.850
 4534POPC   C1A18495  17.479  33.024   8.550
 4534POPC   D2A18496  17.510  33.041   8.250
 4534POPC   C3A18497  17.494  32.976   7.950
 4534POPC   C4A18498  17.478  33.014   7.650
 4534POPC   C1B18499  17.384  33.232   8.550
 4534POPC   C2B18500  17.385  33.218   8.250
 4534POPC   C3B18501  17.330  33.239   7.950
 4534POPC   C4B18502  17.372  33.228   7.650
 4535POPC   NC318503  25.286  15.207   9.450
 4535POPC   PO418504  25.315  15.219   9.150
 4535POPC   GL118505  25.294  15.194   8.850
 4535POPC   GL218506  25.350  15.311   8.850
 4535POPC   C1A18507  25.303  15.176   8.550
 4535POPC   D2A18508  25.314  15.195   8.250
 4535POPC   C3A18509  25.293  15.144   7.950
 4535POPC   C4A18510  25.225  15.141   7.650
 4535POPC   C1B18511  25.383  15.400   8.550
 4535POPC   C2B18512  25.327  15.424   8.250
 4535POPC   C3B18513  25.378  15.461   7.950
 4535POPC   C4B18514  25.393  15.410   7.650
 4536POPC   NC318515  36.920  43.857   9.450
 4536POPC   PO418516  36.915  43.933   9.150
 4536POPC   GL118517  36.898  43.882   8.850
 4536POPC   GL218518  36.974  43.735   8.850
 4536POPC   C1A18519  36.940  43.838   8.550
 4536POPC   D2A18520  36.920  43.854   8.250
 4536POPC   C3A18521  36.924  43.893   7.950
 4536POPC   C4A18522  36.945  43.847   7.650
 4536POPC   C1B18523  36.936  43.626   8.550
 4536POPC   C2B18524  36.984  43.643   8.250
 4536POPC   C3B18525  36.923  43.595   7.950
 4536POPC   C4B18526  36.987  43.682   7.650
 4537POPC   NC318527   1.185  26.789   9.450
 4537POPC   PO418528   1.199  26.849   9.150
 4537POPC   GL118529   1.178  26.805   8.850
 4537POPC   GL218530   1.250  26.653   8.850
 4537POPC   C1A18531   1.164  26.833   8.550
 4537POPC   D2A18532   1.206  26.784   8.250
 4537POPC   C3A18533   1.169  26.768   7.950
 4537POPC   C4A18534   1.262  26.867   7.650
 4537POPC   C1B18535   1.278  26.572   8.550
 4537POPC   C2B18536   1.237  26.608   8.250
 4537POPC   C3B18537   1.271  26.543   7.950
 4537POPC   C4B18538   1.224  26.589   7.650
 4538POPC   NC318539   2.765  23.734   9.450
 4538POPC   PO418540   2.792  23.709   9.150
 4538POPC   GL118541   2.780  23.748   8.850
 4538POPC   GL218542   2.632  23.646   8.850
 4538POPC   C1A18543   2.729  23.760   8.550
 4538POPC   D2A18544   2.744  23.705   8.250
 4538POPC   C3A18545   2.741  23.690   7.950
 4538POPC   C4A18546   2.784  23.674   7.650
 4538POPC   C1B18547   2.543  23.629   8.550
 4538POPC   C2B18548   2.554  23.622   8.250
 4538POPC   C3B18549   2.540  23.648   7.950
 4538POPC   C4B18550   2.552  23.619   7.650
 4539POPC   NC318551   0.452  31.503   9.450
 4539POPC   PO418552   0.418  31.484   9.150
 4539POPC   GL118553   0.414  31.475   8.850
 4539POPC   GL218554   0.311  31.475   8.850
 4539POPC   C1A18555   0.402  31.462   8.550
 4539POPC   D2A18556   0.426  31.498   8.250
 4539POPC   C3A18557   0.435  31.471   7.950
 4539POPC   C4A18558   0.424  31.455   7.650
 4539POPC   C1B18559   0.146  31.490   8.550
 4539POPC   C2B18560   0.156  31.533   8.250
 4539POPC   C3B18561   0.152  31.476   7.950
 4539POPC   C4B18562   0.216  31.516   7.650
 4540POPC   NC318563  43.108  11.313   9.450
 4540POPC   PO418564  43.067  11.334   9.150
 4540POPC   GL118565  43.114  11.310   8.850
 4540POPC   GL218566  43.181  11.174   8.850
 4540POPC   C1A18567  43.072  11.278   8.550
 4540POPC   D2A18568  43.148  11.329   8.250
 4540POPC   C3A18569  43.132  11.346   7.950
 4540POPC   C4A18570  43.148  11.261   7.650
 4540POPC   C1B18571  43.201  11.087   8.550
 4540POPC   C2B18572  43.190  11.040   8.250
 4540POPC   C3B18573  43.257  11.093   7.950
 4540POPC   C4B18574  43.200  11.080   7.650
 4541POPC   NC318575   2.014  16.718   9.450
 4541POPC   PO418576   2.034  16.781   9.150
 4541POPC   GL118577   2.024  16.733   8.850
 4541POPC   GL218578   1.863  16.708   8.850
 4541POPC   C1A18579   2.033  16.754   8.550
 4541POPC   D2A18580   1.941  16.710   8.250
 4541POPC   C3A18581   2.016  16.711   7.950
 4541POPC   C4A18582   1.947  16.778   7.650
 4541POPC   C1B18583   1.743  16.597   8.550
 4541POPC   C2B18584   1.745  16.657   8.250
 4541POPC   C3B18585   1.788  16.614   7.950
 4541POPC   C4B18586   1.759  16.588   7.650
 4542POPC   NC318587  18.254  38.426   9.450
 4542POPC   PO418588  18.245  38.467   9.150
 4542POPC   GL118589  18.276  38.464   8.850
 4542POPC   GL218590  18.370  38.455   8.850
 4542POPC   C1A18591  18.329  38.427   8.550
 4542POPC   D2A18592  18.263  38.427   8.250
 4542POPC   C3A18593  18.317  38.438   7.950
 4542POPC   C4A18594  18.328  38.493   7.650
 4542POPC   C1B18595  18.570  38.405   8.550
 4542POPC   C2B18596  18.571  38.397   8.250
 4542POPC   C3B18597  18.560  38.430   7.950
 4542POPC   C4B18598  18.545  38.423   7.650
 4543POPC   NC318599  12.048  13.591   9.450
 4543POPC   PO418600  12.122  13.616   9.150
 4543POPC   GL118601  12.058  13.579   8.850
 4543POPC   GL218602  12.201  13.740   8.850
 4543POPC   C1A18603  12.035  13.643   8.550
 4543POPC   D2A18604  12.057  13.649   8.250
 4543POPC   C3A18605  12.068  13.587   7.950
 4543POPC   C4A18606  12.063  13.621   7.650
 4543POPC   C1B18607  12.313  13.816   8.550
 4543POPC   C2B18608  12.298  13.822   8.250
 4543POPC   C3B18609  12.249  13.781   7.950
 4543POPC   C4B18610  12.316  13.770   7.650
 4544POPC   NC318611  36.093  16.776   9.450
 4544POPC   PO418612  36.119  16.711   9.150
 4544POPC   GL118613  36.169  16.740   8.850
 4544POPC   GL218614  36.214  16.760   8.850
 4544POPC   C1A18615  36.125  16.742   8.550
 4544POPC   D2A18616  36.080  16.764   8.250
 4544POPC   C3A18617  36.095  16.728   7.950
 4544POPC   C4A18618  36.142  16.753   7.650
 4544POPC   C1B18619  36.328  16.862   8.550
 4544POPC   C2B18620  36.354  16.796   8.250
 4544POPC   C3B18621  36.407  16.783   7.950
 4544POPC   C4B18622  36.387  16.792   7.650
 4545POPC   NC318623  44.656  26.821   9.450
 4545POPC   PO418624  44.661  26.772   9.150
 4545POPC   GL118625  44.669  26.856   8.850
 4545POPC   GL218626  44.693  26.737   8.850
 4545POPC   C1A18627  44.633  26.774   8.550
 4545POPC   D2A18628  44.662  26.812   8.250
 4545POPC   C3A18629  44.631  26.829   7.950
 4545POPC   C4A18630  44.632  26.859   7.650
 4545POPC   C1B18631  44.636  26.539   8.550
 4545POPC   C2B18632  44.648  26.592   8.250
 4545POPC   C3B18633  44.641  26.525   7.950
 4545POPC   C4B18634  44.661  26.523   7.650
 4546POPC   NC318635  41.540  19.048   9.450
 4546POPC   PO418636  41.607  19.060   9.150
 4546POPC   GL118637  41.574  19.054   8.850
 4546POPC   GL218638  41.422  19.072   8.850
 4546POPC   C1A18639  41.596  19.045   8.550
 4546POPC   D2A18640  41.568  19.080   8.250
 4546POPC   C3A18641  41.562  19.059   7.950
 4546POPC   C4A18642  41.579  19.010   7.650
 4546POPC   C1B18643  41.269  19.080   8.550
 4546POPC   C2B18644  41.266  19.005   8.250
 4546POPC   C3B18645  41.276  19.058   7.950
 4546POPC   C4B18646  41.261  19.076   7.650
 4547POPC   NC318647  31.500  10.551   9.450
 4547POPC   PO418648  31.425  10.489   9.150
 4547POPC   GL118649  31.479  10.550   8.850
 4547POPC   GL218650  31.558  10.579   8.850
 4547POPC   C1A18651  31.457  10.499   8.550
 4547POPC   D2A18652  31.462  10.522   8.250
 4547POPC   C3A18653  31.450  10.549   7.950
 4547POPC   C4A18654  31.467  10.568   7.650
 4547POPC   C1B18655  31.642  10.630   8.550
 4547POPC   C2B18656  31.678  10.652   8.250
 4547POPC   C3B18657  31.682  10.665   7.950
 4547POPC   C4B18658  31.725  10.664   7.650
 4548POPC   NC318659  13.620  20.659   9.450
 4548POPC   PO418660  13.666  20.652   9.150
 4548POPC   GL118661  13.638  20.656   8.850
 4548POPC   GL218662  13.719  20.518   8.850
 4548POPC   C1A18663  13.585  20.602   8.550
 4548POPC   D2A18664  13.634  20.652   8.250
 4548POPC   C3A18665  13.642  20.632   7.950
 4548POPC   C4A18666  13.608  20.581   7.650
 4548POPC   C1B18667  13.893  20.493   8.550
 4548POPC   C2B18668  13.890  20.474   8.250
 4548POPC   C3B18669  13.875  20.559   7.950
 4548POPC   C4B18670  13.833  20.519   7.650
 4549POPC   NC318671   3.547   3.560   9.450
 4549POPC   PO418672   3.562   3.590   9.150
 4549POPC   GL118673   3.584   3.542   8.850
 4549POPC   GL218674   3.460   3.558   8.850
 4549POPC   C1A18675   3.514   3.549   8.550
 4549POPC   D2A18676   3.581   3.516   8.250
 4549POPC   C3A18677   3.577   3.575   7.950
 4549POPC   C4A18678   3.555   3.493   7.650
 4549POPC   C1B18679   3.278   3.465   8.550
 4549POPC   C2B18680   3.316   3.490   8.250
 4549POPC   C3B18681   3.250   3.518   7.950
 4549POPC   C4B18682   3.259   3.504   7.650
 4550POPC   NC318683  36.146   5.073   9.450
 4550POPC   PO418684  36.156   5.051   9.150
 4550POPC   GL118685  36.084   5.066   8.850
 4550POPC   GL218686  36.238   5.040   8.850
 4550POPC   C1A18687  36.101   5.132   8.550
 4550POPC   D2A18688  36.108   5.057   8.250
 4550POPC   C3A18689  36.164   5.084   7.950
 4550POPC   C4A18690  36.095   5.141   7.650
 4550POPC   C1B18691  36.245   4.937   8.550
 4550POPC   C2B18692  36.271   4.865   8.250
 4550POPC   C3B18693  36.250   4.911   7.950
 4550POPC   C4B18694  36.274   4.884   7.650
 4551POPC   NC318695   5.047  35.362   9.450
 4551POPC   PO418696   5.122  35.345   9.150
 4551POPC   GL118697   5.122  35.353   8.850
 4551POPC   GL218698   5.019  35.390   8.850
 4551POPC   C1A18699   5.043  35.348   8.550
 4551POPC   D2A18700   5.069  35.342   8.250
 4551POPC   C3A18701   5.087  35.336   7.950
 4551POPC   C4A18702   5.050  35.351   7.650
 4551POPC   C1B18703   4.942  35.543   8.550
 4551POPC   C2B18704   4.857  35.557   8.250
 4551POPC   C3B18705   4.905  35.545   7.950
 4551POPC   C4B18706   4.876  35.518   7.650
 4552POPC   NC318707  20.594  43.890   9.450
 4552POPC   PO418708  20.631  43.934   9.150
 4552POPC   GL118709  20.625  43.854   8.850
 4552POPC   GL218710  20.639  43.958   8.850
 4552POPC   C1A18711  20.636  43.915   8.550
 4552POPC   D2A18712  20.582  43.905   8.250
 4552POPC   C3A18713  20.604  43.916   7.950
 4552POPC   C4A18714  20.591  43.839   7.650
 4552POPC   C1B18715  20.735  44.132   8.550
 4552POPC   C2B18716  20.722  44.144   8.250
 4552POPC   C3B18717  20.741  44.090   7.950
 4552POPC   C4B18718  20.751  44.122   7.650
 4553POPC   NC318719   5.821  40.044   9.450
 4553POPC   PO418720   5.820  40.028   9.150
 4553POPC   GL118721   5.852  39.999   8.850
 4553POPC   GL218722   6.031  39.975   8.850
 4553POPC   C1A18723   5.831  40.008   8.550
 4553POPC   D2A18724   5.832  40.051   8.250
 4553POPC   C3A18725   5.845  39.966   7.950
 4553POPC   C4A18726   5.837  39.983   7.650
 4553POPC   C1B18727   6.060  39.926   8.550
 4553POPC   C2B18728   6.143  39.921   8.250
 4553POPC   C3B18729   6.094  39.923   7.950
 4553POPC   C4B18730   6.080  39.884   7.650
 4554POPC   NC318731  30.702   4.359   9.450
 4554POPC   PO418732  30.701   4.338   9.150
 4554POPC   GL118733  30.670   4.341   8.850
 4554POPC   GL218734  30.591   4.455   8.850
 4554POPC   C1A18735  30.710   4.297   8.550
 4554POPC   D2A18736  30.737   4.306   8.250
 4554POPC   C3A18737  30.660   4.367   7.950
 4554POPC   C4A18738  30.694   4.365   7.650
 4554POPC   C1B18739  30.520   4.553   8.550
 4554POPC   C2B18740  30.511   4.553   8.250
 4554POPC   C3B18741  30.563   4.569   7.950
 4554POPC   C4B18742  30.556   4.473   7.650
 4555POPC   NC318743  36.134  44.701   9.450
 4555POPC   PO418744  36.097  44.673   9.150
 4555POPC   GL118745  36.081  44.691   8.850
 4555POPC   GL218746  36.015  44.703   8.850
 4555POPC   C1A18747  36.135  44.640   8.550
 4555POPC   D2A18748  36.156  44.677   8.250
 4555POPC   C3A18749  36.157  44.640   7.950
 4555POPC   C4A18750  36.118  44.623   7.650
 4555POPC   C1B18751  35.866  44.804   8.550
 4555POPC   C2B18752  35.938  44.775   8.250
 4555POPC   C3B18753  35.869  44.735   7.950
 4555POPC   C4B18754  35.878  44.785   7.650
 4556POPC   NC318755  13.593  28.340   9.450
 4556POPC   PO418756  13.609  28.355   9.150
 4556POPC   GL118757  13.660  28.370   8.850
 4556POPC   GL218758  13.670  28.294   8.850
 4556POPC   C1A18759  13.622  28.412   8.550
 4556POPC   D2A18760  13.597  28.390   8.250
 4556POPC   C3A18761  13.665  28.333   7.950
 4556POPC   C4A18762  13.670  28.339   7.650
 4556POPC   C1B18763  13.740  28.159   8.550
 4556POPC   C2B18764  13.691  28.108   8.250
 4556POPC   C3B18765  13.718  28.176   7.950
 4556POPC   C4B18766  13.736  28.109   7.650
 4557POPC   NC318767  18.286  10.540   9.450
 4557POPC   PO418768  18.280  10.558   9.150
 4557POPC   GL118769  18.307  10.570   8.850
 4557POPC   GL218770  18.184  10.478   8.850
 4557POPC   C1A18771  18.255  10.553   8.550
 4557POPC   D2A18772  18.309  10.493   8.250
 4557POPC   C3A18773  18.237  10.533   7.950
 4557POPC   C4A18774  18.253  10.526   7.650
 4557POPC   C1B18775  18.001  10.468   8.550
 4557POPC   C2B18776  18.071  10.506   8.250
 4557POPC   C3B18777  18.042  10.488   7.950
 4557POPC   C4B18778  18.080  10.460   7.650
 4558POPC   NC318779  16.688  27.635   9.450
 4558POPC   PO418780  16.735  27.604   9.150
 4558POPC   GL118781  16.751  27.628   8.850
 4558POPC   GL218782  16.878  27.629   8.850
 4558POPC   C1A18783  16.697  27.600   8.550
 4558POPC   D2A18784  16.702  27.639   8.250
 4558POPC   C3A18785  16.766  27.559   7.950
 4558POPC   C4A18786  16.780  27.574   7.650
 4558POPC   C1B18787  16.971  27.615   8.550
 4558POPC   C2B18788  17.010  27.586   8.250
 4558POPC   C3B18789  16.987  27.573   7.950
 4558POPC   C4B18790  16.991  27.575   7.650
 4559POPC   NC318791   4.294   2.766   9.450
 4559POPC   PO418792   4.362   2.800   9.150
 4559POPC   GL118793   4.357   2.767   8.850
 4559POPC   GL218794   4.396   2.847   8.850
 4559POPC   C1A18795   4.339   2.799   8.550
 4559POPC   D2A18796   4.296   2.768   8.250
 4559POPC   C3A18797   4.282   2.796   7.950
 4559POPC   C4A18798   4.283   2.795   7.650
 4559POPC   C1B18799   4.532   2.920   8.550
 4559POPC   C2B18800   4.457   2.967   8.250
 4559POPC   C3B18801   4.522   2.900   7.950
 4559POPC   C4B18802   4.454   2.982   7.650
 4560POPC   NC318803  28.413  42.341   9.450
 4560POPC   PO418804  28.416  42.287   9.150
 4560POPC   GL118805  28.321  42.332   8.850
 4560POPC   GL218806  28.499  42.402   8.850
 4560POPC   C1A18807  28.351  42.326   8.550
 4560POPC   D2A18808  28.413  42.320   8.250
 4560POPC   C3A18809  28.337  42.335   7.950
 4560POPC   C4A18810  28.349  42.379   7.650
 4560POPC   C1B18811  28.638  42.329   8.550
 4560POPC   C2B18812  28.663  42.352   8.250
 4560POPC   C3B18813  28.638  42.414   7.950
 4560POPC   C4B18814  28.632  42.412   7.650
 4561POPC   NC318815  24.471   7.399   9.450
 4561POPC   PO418816  24.515   7.419   9.150
 4561POPC   GL118817  24.476   7.416   8.850
 4561POPC   GL218818  24.477   7.287   8.850
 4561POPC   C1A18819  24.452   7.414   8.550
 4561POPC   D2A18820  24.539   7.461   8.250
 4561POPC   C3A18821  24.525   7.415   7.950
 4561POPC   C4A18822  24.474   7.423   7.650
 4561POPC   C1B18823  24.347   7.212   8.550
 4561POPC   C2B18824  24.387   7.153   8.250
 4561POPC   C3B18825  24.426   7.142   7.950
 4561POPC   C4B18826  24.416   7.219   7.650
 4562POPC   NC318827   9.728   3.499   9.450
 4562POPC   PO418828   9.715   3.574   9.150
 4562POPC   GL118829   9.710   3.545   8.850
 4562POPC   GL218830   9.664   3.624   8.850
 4562POPC   C1A18831   9.726   3.579   8.550
 4562POPC   D2A18832   9.738   3.554   8.250
 4562POPC   C3A18833   9.705   3.526   7.950
 4562POPC   C4A18834   9.733   3.590   7.650
 4562POPC   C1B18835   9.576   3.791   8.550
 4562POPC   C2B18836   9.637   3.771   8.250
 4562POPC   C3B18837   9.641   3.764   7.950
 4562POPC   C4B18838   9.651   3.708   7.650
 4563POPC   NC318839  26.823  40.744   9.450
 4563POPC   PO418840  26.811  40.825   9.150
 4563POPC   GL118841  26.839  40.789   8.850
 4563POPC   GL218842  26.888  40.697   8.850
 4563POPC   C1A18843  26.808  40.774   8.550
 4563POPC   D2A18844  26.848  40.735   8.250
 4563POPC   C3A18845  26.800  40.762   7.950
 4563POPC   C4A18846  26.822  40.774   7.650
 4563POPC   C1B18847  26.940  40.534   8.550
 4563POPC   C2B18848  26.857  40.544   8.250
 4563POPC   C3B18849  26.897  40.552   7.950
 4563POPC   C4B18850  26.929  40.536   7.650
 4564POPC   NC318851  12.063  31.443   9.450
 4564POPC   PO418852  12.077  31.433   9.150
 4564POPC   GL118853  12.064  31.487   8.850
 4564POPC   GL218854  12.160  31.622   8.850
 4564POPC   C1A18855  12.040  31.458   8.550
 4564POPC   D2A18856  12.092  31.505   8.250
 4564POPC   C3A18857  12.084  31.468   7.950
 4564POPC   C4A18858  12.103  31.447   7.650
 4564POPC   C1B18859  12.252  31.712   8.550
 4564POPC   C2B18860  12.233  31.696   8.250
 4564POPC   C3B18861  12.183  31.716   7.950
 4564POPC   C4B18862  12.162  31.642   7.650
 4565POPC   NC318863  25.305  20.623   9.450
 4565POPC   PO418864  25.244  20.645   9.150
 4565POPC   GL118865  25.275  20.602   8.850
 4565POPC   GL218866  25.303  20.708   8.850
 4565POPC   C1A18867  25.244  20.616   8.550
 4565POPC   D2A18868  25.298  20.647   8.250
 4565POPC   C3A18869  25.222  20.637   7.950
 4565POPC   C4A18870  25.308  20.616   7.650
 4565POPC   C1B18871  25.368  20.821   8.550
 4565POPC   C2B18872  25.418  20.879   8.250
 4565POPC   C3B18873  25.377  20.803   7.950
 4565POPC   C4B18874  25.365  20.866   7.650
 4566POPC   NC318875  16.726  15.933   9.450
 4566POPC   PO418876  16.694  15.999   9.150
 4566POPC   GL118877  16.686  15.993   8.850
 4566POPC   GL218878  16.891  15.984   8.850
 4566POPC   C1A18879  16.689  15.917   8.550
 4566POPC   D2A18880  16.774  15.986   8.250
 4566POPC   C3A18881  16.733  15.942   7.950
 4566POPC   C4A18882  16.711  16.001   7.650
 4566POPC   C1B18883  16.932  15.967   8.550
 4566POPC   C2B18884  17.006  16.015   8.250
 4566POPC   C3B18885  17.021  16.046   7.950
 4566POPC   C4B18886  16.996  15.955   7.650
 4567POPC   NC318887  33.778   2.782   9.450
 4567POPC   PO418888  33.823   2.745   9.150
 4567POPC   GL118889  33.753   2.753   8.850
 4567POPC   GL218890  33.757   2.676   8.850
 4567POPC   C1A18891  33.826   2.783   8.550
 4567POPC   D2A18892  33.842   2.780   8.250
 4567POPC   C3A18893  33.823   2.792   7.950
 4567POPC   C4A18894  33.841   2.785   7.650
 4567POPC   C1B18895  33.779   2.480   8.550
 4567POPC   C2B18896  33.754   2.501   8.250
 4567POPC   C3B18897  33.750   2.484   7.950
 4567POPC   C4B18898  33.765   2.516   7.650
 4568POPC   NC318899   7.414  43.140   9.450
 4568POPC   PO418900   7.442  43.065   9.150
 4568POPC   GL118901   7.421  43.147   8.850
 4568POPC   GL218902   7.472  42.981   8.850
 4568POPC   C1A18903   7.457  43.107   8.550
 4568POPC   D2A18904   7.407  43.081   8.250
 4568POPC   C3A18905   7.449  43.112   7.950
 4568POPC   C4A18906   7.453  43.150   7.650
 4568POPC   C1B18907   7.531  42.912   8.550
 4568POPC   C2B18908   7.607  42.901   8.250
 4568POPC   C3B18909   7.573  42.896   7.950
 4568POPC   C4B18910   7.608  42.900   7.650
 4569POPC   NC318911  26.809  12.117   9.450
 4569POPC   PO418912  26.867  12.030   9.150
 4569POPC   GL118913  26.813  12.118   8.850
 4569POPC   GL218914  26.724  12.048   8.850
 4569POPC   C1A18915  26.832  12.057   8.550
 4569POPC   D2A18916  26.859  12.084   8.250
 4569POPC   C3A18917  26.780  12.103   7.950
 4569POPC   C4A18918  26.831  12.088   7.650
 4569POPC   C1B18919  26.621  12.047   8.550
 4569POPC   C2B18920  26.619  12.032   8.250
 4569POPC   C3B18921  26.583  12.001   7.950
 4569POPC   C4B18922  26.558  12.044   7.650
 4570POPC   NC318923  26.791  22.161   9.450
 4570POPC   PO418924  26.829  22.134   9.150
 4570POPC   GL118925  26.770  22.179   8.850
 4570POPC   GL218926  26.892  22.150   8.850
 4570POPC   C1A18927  26.782  22.172   8.550
 4570POPC   D2A18928  26.785  22.152   8.250
 4570POPC   C3A18929  26.806  22.132   7.950
 4570POPC   C4A18930  26.842  22.177   7.650
 4570POPC   C1B18931  27.067  22.159   8.550
 4570POPC   C2B18932  27.025  22.166   8.250
 4570POPC   C3B18933  27.079  22.174   7.950
 4570POPC   C4B18934  27.104  22.157   7.650
 4571POPC   NC318935  29.904  19.047   9.450
 4571POPC   PO418936  29.932  19.072   9.150
 4571POPC   GL118937  29.910  19.049   8.850
 4571POPC   GL218938  29.899  19.192   8.850
 4571POPC   C1A18939  29.888  19.084   8.550
 4571POPC   D2A18940  29.891  19.026   8.250
 4571POPC   C3A18941  29.964  19.104   7.950
 4571POPC   C4A18942  29.963  19.065   7.650
 4571POPC   C1B18943  29.750  19.282   8.550
 4571POPC   C2B18944  29.834  19.225   8.250
 4571POPC   C3B18945  29.814  19.256   7.950
 4571POPC   C4B18946  29.763  19.299   7.650
 4572POPC   NC318947  30.704  36.093   9.450
 4572POPC   PO418948  30.662  36.156   9.150
 4572POPC   GL118949  30.657  36.134   8.850
 4572POPC   GL218950  30.825  36.049   8.850
 4572POPC   C1A18951  30.662  36.091   8.550
 4572POPC   D2A18952  30.703  36.119   8.250
 4572POPC   C3A18953  30.693  36.104   7.950
 4572POPC   C4A18954  30.682  36.128   7.650
 4572POPC   C1B18955  30.824  35.905   8.550
 4572POPC   C2B18956  30.837  35.925   8.250
 4572POPC   C3B18957  30.869  35.957   7.950
 4572POPC   C4B18958  30.855  35.896   7.650
 4573POPC   NC318959  29.128   2.737   9.450
 4573POPC   PO418960  29.190   2.766   9.150
 4573POPC   GL118961  29.139   2.762   8.850
 4573POPC   GL218962  29.114   2.862   8.850
 4573POPC   C1A18963  29.108   2.722   8.550
 4573POPC   D2A18964  29.135   2.722   8.250
 4573POPC   C3A18965  29.168   2.804   7.950
 4573POPC   C4A18966  29.112   2.737   7.650
 4573POPC   C1B18967  29.015   3.005   8.550
 4573POPC   C2B18968  29.056   2.957   8.250
 4573POPC   C3B18969  29.030   2.952   7.950
 4573POPC   C4B18970  29.059   2.956   7.650
 4574POPC   NC318971   4.346  43.071   9.450
 4574POPC   PO418972   4.282  43.142   9.150
 4574POPC   GL118973   4.307  43.137   8.850
 4574POPC   GL218974   4.428  43.067   8.850
 4574POPC   C1A18975   4.309  43.081   8.550
 4574POPC   D2A18976   4.358  43.063   8.250
 4574POPC   C3A18977   4.306  43.150   7.950
 4574POPC   C4A18978   4.274  43.080   7.650
 4574POPC   C1B18979   4.538  43.011   8.550
 4574POPC   C2B18980   4.546  43.020   8.250
 4574POPC   C3B18981   4.515  42.983   7.950
 4574POPC   C4B18982   4.555  42.942   7.650
 4575POPC   NC318983   2.008  22.148   9.450
 4575POPC   PO418984   2.037  22.195   9.150
 4575POPC   GL118985   2.026  22.151   8.850
 4575POPC   GL218986   2.047  22.310   8.850
 4575POPC   C1A18987   1.976  22.201   8.550
 4575POPC   D2A18988   1.951  22.183   8.250
 4575POPC   C3A18989   1.946  22.149   7.950
 4575POPC   C4A18990   1.975  22.146   7.650
 4575POPC   C1B18991   2.057  22.354   8.550
 4575POPC   C2B18992   2.015  22.362   8.250
 4575POPC   C3B18993   2.056  22.395   7.950
 4575POPC   C4B18994   2.081  22.391   7.650
 4576POPC   NC318995  21.416   7.438   9.450
 4576POPC   PO418996  21.404   7.384   9.150
 4576POPC   GL118997  21.351   7.470   8.850
 4576POPC   GL218998  21.326   7.569   8.850
 4576POPC   C1A18999  21.399   7.379   8.550
 4576POPC   D2A19000  21.353   7.396   8.250
 4576POPC   C3A19001  21.352   7.393   7.950
 4576POPC   C4A19002  21.340   7.403   7.650
 4576POPC   C1B19003  21.355   7.645   8.550
 4576POPC   C2B19004  21.327   7.636   8.250
 4576POPC   C3B19005  21.399   7.710   7.950
 4576POPC   C4B19006  21.352   7.643   7.650
 4577POPC   NC319007  22.906   2.722   9.450
 4577POPC   PO419008  22.977   2.761   9.150
 4577POPC   GL119009  22.962   2.745   8.850
 4577POPC   GL219010  23.063   2.815   8.850
 4577POPC   C1A19011  22.941   2.805   8.550
 4577POPC   D2A19012  22.972   2.758   8.250
 4577POPC   C3A19013  22.949   2.803   7.950
 4577POPC   C4A19014  22.974   2.762   7.650
 4577POPC   C1B19015  23.190   2.884   8.550
 4577POPC   C2B19016  23.151   2.890   8.250
 4577POPC   C3B19017  23.200   2.885   7.950
 4577POPC   C4B19018  23.174   2.850   7.650
 4578POPC   NC319019   2.031   2.752   9.450
 4578POPC   PO419020   1.959   2.743   9.150
 4578POPC   GL119021   2.031   2.769   8.850
 4578POPC   GL219022   2.159   2.761   8.850
 4578POPC   C1A19023   2.036   2.722   8.550
 4578POPC   D2A19024   1.944   2.736   8.250
 4578POPC   C3A19025   1.987   2.795   7.950
 4578POPC   C4A19026   2.003   2.781   7.650
 4578POPC   C1B19027   2.215   2.742   8.550
 4578POPC   C2B19028   2.194   2.755   8.250
 4578POPC   C3B19029   2.234   2.771   7.950
 4578POPC   C4B19030   2.234   2.784   7.650
 4579POPC   NC319031  10.554   6.664   9.450
 4579POPC   PO419032  10.551   6.598   9.150
 4579POPC   GL119033  10.476   6.615   8.850
 4579POPC   GL219034  10.619   6.678   8.850
 4579POPC   C1A19035  10.498   6.690   8.550
 4579POPC   D2A19036  10.486   6.668   8.250
 4579POPC   C3A19037  10.498   6.694   7.950
 4579POPC   C4A19038  10.533   6.637   7.650
 4579POPC   C1B19039  10.801   6.682   8.550
 4579POPC   C2B19040  10.755   6.642   8.250
 4579POPC   C3B19041  10.789   6.607   7.950
 4579POPC   C4B19042  10.824   6.655   7.650
 4580POPC   NC319043  22.170  41.535   9.450
 4580POPC   PO419044  22.191  41.595   9.150
 4580POPC   GL119045  22.208  41.520   8.850
 4580POPC   GL219046  22.286  41.490   8.850
 4580POPC   C1A19047  22.204  41.566   8.550
 4580POPC   D2A19048  22.144  41.529   8.250
 4580POPC   C3A19049  22.190  41.527   7.950
 4580POPC   C4A19050  22.154  41.529   7.650
 4580POPC   C1B19051  22.310  41.410   8.550
 4580POPC   C2B19052  22.373  41.346   8.250
 4580POPC   C3B19053  22.352  41.400   7.950
 4580POPC   C4B19054  22.308  41.369   7.650
 4581POPC   NC319055  29.137  15.205   9.450
 4581POPC   PO419056  29.159  15.220   9.150
 4581POPC   GL119057  29.173  15.203   8.850
 4581POPC   GL219058  29.209  15.096   8.850
 4581POPC   C1A19059  29.167  15.210   8.550
 4581POPC   D2A19060  29.174  15.192   8.250
 4581POPC   C3A19061  29.183  15.205   7.950
 4581POPC   C4A19062  29.186  15.136   7.650
 4581POPC   C1B19063  29.295  15.007   8.550
 4581POPC   C2B19064  29.322  15.047   8.250
 4581POPC   C3B19065  29.361  15.045   7.950
 4581POPC   C4B19066  29.269  15.033   7.650
 4582POPC   NC319067  16.716  11.300   9.450
 4582POPC   PO419068  16.781  11.271   9.150
 4582POPC   GL119069  16.713  11.258   8.850
 4582POPC   GL219070  16.773  11.386   8.850
 4582POPC   C1A19071  16.728  11.286   8.550
 4582POPC   D2A19072  16.683  11.272   8.250
 4582POPC   C3A19073  16.738  11.264   7.950
 4582POPC   C4A19074  16.687  11.321   7.650
 4582POPC   C1B19075  16.763  11.505   8.550
 4582POPC   C2B19076  16.770  11.544   8.250
 4582POPC   C3B19077  16.830  11.584   7.950
 4582POPC   C4B19078  16.829  11.564   7.650
 4583POPC   NC319079  38.426  31.488   9.450
 4583POPC   PO419080  38.497  31.466   9.150
 4583POPC   GL119081  38.423  31.444   8.850
 4583POPC   GL219082  38.615  31.559   8.850
 4583POPC   C1A19083  38.502  31.513   8.550
 4583POPC   D2A19084  38.469  31.520   8.250
 4583POPC   C3A19085  38.408  31.463   7.950
 4583POPC   C4A19086  38.419  31.453   7.650
 4583POPC   C1B19087  38.703  31.548   8.550
 4583POPC   C2B19088  38.664  31.568   8.250
 4583POPC   C3B19089  38.698  31.619   7.950
 4583POPC   C4B19090  38.720  31.567   7.650
 4584POPC   NC319091  39.960   9.760   9.450
 4584POPC   PO419092  40.009   9.747   9.150
 4584POPC   GL119093  39.980   9.735   8.850
 4584POPC   GL219094  39.925   9.724   8.850
 4584POPC   C1A19095  40.048   9.744   8.550
 4584POPC   D2A19096  40.032   9.733   8.250
 4584POPC   C3A19097  40.008   9.749   7.950
 4584POPC   C4A19098  39.965   9.757   7.650
 4584POPC   C1B19099  39.733   9.770   8.550
 4584POPC   C2B19100  39.786   9.757   8.250
 4584POPC   C3B19101  39.792   9.821   7.950
 4584POPC   C4B19102  39.760   9.787   7.650
 4585POPC   NC319103  25.217  26.048   9.450
 4585POPC   PO419104  25.242  26.044   9.150
 4585POPC   GL119105  25.229  25.993   8.850
 4585POPC   GL219106  25.307  25.927   8.850
 4585POPC   C1A19107  25.224  25.999   8.550
 4585POPC   D2A19108  25.241  25.992   8.250
 4585POPC   C3A19109  25.302  26.049   7.950
 4585POPC   C4A19110  25.304  26.050   7.650
 4585POPC   C1B19111  25.411  25.828   8.550
 4585POPC   C2B19112  25.431  25.882   8.250
 4585POPC   C3B19113  25.411  25.877   7.950
 4585POPC   C4B19114  25.457  25.853   7.650
 4586POPC   NC319115  10.531   9.785   9.450
 4586POPC   PO419116  10.530   9.717   9.150
 4586POPC   GL119117  10.570   9.729   8.850
 4586POPC   GL219118  10.518   9.584   8.850
 4586POPC   C1A19119  10.533   9.710   8.550
 4586POPC   D2A19120  10.526   9.758   8.250
 4586POPC   C3A19121  10.484   9.748   7.950
 4586POPC   C4A19122  10.539   9.718   7.650
 4586POPC   C1B19123  10.575   9.462   8.550
 4586POPC   C2B19124  10.576   9.524   8.250
 4586POPC   C3B19125  10.534   9.453   7.950
 4586POPC   C4B19126  10.571   9.454   7.650
 4587POPC   NC319127   2.032   3.570   9.450
 4587POPC   PO419128   1.940   3.513   9.150
 4587POPC   GL119129   2.006   3.561   8.850
 4587POPC   GL219130   1.909   3.517   8.850
 4587POPC   C1A19131   1.941   3.519   8.550
 4587POPC   D2A19132   1.992   3.533   8.250
 4587POPC   C3A19133   1.969   3.530   7.950
 4587POPC   C4A19134   1.960   3.529   7.650
 4587POPC   C1B19135   1.754   3.542   8.550
 4587POPC   C2B19136   1.708   3.532   8.250
 4587POPC   C3B19137   1.713   3.570   7.950
 4587POPC   C4B19138   1.781   3.533   7.650
 4588POPC   NC319139   2.738   2.752   9.450
 4588POPC   PO419140   2.745   2.782   9.150
 4588POPC   GL119141   2.751   2.785   8.850
 4588POPC   GL219142   2.687   2.832   8.850
 4588POPC   C1A19143   2.722   2.725   8.550
 4588POPC   D2A19144   2.769   2.799   8.250
 4588POPC   C3A19145   2.814   2.766   7.950
 4588POPC   C4A19146   2.723   2.786   7.650
 4588POPC   C1B19147   2.535   2.760   8.550
 4588POPC   C2B19148   2.532   2.830   8.250
 4588POPC   C3B19149   2.470   2.806   7.950
 4588POPC   C4B19150   2.535   2.781   7.650
 4589POPC   NC319151  43.133  41.603   9.450
 4589POPC   PO419152  43.147  41.578   9.150
 4589POPC   GL119153  43.118  41.511   8.850
 4589POPC   GL219154  42.983  41.546   8.850
 4589POPC   C1A19155  43.130  41.569   8.550
 4589POPC   D2A19156  43.131  41.530   8.250
 4589POPC   C3A19157  43.084  41.521   7.950
 4589POPC   C4A19158  43.150  41.535   7.650
 4589POPC   C1B19159  42.821  41.640   8.550
 4589POPC   C2B19160  42.840  41.669   8.250
 4589POPC   C3B19161  42.874  41.653   7.950
 4589POPC   C4B19162  42.856  41.610   7.650
 4590POPC   NC319163  12.054  12.122   9.450
 4590POPC   PO419164  12.094  12.042   9.150
 4590POPC   GL119165  12.078  12.074   8.850
 4590POPC   GL219166  12.048  11.939   8.850
 4590POPC   C1A19167  12.076  12.081   8.550
 4590POPC   D2A19168  12.053  12.051   8.250
 4590POPC   C3A19169  12.045  12.070   7.950
 4590POPC   C4A19170  12.098  12.041   7.650
 4590POPC   C1B19171  12.126  11.875   8.550
 4590POPC   C2B19172  12.126  11.804   8.250
 4590POPC   C3B19173  12.121  11.876   7.950
 4590POPC   C4B19174  12.061  11.777   7.650
 4591POPC   NC319175  19.068  33.845   9.450
 4591POPC   PO419176  19.054  33.768   9.150
 4591POPC   GL119177  19.013  33.848   8.850
 4591POPC   GL219178  19.120  33.685   8.850
 4591POPC   C1A19179  19.031  33.786   8.550
 4591POPC   D2A19180  19.091  33.833   8.250
 4591POPC   C3A19181  19.060  33.803   7.950
 4591POPC   C4A19182  19.034  33.779   7.650
 4591POPC   C1B19183  19.143  33.522   8.550
 4591POPC   C2B19184  19.123  33.512   8.250
 4591POPC   C3B19185  19.115  33.519   7.950
 4591POPC   C4B19186  19.133  33.518   7.650
 4592POPC   NC319187   1.218  31.512   9.450
 4592POPC   PO419188   1.211  31.424   9.150
 4592POPC   GL119189   1.203  31.488   8.850
 4592POPC   GL219190   1.061  31.397   8.850
 4592POPC   C1A19191   1.230  31.459   8.550
 4592POPC   D2A19192   1.235  31.493   8.250
 4592POPC   C3A19193   1.182  31.469   7.950
 4592POPC   C4A19194   1.216  31.433   7.650
 4592POPC   C1B19195   0.956  31.390   8.550
 4592POPC   C2B19196   1.016  31.334   8.250
 4592POPC   C3B19197   0.956  31.402   7.950
 4592POPC   C4B19198   0.974  31.396   7.650
 4593POPC   NC319199  23.703  29.886   9.450
 4593POPC   PO419200  23.763  29.909   9.150
 4593POPC   GL119201  23.681  29.920   8.850
 4593POPC   GL219202  23.764  29.850   8.850
 4593POPC   C1A19203  23.715  29.946   8.550
 4593POPC   D2A19204  23.676  29.888   8.250
 4593POPC   C3A19205  23.673  29.941   7.950
 4593POPC   C4A19206  23.753  29.904   7.650
 4593POPC   C1B19207  23.815  29.654   8.550
 4593POPC   C2B19208  23.769  29.673   8.250
 4593POPC   C3B19209  23.795  29.666   7.950
 4593POPC   C4B19210  23.774  29.721   7.650
 4594POPC   NC319211  22.183   8.968   9.450
 4594POPC   PO419212  22.197   8.942   9.150
 4594POPC   GL119213  22.178   8.962   8.850
 4594POPC   GL219214  22.057   8.911   8.850
 4594POPC   C1A19215  22.118   8.984   8.550
 4594POPC   D2A19216  22.129   8.968   8.250
 4594POPC   C3A19217  22.128   9.018   7.950
 4594POPC   C4A19218  22.146   8.947   7.650
 4594POPC   C1B19219  21.996   8.807   8.550
 4594POPC   C2B19220  22.011   8.764   8.250
 4594POPC   C3B19221  22.038   8.745   7.950
 4594POPC   C4B19222  22.013   8.742   7.650
 4595POPC   NC319223  20.572  31.499   9.450
 4595POPC   PO419224  20.632  31.439   9.150
 4595POPC   GL119225  20.584  31.496   8.850
 4595POPC   GL219226  20.505  31.451   8.850
 4595POPC   C1A19227  20.611  31.469   8.550
 4595POPC   D2A19228  20.566  31.452   8.250
 4595POPC   C3A19229  20.584  31.482   7.950
 4595POPC   C4A19230  20.571  31.490   7.650
 4595POPC   C1B19231  20.418  31.367   8.550
 4595POPC   C2B19232  20.395  31.431   8.250
 4595POPC   C3B19233  20.405  31.383   7.950
 4595POPC   C4B19234  20.376  31.366   7.650
 4596POPC   NC319235  26.090  27.601   9.450
 4596POPC   PO419236  26.021  27.563   9.150
 4596POPC   GL119237  26.059  27.557   8.850
 4596POPC   GL219238  26.132  27.566   8.850
 4596POPC   C1A19239  26.019  27.581   8.550
 4596POPC   D2A19240  26.007  27.625   8.250
 4596POPC   C3A19241  26.076  27.624   7.950
 4596POPC   C4A19242  26.018  27.594   7.650
 4596POPC   C1B19243  26.319  27.540   8.550
 4596POPC   C2B19244  26.307  27.556   8.250
 4596POPC   C3B19245  26.277  27.545   7.950
 4596POPC   C4B19246  26.297  27.565   7.650
 4597POPC   NC319247   0.480   6.646   9.450
 4597POPC   PO419248   0.404   6.597   9.150
 4597POPC   GL119249   0.428   6.631   8.850
 4597POPC   GL219250   0.344   6.693   8.850
 4597POPC   C1A19251   0.445   6.619   8.550
 4597POPC   D2A19252   0.461   6.670   8.250
 4597POPC   C3A19253   0.446   6.660   7.950
 4597POPC   C4A19254   0.471   6.636   7.650
 4597POPC   C1B19255   0.261   6.749   8.550
 4597POPC   C2B19256   0.264   6.830   8.250
 4597POPC   C3B19257   0.232   6.827   7.950
 4597POPC   C4B19258   0.231   6.776   7.650
 4598POPC   NC319259  41.569  35.349   9.450
 4598POPC   PO419260  41.524  35.336   9.150
 4598POPC   GL119261  41.527  35.351   8.850
 4598POPC   GL219262  41.449  35.369   8.850
 4598POPC   C1A19263  41.601  35.360   8.550
 4598POPC   D2A19264  41.609  35.391   8.250
 4598POPC   C3A19265  41.560  35.318   7.950
 4598POPC   C4A19266  41.572  35.360   7.650
 4598POPC   C1B19267  41.315  35.321   8.550
 4598POPC   C2B19268  41.332  35.291   8.250
 4598POPC   C3B19269  41.329  35.288   7.950
 4598POPC   C4B19270  41.298  35.314   7.650
 4599POPC   NC319271  39.247  20.610   9.450
 4599POPC   PO419272  39.221  20.576   9.150
 4599POPC   GL119273  39.240  20.597   8.850
 4599POPC   GL219274  39.315  20.573   8.850
 4599POPC   C1A19275  39.229  20.578   8.550
 4599POPC   D2A19276  39.262  20.641   8.250
 4599POPC   C3A19277  39.234  20.657   7.950
 4599POPC   C4A19278  39.275  20.616   7.650
 4599POPC   C1B19279  39.494  20.496   8.550
 4599POPC   C2B19280  39.415  20.493   8.250
 4599POPC   C3B19281  39.450  20.499   7.950
 4599POPC   C4B19282  39.446  20.513   7.650
 4600POPC   NC319283  23.740  41.544   9.450
 4600POPC   PO419284  23.757  41.547   9.150
 4600POPC   GL119285  23.724  41.513   8.850
 4600POPC   GL219286  23.601  41.633   8.850
 4600POPC   C1A19287  23.757  41.528   8.550
 4600POPC   D2A19288  23.686  41.560   8.250
 4600POPC   C3A19289  23.670  41.577   7.950
 4600POPC   C4A19290  23.736  41.523   7.650
 4600POPC   C1B19291  23.588  41.763   8.550
 4600POPC   C2B19292  23.538  41.760   8.250
 4600POPC   C3B19293  23.537  41.821   7.950
 4600POPC   C4B19294  23.568  41.760   7.650
 4601POPC   NC319295  24.471  42.350   9.450
 4601POPC   PO419296  24.441  42.365   9.150
 4601POPC   GL119297  24.441  42.345   8.850
 4601POPC   GL219298  24.404  42.473   8.850
 4601POPC   C1A19299  24.464  42.355   8.550
 4601POPC   D2A19300  24.461  42.332   8.250
 4601POPC   C3A19301  24.537  42.358   7.950
 4601POPC   C4A19302  24.510  42.302   7.650
 4601POPC   C1B19303  24.350  42.546   8.550
 4601POPC   C2B19304  24.404  42.566   8.250
 4601POPC   C3B19305  24.384  42.531   7.950
 4601POPC   C4B19306  24.351  42.566   7.650
 4602POPC   NC319307  29.934   5.110   9.450
 4602POPC   PO419308  29.919   5.136   9.150
 4602POPC   GL119309  29.965   5.075   8.850
 4602POPC   GL219310  30.055   5.157   8.850
 4602POPC   C1A19311  29.969   5.077   8.550
 4602POPC   D2A19312  29.909   5.099   8.250
 4602POPC   C3A19313  29.951   5.054   7.950
 4602POPC   C4A19314  29.883   5.062   7.650
 4602POPC   C1B19315  30.115   5.245   8.550
 4602POPC   C2B19316  30.093   5.272   8.250
 4602POPC   C3B19317  30.138   5.275   7.950
 4602POPC   C4B19318  30.163   5.233   7.650
 4603POPC   NC319319  26.001  14.371   9.450
 4603POPC   PO419320  26.060  14.443   9.150
 4603POPC   GL119321  25.993  14.453   8.850
 4603POPC   GL219322  26.014  14.526   8.850
 4603POPC   C1A19323  25.993  14.398   8.550
 4603POPC   D2A19324  25.994  14.446   8.250
 4603POPC   C3A19325  26.080  14.374   7.950
 4603POPC   C4A19326  26.075  14.436   7.650
 4603POPC   C1B19327  26.028  14.613   8.550
 4603POPC   C2B19328  26.017  14.656   8.250
 4603POPC   C3B19329  26.051  14.664   7.950
 4603POPC   C4B19330  26.054  14.703   7.650
 4604POPC   NC319331   7.424  41.593   9.450
 4604POPC   PO419332   7.411  41.568   9.150
 4604POPC   GL119333   7.388  41.568   8.850
 4604POPC   GL219334   7.401  41.497   8.850
 4604POPC   C1A19335   7.466  41.552   8.550
 4604POPC   D2A19336   7.371  41.587   8.250
 4604POPC   C3A19337   7.408  41.510   7.950
 4604POPC   C4A19338   7.416  41.586   7.650
 4604POPC   C1B19339   7.285  41.343   8.550
 4604POPC   C2B19340   7.297  41.358   8.250
 4604POPC   C3B19341   7.262  41.349   7.950
 4604POPC   C4B19342   7.324  41.345   7.650
 4605POPC   NC319343  32.257  38.443   9.450
 4605POPC   PO419344  32.275  38.439   9.150
 4605POPC   GL119345  32.263  38.472   8.850
 4605POPC   GL219346  32.101  38.515   8.850
 4605POPC   C1A19347  32.211  38.451   8.550
 4605POPC   D2A19348  32.292  38.498   8.250
 4605POPC   C3A19349  32.269  38.408   7.950
 4605POPC   C4A19350  32.212  38.434   7.650
 4605POPC   C1B19351  31.992  38.528   8.550
 4605POPC   C2B19352  32.035  38.513   8.250
 4605POPC   C3B19353  32.046  38.461   7.950
 4605POPC   C4B19354  32.022  38.493   7.650
 4606POPC   NC319355  11.299  42.355   9.450
 4606POPC   PO419356  11.316  42.347   9.150
 4606POPC   GL119357  11.304  42.320   8.850
 4606POPC   GL219358  11.368  42.412   8.850
 4606POPC   C1A19359  11.330  42.331   8.550
 4606POPC   D2A19360  11.327  42.374   8.250
 4606POPC   C3A19361  11.316  42.299   7.950
 4606POPC   C4A19362  11.329  42.373   7.650
 4606POPC   C1B19363  11.520  42.467   8.550
 4606POPC   C2B19364  11.526  42.450   8.250
 4606POPC   C3B19365  11.524  42.472   7.950
 4606POPC   C4B19366  11.533  42.531   7.650
 4607POPC   NC319367  29.898  36.924   9.450
 4607POPC   PO419368  29.942  36.936   9.150
 4607POPC   GL119369  29.887  36.878   8.850
 4607POPC   GL219370  29.934  36.826   8.850
 4607POPC   C1A19371  29.874  36.875   8.550
 4607POPC   D2A19372  29.964  36.949   8.250
 4607POPC   C3A19373  29.960  36.920   7.950
 4607POPC   C4A19374  29.931  36.950   7.650
 4607POPC   C1B19375  29.921  36.675   8.550
 4607POPC   C2B19376  29.877  36.690   8.250
 4607POPC   C3B19377  29.900  36.619   7.950
 4607POPC   C4B19378  29.931  36.647   7.650
 4608POPC   NC319379  36.918   3.547   9.450
 4608POPC   PO419380  36.865   3.503   9.150
 4608POPC   GL119381  36.948   3.561   8.850
 4608POPC   GL219382  36.883   3.419   8.850
 4608POPC   C1A19383  36.942   3.522   8.550
 4608POPC   D2A19384  36.859   3.580   8.250
 4608POPC   C3A19385  36.912   3.564   7.950
 4608POPC   C4A19386  36.901   3.526   7.650
 4608POPC   C1B19387  36.915   3.341   8.550
 4608POPC   C2B19388  36.934   3.316   8.250
 4608POPC   C3B19389  36.957   3.315   7.950
 4608POPC   C4B19390  36.917   3.267   7.650
 4609POPC   NC319391  32.274   8.942   9.450
 4609POPC   PO419392  32.205   8.994   9.150
 4609POPC   GL119393  32.286   8.995   8.850
 4609POPC   GL219394  32.344   8.869   8.850
 4609POPC   C1A19395  32.246   8.939   8.550
 4609POPC   D2A19396  32.208   9.002   8.250
 4609POPC   C3A19397  32.240   8.960   7.950
 4609POPC   C4A19398  32.243   8.932   7.650
 4609POPC   C1B19399  32.394   8.746   8.550
 4609POPC   C2B19400  32.389   8.781   8.250
 4609POPC   C3B19401  32.399   8.748   7.950
 4609POPC   C4B19402  32.382   8.744   7.650
 4610POPC   NC319403   6.628   9.788   9.450
 4610POPC   PO419404   6.655   9.753   9.150
 4610POPC   GL119405   6.606   9.765   8.850
 4610POPC   GL219406   6.750   9.698   8.850
 4610POPC   C1A19407   6.662   9.709   8.550
 4610POPC   D2A19408   6.597   9.774   8.250
 4610POPC   C3A19409   6.631   9.714   7.950
 4610POPC   C4A19410   6.618   9.713   7.650
 4610POPC   C1B19411   6.893   9.722   8.550
 4610POPC   C2B19412   6.858   9.702   8.250
 4610POPC   C3B19413   6.839   9.704   7.950
 4610POPC   C4B19414   6.906   9.735   7.650
 4611POPC   NC319415   7.446  43.910   9.450
 4611POPC   PO419416   7.412  43.900   9.150
 4611POPC   GL119417   7.384  43.910   8.850
 4611POPC   GL219418   7.253  43.803   8.850
 4611POPC   C1A19419   7.455  43.907   8.550
 4611POPC   D2A19420   7.406  43.926   8.250
 4611POPC   C3A19421   7.462  43.845   7.950
 4611POPC   C4A19422   7.385  43.854   7.650
 4611POPC   C1B19423   7.223  43.813   8.550
 4611POPC   C2B19424   7.232  43.780   8.250
 4611POPC   C3B19425   7.160  43.772   7.950
 4611POPC   C4B19426   7.168  43.775   7.650
 4612POPC   NC319427  25.245   8.201   9.450
 4612POPC   PO419428  25.271   8.201   9.150
 4612POPC   GL119429  25.242   8.156   8.850
 4612POPC   GL219430  25.184   8.187   8.850
 4612POPC   C1A19431  25.246   8.169   8.550
 4612POPC   D2A19432  25.313   8.157   8.250
 4612POPC   C3A19433  25.265   8.214   7.950
 4612POPC   C4A19434  25.289   8.232   7.650
 4612POPC   C1B19435  24.971   8.207   8.550
 4612POPC   C2B19436  25.009   8.240   8.250
 4612POPC   C3B19437  25.043   8.198   7.950
 4612POPC   C4B19438  25.037   8.252   7.650
 4613POPC   NC319439  31.461  33.008   9.450
 4613POPC   PO419440  31.444  33.029   9.150
 4613POPC   GL119441  31.478  32.983   8.850
 4613POPC   GL219442  31.329  33.073   8.850
 4613POPC   C1A19443  31.432  33.064   8.550
 4613POPC   D2A19444  31.474  33.018   8.250
 4613POPC   C3A19445  31.451  33.046   7.950
 4613POPC   C4A19446  31.437  33.015   7.650
 4613POPC   C1B19447  31.218  33.062   8.550
 4613POPC   C2B19448  31.243  32.984   8.250
 4613POPC   C3B19449  31.227  32.989   7.950
 4613POPC   C4B19450  31.267  33.077   7.650
 4614POPC   NC319451  29.896  15.922   9.450
 4614POPC   PO419452  29.941  16.004   9.150
 4614POPC   GL119453  29.892  15.949   8.850
 4614POPC   GL219454  29.960  15.836   8.850
 4614POPC   C1A19455  29.940  15.913   8.550
 4614POPC   D2A19456  29.943  15.975   8.250
 4614POPC   C3A19457  29.928  15.908   7.950
 4614POPC   C4A19458  29.946  15.908   7.650
 4614POPC   C1B19459  29.990  15.722   8.550
 4614POPC   C2B19460  30.006  15.722   8.250
 4614POPC   C3B19461  30.063  15.712   7.950
 4614POPC   C4B19462  30.015  15.717   7.650
 4615POPC   NC319463  30.732   2.781   9.450
 4615POPC   PO419464  30.732   2.744   9.150
 4615POPC   GL119465  30.724   2.756   8.850
 4615POPC   GL219466  30.706   2.673   8.850
 4615POPC   C1A19467  30.746   2.760   8.550
 4615POPC   D2A19468  30.691   2.799   8.250
 4615POPC   C3A19469  30.675   2.731   7.950
 4615POPC   C4A19470  30.648   2.790   7.650
 4615POPC   C1B19471  30.769   2.530   8.550
 4615POPC   C2B19472  30.755   2.563   8.250
 4615POPC   C3B19473  30.754   2.525   7.950
 4615POPC   C4B19474  30.743   2.552   7.650
 4616POPC   NC319475  21.367  30.716   9.450
 4616POPC   PO419476  21.351  30.666   9.150
 4616POPC   GL119477  21.435  30.697   8.850
 4616POPC   GL219478  21.238  30.701   8.850
 4616POPC   C1A19479  21.430  30.666   8.550
 4616POPC   D2A19480  21.420  30.690   8.250
 4616POPC   C3A19481  21.432  30.715   7.950
 4616POPC   C4A19482  21.405  30.675   7.650
 4616POPC   C1B19483  21.175  30.736   8.550
 4616POPC   C2B19484  21.180  30.681   8.250
 4616POPC   C3B19485  21.158  30.670   7.950
 4616POPC   C4B19486  21.133  30.654   7.650
 4617POPC   NC319487  43.150   5.126   9.450
 4617POPC   PO419488  43.147   5.109   9.150
 4617POPC   GL119489  43.083   5.050   8.850
 4617POPC   GL219490  43.021   5.225   8.850
 4617POPC   C1A19491  43.093   5.141   8.550
 4617POPC   D2A19492  43.086   5.112   8.250
 4617POPC   C3A19493  43.125   5.086   7.950
 4617POPC   C4A19494  43.065   5.077   7.650
 4617POPC   C1B19495  42.954   5.304   8.550
 4617POPC   C2B19496  42.937   5.301   8.250
 4617POPC   C3B19497  42.986   5.309   7.950
 4617POPC   C4B19498  43.023   5.330   7.650
 4618POPC   NC319499  22.973   7.410   9.450
 4618POPC   PO419500  22.986   7.458   9.150
 4618POPC   GL119501  22.899   7.378   8.850
 4618POPC   GL219502  22.950   7.291   8.850
 4618POPC   C1A19503  22.900   7.446   8.550
 4618POPC   D2A19504  22.893   7.447   8.250
 4618POPC   C3A19505  22.936   7.386   7.950
 4618POPC   C4A19506  22.974   7.425   7.650
 4618POPC   C1B19507  22.898   7.192   8.550
 4618POPC   C2B19508  22.879   7.227   8.250
 4618POPC   C3B19509  22.860   7.173   7.950
 4618POPC   C4B19510  22.879   7.161   7.650
 4619POPC   NC319511  16.721  19.804   9.450
 4619POPC   PO419512  16.767  19.848   9.150
 4619POPC   GL119513  16.762  19.838   8.850
 4619POPC   GL219514  16.777  19.768   8.850
 4619POPC   C1A19515  16.717  19.847   8.550
 4619POPC   D2A19516  16.753  19.814   8.250
 4619POPC   C3A19517  16.717  19.789   7.950
 4619POPC   C4A19518  16.725  19.846   7.650
 4619POPC   C1B19519  16.863  19.660   8.550
 4619POPC   C2B19520  16.845  19.626   8.250
 4619POPC   C3B19521  16.880  19.636   7.950
 4619POPC   C4B19522  16.816  19.615   7.650
 4620POPC   NC319523  43.094  29.176   9.450
 4620POPC   PO419524  43.113  29.146   9.150
 4620POPC   GL119525  43.064  29.109   8.850
 4620POPC   GL219526  43.061  29.221   8.850
 4620POPC   C1A19527  43.152  29.193   8.550
 4620POPC   D2A19528  43.093  29.189   8.250
 4620POPC   C3A19529  43.137  29.130   7.950
 4620POPC   C4A19530  43.124  29.145   7.650
 4620POPC   C1B19531  42.895  29.322   8.550
 4620POPC   C2B19532  42.928  29.288   8.250
 4620POPC   C3B19533  42.928  29.292   7.950
 4620POPC   C4B19534  42.928  29.308   7.650
 4621POPC   NC319535  39.186  29.136   9.450
 4621POPC   PO419536  39.184  29.100   9.150
 4621POPC   GL119537  39.281  29.115   8.850
 4621POPC   GL219538  39.358  29.099   8.850
 4621POPC   C1A19539  39.250  29.159   8.550
 4621POPC   D2A19540  39.270  29.167   8.250
 4621POPC   C3A19541  39.265  29.190   7.950
 4621POPC   C4A19542  39.260  29.159   7.650
 4621POPC   C1B19543  39.440  28.974   8.550
 4621POPC   C2B19544  39.415  28.988   8.250
 4621POPC   C3B19545  39.379  28.933   7.950
 4621POPC   C4B19546  39.444  28.944   7.650
 4622POPC   NC319547  30.738  27.622   9.450
 4622POPC   PO419548  30.660  27.605   9.150
 4622POPC   GL119549  30.709  27.613   8.850
 4622POPC   GL219550  30.670  27.709   8.850
 4622POPC   C1A19551  30.650  27.629   8.550
 4622POPC   D2A19552  30.709  27.600   8.250
 4622POPC   C3A19553  30.697  27.643   7.950
 4622POPC   C4A19554  30.659  27.637   7.650
 4622POPC   C1B19555  30.705  27.831   8.550
 4622POPC   C2B19556  30.750  27.805   8.250
 4622POPC   C3B19557  30.726  27.825   7.950
 4622POPC   C4B19558  30.728  27.808   7.650
 4623POPC   NC319559  12.120  10.566   9.450
 4623POPC   PO419560  12.060  10.548   9.150
 4623POPC   GL119561  12.079  10.528   8.850
 4623POPC   GL219562  12.183  10.506   8.850
 4623POPC   C1A19563  12.083  10.551   8.550
 4623POPC   D2A19564  12.066  10.538   8.250
 4623POPC   C3A19565  12.117  10.563   7.950
 4623POPC   C4A19566  12.031  10.511   7.650
 4623POPC   C1B19567  12.328  10.452   8.550
 4623POPC   C2B19568  12.334  10.446   8.250
 4623POPC   C3B19569  12.258  10.440   7.950
 4623POPC   C4B19570  12.307  10.447   7.650
 4624POPC   NC319571  36.165  43.875   9.450
 4624POPC   PO419572  36.089  43.851   9.150
 4624POPC   GL119573  36.166  43.843   8.850
 4624POPC   GL219574  36.197  43.786   8.850
 4624POPC   C1A19575  36.170  43.900   8.550
 4624POPC   D2A19576  36.078  43.839   8.250
 4624POPC   C3A19577  36.090  43.840   7.950
 4624POPC   C4A19578  36.121  43.927   7.650
 4624POPC   C1B19579  36.299  43.683   8.550
 4624POPC   C2B19580  36.313  43.702   8.250
 4624POPC   C3B19581  36.261  43.636   7.950
 4624POPC   C4B19582  36.263  43.700   7.650
 4625POPC   NC319583  16.685  28.396   9.450
 4625POPC   PO419584  16.711  28.357   9.150
 4625POPC   GL119585  16.723  28.363   8.850
 4625POPC   GL219586  16.653  28.390   8.850
 4625POPC   C1A19587  16.693  28.410   8.550
 4625POPC   D2A19588  16.756  28.395   8.250
 4625POPC   C3A19589  16.694  28.407   7.950
 4625POPC   C4A19590  16.781  28.374   7.650
 4625POPC   C1B19591  16.523  28.375   8.550
 4625POPC   C2B19592  16.481  28.303   8.250
 4625POPC   C3B19593  16.474  28.359   7.950
 4625POPC   C4B19594  16.460  28.372   7.650
 4626POPC   NC319595  21.368  33.049   9.450
 4626POPC   PO419596  21.376  33.036   9.150
 4626POPC   GL119597  21.345  32.997   8.850
 4626POPC   GL219598  21.418  33.129   8.850
 4626POPC   C1A19599  21.385  33.025   8.550
 4626POPC   D2A19600  21.354  33.048   8.250
 4626POPC   C3A19601  21.362  33.043   7.950
 4626POPC   C4A19602  21.403  33.062   7.650
 4626POPC   C1B19603  21.402  33.259   8.550
 4626POPC   C2B19604  21.462  33.225   8.250
 4626POPC   C3B19605  21.433  33.311   7.950
 4626POPC   C4B19606  21.441  33.236   7.650
 4627POPC   NC319607   1.240  27.570   9.450
 4627POPC   PO419608   1.201  27.632   9.150
 4627POPC   GL119609   1.170  27.637   8.850
 4627POPC   GL219610   1.314  27.650   8.850
 4627POPC   C1A19611   1.257  27.566   8.550
 4627POPC   D2A19612   1.211  27.565   8.250
 4627POPC   C3A19613   1.189  27.563   7.950
 4627POPC   C4A19614   1.212  27.604   7.650
 4627POPC   C1B19615   1.506  27.621   8.550
 4627POPC   C2B19616   1.437  27.586   8.250
 4627POPC   C3B19617   1.456  27.655   7.950
 4627POPC   C4B19618   1.416  27.610   7.650
 4628POPC   NC319619  25.299   3.589   9.450
 4628POPC   PO419620  25.262   3.587   9.150
 4628POPC   GL119621  25.306   3.552   8.850
 4628POPC   GL219622  25.343   3.641   8.850
 4628POPC   C1A19623  25.310   3.546   8.550
 4628POPC   D2A19624  25.312   3.510   8.250
 4628POPC   C3A19625  25.285   3.529   7.950
 4628POPC   C4A19626  25.255   3.495   7.650
 4628POPC   C1B19627  25.428   3.794   8.550
 4628POPC   C2B19628  25.357   3.737   8.250
 4628POPC   C3B19629  25.420   3.805   7.950
 4628POPC   C4B19630  25.378   3.766   7.650
 4629POPC   NC319631  33.833   9.020   9.450
 4629POPC   PO419632  33.763   9.022   9.150
 4629POPC   GL119633  33.827   9.009   8.850
 4629POPC   GL219634  33.908   8.936   8.850
 4629POPC   C1A19635  33.838   8.945   8.550
 4629POPC   D2A19636  33.841   8.930   8.250
 4629POPC   C3A19637  33.828   9.009   7.950
 4629POPC   C4A19638  33.801   9.021   7.650
 4629POPC   C1B19639  34.047   8.899   8.550
 4629POPC   C2B19640  34.057   8.950   8.250
 4629POPC   C3B19641  34.067   8.945   7.950
 4629POPC   C4B19642  34.077   8.916   7.650
 4630POPC   NC319643  33.844  31.461   9.450
 4630POPC   PO419644  33.800  31.488   9.150
 4630POPC   GL119645  33.770  31.432   8.850
 4630POPC   GL219646  33.761  31.361   8.850
 4630POPC   C1A19647  33.807  31.505   8.550
 4630POPC   D2A19648  33.816  31.520   8.250
 4630POPC   C3A19649  33.837  31.500   7.950
 4630POPC   C4A19650  33.753  31.423   7.650
 4630POPC   C1B19651  33.678  31.225   8.550
 4630POPC   C2B19652  33.754  31.213   8.250
 4630POPC   C3B19653  33.733  31.207   7.950
 4630POPC   C4B19654  33.696  31.207   7.650
 4631POPC   NC319655  20.648  34.540   9.450
 4631POPC   PO419656  20.586  34.554   9.150
 4631POPC   GL119657  20.569  34.527   8.850
 4631POPC   GL219658  20.714  34.540   8.850
 4631POPC   C1A19659  20.581  34.614   8.550
 4631POPC   D2A19660  20.617  34.527   8.250
 4631POPC   C3A19661  20.573  34.596   7.950
 4631POPC   C4A19662  20.573  34.571   7.650
 4631POPC   C1B19663  20.855  34.577   8.550
 4631POPC   C2B19664  20.864  34.602   8.250
 4631POPC   C3B19665  20.855  34.513   7.950
 4631POPC   C4B19666  20.848  34.596   7.650
 4632POPC   NC319667  14.444  35.325   9.450
 4632POPC   PO419668  14.373  35.354   9.150
 4632POPC   GL119669  14.396  35.325   8.850
 4632POPC   GL219670  14.326  35.485   8.850
 4632POPC   C1A19671  14.408  35.341   8.550
 4632POPC   D2A19672  14.438  35.370   8.250
 4632POPC   C3A19673  14.403  35.390   7.950
 4632POPC   C4A19674  14.389  35.303   7.650
 4632POPC   C1B19675  14.222  35.575   8.550
 4632POPC   C2B19676  14.283  35.556   8.250
 4632POPC   C3B19677  14.234  35.565   7.950
 4632POPC   C4B19678  14.281  35.554   7.650
 4633POPC   NC319679  10.519   5.078   9.450
 4633POPC   PO419680  10.570   5.142   9.150
 4633POPC   GL119681  10.492   5.047   8.850
 4633POPC   GL219682  10.641   5.143   8.850
 4633POPC   C1A19683  10.531   5.118   8.550
 4633POPC   D2A19684  10.541   5.083   8.250
 4633POPC   C3A19685  10.490   5.131   7.950
 4633POPC   C4A19686  10.537   5.074   7.650
 4633POPC   C1B19687  10.756   5.165   8.550
 4633POPC   C2B19688  10.745   5.139   8.250
 4633POPC   C3B19689  10.725   5.174   7.950
 4633POPC   C4B19690  10.769   5.202   7.650
 4634POPC   NC319691  17.519  30.702   9.450
 4634POPC   PO419692  17.482  30.723   9.150
 4634POPC   GL119693  17.536  30.719   8.850
 4634POPC   GL219694  17.473  30.596   8.850
 4634POPC   C1A19695  17.466  30.686   8.550
 4634POPC   D2A19696  17.517  30.652   8.250
 4634POPC   C3A19697  17.464  30.686   7.950
 4634POPC   C4A19698  17.476  30.739   7.650
 4634POPC   C1B19699  17.474  30.406   8.550
 4634POPC   C2B19700  17.490  30.423   8.250
 4634POPC   C3B19701  17.468  30.455   7.950
 4634POPC   C4B19702  17.394  30.459   7.650
 4635POPC   NC319703  32.275  30.744   9.450
 4635POPC   PO419704  32.295  30.731   9.150
 4635POPC   GL119705  32.243  30.706   8.850
 4635POPC   GL219706  32.359  30.814   8.850
 4635POPC   C1A19707  32.267  30.654   8.550
 4635POPC   D2A19708  32.259  30.703   8.250
 4635POPC   C3A19709  32.239  30.652   7.950
 4635POPC   C4A19710  32.275  30.700   7.650
 4635POPC   C1B19711  32.398  30.910   8.550
 4635POPC   C2B19712  32.407  30.884   8.250
 4635POPC   C3B19713  32.446  30.853   7.950
 4635POPC   C4B19714  32.469  30.913   7.650
 4636POPC   NC319715   3.511  29.945   9.450
 4636POPC   PO419716   3.515  29.931   9.150
 4636POPC   GL119717   3.559  29.896   8.850
 4636POPC   GL219718   3.415  29.822   8.850
 4636POPC   C1A19719   3.564  29.882   8.550
 4636POPC   D2A19720   3.577  29.944   8.250
 4636POPC   C3A19721   3.555  29.906   7.950
 4636POPC   C4A19722   3.569  29.920   7.650
 4636POPC   C1B19723   3.330  29.784   8.550
 4636POPC   C2B19724   3.309  29.824   8.250
 4636POPC   C3B19725   3.315  29.774   7.950
 4636POPC   C4B19726   3.267  29.799   7.650
 4637POPC   NC319727   0.481  41.580   9.450
 4637POPC   PO419728   0.389  41.606   9.150
 4637POPC   GL119729   0.390  41.591   8.850
 4637POPC   GL219730   0.518  41.612   8.850
 4637POPC   C1A19731   0.438  41.580   8.550
 4637POPC   D2A19732   0.414  41.574   8.250
 4637POPC   C3A19733   0.417  41.581   7.950
 4637POPC   C4A19734   0.477  41.590   7.650
 4637POPC   C1B19735   0.679  41.602   8.550
 4637POPC   C2B19736   0.694  41.559   8.250
 4637POPC   C3B19737   0.663  41.603   7.950
 4637POPC   C4B19738   0.700  41.628   7.650
 4638POPC   NC319739  39.234  40.034   9.450
 4638POPC   PO419740  39.193  40.049   9.150
 4638POPC   GL119741  39.203  40.038   8.850
 4638POPC   GL219742  39.170  39.942   8.850
 4638POPC   C1A19743  39.276  40.043   8.550
 4638POPC   D2A19744  39.215  39.973   8.250
 4638POPC   C3A19745  39.196  40.053   7.950
 4638POPC   C4A19746  39.215  39.998   7.650
 4638POPC   C1B19747  39.080  39.802   8.550
 4638POPC   C2B19748  39.085  39.778   8.250
 4638POPC   C3B19749  39.098  39.805   7.950
 4638POPC   C4B19750  39.041  39.801   7.650
 4639POPC   NC319751  38.427   0.475   9.450
 4639POPC   PO419752  38.424   0.420   9.150
 4639POPC   GL119753  38.435   0.464   8.850
 4639POPC   GL219754  38.491   0.364   8.850
 4639POPC   C1A19755  38.408   0.437   8.550
 4639POPC   D2A19756  38.436   0.473   8.250
 4639POPC   C3A19757  38.446   0.403   7.950
 4639POPC   C4A19758  38.459   0.439   7.650
 4639POPC   C1B19759  38.553   0.181   8.550
 4639POPC   C2B19760  38.535   0.179   8.250
 4639POPC   C3B19761  38.560   0.199   7.950
 4639POPC   C4B19762  38.556   0.246   7.650
 4640POPC   NC319763  33.750  24.441   9.450
 4640POPC   PO419764  33.847  24.485   9.150
 4640POPC   GL119765  33.842  24.534   8.850
 4640POPC   GL219766  33.946  24.521   8.850
 4640POPC   C1A19767  33.849  24.443   8.550
 4640POPC   D2A19768  33.835  24.506   8.250
 4640POPC   C3A19769  33.791  24.487   7.950
 4640POPC   C4A19770  33.811  24.502   7.650
 4640POPC   C1B19771  34.011  24.613   8.550
 4640POPC   C2B19772  33.967  24.596   8.250
 4640POPC   C3B19773  34.020  24.598   7.950
 4640POPC   C4B19774  34.020  24.593   7.650
 4641POPC   NC319775   9.754  28.378   9.450
 4641POPC   PO419776   9.768  28.409   9.150
 4641POPC   GL119777   9.714  28.387   8.850
 4641POPC   GL219778   9.724  28.494   8.850
 4641POPC   C1A19779   9.739  28.361   8.550
 4641POPC   D2A19780   9.787  28.349   8.250
 4641POPC   C3A19781   9.778  28.330   7.950
 4641POPC   C4A19782   9.703  28.352   7.650
 4641POPC   C1B19783   9.796  28.586   8.550
 4641POPC   C2B19784   9.730  28.663   8.250
 4641POPC   C3B19785   9.724  28.635   7.950
 4641POPC   C4B19786   9.729  28.654   7.650
 4642POPC   NC319787  27.612  36.881   9.450
 4642POPC   PO419788  27.618  36.908   9.150
 4642POPC   GL119789  27.631  36.908   8.850
 4642POPC   GL219790  27.552  36.977   8.850
 4642POPC   C1A19791  27.561  36.888   8.550
 4642POPC   D2A19792  27.602  36.858   8.250
 4642POPC   C3A19793  27.604  36.863   7.950
 4642POPC   C4A19794  27.630  36.940   7.650
 4642POPC   C1B19795  27.437  37.125   8.550
 4642POPC   C2B19796  27.397  37.118   8.250
 4642POPC   C3B19797  27.476  37.062   7.950
 4642POPC   C4B19798  27.455  37.073   7.650
 4643POPC   NC319799  20.650   4.361   9.450
 4643POPC   PO419800  20.601   4.337   9.150
 4643POPC   GL119801  20.637   4.309   8.850
 4643POPC   GL219802  20.535   4.382   8.850
 4643POPC   C1A19803  20.650   4.340   8.550
 4643POPC   D2A19804  20.584   4.317   8.250
 4643POPC   C3A19805  20.594   4.361   7.950
 4643POPC   C4A19806  20.600   4.315   7.650
 4643POPC   C1B19807  20.438   4.554   8.550
 4643POPC   C2B19808  20.414   4.456   8.250
 4643POPC   C3B19809  20.447   4.477   7.950
 4643POPC   C4B19810  20.450   4.503   7.650
 4644POPC   NC319811  42.314  15.200   9.450
 4644POPC   PO419812  42.344  15.174   9.150
 4644POPC   GL119813  42.312  15.179   8.850
 4644POPC   GL219814  42.296  15.305   8.850
 4644POPC   C1A19815  42.309  15.147   8.550
 4644POPC   D2A19816  42.324  15.196   8.250
 4644POPC   C3A19817  42.300  15.177   7.950
 4644POPC   C4A19818  42.322  15.217   7.650
 4644POPC   C1B19819  42.242  15.427   8.550
 4644POPC   C2B19820  42.239  15.425   8.250
 4644POPC   C3B19821  42.173  15.428   7.950
 4644POPC   C4B19822  42.208  15.371   7.650
 4645POPC   NC319823  35.307  39.999   9.450
 4645POPC   PO419824  35.322  39.981   9.150
 4645POPC   GL119825  35.311  39.977   8.850
 4645POPC   GL219826  35.397  40.102   8.850
 4645POPC   C1A19827  35.320  40.046   8.550
 4645POPC   D2A19828  35.386  40.020   8.250
 4645POPC   C3A19829  35.350  39.993   7.950
 4645POPC   C4A19830  35.343  40.056   7.650
 4645POPC   C1B19831  35.439  40.278   8.550
 4645POPC   C2B19832  35.420  40.232   8.250
 4645POPC   C3B19833  35.418  40.263   7.950
 4645POPC   C4B19834  35.361  40.293   7.650
 4646POPC   NC319835  40.793  40.001   9.450
 4646POPC   PO419836  40.742  40.052   9.150
 4646POPC   GL119837  40.754  39.973   8.850
 4646POPC   GL219838  40.919  39.890   8.850
 4646POPC   C1A19839  40.763  39.967   8.550
 4646POPC   D2A19840  40.815  40.024   8.250
 4646POPC   C3A19841  40.807  39.961   7.950
 4646POPC   C4A19842  40.829  40.047   7.650
 4646POPC   C1B19843  40.979  39.862   8.550
 4646POPC   C2B19844  41.004  39.821   8.250
 4646POPC   C3B19845  41.029  39.816   7.950
 4646POPC   C4B19846  40.962  39.880   7.650
 4647POPC   NC319847  39.235  39.219   9.450
 4647POPC   PO419848  39.229  39.250   9.150
 4647POPC   GL119849  39.200  39.275   8.850
 4647POPC   GL219850  39.176  39.313   8.850
 4647POPC   C1A19851  39.238  39.234   8.550
 4647POPC   D2A19852  39.236  39.270   8.250
 4647POPC   C3A19853  39.266  39.182   7.950
 4647POPC   C4A19854  39.222  39.257   7.650
 4647POPC   C1B19855  39.030  39.429   8.550
 4647POPC   C2B19856  39.061  39.406   8.250
 4647POPC   C3B19857  39.004  39.408   7.950
 4647POPC   C4B19858  38.998  39.363   7.650
 4648POPC   NC319859  12.858   4.350   9.450
 4648POPC   PO419860  12.802   4.357   9.150
 4648POPC   GL119861  12.902   4.307   8.850
 4648POPC   GL219862  12.729   4.272   8.850
 4648POPC   C1A19863  12.829   4.336   8.550
 4648POPC   D2A19864  12.879   4.347   8.250
 4648POPC   C3A19865  12.865   4.329   7.950
 4648POPC   C4A19866  12.850   4.331   7.650
 4648POPC   C1B19867  12.640   4.274   8.550
 4648POPC   C2B19868  12.597   4.296   8.250
 4648POPC   C3B19869  12.570   4.233   7.950
 4648POPC   C4B19870  12.587   4.264   7.650
 4649POPC   NC319871  27.620   7.467   9.450
 4649POPC   PO419872  27.643   7.426   9.150
 4649POPC   GL119873  27.603   7.454   8.850
 4649POPC   GL219874  27.466   7.370   8.850
 4649POPC   C1A19875  27.631   7.400   8.550
 4649POPC   D2A19876  27.601   7.447   8.250
 4649POPC   C3A19877  27.605   7.435   7.950
 4649POPC   C4A19878  27.636   7.412   7.650
 4649POPC   C1B19879  27.361   7.333   8.550
 4649POPC   C2B19880  27.315   7.357   8.250
 4649POPC   C3B19881  27.313   7.385   7.950
 4649POPC   C4B19882  27.392   7.408   7.650
 4650POPC   NC319883  12.076  29.188   9.450
 4650POPC   PO419884  12.041  29.159   9.150
 4650POPC   GL119885  12.075  29.097   8.850
 4650POPC   GL219886  12.080  29.233   8.850
 4650POPC   C1A19887  12.077  29.096   8.550
 4650POPC   D2A19888  12.032  29.175   8.250
 4650POPC   C3A19889  12.072  29.157   7.950
 4650POPC   C4A19890  12.102  29.173   7.650
 4650POPC   C1B19891  12.064  29.422   8.550
 4650POPC   C2B19892  12.105  29.421   8.250
 4650POPC   C3B19893  12.034  29.365   7.950
 4650POPC   C4B19894  12.052  29.426   7.650
 4651POPC   NC319895  29.152  13.590   9.450
 4651POPC   PO419896  29.172  13.660   9.150
 4651POPC   GL119897  29.159  13.634   8.850
 4651POPC   GL219898  29.260  13.499   8.850
 4651POPC   C1A19899  29.155  13.613   8.550
 4651POPC   D2A19900  29.104  13.626   8.250
 4651POPC   C3A19901  29.134  13.591   7.950
 4651POPC   C4A19902  29.184  13.600   7.650
 4651POPC   C1B19903  29.353  13.414   8.550
 4651POPC   C2B19904  29.344  13.427   8.250
 4651POPC   C3B19905  29.334  13.485   7.950
 4651POPC   C4B19906  29.347  13.431   7.650
 4652POPC   NC319907  34.539   9.703   9.450
 4652POPC   PO419908  34.590   9.761   9.150
 4652POPC   GL119909  34.587   9.778   8.850
 4652POPC   GL219910  34.618   9.848   8.850
 4652POPC   C1A19911  34.616   9.727   8.550
 4652POPC   D2A19912  34.579   9.732   8.250
 4652POPC   C3A19913  34.589   9.715   7.950
 4652POPC   C4A19914  34.563   9.785   7.650
 4652POPC   C1B19915  34.736   9.996   8.550
 4652POPC   C2B19916  34.684   9.929   8.250
 4652POPC   C3B19917  34.691   9.967   7.950
 4652POPC   C4B19918  34.731   9.962   7.650
 4653POPC   NC319919  41.525  17.466   9.450
 4653POPC   PO419920  41.596  17.533   9.150
 4653POPC   GL119921  41.580  17.457   8.850
 4653POPC   GL219922  41.499  17.401   8.850
 4653POPC   C1A19923  41.588  17.517   8.550
 4653POPC   D2A19924  41.552  17.474   8.250
 4653POPC   C3A19925  41.606  17.542   7.950
 4653POPC   C4A19926  41.523  17.521   7.650
 4653POPC   C1B19927  41.387  17.377   8.550
 4653POPC   C2B19928  41.323  17.332   8.250
 4653POPC   C3B19929  41.369  17.382   7.950
 4653POPC   C4B19930  41.302  17.385   7.650
 4654POPC   NC319931  32.239  33.062   9.450
 4654POPC   PO419932  32.253  32.998   9.150
 4654POPC   GL119933  32.203  33.002   8.850
 4654POPC   GL219934  32.106  33.067   8.850
 4654POPC   C1A19935  32.239  33.073   8.550
 4654POPC   D2A19936  32.223  32.982   8.250
 4654POPC   C3A19937  32.272  33.053   7.950
 4654POPC   C4A19938  32.277  33.037   7.650
 4654POPC   C1B19939  32.005  33.097   8.550
 4654POPC   C2B19940  31.956  33.075   8.250
 4654POPC   C3B19941  31.954  33.082   7.950
 4654POPC   C4B19942  32.011  33.019   7.650
 4655POPC   NC319943  12.104  40.024   9.450
 4655POPC   PO419944  12.052  40.011   9.150
 4655POPC   GL119945  12.049  39.969   8.850
 4655POPC   GL219946  11.973  40.008   8.850
 4655POPC   C1A19947  12.096  39.977   8.550
 4655POPC   D2A19948  12.041  39.999   8.250
 4655POPC   C3A19949  12.070  39.972   7.950
 4655POPC   C4A19950  12.111  40.052   7.650
 4655POPC   C1B19951  11.869  39.984   8.550
 4655POPC   C2B19952  11.835  40.069   8.250
 4655POPC   C3B19953  11.819  40.018   7.950
 4655POPC   C4B19954  11.825  39.997   7.650
 4656POPC   NC319955  30.648  15.131   9.450
 4656POPC   PO419956  30.727  15.179   9.150
 4656POPC   GL119957  30.687  15.130   8.850
 4656POPC   GL219958  30.676  15.111   8.850
 4656POPC   C1A19959  30.731  15.172   8.550
 4656POPC   D2A19960  30.705  15.210   8.250
 4656POPC   C3A19961  30.718  15.196   7.950
 4656POPC   C4A19962  30.725  15.154   7.650
 4656POPC   C1B19963  30.553  14.979   8.550
 4656POPC   C2B19964  30.595  14.963   8.250
 4656POPC   C3B19965  30.616  14.983   7.950
 4656POPC   C4B19966  30.610  14.963   7.650
 4657POPC   NC319967  33.828  17.489   9.450
 4657POPC   PO419968  33.771  17.464   9.150
 4657POPC   GL119969  33.791  17.551   8.850
 4657POPC   GL219970  33.769  17.436   8.850
 4657POPC   C1A19971  33.839  17.504   8.550
 4657POPC   D2A19972  33.756  17.457   8.250
 4657POPC   C3A19973  33.773  17.549   7.950
 4657POPC   C4A19974  33.762  17.544   7.650
 4657POPC   C1B19975  33.748  17.243   8.550
 4657POPC   C2B19976  33.775  17.254   8.250
 4657POPC   C3B19977  33.754  17.241   7.950
 4657POPC   C4B19978  33.691  17.276   7.650
 4658POPC   NC319979  12.124  19.793   9.450
 4658POPC   PO419980  12.054  19.854   9.150
 4658POPC   GL119981  12.103  19.846   8.850
 4658POPC   GL219982  11.929  19.907   8.850
 4658POPC   C1A19983  12.027  19.830   8.550
 4658POPC   D2A19984  12.113  19.790   8.250
 4658POPC   C3A19985  12.059  19.793   7.950
 4658POPC   C4A19986  12.119  19.836   7.650
 4658POPC   C1B19987  11.814  19.890   8.550
 4658POPC   C2B19988  11.789  19.861   8.250
 4658POPC   C3B19989  11.788  19.936   7.950
 4658POPC   C4B19990  11.847  19.854   7.650
 4659POPC   NC319991   1.974  36.941   9.450
 4659POPC   PO419992   1.998  36.864   9.150
 4659POPC   GL119993   1.943  36.918   8.850
 4659POPC   GL219994   1.878  36.885   8.850
 4659POPC   C1A19995   1.940  36.886   8.550
 4659POPC   D2A19996   1.982  36.856   8.250
 4659POPC   C3A19997   1.968  36.865   7.950
 4659POPC   C4A19998   2.024  36.903   7.650
 4659POPC   C1B19999   1.697  36.895   8.550
 4659POPC   C2B20000   1.779  36.928   8.250
 4659POPC   C3B20001   1.740  36.937   7.950
 4659POPC   C4B20002   1.782  36.913   7.650
 4660POPC   NC320003  21.414   5.101   9.450
 4660POPC   PO420004  21.361   5.128   9.150
 4660POPC   GL120005  21.408   5.090   8.850
 4660POPC   GL220006  21.325   5.236   8.850
 4660POPC   C1A20007  21.434   5.082   8.550
 4660POPC   D2A20008  21.409   5.069   8.250
 4660POPC   C3A20009  21.407   5.072   7.950
 4660POPC   C4A20010  21.374   5.087   7.650
 4660POPC   C1B20011  21.316   5.306   8.550
 4660POPC   C2B20012  21.300   5.353   8.250
 4660POPC   C3B20013  21.303   5.343   7.950
 4660POPC   C4B20014  21.338   5.302   7.650
 4661POPC   NC320015   5.876  36.857   9.450
 4661POPC   PO420016   5.845  36.891   9.150
 4661POPC   GL120017   5.914  36.908   8.850
 4661POPC   GL220018   6.035  36.823   8.850
 4661POPC   C1A20019   5.868  36.943   8.550
 4661POPC   D2A20020   5.892  36.905   8.250
 4661POPC   C3A20021   5.860  36.892   7.950
 4661POPC   C4A20022   5.831  36.939   7.650
 4661POPC   C1B20023   6.155  36.825   8.550
 4661POPC   C2B20024   6.107  36.825   8.250
 4661POPC   C3B20025   6.121  36.871   7.950
 4661POPC   C4B20026   6.152  36.788   7.650
 4662POPC   NC320027  39.264   0.420   9.450
 4662POPC   PO420028  39.182   0.481   9.150
 4662POPC   GL120029  39.236   0.480   8.850
 4662POPC   GL220030  39.086   0.456   8.850
 4662POPC   C1A20031  39.221   0.419   8.550
 4662POPC   D2A20032  39.271   0.484   8.250
 4662POPC   C3A20033  39.251   0.471   7.950
 4662POPC   C4A20034  39.197   0.425   7.650
 4662POPC   C1B20035  38.999   0.454   8.550
 4662POPC   C2B20036  39.024   0.475   8.250
 4662POPC   C3B20037  38.937   0.452   7.950
 4662POPC   C4B20038  38.950   0.476   7.650
 4663POPC   NC320039  34.554  19.840   9.450
 4663POPC   PO420040  34.610  19.862   9.150
 4663POPC   GL120041  34.538  19.864   8.850
 4663POPC   GL220042  34.668  19.745   8.850
 4663POPC   C1A20043  34.601  19.804   8.550
 4663POPC   D2A20044  34.529  19.797   8.250
 4663POPC   C3A20045  34.543  19.821   7.950
 4663POPC   C4A20046  34.608  19.818   7.650
 4663POPC   C1B20047  34.687  19.625   8.550
 4663POPC   C2B20048  34.747  19.629   8.250
 4663POPC   C3B20049  34.749  19.632   7.950
 4663POPC   C4B20050  34.685  19.617   7.650
 4664POPC   NC320051  35.333  43.927   9.450
 4664POPC   PO420052  35.313  43.921   9.150
 4664POPC   GL120053  35.400  43.870   8.850
 4664POPC   GL220054  35.514  43.855   8.850
 4664POPC   C1A20055  35.348  43.853   8.550
 4664POPC   D2A20056  35.335  43.906   8.250
 4664POPC   C3A20057  35.390  43.864   7.950
 4664POPC   C4A20058  35.373  43.872   7.650
 4664POPC   C1B20059  35.599  43.890   8.550
 4664POPC   C2B20060  35.557  43.893   8.250
 4664POPC   C3B20061  35.552  43.888   7.950
 4664POPC   C4B20062  35.586  43.868   7.650
 4665POPC   NC320063  19.092   3.541   9.450
 4665POPC   PO420064  19.086   3.500   9.150
 4665POPC   GL120065  19.033   3.511   8.850
 4665POPC   GL220066  19.119   3.409   8.850
 4665POPC   C1A20067  19.083   3.536   8.550
 4665POPC   D2A20068  19.045   3.496   8.250
 4665POPC   C3A20069  19.031   3.535   7.950
 4665POPC   C4A20070  19.026   3.576   7.650
 4665POPC   C1B20071  19.060   3.313   8.550
 4665POPC   C2B20072  19.150   3.301   8.250
 4665POPC   C3B20073  19.091   3.318   7.950
 4665POPC   C4B20074  19.059   3.321   7.650
 4666POPC   NC320075  23.669  33.819   9.450
 4666POPC   PO420076  23.677  33.843   9.150
 4666POPC   GL120077  23.750  33.789   8.850
 4666POPC   GL220078  23.663  33.853   8.850
 4666POPC   C1A20079  23.691  33.824   8.550
 4666POPC   D2A20080  23.735  33.765   8.250
 4666POPC   C3A20081  23.690  33.805   7.950
 4666POPC   C4A20082  23.696  33.811   7.650
 4666POPC   C1B20083  23.517  33.952   8.550
 4666POPC   C2B20084  23.504  33.963   8.250
 4666POPC   C3B20085  23.516  33.956   7.950
 4666POPC   C4B20086  23.522  33.957   7.650
 4667POPC   NC320087  21.367  34.538   9.450
 4667POPC   PO420088  21.339  34.600   9.150
 4667POPC   GL120089  21.409  34.545   8.850
 4667POPC   GL220090  21.333  34.505   8.850
 4667POPC   C1A20091  21.380  34.604   8.550
 4667POPC   D2A20092  21.383  34.583   8.250
 4667POPC   C3A20093  21.405  34.616   7.950
 4667POPC   C4A20094  21.381  34.579   7.650
 4667POPC   C1B20095  21.269  34.409   8.550
 4667POPC   C2B20096  21.245  34.388   8.250
 4667POPC   C3B20097  21.247  34.405   7.950
 4667POPC   C4B20098  21.256  34.392   7.650
 4668POPC   NC320099  11.287  43.106   9.450
 4668POPC   PO420100  11.287  43.138   9.150
 4668POPC   GL120101  11.278  43.137   8.850
 4668POPC   GL220102  11.292  42.968   8.850
 4668POPC   C1A20103  11.339  43.133   8.550
 4668POPC   D2A20104  11.348  43.135   8.250
 4668POPC   C3A20105  11.337  43.106   7.950
 4668POPC   C4A20106  11.309  43.113   7.650
 4668POPC   C1B20107  11.362  42.847   8.550
 4668POPC   C2B20108  11.387  42.838   8.250
 4668POPC   C3B20109  11.364  42.852   7.950
 4668POPC   C4B20110  11.388  42.881   7.650
 4669POPC   NC320111  35.335  44.665   9.450
 4669POPC   PO420112  35.341  44.643   9.150
 4669POPC   GL120113  35.336  44.619   8.850
 4669POPC   GL220114  35.479  44.789   8.850
 4669POPC   C1A20115  35.321  44.669   8.550
 4669POPC   D2A20116  35.358  44.651   8.250
 4669POPC   C3A20117  35.387  44.635   7.950
 4669POPC   C4A20118  35.359  44.641   7.650
 4669POPC   C1B20119  35.526  44.868   8.550
 4669POPC   C2B20120  35.522  44.823   8.250
 4669POPC   C3B20121  35.514  44.847   7.950
 4669POPC   C4B20122  35.510  44.815   7.650
 4670POPC   NC320123  25.236   5.908   9.450
 4670POPC   PO420124  25.315   5.854   9.150
 4670POPC   GL120125  25.264   5.895   8.850
 4670POPC   GL220126  25.424   5.809   8.850
 4670POPC   C1A20127  25.268   5.878   8.550
 4670POPC   D2A20128  25.314   5.868   8.250
 4670POPC   C3A20129  25.307   5.840   7.950
 4670POPC   C4A20130  25.226   5.874   7.650
 4670POPC   C1B20131  25.463   5.763   8.550
 4670POPC   C2B20132  25.528   5.747   8.250
 4670POPC   C3B20133  25.533   5.776   7.950
 4670POPC   C4B20134  25.450   5.719   7.650
 4671POPC   NC320135  15.134   4.356   9.450
 4671POPC   PO420136  15.150   4.346   9.150
 4671POPC   GL120137  15.200   4.321   8.850
 4671POPC   GL220138  15.294   4.266   8.850
 4671POPC   C1A20139  15.217   4.268   8.550
 4671POPC   D2A20140  15.148   4.345   8.250
 4671POPC   C3A20141  15.176   4.360   7.950
 4671POPC   C4A20142  15.195   4.327   7.650
 4671POPC   C1B20143  15.286   4.120   8.550
 4671POPC   C2B20144  15.284   4.085   8.250
 4671POPC   C3B20145  15.378   4.168   7.950
 4671POPC   C4B20146  15.350   4.113   7.650
 4672POPC   NC320147   2.772  39.227   9.450
 4672POPC   PO420148   2.805  39.218   9.150
 4672POPC   GL120149   2.815  39.260   8.850
 4672POPC   GL220150   2.715  39.169   8.850
 4672POPC   C1A20151   2.732  39.259   8.550
 4672POPC   D2A20152   2.788  39.263   8.250
 4672POPC   C3A20153   2.719  39.194   7.950
 4672POPC   C4A20154   2.716  39.183   7.650
 4672POPC   C1B20155   2.601  39.077   8.550
 4672POPC   C2B20156   2.609  39.072   8.250
 4672POPC   C3B20157   2.605  39.060   7.950
 4672POPC   C4B20158   2.616  39.090   7.650
 4673POPC   NC320159  37.705  19.869   9.450
 4673POPC   PO420160  37.636  19.792   9.150
 4673POPC   GL120161  37.687  19.853   8.850
 4673POPC   GL220162  37.767  19.813   8.850
 4673POPC   C1A20163  37.727  19.878   8.550
 4673POPC   D2A20164  37.701  19.844   8.250
 4673POPC   C3A20165  37.633  19.833   7.950
 4673POPC   C4A20166  37.635  19.794   7.650
 4673POPC   C1B20167  37.927  19.828   8.550
 4673POPC   C2B20168  37.896  19.913   8.250
 4673POPC   C3B20169  37.896  19.834   7.950
 4673POPC   C4B20170  37.955  19.912   7.650
 4674POPC   NC320171  26.048  29.145   9.450
 4674POPC   PO420172  26.039  29.184   9.150
 4674POPC   GL120173  26.063  29.102   8.850
 4674POPC   GL220174  26.177  29.280   8.850
 4674POPC   C1A20175  26.061  29.181   8.550
 4674POPC   D2A20176  26.073  29.180   8.250
 4674POPC   C3A20177  26.019  29.132   7.950
 4674POPC   C4A20178  26.010  29.175   7.650
 4674POPC   C1B20179  26.256  29.338   8.550
 4674POPC   C2B20180  26.259  29.347   8.250
 4674POPC   C3B20181  26.248  29.338   7.950
 4674POPC   C4B20182  26.227  29.343   7.650
 4675POPC   NC320183  20.651  21.364   9.450
 4675POPC   PO420184  20.646  21.402   9.150
 4675POPC   GL120185  20.651  21.376   8.850
 4675POPC   GL220186  20.705  21.464   8.850
 4675POPC   C1A20187  20.587  21.348   8.550
 4675POPC   D2A20188  20.652  21.345   8.250
 4675POPC   C3A20189  20.602  21.380   7.950
 4675POPC   C4A20190  20.574  21.407   7.650
 4675POPC   C1B20191  20.837  21.507   8.550
 4675POPC   C2B20192  20.814  21.576   8.250
 4675POPC   C3B20193  20.806  21.563   7.950
 4675POPC   C4B20194  20.841  21.588   7.650
 4676POPC   NC320195   3.571  18.316   9.450
 4676POPC   PO420196   3.537  18.309   9.150
 4676POPC   GL120197   3.509  18.279   8.850
 4676POPC   GL220198   3.502  18.169   8.850
 4676POPC   C1A20199   3.498  18.272   8.550
 4676POPC   D2A20200   3.569  18.299   8.250
 4676POPC   C3A20201   3.499  18.262   7.950
 4676POPC   C4A20202   3.576  18.272   7.650
 4676POPC   C1B20203   3.554  17.994   8.550
 4676POPC   C2B20204   3.536  18.015   8.250
 4676POPC   C3B20205   3.530  18.043   7.950
 4676POPC   C4B20206   3.529  18.054   7.650
 4677POPC   NC320207  43.083  32.260   9.450
 4677POPC   PO420208  43.094  32.270   9.150
 4677POPC   GL120209  43.078  32.248   8.850
 4677POPC   GL220210  42.997  32.259   8.850
 4677POPC   C1A20211  43.061  32.213   8.550
 4677POPC   D2A20212  43.131  32.261   8.250
 4677POPC   C3A20213  43.096  32.236   7.950
 4677POPC   C4A20214  43.088  32.273   7.650
 4677POPC   C1B20215  42.896  32.251   8.550
 4677POPC   C2B20216  42.827  32.307   8.250
 4677POPC   C3B20217  42.831  32.246   7.950
 4677POPC   C4B20218  42.891  32.301   7.650
 4678POPC   NC320219  39.219  11.273   9.450
 4678POPC   PO420220  39.224  11.310   9.150
 4678POPC   GL120221  39.273  11.281   8.850
 4678POPC   GL220222  39.115  11.330   8.850
 4678POPC   C1A20223  39.249  11.311   8.550
 4678POPC   D2A20224  39.209  11.270   8.250
 4678POPC   C3A20225  39.224  11.336   7.950
 4678POPC   C4A20226  39.195  11.285   7.650
 4678POPC   C1B20227  38.948  11.330   8.550
 4678POPC   C2B20228  38.975  11.288   8.250
 4678POPC   C3B20229  38.977  11.354   7.950
 4678POPC   C4B20230  38.957  11.281   7.650
 4679POPC   NC320231  31.483  19.867   9.450
 4679POPC   PO420232  31.453  19.846   9.150
 4679POPC   GL120233  31.484  19.811   8.850
 4679POPC   GL220234  31.503  19.892   8.850
 4679POPC   C1A20235  31.511  19.833   8.550
 4679POPC   D2A20236  31.517  19.817   8.250
 4679POPC   C3A20237  31.427  19.798   7.950
 4679POPC   C4A20238  31.521  19.809   7.650
 4679POPC   C1B20239  31.623  20.066   8.550
 4679POPC   C2B20240  31.631  20.077   8.250
 4679POPC   C3B20241  31.632  20.004   7.950
 4679POPC   C4B20242  31.634  20.035   7.650
 4680POPC   NC320243   5.820  24.519   9.450
 4680POPC   PO420244   5.832  24.525   9.150
 4680POPC   GL120245   5.895  24.534   8.850
 4680POPC   GL220246   6.010  24.480   8.850
 4680POPC   C1A20247   5.824  24.502   8.550
 4680POPC   D2A20248   5.880  24.518   8.250
 4680POPC   C3A20249   5.823  24.499   7.950
 4680POPC   C4A20250   5.828  24.470   7.650
 4680POPC   C1B20251   6.062  24.450   8.550
 4680POPC   C2B20252   6.122  24.458   8.250
 4680POPC   C3B20253   6.086  24.471   7.950
 4680POPC   C4B20254   6.133  24.422   7.650
 4681POPC   NC320255  31.481  39.211   9.450
 4681POPC   PO420256  31.492  39.220   9.150
 4681POPC   GL120257  31.511  39.250   8.850
 4681POPC   GL220258  31.608  39.216   8.850
 4681POPC   C1A20259  31.509  39.195   8.550
 4681POPC   D2A20260  31.485  39.232   8.250
 4681POPC   C3A20261  31.519  39.207   7.950
 4681POPC   C4A20262  31.477  39.205   7.650
 4681POPC   C1B20263  31.721  39.173   8.550
 4681POPC   C2B20264  31.684  39.223   8.250
 4681POPC   C3B20265  31.730  39.154   7.950
 4681POPC   C4B20266  31.670  39.210   7.650
 4682POPC   NC320267   8.933  13.619   9.450
 4682POPC   PO420268   9.011  13.667   9.150
 4682POPC   GL120269   8.970  13.661   8.850
 4682POPC   GL220270   8.863  13.723   8.850
 4682POPC   C1A20271   8.977  13.603   8.550
 4682POPC   D2A20272   8.966  13.663   8.250
 4682POPC   C3A20273   8.924  13.670   7.950
 4682POPC   C4A20274   8.972  13.628   7.650
 4682POPC   C1B20275   8.790  13.778   8.550
 4682POPC   C2B20276   8.775  13.750   8.250
 4682POPC   C3B20277   8.732  13.785   7.950
 4682POPC   C4B20278   8.759  13.792   7.650
 4683POPC   NC320279  25.228  33.762   9.450
 4683POPC   PO420280  25.279  33.821   9.150
 4683POPC   GL120281  25.249  33.849   8.850
 4683POPC   GL220282  25.413  33.771   8.850
 4683POPC   C1A20283  25.287  33.766   8.550
 4683POPC   D2A20284  25.253  33.778   8.250
 4683POPC   C3A20285  25.315  33.803   7.950
 4683POPC   C4A20286  25.291  33.839   7.650
 4683POPC   C1B20287  25.432  33.672   8.550
 4683POPC   C2B20288  25.480  33.637   8.250
 4683POPC   C3B20289  25.433  33.610   7.950
 4683POPC   C4B20290  25.428  33.630   7.650
 4684POPC   NC320291  36.119  19.795   9.450
 4684POPC   PO420292  36.171  19.798   9.150
 4684POPC   GL120293  36.148  19.822   8.850
 4684POPC   GL220294  36.033  19.836   8.850
 4684POPC   C1A20295  36.088  19.788   8.550
 4684POPC   D2A20296  36.104  19.855   8.250
 4684POPC   C3A20297  36.112  19.869   7.950
 4684POPC   C4A20298  36.090  19.828   7.650
 4684POPC   C1B20299  35.873  19.857   8.550
 4684POPC   C2B20300  35.844  19.850   8.250
 4684POPC   C3B20301  35.832  19.859   7.950
 4684POPC   C4B20302  35.843  19.821   7.650
 4685POPC   NC320303  17.475  37.637   9.450
 4685POPC   PO420304  17.470  37.722   9.150
 4685POPC   GL120305  17.458  37.687   8.850
 4685POPC   GL220306  17.445  37.587   8.850
 4685POPC   C1A20307  17.528  37.664   8.550
 4685POPC   D2A20308  17.551  37.727   8.250
 4685POPC   C3A20309  17.486  37.643   7.950
 4685POPC   C4A20310  17.513  37.633   7.650
 4685POPC   C1B20311  17.296  37.527   8.550
 4685POPC   C2B20312  17.262  37.550   8.250
 4685POPC   C3B20313  17.319  37.585   7.950
 4685POPC   C4B20314  17.246  37.577   7.650
 4686POPC   NC320315  39.224  21.429   9.450
 4686POPC   PO420316  39.249  21.387   9.150
 4686POPC   GL120317  39.202  21.338   8.850
 4686POPC   GL220318  39.342  21.250   8.850
 4686POPC   C1A20319  39.257  21.428   8.550
 4686POPC   D2A20320  39.211  21.371   8.250
 4686POPC   C3A20321  39.187  21.361   7.950
 4686POPC   C4A20322  39.184  21.369   7.650
 4686POPC   C1B20323  39.416  21.200   8.550
 4686POPC   C2B20324  39.354  21.219   8.250
 4686POPC   C3B20325  39.352  21.215   7.950
 4686POPC   C4B20326  39.369  21.144   7.650
 4687POPC   NC320327   7.402  37.661   9.450
 4687POPC   PO420328   7.411  37.714   9.150
 4687POPC   GL120329   7.395  37.693   8.850
 4687POPC   GL220330   7.468  37.758   8.850
 4687POPC   C1A20331   7.460  37.697   8.550
 4687POPC   D2A20332   7.421  37.701   8.250
 4687POPC   C3A20333   7.382  37.671   7.950
 4687POPC   C4A20334   7.435  37.680   7.650
 4687POPC   C1B20335   7.570  37.931   8.550
 4687POPC   C2B20336   7.602  37.937   8.250
 4687POPC   C3B20337   7.584  37.908   7.950
 4687POPC   C4B20338   7.523  37.843   7.650
 4688POPC   NC320339   0.395  11.259   9.450
 4688POPC   PO420340   0.407  11.298   9.150
 4688POPC   GL120341   0.486  11.302   8.850
 4688POPC   GL220342   0.377  11.369   8.850
 4688POPC   C1A20343   0.449  11.251   8.550
 4688POPC   D2A20344   0.426  11.314   8.250
 4688POPC   C3A20345   0.465  11.349   7.950
 4688POPC   C4A20346   0.466  11.281   7.650
 4688POPC   C1B20347   0.319  11.567   8.550
 4688POPC   C2B20348   0.337  11.516   8.250
 4688POPC   C3B20349   0.370  11.481   7.950
 4688POPC   C4B20350   0.317  11.564   7.650
 4689POPC   NC320351   7.434  42.299   9.450
 4689POPC   PO420352   7.417  42.378   9.150
 4689POPC   GL120353   7.373  42.383   8.850
 4689POPC   GL220354   7.353  42.363   8.850
 4689POPC   C1A20355   7.447  42.320   8.550
 4689POPC   D2A20356   7.448  42.351   8.250
 4689POPC   C3A20357   7.432  42.285   7.950
 4689POPC   C4A20358   7.378  42.370   7.650
 4689POPC   C1B20359   7.212  42.465   8.550
 4689POPC   C2B20360   7.186  42.448   8.250
 4689POPC   C3B20361   7.178  42.421   7.950
 4689POPC   C4B20362   7.161  42.476   7.650
 4690POPC   NC320363  44.668   8.243   9.450
 4690POPC   PO420364  44.673   8.222   9.150
 4690POPC   GL120365  44.681   8.188   8.850
 4690POPC   GL220366  44.660   8.117   8.850
 4690POPC   C1A20367  44.622   8.176   8.550
 4690POPC   D2A20368  44.666   8.235   8.250
 4690POPC   C3A20369  44.691   8.148   7.950
 4690POPC   C4A20370  44.662   8.156   7.650
 4690POPC   C1B20371  44.664   7.925   8.550
 4690POPC   C2B20372  44.612   7.939   8.250
 4690POPC   C3B20373  44.591   7.914   7.950
 4690POPC   C4B20374  44.606   7.913   7.650
 4691POPC   NC320375  30.657  33.037   9.450
 4691POPC   PO420376  30.670  33.048   9.150
 4691POPC   GL120377  30.729  33.016   8.850
 4691POPC   GL220378  30.678  32.900   8.850
 4691POPC   C1A20379  30.697  32.986   8.550
 4691POPC   D2A20380  30.679  33.070   8.250
 4691POPC   C3A20381  30.703  33.060   7.950
 4691POPC   C4A20382  30.664  33.073   7.650
 4691POPC   C1B20383  30.595  32.799   8.550
 4691POPC   C2B20384  30.591  32.827   8.250
 4691POPC   C3B20385  30.612  32.825   7.950
 4691POPC   C4B20386  30.672  32.803   7.650
 4692POPC   NC320387  31.430   2.771   9.450
 4692POPC   PO420388  31.493   2.720   9.150
 4692POPC   GL120389  31.516   2.732   8.850
 4692POPC   GL220390  31.451   2.914   8.850
 4692POPC   C1A20391  31.505   2.721   8.550
 4692POPC   D2A20392  31.430   2.756   8.250
 4692POPC   C3A20393  31.496   2.780   7.950
 4692POPC   C4A20394  31.472   2.722   7.650
 4692POPC   C1B20395  31.375   2.965   8.550
 4692POPC   C2B20396  31.400   2.969   8.250
 4692POPC   C3B20397  31.387   3.011   7.950
 4692POPC   C4B20398  31.322   2.970   7.650
 4693POPC   NC320399  43.159  33.823   9.450
 4693POPC   PO420400  43.144  33.782   9.150
 4693POPC   GL120401  43.157  33.809   8.850
 4693POPC   GL220402  42.999  33.714   8.850
 4693POPC   C1A20403  43.094  33.803   8.550
 4693POPC   D2A20404  43.087  33.800   8.250
 4693POPC   C3A20405  43.134  33.814   7.950
 4693POPC   C4A20406  43.117  33.766   7.650
 4693POPC   C1B20407  42.908  33.648   8.550
 4693POPC   C2B20408  42.920  33.631   8.250
 4693POPC   C3B20409  42.884  33.620   7.950
 4693POPC   C4B20410  42.860  33.671   7.650
 4694POPC   NC320411  18.310   8.154   9.450
 4694POPC   PO420412  18.287   8.198   9.150
 4694POPC   GL120413  18.315   8.191   8.850
 4694POPC   GL220414  18.317   8.063   8.850
 4694POPC   C1A20415  18.305   8.235   8.550
 4694POPC   D2A20416  18.304   8.183   8.250
 4694POPC   C3A20417  18.285   8.235   7.950
 4694POPC   C4A20418  18.242   8.168   7.650
 4694POPC   C1B20419  18.438   7.973   8.550
 4694POPC   C2B20420  18.472   8.004   8.250
 4694POPC   C3B20421  18.420   7.950   7.950
 4694POPC   C4B20422  18.416   8.026   7.650
 4695POPC   NC320423  19.060  19.882   9.450
 4695POPC   PO420424  19.040  19.811   9.150
 4695POPC   GL120425  19.052  19.802   8.850
 4695POPC   GL220426  19.157  19.738   8.850
 4695POPC   C1A20427  19.018  19.867   8.550
 4695POPC   D2A20428  19.016  19.826   8.250
 4695POPC   C3A20429  19.055  19.785   7.950
 4695POPC   C4A20430  19.034  19.880   7.650
 4695POPC   C1B20431  19.291  19.676   8.550
 4695POPC   C2B20432  19.237  19.669   8.250
 4695POPC   C3B20433  19.297  19.707   7.950
 4695POPC   C4B20434  19.248  19.695   7.650
 4696POPC   NC320435  32.276  18.270   9.450
 4696POPC   PO420436  32.237  18.240   9.150
 4696POPC   GL120437  32.276  18.244   8.850
 4696POPC   GL220438  32.299  18.319   8.850
 4696POPC   C1A20439  32.249  18.331   8.550
 4696POPC   D2A20440  32.228  18.305   8.250
 4696POPC   C3A20441  32.250  18.260   7.950
 4696POPC   C4A20442  32.205  18.258   7.650
 4696POPC   C1B20443  32.462  18.422   8.550
 4696POPC   C2B20444  32.398  18.473   8.250
 4696POPC   C3B20445  32.416  18.418   7.950
 4696POPC   C4B20446  32.439  18.411   7.650
 4697POPC   NC320447  26.091  13.668   9.450
 4697POPC   PO420448  26.049  13.589   9.150
 4697POPC   GL120449  26.091  13.618   8.850
 4697POPC   GL220450  25.941  13.647   8.850
 4697POPC   C1A20451  26.000  13.585   8.550
 4697POPC   D2A20452  26.077  13.656   8.250
 4697POPC   C3A20453  26.050  13.625   7.950
 4697POPC   C4A20454  26.038  13.591   7.650
 4697POPC   C1B20455  25.805  13.617   8.550
 4697POPC   C2B20456  25.819  13.582   8.250
 4697POPC   C3B20457  25.784  13.631   7.950
 4697POPC   C4B20458  25.768  13.583   7.650
 4698POPC   NC320459  40.006  39.970   9.450
 4698POPC   PO420460  40.043  39.972   9.150
 4698POPC   GL120461  40.029  40.028   8.850
 4698POPC   GL220462  40.174  39.999   8.850
 4698POPC   C1A20463  40.038  40.041   8.550
 4698POPC   D2A20464  40.003  40.021   8.250
 4698POPC   C3A20465  39.967  40.002   7.950
 4698POPC   C4A20466  40.020  40.000   7.650
 4698POPC   C1B20467  40.241  39.958   8.550
 4698POPC   C2B20468  40.252  39.940   8.250
 4698POPC   C3B20469  40.284  39.975   7.950
 4698POPC   C4B20470  40.291  39.991   7.650
 4699POPC   NC320471   1.256  39.984   9.450
 4699POPC   PO420472   1.184  40.038   9.150
 4699POPC   GL120473   1.229  40.029   8.850
 4699POPC   GL220474   1.305  40.025   8.850
 4699POPC   C1A20475   1.244  39.989   8.550
 4699POPC   D2A20476   1.208  40.038   8.250
 4699POPC   C3A20477   1.216  40.050   7.950
 4699POPC   C4A20478   1.240  39.960   7.650
 4699POPC   C1B20479   1.463  39.991   8.550
 4699POPC   C2B20480   1.467  39.968   8.250
 4699POPC   C3B20481   1.447  40.013   7.950
 4699POPC   C4B20482   1.461  39.966   7.650
 4700POPC   NC320483  11.291  13.652   9.450
 4700POPC   PO420484  11.332  13.615   9.150
 4700POPC   GL120485  11.338  13.635   8.850
 4700POPC   GL220486  11.360  13.523   8.850
 4700POPC   C1A20487  11.339  13.653   8.550
 4700POPC   D2A20488  11.264  13.658   8.250
 4700POPC   C3A20489  11.317  13.596   7.950
 4700POPC   C4A20490  11.297  13.656   7.650
 4700POPC   C1B20491  11.493  13.529   8.550
 4700POPC   C2B20492  11.495  13.471   8.250
 4700POPC   C3B20493  11.549  13.452   7.950
 4700POPC   C4B20494  11.505  13.508   7.650
 4701POPC   NC320495  39.262   1.964   9.450
 4701POPC   PO420496  39.218   2.034   9.150
 4701POPC   GL120497  39.217   1.948   8.850
 4701POPC   GL220498  39.106   1.921   8.850
 4701POPC   C1A20499  39.243   1.990   8.550
 4701POPC   D2A20500  39.244   2.008   8.250
 4701POPC   C3A20501  39.263   1.998   7.950
 4701POPC   C4A20502  39.274   2.002   7.650
 4701POPC   C1B20503  39.109   1.795   8.550
 4701POPC   C2B20504  39.024   1.763   8.250
 4701POPC   C3B20505  39.123   1.818   7.950
 4701POPC   C4B20506  39.121   1.751   7.650
 4702POPC   NC320507  44.677  17.550   9.450
 4702POPC   PO420508  44.673  17.471   9.150
 4702POPC   GL120509  44.660  17.513   8.850
 4702POPC   GL220510  44.790  17.633   8.850
 4702POPC   C1A20511  44.699  17.540   8.550
 4702POPC   D2A20512  44.651  17.498   8.250
 4702POPC   C3A20513  44.630  17.499   7.950
 4702POPC   C4A20514  44.634  17.505   7.650
 4702POPC   C1B20515  44.831  17.711   8.550
 4702POPC   C2B20516  44.788  17.708   8.250
 4702POPC   C3B20517  44.881  17.671   7.950
 4702POPC   C4B20518  44.842  17.663   7.650
 4703POPC   NC320519  16.747   0.400   9.450
 4703POPC   PO420520  16.732   0.430   9.150
 4703POPC   GL120521  16.712   0.394   8.850
 4703POPC   GL220522  16.853   0.395   8.850
 4703POPC   C1A20523  16.711   0.440   8.550
 4703POPC   D2A20524  16.747   0.442   8.250
 4703POPC   C3A20525  16.751   0.448   7.950
 4703POPC   C4A20526  16.728   0.456   7.650
 4703POPC   C1B20527  16.999   0.401   8.550
 4703POPC   C2B20528  16.973   0.405   8.250
 4703POPC   C3B20529  16.968   0.384   7.950
 4703POPC   C4B20530  16.968   0.440   7.650
 4704POPC   NC320531  32.284   8.160   9.450
 4704POPC   PO420532  32.268   8.235   9.150
 4704POPC   GL120533  32.215   8.242   8.850
 4704POPC   GL220534  32.183   8.284   8.850
 4704POPC   C1A20535  32.227   8.148   8.550
 4704POPC   D2A20536  32.235   8.198   8.250
 4704POPC   C3A20537  32.296   8.168   7.950
 4704POPC   C4A20538  32.218   8.163   7.650
 4704POPC   C1B20539  32.100   8.334   8.550
 4704POPC   C2B20540  32.034   8.405   8.250
 4704POPC   C3B20541  32.082   8.363   7.950
 4704POPC   C4B20542  32.067   8.375   7.650
 4705POPC   NC320543  34.568  28.355   9.450
 4705POPC   PO420544  34.615  28.322   9.150
 4705POPC   GL120545  34.615  28.355   8.850
 4705POPC   GL220546  34.435  28.399   8.850
 4705POPC   C1A20547  34.613  28.358   8.550
 4705POPC   D2A20548  34.606  28.386   8.250
 4705POPC   C3A20549  34.594  28.335   7.950
 4705POPC   C4A20550  34.586  28.399   7.650
 4705POPC   C1B20551  34.384  28.536   8.550
 4705POPC   C2B20552  34.406  28.512   8.250
 4705POPC   C3B20553  34.346  28.480   7.950
 4705POPC   C4B20554  34.336  28.508   7.650
 4706POPC   NC320555  12.818  11.284   9.450
 4706POPC   PO420556  12.817  11.299   9.150
 4706POPC   GL120557  12.861  11.265   8.850
 4706POPC   GL220558  12.915  11.456   8.850
 4706POPC   C1A20559  12.879  11.296   8.550
 4706POPC   D2A20560  12.840  11.267   8.250
 4706POPC   C3A20561  12.821  11.303   7.950
 4706POPC   C4A20562  12.834  11.334   7.650
 4706POPC   C1B20563  12.920  11.504   8.550
 4706POPC   C2B20564  12.872  11.511   8.250
 4706POPC   C3B20565  12.905  11.572   7.950
 4706POPC   C4B20566  12.894  11.575   7.650
 4707POPC   NC320567  19.865   8.191   9.450
 4707POPC   PO420568  19.831   8.215   9.150
 4707POPC   GL120569  19.828   8.233   8.850
 4707POPC   GL220570  19.773   8.335   8.850
 4707POPC   C1A20571  19.851   8.201   8.550
 4707POPC   D2A20572  19.805   8.185   8.250
 4707POPC   C3A20573  19.877   8.186   7.950
 4707POPC   C4A20574  19.798   8.204   7.650
 4707POPC   C1B20575  19.652   8.400   8.550
 4707POPC   C2B20576  19.656   8.370   8.250
 4707POPC   C3B20577  19.608   8.398   7.950
 4707POPC   C4B20578  19.632   8.337   7.650
 4708POPC   NC320579  27.604  22.191   9.450
 4708POPC   PO420580  27.594  22.181   9.150
 4708POPC   GL120581  27.555  22.207   8.850
 4708POPC   GL220582  27.543  22.095   8.850
 4708POPC   C1A20583  27.631  22.125   8.550
 4708POPC   D2A20584  27.544  22.209   8.250
 4708POPC   C3A20585  27.555  22.152   7.950
 4708POPC   C4A20586  27.642  22.133   7.650
 4708POPC   C1B20587  27.451  22.001   8.550
 4708POPC   C2B20588  27.430  21.945   8.250
 4708POPC   C3B20589  27.379  21.979   7.950
 4708POPC   C4B20590  27.403  22.024   7.650
 4709POPC   NC320591  27.591  22.949   9.450
 4709POPC   PO420592  27.619  22.907   9.150
 4709POPC   GL120593  27.624  22.917   8.850
 4709POPC   GL220594  27.550  22.819   8.850
 4709POPC   C1A20595  27.593  22.955   8.550
 4709POPC   D2A20596  27.558  22.955   8.250
 4709POPC   C3A20597  27.576  22.917   7.950
 4709POPC   C4A20598  27.620  22.909   7.650
 4709POPC   C1B20599  27.395  22.791   8.550
 4709POPC   C2B20600  27.401  22.747   8.250
 4709POPC   C3B20601  27.452  22.733   7.950
 4709POPC   C4B20602  27.379  22.701   7.650
 4710POPC   NC320603  19.804  22.946   9.450
 4710POPC   PO420604  19.807  22.952   9.150
 4710POPC   GL120605  19.883  22.935   8.850
 4710POPC   GL220606  19.707  23.004   8.850
 4710POPC   C1A20607  19.806  22.910   8.550
 4710POPC   D2A20608  19.809  22.916   8.250
 4710POPC   C3A20609  19.833  22.963   7.950
 4710POPC   C4A20610  19.862  22.940   7.650
 4710POPC   C1B20611  19.568  22.975   8.550
 4710POPC   C2B20612  19.577  22.972   8.250
 4710POPC   C3B20613  19.594  23.051   7.950
 4710POPC   C4B20614  19.629  22.986   7.650
 4711POPC   NC320615  11.269  10.526   9.450
 4711POPC   PO420616  11.342  10.488   9.150
 4711POPC   GL120617  11.253  10.500   8.850
 4711POPC   GL220618  11.314  10.663   8.850
 4711POPC   C1A20619  11.271  10.556   8.550
 4711POPC   D2A20620  11.319  10.565   8.250
 4711POPC   C3A20621  11.265  10.543   7.950
 4711POPC   C4A20622  11.277  10.515   7.650
 4711POPC   C1B20623  11.219  10.721   8.550
 4711POPC   C2B20624  11.286  10.732   8.250
 4711POPC   C3B20625  11.283  10.769   7.950
 4711POPC   C4B20626  11.226  10.738   7.650
 4712POPC   NC320627  16.712  25.997   9.450
 4712POPC   PO420628  16.721  26.046   9.150
 4712POPC   GL120629  16.700  26.064   8.850
 4712POPC   GL220630  16.712  25.918   8.850
 4712POPC   C1A20631  16.741  26.021   8.550
 4712POPC   D2A20632  16.739  26.079   8.250
 4712POPC   C3A20633  16.763  25.995   7.950
 4712POPC   C4A20634  16.777  26.025   7.650
 4712POPC   C1B20635  16.692  25.804   8.550
 4712POPC   C2B20636  16.675  25.850   8.250
 4712POPC   C3B20637  16.603  25.774   7.950
 4712POPC   C4B20638  16.643  25.831   7.650
 4713POPC   NC320639  30.669  29.876   9.450
 4713POPC   PO420640  30.728  29.919   9.150
 4713POPC   GL120641  30.685  29.910   8.850
 4713POPC   GL220642  30.619  29.892   8.850
 4713POPC   C1A20643  30.681  29.876   8.550
 4713POPC   D2A20644  30.699  29.926   8.250
 4713POPC   C3A20645  30.688  29.905   7.950
 4713POPC   C4A20646  30.674  29.959   7.650
 4713POPC   C1B20647  30.410  29.874   8.550
 4713POPC   C2B20648  30.444  29.872   8.250
 4713POPC   C3B20649  30.473  29.864   7.950
 4713POPC   C4B20650  30.407  29.838   7.650
 4714POPC   NC320651  39.963  33.042   9.450
 4714POPC   PO420652  39.980  33.066   9.150
 4714POPC   GL120653  40.053  32.985   8.850
 4714POPC   GL220654  39.877  33.111   8.850
 4714POPC   C1A20655  39.988  33.017   8.550
 4714POPC   D2A20656  40.002  33.000   8.250
 4714POPC   C3A20657  39.959  32.995   7.950
 4714POPC   C4A20658  40.026  33.008   7.650
 4714POPC   C1B20659  39.749  33.087   8.550
 4714POPC   C2B20660  39.755  33.173   8.250
 4714POPC   C3B20661  39.771  33.156   7.950
 4714POPC   C4B20662  39.769  33.113   7.650
 4715POPC   NC320663   2.765  26.057   9.450
 4715POPC   PO420664   2.719  26.042   9.150
 4715POPC   GL120665   2.776  26.024   8.850
 4715POPC   GL220666   2.885  25.984   8.850
 4715POPC   C1A20667   2.753  26.005   8.550
 4715POPC   D2A20668   2.773  25.994   8.250
 4715POPC   C3A20669   2.809  26.055   7.950
 4715POPC   C4A20670   2.781  26.035   7.650
 4715POPC   C1B20671   2.977  25.902   8.550
 4715POPC   C2B20672   3.013  25.965   8.250
 4715POPC   C3B20673   3.014  25.903   7.950
 4715POPC   C4B20674   2.961  25.965   7.650
 4716POPC   NC320675  38.422  37.646   9.450
 4716POPC   PO420676  38.459  37.684   9.150
 4716POPC   GL120677  38.452  37.706   8.850
 4716POPC   GL220678  38.387  37.592   8.850
 4716POPC   C1A20679  38.411  37.706   8.550
 4716POPC   D2A20680  38.430  37.696   8.250
 4716POPC   C3A20681  38.495  37.635   7.950
 4716POPC   C4A20682  38.477  37.702   7.650
 4716POPC   C1B20683  38.246  37.532   8.550
 4716POPC   C2B20684  38.266  37.488   8.250
 4716POPC   C3B20685  38.226  37.497   7.950
 4716POPC   C4B20686  38.236  37.525   7.650
 4717POPC   NC320687  39.241  22.907   9.450
 4717POPC   PO420688  39.205  22.890   9.150
 4717POPC   GL120689  39.247  22.950   8.850
 4717POPC   GL220690  39.231  23.088   8.850
 4717POPC   C1A20691  39.202  22.944   8.550
 4717POPC   D2A20692  39.262  22.916   8.250
 4717POPC   C3A20693  39.241  22.939   7.950
 4717POPC   C4A20694  39.228  22.911   7.650
 4717POPC   C1B20695  39.122  23.162   8.550
 4717POPC   C2B20696  39.199  23.216   8.250
 4717POPC   C3B20697  39.124  23.201   7.950
 4717POPC   C4B20698  39.140  23.189   7.650
 4718POPC   NC320699   1.959  31.434   9.450
 4718POPC   PO420700   2.033  31.434   9.150
 4718POPC   GL120701   1.972  31.471   8.850
 4718POPC   GL220702   2.024  31.358   8.850
 4718POPC   C1A20703   1.994  31.435   8.550
 4718POPC   D2A20704   1.981  31.441   8.250
 4718POPC   C3A20705   1.977  31.482   7.950
 4718POPC   C4A20706   1.988  31.463   7.650
 4718POPC   C1B20707   2.111  31.283   8.550
 4718POPC   C2B20708   2.201  31.238   8.250
 4718POPC   C3B20709   2.173  31.246   7.950
 4718POPC   C4B20710   2.152  31.285   7.650
 4719POPC   NC320711  25.220   4.360   9.450
 4719POPC   PO420712  25.220   4.343   9.150
 4719POPC   GL120713  25.241   4.285   8.850
 4719POPC   GL220714  25.183   4.422   8.850
 4719POPC   C1A20715  25.292   4.352   8.550
 4719POPC   D2A20716  25.242   4.361   8.250
 4719POPC   C3A20717  25.297   4.359   7.950
 4719POPC   C4A20718  25.265   4.274   7.650
 4719POPC   C1B20719  25.065   4.432   8.550
 4719POPC   C2B20720  25.043   4.505   8.250
 4719POPC   C3B20721  25.041   4.418   7.950
 4719POPC   C4B20722  25.052   4.511   7.650
 4720POPC   NC320723  17.479  22.179   9.450
 4720POPC   PO420724  17.486  22.153   9.150
 4720POPC   GL120725  17.522  22.205   8.850
 4720POPC   GL220726  17.442  22.097   8.850
 4720POPC   C1A20727  17.532  22.144   8.550
 4720POPC   D2A20728  17.470  22.178   8.250
 4720POPC   C3A20729  17.487  22.201   7.950
 4720POPC   C4A20730  17.510  22.197   7.650
 4720POPC   C1B20731  17.412  21.932   8.550
 4720POPC   C2B20732  17.376  21.907   8.250
 4720POPC   C3B20733  17.386  21.979   7.950
 4720POPC   C4B20734  17.452  21.967   7.650
 4721POPC   NC320735  16.702  33.070   9.450
 4721POPC   PO420736  16.749  32.990   9.150
 4721POPC   GL120737  16.758  32.998   8.850
 4721POPC   GL220738  16.866  32.991   8.850
 4721POPC   C1A20739  16.723  33.072   8.550
 4721POPC   D2A20740  16.732  33.049   8.250
 4721POPC   C3A20741  16.769  33.019   7.950
 4721POPC   C4A20742  16.733  33.069   7.650
 4721POPC   C1B20743  17.007  33.089   8.550
 4721POPC   C2B20744  17.003  33.052   8.250
 4721POPC   C3B20745  16.962  33.035   7.950
 4721POPC   C4B20746  17.013  33.079   7.650
 4722POPC   NC320747   0.422  32.284   9.450
 4722POPC   PO420748   0.391  32.261   9.150
 4722POPC   GL120749   0.423  32.233   8.850
 4722POPC   GL220750   0.446  32.384   8.850
 4722POPC   C1A20751   0.414  32.265   8.550
 4722POPC   D2A20752   0.479  32.267   8.250
 4722POPC   C3A20753   0.459  32.202   7.950
 4722POPC   C4A20754   0.414  32.215   7.650
 4722POPC   C1B20755   0.389  32.459   8.550
 4722POPC   C2B20756   0.354  32.508   8.250
 4722POPC   C3B20757   0.425  32.450   7.950
 4722POPC   C4B20758   0.340  32.514   7.650
 4723POPC   NC320759   8.955   8.926   9.450
 4723POPC   PO420760   9.021   9.000   9.150
 4723POPC   GL120761   9.007   9.018   8.850
 4723POPC   GL220762   9.073   8.992   8.850
 4723POPC   C1A20763   8.947   8.940   8.550
 4723POPC   D2A20764   8.954   8.987   8.250
 4723POPC   C3A20765   8.964   9.010   7.950
 4723POPC   C4A20766   8.936   9.020   7.650
 4723POPC   C1B20767   9.254   8.996   8.550
 4723POPC   C2B20768   9.271   8.941   8.250
 4723POPC   C3B20769   9.195   8.980   7.950
 4723POPC   C4B20770   9.249   8.944   7.650
 4724POPC   NC320771  40.813  33.020   9.450
 4724POPC   PO420772  40.746  33.066   9.150
 4724POPC   GL120773  40.737  32.993   8.850
 4724POPC   GL220774  40.771  33.119   8.850
 4724POPC   C1A20775  40.770  32.992   8.550
 4724POPC   D2A20776  40.830  33.051   8.250
 4724POPC   C3A20777  40.749  32.985   7.950
 4724POPC   C4A20778  40.770  33.002   7.650
 4724POPC   C1B20779  40.703  33.212   8.550
 4724POPC   C2B20780  40.688  33.284   8.250
 4724POPC   C3B20781  40.692  33.222   7.950
 4724POPC   C4B20782  40.631  33.220   7.650
 4725POPC   NC320783  17.510   6.616   9.450
 4725POPC   PO420784  17.467   6.616   9.150
 4725POPC   GL120785  17.511   6.693   8.850
 4725POPC   GL220786  17.640   6.568   8.850
 4725POPC   C1A20787  17.522   6.633   8.550
 4725POPC   D2A20788  17.464   6.685   8.250
 4725POPC   C3A20789  17.545   6.640   7.950
 4725POPC   C4A20790  17.517   6.596   7.650
 4725POPC   C1B20791  17.665   6.418   8.550
 4725POPC   C2B20792  17.709   6.426   8.250
 4725POPC   C3B20793  17.680   6.445   7.950
 4725POPC   C4B20794  17.716   6.515   7.650
 4726POPC   NC320795  35.344  19.823   9.450
 4726POPC   PO420796  35.354  19.806   9.150
 4726POPC   GL120797  35.314  19.819   8.850
 4726POPC   GL220798  35.446  19.718   8.850
 4726POPC   C1A20799  35.339  19.863   8.550
 4726POPC   D2A20800  35.340  19.795   8.250
 4726POPC   C3A20801  35.316  19.847   7.950
 4726POPC   C4A20802  35.361  19.823   7.650
 4726POPC   C1B20803  35.516  19.663   8.550
 4726POPC   C2B20804  35.464  19.663   8.250
 4726POPC   C3B20805  35.451  19.584   7.950
 4726POPC   C4B20806  35.430  19.621   7.650
 4727POPC   NC320807  15.172   8.174   9.450
 4727POPC   PO420808  15.184   8.200   9.150
 4727POPC   GL120809  15.183   8.243   8.850
 4727POPC   GL220810  15.303   8.300   8.850
 4727POPC   C1A20811  15.199   8.201   8.550
 4727POPC   D2A20812  15.228   8.236   8.250
 4727POPC   C3A20813  15.132   8.165   7.950
 4727POPC   C4A20814  15.160   8.174   7.650
 4727POPC   C1B20815  15.403   8.397   8.550
 4727POPC   C2B20816  15.399   8.377   8.250
 4727POPC   C3B20817  15.383   8.314   7.950
 4727POPC   C4B20818  15.416   8.379   7.650
 4728POPC   NC320819  32.273   2.010   9.450
 4728POPC   PO420820  32.248   1.995   9.150
 4728POPC   GL120821  32.220   1.993   8.850
 4728POPC   GL220822  32.332   2.096   8.850
 4728POPC   C1A20823  32.261   2.028   8.550
 4728POPC   D2A20824  32.209   1.996   8.250
 4728POPC   C3A20825  32.248   1.978   7.950
 4728POPC   C4A20826  32.273   1.943   7.650
 4728POPC   C1B20827  32.454   2.092   8.550
 4728POPC   C2B20828  32.521   2.074   8.250
 4728POPC   C3B20829  32.501   2.120   7.950
 4728POPC   C4B20830  32.422   2.070   7.650
 4729POPC   NC320831  31.439  36.176   9.450
 4729POPC   PO420832  31.490  36.160   9.150
 4729POPC   GL120833  31.430  36.138   8.850
 4729POPC   GL220834  31.642  36.092   8.850
 4729POPC   C1A20835  31.504  36.161   8.550
 4729POPC   D2A20836  31.450  36.174   8.250
 4729POPC   C3A20837  31.461  36.157   7.950
 4729POPC   C4A20838  31.502  36.151   7.650
 4729POPC   C1B20839  31.733  36.123   8.550
 4729POPC   C2B20840  31.722  36.080   8.250
 4729POPC   C3B20841  31.762  36.061   7.950
 4729POPC   C4B20842  31.690  36.106   7.650
 4730POPC   NC320843  35.364  36.135   9.450
 4730POPC   PO420844  35.334  36.162   9.150
 4730POPC   GL120845  35.319  36.112   8.850
 4730POPC   GL220846  35.394  36.191   8.850
 4730POPC   C1A20847  35.349  36.127   8.550
 4730POPC   D2A20848  35.304  36.137   8.250
 4730POPC   C3A20849  35.326  36.106   7.950
 4730POPC   C4A20850  35.312  36.123   7.650
 4730POPC   C1B20851  35.511  36.307   8.550
 4730POPC   C2B20852  35.424  36.399   8.250
 4730POPC   C3B20853  35.443  36.390   7.950
 4730POPC   C4B20854  35.414  36.332   7.650
 4731POPC   NC320855   2.008  14.418   9.450
 4731POPC   PO420856   2.034  14.400   9.150
 4731POPC   GL120857   2.015  14.435   8.850
 4731POPC   GL220858   1.876  14.451   8.850
 4731POPC   C1A20859   1.941  14.357   8.550
 4731POPC   D2A20860   1.941  14.385   8.250
 4731POPC   C3A20861   1.963  14.397   7.950
 4731POPC   C4A20862   2.006  14.409   7.650
 4731POPC   C1B20863   1.752  14.534   8.550
 4731POPC   C2B20864   1.807  14.504   8.250
 4731POPC   C3B20865   1.813  14.597   7.950
 4731POPC   C4B20866   1.807  14.542   7.650
 4732POPC   NC320867  36.114  20.651   9.450
 4732POPC   PO420868  36.096  20.648   9.150
 4732POPC   GL120869  36.148  20.564   8.850
 4732POPC   GL220870  36.193  20.709   8.850
 4732POPC   C1A20871  36.133  20.599   8.550
 4732POPC   D2A20872  36.144  20.563   8.250
 4732POPC   C3A20873  36.089  20.595   7.950
 4732POPC   C4A20874  36.101  20.584   7.650
 4732POPC   C1B20875  36.372  20.777   8.550
 4732POPC   C2B20876  36.292  20.771   8.250
 4732POPC   C3B20877  36.298  20.721   7.950
 4732POPC   C4B20878  36.387  20.721   7.650
 4733POPC   NC320879  38.441  44.709   9.450
 4733POPC   PO420880  38.472  44.648   9.150
 4733POPC   GL120881  38.456  44.629   8.850
 4733POPC   GL220882  38.296  44.621   8.850
 4733POPC   C1A20883  38.471  44.699   8.550
 4733POPC   D2A20884  38.435  44.621   8.250
 4733POPC   C3A20885  38.484  44.667   7.950
 4733POPC   C4A20886  38.494  44.693   7.650
 4733POPC   C1B20887  38.245  44.593   8.550
 4733POPC   C2B20888  38.173  44.554   8.250
 4733POPC   C3B20889  38.261  44.603   7.950
 4733POPC   C4B20890  38.234  44.624   7.650
 4734POPC   NC320891   5.068  12.108   9.450
 4734POPC   PO420892   5.082  12.091   9.150
 4734POPC   GL120893   5.077  12.034   8.850
 4734POPC   GL220894   4.923  12.083   8.850
 4734POPC   C1A20895   5.070  12.093   8.550
 4734POPC   D2A20896   5.053  12.092   8.250
 4734POPC   C3A20897   5.094  12.116   7.950
 4734POPC   C4A20898   5.052  12.113   7.650
 4734POPC   C1B20899   4.851  12.078   8.550
 4734POPC   C2B20900   4.811  12.082   8.250
 4734POPC   C3B20901   4.885  12.053   7.950
 4734POPC   C4B20902   4.881  12.096   7.650
 4735POPC   NC320903  18.260  23.715   9.450
 4735POPC   PO420904  18.278  23.702   9.150
 4735POPC   GL120905  18.318  23.676   8.850
 4735POPC   GL220906  18.421  23.719   8.850
 4735POPC   C1A20907  18.306  23.716   8.550
 4735POPC   D2A20908  18.273  23.728   8.250
 4735POPC   C3A20909  18.328  23.747   7.950
 4735POPC   C4A20910  18.262  23.674   7.650
 4735POPC   C1B20911  18.528  23.675   8.550
 4735POPC   C2B20912  18.515  23.674   8.250
 4735POPC   C3B20913  18.532  23.590   7.950
 4735POPC   C4B20914  18.512  23.662   7.650
 4736POPC   NC320915  35.370   6.675   9.450
 4736POPC   PO420916  35.376   6.673   9.150
 4736POPC   GL120917  35.306   6.647   8.850
 4736POPC   GL220918  35.328   6.769   8.850
 4736POPC   C1A20919  35.325   6.676   8.550
 4736POPC   D2A20920  35.306   6.618   8.250
 4736POPC   C3A20921  35.316   6.661   7.950
 4736POPC   C4A20922  35.384   6.653   7.650
 4736POPC   C1B20923  35.218   6.896   8.550
 4736POPC   C2B20924  35.221   6.845   8.250
 4736POPC   C3B20925  35.200   6.912   7.950
 4736POPC   C4B20926  35.261   6.859   7.650
 4737POPC   NC320927  22.930  16.002   9.450
 4737POPC   PO420928  22.961  15.944   9.150
 4737POPC   GL120929  22.958  15.948   8.850
 4737POPC   GL220930  22.857  15.974   8.850
 4737POPC   C1A20931  22.979  16.004   8.550
 4737POPC   D2A20932  22.973  15.934   8.250
 4737POPC   C3A20933  22.906  15.912   7.950
 4737POPC   C4A20934  22.924  15.992   7.650
 4737POPC   C1B20935  22.745  16.006   8.550
 4737POPC   C2B20936  22.727  15.995   8.250
 4737POPC   C3B20937  22.672  16.056   7.950
 4737POPC   C4B20938  22.659  16.068   7.650
 4738POPC   NC320939  15.160  11.337   9.450
 4738POPC   PO420940  15.228  11.344   9.150
 4738POPC   GL120941  15.204  11.324   8.850
 4738POPC   GL220942  15.094  11.371   8.850
 4738POPC   C1A20943  15.171  11.322   8.550
 4738POPC   D2A20944  15.224  11.287   8.250
 4738POPC   C3A20945  15.156  11.261   7.950
 4738POPC   C4A20946  15.150  11.300   7.650
 4738POPC   C1B20947  14.968  11.380   8.550
 4738POPC   C2B20948  14.948  11.372   8.250
 4738POPC   C3B20949  14.900  11.353   7.950
 4738POPC   C4B20950  14.989  11.400   7.650
 4739POPC   NC320951  43.107  15.173   9.450
 4739POPC   PO420952  43.065  15.223   9.150
 4739POPC   GL120953  43.089  15.131   8.850
 4739POPC   GL220954  43.213  15.240   8.850
 4739POPC   C1A20955  43.064  15.200   8.550
 4739POPC   D2A20956  43.122  15.171   8.250
 4739POPC   C3A20957  43.119  15.129   7.950
 4739POPC   C4A20958  43.110  15.141   7.650
 4739POPC   C1B20959  43.334  15.286   8.550
 4739POPC   C2B20960  43.292  15.282   8.250
 4739POPC   C3B20961  43.260  15.340   7.950
 4739POPC   C4B20962  43.327  15.310   7.650
 4740POPC   NC320963  25.217  36.101   9.450
 4740POPC   PO420964  25.292  36.170   9.150
 4740POPC   GL120965  25.306  36.116   8.850
 4740POPC   GL220966  25.189  36.211   8.850
 4740POPC   C1A20967  25.287  36.101   8.550
 4740POPC   D2A20968  25.263  36.154   8.250
 4740POPC   C3A20969  25.314  36.113   7.950
 4740POPC   C4A20970  25.289  36.149   7.650
 4740POPC   C1B20971  25.163  36.368   8.550
 4740POPC   C2B20972  25.208  36.352   8.250
 4740POPC   C3B20973  25.196  36.329   7.950
 4740POPC   C4B20974  25.167  36.411   7.650
 4741POPC   NC320975  21.429  29.940   9.450
 4741POPC   PO420976  21.383  29.893   9.150
 4741POPC   GL120977  21.387  29.953   8.850
 4741POPC   GL220978  21.515  29.901   8.850
 4741POPC   C1A20979  21.408  29.968   8.550
 4741POPC   D2A20980  21.365  29.909   8.250
 4741POPC   C3A20981  21.373  29.948   7.950
 4741POPC   C4A20982  21.344  29.968   7.650
 4741POPC   C1B20983  21.585  29.802   8.550
 4741POPC   C2B20984  21.568  29.852   8.250
 4741POPC   C3B20985  21.616  29.768   7.950
 4741POPC   C4B20986  21.630  29.781   7.650
 4742POPC   NC320987  28.415  28.411   9.450
 4742POPC   PO420988  28.417  28.413   9.150
 4742POPC   GL120989  28.383  28.336   8.850
 4742POPC   GL220990  28.306  28.474   8.850
 4742POPC   C1A20991  28.415  28.353   8.550
 4742POPC   D2A20992  28.335  28.385   8.250
 4742POPC   C3A20993  28.379  28.412   7.950
 4742POPC   C4A20994  28.406  28.396   7.650
 4742POPC   C1B20995  28.341  28.589   8.550
 4742POPC   C2B20996  28.358  28.629   8.250
 4742POPC   C3B20997  28.379  28.646   7.950
 4742POPC   C4B20998  28.307  28.623   7.650
 4743POPC   NC320999  38.445  41.563   9.450
 4743POPC   PO421000  38.411  41.589   9.150
 4743POPC   GL121001  38.457  41.587   8.850
 4743POPC   GL221002  38.457  41.697   8.850
 4743POPC   C1A21003  38.419  41.530   8.550
 4743POPC   D2A21004  38.447  41.593   8.250
 4743POPC   C3A21005  38.483  41.568   7.950
 4743POPC   C4A21006  38.421  41.582   7.650
 4743POPC   C1B21007  38.444  41.829   8.550
 4743POPC   C2B21008  38.389  41.768   8.250
 4743POPC   C3B21009  38.440  41.814   7.950
 4743POPC   C4B21010  38.441  41.795   7.650
 4744POPC   NC321011   4.298  12.029   9.450
 4744POPC   PO421012   4.359  12.027   9.150
 4744POPC   GL121013   4.337  12.089   8.850
 4744POPC   GL221014   4.424  12.105   8.850
 4744POPC   C1A21015   4.341  12.123   8.550
 4744POPC   D2A21016   4.331  12.027   8.250
 4744POPC   C3A21017   4.272  12.029   7.950
 4744POPC   C4A21018   4.365  12.125   7.650
 4744POPC   C1B21019   4.592  12.137   8.550
 4744POPC   C2B21020   4.559  12.150   8.250
 4744POPC   C3B21021   4.611  12.086   7.950
 4744POPC   C4B21022   4.540  12.166   7.650
 4745POPC   NC321023  14.374  10.497   9.450
 4745POPC   PO421024  14.392  10.550   9.150
 4745POPC   GL121025  14.384  10.553   8.850
 4745POPC   GL221026  14.293  10.454   8.850
 4745POPC   C1A21027  14.378  10.530   8.550
 4745POPC   D2A21028  14.359  10.528   8.250
 4745POPC   C3A21029  14.374  10.538   7.950
 4745POPC   C4A21030  14.449  10.538   7.650
 4745POPC   C1B21031  14.138  10.391   8.550
 4745POPC   C2B21032  14.143  10.437   8.250
 4745POPC   C3B21033  14.130  10.468   7.950
 4745POPC   C4B21034  14.145  10.393   7.650
 4746POPC   NC321035  12.064  27.597   9.450
 4746POPC   PO421036  12.030  27.569   9.150
 4746POPC   GL121037  12.097  27.596   8.850
 4746POPC   GL221038  11.947  27.675   8.850
 4746POPC   C1A21039  12.095  27.566   8.550
 4746POPC   D2A21040  12.095  27.632   8.250
 4746POPC   C3A21041  12.060  27.604   7.950
 4746POPC   C4A21042  12.055  27.588   7.650
 4746POPC   C1B21043  11.881  27.769   8.550
 4746POPC   C2B21044  11.916  27.723   8.250
 4746POPC   C3B21045  11.882  27.729   7.950
 4746POPC   C4B21046  11.853  27.764   7.650
 4747POPC   NC321047  40.017   2.784   9.450
 4747POPC   PO421048  40.008   2.787   9.150
 4747POPC   GL121049  39.985   2.766   8.850
 4747POPC   GL221050  39.863   2.861   8.850
 4747POPC   C1A21051  40.017   2.749   8.550
 4747POPC   D2A21052  40.013   2.777   8.250
 4747POPC   C3A21053  40.014   2.782   7.950
 4747POPC   C4A21054  40.010   2.771   7.650
 4747POPC   C1B21055  39.758   2.872   8.550
 4747POPC   C2B21056  39.781   2.909   8.250
 4747POPC   C3B21057  39.810   2.906   7.950
 4747POPC   C4B21058  39.821   2.942   7.650
 4748POPC   NC321059  37.638  24.493   9.450
 4748POPC   PO421060  37.704  24.520   9.150
 4748POPC   GL121061  37.726  24.442   8.850
 4748POPC   GL221062  37.764  24.633   8.850
 4748POPC   C1A21063  37.702  24.453   8.550
 4748POPC   D2A21064  37.662  24.484   8.250
 4748POPC   C3A21065  37.632  24.518   7.950
 4748POPC   C4A21066  37.646  24.539   7.650
 4748POPC   C1B21067  37.845  24.712   8.550
 4748POPC   C2B21068  37.795  24.687   8.250
 4748POPC   C3B21069  37.875  24.694   7.950
 4748POPC   C4B21070  37.855  24.669   7.650
 4749POPC   NC321071  29.194  18.297   9.450
 4749POPC   PO421072  29.173  18.316   9.150
 4749POPC   GL121073  29.162  18.319   8.850
 4749POPC   GL221074  29.215  18.229   8.850
 4749POPC   C1A21075  29.110  18.282   8.550
 4749POPC   D2A21076  29.100  18.253   8.250
 4749POPC   C3A21077  29.175  18.316   7.950
 4749POPC   C4A21078  29.189  18.278   7.650
 4749POPC   C1B21079  29.335  18.192   8.550
 4749POPC   C2B21080  29.419  18.250   8.250
 4749POPC   C3B21081  29.348  18.168   7.950
 4749POPC   C4B21082  29.339  18.175   7.650
 4750POPC   NC321083  43.127   2.781   9.450
 4750POPC   PO421084  43.128   2.717   9.150
 4750POPC   GL121085  43.072   2.735   8.850
 4750POPC   GL221086  42.998   2.763   8.850
 4750POPC   C1A21087  43.156   2.800   8.550
 4750POPC   D2A21088  43.133   2.814   8.250
 4750POPC   C3A21089  43.148   2.764   7.950
 4750POPC   C4A21090  43.109   2.806   7.650
 4750POPC   C1B21091  42.918   2.708   8.550
 4750POPC   C2B21092  42.841   2.675   8.250
 4750POPC   C3B21093  42.859   2.696   7.950
 4750POPC   C4B21094  42.904   2.683   7.650
 4751POPC   NC321095   5.832  10.520   9.450
 4751POPC   PO421096   5.916  10.545   9.150
 4751POPC   GL121097   5.879  10.530   8.850
 4751POPC   GL221098   5.763  10.658   8.850
 4751POPC   C1A21099   5.846  10.555   8.550
 4751POPC   D2A21100   5.900  10.493   8.250
 4751POPC   C3A21101   5.905  10.553   7.950
 4751POPC   C4A21102   5.905  10.490   7.650
 4751POPC   C1B21103   5.686  10.670   8.550
 4751POPC   C2B21104   5.745  10.722   8.250
 4751POPC   C3B21105   5.747  10.694   7.950
 4751POPC   C4B21106   5.725  10.723   7.650
 4752POPC   NC321107  21.417  38.499   9.450
 4752POPC   PO421108  21.370  38.499   9.150
 4752POPC   GL121109  21.392  38.412   8.850
 4752POPC   GL221110  21.521  38.520   8.850
 4752POPC   C1A21111  21.424  38.486   8.550
 4752POPC   D2A21112  21.421  38.469   8.250
 4752POPC   C3A21113  21.359  38.500   7.950
 4752POPC   C4A21114  21.436  38.422   7.650
 4752POPC   C1B21115  21.597  38.561   8.550
 4752POPC   C2B21116  21.661  38.567   8.250
 4752POPC   C3B21117  21.667  38.568   7.950
 4752POPC   C4B21118  21.577  38.568   7.650
 4753POPC   NC321119  32.253  20.561   9.450
 4753POPC   PO421120  32.252  20.586   9.150
 4753POPC   GL121121  32.203  20.657   8.850
 4753POPC   GL221122  32.328  20.540   8.850
 4753POPC   C1A21123  32.278  20.626   8.550
 4753POPC   D2A21124  32.243  20.597   8.250
 4753POPC   C3A21125  32.212  20.626   7.950
 4753POPC   C4A21126  32.203  20.610   7.650
 4753POPC   C1B21127  32.439  20.457   8.550
 4753POPC   C2B21128  32.372  20.420   8.250
 4753POPC   C3B21129  32.396  20.371   7.950
 4753POPC   C4B21130  32.379  20.371   7.650
 4754POPC   NC321131   4.336  19.857   9.450
 4754POPC   PO421132   4.331  19.858   9.150
 4754POPC   GL121133   4.367  19.846   8.850
 4754POPC   GL221134   4.463  19.911   8.850
 4754POPC   C1A21135   4.294  19.859   8.550
 4754POPC   D2A21136   4.333  19.816   8.250
 4754POPC   C3A21137   4.342  19.809   7.950
 4754POPC   C4A21138   4.271  19.855   7.650
 4754POPC   C1B21139   4.472  20.023   8.550
 4754POPC   C2B21140   4.561  19.983   8.250
 4754POPC   C3B21141   4.558  20.009   7.950
 4754POPC   C4B21142   4.515  19.965   7.650
 4755POPC   NC321143  41.593   7.401   9.450
 4755POPC   PO421144  41.582   7.459   9.150
 4755POPC   GL121145  41.596   7.397   8.850
 4755POPC   GL221146  41.666   7.472   8.850
 4755POPC   C1A21147  41.521   7.430   8.550
 4755POPC   D2A21148  41.597   7.467   8.250
 4755POPC   C3A21149  41.574   7.465   7.950
 4755POPC   C4A21150  41.599   7.380   7.650
 4755POPC   C1B21151  41.818   7.422   8.550
 4755POPC   C2B21152  41.794   7.413   8.250
 4755POPC   C3B21153  41.766   7.490   7.950
 4755POPC   C4B21154  41.787   7.443   7.650
 4756POPC   NC321155   2.814   5.072   9.450
 4756POPC   PO421156   2.767   5.080   9.150
 4756POPC   GL121157   2.790   5.076   8.850
 4756POPC   GL221158   2.934   5.096   8.850
 4756POPC   C1A21159   2.800   5.064   8.550
 4756POPC   D2A21160   2.778   5.095   8.250
 4756POPC   C3A21161   2.762   5.113   7.950
 4756POPC   C4A21162   2.755   5.086   7.650
 4756POPC   C1B21163   2.991   5.140   8.550
 4756POPC   C2B21164   2.990   5.072   8.250
 4756POPC   C3B21165   2.992   5.085   7.950
 4756POPC   C4B21166   3.019   5.152   7.650
 4757POPC   NC321167  18.294  19.027   9.450
 4757POPC   PO421168  18.263  19.067   9.150
 4757POPC   GL121169  18.262  19.024   8.850
 4757POPC   GL221170  18.261  19.134   8.850
 4757POPC   C1A21171  18.275  19.097   8.550
 4757POPC   D2A21172  18.255  19.034   8.250
 4757POPC   C3A21173  18.251  19.046   7.950
 4757POPC   C4A21174  18.291  19.010   7.650
 4757POPC   C1B21175  18.309  19.304   8.550
 4757POPC   C2B21176  18.258  19.305   8.250
 4757POPC   C3B21177  18.281  19.323   7.950
 4757POPC   C4B21178  18.320  19.322   7.650
 4758POPC   NC321179  15.920  18.243   9.450
 4758POPC   PO421180  15.988  18.262   9.150
 4758POPC   GL121181  15.919  18.266   8.850
 4758POPC   GL221182  16.061  18.187   8.850
 4758POPC   C1A21183  15.942  18.310   8.550
 4758POPC   D2A21184  16.002  18.267   8.250
 4758POPC   C3A21185  15.937  18.319   7.950
 4758POPC   C4A21186  15.990  18.253   7.650
 4758POPC   C1B21187  16.103  18.105   8.550
 4758POPC   C2B21188  16.163  18.124   8.250
 4758POPC   C3B21189  16.156  18.074   7.950
 4758POPC   C4B21190  16.096  18.073   7.650
 4759POPC   NC321191  40.011  25.307   9.450
 4759POPC   PO421192  40.017  25.271   9.150
 4759POPC   GL121193  40.004  25.315   8.850
 4759POPC   GL221194  40.077  25.400   8.850
 4759POPC   C1A21195  40.044  25.282   8.550
 4759POPC   D2A21196  40.001  25.272   8.250
 4759POPC   C3A21197  40.021  25.306   7.950
 4759POPC   C4A21198  39.993  25.260   7.650
 4759POPC   C1B21199  40.146  25.512   8.550
 4759POPC   C2B21200  40.108  25.518   8.250
 4759POPC   C3B21201  40.139  25.484   7.950
 4759POPC   C4B21202  40.084  25.518   7.650
 4760POPC   NC321203  12.866  12.805   9.450
 4760POPC   PO421204  12.847  12.837   9.150
 4760POPC   GL121205  12.887  12.804   8.850
 4760POPC   GL221206  12.922  12.979   8.850
 4760POPC   C1A21207  12.806  12.827   8.550
 4760POPC   D2A21208  12.808  12.892   8.250
 4760POPC   C3A21209  12.844  12.888   7.950
 4760POPC   C4A21210  12.845  12.889   7.650
 4760POPC   C1B21211  13.050  13.019   8.550
 4760POPC   C2B21212  13.018  12.980   8.250
 4760POPC   C3B21213  13.072  13.046   7.950
 4760POPC   C4B21214  13.050  13.059   7.650
 4761POPC   NC321215   2.789   1.197   9.450
 4761POPC   PO421216   2.740   1.188   9.150
 4761POPC   GL121217   2.760   1.178   8.850
 4761POPC   GL221218   2.839   1.116   8.850
 4761POPC   C1A21219   2.763   1.197   8.550
 4761POPC   D2A21220   2.786   1.187   8.250
 4761POPC   C3A21221   2.784   1.257   7.950
 4761POPC   C4A21222   2.753   1.203   7.650
 4761POPC   C1B21223   2.841   0.931   8.550
 4761POPC   C2B21224   2.793   0.925   8.250
 4761POPC   C3B21225   2.767   1.008   7.950
 4761POPC   C4B21226   2.771   0.991   7.650
 4762POPC   NC321227  15.983  20.633   9.450
 4762POPC   PO421228  15.950  20.588   9.150
 4762POPC   GL121229  15.910  20.631   8.850
 4762POPC   GL221230  15.987  20.722   8.850
 4762POPC   C1A21231  15.913  20.614   8.550
 4762POPC   D2A21232  15.916  20.593   8.250
 4762POPC   C3A21233  15.960  20.615   7.950
 4762POPC   C4A21234  15.927  20.655   7.650
 4762POPC   C1B21235  15.904  20.825   8.550
 4762POPC   C2B21236  15.957  20.895   8.250
 4762POPC   C3B21237  15.948  20.835   7.950
 4762POPC   C4B21238  15.992  20.861   7.650
 4763POPC   NC321239   0.399   0.449   9.450
 4763POPC   PO421240   0.475   0.459   9.150
 4763POPC   GL121241   0.459   0.464   8.850
 4763POPC   GL221242   0.411   0.364   8.850
 4763POPC   C1A21243   0.437   0.396   8.550
 4763POPC   D2A21244   0.426   0.463   8.250
 4763POPC   C3A21245   0.425   0.401   7.950
 4763POPC   C4A21246   0.421   0.411   7.650
 4763POPC   C1B21247   0.299   0.187   8.550
 4763POPC   C2B21248   0.324   0.253   8.250
 4763POPC   C3B21249   0.320   0.206   7.950
 4763POPC   C4B21250   0.276   0.220   7.650
 4764POPC   NC321251  40.018  12.858   9.450
 4764POPC   PO421252  40.031  12.855   9.150
 4764POPC   GL121253  40.009  12.886   8.850
 4764POPC   GL221254  40.048  12.768   8.850
 4764POPC   C1A21255  40.009  12.815   8.550
 4764POPC   D2A21256  40.011  12.804   8.250
 4764POPC   C3A21257  39.978  12.859   7.950
 4764POPC   C4A21258  39.967  12.817   7.650
 4764POPC   C1B21259  40.118  12.594   8.550
 4764POPC   C2B21260  40.119  12.631   8.250
 4764POPC   C3B21261  40.088  12.622   7.950
 4764POPC   C4B21262  40.150  12.645   7.650
 4765POPC   NC321263   9.006   0.419   9.450
 4765POPC   PO421264   8.933   0.457   9.150
 4765POPC   GL121265   8.993   0.459   8.850
 4765POPC   GL221266   9.014   0.293   8.850
 4765POPC   C1A21267   8.972   0.389   8.550
 4765POPC   D2A21268   8.950   0.416   8.250
 4765POPC   C3A21269   8.924   0.461   7.950
 4765POPC   C4A21270   8.988   0.481   7.650
 4765POPC   C1B21271   9.045   0.201   8.550
 4765POPC   C2B21272   9.047   0.205   8.250
 4765POPC   C3B21273   8.964   0.146   7.950
 4765POPC   C4B21274   9.018   0.155   7.650
 4766POPC   NC321275   4.302   8.962   9.450
 4766POPC   PO421276   4.305   9.013   9.150
 4766POPC   GL121277   4.361   8.977   8.850
 4766POPC   GL221278   4.372   8.917   8.850
 4766POPC   C1A21279   4.313   8.936   8.550
 4766POPC   D2A21280   4.284   9.018   8.250
 4766POPC   C3A21281   4.348   8.963   7.950
 4766POPC   C4A21282   4.362   8.969   7.650
 4766POPC   C1B21283   4.491   8.827   8.550
 4766POPC   C2B21284   4.523   8.731   8.250
 4766POPC   C3B21285   4.455   8.810   7.950
 4766POPC   C4B21286   4.432   8.821   7.650
 4767POPC   NC321287  31.428  15.952   9.450
 4767POPC   PO421288  31.450  15.932   9.150
 4767POPC   GL121289  31.513  15.922   8.850
 4767POPC   GL221290  31.335  15.940   8.850
 4767POPC   C1A21291  31.508  15.929   8.550
 4767POPC   D2A21292  31.462  15.924   8.250
 4767POPC   C3A21293  31.432  15.978   7.950
 4767POPC   C4A21294  31.512  15.955   7.650
 4767POPC   C1B21295  31.224  15.905   8.550
 4767POPC   C2B21296  31.242  15.880   8.250
 4767POPC   C3B21297  31.207  15.967   7.950
 4767POPC   C4B21298  31.216  15.924   7.650
 4768POPC   NC321299  43.121  14.434   9.450
 4768POPC   PO421300  43.108  14.444   9.150
 4768POPC   GL121301  43.084  14.355   8.850
 4768POPC   GL221302  43.154  14.506   8.850
 4768POPC   C1A21303  43.092  14.433   8.550
 4768POPC   D2A21304  43.155  14.413   8.250
 4768POPC   C3A21305  43.091  14.373   7.950
 4768POPC   C4A21306  43.076  14.431   7.650
 4768POPC   C1B21307  43.170  14.656   8.550
 4768POPC   C2B21308  43.101  14.638   8.250
 4768POPC   C3B21309  43.146  14.693   7.950
 4768POPC   C4B21310  43.096  14.672   7.650
 4769POPC   NC321311  22.132   5.073   9.450
 4769POPC   PO421312  22.185   5.105   9.150
 4769POPC   GL121313  22.124   5.084   8.850
 4769POPC   GL221314  22.113   5.012   8.850
 4769POPC   C1A21315  22.168   5.120   8.550
 4769POPC   D2A21316  22.189   5.088   8.250
 4769POPC   C3A21317  22.128   5.075   7.950
 4769POPC   C4A21318  22.148   5.141   7.650
 4769POPC   C1B21319  21.956   4.921   8.550
 4769POPC   C2B21320  21.977   4.969   8.250
 4769POPC   C3B21321  21.979   4.929   7.950
 4769POPC   C4B21322  21.932   4.936   7.650
 4770POPC   NC321323  18.264  11.306   9.450
 4770POPC   PO421324  18.290  11.345   9.150
 4770POPC   GL121325  18.297  11.340   8.850
 4770POPC   GL221326  18.407  11.359   8.850
 4770POPC   C1A21327  18.321  11.305   8.550
 4770POPC   D2A21328  18.317  11.298   8.250
 4770POPC   C3A21329  18.274  11.268   7.950
 4770POPC   C4A21330  18.243  11.260   7.650
 4770POPC   C1B21331  18.488  11.345   8.550
 4770POPC   C2B21332  18.497  11.395   8.250
 4770POPC   C3B21333  18.540  11.398   7.950
 4770POPC   C4B21334  18.485  11.436   7.650
 4771POPC   NC321335  19.860  33.817   9.450
 4771POPC   PO421336  19.863  33.773   9.150
 4771POPC   GL121337  19.843  33.801   8.850
 4771POPC   GL221338  19.812  33.662   8.850
 4771POPC   C1A21339  19.795  33.793   8.550
 4771POPC   D2A21340  19.858  33.750   8.250
 4771POPC   C3A21341  19.820  33.815   7.950
 4771POPC   C4A21342  19.866  33.799   7.650
 4771POPC   C1B21343  19.730  33.552   8.550
 4771POPC   C2B21344  19.648  33.631   8.250
 4771POPC   C3B21345  19.655  33.569   7.950
 4771POPC   C4B21346  19.673  33.544   7.650
 4772POPC   NC321347  11.313  43.867   9.450
 4772POPC   PO421348  11.281  43.925   9.150
 4772POPC   GL121349  11.317  43.859   8.850
 4772POPC   GL221350  11.407  44.000   8.850
 4772POPC   C1A21351  11.342  43.848   8.550
 4772POPC   D2A21352  11.284  43.883   8.250
 4772POPC   C3A21353  11.276  43.920   7.950
 4772POPC   C4A21354  11.345  43.919   7.650
 4772POPC   C1B21355  11.488  44.063   8.550
 4772POPC   C2B21356  11.397  44.108   8.250
 4772POPC   C3B21357  11.402  44.110   7.950
 4772POPC   C4B21358  11.396  44.051   7.650
 4773POPC   NC321359  15.918  21.413   9.450
 4773POPC   PO421360  15.910  21.338   9.150
 4773POPC   GL121361  15.961  21.351   8.850
 4773POPC   GL221362  16.001  21.462   8.850
 4773POPC   C1A21363  15.969  21.361   8.550
 4773POPC   D2A21364  15.927  21.436   8.250
 4773POPC   C3A21365  15.946  21.408   7.950
 4773POPC   C4A21366  15.950  21.404   7.650
 4773POPC   C1B21367  16.161  21.582   8.550
 4773POPC   C2B21368  16.074  21.556   8.250
 4773POPC   C3B21369  16.149  21.620   7.950
 4773POPC   C4B21370  16.070  21.571   7.650
 4774POPC   NC321371  36.133  39.216   9.450
 4774POPC   PO421372  36.094  39.269   9.150
 4774POPC   GL121373  36.131  39.225   8.850
 4774POPC   GL221374  36.129  39.138   8.850
 4774POPC   C1A21375  36.159  39.274   8.550
 4774POPC   D2A21376  36.146  39.217   8.250
 4774POPC   C3A21377  36.088  39.187   7.950
 4774POPC   C4A21378  36.141  39.202   7.650
 4774POPC   C1B21379  36.037  38.974   8.550
 4774POPC   C2B21380  36.054  39.031   8.250
 4774POPC   C3B21381  36.057  38.976   7.950
 4774POPC   C4B21382  36.115  39.015   7.650
 4775POPC   NC321383  23.708  23.689   9.450
 4775POPC   PO421384  23.736  23.720   9.150
 4775POPC   GL121385  23.735  23.684   8.850
 4775POPC   GL221386  23.824  23.830   8.850
 4775POPC   C1A21387  23.739  23.666   8.550
 4775POPC   D2A21388  23.748  23.730   8.250
 4775POPC   C3A21389  23.700  23.677   7.950
 4775POPC   C4A21390  23.744  23.751   7.650
 4775POPC   C1B21391  23.827  23.856   8.550
 4775POPC   C2B21392  23.851  23.906   8.250
 4775POPC   C3B21393  23.827  23.865   7.950
 4775POPC   C4B21394  23.903  23.856   7.650
 4776POPC   NC321395  13.632   5.832   9.450
 4776POPC   PO421396  13.674   5.821   9.150
 4776POPC   GL121397  13.643   5.844   8.850
 4776POPC   GL221398  13.620   5.704   8.850
 4776POPC   C1A21399  13.602   5.887   8.550
 4776POPC   D2A21400  13.632   5.875   8.250
 4776POPC   C3A21401  13.626   5.880   7.950
 4776POPC   C4A21402  13.600   5.899   7.650
 4776POPC   C1B21403  13.548   5.656   8.550
 4776POPC   C2B21404  13.553   5.633   8.250
 4776POPC   C3B21405  13.517   5.610   7.950
 4776POPC   C4B21406  13.553   5.627   7.650
 4777POPC   NC321407  38.441  36.096   9.450
 4777POPC   PO421408  38.430  36.123   9.150
 4777POPC   GL121409  38.412  36.104   8.850
 4777POPC   GL221410  38.563  36.112   8.850
 4777POPC   C1A21411  38.482  36.083   8.550
 4777POPC   D2A21412  38.448  36.176   8.250
 4777POPC   C3A21413  38.501  36.102   7.950
 4777POPC   C4A21414  38.440  36.154   7.650
 4777POPC   C1B21415  38.698  36.202   8.550
 4777POPC   C2B21416  38.658  36.183   8.250
 4777POPC   C3B21417  38.695  36.155   7.950
 4777POPC   C4B21418  38.666  36.134   7.650
 4778POPC   NC321419  43.921  36.950   9.450
 4778POPC   PO421420  43.856  36.927   9.150
 4778POPC   GL121421  43.902  36.901   8.850
 4778POPC   GL221422  44.026  36.981   8.850
 4778POPC   C1A21423  43.861  36.889   8.550
 4778POPC   D2A21424  43.863  36.900   8.250
 4778POPC   C3A21425  43.849  36.864   7.950
 4778POPC   C4A21426  43.854  36.877   7.650
 4778POPC   C1B21427  44.177  36.980   8.550
 4778POPC   C2B21428  44.094  36.992   8.250
 4778POPC   C3B21429  44.150  36.966   7.950
 4778POPC   C4B21430  44.097  36.937   7.650
 4779POPC   NC321431   8.951  28.412   9.450
 4779POPC   PO421432   8.952  28.351   9.150
 4779POPC   GL121433   8.961  28.379   8.850
 4779POPC   GL221434   9.108  28.382   8.850
 4779POPC   C1A21435   8.945  28.337   8.550
 4779POPC   D2A21436   8.961  28.324   8.250
 4779POPC   C3A21437   8.985  28.348   7.950
 4779POPC   C4A21438   8.970  28.364   7.650
 4779POPC   C1B21439   9.193  28.448   8.550
 4779POPC   C2B21440   9.233  28.452   8.250
 4779POPC   C3B21441   9.195  28.452   7.950
 4779POPC   C4B21442   9.243  28.460   7.650
 4780POPC   NC321443   8.984   5.847   9.450
 4780POPC   PO421444   8.970   5.874   9.150
 4780POPC   GL121445   8.935   5.915   8.850
 4780POPC   GL221446   8.872   5.776   8.850
 4780POPC   C1A21447   8.925   5.906   8.550
 4780POPC   D2A21448   9.018   5.835   8.250
 4780POPC   C3A21449   8.930   5.874   7.950
 4780POPC   C4A21450   8.934   5.829   7.650
 4780POPC   C1B21451   8.725   5.695   8.550
 4780POPC   C2B21452   8.804   5.762   8.250
 4780POPC   C3B21453   8.734   5.764   7.950
 4780POPC   C4B21454   8.731   5.731   7.650
 4781POPC   NC321455  31.511  12.094   9.450
 4781POPC   PO421456  31.448  12.073   9.150
 4781POPC   GL121457  31.514  12.041   8.850
 4781POPC   GL221458  31.525  11.946   8.850
 4781POPC   C1A21459  31.429  12.104   8.550
 4781POPC   D2A21460  31.479  12.104   8.250
 4781POPC   C3A21461  31.432  12.044   7.950
 4781POPC   C4A21462  31.423  12.067   7.650
 4781POPC   C1B21463  31.497  11.847   8.550
 4781POPC   C2B21464  31.587  11.831   8.250
 4781POPC   C3B21465  31.504  11.885   7.950
 4781POPC   C4B21466  31.548  11.874   7.650
 4782POPC   NC321467  33.002  36.919   9.450
 4782POPC   PO421468  33.067  36.922   9.150
 4782POPC   GL121469  33.034  36.868   8.850
 4782POPC   GL221470  33.122  36.839   8.850
 4782POPC   C1A21471  32.994  36.856   8.550
 4782POPC   D2A21472  32.980  36.862   8.250
 4782POPC   C3A21473  33.018  36.940   7.950
 4782POPC   C4A21474  33.023  36.928   7.650
 4782POPC   C1B21475  33.225  36.704   8.550
 4782POPC   C2B21476  33.216  36.688   8.250
 4782POPC   C3B21477  33.215  36.674   7.950
 4782POPC   C4B21478  33.171  36.758   7.650
 4783POPC   NC321479  28.319  33.838   9.450
 4783POPC   PO421480  28.334  33.817   9.150
 4783POPC   GL121481  28.351  33.801   8.850
 4783POPC   GL221482  28.408  33.885   8.850
 4783POPC   C1A21483  28.324  33.792   8.550
 4783POPC   D2A21484  28.406  33.797   8.250
 4783POPC   C3A21485  28.358  33.815   7.950
 4783POPC   C4A21486  28.374  33.755   7.650
 4783POPC   C1B21487  28.463  33.991   8.550
 4783POPC   C2B21488  28.530  34.014   8.250
 4783POPC   C3B21489  28.527  33.998   7.950
 4783POPC   C4B21490  28.536  34.008   7.650
 4784POPC   NC321491  34.550  44.625   9.450
 4784POPC   PO421492  34.604  44.621   9.150
 4784POPC   GL121493  34.575  44.696   8.850
 4784POPC   GL221494  34.623  44.806   8.850
 4784POPC   C1A21495  34.528  44.628   8.550
 4784POPC   D2A21496  34.608  44.660   8.250
 4784POPC   C3A21497  34.605  44.700   7.950
 4784POPC   C4A21498  34.563  44.621   7.650
 4784POPC   C1B21499  34.729  44.889   8.550
 4784POPC   C2B21500  34.662  44.863   8.250
 4784POPC   C3B21501  34.706  44.873   7.950
 4784POPC   C4B21502  34.677  44.863   7.650
 4785POPC   NC321503  32.248   5.065   9.450
 4785POPC   PO421504  32.294   5.088   9.150
 4785POPC   GL121505  32.258   5.141   8.850
 4785POPC   GL221506  32.288   5.176   8.850
 4785POPC   C1A21507  32.293   5.123   8.550
 4785POPC   D2A21508  32.250   5.114   8.250
 4785POPC   C3A21509  32.225   5.098   7.950
 4785POPC   C4A21510  32.266   5.075   7.650
 4785POPC   C1B21511  32.350   5.342   8.550
 4785POPC   C2B21512  32.364   5.349   8.250
 4785POPC   C3B21513  32.322   5.333   7.950
 4785POPC   C4B21514  32.338   5.310   7.650
 4786POPC   NC321515   5.915  25.256   9.450
 4786POPC   PO421516   5.917  25.273   9.150
 4786POPC   GL121517   5.859  25.288   8.850
 4786POPC   GL221518   5.843  25.350   8.850
 4786POPC   C1A21519   5.863  25.219   8.550
 4786POPC   D2A21520   5.851  25.293   8.250
 4786POPC   C3A21521   5.891  25.298   7.950
 4786POPC   C4A21522   5.902  25.229   7.650
 4786POPC   C1B21523   5.888  25.565   8.550
 4786POPC   C2B21524   5.835  25.484   8.250
 4786POPC   C3B21525   5.832  25.495   7.950
 4786POPC   C4B21526   5.878  25.531   7.650
 4787POPC   NC321527  10.542  11.281   9.450
 4787POPC   PO421528  10.503  11.266   9.150
 4787POPC   GL121529  10.530  11.296   8.850
 4787POPC   GL221530  10.509  11.230   8.850
 4787POPC   C1A21531  10.506  11.303   8.550
 4787POPC   D2A21532  10.495  11.314   8.250
 4787POPC   C3A21533  10.490  11.308   7.950
 4787POPC   C4A21534  10.522  11.285   7.650
 4787POPC   C1B21535  10.461  11.059   8.550
 4787POPC   C2B21536  10.421  11.038   8.250
 4787POPC   C3B21537  10.439  11.048   7.950
 4787POPC   C4B21538  10.413  11.084   7.650
 4788POPC   NC321539  12.088   6.600   9.450
 4788POPC   PO421540  12.106   6.631   9.150
 4788POPC   GL121541  12.080   6.607   8.850
 4788POPC   GL221542  12.014   6.619   8.850
 4788POPC   C1A21543  12.051   6.657   8.550
 4788POPC   D2A21544  12.029   6.666   8.250
 4788POPC   C3A21545  12.035   6.615   7.950
 4788POPC   C4A21546  12.096   6.626   7.650
 4788POPC   C1B21547  11.834   6.491   8.550
 4788POPC   C2B21548  11.893   6.556   8.250
 4788POPC   C3B21549  11.900   6.547   7.950
 4788POPC   C4B21550  11.863   6.578   7.650
 4789POPC   NC321551  28.341  15.965   9.450
 4789POPC   PO421552  28.389  15.918   9.150
 4789POPC   GL121553  28.381  15.939   8.850
 4789POPC   GL221554  28.444  15.979   8.850
 4789POPC   C1A21555  28.399  15.942   8.550
 4789POPC   D2A21556  28.392  15.906   8.250
 4789POPC   C3A21557  28.348  15.970   7.950
 4789POPC   C4A21558  28.353  15.983   7.650
 4789POPC   C1B21559  28.567  15.959   8.550
 4789POPC   C2B21560  28.593  15.873   8.250
 4789POPC   C3B21561  28.656  15.953   7.950
 4789POPC   C4B21562  28.610  15.938   7.650
 4790POPC   NC321563  24.449  15.222   9.450
 4790POPC   PO421564  24.477  15.200   9.150
 4790POPC   GL121565  24.469  15.208   8.850
 4790POPC   GL221566  24.458  15.083   8.850
 4790POPC   C1A21567  24.485  15.167   8.550
 4790POPC   D2A21568  24.445  15.178   8.250
 4790POPC   C3A21569  24.444  15.212   7.950
 4790POPC   C4A21570  24.534  15.169   7.650
 4790POPC   C1B21571  24.460  14.944   8.550
 4790POPC   C2B21572  24.490  14.974   8.250
 4790POPC   C3B21573  24.478  14.955   7.950
 4790POPC   C4B21574  24.484  14.961   7.650
 4791POPC   NC321575  12.108  26.797   9.450
 4791POPC   PO421576  12.120  26.846   9.150
 4791POPC   GL121577  12.046  26.858   8.850
 4791POPC   GL221578  12.179  26.868   8.850
 4791POPC   C1A21579  12.116  26.846   8.550
 4791POPC   D2A21580  12.110  26.804   8.250
 4791POPC   C3A21581  12.120  26.804   7.950
 4791POPC   C4A21582  12.102  26.830   7.650
 4791POPC   C1B21583  12.240  26.965   8.550
 4791POPC   C2B21584  12.253  27.011   8.250
 4791POPC   C3B21585  12.259  26.965   7.950
 4791POPC   C4B21586  12.227  27.022   7.650
 4792POPC   NC321587  22.212   1.189   9.450
 4792POPC   PO421588  22.211   1.227   9.150
 4792POPC   GL121589  22.116   1.200   8.850
 4792POPC   GL221590  22.079   1.358   8.850
 4792POPC   C1A21591  22.147   1.227   8.550
 4792POPC   D2A21592  22.114   1.207   8.250
 4792POPC   C3A21593  22.206   1.208   7.950
 4792POPC   C4A21594  22.127   1.246   7.650
 4792POPC   C1B21595  21.996   1.398   8.550
 4792POPC   C2B21596  21.965   1.437   8.250
 4792POPC   C3B21597  22.045   1.406   7.950
 4792POPC   C4B21598  21.951   1.437   7.650
 4793POPC   NC321599  37.632  12.893   9.450
 4793POPC   PO421600  37.646  12.832   9.150
 4793POPC   GL121601  37.660  12.829   8.850
 4793POPC   GL221602  37.607  12.729   8.850
 4793POPC   C1A21603  37.681  12.856   8.550
 4793POPC   D2A21604  37.694  12.883   8.250
 4793POPC   C3A21605  37.656  12.878   7.950
 4793POPC   C4A21606  37.665  12.875   7.650
 4793POPC   C1B21607  37.572  12.616   8.550
 4793POPC   C2B21608  37.631  12.661   8.250
 4793POPC   C3B21609  37.602  12.583   7.950
 4793POPC   C4B21610  37.539  12.635   7.650
 4794POPC   NC321611   9.727  43.153   9.450
 4794POPC   PO421612   9.705  43.070   9.150
 4794POPC   GL121613   9.729  43.158   8.850
 4794POPC   GL221614   9.776  43.254   8.850
 4794POPC   C1A21615   9.760  43.108   8.550
 4794POPC   D2A21616   9.719  43.071   8.250
 4794POPC   C3A21617   9.704  43.109   7.950
 4794POPC   C4A21618   9.759  43.069   7.650
 4794POPC   C1B21619   9.919  43.298   8.550
 4794POPC   C2B21620   9.929  43.338   8.250
 4794POPC   C3B21621   9.873  43.326   7.950
 4794POPC   C4B21622   9.859  43.322   7.650
 4795POPC   NC321623  19.081  32.273   9.450
 4795POPC   PO421624  19.019  32.205   9.150
 4795POPC   GL121625  19.092  32.272   8.850
 4795POPC   GL221626  18.912  32.174   8.850
 4795POPC   C1A21627  19.091  32.241   8.550
 4795POPC   D2A21628  19.051  32.294   8.250
 4795POPC   C3A21629  19.058  32.292   7.950
 4795POPC   C4A21630  19.054  32.227   7.650
 4795POPC   C1B21631  18.878  32.063   8.550
 4795POPC   C2B21632  18.803  32.132   8.250
 4795POPC   C3B21633  18.893  32.122   7.950
 4795POPC   C4B21634  18.806  32.140   7.650
 4796POPC   NC321635  12.852  12.031   9.450
 4796POPC   PO421636  12.810  12.114   9.150
 4796POPC   GL121637  12.846  12.073   8.850
 4796POPC   GL221638  12.745  12.127   8.850
 4796POPC   C1A21639  12.886  12.109   8.550
 4796POPC   D2A21640  12.872  12.120   8.250
 4796POPC   C3A21641  12.858  12.027   7.950
 4796POPC   C4A21642  12.803  12.104   7.650
 4796POPC   C1B21643  12.636  12.108   8.550
 4796POPC   C2B21644  12.572  12.101   8.250
 4796POPC   C3B21645  12.644  12.075   7.950
 4796POPC   C4B21646  12.647  12.130   7.650
 4797POPC   NC321647  43.111   6.681   9.450
 4797POPC   PO421648  43.076   6.685   9.150
 4797POPC   GL121649  43.068   6.623   8.850
 4797POPC   GL221650  43.122   6.720   8.850
 4797POPC   C1A21651  43.103   6.676   8.550
 4797POPC   D2A21652  43.088   6.673   8.250
 4797POPC   C3A21653  43.138   6.643   7.950
 4797POPC   C4A21654  43.157   6.636   7.650
 4797POPC   C1B21655  43.189   6.895   8.550
 4797POPC   C2B21656  43.170   6.881   8.250
 4797POPC   C3B21657  43.245   6.861   7.950
 4797POPC   C4B21658  43.236   6.868   7.650
 4798POPC   NC321659   5.887   2.720   9.450
 4798POPC   PO421660   5.833   2.727   9.150
 4798POPC   GL121661   5.917   2.794   8.850
 4798POPC   GL221662   5.803   2.599   8.850
 4798POPC   C1A21663   5.850   2.781   8.550
 4798POPC   D2A21664   5.912   2.743   8.250
 4798POPC   C3A21665   5.886   2.754   7.950
 4798POPC   C4A21666   5.846   2.746   7.650
 4798POPC   C1B21667   5.836   2.569   8.550
 4798POPC   C2B21668   5.783   2.566   8.250
 4798POPC   C3B21669   5.806   2.500   7.950
 4798POPC   C4B21670   5.804   2.474   7.650
 4799POPC   NC321671  18.243  15.220   9.450
 4799POPC   PO421672  18.267  15.147   9.150
 4799POPC   GL121673  18.234  15.215   8.850
 4799POPC   GL221674  18.292  15.346   8.850
 4799POPC   C1A21675  18.260  15.157   8.550
 4799POPC   D2A21676  18.295  15.168   8.250
 4799POPC   C3A21677  18.316  15.173   7.950
 4799POPC   C4A21678  18.327  15.227   7.650
 4799POPC   C1B21679  18.304  15.434   8.550
 4799POPC   C2B21680  18.311  15.456   8.250
 4799POPC   C3B21681  18.289  15.382   7.950
 4799POPC   C4B21682  18.332  15.394   7.650
 4800POPC   NC321683  36.934  39.987   9.450
 4800POPC   PO421684  36.880  40.040   9.150
 4800POPC   GL121685  36.905  40.016   8.850
 4800POPC   GL221686  36.924  40.161   8.850
 4800POPC   C1A21687  36.940  40.019   8.550
 4800POPC   D2A21688  36.876  39.977   8.250
 4800POPC   C3A21689  36.890  39.963   7.950
 4800POPC   C4A21690  36.886  40.016   7.650
 4800POPC   C1B21691  36.951  40.256   8.550
 4800POPC   C2B21692  36.922  40.275   8.250
 4800POPC   C3B21693  36.942  40.304   7.950
 4800POPC   C4B21694  36.951  40.299   7.650
 4801POPC   NC321695   2.030  36.112   9.450
 4801POPC   PO421696   1.975  36.161   9.150
 4801POPC   GL121697   1.982  36.170   8.850
 4801POPC   GL221698   2.081  36.107   8.850
 4801POPC   C1A21699   2.026  36.158   8.550
 4801POPC   D2A21700   2.025  36.171   8.250
 4801POPC   C3A21701   1.956  36.136   7.950
 4801POPC   C4A21702   1.999  36.121   7.650
 4801POPC   C1B21703   2.272  36.184   8.550
 4801POPC   C2B21704   2.268  36.151   8.250
 4801POPC   C3B21705   2.259  36.123   7.950
 4801POPC   C4B21706   2.256  36.176   7.650
 4802POPC   NC321707  12.028   8.173   9.450
 4802POPC   PO421708  12.100   8.151   9.150
 4802POPC   GL121709  12.065   8.148   8.850
 4802POPC   GL221710  12.193   8.231   8.850
 4802POPC   C1A21711  12.072   8.214   8.550
 4802POPC   D2A21712  12.095   8.151   8.250
 4802POPC   C3A21713  12.080   8.229   7.950
 4802POPC   C4A21714  12.038   8.176   7.650
 4802POPC   C1B21715  12.316   8.235   8.550
 4802POPC   C2B21716  12.342   8.230   8.250
 4802POPC   C3B21717  12.354   8.268   7.950
 4802POPC   C4B21718  12.351   8.310   7.650
 4803POPC   NC321719  42.306  14.419   9.450
 4803POPC   PO421720  42.315  14.408   9.150
 4803POPC   GL121721  42.340  14.433   8.850
 4803POPC   GL221722  42.318  14.492   8.850
 4803POPC   C1A21723  42.341  14.425   8.550
 4803POPC   D2A21724  42.377  14.373   8.250
 4803POPC   C3A21725  42.369  14.427   7.950
 4803POPC   C4A21726  42.327  14.425   7.650
 4803POPC   C1B21727  42.220  14.609   8.550
 4803POPC   C2B21728  42.197  14.628   8.250
 4803POPC   C3B21729  42.180  14.581   7.950
 4803POPC   C4B21730  42.246  14.590   7.650
 4804POPC   NC321731  34.565  40.740   9.450
 4804POPC   PO421732  34.603  40.792   9.150
 4804POPC   GL121733  34.574  40.820   8.850
 4804POPC   GL221734  34.726  40.782   8.850
 4804POPC   C1A21735  34.589  40.798   8.550
 4804POPC   D2A21736  34.618  40.780   8.250
 4804POPC   C3A21737  34.608  40.748   7.950
 4804POPC   C4A21738  34.578  40.826   7.650
 4804POPC   C1B21739  34.832  40.793   8.550
 4804POPC   C2B21740  34.789  40.752   8.250
 4804POPC   C3B21741  34.827  40.774   7.950
 4804POPC   C4B21742  34.871  40.826   7.650
 4805POPC   NC321743  29.939  16.725   9.450
 4805POPC   PO421744  29.892  16.696   9.150
 4805POPC   GL121745  29.913  16.777   8.850
 4805POPC   GL221746  29.845  16.581   8.850
 4805POPC   C1A21747  29.889  16.768   8.550
 4805POPC   D2A21748  29.965  16.728   8.250
 4805POPC   C3A21749  29.899  16.732   7.950
 4805POPC   C4A21750  29.881  16.740   7.650
 4805POPC   C1B21751  29.779  16.497   8.550
 4805POPC   C2B21752  29.780  16.547   8.250
 4805POPC   C3B21753  29.833  16.536   7.950
 4805POPC   C4B21754  29.796  16.537   7.650
 4806POPC   NC321755  19.085   5.053   9.450
 4806POPC   PO421756  19.072   5.112   9.150
 4806POPC   GL121757  19.015   5.129   8.850
 4806POPC   GL221758  18.923   5.009   8.850
 4806POPC   C1A21759  19.053   5.100   8.550
 4806POPC   D2A21760  19.072   5.045   8.250
 4806POPC   C3A21761  19.104   5.096   7.950
 4806POPC   C4A21762  19.028   5.125   7.650
 4806POPC   C1B21763  18.878   4.948   8.550
 4806POPC   C2B21764  18.879   4.957   8.250
 4806POPC   C3B21765  18.780   4.947   7.950
 4806POPC   C4B21766  18.820   4.975   7.650
 4807POPC   NC321767  35.371  24.455   9.450
 4807POPC   PO421768  35.371  24.445   9.150
 4807POPC   GL121769  35.314  24.501   8.850
 4807POPC   GL221770  35.402  24.549   8.850
 4807POPC   C1A21771  35.331  24.511   8.550
 4807POPC   D2A21772  35.343  24.473   8.250
 4807POPC   C3A21773  35.318  24.445   7.950
 4807POPC   C4A21774  35.319  24.458   7.650
 4807POPC   C1B21775  35.551  24.645   8.550
 4807POPC   C2B21776  35.482  24.708   8.250
 4807POPC   C3B21777  35.484  24.719   7.950
 4807POPC   C4B21778  35.520  24.722   7.650
 4808POPC   NC321779  33.026  36.115   9.450
 4808POPC   PO421780  33.073  36.109   9.150
 4808POPC   GL121781  33.052  36.145   8.850
 4808POPC   GL221782  33.115  36.204   8.850
 4808POPC   C1A21783  33.058  36.116   8.550
 4808POPC   D2A21784  33.049  36.141   8.250
 4808POPC   C3A21785  33.022  36.080   7.950
 4808POPC   C4A21786  33.046  36.148   7.650
 4808POPC   C1B21787  33.280  36.208   8.550
 4808POPC   C2B21788  33.280  36.229   8.250
 4808POPC   C3B21789  33.226  36.242   7.950
 4808POPC   C4B21790  33.217  36.216   7.650
 4809POPC   NC321791  19.873  44.649   9.450
 4809POPC   PO421792  19.798  44.679   9.150
 4809POPC   GL121793  19.884  44.648   8.850
 4809POPC   GL221794  19.808  44.574   8.850
 4809POPC   C1A21795  19.857  44.620   8.550
 4809POPC   D2A21796  19.796  44.690   8.250
 4809POPC   C3A21797  19.869  44.612   7.950
 4809POPC   C4A21798  19.842  44.646   7.650
 4809POPC   C1B21799  19.735  44.455   8.550
 4809POPC   C2B21800  19.728  44.471   8.250
 4809POPC   C3B21801  19.706  44.468   7.950
 4809POPC   C4B21802  19.731  44.435   7.650
 4810POPC   NC321803  22.974  44.644   9.450
 4810POPC   PO421804  22.962  44.653   9.150
 4810POPC   GL121805  22.916  44.696   8.850
 4810POPC   GL221806  22.829  44.702   8.850
 4810POPC   C1A21807  22.922  44.666   8.550
 4810POPC   D2A21808  22.974  44.639   8.250
 4810POPC   C3A21809  22.929  44.654   7.950
 4810POPC   C4A21810  22.949  44.646   7.650
 4810POPC   C1B21811  22.673  44.746   8.550
 4810POPC   C2B21812  22.652  44.739   8.250
 4810POPC   C3B21813  22.687  44.750   7.950
 4810POPC   C4B21814  22.717  44.662   7.650
 4811POPC   NC321815  37.644   2.013   9.450
 4811POPC   PO421816  37.712   2.019   9.150
 4811POPC   GL121817  37.694   2.006   8.850
 4811POPC   GL221818  37.635   1.829   8.850
 4811POPC   C1A21819  37.654   1.987   8.550
 4811POPC   D2A21820  37.696   1.984   8.250
 4811POPC   C3A21821  37.721   2.021   7.950
 4811POPC   C4A21822  37.648   1.991   7.650
 4811POPC   C1B21823  37.561   1.781   8.550
 4811POPC   C2B21824  37.608   1.790   8.250
 4811POPC   C3B21825  37.551   1.804   7.950
 4811POPC   C4B21826  37.617   1.754   7.650
 4812POPC   NC321827  34.594  27.604   9.450
 4812POPC   PO421828  34.585  27.590   9.150
 4812POPC   GL121829  34.586  27.588   8.850
 4812POPC   GL221830  34.659  27.633   8.850
 4812POPC   C1A21831  34.538  27.546   8.550
 4812POPC   D2A21832  34.568  27.583   8.250
 4812POPC   C3A21833  34.542  27.582   7.950
 4812POPC   C4A21834  34.528  27.602   7.650
 4812POPC   C1B21835  34.804  27.660   8.550
 4812POPC   C2B21836  34.844  27.688   8.250
 4812POPC   C3B21837  34.785  27.638   7.950
 4812POPC   C4B21838  34.818  27.653   7.650
 4813POPC   NC321839  37.637  41.603   9.450
 4813POPC   PO421840  37.653  41.579   9.150
 4813POPC   GL121841  37.664  41.525   8.850
 4813POPC   GL221842  37.849  41.525   8.850
 4813POPC   C1A21843  37.710  41.566   8.550
 4813POPC   D2A21844  37.696  41.526   8.250
 4813POPC   C3A21845  37.719  41.588   7.950
 4813POPC   C4A21846  37.644  41.564   7.650
 4813POPC   C1B21847  37.916  41.542   8.550
 4813POPC   C2B21848  37.974  41.477   8.250
 4813POPC   C3B21849  37.949  41.463   7.950
 4813POPC   C4B21850  37.928  41.519   7.650
 4814POPC   NC321851  15.171  12.888   9.450
 4814POPC   PO421852  15.143  12.805   9.150
 4814POPC   GL121853  15.155  12.854   8.850
 4814POPC   GL221854  15.129  12.740   8.850
 4814POPC   C1A21855  15.139  12.829   8.550
 4814POPC   D2A21856  15.167  12.830   8.250
 4814POPC   C3A21857  15.195  12.812   7.950
 4814POPC   C4A21858  15.138  12.860   7.650
 4814POPC   C1B21859  15.032  12.652   8.550
 4814POPC   C2B21860  15.087  12.639   8.250
 4814POPC   C3B21861  15.046  12.655   7.950
 4814POPC   C4B21862  15.084  12.693   7.650
 4815POPC   NC321863  13.641  26.855   9.450
 4815POPC   PO421864  13.643  26.842   9.150
 4815POPC   GL121865  13.637  26.826   8.850
 4815POPC   GL221866  13.553  26.907   8.850
 4815POPC   C1A21867  13.651  26.819   8.550
 4815POPC   D2A21868  13.600  26.770   8.250
 4815POPC   C3A21869  13.661  26.835   7.950
 4815POPC   C4A21870  13.656  26.850   7.650
 4815POPC   C1B21871  13.493  27.043   8.550
 4815POPC   C2B21872  13.462  27.012   8.250
 4815POPC   C3B21873  13.431  27.032   7.950
 4815POPC   C4B21874  13.430  27.006   7.650
 4816POPC   NC321875   1.209  14.385   9.450
 4816POPC   PO421876   1.187  14.429   9.150
 4816POPC   GL121877   1.182  14.383   8.850
 4816POPC   GL221878   1.292  14.351   8.850
 4816POPC   C1A21879   1.210  14.433   8.550
 4816POPC   D2A21880   1.182  14.451   8.250
 4816POPC   C3A21881   1.228  14.418   7.950
 4816POPC   C4A21882   1.195  14.435   7.650
 4816POPC   C1B21883   1.410  14.273   8.550
 4816POPC   C2B21884   1.394  14.270   8.250
 4816POPC   C3B21885   1.431  14.275   7.950
 4816POPC   C4B21886   1.378  14.305   7.650
 4817POPC   NC321887   1.200  30.729   9.450
 4817POPC   PO421888   1.256  30.718   9.150
 4817POPC   GL121889   1.242  30.671   8.850
 4817POPC   GL221890   1.199  30.596   8.850
 4817POPC   C1A21891   1.208  30.663   8.550
 4817POPC   D2A21892   1.242  30.693   8.250
 4817POPC   C3A21893   1.232  30.728   7.950
 4817POPC   C4A21894   1.248  30.664   7.650
 4817POPC   C1B21895   1.173  30.425   8.550
 4817POPC   C2B21896   1.155  30.501   8.250
 4817POPC   C3B21897   1.097  30.478   7.950
 4817POPC   C4B21898   1.131  30.473   7.650
 4818POPC   NC321899  10.532   3.587   9.450
 4818POPC   PO421900  10.476   3.569   9.150
 4818POPC   GL121901  10.553   3.552   8.850
 4818POPC   GL221902  10.619   3.631   8.850
 4818POPC   C1A21903  10.518   3.498   8.550
 4818POPC   D2A21904  10.497   3.549   8.250
 4818POPC   C3A21905  10.560   3.563   7.950
 4818POPC   C4A21906  10.522   3.514   7.650
 4818POPC   C1B21907  10.698   3.764   8.550
 4818POPC   C2B21908  10.686   3.733   8.250
 4818POPC   C3B21909  10.693   3.760   7.950
 4818POPC   C4B21910  10.666   3.763   7.650
 4819POPC   NC321911  18.311  29.922   9.450
 4819POPC   PO421912  18.281  29.952   9.150
 4819POPC   GL121913  18.317  29.966   8.850
 4819POPC   GL221914  18.344  30.046   8.850
 4819POPC   C1A21915  18.259  29.969   8.550
 4819POPC   D2A21916  18.305  29.936   8.250
 4819POPC   C3A21917  18.279  29.907   7.950
 4819POPC   C4A21918  18.271  29.871   7.650
 4819POPC   C1B21919  18.435  30.142   8.550
 4819POPC   C2B21920  18.394  30.132   8.250
 4819POPC   C3B21921  18.434  30.127   7.950
 4819POPC   C4B21922  18.399  30.132   7.650
 4820POPC   NC321923  18.333  12.812   9.450
 4820POPC   PO421924  18.244  12.803   9.150
 4820POPC   GL121925  18.235  12.877   8.850
 4820POPC   GL221926  18.113  12.829   8.850
 4820POPC   C1A21927  18.299  12.845   8.550
 4820POPC   D2A21928  18.242  12.855   8.250
 4820POPC   C3A21929  18.281  12.901   7.950
 4820POPC   C4A21930  18.287  12.892   7.650
 4820POPC   C1B21931  18.018  12.847   8.550
 4820POPC   C2B21932  18.059  12.879   8.250
 4820POPC   C3B21933  18.005  12.840   7.950
 4820POPC   C4B21934  18.039  12.833   7.650
 4821POPC   NC321935   3.589  32.219   9.450
 4821POPC   PO421936   3.495  32.229   9.150
 4821POPC   GL121937   3.566  32.235   8.850
 4821POPC   GL221938   3.683  32.327   8.850
 4821POPC   C1A21939   3.557  32.262   8.550
 4821POPC   D2A21940   3.537  32.267   8.250
 4821POPC   C3A21941   3.529  32.238   7.950
 4821POPC   C4A21942   3.521  32.298   7.650
 4821POPC   C1B21943   3.756  32.420   8.550
 4821POPC   C2B21944   3.742  32.446   8.250
 4821POPC   C3B21945   3.698  32.378   7.950
 4821POPC   C4B21946   3.714  32.403   7.650
 4822POPC   NC321947  15.957  26.037   9.450
 4822POPC   PO421948  15.984  26.031   9.150
 4822POPC   GL121949  15.908  26.085   8.850
 4822POPC   GL221950  16.026  26.171   8.850
 4822POPC   C1A21951  15.994  26.091   8.550
 4822POPC   D2A21952  15.967  26.059   8.250
 4822POPC   C3A21953  15.956  26.057   7.950
 4822POPC   C4A21954  15.956  26.009   7.650
 4822POPC   C1B21955  16.054  26.251   8.550
 4822POPC   C2B21956  16.018  26.322   8.250
 4822POPC   C3B21957  16.021  26.266   7.950
 4822POPC   C4B21958  16.014  26.250   7.650
 4823POPC   NC321959  12.807  20.612   9.450
 4823POPC   PO421960  12.894  20.572   9.150
 4823POPC   GL121961  12.861  20.579   8.850
 4823POPC   GL221962  13.003  20.642   8.850
 4823POPC   C1A21963  12.875  20.619   8.550
 4823POPC   D2A21964  12.895  20.647   8.250
 4823POPC   C3A21965  12.879  20.618   7.950
 4823POPC   C4A21966  12.821  20.570   7.650
 4823POPC   C1B21967  13.024  20.693   8.550
 4823POPC   C2B21968  13.101  20.778   8.250
 4823POPC   C3B21969  13.036  20.785   7.950
 4823POPC   C4B21970  13.104  20.724   7.650
 4824POPC   NC321971   9.790  42.297   9.450
 4824POPC   PO421972   9.749  42.321   9.150
 4824POPC   GL121973   9.710  42.293   8.850
 4824POPC   GL221974   9.882  42.352   8.850
 4824POPC   C1A21975   9.722  42.339   8.550
 4824POPC   D2A21976   9.705  42.285   8.250
 4824POPC   C3A21977   9.725  42.288   7.950
 4824POPC   C4A21978   9.702  42.320   7.650
 4824POPC   C1B21979   9.960  42.397   8.550
 4824POPC   C2B21980   9.968  42.359   8.250
 4824POPC   C3B21981  10.021  42.341   7.950
 4824POPC   C4B21982   9.981  42.410   7.650
 4825POPC   NC321983  35.315  11.328   9.450
 4825POPC   PO421984  35.314  11.293   9.150
 4825POPC   GL121985  35.371  11.262   8.850
 4825POPC   GL221986  35.378  11.200   8.850
 4825POPC   C1A21987  35.399  11.333   8.550
 4825POPC   D2A21988  35.320  11.280   8.250
 4825POPC   C3A21989  35.334  11.349   7.950
 4825POPC   C4A21990  35.323  11.265   7.650
 4825POPC   C1B21991  35.454  11.065   8.550
 4825POPC   C2B21992  35.503  11.057   8.250
 4825POPC   C3B21993  35.482  11.137   7.950
 4825POPC   C4B21994  35.449  11.131   7.650
 4826POPC   NC321995  12.027  35.374   9.450
 4826POPC   PO421996  12.107  35.321   9.150
 4826POPC   GL121997  12.096  35.335   8.850
 4826POPC   GL221998  12.099  35.277   8.850
 4826POPC   C1A21999  12.119  35.319   8.550
 4826POPC   D2A22000  12.061  35.384   8.250
 4826POPC   C3A22001  12.079  35.356   7.950
 4826POPC   C4A22002  12.069  35.336   7.650
 4826POPC   C1B22003  12.189  35.062   8.550
 4826POPC   C2B22004  12.165  35.118   8.250
 4826POPC   C3B22005  12.136  35.117   7.950
 4826POPC   C4B22006  12.160  35.099   7.650
 4827POPC   NC322007   3.558   8.193   9.450
 4827POPC   PO422008   3.524   8.165   9.150
 4827POPC   GL122009   3.525   8.184   8.850
 4827POPC   GL222010   3.635   8.098   8.850
 4827POPC   C1A22011   3.590   8.217   8.550
 4827POPC   D2A22012   3.548   8.199   8.250
 4827POPC   C3A22013   3.529   8.192   7.950
 4827POPC   C4A22014   3.566   8.198   7.650
 4827POPC   C1B22015   3.761   8.113   8.550
 4827POPC   C2B22016   3.810   8.059   8.250
 4827POPC   C3B22017   3.739   8.038   7.950
 4827POPC   C4B22018   3.727   8.036   7.650
 4828POPC   NC322019  39.256   5.089   9.450
 4828POPC   PO422020  39.248   5.125   9.150
 4828POPC   GL122021  39.248   5.077   8.850
 4828POPC   GL222022  39.321   4.991   8.850
 4828POPC   C1A22023  39.246   5.051   8.550
 4828POPC   D2A22024  39.230   5.089   8.250
 4828POPC   C3A22025  39.185   5.105   7.950
 4828POPC   C4A22026  39.231   5.099   7.650
 4828POPC   C1B22027  39.381   4.889   8.550
 4828POPC   C2B22028  39.379   4.941   8.250
 4828POPC   C3B22029  39.425   4.904   7.950
 4828POPC   C4B22030  39.379   4.938   7.650
 4829POPC   NC322031  13.596  30.657   9.450
 4829POPC   PO422032  13.599  30.681   9.150
 4829POPC   GL122033  13.607  30.665   8.850
 4829POPC   GL222034  13.748  30.712   8.850
 4829POPC   C1A22035  13.592  30.717   8.550
 4829POPC   D2A22036  13.661  30.732   8.250
 4829POPC   C3A22037  13.597  30.660   7.950
 4829POPC   C4A22038  13.603  30.735   7.650
 4829POPC   C1B22039  13.833  30.841   8.550
 4829POPC   C2B22040  13.877  30.837   8.250
 4829POPC   C3B22041  13.890  30.841   7.950
 4829POPC   C4B22042  13.847  30.860   7.650
 4830POPC   NC322043  29.102  23.741   9.450
 4830POPC   PO422044  29.142  23.740   9.150
 4830POPC   GL122045  29.106  23.704   8.850
 4830POPC   GL222046  29.299  23.794   8.850
 4830POPC   C1A22047  29.121  23.705   8.550
 4830POPC   D2A22048  29.133  23.712   8.250
 4830POPC   C3A22049  29.139  23.673   7.950
 4830POPC   C4A22050  29.194  23.735   7.650
 4830POPC   C1B22051  29.366  23.823   8.550
 4830POPC   C2B22052  29.419  23.766   8.250
 4830POPC   C3B22053  29.372  23.793   7.950
 4830POPC   C4B22054  29.348  23.743   7.650
 4831POPC   NC322055   9.747  19.850   9.450
 4831POPC   PO422056   9.796  19.822   9.150
 4831POPC   GL122057   9.723  19.819   8.850
 4831POPC   GL222058   9.806  19.715   8.850
 4831POPC   C1A22059   9.768  19.801   8.550
 4831POPC   D2A22060   9.702  19.853   8.250
 4831POPC   C3A22061   9.740  19.843   7.950
 4831POPC   C4A22062   9.699  19.876   7.650
 4831POPC   C1B22063   9.945  19.692   8.550
 4831POPC   C2B22064   9.945  19.688   8.250
 4831POPC   C3B22065   9.929  19.620   7.950
 4831POPC   C4B22066   9.909  19.686   7.650
 4832POPC   NC322067  29.952  10.530   9.450
 4832POPC   PO422068  29.923  10.483   9.150
 4832POPC   GL122069  29.924  10.516   8.850
 4832POPC   GL222070  29.969  10.409   8.850
 4832POPC   C1A22071  29.887  10.532   8.550
 4832POPC   D2A22072  29.874  10.540   8.250
 4832POPC   C3A22073  29.914  10.529   7.950
 4832POPC   C4A22074  29.896  10.522   7.650
 4832POPC   C1B22075  30.072  10.315   8.550
 4832POPC   C2B22076  30.090  10.334   8.250
 4832POPC   C3B22077  30.095  10.323   7.950
 4832POPC   C4B22078  30.102  10.333   7.650
 4833POPC   NC322079  15.177  33.017   9.450
 4833POPC   PO422080  15.167  33.047   9.150
 4833POPC   GL122081  15.172  33.043   8.850
 4833POPC   GL222082  15.074  33.042   8.850
 4833POPC   C1A22083  15.136  33.004   8.550
 4833POPC   D2A22084  15.130  33.033   8.250
 4833POPC   C3A22085  15.226  33.019   7.950
 4833POPC   C4A22086  15.133  33.055   7.650
 4833POPC   C1B22087  14.965  33.106   8.550
 4833POPC   C2B22088  14.968  33.094   8.250
 4833POPC   C3B22089  14.975  33.120   7.950
 4833POPC   C4B22090  14.942  33.111   7.650
 4834POPC   NC322091  36.873  21.358   9.450
 4834POPC   PO422092  36.877  21.385   9.150
 4834POPC   GL122093  36.912  21.341   8.850
 4834POPC   GL222094  36.804  21.413   8.850
 4834POPC   C1A22095  36.911  21.390   8.550
 4834POPC   D2A22096  36.935  21.420   8.250
 4834POPC   C3A22097  36.929  21.357   7.950
 4834POPC   C4A22098  36.890  21.372   7.650
 4834POPC   C1B22099  36.720  21.498   8.550
 4834POPC   C2B22100  36.743  21.481   8.250
 4834POPC   C3B22101  36.709  21.560   7.950
 4834POPC   C4B22102  36.716  21.541   7.650
 4835POPC   NC322103  26.001  25.217   9.450
 4835POPC   PO422104  26.042  25.258   9.150
 4835POPC   GL122105  26.091  25.260   8.850
 4835POPC   GL222106  26.019  25.112   8.850
 4835POPC   C1A22107  26.033  25.250   8.550
 4835POPC   D2A22108  25.998  25.270   8.250
 4835POPC   C3A22109  26.021  25.248   7.950
 4835POPC   C4A22110  26.005  25.303   7.650
 4835POPC   C1B22111  25.966  25.053   8.550
 4835POPC   C2B22112  25.923  25.083   8.250
 4835POPC   C3B22113  25.953  25.064   7.950
 4835POPC   C4B22114  25.959  25.083   7.650
 4836POPC   NC322115   8.932  16.744   9.450
 4836POPC   PO422116   8.932  16.757   9.150
 4836POPC   GL122117   8.924  16.775   8.850
 4836POPC   GL222118   8.885  16.628   8.850
 4836POPC   C1A22119   8.962  16.727   8.550
 4836POPC   D2A22120   8.936  16.711   8.250
 4836POPC   C3A22121   8.959  16.697   7.950
 4836POPC   C4A22122   8.980  16.739   7.650
 4836POPC   C1B22123   8.742  16.542   8.550
 4836POPC   C2B22124   8.824  16.529   8.250
 4836POPC   C3B22125   8.800  16.558   7.950
 4836POPC   C4B22126   8.824  16.548   7.650
 4837POPC   NC322127  32.257   1.214   9.450
 4837POPC   PO422128  32.267   1.251   9.150
 4837POPC   GL122129  32.264   1.236   8.850
 4837POPC   GL222130  32.398   1.224   8.850
 4837POPC   C1A22131  32.258   1.219   8.550
 4837POPC   D2A22132  32.216   1.180   8.250
 4837POPC   C3A22133  32.289   1.253   7.950
 4837POPC   C4A22134  32.264   1.204   7.650
 4837POPC   C1B22135  32.452   1.253   8.550
 4837POPC   C2B22136  32.503   1.208   8.250
 4837POPC   C3B22137  32.481   1.218   7.950
 4837POPC   C4B22138  32.486   1.272   7.650
 4838POPC   NC322139   3.578  39.266   9.450
 4838POPC   PO422140   3.541  39.218   9.150
 4838POPC   GL122141   3.568  39.241   8.850
 4838POPC   GL222142   3.554  39.319   8.850
 4838POPC   C1A22143   3.548  39.209   8.550
 4838POPC   D2A22144   3.576  39.219   8.250
 4838POPC   C3A22145   3.501  39.217   7.950
 4838POPC   C4A22146   3.584  39.222   7.650
 4838POPC   C1B22147   3.585  39.430   8.550
 4838POPC   C2B22148   3.603  39.451   8.250
 4838POPC   C3B22149   3.619  39.490   7.950
 4838POPC   C4B22150   3.603  39.455   7.650
 4839POPC   NC322151  12.071  22.981   9.450
 4839POPC   PO422152  12.091  22.955   9.150
 4839POPC   GL122153  12.043  22.899   8.850
 4839POPC   GL222154  12.224  22.897   8.850
 4839POPC   C1A22155  12.124  22.917   8.550
 4839POPC   D2A22156  12.091  22.893   8.250
 4839POPC   C3A22157  12.062  22.901   7.950
 4839POPC   C4A22158  12.031  22.972   7.650
 4839POPC   C1B22159  12.311  22.763   8.550
 4839POPC   C2B22160  12.320  22.792   8.250
 4839POPC   C3B22161  12.277  22.793   7.950
 4839POPC   C4B22162  12.270  22.807   7.650
 4840POPC   NC322163  22.975   1.945   9.450
 4840POPC   PO422164  22.982   1.964   9.150
 4840POPC   GL122165  22.947   2.029   8.850
 4840POPC   GL222166  23.042   1.906   8.850
 4840POPC   C1A22167  22.921   2.006   8.550
 4840POPC   D2A22168  22.977   2.005   8.250
 4840POPC   C3A22169  22.902   2.020   7.950
 4840POPC   C4A22170  22.917   2.031   7.650
 4840POPC   C1B22171  23.170   1.870   8.550
 4840POPC   C2B22172  23.219   1.908   8.250
 4840POPC   C3B22173  23.158   1.886   7.950
 4840POPC   C4B22174  23.196   1.927   7.650
 4841POPC   NC322175  35.319  15.221   9.450
 4841POPC   PO422176  35.313  15.221   9.150
 4841POPC   GL122177  35.390  15.212   8.850
 4841POPC   GL222178  35.288  15.111   8.850
 4841POPC   C1A22179  35.352  15.195   8.550
 4841POPC   D2A22180  35.375  15.139   8.250
 4841POPC   C3A22181  35.370  15.162   7.950
 4841POPC   C4A22182  35.362  15.215   7.650
 4841POPC   C1B22183  35.149  15.069   8.550
 4841POPC   C2B22184  35.205  15.003   8.250
 4841POPC   C3B22185  35.133  14.994   7.950
 4841POPC   C4B22186  35.135  14.989   7.650
 4842POPC   NC322187  36.874  33.001   9.450
 4842POPC   PO422188  36.859  33.052   9.150
 4842POPC   GL122189  36.876  33.063   8.850
 4842POPC   GL222190  36.811  33.019   8.850
 4842POPC   C1A22191  36.935  33.049   8.550
 4842POPC   D2A22192  36.879  33.058   8.250
 4842POPC   C3A22193  36.915  33.065   7.950
 4842POPC   C4A22194  36.906  33.060   7.650
 4842POPC   C1B22195  36.679  32.993   8.550
 4842POPC   C2B22196  36.654  32.965   8.250
 4842POPC   C3B22197  36.666  33.008   7.950
 4842POPC   C4B22198  36.688  32.991   7.650
 4843POPC   NC322199  12.808  15.179   9.450
 4843POPC   PO422200  12.805  15.142   9.150
 4843POPC   GL122201  12.864  15.198   8.850
 4843POPC   GL222202  12.760  15.156   8.850
 4843POPC   C1A22203  12.832  15.207   8.550
 4843POPC   D2A22204  12.888  15.142   8.250
 4843POPC   C3A22205  12.811  15.151   7.950
 4843POPC   C4A22206  12.804  15.149   7.650
 4843POPC   C1B22207  12.652  15.127   8.550
 4843POPC   C2B22208  12.617  15.051   8.250
 4843POPC   C3B22209  12.570  15.070   7.950
 4843POPC   C4B22210  12.601  15.100   7.650
 4844POPC   NC322211  44.672  33.011   9.450
 4844POPC   PO422212  44.698  33.005   9.150
 4844POPC   GL122213  44.700  33.061   8.850
 4844POPC   GL222214  44.802  33.003   8.850
 4844POPC   C1A22215  44.641  33.019   8.550
 4844POPC   D2A22216  44.646  32.985   8.250
 4844POPC   C3A22217  44.641  33.042   7.950
 4844POPC   C4A22218  44.619  33.014   7.650
 4844POPC   C1B22219  44.882  32.916   8.550
 4844POPC   C2B22220  44.904  32.951   8.250
 4844POPC   C3B22221  44.915  32.921   7.950
 4844POPC   C4B22222  44.855  32.994   7.650
 4845POPC   NC322223  37.701   7.380   9.450
 4845POPC   PO422224  37.714   7.448   9.150
 4845POPC   GL122225  37.683   7.438   8.850
 4845POPC   GL222226  37.517   7.422   8.850
 4845POPC   C1A22227  37.717   7.380   8.550
 4845POPC   D2A22228  37.639   7.437   8.250
 4845POPC   C3A22229  37.673   7.426   7.950
 4845POPC   C4A22230  37.647   7.416   7.650
 4845POPC   C1B22231  37.451   7.440   8.550
 4845POPC   C2B22232  37.438   7.412   8.250
 4845POPC   C3B22233  37.478   7.440   7.950
 4845POPC   C4B22234  37.433   7.447   7.650
 4846POPC   NC322235  43.861  39.196   9.450
 4846POPC   PO422236  43.892  39.257   9.150
 4846POPC   GL122237  43.924  39.273   8.850
 4846POPC   GL222238  43.751  39.187   8.850
 4846POPC   C1A22239  43.859  39.230   8.550
 4846POPC   D2A22240  43.853  39.281   8.250
 4846POPC   C3A22241  43.889  39.272   7.950
 4846POPC   C4A22242  43.914  39.239   7.650
 4846POPC   C1B22243  43.715  39.036   8.550
 4846POPC   C2B22244  43.683  39.092   8.250
 4846POPC   C3B22245  43.727  39.044   7.950
 4846POPC   C4B22246  43.727  39.012   7.650
 4847POPC   NC322247  29.899  18.278   9.450
 4847POPC   PO422248  29.964  18.295   9.150
 4847POPC   GL122249  29.902  18.255   8.850
 4847POPC   GL222250  29.924  18.380   8.850
 4847POPC   C1A22251  29.954  18.307   8.550
 4847POPC   D2A22252  29.907  18.332   8.250
 4847POPC   C3A22253  29.945  18.328   7.950
 4847POPC   C4A22254  29.950  18.233   7.650
 4847POPC   C1B22255  29.927  18.575   8.550
 4847POPC   C2B22256  29.939  18.498   8.250
 4847POPC   C3B22257  29.921  18.550   7.950
 4847POPC   C4B22258  29.955  18.546   7.650
 4848POPC   NC322259  10.538   7.450   9.450
 4848POPC   PO422260  10.565   7.453   9.150
 4848POPC   GL122261  10.541   7.372   8.850
 4848POPC   GL222262  10.503   7.595   8.850
 4848POPC   C1A22263  10.510   7.461   8.550
 4848POPC   D2A22264  10.494   7.373   8.250
 4848POPC   C3A22265  10.537   7.451   7.950
 4848POPC   C4A22266  10.484   7.456   7.650
 4848POPC   C1B22267  10.543   7.711   8.550
 4848POPC   C2B22268  10.490   7.683   8.250
 4848POPC   C3B22269  10.488   7.621   7.950
 4848POPC   C4B22270  10.484   7.683   7.650
 4849POPC   NC322271  36.913   2.743   9.450
 4849POPC   PO422272  36.882   2.811   9.150
 4849POPC   GL122273  36.899   2.720   8.850
 4849POPC   GL222274  36.804   2.801   8.850
 4849POPC   C1A22275  36.915   2.792   8.550
 4849POPC   D2A22276  36.859   2.795   8.250
 4849POPC   C3A22277  36.945   2.810   7.950
 4849POPC   C4A22278  36.879   2.784   7.650
 4849POPC   C1B22279  36.681   2.897   8.550
 4849POPC   C2B22280  36.722   2.926   8.250
 4849POPC   C3B22281  36.703   2.930   7.950
 4849POPC   C4B22282  36.656   2.925   7.650
 4850POPC   NC322283   8.206   7.466   9.450
 4850POPC   PO422284   8.222   7.440   9.150
 4850POPC   GL122285   8.175   7.433   8.850
 4850POPC   GL222286   8.282   7.426   8.850
 4850POPC   C1A22287   8.164   7.412   8.550
 4850POPC   D2A22288   8.210   7.443   8.250
 4850POPC   C3A22289   8.157   7.405   7.950
 4850POPC   C4A22290   8.156   7.466   7.650
 4850POPC   C1B22291   8.411   7.506   8.550
 4850POPC   C2B22292   8.479   7.417   8.250
 4850POPC   C3B22293   8.442   7.476   7.950
 4850POPC   C4B22294   8.397   7.478   7.650
 4851POPC   NC322295  43.868   8.178   9.450
 4851POPC   PO422296  43.875   8.237   9.150
 4851POPC   GL122297  43.875   8.179   8.850
 4851POPC   GL222298  43.790   8.291   8.850
 4851POPC   C1A22299  43.898   8.242   8.550
 4851POPC   D2A22300  43.874   8.201   8.250
 4851POPC   C3A22301  43.894   8.179   7.950
 4851POPC   C4A22302  43.914   8.157   7.650
 4851POPC   C1B22303  43.723   8.432   8.550
 4851POPC   C2B22304  43.725   8.443   8.250
 4851POPC   C3B22305  43.753   8.418   7.950
 4851POPC   C4B22306  43.792   8.403   7.650
 4852POPC   NC322307  14.383   0.458   9.450
 4852POPC   PO422308  14.437   0.401   9.150
 4852POPC   GL122309  14.370   0.463   8.850
 4852POPC   GL222310  14.476   0.587   8.850
 4852POPC   C1A22311  14.438   0.421   8.550
 4852POPC   D2A22312  14.445   0.403   8.250
 4852POPC   C3A22313  14.443   0.442   7.950
 4852POPC   C4A22314  14.395   0.396   7.650
 4852POPC   C1B22315  14.542   0.672   8.550
 4852POPC   C2B22316  14.504   0.660   8.250
 4852POPC   C3B22317  14.545   0.700   7.950
 4852POPC   C4B22318  14.545   0.630   7.650
 4853POPC   NC322319   8.240  15.980   9.450
 4853POPC   PO422320   8.207  15.994   9.150
 4853POPC   GL122321   8.173  15.941   8.850
 4853POPC   GL222322   8.286  16.061   8.850
 4853POPC   C1A22323   8.187  15.914   8.550
 4853POPC   D2A22324   8.164  15.916   8.250
 4853POPC   C3A22325   8.207  15.952   7.950
 4853POPC   C4A22326   8.227  15.965   7.650
 4853POPC   C1B22327   8.311  16.162   8.550
 4853POPC   C2B22328   8.333  16.112   8.250
 4853POPC   C3B22329   8.339  16.192   7.950
 4853POPC   C4B22330   8.383  16.113   7.650
 4854POPC   NC322331  15.974   4.342   9.450
 4854POPC   PO422332  15.921   4.269   9.150
 4854POPC   GL122333  16.003   4.281   8.850
 4854POPC   GL222334  15.982   4.442   8.850
 4854POPC   C1A22335  15.945   4.365   8.550
 4854POPC   D2A22336  15.980   4.310   8.250
 4854POPC   C3A22337  15.993   4.292   7.950
 4854POPC   C4A22338  15.961   4.324   7.650
 4854POPC   C1B22339  16.028   4.590   8.550
 4854POPC   C2B22340  16.016   4.594   8.250
 4854POPC   C3B22341  15.971   4.593   7.950
 4854POPC   C4B22342  15.988   4.572   7.650
 4855POPC   NC322343  11.259  17.475   9.450
 4855POPC   PO422344  11.299  17.463   9.150
 4855POPC   GL122345  11.321  17.514   8.850
 4855POPC   GL222346  11.243  17.665   8.850
 4855POPC   C1A22347  11.267  17.487   8.550
 4855POPC   D2A22348  11.328  17.492   8.250
 4855POPC   C3A22349  11.278  17.475   7.950
 4855POPC   C4A22350  11.303  17.475   7.650
 4855POPC   C1B22351  11.213  17.794   8.550
 4855POPC   C2B22352  11.248  17.726   8.250
 4855POPC   C3B22353  11.231  17.792   7.950
 4855POPC   C4B22354  11.241  17.739   7.650
 4856POPC   NC322355  33.766  13.635   9.450
 4856POPC   PO422356  33.835  13.613   9.150
 4856POPC   GL122357  33.825  13.607   8.850
 4856POPC   GL222358  33.832  13.734   8.850
 4856POPC   C1A22359  33.777  13.656   8.550
 4856POPC   D2A22360  33.774  13.611   8.250
 4856POPC   C3A22361  33.841  13.612   7.950
 4856POPC   C4A22362  33.834  13.634   7.650
 4856POPC   C1B22363  33.942  13.825   8.550
 4856POPC   C2B22364  33.997  13.853   8.250
 4856POPC   C3B22365  33.978  13.798   7.950
 4856POPC   C4B22366  33.985  13.857   7.650
 4857POPC   NC322367  43.906  35.324   9.450
 4857POPC   PO422368  43.904  35.324   9.150
 4857POPC   GL122369  43.846  35.320   8.850
 4857POPC   GL222370  44.001  35.281   8.850
 4857POPC   C1A22371  43.868  35.321   8.550
 4857POPC   D2A22372  43.878  35.358   8.250
 4857POPC   C3A22373  43.933  35.306   7.950
 4857POPC   C4A22374  43.910  35.369   7.650
 4857POPC   C1B22375  44.047  35.181   8.550
 4857POPC   C2B22376  44.009  35.125   8.250
 4857POPC   C3B22377  43.997  35.091   7.950
 4857POPC   C4B22378  44.018  35.122   7.650
 4858POPC   NC322379  21.397   0.466   9.450
 4858POPC   PO422380  21.387   0.456   9.150
 4858POPC   GL122381  21.338   0.415   8.850
 4858POPC   GL222382  21.240   0.353   8.850
 4858POPC   C1A22383  21.355   0.446   8.550
 4858POPC   D2A22384  21.423   0.454   8.250
 4858POPC   C3A22385  21.406   0.433   7.950
 4858POPC   C4A22386  21.393   0.470   7.650
 4858POPC   C1B22387  21.209   0.367   8.550
 4858POPC   C2B22388  21.122   0.311   8.250
 4858POPC   C3B22389  21.170   0.289   7.950
 4858POPC   C4B22390  21.194   0.289   7.650
 4859POPC   NC322391   1.250  32.999   9.450
 4859POPC   PO422392   1.180  33.045   9.150
 4859POPC   GL122393   1.262  33.059   8.850
 4859POPC   GL222394   1.091  33.084   8.850
 4859POPC   C1A22395   1.246  33.043   8.550
 4859POPC   D2A22396   1.193  33.001   8.250
 4859POPC   C3A22397   1.252  32.986   7.950
 4859POPC   C4A22398   1.191  33.062   7.650
 4859POPC   C1B22399   0.967  33.067   8.550
 4859POPC   C2B22400   0.945  33.125   8.250
 4859POPC   C3B22401   0.991  33.061   7.950
 4859POPC   C4B22402   0.962  33.070   7.650
 4860POPC   NC322403  12.079   5.874   9.450
 4860POPC   PO422404  12.040   5.860   9.150
 4860POPC   GL122405  12.030   5.865   8.850
 4860POPC   GL222406  12.177   5.870   8.850
 4860POPC   C1A22407  12.117   5.820   8.550
 4860POPC   D2A22408  12.050   5.863   8.250
 4860POPC   C3A22409  12.112   5.836   7.950
 4860POPC   C4A22410  12.126   5.852   7.650
 4860POPC   C1B22411  12.367   5.778   8.550
 4860POPC   C2B22412  12.319   5.811   8.250
 4860POPC   C3B22413  12.278   5.781   7.950
 4860POPC   C4B22414  12.337   5.845   7.650
 4861POPC   NC322415  22.900  22.918   9.450
 4861POPC   PO422416  22.903  22.946   9.150
 4861POPC   GL122417  22.966  22.950   8.850
 4861POPC   GL222418  23.066  22.997   8.850
 4861POPC   C1A22419  22.909  22.902   8.550
 4861POPC   D2A22420  22.925  22.979   8.250
 4861POPC   C3A22421  22.919  22.950   7.950
 4861POPC   C4A22422  22.910  22.896   7.650
 4861POPC   C1B22423  23.103  23.084   8.550
 4861POPC   C2B22424  23.143  23.087   8.250
 4861POPC   C3B22425  23.118  23.062   7.950
 4861POPC   C4B22426  23.164  23.058   7.650
 4862POPC   NC322427  34.612   0.408   9.450
 4862POPC   PO422428  34.549   0.453   9.150
 4862POPC   GL122429  34.538   0.416   8.850
 4862POPC   GL222430  34.406   0.406   8.850
 4862POPC   C1A22431  34.609   0.449   8.550
 4862POPC   D2A22432  34.596   0.431   8.250
 4862POPC   C3A22433  34.603   0.452   7.950
 4862POPC   C4A22434  34.602   0.481   7.650
 4862POPC   C1B22435  34.364   0.413   8.550
 4862POPC   C2B22436  34.297   0.386   8.250
 4862POPC   C3B22437  34.342   0.345   7.950
 4862POPC   C4B22438  34.315   0.440   7.650
 4863POPC   NC322439  24.530  22.182   9.450
 4863POPC   PO422440  24.533  22.185   9.150
 4863POPC   GL122441  24.457  22.164   8.850
 4863POPC   GL222442  24.569  22.145   8.850
 4863POPC   C1A22443  24.526  22.150   8.550
 4863POPC   D2A22444  24.461  22.166   8.250
 4863POPC   C3A22445  24.451  22.164   7.950
 4863POPC   C4A22446  24.447  22.164   7.650
 4863POPC   C1B22447  24.769  22.097   8.550
 4863POPC   C2B22448  24.720  22.088   8.250
 4863POPC   C3B22449  24.778  22.140   7.950
 4863POPC   C4B22450  24.773  22.105   7.650
 4864POPC   NC322451  39.200  40.775   9.450
 4864POPC   PO422452  39.220  40.783   9.150
 4864POPC   GL122453  39.190  40.757   8.850
 4864POPC   GL222454  39.102  40.803   8.850
 4864POPC   C1A22455  39.234  40.801   8.550
 4864POPC   D2A22456  39.210  40.812   8.250
 4864POPC   C3A22457  39.202  40.779   7.950
 4864POPC   C4A22458  39.194  40.750   7.650
 4864POPC   C1B22459  38.954  40.795   8.550
 4864POPC   C2B22460  38.971  40.759   8.250
 4864POPC   C3B22461  38.999  40.757   7.950
 4864POPC   C4B22462  38.959  40.732   7.650
 4865POPC   NC322463  43.913  16.717   9.450
 4865POPC   PO422464  43.866  16.691   9.150
 4865POPC   GL122465  43.853  16.773   8.850
 4865POPC   GL222466  43.781  16.840   8.850
 4865POPC   C1A22467  43.861  16.717   8.550
 4865POPC   D2A22468  43.882  16.714   8.250
 4865POPC   C3A22469  43.936  16.700   7.950
 4865POPC   C4A22470  43.852  16.744   7.650
 4865POPC   C1B22471  43.737  16.924   8.550
 4865POPC   C2B22472  43.693  16.858   8.250
 4865POPC   C3B22473  43.705  16.936   7.950
 4865POPC   C4B22474  43.710  16.888   7.650
 4866POPC   NC322475   0.391  39.193   9.450
 4866POPC   PO422476   0.412  39.258   9.150
 4866POPC   GL122477   0.424  39.186   8.850
 4866POPC   GL222478   0.600  39.182   8.850
 4866POPC   C1A22479   0.460  39.232   8.550
 4866POPC   D2A22480   0.469  39.203   8.250
 4866POPC   C3A22481   0.468  39.256   7.950
 4866POPC   C4A22482   0.482  39.256   7.650
 4866POPC   C1B22483   0.661  39.165   8.550
 4866POPC   C2B22484   0.699  39.140   8.250
 4866POPC   C3B22485   0.660  39.108   7.950
 4866POPC   C4B22486   0.695  39.166   7.650
 4867POPC   NC322487  13.646  15.976   9.450
 4867POPC   PO422488  13.637  15.951   9.150
 4867POPC   GL122489  13.596  15.964   8.850
 4867POPC   GL222490  13.507  16.046   8.850
 4867POPC   C1A22491  13.587  15.915   8.550
 4867POPC   D2A22492  13.612  15.988   8.250
 4867POPC   C3A22493  13.579  15.943   7.950
 4867POPC   C4A22494  13.612  15.966   7.650
 4867POPC   C1B22495  13.408  16.115   8.550
 4867POPC   C2B22496  13.465  16.079   8.250
 4867POPC   C3B22497  13.469  16.149   7.950
 4867POPC   C4B22498  13.472  16.145   7.650
 4868POPC   NC322499  23.755   4.329   9.450
 4868POPC   PO422500  23.706   4.361   9.150
 4868POPC   GL122501  23.692   4.288   8.850
 4868POPC   GL222502  23.745   4.218   8.850
 4868POPC   C1A22503  23.675   4.347   8.550
 4868POPC   D2A22504  23.723   4.356   8.250
 4868POPC   C3A22505  23.748   4.331   7.950
 4868POPC   C4A22506  23.718   4.348   7.650
 4868POPC   C1B22507  23.792   4.091   8.550
 4868POPC   C2B22508  23.828   4.049   8.250
 4868POPC   C3B22509  23.833   4.056   7.950
 4868POPC   C4B22510  23.815   4.097   7.650
 4869POPC   NC322511  41.548  25.291   9.450
 4869POPC   PO422512  41.569  25.309   9.150
 4869POPC   GL122513  41.597  25.219   8.850
 4869POPC   GL222514  41.465  25.197   8.850
 4869POPC   C1A22515  41.599  25.284   8.550
 4869POPC   D2A22516  41.578  25.232   8.250
 4869POPC   C3A22517  41.531  25.268   7.950
 4869POPC   C4A22518  41.576  25.285   7.650
 4869POPC   C1B22519  41.513  25.084   8.550
 4869POPC   C2B22520  41.448  25.033   8.250
 4869POPC   C3B22521  41.500  24.999   7.950
 4869POPC   C4B22522  41.452  25.009   7.650
 4870POPC   NC322523  28.379  37.635   9.450
 4870POPC   PO422524  28.336  37.679   9.150
 4870POPC   GL122525  28.375  37.652   8.850
 4870POPC   GL222526  28.437  37.531   8.850
 4870POPC   C1A22527  28.335  37.708   8.550
 4870POPC   D2A22528  28.319  37.717   8.250
 4870POPC   C3A22529  28.385  37.647   7.950
 4870POPC   C4A22530  28.377  37.672   7.650
 4870POPC   C1B22531  28.460  37.428   8.550
 4870POPC   C2B22532  28.500  37.496   8.250
 4870POPC   C3B22533  28.534  37.438   7.950
 4870POPC   C4B22534  28.535  37.427   7.650
 4871POPC   NC322535  38.504   3.533   9.450
 4871POPC   PO422536  38.446   3.542   9.150
 4871POPC   GL122537  38.501   3.546   8.850
 4871POPC   GL222538  38.579   3.593   8.850
 4871POPC   C1A22539  38.474   3.549   8.550
 4871POPC   D2A22540  38.446   3.528   8.250
 4871POPC   C3A22541  38.421   3.547   7.950
 4871POPC   C4A22542  38.499   3.567   7.650
 4871POPC   C1B22543  38.679   3.687   8.550
 4871POPC   C2B22544  38.679   3.768   8.250
 4871POPC   C3B22545  38.639   3.769   7.950
 4871POPC   C4B22546  38.673   3.688   7.650
 4872POPC   NC322547  44.683  40.770   9.450
 4872POPC   PO422548  44.684  40.767   9.150
 4872POPC   GL122549  44.614  40.777   8.850
 4872POPC   GL222550  44.602  40.833   8.850
 4872POPC   C1A22551  44.697  40.743   8.550
 4872POPC   D2A22552  44.616  40.752   8.250
 4872POPC   C3A22553  44.697  40.814   7.950
 4872POPC   C4A22554  44.644  40.773   7.650
 4872POPC   C1B22555  44.441  40.880   8.550
 4872POPC   C2B22556  44.465  40.877   8.250
 4872POPC   C3B22557  44.442  40.887   7.950
 4872POPC   C4B22558  44.446  40.864   7.650
 4873POPC   NC322559  11.278   2.807   9.450
 4873POPC   PO422560  11.277   2.811   9.150
 4873POPC   GL122561  11.289   2.731   8.850
 4873POPC   GL222562  11.293   2.600   8.850
 4873POPC   C1A22563  11.254   2.744   8.550
 4873POPC   D2A22564  11.301   2.743   8.250
 4873POPC   C3A22565  11.258   2.733   7.950
 4873POPC   C4A22566  11.279   2.800   7.650
 4873POPC   C1B22567  11.353   2.535   8.550
 4873POPC   C2B22568  11.269   2.499   8.250
 4873POPC   C3B22569  11.340   2.484   7.950
 4873POPC   C4B22570  11.318   2.476   7.650
 4874POPC   NC322571  20.576  20.611   9.450
 4874POPC   PO422572  20.614  20.656   9.150
 4874POPC   GL122573  20.583  20.564   8.850
 4874POPC   GL222574  20.512  20.641   8.850
 4874POPC   C1A22575  20.618  20.647   8.550
 4874POPC   D2A22576  20.647  20.651   8.250
 4874POPC   C3A22577  20.642  20.587   7.950
 4874POPC   C4A22578  20.600  20.582   7.650
 4874POPC   C1B22579  20.400  20.605   8.550
 4874POPC   C2B22580  20.378  20.601   8.250
 4874POPC   C3B22581  20.323  20.621   7.950
 4874POPC   C4B22582  20.334  20.660   7.650
 4875POPC   NC322583  29.104  16.707   9.450
 4875POPC   PO422584  29.188  16.709   9.150
 4875POPC   GL122585  29.103  16.707   8.850
 4875POPC   GL222586  29.204  16.695   8.850
 4875POPC   C1A22587  29.125  16.760   8.550
 4875POPC   D2A22588  29.179  16.767   8.250
 4875POPC   C3A22589  29.101  16.771   7.950
 4875POPC   C4A22590  29.145  16.739   7.650
 4875POPC   C1B22591  29.311  16.629   8.550
 4875POPC   C2B22592  29.360  16.584   8.250
 4875POPC   C3B22593  29.373  16.640   7.950
 4875POPC   C4B22594  29.389  16.608   7.650
 4876POPC   NC322595   1.942  37.663   9.450
 4876POPC   PO422596   1.971  37.697   9.150
 4876POPC   GL122597   2.022  37.669   8.850
 4876POPC   GL222598   1.862  37.769   8.850
 4876POPC   C1A22599   1.975  37.704   8.550
 4876POPC   D2A22600   2.025  37.699   8.250
 4876POPC   C3A22601   1.955  37.703   7.950
 4876POPC   C4A22602   2.023  37.672   7.650
 4876POPC   C1B22603   1.790  37.844   8.550
 4876POPC   C2B22604   1.866  37.889   8.250
 4876POPC   C3B22605   1.816  37.907   7.950
 4876POPC   C4B22606   1.825  37.901   7.650
 4877POPC   NC322607  40.771  22.195   9.450
 4877POPC   PO422608  40.735  22.150   9.150
 4877POPC   GL122609  40.831  22.132   8.850
 4877POPC   GL222610  40.695  22.184   8.850
 4877POPC   C1A22611  40.780  22.193   8.550
 4877POPC   D2A22612  40.764  22.197   8.250
 4877POPC   C3A22613  40.737  22.152   7.950
 4877POPC   C4A22614  40.812  22.200   7.650
 4877POPC   C1B22615  40.549  22.153   8.550
 4877POPC   C2B22616  40.573  22.086   8.250
 4877POPC   C3B22617  40.557  22.124   7.950
 4877POPC   C4B22618  40.556  22.175   7.650
 4878POPC   NC322619  25.258  27.575   9.450
 4878POPC   PO422620  25.221  27.621   9.150
 4878POPC   GL122621  25.262  27.552   8.850
 4878POPC   GL222622  25.160  27.619   8.850
 4878POPC   C1A22623  25.314  27.599   8.550
 4878POPC   D2A22624  25.313  27.580   8.250
 4878POPC   C3A22625  25.297  27.580   7.950
 4878POPC   C4A22626  25.293  27.639   7.650
 4878POPC   C1B22627  25.010  27.627   8.550
 4878POPC   C2B22628  24.984  27.635   8.250
 4878POPC   C3B22629  25.049  27.627   7.950
 4878POPC   C4B22630  25.030  27.640   7.650
 4879POPC   NC322631  21.409  43.844   9.450
 4879POPC   PO422632  21.365  43.881   9.150
 4879POPC   GL122633  21.384  43.931   8.850
 4879POPC   GL222634  21.375  43.755   8.850
 4879POPC   C1A22635  21.412  43.893   8.550
 4879POPC   D2A22636  21.416  43.877   8.250
 4879POPC   C3A22637  21.428  43.932   7.950
 4879POPC   C4A22638  21.339  43.846   7.650
 4879POPC   C1B22639  21.361  43.605   8.550
 4879POPC   C2B22640  21.355  43.634   8.250
 4879POPC   C3B22641  21.327  43.614   7.950
 4879POPC   C4B22642  21.354  43.689   7.650
 4880POPC   NC322643  29.932   1.251   9.450
 4880POPC   PO422644  29.906   1.185   9.150
 4880POPC   GL122645  29.926   1.165   8.850
 4880POPC   GL222646  29.758   1.229   8.850
 4880POPC   C1A22647  29.918   1.232   8.550
 4880POPC   D2A22648  29.873   1.190   8.250
 4880POPC   C3A22649  29.889   1.209   7.950
 4880POPC   C4A22650  29.885   1.251   7.650
 4880POPC   C1B22651  29.655   1.135   8.550
 4880POPC   C2B22652  29.691   1.114   8.250
 4880POPC   C3B22653  29.662   1.150   7.950
 4880POPC   C4B22654  29.675   1.194   7.650
 4881POPC   NC322655  39.275  23.673   9.450
 4881POPC   PO422656  39.279  23.678   9.150
 4881POPC   GL122657  39.252  23.726   8.850
 4881POPC   GL222658  39.239  23.561   8.850
 4881POPC   C1A22659  39.262  23.741   8.550
 4881POPC   D2A22660  39.242  23.674   8.250
 4881POPC   C3A22661  39.246  23.679   7.950
 4881POPC   C4A22662  39.193  23.720   7.650
 4881POPC   C1B22663  39.335  23.432   8.550
 4881POPC   C2B22664  39.251  23.429   8.250
 4881POPC   C3B22665  39.262  23.512   7.950
 4881POPC   C4B22666  39.266  23.426   7.650
 4882POPC   NC322667   9.757  44.648   9.450
 4882POPC   PO422668   9.748  44.614   9.150
 4882POPC   GL122669   9.732  44.663   8.850
 4882POPC   GL222670   9.607  44.679   8.850
 4882POPC   C1A22671   9.783  44.668   8.550
 4882POPC   D2A22672   9.747  44.639   8.250
 4882POPC   C3A22673   9.752  44.706   7.950
 4882POPC   C4A22674   9.732  44.658   7.650
 4882POPC   C1B22675   9.536  44.623   8.550
 4882POPC   C2B22676   9.520  44.664   8.250
 4882POPC   C3B22677   9.488  44.655   7.950
 4882POPC   C4B22678   9.474  44.650   7.650
 4883POPC   NC322679   6.635  27.559   9.450
 4883POPC   PO422680   6.600  27.548   9.150
 4883POPC   GL122681   6.595  27.642   8.850
 4883POPC   GL222682   6.814  27.608   8.850
 4883POPC   C1A22683   6.655  27.577   8.550
 4883POPC   D2A22684   6.626  27.570   8.250
 4883POPC   C3A22685   6.683  27.585   7.950
 4883POPC   C4A22686   6.664  27.565   7.650
 4883POPC   C1B22687   6.850  27.555   8.550
 4883POPC   C2B22688   6.924  27.550   8.250
 4883POPC   C3B22689   6.902  27.547   7.950
 4883POPC   C4B22690   6.902  27.535   7.650
 4884POPC   NC322691   4.352   1.983   9.450
 4884POPC   PO422692   4.325   1.989   9.150
 4884POPC   GL122693   4.328   1.947   8.850
 4884POPC   GL222694   4.286   1.874   8.850
 4884POPC   C1A22695   4.324   1.954   8.550
 4884POPC   D2A22696   4.271   2.000   8.250
 4884POPC   C3A22697   4.323   1.996   7.950
 4884POPC   C4A22698   4.323   2.025   7.650
 4884POPC   C1B22699   4.198   1.804   8.550
 4884POPC   C2B22700   4.132   1.834   8.250
 4884POPC   C3B22701   4.157   1.798   7.950
 4884POPC   C4B22702   4.138   1.801   7.650
 4885POPC   NC322703  33.058  10.502   9.450
 4885POPC   PO422704  33.037  10.509   9.150
 4885POPC   GL122705  33.016  10.517   8.850
 4885POPC   GL222706  33.098  10.604   8.850
 4885POPC   C1A22707  33.040  10.513   8.550
 4885POPC   D2A22708  33.010  10.481   8.250
 4885POPC   C3A22709  33.039  10.486   7.950
 4885POPC   C4A22710  33.066  10.536   7.650
 4885POPC   C1B22711  33.122  10.768   8.550
 4885POPC   C2B22712  33.133  10.796   8.250
 4885POPC   C3B22713  33.169  10.746   7.950
 4885POPC   C4B22714  33.153  10.776   7.650
 4886POPC   NC322715  28.402  20.641   9.450
 4886POPC   PO422716  28.342  20.605   9.150
 4886POPC   GL122717  28.363  20.590   8.850
 4886POPC   GL222718  28.280  20.546   8.850
 4886POPC   C1A22719  28.415  20.583   8.550
 4886POPC   D2A22720  28.329  20.614   8.250
 4886POPC   C3A22721  28.347  20.571   7.950
 4886POPC   C4A22722  28.361  20.576   7.650
 4886POPC   C1B22723  28.172  20.532   8.550
 4886POPC   C2B22724  28.175  20.474   8.250
 4886POPC   C3B22725  28.113  20.509   7.950
 4886POPC   C4B22726  28.131  20.558   7.650
 4887POPC   NC322727  11.272  27.630   9.450
 4887POPC   PO422728  11.290  27.607   9.150
 4887POPC   GL122729  11.317  27.571   8.850
 4887POPC   GL222730  11.176  27.622   8.850
 4887POPC   C1A22731  11.271  27.561   8.550
 4887POPC   D2A22732  11.347  27.624   8.250
 4887POPC   C3A22733  11.256  27.565   7.950
 4887POPC   C4A22734  11.308  27.568   7.650
 4887POPC   C1B22735  11.052  27.600   8.550
 4887POPC   C2B22736  11.053  27.627   8.250
 4887POPC   C3B22737  11.087  27.602   7.950
 4887POPC   C4B22738  11.073  27.604   7.650
 4888POPC   NC322739  22.889  33.016   9.450
 4888POPC   PO422740  22.950  33.016   9.150
 4888POPC   GL122741  22.968  32.979   8.850
 4888POPC   GL222742  22.834  32.996   8.850
 4888POPC   C1A22743  22.982  33.070   8.550
 4888POPC   D2A22744  22.921  33.008   8.250
 4888POPC   C3A22745  22.961  33.041   7.950
 4888POPC   C4A22746  22.961  32.979   7.650
 4888POPC   C1B22747  22.694  33.020   8.550
 4888POPC   C2B22748  22.729  33.054   8.250
 4888POPC   C3B22749  22.697  33.066   7.950
 4888POPC   C4B22750  22.736  33.033   7.650
 4889POPC   NC322751   9.000  12.094   9.450
 4889POPC   PO422752   8.988  12.069   9.150
 4889POPC   GL122753   8.970  12.114   8.850
 4889POPC   GL222754   9.048  12.226   8.850
 4889POPC   C1A22755   9.021  12.053   8.550
 4889POPC   D2A22756   9.020  12.120   8.250
 4889POPC   C3A22757   8.941  12.078   7.950
 4889POPC   C4A22758   8.929  12.037   7.650
 4889POPC   C1B22759   9.058  12.320   8.550
 4889POPC   C2B22760   9.045  12.273   8.250
 4889POPC   C3B22761   9.060  12.274   7.950
 4889POPC   C4B22762   9.074  12.275   7.650
 4890POPC   NC322763   0.418  21.420   9.450
 4890POPC   PO422764   0.465  21.433   9.150
 4890POPC   GL122765   0.422  21.394   8.850
 4890POPC   GL222766   0.499  21.319   8.850
 4890POPC   C1A22767   0.404  21.344   8.550
 4890POPC   D2A22768   0.396  21.420   8.250
 4890POPC   C3A22769   0.478  21.406   7.950
 4890POPC   C4A22770   0.461  21.387   7.650
 4890POPC   C1B22771   0.593  21.226   8.550
 4890POPC   C2B22772   0.652  21.210   8.250
 4890POPC   C3B22773   0.635  21.196   7.950
 4890POPC   C4B22774   0.635  21.199   7.650
 4891POPC   NC322775   7.444   9.711   9.450
 4891POPC   PO422776   7.443   9.725   9.150
 4891POPC   GL122777   7.439   9.714   8.850
 4891POPC   GL222778   7.492   9.682   8.850
 4891POPC   C1A22779   7.409   9.729   8.550
 4891POPC   D2A22780   7.438   9.776   8.250
 4891POPC   C3A22781   7.414   9.772   7.950
 4891POPC   C4A22782   7.441   9.704   7.650
 4891POPC   C1B22783   7.569   9.621   8.550
 4891POPC   C2B22784   7.617   9.605   8.250
 4891POPC   C3B22785   7.603   9.615   7.950
 4891POPC   C4B22786   7.596   9.577   7.650
 4892POPC   NC322787  33.056  12.037   9.450
 4892POPC   PO422788  33.029  12.113   9.150
 4892POPC   GL122789  33.056  12.109   8.850
 4892POPC   GL222790  32.870  11.970   8.850
 4892POPC   C1A22791  33.018  12.045   8.550
 4892POPC   D2A22792  33.027  12.087   8.250
 4892POPC   C3A22793  32.997  12.061   7.950
 4892POPC   C4A22794  33.062  12.054   7.650
 4892POPC   C1B22795  32.801  11.909   8.550
 4892POPC   C2B22796  32.814  11.991   8.250
 4892POPC   C3B22797  32.805  11.945   7.950
 4892POPC   C4B22798  32.786  11.907   7.650
 4893POPC   NC322799  26.063   3.573   9.450
 4893POPC   PO422800  26.049   3.581   9.150
 4893POPC   GL122801  26.059   3.501   8.850
 4893POPC   GL222802  26.179   3.574   8.850
 4893POPC   C1A22803  26.052   3.581   8.550
 4893POPC   D2A22804  26.036   3.536   8.250
 4893POPC   C3A22805  26.052   3.528   7.950
 4893POPC   C4A22806  26.069   3.562   7.650
 4893POPC   C1B22807  26.322   3.571   8.550
 4893POPC   C2B22808  26.311   3.607   8.250
 4893POPC   C3B22809  26.272   3.559   7.950
 4893POPC   C4B22810  26.287   3.565   7.650
 4894POPC   NC322811  38.429   2.805   9.450
 4894POPC   PO422812  38.478   2.781   9.150
 4894POPC   GL122813  38.504   2.728   8.850
 4894POPC   GL222814  38.365   2.693   8.850
 4894POPC   C1A22815  38.430   2.783   8.550
 4894POPC   D2A22816  38.420   2.732   8.250
 4894POPC   C3A22817  38.439   2.727   7.950
 4894POPC   C4A22818  38.448   2.801   7.650
 4894POPC   C1B22819  38.313   2.553   8.550
 4894POPC   C2B22820  38.282   2.607   8.250
 4894POPC   C3B22821  38.313   2.600   7.950
 4894POPC   C4B22822  38.343   2.585   7.650
 4895POPC   NC322823   8.154  32.261   9.450
 4895POPC   PO422824   8.170  32.206   9.150
 4895POPC   GL122825   8.217  32.267   8.850
 4895POPC   GL222826   8.343  32.246   8.850
 4895POPC   C1A22827   8.221  32.262   8.550
 4895POPC   D2A22828   8.188  32.224   8.250
 4895POPC   C3A22829   8.194  32.270   7.950
 4895POPC   C4A22830   8.151  32.212   7.650
 4895POPC   C1B22831   8.468  32.203   8.550
 4895POPC   C2B22832   8.462  32.151   8.250
 4895POPC   C3B22833   8.413  32.239   7.950
 4895POPC   C4B22834   8.489  32.236   7.650
 4896POPC   NC322835  26.773  23.722   9.450
 4896POPC   PO422836  26.865  23.711   9.150
 4896POPC   GL122837  26.845  23.742   8.850
 4896POPC   GL222838  26.931  23.681   8.850
 4896POPC   C1A22839  26.856  23.681   8.550
 4896POPC   D2A22840  26.854  23.743   8.250
 4896POPC   C3A22841  26.859  23.706   7.950
 4896POPC   C4A22842  26.847  23.717   7.650
 4896POPC   C1B22843  27.045  23.530   8.550
 4896POPC   C2B22844  27.020  23.567   8.250
 4896POPC   C3B22845  27.049  23.517   7.950
 4896POPC   C4B22846  27.046  23.573   7.650
 4897POPC   NC322847  33.044  29.187   9.450
 4897POPC   PO422848  33.057  29.140   9.150
 4897POPC   GL122849  33.005  29.149   8.850
 4897POPC   GL222850  33.189  29.196   8.850
 4897POPC   C1A22851  33.058  29.129   8.550
 4897POPC   D2A22852  32.988  29.173   8.250
 4897POPC   C3A22853  33.025  29.194   7.950
 4897POPC   C4A22854  32.987  29.164   7.650
 4897POPC   C1B22855  33.274  29.214   8.550
 4897POPC   C2B22856  33.302  29.202   8.250
 4897POPC   C3B22857  33.233  29.215   7.950
 4897POPC   C4B22858  33.237  29.184   7.650
 4898POPC   NC322859  35.314  34.624   9.450
 4898POPC   PO422860  35.377  34.533   9.150
 4898POPC   GL122861  35.353  34.556   8.850
 4898POPC   GL222862  35.508  34.558   8.850
 4898POPC   C1A22863  35.345  34.589   8.550
 4898POPC   D2A22864  35.401  34.593   8.250
 4898POPC   C3A22865  35.393  34.613   7.950
 4898POPC   C4A22866  35.383  34.560   7.650
 4898POPC   C1B22867  35.607  34.615   8.550
 4898POPC   C2B22868  35.631  34.558   8.250
 4898POPC   C3B22869  35.589  34.547   7.950
 4898POPC   C4B22870  35.573  34.545   7.650
 4899POPC   NC322871  29.907  12.121   9.450
 4899POPC   PO422872  29.904  12.087   9.150
 4899POPC   GL122873  29.958  12.065   8.850
 4899POPC   GL222874  29.974  12.016   8.850
 4899POPC   C1A22875  29.881  12.071   8.550
 4899POPC   D2A22876  29.894  12.098   8.250
 4899POPC   C3A22877  29.937  12.108   7.950
 4899POPC   C4A22878  29.937  12.044   7.650
 4899POPC   C1B22879  30.049  11.888   8.550
 4899POPC   C2B22880  30.015  11.891   8.250
 4899POPC   C3B22881  30.050  11.903   7.950
 4899POPC   C4B22882  30.040  11.839   7.650
 4900POPC   NC322883   8.946  19.022   9.450
 4900POPC   PO422884   8.993  19.087   9.150
 4900POPC   GL122885   8.936  19.045   8.850
 4900POPC   GL222886   8.819  19.057   8.850
 4900POPC   C1A22887   9.014  19.077   8.550
 4900POPC   D2A22888   8.940  19.075   8.250
 4900POPC   C3A22889   8.949  19.054   7.950
 4900POPC   C4A22890   8.948  19.010   7.650
 4900POPC   C1B22891   8.721  19.112   8.550
 4900POPC   C2B22892   8.772  19.056   8.250
 4900POPC   C3B22893   8.737  19.109   7.950
 4900POPC   C4B22894   8.736  19.099   7.650
 4901POPC   NC322895  36.133  15.154   9.450
 4901POPC   PO422896  36.084  15.211   9.150
 4901POPC   GL122897  36.088  15.170   8.850
 4901POPC   GL222898  36.095  15.104   8.850
 4901POPC   C1A22899  36.152  15.136   8.550
 4901POPC   D2A22900  36.102  15.144   8.250
 4901POPC   C3A22901  36.159  15.143   7.950
 4901POPC   C4A22902  36.121  15.158   7.650
 4901POPC   C1B22903  36.115  14.893   8.550
 4901POPC   C2B22904  36.150  14.931   8.250
 4901POPC   C3B22905  36.105  14.976   7.950
 4901POPC   C4B22906  36.134  14.907   7.650
 4902POPC   NC322907  24.517  37.684   9.450
 4902POPC   PO422908  24.456  37.726   9.150
 4902POPC   GL122909  24.456  37.644   8.850
 4902POPC   GL222910  24.511  37.567   8.850
 4902POPC   C1A22911  24.473  37.685   8.550
 4902POPC   D2A22912  24.490  37.700   8.250
 4902POPC   C3A22913  24.492  37.630   7.950
 4902POPC   C4A22914  24.516  37.713   7.650
 4902POPC   C1B22915  24.604  37.455   8.550
 4902POPC   C2B22916  24.556  37.445   8.250
 4902POPC   C3B22917  24.580  37.404   7.950
 4902POPC   C4B22918  24.571  37.461   7.650
 4903POPC   NC322919   2.763   3.555   9.450
 4903POPC   PO422920   2.738   3.492   9.150
 4903POPC   GL122921   2.795   3.553   8.850
 4903POPC   GL222922   2.736   3.654   8.850
 4903POPC   C1A22923   2.770   3.576   8.550
 4903POPC   D2A22924   2.745   3.546   8.250
 4903POPC   C3A22925   2.739   3.545   7.950
 4903POPC   C4A22926   2.728   3.554   7.650
 4903POPC   C1B22927   2.648   3.740   8.550
 4903POPC   C2B22928   2.637   3.797   8.250
 4903POPC   C3B22929   2.664   3.718   7.950
 4903POPC   C4B22930   2.634   3.709   7.650
 4904POPC   NC322931   5.114   1.242   9.450
 4904POPC   PO422932   5.080   1.201   9.150
 4904POPC   GL122933   5.109   1.174   8.850
 4904POPC   GL222934   5.173   1.277   8.850
 4904POPC   C1A22935   5.107   1.214   8.550
 4904POPC   D2A22936   5.120   1.205   8.250
 4904POPC   C3A22937   5.116   1.238   7.950
 4904POPC   C4A22938   5.077   1.212   7.650
 4904POPC   C1B22939   5.322   1.306   8.550
 4904POPC   C2B22940   5.330   1.330   8.250
 4904POPC   C3B22941   5.308   1.283   7.950
 4904POPC   C4B22942   5.316   1.354   7.650
 4905POPC   NC322943  12.103   2.002   9.450
 4905POPC   PO422944  12.084   1.956   9.150
 4905POPC   GL122945  12.120   1.956   8.850
 4905POPC   GL222946  12.233   2.033   8.850
 4905POPC   C1A22947  12.086   1.975   8.550
 4905POPC   D2A22948  12.057   2.038   8.250
 4905POPC   C3A22949  12.102   1.941   7.950
 4905POPC   C4A22950  12.043   2.027   7.650
 4905POPC   C1B22951  12.264   2.075   8.550
 4905POPC   C2B22952  12.333   2.073   8.250
 4905POPC   C3B22953  12.333   2.121   7.950
 4905POPC   C4B22954  12.281   2.139   7.650
 4906POPC   NC322955  28.344  27.544   9.450
 4906POPC   PO422956  28.371  27.614   9.150
 4906POPC   GL122957  28.326  27.567   8.850
 4906POPC   GL222958  28.225  27.638   8.850
 4906POPC   C1A22959  28.357  27.632   8.550
 4906POPC   D2A22960  28.360  27.607   8.250
 4906POPC   C3A22961  28.353  27.578   7.950
 4906POPC   C4A22962  28.402  27.608   7.650
 4906POPC   C1B22963  28.145  27.697   8.550
 4906POPC   C2B22964  28.156  27.690   8.250
 4906POPC   C3B22965  28.088  27.669   7.950
 4906POPC   C4B22966  28.114  27.643   7.650
 4907POPC   NC322967  19.787  14.416   9.450
 4907POPC   PO422968  19.854  14.430   9.150
 4907POPC   GL122969  19.810  14.425   8.850
 4907POPC   GL222970  19.838  14.318   8.850
 4907POPC   C1A22971  19.808  14.431   8.550
 4907POPC   D2A22972  19.796  14.382   8.250
 4907POPC   C3A22973  19.800  14.377   7.950
 4907POPC   C4A22974  19.808  14.367   7.650
 4907POPC   C1B22975  19.741  14.176   8.550
 4907POPC   C2B22976  19.760  14.157   8.250
 4907POPC   C3B22977  19.776  14.170   7.950
 4907POPC   C4B22978  19.801  14.168   7.650
 4908POPC   NC322979  42.339   7.441   9.450
 4908POPC   PO422980  42.377   7.454   9.150
 4908POPC   GL122981  42.368   7.418   8.850
 4908POPC   GL222982  42.254   7.366   8.850
 4908POPC   C1A22983  42.370   7.391   8.550
 4908POPC   D2A22984  42.378   7.428   8.250
 4908POPC   C3A22985  42.357   7.401   7.950
 4908POPC   C4A22986  42.327   7.460   7.650
 4908POPC   C1B22987  42.187   7.185   8.550
 4908POPC   C2B22988  42.196   7.177   8.250
 4908POPC   C3B22989  42.195   7.271   7.950
 4908POPC   C4B22990  42.212   7.206   7.650
 4909POPC   NC322991  43.147  19.023   9.450
 4909POPC   PO422992  43.109  19.080   9.150
 4909POPC   GL122993  43.157  19.031   8.850
 4909POPC   GL222994  42.987  19.157   8.850
 4909POPC   C1A22995  43.140  19.036   8.550
 4909POPC   D2A22996  43.131  19.041   8.250
 4909POPC   C3A22997  43.113  19.071   7.950
 4909POPC   C4A22998  43.129  19.034   7.650
 4909POPC   C1B22999  42.875  19.156   8.550
 4909POPC   C2B23000  42.908  19.176   8.250
 4909POPC   C3B23001  42.871  19.230   7.950
 4909POPC   C4B23002  42.895  19.248   7.650
 4910POPC   NC323003  26.066   5.897   9.450
 4910POPC   PO423004  26.032   5.845   9.150
 4910POPC   GL123005  26.091   5.876   8.850
 4910POPC   GL223006  25.948   5.941   8.850
 4910POPC   C1A23007  26.048   5.880   8.550
 4910POPC   D2A23008  26.081   5.847   8.250
 4910POPC   C3A23009  25.994   5.834   7.950
 4910POPC   C4A23010  26.061   5.864   7.650
 4910POPC   C1B23011  25.927   6.107   8.550
 4910POPC   C2B23012  25.902   6.105   8.250
 4910POPC   C3B23013  25.880   6.025   7.950
 4910POPC   C4B23014  25.853   6.017   7.650
 4911POPC   NC323015  29.940  40.008   9.450
 4911POPC   PO423016  29.941  39.985   9.150
 4911POPC   GL123017  29.971  39.987   8.850
 4911POPC   GL223018  29.970  39.948   8.850
 4911POPC   C1A23019  29.958  40.008   8.550
 4911POPC   D2A23020  29.880  40.020   8.250
 4911POPC   C3A23021  29.949  39.961   7.950
 4911POPC   C4A23022  29.900  40.009   7.650
 4911POPC   C1B23023  30.090  39.743   8.550
 4911POPC   C2B23024  30.044  39.786   8.250
 4911POPC   C3B23025  30.070  39.805   7.950
 4911POPC   C4B23026  30.029  39.789   7.650
 4912POPC   NC323027   9.747  20.583   9.450
 4912POPC   PO423028   9.754  20.631   9.150
 4912POPC   GL123029   9.712  20.609   8.850
 4912POPC   GL223030   9.651  20.717   8.850
 4912POPC   C1A23031   9.728  20.630   8.550
 4912POPC   D2A23032   9.707  20.568   8.250
 4912POPC   C3A23033   9.724  20.568   7.950
 4912POPC   C4A23034   9.746  20.565   7.650
 4912POPC   C1B23035   9.648  20.823   8.550
 4912POPC   C2B23036   9.652  20.831   8.250
 4912POPC   C3B23037   9.593  20.830   7.950
 4912POPC   C4B23038   9.640  20.852   7.650
 4913POPC   NC323039   2.804   7.420   9.450
 4913POPC   PO423040   2.761   7.389   9.150
 4913POPC   GL123041   2.808   7.466   8.850
 4913POPC   GL223042   2.700   7.528   8.850
 4913POPC   C1A23043   2.731   7.394   8.550
 4913POPC   D2A23044   2.774   7.374   8.250
 4913POPC   C3A23045   2.769   7.382   7.950
 4913POPC   C4A23046   2.760   7.455   7.650
 4913POPC   C1B23047   2.635   7.605   8.550
 4913POPC   C2B23048   2.569   7.635   8.250
 4913POPC   C3B23049   2.566   7.616   7.950
 4913POPC   C4B23050   2.640   7.600   7.650
 4914POPC   NC323051  37.632  12.077   9.450
 4914POPC   PO423052  37.724  12.078   9.150
 4914POPC   GL123053  37.692  12.119   8.850
 4914POPC   GL223054  37.600  12.222   8.850
 4914POPC   C1A23055  37.665  12.097   8.550
 4914POPC   D2A23056  37.668  12.030   8.250
 4914POPC   C3A23057  37.650  12.125   7.950
 4914POPC   C4A23058  37.715  12.033   7.650
 4914POPC   C1B23059  37.597  12.303   8.550
 4914POPC   C2B23060  37.576  12.349   8.250
 4914POPC   C3B23061  37.601  12.323   7.950
 4914POPC   C4B23062  37.565  12.274   7.650
 4915POPC   NC323063   0.449  20.576   9.450
 4915POPC   PO423064   0.473  20.601   9.150
 4915POPC   GL123065   0.404  20.597   8.850
 4915POPC   GL223066   0.462  20.449   8.850
 4915POPC   C1A23067   0.398  20.572   8.550
 4915POPC   D2A23068   0.425  20.639   8.250
 4915POPC   C3A23069   0.449  20.624   7.950
 4915POPC   C4A23070   0.461  20.588   7.650
 4915POPC   C1B23071   0.418  20.396   8.550
 4915POPC   C2B23072   0.378  20.333   8.250
 4915POPC   C3B23073   0.374  20.380   7.950
 4915POPC   C4B23074   0.403  20.359   7.650
 4916POPC   NC323075  18.263  28.409   9.450
 4916POPC   PO423076  18.285  28.411   9.150
 4916POPC   GL123077  18.244  28.346   8.850
 4916POPC   GL223078  18.353  28.377   8.850
 4916POPC   C1A23079  18.268  28.334   8.550
 4916POPC   D2A23080  18.314  28.408   8.250
 4916POPC   C3A23081  18.302  28.387   7.950
 4916POPC   C4A23082  18.300  28.334   7.650
 4916POPC   C1B23083  18.483  28.464   8.550
 4916POPC   C2B23084  18.563  28.439   8.250
 4916POPC   C3B23085  18.517  28.408   7.950
 4916POPC   C4B23086  18.524  28.411   7.650
 4917POPC   NC323087  18.269  13.635   9.450
 4917POPC   PO423088  18.265  13.606   9.150
 4917POPC   GL123089  18.294  13.627   8.850
 4917POPC   GL223090  18.294  13.514   8.850
 4917POPC   C1A23091  18.263  13.615   8.550
 4917POPC   D2A23092  18.250  13.605   8.250
 4917POPC   C3A23093  18.255  13.654   7.950
 4917POPC   C4A23094  18.316  13.578   7.650
 4917POPC   C1B23095  18.322  13.412   8.550
 4917POPC   C2B23096  18.355  13.353   8.250
 4917POPC   C3B23097  18.318  13.344   7.950
 4917POPC   C4B23098  18.346  13.370   7.650
 4918POPC   NC323099  38.489  14.431   9.450
 4918POPC   PO423100  38.475  14.409   9.150
 4918POPC   GL123101  38.479  14.403   8.850
 4918POPC   GL223102  38.621  14.376   8.850
 4918POPC   C1A23103  38.448  14.437   8.550
 4918POPC   D2A23104  38.481  14.419   8.250
 4918POPC   C3A23105  38.453  14.409   7.950
 4918POPC   C4A23106  38.474  14.441   7.650
 4918POPC   C1B23107  38.697  14.399   8.550
 4918POPC   C2B23108  38.663  14.446   8.250
 4918POPC   C3B23109  38.741  14.425   7.950
 4918POPC   C4B23110  38.660  14.442   7.650
 4919POPC   NC323111  19.795  18.321   9.450
 4919POPC   PO423112  19.858  18.275   9.150
 4919POPC   GL123113  19.872  18.325   8.850
 4919POPC   GL223114  19.795  18.416   8.850
 4919POPC   C1A23115  19.848  18.295   8.550
 4919POPC   D2A23116  19.864  18.303   8.250
 4919POPC   C3A23117  19.827  18.240   7.950
 4919POPC   C4A23118  19.830  18.279   7.650
 4919POPC   C1B23119  19.735  18.478   8.550
 4919POPC   C2B23120  19.711  18.484   8.250
 4919POPC   C3B23121  19.668  18.536   7.950
 4919POPC   C4B23122  19.712  18.507   7.650
 4920POPC   NC323123  18.273  33.072   9.450
 4920POPC   PO423124  18.243  33.072   9.150
 4920POPC   GL123125  18.267  33.032   8.850
 4920POPC   GL223126  18.399  33.021   8.850
 4920POPC   C1A23127  18.283  33.029   8.550
 4920POPC   D2A23128  18.318  32.999   8.250
 4920POPC   C3A23129  18.255  32.998   7.950
 4920POPC   C4A23130  18.307  33.064   7.650
 4920POPC   C1B23131  18.572  32.917   8.550
 4920POPC   C2B23132  18.522  32.931   8.250
 4920POPC   C3B23133  18.496  32.939   7.950
 4920POPC   C4B23134  18.546  32.917   7.650
 4921POPC   NC323135   8.220  39.233   9.450
 4921POPC   PO423136   8.156  39.228   9.150
 4921POPC   GL123137   8.230  39.264   8.850
 4921POPC   GL223138   8.097  39.316   8.850
 4921POPC   C1A23139   8.186  39.190   8.550
 4921POPC   D2A23140   8.231  39.188   8.250
 4921POPC   C3A23141   8.208  39.267   7.950
 4921POPC   C4A23142   8.164  39.255   7.650
 4921POPC   C1B23143   8.029  39.370   8.550
 4921POPC   C2B23144   7.956  39.329   8.250
 4921POPC   C3B23145   8.002  39.365   7.950
 4921POPC   C4B23146   7.959  39.333   7.650
 4922POPC   NC323147  33.755  18.277   9.450
 4922POPC   PO423148  33.785  18.294   9.150
 4922POPC   GL123149  33.780  18.265   8.850
 4922POPC   GL223150  33.878  18.416   8.850
 4922POPC   C1A23151  33.839  18.281   8.550
 4922POPC   D2A23152  33.764  18.318   8.250
 4922POPC   C3A23153  33.762  18.320   7.950
 4922POPC   C4A23154  33.833  18.246   7.650
 4922POPC   C1B23155  33.963  18.427   8.550
 4922POPC   C2B23156  33.999  18.419   8.250
 4922POPC   C3B23157  33.958  18.432   7.950
 4922POPC   C4B23158  33.981  18.498   7.650
 4923POPC   NC323159  25.295  34.548   9.450
 4923POPC   PO423160  25.231  34.530   9.150
 4923POPC   GL123161  25.284  34.534   8.850
 4923POPC   GL223162  25.370  34.508   8.850
 4923POPC   C1A23163  25.305  34.535   8.550
 4923POPC   D2A23164  25.272  34.585   8.250
 4923POPC   C3A23165  25.254  34.556   7.950
 4923POPC   C4A23166  25.275  34.585   7.650
 4923POPC   C1B23167  25.373  34.412   8.550
 4923POPC   C2B23168  25.384  34.397   8.250
 4923POPC   C3B23169  25.356  34.366   7.950
 4923POPC   C4B23170  25.410  34.395   7.650
 4924POPC   NC323171   9.002  37.672   9.450
 4924POPC   PO423172   8.930  37.689   9.150
 4924POPC   GL123173   8.936  37.706   8.850
 4924POPC   GL223174   8.963  37.813   8.850
 4924POPC   C1A23175   9.016  37.718   8.550
 4924POPC   D2A23176   9.019  37.674   8.250
 4924POPC   C3A23177   8.977  37.692   7.950
 4924POPC   C4A23178   9.007  37.690   7.650
 4924POPC   C1B23179   8.981  37.899   8.550
 4924POPC   C2B23180   8.993  37.924   8.250
 4924POPC   C3B23181   9.013  37.925   7.950
 4924POPC   C4B23182   8.968  37.931   7.650
 4925POPC   NC323183  27.556  29.942   9.450
 4925POPC   PO423184  27.593  29.943   9.150
 4925POPC   GL123185  27.611  29.918   8.850
 4925POPC   GL223186  27.527  30.025   8.850
 4925POPC   C1A23187  27.549  29.921   8.550
 4925POPC   D2A23188  27.624  29.897   8.250
 4925POPC   C3A23189  27.606  29.941   7.950
 4925POPC   C4A23190  27.559  29.955   7.650
 4925POPC   C1B23191  27.429  30.130   8.550
 4925POPC   C2B23192  27.400  30.065   8.250
 4925POPC   C3B23193  27.396  30.128   7.950
 4925POPC   C4B23194  27.425  30.120   7.650
 4926POPC   NC323195  13.593  24.496   9.450
 4926POPC   PO423196  13.645  24.512   9.150
 4926POPC   GL123197  13.635  24.461   8.850
 4926POPC   GL223198  13.519  24.496   8.850
 4926POPC   C1A23199  13.623  24.498   8.550
 4926POPC   D2A23200  13.648  24.462   8.250
 4926POPC   C3A23201  13.653  24.513   7.950
 4926POPC   C4A23202  13.580  24.474   7.650
 4926POPC   C1B23203  13.380  24.478   8.550
 4926POPC   C2B23204  13.356  24.454   8.250
 4926POPC   C3B23205  13.369  24.484   7.950
 4926POPC   C4B23206  13.395  24.515   7.650
 4927POPC   NC323207  39.206   8.184   9.450
 4927POPC   PO423208  39.187   8.218   9.150
 4927POPC   GL123209  39.242   8.176   8.850
 4927POPC   GL223210  39.072   8.166   8.850
 4927POPC   C1A23211  39.227   8.213   8.550
 4927POPC   D2A23212  39.251   8.199   8.250
 4927POPC   C3A23213  39.225   8.219   7.950
 4927POPC   C4A23214  39.211   8.147   7.650
 4927POPC   C1B23215  39.003   8.154   8.550
 4927POPC   C2B23216  39.025   8.098   8.250
 4927POPC   C3B23217  39.019   8.161   7.950
 4927POPC   C4B23218  38.958   8.093   7.650
 4928POPC   NC323219   2.765   2.030   9.450
 4928POPC   PO423220   2.801   1.989   9.150
 4928POPC   GL123221   2.745   2.000   8.850
 4928POPC   GL223222   2.736   2.078   8.850
 4928POPC   C1A23223   2.773   2.011   8.550
 4928POPC   D2A23224   2.777   1.943   8.250
 4928POPC   C3A23225   2.806   1.987   7.950
 4928POPC   C4A23226   2.794   2.007   7.650
 4928POPC   C1B23227   2.731   2.209   8.550
 4928POPC   C2B23228   2.797   2.208   8.250
 4928POPC   C3B23229   2.759   2.251   7.950
 4928POPC   C4B23230   2.754   2.192   7.650
 4929POPC   NC323231  10.560  17.532   9.450
 4929POPC   PO423232  10.574  17.490   9.150
 4929POPC   GL123233  10.480  17.528   8.850
 4929POPC   GL223234  10.572  17.403   8.850
 4929POPC   C1A23235  10.482  17.482   8.550
 4929POPC   D2A23236  10.501  17.484   8.250
 4929POPC   C3A23237  10.564  17.541   7.950
 4929POPC   C4A23238  10.531  17.516   7.650
 4929POPC   C1B23239  10.689  17.324   8.550
 4929POPC   C2B23240  10.644  17.328   8.250
 4929POPC   C3B23241  10.630  17.255   7.950
 4929POPC   C4B23242  10.679  17.301   7.650
 4930POPC   NC323243  40.798  21.406   9.450
 4930POPC   PO423244  40.780  21.396   9.150
 4930POPC   GL123245  40.736  21.395   8.850
 4930POPC   GL223246  40.665  21.473   8.850
 4930POPC   C1A23247  40.738  21.416   8.550
 4930POPC   D2A23248  40.816  21.406   8.250
 4930POPC   C3A23249  40.779  21.397   7.950
 4930POPC   C4A23250  40.746  21.372   7.650
 4930POPC   C1B23251  40.642  21.630   8.550
 4930POPC   C2B23252  40.693  21.552   8.250
 4930POPC   C3B23253  40.611  21.639   7.950
 4930POPC   C4B23254  40.669  21.574   7.650
 4931POPC   NC323255  35.377  29.882   9.450
 4931POPC   PO423256  35.309  29.953   9.150
 4931POPC   GL123257  35.348  29.960   8.850
 4931POPC   GL223258  35.356  29.767   8.850
 4931POPC   C1A23259  35.361  29.961   8.550
 4931POPC   D2A23260  35.312  29.935   8.250
 4931POPC   C3A23261  35.359  29.890   7.950
 4931POPC   C4A23262  35.400  29.971   7.650
 4931POPC   C1B23263  35.429  29.720   8.550
 4931POPC   C2B23264  35.386  29.722   8.250
 4931POPC   C3B23265  35.431  29.642   7.950
 4931POPC   C4B23266  35.397  29.665   7.650
 4932POPC   NC323267  24.493   6.644   9.450
 4932POPC   PO423268  24.500   6.632   9.150
 4932POPC   GL123269  24.478   6.638   8.850
 4932POPC   GL223270  24.388   6.626   8.850
 4932POPC   C1A23271  24.534   6.643   8.550
 4932POPC   D2A23272  24.513   6.620   8.250
 4932POPC   C3A23273  24.491   6.622   7.950
 4932POPC   C4A23274  24.530   6.662   7.650
 4932POPC   C1B23275  24.190   6.682   8.550
 4932POPC   C2B23276  24.271   6.655   8.250
 4932POPC   C3B23277  24.209   6.628   7.950
 4932POPC   C4B23278  24.199   6.674   7.650
 4933POPC   NC323279  25.258   9.708   9.450
 4933POPC   PO423280  25.261   9.779   9.150
 4933POPC   GL123281  25.272   9.742   8.850
 4933POPC   GL223282  25.212   9.603   8.850
 4933POPC   C1A23283  25.227   9.727   8.550
 4933POPC   D2A23284  25.314   9.758   8.250
 4933POPC   C3A23285  25.239   9.720   7.950
 4933POPC   C4A23286  25.260   9.764   7.650
 4933POPC   C1B23287  25.186   9.520   8.550
 4933POPC   C2B23288  25.165   9.565   8.250
 4933POPC   C3B23289  25.177   9.513   7.950
 4933POPC   C4B23290  25.171   9.487   7.650
 4934POPC   NC323291  40.760  40.794   9.450
 4934POPC   PO423292  40.748  40.803   9.150
 4934POPC   GL123293  40.831  40.759   8.850
 4934POPC   GL223294  40.785  40.955   8.850
 4934POPC   C1A23295  40.796  40.783   8.550
 4934POPC   D2A23296  40.814  40.748   8.250
 4934POPC   C3A23297  40.750  40.775   7.950
 4934POPC   C4A23298  40.799  40.819   7.650
 4934POPC   C1B23299  40.777  41.056   8.550
 4934POPC   C2B23300  40.769  41.016   8.250
 4934POPC   C3B23301  40.813  41.035   7.950
 4934POPC   C4B23302  40.784  41.001   7.650
 4935POPC   NC323303  11.269   6.694   9.450
 4935POPC   PO423304  11.282   6.597   9.150
 4935POPC   GL123305  11.255   6.599   8.850
 4935POPC   GL223306  11.374   6.530   8.850
 4935POPC   C1A23307  11.313   6.634   8.550
 4935POPC   D2A23308  11.305   6.680   8.250
 4935POPC   C3A23309  11.332   6.688   7.950
 4935POPC   C4A23310  11.347   6.614   7.650
 4935POPC   C1B23311  11.436   6.492   8.550
 4935POPC   C2B23312  11.451   6.432   8.250
 4935POPC   C3B23313  11.442   6.413   7.950
 4935POPC   C4B23314  11.440   6.445   7.650
 4936POPC   NC323315   3.585  25.265   9.450
 4936POPC   PO423316   3.571  25.313   9.150
 4936POPC   GL123317   3.498  25.295   8.850
 4936POPC   GL223318   3.564  25.348   8.850
 4936POPC   C1A23319   3.545  25.247   8.550
 4936POPC   D2A23320   3.504  25.285   8.250
 4936POPC   C3A23321   3.586  25.260   7.950
 4936POPC   C4A23322   3.513  25.265   7.650
 4936POPC   C1B23323   3.547  25.482   8.550
 4936POPC   C2B23324   3.552  25.480   8.250
 4936POPC   C3B23325   3.569  25.489   7.950
 4936POPC   C4B23326   3.616  25.512   7.650
 4937POPC   NC323327  35.331   5.103   9.450
 4937POPC   PO423328  35.345   5.080   9.150
 4937POPC   GL123329  35.330   5.077   8.850
 4937POPC   GL223330  35.205   5.034   8.850
 4937POPC   C1A23331  35.351   5.054   8.550
 4937POPC   D2A23332  35.308   5.124   8.250
 4937POPC   C3A23333  35.364   5.061   7.950
 4937POPC   C4A23334  35.359   5.118   7.650
 4937POPC   C1B23335  35.131   5.077   8.550
 4937POPC   C2B23336  35.098   5.076   8.250
 4937POPC   C3B23337  35.063   5.106   7.950
 4937POPC   C4B23338  35.087   5.042   7.650
 4938POPC   NC323339  43.070  36.907   9.450
 4938POPC   PO423340  43.108  36.889   9.150
 4938POPC   GL123341  43.089  36.897   8.850
 4938POPC   GL223342  43.138  36.764   8.850
 4938POPC   C1A23343  43.114  36.914   8.550
 4938POPC   D2A23344  43.075  36.950   8.250
 4938POPC   C3A23345  43.138  36.895   7.950
 4938POPC   C4A23346  43.105  36.927   7.650
 4938POPC   C1B23347  43.179  36.710   8.550
 4938POPC   C2B23348  43.239  36.695   8.250
 4938POPC   C3B23349  43.258  36.683   7.950
 4938POPC   C4B23350  43.225  36.707   7.650
 4939POPC   NC323351  40.818   0.427   9.450
 4939POPC   PO423352  40.756   0.426   9.150
 4939POPC   GL123353  40.824   0.448   8.850
 4939POPC   GL223354  40.628   0.396   8.850
 4939POPC   C1A23355  40.774   0.418   8.550
 4939POPC   D2A23356  40.768   0.406   8.250
 4939POPC   C3A23357  40.799   0.423   7.950
 4939POPC   C4A23358  40.818   0.421   7.650
 4939POPC   C1B23359  40.565   0.428   8.550
 4939POPC   C2B23360  40.556   0.358   8.250
 4939POPC   C3B23361  40.560   0.367   7.950
 4939POPC   C4B23362  40.527   0.391   7.650
 4940POPC   NC323363  15.920  43.142   9.450
 4940POPC   PO423364  15.936  43.070   9.150
 4940POPC   GL123365  15.945  43.083   8.850
 4940POPC   GL223366  15.935  42.960   8.850
 4940POPC   C1A23367  15.972  43.062   8.550
 4940POPC   D2A23368  15.970  43.113   8.250
 4940POPC   C3A23369  16.004  43.136   7.950
 4940POPC   C4A23370  15.926  43.108   7.650
 4940POPC   C1B23371  15.947  42.900   8.550
 4940POPC   C2B23372  15.949  42.887   8.250
 4940POPC   C3B23373  15.952  42.875   7.950
 4940POPC   C4B23374  15.957  42.840   7.650
 4941POPC   NC323375  22.972  18.274   9.450
 4941POPC   PO423376  22.905  18.283   9.150
 4941POPC   GL123377  22.925  18.273   8.850
 4941POPC   GL223378  22.792  18.296   8.850
 4941POPC   C1A23379  22.936  18.303   8.550
 4941POPC   D2A23380  22.962  18.240   8.250
 4941POPC   C3A23381  22.954  18.237   7.950
 4941POPC   C4A23382  22.890  18.327   7.650
 4941POPC   C1B23383  22.709  18.422   8.550
 4941POPC   C2B23384  22.674  18.387   8.250
 4941POPC   C3B23385  22.678  18.420   7.950
 4941POPC   C4B23386  22.765  18.420   7.650
 4942POPC   NC323387  15.131   9.722   9.450
 4942POPC   PO423388  15.172   9.792   9.150
 4942POPC   GL123389  15.219   9.770   8.850
 4942POPC   GL223390  15.246   9.885   8.850
 4942POPC   C1A23391  15.170   9.757   8.550
 4942POPC   D2A23392  15.179   9.700   8.250
 4942POPC   C3A23393  15.162   9.718   7.950
 4942POPC   C4A23394  15.218   9.705   7.650
 4942POPC   C1B23395  15.338   9.910   8.550
 4942POPC   C2B23396  15.343   9.982   8.250
 4942POPC   C3B23397  15.354   9.969   7.950
 4942POPC   C4B23398  15.349   9.925   7.650
 4943POPC   NC323399  14.406   6.648   9.450
 4943POPC   PO423400  14.366   6.652   9.150
 4943POPC   GL123401  14.447   6.629   8.850
 4943POPC   GL223402  14.562   6.630   8.850
 4943POPC   C1A23403  14.451   6.664   8.550
 4943POPC   D2A23404  14.376   6.599   8.250
 4943POPC   C3A23405  14.417   6.639   7.950
 4943POPC   C4A23406  14.427   6.619   7.650
 4943POPC   C1B23407  14.686   6.597   8.550
 4943POPC   C2B23408  14.601   6.549   8.250
 4943POPC   C3B23409  14.683   6.580   7.950
 4943POPC   C4B23410  14.625   6.596   7.650
 4944POPC   NC323411   8.149   8.947   9.450
 4944POPC   PO423412   8.246   9.022   9.150
 4944POPC   GL123413   8.193   8.929   8.850
 4944POPC   GL223414   8.099   8.866   8.850
 4944POPC   C1A23415   8.186   8.958   8.550
 4944POPC   D2A23416   8.207   8.978   8.250
 4944POPC   C3A23417   8.183   8.953   7.950
 4944POPC   C4A23418   8.200   8.974   7.650
 4944POPC   C1B23419   7.959   8.793   8.550
 4944POPC   C2B23420   7.946   8.835   8.250
 4944POPC   C3B23421   8.027   8.859   7.950
 4944POPC   C4B23422   8.007   8.818   7.650
 4945POPC   NC323423   7.444  10.558   9.450
 4945POPC   PO423424   7.456  10.485   9.150
 4945POPC   GL123425   7.416  10.503   8.850
 4945POPC   GL223426   7.569  10.522   8.850
 4945POPC   C1A23427   7.455  10.501   8.550
 4945POPC   D2A23428   7.440  10.572   8.250
 4945POPC   C3A23429   7.447  10.539   7.950
 4945POPC   C4A23430   7.388  10.486   7.650
 4945POPC   C1B23431   7.682  10.525   8.550
 4945POPC   C2B23432   7.709  10.504   8.250
 4945POPC   C3B23433   7.691  10.516   7.950
 4945POPC   C4B23434   7.680  10.490   7.650
 4946POPC   NC323435  27.599  19.032   9.450
 4946POPC   PO423436  27.545  19.096   9.150
 4946POPC   GL123437  27.584  19.043   8.850
 4946POPC   GL223438  27.638  19.173   8.850
 4946POPC   C1A23439  27.588  19.095   8.550
 4946POPC   D2A23440  27.562  19.097   8.250
 4946POPC   C3A23441  27.636  19.043   7.950
 4946POPC   C4A23442  27.577  19.080   7.650
 4946POPC   C1B23443  27.754  19.252   8.550
 4946POPC   C2B23444  27.734  19.238   8.250
 4946POPC   C3B23445  27.783  19.258   7.950
 4946POPC   C4B23446  27.811  19.252   7.650
 4947POPC   NC323447  27.567  34.589   9.450
 4947POPC   PO423448  27.612  34.607   9.150
 4947POPC   GL123449  27.615  34.552   8.850
 4947POPC   GL223450  27.756  34.611   8.850
 4947POPC   C1A23451  27.602  34.621   8.550
 4947POPC   D2A23452  27.637  34.582   8.250
 4947POPC   C3A23453  27.582  34.595   7.950
 4947POPC   C4A23454  27.604  34.575   7.650
 4947POPC   C1B23455  27.833  34.534   8.550
 4947POPC   C2B23456  27.808  34.623   8.250
 4947POPC   C3B23457  27.870  34.590   7.950
 4947POPC   C4B23458  27.844  34.595   7.650
 4948POPC   NC323459  29.153   3.571   9.450
 4948POPC   PO423460  29.193   3.586   9.150
 4948POPC   GL123461  29.133   3.538   8.850
 4948POPC   GL223462  29.122   3.411   8.850
 4948POPC   C1A23463  29.102   3.507   8.550
 4948POPC   D2A23464  29.103   3.513   8.250
 4948POPC   C3A23465  29.169   3.554   7.950
 4948POPC   C4A23466  29.130   3.553   7.650
 4948POPC   C1B23467  29.129   3.295   8.550
 4948POPC   C2B23468  29.156   3.337   8.250
 4948POPC   C3B23469  29.148   3.257   7.950
 4948POPC   C4B23470  29.123   3.327   7.650
 4949POPC   NC323471  15.959  31.495   9.450
 4949POPC   PO423472  15.938  31.491   9.150
 4949POPC   GL123473  15.999  31.497   8.850
 4949POPC   GL223474  15.834  31.484   8.850
 4949POPC   C1A23475  15.906  31.509   8.550
 4949POPC   D2A23476  15.946  31.460   8.250
 4949POPC   C3A23477  15.972  31.505   7.950
 4949POPC   C4A23478  15.993  31.513   7.650
 4949POPC   C1B23479  15.717  31.581   8.550
 4949POPC   C2B23480  15.731  31.567   8.250
 4949POPC   C3B23481  15.779  31.541   7.950
 4949POPC   C4B23482  15.688  31.629   7.650
 4950POPC   NC323483   8.237  14.401   9.450
 4950POPC   PO423484   8.244  14.431   9.150
 4950POPC   GL123485   8.165  14.431   8.850
 4950POPC   GL223486   8.163  14.515   8.850
 4950POPC   C1A23487   8.198  14.363   8.550
 4950POPC   D2A23488   8.177  14.447   8.250
 4950POPC   C3A23489   8.223  14.448   7.950
 4950POPC   C4A23490   8.151  14.391   7.650
 4950POPC   C1B23491   8.176  14.628   8.550
 4950POPC   C2B23492   8.235  14.604   8.250
 4950POPC   C3B23493   8.259  14.634   7.950
 4950POPC   C4B23494   8.262  14.634   7.650
 4951POPC   NC323495   2.728  12.090   9.450
 4951POPC   PO423496   2.723  12.101   9.150
 4951POPC   GL123497   2.748  12.049   8.850
 4951POPC   GL223498   2.812  11.997   8.850
 4951POPC   C1A23499   2.791  12.084   8.550
 4951POPC   D2A23500   2.779  12.120   8.250
 4951POPC   C3A23501   2.765  12.101   7.950
 4951POPC   C4A23502   2.788  12.065   7.650
 4951POPC   C1B23503   2.847  11.878   8.550
 4951POPC   C2B23504   2.890  11.873   8.250
 4951POPC   C3B23505   2.932  11.845   7.950
 4951POPC   C4B23506   2.938  11.821   7.650
 4952POPC   NC323507  31.466   2.035   9.450
 4952POPC   PO423508  31.443   1.979   9.150
 4952POPC   GL123509  31.465   1.952   8.850
 4952POPC   GL223510  31.460   1.845   8.850
 4952POPC   C1A23511  31.481   1.974   8.550
 4952POPC   D2A23512  31.484   1.988   8.250
 4952POPC   C3A23513  31.504   2.009   7.950
 4952POPC   C4A23514  31.429   2.012   7.650
 4952POPC   C1B23515  31.436   1.752   8.550
 4952POPC   C2B23516  31.436   1.762   8.250
 4952POPC   C3B23517  31.460   1.788   7.950
 4952POPC   C4B23518  31.425   1.719   7.650
 4953POPC   NC323519  35.314  39.262   9.450
 4953POPC   PO423520  35.360  39.264   9.150
 4953POPC   GL123521  35.358  39.207   8.850
 4953POPC   GL223522  35.494  39.239   8.850
 4953POPC   C1A23523  35.313  39.248   8.550
 4953POPC   D2A23524  35.339  39.234   8.250
 4953POPC   C3A23525  35.335  39.264   7.950
 4953POPC   C4A23526  35.390  39.215   7.650
 4953POPC   C1B23527  35.643  39.276   8.550
 4953POPC   C2B23528  35.616  39.227   8.250
 4953POPC   C3B23529  35.592  39.233   7.950
 4953POPC   C4B23530  35.579  39.280   7.650
 4954POPC   NC323531   9.738  15.921   9.450
 4954POPC   PO423532   9.728  15.989   9.150
 4954POPC   GL123533   9.753  16.005   8.850
 4954POPC   GL223534   9.580  15.975   8.850
 4954POPC   C1A23535   9.744  15.915   8.550
 4954POPC   D2A23536   9.708  15.992   8.250
 4954POPC   C3A23537   9.710  15.980   7.950
 4954POPC   C4A23538   9.773  15.933   7.650
 4954POPC   C1B23539   9.478  15.890   8.550
 4954POPC   C2B23540   9.528  15.948   8.250
 4954POPC   C3B23541   9.504  15.948   7.950
 4954POPC   C4B23542   9.513  15.875   7.650
 4955POPC   NC323543  11.330  30.649   9.450
 4955POPC   PO423544  11.281  30.740   9.150
 4955POPC   GL123545  11.336  30.745   8.850
 4955POPC   GL223546  11.380  30.763   8.850
 4955POPC   C1A23547  11.298  30.732   8.550
 4955POPC   D2A23548  11.332  30.731   8.250
 4955POPC   C3A23549  11.315  30.680   7.950
 4955POPC   C4A23550  11.300  30.741   7.650
 4955POPC   C1B23551  11.365  30.894   8.550
 4955POPC   C2B23552  11.426  30.916   8.250
 4955POPC   C3B23553  11.410  30.946   7.950
 4955POPC   C4B23554  11.420  30.952   7.650
 4956POPC   NC323555  14.359  22.165   9.450
 4956POPC   PO423556  14.370  22.166   9.150
 4956POPC   GL123557  14.412  22.131   8.850
 4956POPC   GL223558  14.395  21.990   8.850
 4956POPC   C1A23559  14.387  22.151   8.550
 4956POPC   D2A23560  14.391  22.140   8.250
 4956POPC   C3A23561  14.384  22.194   7.950
 4956POPC   C4A23562  14.440  22.155   7.650
 4956POPC   C1B23563  14.469  21.948   8.550
 4956POPC   C2B23564  14.433  21.915   8.250
 4956POPC   C3B23565  14.418  21.960   7.950
 4956POPC   C4B23566  14.495  21.918   7.650
 4957POPC   NC323567  32.221  17.523   9.450
 4957POPC   PO423568  32.204  17.529   9.150
 4957POPC   GL123569  32.213  17.539   8.850
 4957POPC   GL223570  32.315  17.406   8.850
 4957POPC   C1A23571  32.261  17.501   8.550
 4957POPC   D2A23572  32.289  17.513   8.250
 4957POPC   C3A23573  32.257  17.460   7.950
 4957POPC   C4A23574  32.250  17.478   7.650
 4957POPC   C1B23575  32.438  17.351   8.550
 4957POPC   C2B23576  32.421  17.394   8.250
 4957POPC   C3B23577  32.439  17.329   7.950
 4957POPC   C4B23578  32.499  17.373   7.650
 4958POPC   NC323579  13.662  37.649   9.450
 4958POPC   PO423580  13.590  37.691   9.150
 4958POPC   GL123581  13.622  37.665   8.850
 4958POPC   GL223582  13.713  37.631   8.850
 4958POPC   C1A23583  13.624  37.677   8.550
 4958POPC   D2A23584  13.619  37.719   8.250
 4958POPC   C3A23585  13.668  37.660   7.950
 4958POPC   C4A23586  13.586  37.717   7.650
 4958POPC   C1B23587  13.859  37.547   8.550
 4958POPC   C2B23588  13.815  37.465   8.250
 4958POPC   C3B23589  13.859  37.546   7.950
 4958POPC   C4B23590  13.843  37.522   7.650
 4959POPC   NC323591  31.485  12.806   9.450
 4959POPC   PO423592  31.460  12.854   9.150
 4959POPC   GL123593  31.456  12.820   8.850
 4959POPC   GL223594  31.336  12.796   8.850
 4959POPC   C1A23595  31.496  12.848   8.550
 4959POPC   D2A23596  31.499  12.869   8.250
 4959POPC   C3A23597  31.440  12.827   7.950
 4959POPC   C4A23598  31.500  12.897   7.650
 4959POPC   C1B23599  31.305  12.700   8.550
 4959POPC   C2B23600  31.341  12.703   8.250
 4959POPC   C3B23601  31.259  12.642   7.950
 4959POPC   C4B23602  31.330  12.686   7.650
 4960POPC   NC323603  11.302  38.415   9.450
 4960POPC   PO423604  11.348  38.432   9.150
 4960POPC   GL123605  11.267  38.493   8.850
 4960POPC   GL223606  11.206  38.530   8.850
 4960POPC   C1A23607  11.282  38.411   8.550
 4960POPC   D2A23608  11.269  38.491   8.250
 4960POPC   C3A23609  11.315  38.462   7.950
 4960POPC   C4A23610  11.306  38.456   7.650
 4960POPC   C1B23611  11.120  38.583   8.550
 4960POPC   C2B23612  11.038  38.611   8.250
 4960POPC   C3B23613  11.041  38.608   7.950
 4960POPC   C4B23614  11.064  38.587   7.650
 4961POPC   NC323615   5.887  39.196   9.450
 4961POPC   PO423616   5.825  39.190   9.150
 4961POPC   GL123617   5.832  39.276   8.850
 4961POPC   GL223618   5.795  39.102   8.850
 4961POPC   C1A23619   5.915  39.209   8.550
 4961POPC   D2A23620   5.841  39.185   8.250
 4961POPC   C3A23621   5.872  39.211   7.950
 4961POPC   C4A23622   5.834  39.239   7.650
 4961POPC   C1B23623   5.834  39.017   8.550
 4961POPC   C2B23624   5.761  39.008   8.250
 4961POPC   C3B23625   5.780  38.971   7.950
 4961POPC   C4B23626   5.766  38.961   7.650
 4962POPC   NC323627  27.568  16.699   9.450
 4962POPC   PO423628  27.562  16.721   9.150
 4962POPC   GL123629  27.587  16.733   8.850
 4962POPC   GL223630  27.650  16.614   8.850
 4962POPC   C1A23631  27.627  16.758   8.550
 4962POPC   D2A23632  27.605  16.688   8.250
 4962POPC   C3A23633  27.554  16.713   7.950
 4962POPC   C4A23634  27.566  16.711   7.650
 4962POPC   C1B23635  27.679  16.484   8.550
 4962POPC   C2B23636  27.638  16.523   8.250
 4962POPC   C3B23637  27.682  16.459   7.950
 4962POPC   C4B23638  27.678  16.486   7.650
 4963POPC   NC323639  22.194   8.224   9.450
 4963POPC   PO423640  22.177   8.228   9.150
 4963POPC   GL123641  22.166   8.241   8.850
 4963POPC   GL223642  22.128   8.329   8.850
 4963POPC   C1A23643  22.191   8.176   8.550
 4963POPC   D2A23644  22.136   8.224   8.250
 4963POPC   C3A23645  22.175   8.161   7.950
 4963POPC   C4A23646  22.143   8.177   7.650
 4963POPC   C1B23647  22.116   8.469   8.550
 4963POPC   C2B23648  22.145   8.467   8.250
 4963POPC   C3B23649  22.096   8.443   7.950
 4963POPC   C4B23650  22.082   8.474   7.650
 4964POPC   NC323651  33.782  36.924   9.450
 4964POPC   PO423652  33.817  36.862   9.150
 4964POPC   GL123653  33.789  36.910   8.850
 4964POPC   GL223654  33.862  36.821   8.850
 4964POPC   C1A23655  33.762  36.939   8.550
 4964POPC   D2A23656  33.772  36.887   8.250
 4964POPC   C3A23657  33.836  36.865   7.950
 4964POPC   C4A23658  33.804  36.931   7.650
 4964POPC   C1B23659  33.946  36.680   8.550
 4964POPC   C2B23660  33.905  36.694   8.250
 4964POPC   C3B23661  33.893  36.681   7.950
 4964POPC   C4B23662  33.926  36.718   7.650
 4965POPC   NC323663   2.801  20.595   9.450
 4965POPC   PO423664   2.797  20.569   9.150
 4965POPC   GL123665   2.805  20.639   8.850
 4965POPC   GL223666   2.843  20.764   8.850
 4965POPC   C1A23667   2.734  20.642   8.550
 4965POPC   D2A23668   2.802  20.570   8.250
 4965POPC   C3A23669   2.785  20.588   7.950
 4965POPC   C4A23670   2.815  20.563   7.650
 4965POPC   C1B23671   2.933  20.863   8.550
 4965POPC   C2B23672   2.924  20.825   8.250
 4965POPC   C3B23673   2.868  20.851   7.950
 4965POPC   C4B23674   2.895  20.836   7.650
 4966POPC   NC323675  20.567   2.784   9.450
 4966POPC   PO423676  20.652   2.784   9.150
 4966POPC   GL123677  20.593   2.717   8.850
 4966POPC   GL223678  20.708   2.631   8.850
 4966POPC   C1A23679  20.584   2.808   8.550
 4966POPC   D2A23680  20.598   2.808   8.250
 4966POPC   C3A23681  20.654   2.798   7.950
 4966POPC   C4A23682  20.595   2.799   7.650
 4966POPC   C1B23683  20.820   2.571   8.550
 4966POPC   C2B23684  20.769   2.603   8.250
 4966POPC   C3B23685  20.755   2.558   7.950
 4966POPC   C4B23686  20.767   2.584   7.650
 4967POPC   NC323687   6.603  44.615   9.450
 4967POPC   PO423688   6.612  44.615   9.150
 4967POPC   GL123689   6.685  44.636   8.850
 4967POPC   GL223690   6.736  44.748   8.850
 4967POPC   C1A23691   6.648  44.637   8.550
 4967POPC   D2A23692   6.677  44.670   8.250
 4967POPC   C3A23693   6.623  44.690   7.950
 4967POPC   C4A23694   6.669  44.614   7.650
 4967POPC   C1B23695   6.870  44.778   8.550
 4967POPC   C2B23696   6.873  44.854   8.250
 4967POPC   C3B23697   6.850  44.813   7.950
 4967POPC   C4B23698   6.875  44.789   7.650
 4968POPC   NC323699  23.698   6.614   9.450
 4968POPC   PO423700  23.706   6.627   9.150
 4968POPC   GL123701  23.664   6.665   8.850
 4968POPC   GL223702  23.859   6.560   8.850
 4968POPC   C1A23703  23.698   6.646   8.550
 4968POPC   D2A23704  23.665   6.678   8.250
 4968POPC   C3A23705  23.687   6.597   7.950
 4968POPC   C4A23706  23.674   6.633   7.650
 4968POPC   C1B23707  23.939   6.473   8.550
 4968POPC   C2B23708  23.936   6.484   8.250
 4968POPC   C3B23709  23.933   6.514   7.950
 4968POPC   C4B23710  23.916   6.492   7.650
 4969POPC   NC323711  44.689  15.906   9.450
 4969POPC   PO423712  44.699  15.994   9.150
 4969POPC   GL123713  44.618  15.918   8.850
 4969POPC   GL223714  44.637  15.844   8.850
 4969POPC   C1A23715  44.694  15.979   8.550
 4969POPC   D2A23716  44.666  15.932   8.250
 4969POPC   C3A23717  44.618  15.993   7.950
 4969POPC   C4A23718  44.626  15.985   7.650
 4969POPC   C1B23719  44.657  15.745   8.550
 4969POPC   C2B23720  44.675  15.703   8.250
 4969POPC   C3B23721  44.669  15.703   7.950
 4969POPC   C4B23722  44.601  15.719   7.650
 4970POPC   NC323723  10.479   4.304   9.450
 4970POPC   PO423724  10.479   4.311   9.150
 4970POPC   GL123725  10.494   4.271   8.850
 4970POPC   GL223726  10.543   4.390   8.850
 4970POPC   C1A23727  10.526   4.275   8.550
 4970POPC   D2A23728  10.518   4.302   8.250
 4970POPC   C3A23729  10.567   4.326   7.950
 4970POPC   C4A23730  10.515   4.350   7.650
 4970POPC   C1B23731  10.586   4.506   8.550
 4970POPC   C2B23732  10.610   4.553   8.250
 4970POPC   C3B23733  10.665   4.501   7.950
 4970POPC   C4B23734  10.625   4.585   7.650
 4971POPC   NC323735  38.465   7.442   9.450
 4971POPC   PO423736  38.427   7.443   9.150
 4971POPC   GL123737  38.432   7.443   8.850
 4971POPC   GL223738  38.604   7.445   8.850
 4971POPC   C1A23739  38.482   7.432   8.550
 4971POPC   D2A23740  38.418   7.449   8.250
 4971POPC   C3A23741  38.481   7.371   7.950
 4971POPC   C4A23742  38.447   7.462   7.650
 4971POPC   C1B23743  38.707   7.456   8.550
 4971POPC   C2B23744  38.712   7.387   8.250
 4971POPC   C3B23745  38.708   7.391   7.950
 4971POPC   C4B23746  38.705   7.445   7.650
 4972POPC   NC323747  17.467  10.566   9.450
 4972POPC   PO423748  17.541  10.554   9.150
 4972POPC   GL123749  17.481  10.503   8.850
 4972POPC   GL223750  17.646  10.476   8.850
 4972POPC   C1A23751  17.531  10.478   8.550
 4972POPC   D2A23752  17.541  10.485   8.250
 4972POPC   C3A23753  17.535  10.511   7.950
 4972POPC   C4A23754  17.493  10.538   7.650
 4972POPC   C1B23755  17.722  10.353   8.550
 4972POPC   C2B23756  17.693  10.405   8.250
 4972POPC   C3B23757  17.683  10.379   7.950
 4972POPC   C4B23758  17.695  10.362   7.650
 4973POPC   NC323759  25.221  29.132   9.450
 4973POPC   PO423760  25.258  29.103   9.150
 4973POPC   GL123761  25.292  29.171   8.850
 4973POPC   GL223762  25.124  29.211   8.850
 4973POPC   C1A23763  25.294  29.154   8.550
 4973POPC   D2A23764  25.262  29.125   8.250
 4973POPC   C3A23765  25.254  29.179   7.950
 4973POPC   C4A23766  25.301  29.156   7.650
 4973POPC   C1B23767  25.054  29.288   8.550
 4973POPC   C2B23768  25.061  29.279   8.250
 4973POPC   C3B23769  25.088  29.227   7.950
 4973POPC   C4B23770  25.040  29.249   7.650
 4974POPC   NC323771   8.972  38.503   9.450
 4974POPC   PO423772   8.937  38.476   9.150
 4974POPC   GL123773   8.991  38.457   8.850
 4974POPC   GL223774   8.943  38.617   8.850
 4974POPC   C1A23775   8.986  38.443   8.550
 4974POPC   D2A23776   8.994  38.422   8.250
 4974POPC   C3A23777   8.999  38.441   7.950
 4974POPC   C4A23778   9.008  38.446   7.650
 4974POPC   C1B23779   8.956  38.657   8.550
 4974POPC   C2B23780   8.899  38.677   8.250
 4974POPC   C3B23781   8.940  38.723   7.950
 4974POPC   C4B23782   8.971  38.702   7.650
 4975POPC   NC323783  31.431  33.752   9.450
 4975POPC   PO423784  31.432  33.774   9.150
 4975POPC   GL123785  31.507  33.835   8.850
 4975POPC   GL223786  31.599  33.835   8.850
 4975POPC   C1A23787  31.478  33.837   8.550
 4975POPC   D2A23788  31.442  33.816   8.250
 4975POPC   C3A23789  31.497  33.806   7.950
 4975POPC   C4A23790  31.470  33.785   7.650
 4975POPC   C1B23791  31.739  33.879   8.550
 4975POPC   C2B23792  31.761  33.831   8.250
 4975POPC   C3B23793  31.691  33.894   7.950
 4975POPC   C4B23794  31.689  33.880   7.650
 4976POPC   NC323795  31.484   3.570   9.450
 4976POPC   PO423796  31.504   3.551   9.150
 4976POPC   GL123797  31.434   3.513   8.850
 4976POPC   GL223798  31.564   3.458   8.850
 4976POPC   C1A23799  31.477   3.585   8.550
 4976POPC   D2A23800  31.470   3.531   8.250
 4976POPC   C3A23801  31.521   3.555   7.950
 4976POPC   C4A23802  31.439   3.517   7.650
 4976POPC   C1B23803  31.619   3.367   8.550
 4976POPC   C2B23804  31.607   3.307   8.250
 4976POPC   C3B23805  31.642   3.339   7.950
 4976POPC   C4B23806  31.675   3.378   7.650
 4977POPC   NC323807  26.769  29.186   9.450
 4977POPC   PO423808  26.816  29.100   9.150
 4977POPC   GL123809  26.856  29.177   8.850
 4977POPC   GL223810  26.693  29.033   8.850
 4977POPC   C1A23811  26.803  29.122   8.550
 4977POPC   D2A23812  26.862  29.154   8.250
 4977POPC   C3A23813  26.774  29.096   7.950
 4977POPC   C4A23814  26.772  29.145   7.650
 4977POPC   C1B23815  26.630  28.972   8.550
 4977POPC   C2B23816  26.611  28.953   8.250
 4977POPC   C3B23817  26.662  28.911   7.950
 4977POPC   C4B23818  26.632  28.927   7.650
 4978POPC   NC323819  16.775  35.330   9.450
 4978POPC   PO423820  16.734  35.357   9.150
 4978POPC   GL123821  16.689  35.363   8.850
 4978POPC   GL223822  16.757  35.464   8.850
 4978POPC   C1A23823  16.780  35.323   8.550
 4978POPC   D2A23824  16.770  35.342   8.250
 4978POPC   C3A23825  16.689  35.384   7.950
 4978POPC   C4A23826  16.769  35.389   7.650
 4978POPC   C1B23827  16.721  35.582   8.550
 4978POPC   C2B23828  16.790  35.568   8.250
 4978POPC   C3B23829  16.728  35.565   7.950
 4978POPC   C4B23830  16.800  35.577   7.650
 4979POPC   NC323831  27.626   2.719   9.450
 4979POPC   PO423832  27.616   2.749   9.150
 4979POPC   GL123833  27.571   2.775   8.850
 4979POPC   GL223834  27.689   2.823   8.850
 4979POPC   C1A23835  27.601   2.791   8.550
 4979POPC   D2A23836  27.604   2.815   8.250
 4979POPC   C3A23837  27.544   2.732   7.950
 4979POPC   C4A23838  27.588   2.799   7.650
 4979POPC   C1B23839  27.838   2.881   8.550
 4979POPC   C2B23840  27.796   2.838   8.250
 4979POPC   C3B23841  27.863   2.860   7.950
 4979POPC   C4B23842  27.773   2.879   7.650
 4980POPC   NC323843  13.668   4.304   9.450
 4980POPC   PO423844  13.636   4.313   9.150
 4980POPC   GL123845  13.607   4.367   8.850
 4980POPC   GL223846  13.718   4.412   8.850
 4980POPC   C1A23847  13.647   4.349   8.550
 4980POPC   D2A23848  13.600   4.304   8.250
 4980POPC   C3A23849  13.634   4.288   7.950
 4980POPC   C4A23850  13.640   4.362   7.650
 4980POPC   C1B23851  13.733   4.530   8.550
 4980POPC   C2B23852  13.753   4.543   8.250
 4980POPC   C3B23853  13.730   4.538   7.950
 4980POPC   C4B23854  13.704   4.575   7.650
 4981POPC   NC323855  19.785  32.985   9.450
 4981POPC   PO423856  19.785  33.057   9.150
 4981POPC   GL123857  19.854  33.034   8.850
 4981POPC   GL223858  19.891  32.891   8.850
 4981POPC   C1A23859  19.823  33.034   8.550
 4981POPC   D2A23860  19.875  33.058   8.250
 4981POPC   C3A23861  19.848  32.980   7.950
 4981POPC   C4A23862  19.867  32.990   7.650
 4981POPC   C1B23863  20.031  32.837   8.550
 4981POPC   C2B23864  19.982  32.869   8.250
 4981POPC   C3B23865  19.991  32.846   7.950
 4981POPC   C4B23866  20.033  32.804   7.650
 4982POPC   NC323867  41.564  24.484   9.450
 4982POPC   PO423868  41.604  24.463   9.150
 4982POPC   GL123869  41.568  24.534   8.850
 4982POPC   GL223870  41.625  24.367   8.850
 4982POPC   C1A23871  41.588  24.489   8.550
 4982POPC   D2A23872  41.514  24.487   8.250
 4982POPC   C3A23873  41.581  24.517   7.950
 4982POPC   C4A23874  41.575  24.448   7.650
 4982POPC   C1B23875  41.684  24.332   8.550
 4982POPC   C2B23876  41.697  24.333   8.250
 4982POPC   C3B23877  41.729  24.333   7.950
 4982POPC   C4B23878  41.732  24.307   7.650
 4983POPC   NC323879  15.216   3.560   9.450
 4983POPC   PO423880  15.186   3.588   9.150
 4983POPC   GL123881  15.141   3.507   8.850
 4983POPC   GL223882  15.091   3.546   8.850
 4983POPC   C1A23883  15.202   3.556   8.550
 4983POPC   D2A23884  15.187   3.565   8.250
 4983POPC   C3A23885  15.169   3.493   7.950
 4983POPC   C4A23886  15.182   3.526   7.650
 4983POPC   C1B23887  14.938   3.525   8.550
 4983POPC   C2B23888  14.968   3.574   8.250
 4983POPC   C3B23889  14.881   3.574   7.950
 4983POPC   C4B23890  14.975   3.535   7.650
 4984POPC   NC323891  43.078  20.590   9.450
 4984POPC   PO423892  43.102  20.637   9.150
 4984POPC   GL123893  43.061  20.577   8.850
 4984POPC   GL223894  43.082  20.688   8.850
 4984POPC   C1A23895  43.087  20.647   8.550
 4984POPC   D2A23896  43.112  20.635   8.250
 4984POPC   C3A23897  43.088  20.660   7.950
 4984POPC   C4A23898  43.064  20.599   7.650
 4984POPC   C1B23899  43.133  20.879   8.550
 4984POPC   C2B23900  43.089  20.905   8.250
 4984POPC   C3B23901  43.110  20.823   7.950
 4984POPC   C4B23902  43.065  20.813   7.650
 4985POPC   NC323903  26.773  18.309   9.450
 4985POPC   PO423904  26.773  18.269   9.150
 4985POPC   GL123905  26.796  18.300   8.850
 4985POPC   GL223906  26.843  18.357   8.850
 4985POPC   C1A23907  26.840  18.284   8.550
 4985POPC   D2A23908  26.809  18.287   8.250
 4985POPC   C3A23909  26.851  18.282   7.950
 4985POPC   C4A23910  26.844  18.275   7.650
 4985POPC   C1B23911  26.781  18.483   8.550
 4985POPC   C2B23912  26.817  18.503   8.250
 4985POPC   C3B23913  26.792  18.557   7.950
 4985POPC   C4B23914  26.813  18.529   7.650
 4986POPC   NC323915  14.378  31.492   9.450
 4986POPC   PO423916  14.388  31.455   9.150
 4986POPC   GL123917  14.392  31.434   8.850
 4986POPC   GL223918  14.403  31.386   8.850
 4986POPC   C1A23919  14.448  31.427   8.550
 4986POPC   D2A23920  14.363  31.464   8.250
 4986POPC   C3A23921  14.360  31.520   7.950
 4986POPC   C4A23922  14.414  31.436   7.650
 4986POPC   C1B23923  14.351  31.279   8.550
 4986POPC   C2B23924  14.363  31.222   8.250
 4986POPC   C3B23925  14.321  31.280   7.950
 4986POPC   C4B23926  14.343  31.206   7.650
 4987POPC   NC323927  22.931   6.683   9.450
 4987POPC   PO423928  22.962   6.600   9.150
 4987POPC   GL123929  22.987   6.624   8.850
 4987POPC   GL223930  22.981   6.541   8.850
 4987POPC   C1A23931  22.917   6.596   8.550
 4987POPC   D2A23932  22.912   6.626   8.250
 4987POPC   C3A23933  22.897   6.667   7.950
 4987POPC   C4A23934  22.918   6.664   7.650
 4987POPC   C1B23935  22.985   6.375   8.550
 4987POPC   C2B23936  22.907   6.436   8.250
 4987POPC   C3B23937  22.975   6.352   7.950
 4987POPC   C4B23938  22.967   6.406   7.650
 4988POPC   NC323939   9.015  40.038   9.450
 4988POPC   PO423940   8.960  40.042   9.150
 4988POPC   GL123941   8.940  39.986   8.850
 4988POPC   GL223942   8.974  39.877   8.850
 4988POPC   C1A23943   8.991  39.965   8.550
 4988POPC   D2A23944   8.947  40.026   8.250
 4988POPC   C3A23945   8.991  40.043   7.950
 4988POPC   C4A23946   9.009  40.049   7.650
 4988POPC   C1B23947   8.907  39.758   8.550
 4988POPC   C2B23948   8.933  39.779   8.250
 4988POPC   C3B23949   8.882  39.714   7.950
 4988POPC   C4B23950   8.905  39.779   7.650
 4989POPC   NC323951  39.262  25.273   9.450
 4989POPC   PO423952  39.227  25.295   9.150
 4989POPC   GL123953  39.207  25.235   8.850
 4989POPC   GL223954  39.352  25.327   8.850
 4989POPC   C1A23955  39.187  25.237   8.550
 4989POPC   D2A23956  39.270  25.255   8.250
 4989POPC   C3A23957  39.186  25.305   7.950
 4989POPC   C4A23958  39.260  25.287   7.650
 4989POPC   C1B23959  39.377  25.463   8.550
 4989POPC   C2B23960  39.402  25.434   8.250
 4989POPC   C3B23961  39.455  25.451   7.950
 4989POPC   C4B23962  39.436  25.383   7.650
 4990POPC   NC323963  10.543  19.070   9.450
 4990POPC   PO423964  10.516  19.016   9.150
 4990POPC   GL123965  10.548  19.057   8.850
 4990POPC   GL223966  10.566  19.147   8.850
 4990POPC   C1A23967  10.555  19.093   8.550
 4990POPC   D2A23968  10.513  19.025   8.250
 4990POPC   C3A23969  10.496  19.023   7.950
 4990POPC   C4A23970  10.480  19.030   7.650
 4990POPC   C1B23971  10.630  19.252   8.550
 4990POPC   C2B23972  10.610  19.246   8.250
 4990POPC   C3B23973  10.599  19.237   7.950
 4990POPC   C4B23974  10.594  19.271   7.650
 4991POPC   NC323975  22.976  32.262   9.450
 4991POPC   PO423976  22.963  32.281   9.150
 4991POPC   GL123977  22.987  32.218   8.850
 4991POPC   GL223978  22.865  32.125   8.850
 4991POPC   C1A23979  22.929  32.278   8.550
 4991POPC   D2A23980  22.895  32.246   8.250
 4991POPC   C3A23981  22.986  32.290   7.950
 4991POPC   C4A23982  22.906  32.222   7.650
 4991POPC   C1B23983  22.719  32.137   8.550
 4991POPC   C2B23984  22.757  32.065   8.250
 4991POPC   C3B23985  22.738  32.147   7.950
 4991POPC   C4B23986  22.734  32.132   7.650
 4992POPC   NC323987   7.410  36.080   9.450
 4992POPC   PO423988   7.393  36.092   9.150
 4992POPC   GL123989   7.433  36.091   8.850
 4992POPC   GL223990   7.441  36.222   8.850
 4992POPC   C1A23991   7.372  36.148   8.550
 4992POPC   D2A23992   7.434  36.078   8.250
 4992POPC   C3A23993   7.379  36.171   7.950
 4992POPC   C4A23994   7.446  36.121   7.650
 4992POPC   C1B23995   7.418  36.384   8.550
 4992POPC   C2B23996   7.447  36.403   8.250
 4992POPC   C3B23997   7.425  36.416   7.950
 4992POPC   C4B23998   7.419  36.383   7.650
 4993POPC   NC323999  43.108  21.429   9.450
 4993POPC   PO424000  43.070  21.383   9.150
 4993POPC   GL124001  43.129  21.379   8.850
 4993POPC   GL224002  43.275  21.325   8.850
 4993POPC   C1A24003  43.090  21.337   8.550
 4993POPC   D2A24004  43.072  21.392   8.250
 4993POPC   C3A24005  43.139  21.375   7.950
 4993POPC   C4A24006  43.142  21.417   7.650
 4993POPC   C1B24007  43.377  21.390   8.550
 4993POPC   C2B24008  43.346  21.311   8.250
 4993POPC   C3B24009  43.312  21.391   7.950
 4993POPC   C4B24010  43.357  21.354   7.650
 4994POPC   NC324011  10.539  22.201   9.450
 4994POPC   PO424012  10.525  22.196   9.150
 4994POPC   GL124013  10.565  22.180   8.850
 4994POPC   GL224014  10.590  22.104   8.850
 4994POPC   C1A24015  10.496  22.148   8.550
 4994POPC   D2A24016  10.479  22.212   8.250
 4994POPC   C3A24017  10.481  22.204   7.950
 4994POPC   C4A24018  10.513  22.189   7.650
 4994POPC   C1B24019  10.692  21.992   8.550
 4994POPC   C2B24020  10.707  21.928   8.250
 4994POPC   C3B24021  10.643  21.935   7.950
 4994POPC   C4B24022  10.694  21.934   7.650
 4995POPC   NC324023  13.618  19.045   9.450
 4995POPC   PO424024  13.665  19.016   9.150
 4995POPC   GL124025  13.675  19.077   8.850
 4995POPC   GL224026  13.674  19.117   8.850
 4995POPC   C1A24027  13.660  19.070   8.550
 4995POPC   D2A24028  13.587  19.017   8.250
 4995POPC   C3A24029  13.584  19.048   7.950
 4995POPC   C4A24030  13.673  19.054   7.650
 4995POPC   C1B24031  13.775  19.271   8.550
 4995POPC   C2B24032  13.793  19.283   8.250
 4995POPC   C3B24033  13.758  19.280   7.950
 4995POPC   C4B24034  13.789  19.277   7.650
 4996POPC   NC324035  20.583  15.986   9.450
 4996POPC   PO424036  20.621  15.992   9.150
 4996POPC   GL124037  20.645  15.922   8.850
 4996POPC   GL224038  20.462  15.878   8.850
 4996POPC   C1A24039  20.589  15.934   8.550
 4996POPC   D2A24040  20.619  15.907   8.250
 4996POPC   C3A24041  20.638  15.926   7.950
 4996POPC   C4A24042  20.585  16.003   7.650
 4996POPC   C1B24043  20.406  15.870   8.550
 4996POPC   C2B24044  20.411  15.861   8.250
 4996POPC   C3B24045  20.393  15.835   7.950
 4996POPC   C4B24046  20.383  15.877   7.650
 4997POPC   NC324047   2.034  25.222   9.450
 4997POPC   PO424048   2.032  25.305   9.150
 4997POPC   GL124049   2.014  25.220   8.850
 4997POPC   GL224050   2.079  25.354   8.850
 4997POPC   C1A24051   1.976  25.248   8.550
 4997POPC   D2A24052   1.976  25.223   8.250
 4997POPC   C3A24053   2.027  25.312   7.950
 4997POPC   C4A24054   2.014  25.307   7.650
 4997POPC   C1B24055   2.174  25.358   8.550
 4997POPC   C2B24056   2.190  25.386   8.250
 4997POPC   C3B24057   2.180  25.420   7.950
 4997POPC   C4B24058   2.195  25.339   7.650
 4998POPC   NC324059  30.650  28.356   9.450
 4998POPC   PO424060  30.716  28.327   9.150
 4998POPC   GL124061  30.661  28.341   8.850
 4998POPC   GL224062  30.612  28.267   8.850
 4998POPC   C1A24063  30.707  28.320   8.550
 4998POPC   D2A24064  30.739  28.321   8.250
 4998POPC   C3A24065  30.714  28.407   7.950
 4998POPC   C4A24066  30.701  28.383   7.650
 4998POPC   C1B24067  30.641  28.182   8.550
 4998POPC   C2B24068  30.642  28.115   8.250
 4998POPC   C3B24069  30.570  28.142   7.950
 4998POPC   C4B24070  30.589  28.104   7.650
 4999POPC   NC324071   9.741  32.232   9.450
 4999POPC   PO424072   9.709  32.289   9.150
 4999POPC   GL124073   9.762  32.297   8.850
 4999POPC   GL224074   9.890  32.269   8.850
 4999POPC   C1A24075   9.770  32.277   8.550
 4999POPC   D2A24076   9.766  32.254   8.250
 4999POPC   C3A24077   9.769  32.230   7.950
 4999POPC   C4A24078   9.787  32.291   7.650
 4999POPC   C1B24079   9.950  32.281   8.550
 4999POPC   C2B24080  10.006  32.206   8.250
 4999POPC   C3B24081  10.037  32.211   7.950
 4999POPC   C4B24082  10.014  32.196   7.650
 5000POPC   NC324083   5.866  21.382   9.450
 5000POPC   PO424084   5.903  21.395   9.150
 5000POPC   GL124085   5.903  21.431   8.850
 5000POPC   GL224086   5.827  21.520   8.850
 5000POPC   C1A24087   5.835  21.394   8.550
 5000POPC   D2A24088   5.867  21.372   8.250
 5000POPC   C3A24089   5.897  21.369   7.950
 5000POPC   C4A24090   5.899  21.430   7.650
 5000POPC   C1B24091   5.783  21.593   8.550
 5000POPC   C2B24092   5.747  21.572   8.250
 5000POPC   C3B24093   5.765  21.634   7.950
 5000POPC   C4B24094   5.782  21.586   7.650
 5001POPC   NC324095  43.860  33.013   9.450
 5001POPC   PO424096  43.854  33.008   9.150
 5001POPC   GL124097  43.865  33.067   8.850
 5001POPC   GL224098  43.755  33.047   8.850
 5001POPC   C1A24099  43.866  33.053   8.550
 5001POPC   D2A24100  43.870  32.982   8.250
 5001POPC   C3A24101  43.890  33.005   7.950
 5001POPC   C4A24102  43.916  33.062   7.650
 5001POPC   C1B24103  43.656  33.045   8.550
 5001POPC   C2B24104  43.637  33.063   8.250
 5001POPC   C3B24105  43.629  32.990   7.950
 5001POPC   C4B24106  43.657  33.081   7.650
 5002POPC   NC324107   3.558   5.908   9.450
 5002POPC   PO424108   3.563   5.918   9.150
 5002POPC   GL124109   3.521   5.873   8.850
 5002POPC   GL224110   3.637   5.790   8.850
 5002POPC   C1A24111   3.560   5.845   8.550
 5002POPC   D2A24112   3.568   5.837   8.250
 5002POPC   C3A24113   3.544   5.892   7.950
 5002POPC   C4A24114   3.578   5.859   7.650
 5002POPC   C1B24115   3.742   5.815   8.550
 5002POPC   C2B24116   3.828   5.799   8.250
 5002POPC   C3B24117   3.818   5.772   7.950
 5002POPC   C4B24118   3.781   5.775   7.650
 5003POPC   NC324119  31.455  20.588   9.450
 5003POPC   PO424120  31.513  20.601   9.150
 5003POPC   GL124121  31.515  20.591   8.850
 5003POPC   GL224122  31.508  20.753   8.850
 5003POPC   C1A24123  31.473  20.615   8.550
 5003POPC   D2A24124  31.496  20.645   8.250
 5003POPC   C3A24125  31.510  20.647   7.950
 5003POPC   C4A24126  31.449  20.650   7.650
 5003POPC   C1B24127  31.620  20.835   8.550
 5003POPC   C2B24128  31.533  20.862   8.250
 5003POPC   C3B24129  31.550  20.834   7.950
 5003POPC   C4B24130  31.614  20.812   7.650
 5004POPC   NC324131  34.588  10.513   9.450
 5004POPC   PO424132  34.575  10.536   9.150
 5004POPC   GL124133  34.542  10.491   8.850
 5004POPC   GL224134  34.584  10.669   8.850
 5004POPC   C1A24135  34.601  10.475   8.550
 5004POPC   D2A24136  34.580  10.501   8.250
 5004POPC   C3A24137  34.609  10.570   7.950
 5004POPC   C4A24138  34.582  10.569   7.650
 5004POPC   C1B24139  34.522  10.755   8.550
 5004POPC   C2B24140  34.526  10.734   8.250
 5004POPC   C3B24141  34.509  10.728   7.950
 5004POPC   C4B24142  34.487  10.725   7.650
 5005POPC   NC324143  42.355   9.719   9.450
 5005POPC   PO424144  42.332   9.787   9.150
 5005POPC   GL124145  42.340   9.782   8.850
 5005POPC   GL224146  42.462   9.847   8.850
 5005POPC   C1A24147  42.301   9.750   8.550
 5005POPC   D2A24148  42.338   9.745   8.250
 5005POPC   C3A24149  42.330   9.772   7.950
 5005POPC   C4A24150  42.292   9.723   7.650
 5005POPC   C1B24151  42.504   9.883   8.550
 5005POPC   C2B24152  42.491   9.903   8.250
 5005POPC   C3B24153  42.480   9.862   7.950
 5005POPC   C4B24154  42.570   9.931   7.650
 5006POPC   NC324155  15.966   5.871   9.450
 5006POPC   PO424156  15.936   5.852   9.150
 5006POPC   GL124157  15.931   5.864   8.850
 5006POPC   GL224158  15.926   5.733   8.850
 5006POPC   C1A24159  15.974   5.849   8.550
 5006POPC   D2A24160  15.987   5.888   8.250
 5006POPC   C3A24161  15.928   5.845   7.950
 5006POPC   C4A24162  15.946   5.866   7.650
 5006POPC   C1B24163  15.975   5.650   8.550
 5006POPC   C2B24164  16.020   5.656   8.250
 5006POPC   C3B24165  15.947   5.623   7.950
 5006POPC   C4B24166  15.971   5.606   7.650
 5007POPC   NC324167  40.042  44.705   9.450
 5007POPC   PO424168  40.005  44.671   9.150
 5007POPC   GL124169  40.005  44.668   8.850
 5007POPC   GL224170  40.172  44.676   8.850
 5007POPC   C1A24171  40.030  44.695   8.550
 5007POPC   D2A24172  40.033  44.656   8.250
 5007POPC   C3A24173  39.988  44.673   7.950
 5007POPC   C4A24174  40.029  44.642   7.650
 5007POPC   C1B24175  40.206  44.737   8.550
 5007POPC   C2B24176  40.251  44.736   8.250
 5007POPC   C3B24177  40.247  44.667   7.950
 5007POPC   C4B24178  40.222  44.752   7.650
 5008POPC   NC324179  16.746   4.359   9.450
 5008POPC   PO424180  16.707   4.365   9.150
 5008POPC   GL124181  16.696   4.327   8.850
 5008POPC   GL224182  16.820   4.234   8.850
 5008POPC   C1A24183  16.726   4.281   8.550
 5008POPC   D2A24184  16.779   4.306   8.250
 5008POPC   C3A24185  16.719   4.304   7.950
 5008POPC   C4A24186  16.715   4.356   7.650
 5008POPC   C1B24187  16.825   4.058   8.550
 5008POPC   C2B24188  16.838   4.081   8.250
 5008POPC   C3B24189  16.812   4.077   7.950
 5008POPC   C4B24190  16.833   4.144   7.650
 5009POPC   NC324191  37.651  43.850   9.450
 5009POPC   PO424192  37.670  43.905   9.150
 5009POPC   GL124193  37.687  43.862   8.850
 5009POPC   GL224194  37.693  43.722   8.850
 5009POPC   C1A24195  37.670  43.871   8.550
 5009POPC   D2A24196  37.725  43.895   8.250
 5009POPC   C3A24197  37.722  43.865   7.950
 5009POPC   C4A24198  37.706  43.870   7.650
 5009POPC   C1B24199  37.741  43.602   8.550
 5009POPC   C2B24200  37.646  43.675   8.250
 5009POPC   C3B24201  37.687  43.642   7.950
 5009POPC   C4B24202  37.644  43.636   7.650
 5010POPC   NC324203  12.886  33.802   9.450
 5010POPC   PO424204  12.859  33.800   9.150
 5010POPC   GL124205  12.821  33.774   8.850
 5010POPC   GL224206  12.743  33.736   8.850
 5010POPC   C1A24207  12.883  33.753   8.550
 5010POPC   D2A24208  12.871  33.767   8.250
 5010POPC   C3A24209  12.851  33.811   7.950
 5010POPC   C4A24210  12.876  33.807   7.650
 5010POPC   C1B24211  12.587  33.699   8.550
 5010POPC   C2B24212  12.626  33.714   8.250
 5010POPC   C3B24213  12.603  33.697   7.950
 5010POPC   C4B24214  12.639  33.705   7.650
 5011POPC   NC324215   2.802  11.272   9.450
 5011POPC   PO424216   2.736  11.286   9.150
 5011POPC   GL124217   2.771  11.298   8.850
 5011POPC   GL224218   2.717  11.425   8.850
 5011POPC   C1A24219   2.768  11.326   8.550
 5011POPC   D2A24220   2.767  11.298   8.250
 5011POPC   C3A24221   2.793  11.311   7.950
 5011POPC   C4A24222   2.793  11.336   7.650
 5011POPC   C1B24223   2.588  11.546   8.550
 5011POPC   C2B24224   2.630  11.501   8.250
 5011POPC   C3B24225   2.667  11.471   7.950
 5011POPC   C4B24226   2.604  11.512   7.650
 5012POPC   NC324227  22.141  33.022   9.450
 5012POPC   PO424228  22.145  33.004   9.150
 5012POPC   GL124229  22.133  33.061   8.850
 5012POPC   GL224230  22.288  33.104   8.850
 5012POPC   C1A24231  22.173  33.032   8.550
 5012POPC   D2A24232  22.163  33.023   8.250
 5012POPC   C3A24233  22.161  33.065   7.950
 5012POPC   C4A24234  22.179  32.993   7.650
 5012POPC   C1B24235  22.328  33.206   8.550
 5012POPC   C2B24236  22.334  33.176   8.250
 5012POPC   C3B24237  22.367  33.224   7.950
 5012POPC   C4B24238  22.312  33.237   7.650
 5013POPC   NC324239  30.676  33.754   9.450
 5013POPC   PO424240  30.731  33.770   9.150
 5013POPC   GL124241  30.700  33.804   8.850
 5013POPC   GL224242  30.663  33.650   8.850
 5013POPC   C1A24243  30.672  33.765   8.550
 5013POPC   D2A24244  30.671  33.802   8.250
 5013POPC   C3A24245  30.730  33.837   7.950
 5013POPC   C4A24246  30.743  33.793   7.650
 5013POPC   C1B24247  30.560  33.521   8.550
 5013POPC   C2B24248  30.595  33.598   8.250
 5013POPC   C3B24249  30.565  33.574   7.950
 5013POPC   C4B24250  30.591  33.596   7.650
 5014POPC   NC324251  23.711   3.536   9.450
 5014POPC   PO424252  23.763   3.498   9.150
 5014POPC   GL124253  23.666   3.497   8.850
 5014POPC   GL224254  23.879   3.521   8.850
 5014POPC   C1A24255  23.748   3.529   8.550
 5014POPC   D2A24256  23.723   3.503   8.250
 5014POPC   C3A24257  23.677   3.522   7.950
 5014POPC   C4A24258  23.694   3.547   7.650
 5014POPC   C1B24259  23.978   3.556   8.550
 5014POPC   C2B24260  24.006   3.555   8.250
 5014POPC   C3B24261  23.971   3.543   7.950
 5014POPC   C4B24262  23.962   3.554   7.650
 5015POPC   NC324263  20.612   5.875   9.450
 5015POPC   PO424264  20.623   5.885   9.150
 5015POPC   GL124265  20.641   5.918   8.850
 5015POPC   GL224266  20.768   5.886   8.850
 5015POPC   C1A24267  20.638   5.858   8.550
 5015POPC   D2A24268  20.568   5.918   8.250
 5015POPC   C3A24269  20.658   5.910   7.950
 5015POPC   C4A24270  20.605   5.884   7.650
 5015POPC   C1B24271  20.869   5.811   8.550
 5015POPC   C2B24272  20.815   5.869   8.250
 5015POPC   C3B24273  20.809   5.795   7.950
 5015POPC   C4B24274  20.844   5.796   7.650
 5016POPC   NC324275  19.077  44.687   9.450
 5016POPC   PO424276  19.052  44.697   9.150
 5016POPC   GL124277  19.024  44.627   8.850
 5016POPC   GL224278  18.936  44.710   8.850
 5016POPC   C1A24279  19.107  44.709   8.550
 5016POPC   D2A24280  19.069  44.633   8.250
 5016POPC   C3A24281  19.030  44.642   7.950
 5016POPC   C4A24282  19.080  44.696   7.650
 5016POPC   C1B24283  18.785  44.780   8.550
 5016POPC   C2B24284  18.857  44.761   8.250
 5016POPC   C3B24285  18.828  44.708   7.950
 5016POPC   C4B24286  18.834  44.781   7.650
 5017POPC   NC324287  40.819  11.254   9.450
 5017POPC   PO424288  40.826  11.253   9.150
 5017POPC   GL124289  40.796  11.338   8.850
 5017POPC   GL224290  40.705  11.228   8.850
 5017POPC   C1A24291  40.810  11.336   8.550
 5017POPC   D2A24292  40.792  11.267   8.250
 5017POPC   C3A24293  40.797  11.337   7.950
 5017POPC   C4A24294  40.739  11.333   7.650
 5017POPC   C1B24295  40.678  11.118   8.550
 5017POPC   C2B24296  40.646  11.117   8.250
 5017POPC   C3B24297  40.648  11.026   7.950
 5017POPC   C4B24298  40.691  11.121   7.650
 5018POPC   NC324299   0.445  12.031   9.450
 5018POPC   PO424300   0.428  12.038   9.150
 5018POPC   GL124301   0.437  12.098   8.850
 5018POPC   GL224302   0.368  12.008   8.850
 5018POPC   C1A24303   0.390  12.049   8.550
 5018POPC   D2A24304   0.421  12.112   8.250
 5018POPC   C3A24305   0.468  12.047   7.950
 5018POPC   C4A24306   0.404  12.038   7.650
 5018POPC   C1B24307   0.289  11.839   8.550
 5018POPC   C2B24308   0.347  11.900   8.250
 5018POPC   C3B24309   0.283  11.891   7.950
 5018POPC   C4B24310   0.327  11.815   7.650
 5019POPC   NC324311  16.691  12.122   9.450
 5019POPC   PO424312  16.760  12.032   9.150
 5019POPC   GL124313  16.770  12.061   8.850
 5019POPC   GL224314  16.748  12.192   8.850
 5019POPC   C1A24315  16.748  12.093   8.550
 5019POPC   D2A24316  16.694  12.054   8.250
 5019POPC   C3A24317  16.682  12.058   7.950
 5019POPC   C4A24318  16.733  12.032   7.650
 5019POPC   C1B24319  16.798  12.287   8.550
 5019POPC   C2B24320  16.811  12.312   8.250
 5019POPC   C3B24321  16.825  12.268   7.950
 5019POPC   C4B24322  16.763  12.334   7.650
 5020POPC   NC324323  34.585  22.148   9.450
 5020POPC   PO424324  34.577  22.128   9.150
 5020POPC   GL124325  34.581  22.186   8.850
 5020POPC   GL224326  34.716  22.197   8.850
 5020POPC   C1A24327  34.603  22.128   8.550
 5020POPC   D2A24328  34.551  22.136   8.250
 5020POPC   C3A24329  34.613  22.188   7.950
 5020POPC   C4A24330  34.617  22.147   7.650
 5020POPC   C1B24331  34.818  22.129   8.550
 5020POPC   C2B24332  34.798  22.191   8.250
 5020POPC   C3B24333  34.862  22.201   7.950
 5020POPC   C4B24334  34.844  22.159   7.650
 5021POPC   NC324335  26.861  19.809   9.450
 5021POPC   PO424336  26.857  19.789   9.150
 5021POPC   GL124337  26.859  19.819   8.850
 5021POPC   GL224338  26.765  19.703   8.850
 5021POPC   C1A24339  26.822  19.809   8.550
 5021POPC   D2A24340  26.825  19.878   8.250
 5021POPC   C3A24341  26.859  19.821   7.950
 5021POPC   C4A24342  26.826  19.804   7.650
 5021POPC   C1B24343  26.851  19.536   8.550
 5021POPC   C2B24344  26.792  19.595   8.250
 5021POPC   C3B24345  26.764  19.537   7.950
 5021POPC   C4B24346  26.789  19.567   7.650
 5022POPC   NC324347   9.001  36.923   9.450
 5022POPC   PO424348   8.947  36.904   9.150
 5022POPC   GL124349   8.968  36.909   8.850
 5022POPC   GL224350   8.867  36.880   8.850
 5022POPC   C1A24351   8.997  36.882   8.550
 5022POPC   D2A24352   8.949  36.917   8.250
 5022POPC   C3A24353   8.980  36.900   7.950
 5022POPC   C4A24354   9.015  36.933   7.650
 5022POPC   C1B24355   8.753  36.747   8.550
 5022POPC   C2B24356   8.746  36.761   8.250
 5022POPC   C3B24357   8.807  36.723   7.950
 5022POPC   C4B24358   8.748  36.756   7.650
 5023POPC   NC324359  40.792  36.886   9.450
 5023POPC   PO424360  40.833  36.887   9.150
 5023POPC   GL124361  40.798  36.855   8.850
 5023POPC   GL224362  40.675  36.865   8.850
 5023POPC   C1A24363  40.737  36.903   8.550
 5023POPC   D2A24364  40.755  36.906   8.250
 5023POPC   C3A24365  40.809  36.886   7.950
 5023POPC   C4A24366  40.746  36.949   7.650
 5023POPC   C1B24367  40.575  36.779   8.550
 5023POPC   C2B24368  40.615  36.791   8.250
 5023POPC   C3B24369  40.586  36.762   7.950
 5023POPC   C4B24370  40.594  36.708   7.650
 5024POPC   NC324371  34.609  15.953   9.450
 5024POPC   PO424372  34.539  15.989   9.150
 5024POPC   GL124373  34.528  15.961   8.850
 5024POPC   GL224374  34.485  15.935   8.850
 5024POPC   C1A24375  34.604  15.985   8.550
 5024POPC   D2A24376  34.587  15.908   8.250
 5024POPC   C3A24377  34.557  15.998   7.950
 5024POPC   C4A24378  34.530  15.996   7.650
 5024POPC   C1B24379  34.330  15.979   8.550
 5024POPC   C2B24380  34.363  15.980   8.250
 5024POPC   C3B24381  34.358  15.980   7.950
 5024POPC   C4B24382  34.360  15.902   7.650
 5025POPC   NC324383  13.650  33.070   9.450
 5025POPC   PO424384  13.601  33.047   9.150
 5025POPC   GL124385  13.641  32.994   8.850
 5025POPC   GL224386  13.601  33.138   8.850
 5025POPC   C1A24387  13.594  33.061   8.550
 5025POPC   D2A24388  13.587  32.992   8.250
 5025POPC   C3A24389  13.627  33.006   7.950
 5025POPC   C4A24390  13.619  33.050   7.650
 5025POPC   C1B24391  13.503  33.254   8.550
 5025POPC   C2B24392  13.586  33.244   8.250
 5025POPC   C3B24393  13.539  33.212   7.950
 5025POPC   C4B24394  13.542  33.231   7.650
 5026POPC   NC324395  42.317  43.151   9.450
 5026POPC   PO424396  42.302  43.112   9.150
 5026POPC   GL124397  42.342  43.099   8.850
 5026POPC   GL224398  42.225  43.057   8.850
 5026POPC   C1A24399  42.368  43.070   8.550
 5026POPC   D2A24400  42.302  43.092   8.250
 5026POPC   C3A24401  42.314  43.130   7.950
 5026POPC   C4A24402  42.363  43.074   7.650
 5026POPC   C1B24403  42.143  42.990   8.550
 5026POPC   C2B24404  42.056  42.987   8.250
 5026POPC   C3B24405  42.078  43.073   7.950
 5026POPC   C4B24406  42.115  43.081   7.650
 5027POPC   NC324407  44.705  21.409   9.450
 5027POPC   PO424408  44.629  21.412   9.150
 5027POPC   GL124409  44.678  21.401   8.850
 5027POPC   GL224410  44.625  21.245   8.850
 5027POPC   C1A24411  44.698  21.407   8.550
 5027POPC   D2A24412  44.680  21.388   8.250
 5027POPC   C3A24413  44.656  21.373   7.950
 5027POPC   C4A24414  44.679  21.406   7.650
 5027POPC   C1B24415  44.711  21.112   8.550
 5027POPC   C2B24416  44.682  21.110   8.250
 5027POPC   C3B24417  44.629  21.098   7.950
 5027POPC   C4B24418  44.726  21.100   7.650
 5028POPC   NC324419  11.295  15.221   9.450
 5028POPC   PO424420  11.320  15.164   9.150
 5028POPC   GL124421  11.284  15.201   8.850
 5028POPC   GL224422  11.194  15.132   8.850
 5028POPC   C1A24423  11.289  15.187   8.550
 5028POPC   D2A24424  11.335  15.221   8.250
 5028POPC   C3A24425  11.277  15.170   7.950
 5028POPC   C4A24426  11.289  15.182   7.650
 5028POPC   C1B24427  11.082  15.151   8.550
 5028POPC   C2B24428  11.082  15.206   8.250
 5028POPC   C3B24429  11.058  15.223   7.950
 5028POPC   C4B24430  11.088  15.194   7.650
 5029POPC   NC324431  13.583  31.465   9.450
 5029POPC   PO424432  13.590  31.455   9.150
 5029POPC   GL124433  13.666  31.507   8.850
 5029POPC   GL224434  13.504  31.335   8.850
 5029POPC   C1A24435  13.665  31.428   8.550
 5029POPC   D2A24436  13.588  31.443   8.250
 5029POPC   C3A24437  13.594  31.496   7.950
 5029POPC   C4A24438  13.651  31.429   7.650
 5029POPC   C1B24439  13.510  31.267   8.550
 5029POPC   C2B24440  13.428  31.299   8.250
 5029POPC   C3B24441  13.444  31.254   7.950
 5029POPC   C4B24442  13.502  31.290   7.650
 5030POPC   NC324443  29.135   5.827   9.450
 5030POPC   PO424444  29.116   5.820   9.150
 5030POPC   GL124445  29.168   5.900   8.850
 5030POPC   GL224446  29.017   5.743   8.850
 5030POPC   C1A24447  29.169   5.819   8.550
 5030POPC   D2A24448  29.191   5.892   8.250
 5030POPC   C3A24449  29.108   5.830   7.950
 5030POPC   C4A24450  29.163   5.819   7.650
 5030POPC   C1B24451  28.963   5.649   8.550
 5030POPC   C2B24452  28.964   5.720   8.250
 5030POPC   C3B24453  29.020   5.646   7.950
 5030POPC   C4B24454  28.946   5.652   7.650
 5031POPC   NC324455  33.038  32.254   9.450
 5031POPC   PO424456  33.004  32.256   9.150
 5031POPC   GL124457  33.028  32.284   8.850
 5031POPC   GL224458  33.127  32.218   8.850
 5031POPC   C1A24459  33.056  32.288   8.550
 5031POPC   D2A24460  33.012  32.266   8.250
 5031POPC   C3A24461  33.067  32.235   7.950
 5031POPC   C4A24462  33.042  32.247   7.650
 5031POPC   C1B24463  33.253  32.275   8.550
 5031POPC   C2B24464  33.253  32.321   8.250
 5031POPC   C3B24465  33.244  32.280   7.950
 5031POPC   C4B24466  33.298  32.325   7.650
 5032POPC   NC324467  28.366   1.257   9.450
 5032POPC   PO424468  28.359   1.191   9.150
 5032POPC   GL124469  28.328   1.185   8.850
 5032POPC   GL224470  28.332   1.152   8.850
 5032POPC   C1A24471  28.340   1.192   8.550
 5032POPC   D2A24472  28.391   1.220   8.250
 5032POPC   C3A24473  28.387   1.243   7.950
 5032POPC   C4A24474  28.361   1.197   7.650
 5032POPC   C1B24475  28.207   1.015   8.550
 5032POPC   C2B24476  28.262   1.045   8.250
 5032POPC   C3B24477  28.218   0.994   7.950
 5032POPC   C4B24478  28.190   1.024   7.650
 5033POPC   NC324479  28.356   8.192   9.450
 5033POPC   PO424480  28.363   8.178   9.150
 5033POPC   GL124481  28.368   8.169   8.850
 5033POPC   GL224482  28.255   8.205   8.850
 5033POPC   C1A24483  28.360   8.245   8.550
 5033POPC   D2A24484  28.389   8.193   8.250
 5033POPC   C3A24485  28.404   8.226   7.950
 5033POPC   C4A24486  28.339   8.184   7.650
 5033POPC   C1B24487  28.097   8.218   8.550
 5033POPC   C2B24488  28.116   8.254   8.250
 5033POPC   C3B24489  28.091   8.242   7.950
 5033POPC   C4B24490  28.099   8.309   7.650
 5034POPC   NC324491  31.430  32.273   9.450
 5034POPC   PO424492  31.490  32.246   9.150
 5034POPC   GL124493  31.468  32.297   8.850
 5034POPC   GL224494  31.476  32.149   8.850
 5034POPC   C1A24495  31.471  32.208   8.550
 5034POPC   D2A24496  31.480  32.295   8.250
 5034POPC   C3A24497  31.488  32.270   7.950
 5034POPC   C4A24498  31.521  32.297   7.650
 5034POPC   C1B24499  31.576  31.996   8.550
 5034POPC   C2B24500  31.590  32.064   8.250
 5034POPC   C3B24501  31.595  32.006   7.950
 5034POPC   C4B24502  31.549  32.019   7.650
 5035POPC   NC324503  12.869  18.323   9.450
 5035POPC   PO424504  12.894  18.290   9.150
 5035POPC   GL124505  12.836  18.251   8.850
 5035POPC   GL224506  12.894  18.123   8.850
 5035POPC   C1A24507  12.889  18.299   8.550
 5035POPC   D2A24508  12.842  18.237   8.250
 5035POPC   C3A24509  12.873  18.287   7.950
 5035POPC   C4A24510  12.890  18.330   7.650
 5035POPC   C1B24511  12.886  18.087   8.550
 5035POPC   C2B24512  12.873  18.011   8.250
 5035POPC   C3B24513  12.919  18.031   7.950
 5035POPC   C4B24514  12.934  18.057   7.650
 5036POPC   NC324515  17.515  36.858   9.450
 5036POPC   PO424516  17.544  36.904   9.150
 5036POPC   GL124517  17.516  36.939   8.850
 5036POPC   GL224518  17.478  36.990   8.850
 5036POPC   C1A24519  17.540  36.871   8.550
 5036POPC   D2A24520  17.494  36.949   8.250
 5036POPC   C3A24521  17.518  36.908   7.950
 5036POPC   C4A24522  17.485  36.932   7.650
 5036POPC   C1B24523  17.509  37.143   8.550
 5036POPC   C2B24524  17.569  37.148   8.250
 5036POPC   C3B24525  17.540  37.191   7.950
 5036POPC   C4B24526  17.510  37.144   7.650
 5037POPC   NC324527   0.456   2.809   9.450
 5037POPC   PO424528   0.447   2.802   9.150
 5037POPC   GL124529   0.392   2.741   8.850
 5037POPC   GL224530   0.384   2.924   8.850
 5037POPC   C1A24531   0.432   2.777   8.550
 5037POPC   D2A24532   0.447   2.810   8.250
 5037POPC   C3A24533   0.462   2.771   7.950
 5037POPC   C4A24534   0.464   2.807   7.650
 5037POPC   C1B24535   0.372   3.007   8.550
 5037POPC   C2B24536   0.340   3.028   8.250
 5037POPC   C3B24537   0.417   3.023   7.950
 5037POPC   C4B24538   0.392   2.961   7.650
 5038POPC   NC324539   3.588  12.053   9.450
 5038POPC   PO424540   3.551  12.089   9.150
 5038POPC   GL124541   3.584  12.056   8.850
 5038POPC   GL224542   3.479  12.162   8.850
 5038POPC   C1A24543   3.559  12.079   8.550
 5038POPC   D2A24544   3.533  12.096   8.250
 5038POPC   C3A24545   3.507  12.098   7.950
 5038POPC   C4A24546   3.580  12.100   7.650
 5038POPC   C1B24547   3.535  12.281   8.550
 5038POPC   C2B24548   3.475  12.348   8.250
 5038POPC   C3B24549   3.544  12.279   7.950
 5038POPC   C4B24550   3.480  12.323   7.650
 5039POPC   NC324551  33.784  33.767   9.450
 5039POPC   PO424552  33.759  33.797   9.150
 5039POPC   GL124553  33.760  33.778   8.850
 5039POPC   GL224554  33.760  33.933   8.850
 5039POPC   C1A24555  33.844  33.821   8.550
 5039POPC   D2A24556  33.782  33.790   8.250
 5039POPC   C3A24557  33.819  33.838   7.950
 5039POPC   C4A24558  33.845  33.794   7.650
 5039POPC   C1B24559  33.755  34.050   8.550
 5039POPC   C2B24560  33.729  34.007   8.250
 5039POPC   C3B24561  33.787  34.062   7.950
 5039POPC   C4B24562  33.739  34.041   7.650
 5040POPC   NC324563  16.720  32.230   9.450
 5040POPC   PO424564  16.769  32.289   9.150
 5040POPC   GL124565  16.729  32.247   8.850
 5040POPC   GL224566  16.844  32.323   8.850
 5040POPC   C1A24567  16.681  32.254   8.550
 5040POPC   D2A24568  16.728  32.237   8.250
 5040POPC   C3A24569  16.721  32.239   7.950
 5040POPC   C4A24570  16.725  32.212   7.650
 5040POPC   C1B24571  16.983  32.429   8.550
 5040POPC   C2B24572  16.982  32.377   8.250
 5040POPC   C3B24573  16.931  32.345   7.950
 5040POPC   C4B24574  16.967  32.371   7.650
 5041POPC   NC324575  40.737   5.133   9.450
 5041POPC   PO424576  40.778   5.103   9.150
 5041POPC   GL124577  40.821   5.048   8.850
 5041POPC   GL224578  40.695   5.029   8.850
 5041POPC   C1A24579  40.777   5.100   8.550
 5041POPC   D2A24580  40.806   5.113   8.250
 5041POPC   C3A24581  40.783   5.067   7.950
 5041POPC   C4A24582  40.776   5.081   7.650
 5041POPC   C1B24583  40.717   4.831   8.550
 5041POPC   C2B24584  40.711   4.868   8.250
 5041POPC   C3B24585  40.627   4.858   7.950
 5041POPC   C4B24586  40.718   4.837   7.650
 5042POPC   NC324587  44.642  38.464   9.450
 5042POPC   PO424588  44.685  38.483   9.150
 5042POPC   GL124589  44.661  38.478   8.850
 5042POPC   GL224590  44.597  38.364   8.850
 5042POPC   C1A24591  44.632  38.427   8.550
 5042POPC   D2A24592  44.629  38.417   8.250
 5042POPC   C3A24593  44.651  38.470   7.950
 5042POPC   C4A24594  44.697  38.496   7.650
 5042POPC   C1B24595  44.441  38.281   8.550
 5042POPC   C2B24596  44.508  38.327   8.250
 5042POPC   C3B24597  44.489  38.279   7.950
 5042POPC   C4B24598  44.444  38.307   7.650
 5043POPC   NC324599  27.632  26.774   9.450
 5043POPC   PO424600  27.629  26.866   9.150
 5043POPC   GL124601  27.638  26.862   8.850
 5043POPC   GL224602  27.578  26.909   8.850
 5043POPC   C1A24603  27.612  26.811   8.550
 5043POPC   D2A24604  27.561  26.856   8.250
 5043POPC   C3A24605  27.638  26.776   7.950
 5043POPC   C4A24606  27.569  26.853   7.650
 5043POPC   C1B24607  27.494  27.078   8.550
 5043POPC   C2B24608  27.541  27.082   8.250
 5043POPC   C3B24609  27.546  27.083   7.950
 5043POPC   C4B24610  27.475  27.086   7.650
 5044POPC   NC324611  40.010   4.300   9.450
 5044POPC   PO424612  40.023   4.311   9.150
 5044POPC   GL124613  39.968   4.275   8.850
 5044POPC   GL224614  39.982   4.251   8.850
 5044POPC   C1A24615  40.006   4.331   8.550
 5044POPC   D2A24616  39.995   4.292   8.250
 5044POPC   C3A24617  39.961   4.316   7.950
 5044POPC   C4A24618  39.999   4.276   7.650
 5044POPC   C1B24619  39.924   4.146   8.550
 5044POPC   C2B24620  39.905   4.073   8.250
 5044POPC   C3B24621  39.878   4.078   7.950
 5044POPC   C4B24622  39.861   4.072   7.650
 5045POPC   NC324623   6.657  23.736   9.450
 5045POPC   PO424624   6.641  23.672   9.150
 5045POPC   GL124625   6.628  23.686   8.850
 5045POPC   GL224626   6.620  23.628   8.850
 5045POPC   C1A24627   6.635  23.750   8.550
 5045POPC   D2A24628   6.601  23.732   8.250
 5045POPC   C3A24629   6.686  23.749   7.950
 5045POPC   C4A24630   6.691  23.675   7.650
 5045POPC   C1B24631   6.560  23.451   8.550
 5045POPC   C2B24632   6.469  23.502   8.250
 5045POPC   C3B24633   6.553  23.452   7.950
 5045POPC   C4B24634   6.521  23.491   7.650
 5046POPC   NC324635  30.653  39.998   9.450
 5046POPC   PO424636  30.738  40.057   9.150
 5046POPC   GL124637  30.736  40.015   8.850
 5046POPC   GL224638  30.746  40.078   8.850
 5046POPC   C1A24639  30.746  39.994   8.550
 5046POPC   D2A24640  30.684  40.002   8.250
 5046POPC   C3A24641  30.726  39.963   7.950
 5046POPC   C4A24642  30.652  40.054   7.650
 5046POPC   C1B24643  30.870  40.185   8.550
 5046POPC   C2B24644  30.859  40.150   8.250
 5046POPC   C3B24645  30.837  40.183   7.950
 5046POPC   C4B24646  30.848  40.152   7.650
 5047POPC   NC324647  16.730  19.069   9.450
 5047POPC   PO424648  16.692  19.095   9.150
 5047POPC   GL124649  16.776  19.074   8.850
 5047POPC   GL224650  16.750  19.184   8.850
 5047POPC   C1A24651  16.744  19.065   8.550
 5047POPC   D2A24652  16.714  19.108   8.250
 5047POPC   C3A24653  16.769  19.088   7.950
 5047POPC   C4A24654  16.738  19.016   7.650
 5047POPC   C1B24655  16.824  19.304   8.550
 5047POPC   C2B24656  16.844  19.341   8.250
 5047POPC   C3B24657  16.857  19.248   7.950
 5047POPC   C4B24658  16.820  19.310   7.650
 5048POPC   NC324659  42.294  26.087   9.450
 5048POPC   PO424660  42.314  26.079   9.150
 5048POPC   GL124661  42.338  26.084   8.850
 5048POPC   GL224662  42.315  26.173   8.850
 5048POPC   C1A24663  42.294  26.032   8.550
 5048POPC   D2A24664  42.362  26.022   8.250
 5048POPC   C3A24665  42.318  26.018   7.950
 5048POPC   C4A24666  42.369  26.049   7.650
 5048POPC   C1B24667  42.319  26.244   8.550
 5048POPC   C2B24668  42.276  26.247   8.250
 5048POPC   C3B24669  42.282  26.266   7.950
 5048POPC   C4B24670  42.305  26.236   7.650
 5049POPC   NC324671   7.372  44.697   9.450
 5049POPC   PO424672   7.447  44.645   9.150
 5049POPC   GL124673   7.389  44.656   8.850
 5049POPC   GL224674   7.403  44.768   8.850
 5049POPC   C1A24675   7.401  44.669   8.550
 5049POPC   D2A24676   7.379  44.691   8.250
 5049POPC   C3A24677   7.438  44.681   7.950
 5049POPC   C4A24678   7.435  44.700   7.650
 5049POPC   C1B24679   7.275  44.892   8.550
 5049POPC   C2B24680   7.317  44.915   8.250
 5049POPC   C3B24681   7.345  44.841   7.950
 5049POPC   C4B24682   7.348  44.833   7.650
 5050POPC   NC324683  11.298   8.190   9.450
 5050POPC   PO424684  11.346   8.196   9.150
 5050POPC   GL124685  11.286   8.240   8.850
 5050POPC   GL224686  11.182   8.179   8.850
 5050POPC   C1A24687  11.297   8.197   8.550
 5050POPC   D2A24688  11.318   8.244   8.250
 5050POPC   C3A24689  11.331   8.166   7.950
 5050POPC   C4A24690  11.339   8.161   7.650
 5050POPC   C1B24691  11.030   8.150   8.550
 5050POPC   C2B24692  11.075   8.103   8.250
 5050POPC   C3B24693  11.061   8.141   7.950
 5050POPC   C4B24694  11.021   8.175   7.650
 5051POPC   NC324695  41.553  41.571   9.450
 5051POPC   PO424696  41.532  41.567   9.150
 5051POPC   GL124697  41.597  41.541   8.850
 5051POPC   GL224698  41.625  41.470   8.850
 5051POPC   C1A24699  41.534  41.545   8.550
 5051POPC   D2A24700  41.543  41.606   8.250
 5051POPC   C3A24701  41.584  41.519   7.950
 5051POPC   C4A24702  41.548  41.593   7.650
 5051POPC   C1B24703  41.588  41.338   8.550
 5051POPC   C2B24704  41.638  41.307   8.250
 5051POPC   C3B24705  41.612  41.300   7.950
 5051POPC   C4B24706  41.638  41.279   7.650
 5052POPC   NC324707  14.414   9.748   9.450
 5052POPC   PO424708  14.413   9.713   9.150
 5052POPC   GL124709  14.386   9.719   8.850
 5052POPC   GL224710  14.523   9.745   8.850
 5052POPC   C1A24711  14.359   9.714   8.550
 5052POPC   D2A24712  14.437   9.774   8.250
 5052POPC   C3A24713  14.437   9.789   7.950
 5052POPC   C4A24714  14.382   9.771   7.650
 5052POPC   C1B24715  14.677   9.627   8.550
 5052POPC   C2B24716  14.631   9.664   8.250
 5052POPC   C3B24717  14.679   9.618   7.950
 5052POPC   C4B24718  14.608   9.677   7.650
 5053POPC   NC324719   2.002   9.796   9.450
 5053POPC   PO424720   1.959   9.738   9.150
 5053POPC   GL124721   1.989   9.780   8.850
 5053POPC   GL224722   2.131   9.695   8.850
 5053POPC   C1A24723   2.039   9.711   8.550
 5053POPC   D2A24724   2.032   9.757   8.250
 5053POPC   C3A24725   2.032   9.724   7.950
 5053POPC   C4A24726   2.009   9.797   7.650
 5053POPC   C1B24727   2.208   9.638   8.550
 5053POPC   C2B24728   2.156   9.664   8.250
 5053POPC   C3B24729   2.189   9.615   7.950
 5053POPC   C4B24730   2.219   9.633   7.650
 5054POPC   NC324731   2.007  23.744   9.450
 5054POPC   PO424732   2.038  23.688   9.150
 5054POPC   GL124733   2.036  23.683   8.850
 5054POPC   GL224734   2.064  23.616   8.850
 5054POPC   C1A24735   1.979  23.707   8.550
 5054POPC   D2A24736   2.005  23.681   8.250
 5054POPC   C3A24737   2.039  23.748   7.950
 5054POPC   C4A24738   2.019  23.682   7.650
 5054POPC   C1B24739   2.227  23.588   8.550
 5054POPC   C2B24740   2.217  23.582   8.250
 5054POPC   C3B24741   2.172  23.569   7.950
 5054POPC   C4B24742   2.235  23.596   7.650
 5055POPC   NC324743   6.641  22.136   9.450
 5055POPC   PO424744   6.603  22.125   9.150
 5055POPC   GL124745   6.650  22.153   8.850
 5055POPC   GL224746   6.626  22.310   8.850
 5055POPC   C1A24747   6.634  22.212   8.550
 5055POPC   D2A24748   6.605  22.149   8.250
 5055POPC   C3A24749   6.630  22.156   7.950
 5055POPC   C4A24750   6.680  22.163   7.650
 5055POPC   C1B24751   6.665  22.367   8.550
 5055POPC   C2B24752   6.605  22.365   8.250
 5055POPC   C3B24753   6.674  22.375   7.950
 5055POPC   C4B24754   6.626  22.384   7.650
 5056POPC   NC324755  43.065  12.821   9.450
 5056POPC   PO424756  43.071  12.810   9.150
 5056POPC   GL124757  43.062  12.880   8.850
 5056POPC   GL224758  42.957  12.826   8.850
 5056POPC   C1A24759  43.149  12.809   8.550
 5056POPC   D2A24760  43.078  12.811   8.250
 5056POPC   C3A24761  43.119  12.807   7.950
 5056POPC   C4A24762  43.142  12.865   7.650
 5056POPC   C1B24763  42.812  12.812   8.550
 5056POPC   C2B24764  42.889  12.871   8.250
 5056POPC   C3B24765  42.900  12.810   7.950
 5056POPC   C4B24766  42.849  12.807   7.650
 5057POPC   NC324767  13.651  40.792   9.450
 5057POPC   PO424768  13.668  40.823   9.150
 5057POPC   GL124769  13.603  40.820   8.850
 5057POPC   GL224770  13.721  40.827   8.850
 5057POPC   C1A24771  13.648  40.740   8.550
 5057POPC   D2A24772  13.613  40.750   8.250
 5057POPC   C3A24773  13.595  40.742   7.950
 5057POPC   C4A24774  13.664  40.815   7.650
 5057POPC   C1B24775  13.844  40.769   8.550
 5057POPC   C2B24776  13.877  40.820   8.250
 5057POPC   C3B24777  13.914  40.808   7.950
 5057POPC   C4B24778  13.855  40.768   7.650
 5058POPC   NC324779  16.731  21.390   9.450
 5058POPC   PO424780  16.770  21.345   9.150
 5058POPC   GL124781  16.686  21.420   8.850
 5058POPC   GL224782  16.641  21.454   8.850
 5058POPC   C1A24783  16.747  21.408   8.550
 5058POPC   D2A24784  16.731  21.407   8.250
 5058POPC   C3A24785  16.690  21.393   7.950
 5058POPC   C4A24786  16.766  21.362   7.650
 5058POPC   C1B24787  16.500  21.458   8.550
 5058POPC   C2B24788  16.485  21.427   8.250
 5058POPC   C3B24789  16.476  21.440   7.950
 5058POPC   C4B24790  16.500  21.452   7.650
 5059POPC   NC324791  41.576  26.077   9.450
 5059POPC   PO424792  41.567  26.031   9.150
 5059POPC   GL124793  41.561  25.997   8.850
 5059POPC   GL224794  41.702  25.998   8.850
 5059POPC   C1A24795  41.580  26.052   8.550
 5059POPC   D2A24796  41.607  26.006   8.250
 5059POPC   C3A24797  41.543  26.055   7.950
 5059POPC   C4A24798  41.564  26.040   7.650
 5059POPC   C1B24799  41.843  26.014   8.550
 5059POPC   C2B24800  41.799  26.047   8.250
 5059POPC   C3B24801  41.762  25.982   7.950
 5059POPC   C4B24802  41.755  25.972   7.650
 5060POPC   NC324803  19.814  12.039   9.450
 5060POPC   PO424804  19.859  12.115   9.150
 5060POPC   GL124805  19.860  12.122   8.850
 5060POPC   GL224806  19.716  11.993   8.850
 5060POPC   C1A24807  19.850  12.061   8.550
 5060POPC   D2A24808  19.793  12.075   8.250
 5060POPC   C3A24809  19.878  12.071   7.950
 5060POPC   C4A24810  19.875  12.072   7.650
 5060POPC   C1B24811  19.640  11.931   8.550
 5060POPC   C2B24812  19.634  11.970   8.250
 5060POPC   C3B24813  19.598  11.927   7.950
 5060POPC   C4B24814  19.652  11.996   7.650
 5061POPC   NC324815   3.495  23.666   9.450
 5061POPC   PO424816   3.508  23.701   9.150
 5061POPC   GL124817   3.492  23.753   8.850
 5061POPC   GL224818   3.402  23.704   8.850
 5061POPC   C1A24819   3.530  23.760   8.550
 5061POPC   D2A24820   3.521  23.703   8.250
 5061POPC   C3A24821   3.544  23.745   7.950
 5061POPC   C4A24822   3.585  23.665   7.650
 5061POPC   C1B24823   3.313  23.796   8.550
 5061POPC   C2B24824   3.324  23.820   8.250
 5061POPC   C3B24825   3.296  23.816   7.950
 5061POPC   C4B24826   3.317  23.765   7.650
 5062POPC   NC324827   9.001  18.320   9.450
 5062POPC   PO424828   8.929  18.319   9.150
 5062POPC   GL124829   8.986  18.314   8.850
 5062POPC   GL224830   8.865  18.212   8.850
 5062POPC   C1A24831   9.002  18.312   8.550
 5062POPC   D2A24832   8.942  18.303   8.250
 5062POPC   C3A24833   8.925  18.323   7.950
 5062POPC   C4A24834   8.987  18.316   7.650
 5062POPC   C1B24835   8.830  18.055   8.550
 5062POPC   C2B24836   8.776  18.094   8.250
 5062POPC   C3B24837   8.856  18.105   7.950
 5062POPC   C4B24838   8.813  18.107   7.650
 5063POPC   NC324839  33.051  22.121   9.450
 5063POPC   PO424840  33.059  22.156   9.150
 5063POPC   GL124841  33.002  22.130   8.850
 5063POPC   GL224842  33.086  22.219   8.850
 5063POPC   C1A24843  33.013  22.129   8.550
 5063POPC   D2A24844  32.986  22.124   8.250
 5063POPC   C3A24845  32.976  22.150   7.950
 5063POPC   C4A24846  32.992  22.158   7.650
 5063POPC   C1B24847  33.173  22.410   8.550
 5063POPC   C2B24848  33.133  22.375   8.250
 5063POPC   C3B24849  33.122  22.380   7.950
 5063POPC   C4B24850  33.119  22.320   7.650
 5064POPC   NC324851  33.059   0.446   9.450
 5064POPC   PO424852  33.038   0.459   9.150
 5064POPC   GL124853  33.028   0.430   8.850
 5064POPC   GL224854  32.937   0.410   8.850
 5064POPC   C1A24855  32.998   0.412   8.550
 5064POPC   D2A24856  33.032   0.415   8.250
 5064POPC   C3A24857  33.043   0.444   7.950
 5064POPC   C4A24858  32.990   0.400   7.650
 5064POPC   C1B24859  32.752   0.428   8.550
 5064POPC   C2B24860  32.801   0.385   8.250
 5064POPC   C3B24861  32.752   0.355   7.950
 5064POPC   C4B24862  32.748   0.411   7.650
 5065POPC   NC324863  29.152   5.141   9.450
 5065POPC   PO424864  29.170   5.082   9.150
 5065POPC   GL124865  29.143   5.121   8.850
 5065POPC   GL224866  29.257   5.188   8.850
 5065POPC   C1A24867  29.144   5.085   8.550
 5065POPC   D2A24868  29.119   5.129   8.250
 5065POPC   C3A24869  29.145   5.075   7.950
 5065POPC   C4A24870  29.161   5.119   7.650
 5065POPC   C1B24871  29.322   5.276   8.550
 5065POPC   C2B24872  29.336   5.311   8.250
 5065POPC   C3B24873  29.336   5.295   7.950
 5065POPC   C4B24874  29.287   5.321   7.650
 5066POPC   NC324875  12.124  34.560   9.450
 5066POPC   PO424876  12.098  34.573   9.150
 5066POPC   GL124877  12.123  34.620   8.850
 5066POPC   GL224878  12.156  34.525   8.850
 5066POPC   C1A24879  12.123  34.555   8.550
 5066POPC   D2A24880  12.067  34.615   8.250
 5066POPC   C3A24881  12.037  34.554   7.950
 5066POPC   C4A24882  12.125  34.574   7.650
 5066POPC   C1B24883  12.184  34.347   8.550
 5066POPC   C2B24884  12.244  34.341   8.250
 5066POPC   C3B24885  12.261  34.347   7.950
 5066POPC   C4B24886  12.211  34.360   7.650
 5067POPC   NC324887  19.027   5.862   9.450
 5067POPC   PO424888  19.036   5.853   9.150
 5067POPC   GL124889  19.012   5.857   8.850
 5067POPC   GL224890  19.086   5.992   8.850
 5067POPC   C1A24891  19.031   5.897   8.550
 5067POPC   D2A24892  19.050   5.829   8.250
 5067POPC   C3A24893  19.059   5.828   7.950
 5067POPC   C4A24894  19.023   5.871   7.650
 5067POPC   C1B24895  19.121   6.161   8.550
 5067POPC   C2B24896  19.055   6.150   8.250
 5067POPC   C3B24897  19.095   6.076   7.950
 5067POPC   C4B24898  19.145   6.095   7.650
 5068POPC   NC324899   6.603  25.255   9.450
 5068POPC   PO424900   6.638  25.277   9.150
 5068POPC   GL124901   6.643  25.285   8.850
 5068POPC   GL224902   6.704  25.409   8.850
 5068POPC   C1A24903   6.643  25.271   8.550
 5068POPC   D2A24904   6.603  25.240   8.250
 5068POPC   C3A24905   6.605  25.236   7.950
 5068POPC   C4A24906   6.655  25.269   7.650
 5068POPC   C1B24907   6.648  25.468   8.550
 5068POPC   C2B24908   6.649  25.551   8.250
 5068POPC   C3B24909   6.657  25.546   7.950
 5068POPC   C4B24910   6.713  25.537   7.650
 5069POPC   NC324911  12.042  28.368   9.450
 5069POPC   PO424912  12.116  28.404   9.150
 5069POPC   GL124913  12.058  28.321   8.850
 5069POPC   GL224914  12.064  28.505   8.850
 5069POPC   C1A24915  12.098  28.375   8.550
 5069POPC   D2A24916  12.051  28.359   8.250
 5069POPC   C3A24917  12.096  28.338   7.950
 5069POPC   C4A24918  12.103  28.400   7.650
 5069POPC   C1B24919  12.116  28.638   8.550
 5069POPC   C2B24920  12.104  28.652   8.250
 5069POPC   C3B24921  12.040  28.660   7.950
 5069POPC   C4B24922  12.072  28.641   7.650
 5070POPC   NC324923   9.763  19.042   9.450
 5070POPC   PO424924   9.754  19.044   9.150
 5070POPC   GL124925   9.744  19.070   8.850
 5070POPC   GL224926   9.806  18.981   8.850
 5070POPC   C1A24927   9.699  19.010   8.550
 5070POPC   D2A24928   9.699  19.072   8.250
 5070POPC   C3A24929   9.727  19.039   7.950
 5070POPC   C4A24930   9.710  19.050   7.650
 5070POPC   C1B24931   9.830  18.844   8.550
 5070POPC   C2B24932   9.874  18.862   8.250
 5070POPC   C3B24933   9.811  18.838   7.950
 5070POPC   C4B24934   9.853  18.813   7.650
 5071POPC   NC324935  41.594   2.781   9.450
 5071POPC   PO424936  41.598   2.729   9.150
 5071POPC   GL124937  41.603   2.774   8.850
 5071POPC   GL224938  41.693   2.731   8.850
 5071POPC   C1A24939  41.583   2.738   8.550
 5071POPC   D2A24940  41.512   2.798   8.250
 5071POPC   C3A24941  41.593   2.780   7.950
 5071POPC   C4A24942  41.591   2.797   7.650
 5071POPC   C1B24943  41.753   2.630   8.550
 5071POPC   C2B24944  41.772   2.576   8.250
 5071POPC   C3B24945  41.738   2.602   7.950
 5071POPC   C4B24946  41.719   2.628   7.650
 5072POPC   NC324947  24.454  29.888   9.450
 5072POPC   PO424948  24.506  29.942   9.150
 5072POPC   GL124949  24.491  29.913   8.850
 5072POPC   GL224950  24.387  29.885   8.850
 5072POPC   C1A24951  24.442  29.935   8.550
 5072POPC   D2A24952  24.465  29.933   8.250
 5072POPC   C3A24953  24.470  29.877   7.950
 5072POPC   C4A24954  24.526  29.940   7.650
 5072POPC   C1B24955  24.260  29.794   8.550
 5072POPC   C2B24956  24.258  29.776   8.250
 5072POPC   C3B24957  24.265  29.788   7.950
 5072POPC   C4B24958  24.256  29.795   7.650
 5073POPC   NC324959   8.924  32.286   9.450
 5073POPC   PO424960   9.001  32.255   9.150
 5073POPC   GL124961   8.996  32.288   8.850
 5073POPC   GL224962   8.896  32.360   8.850
 5073POPC   C1A24963   8.987  32.289   8.550
 5073POPC   D2A24964   8.990  32.253   8.250
 5073POPC   C3A24965   8.962  32.229   7.950
 5073POPC   C4A24966   8.996  32.202   7.650
 5073POPC   C1B24967   8.819  32.413   8.550
 5073POPC   C2B24968   8.769  32.402   8.250
 5073POPC   C3B24969   8.837  32.481   7.950
 5073POPC   C4B24970   8.779  32.452   7.650
 5074POPC   NC324971  37.677  20.628   9.450
 5074POPC   PO424972  37.670  20.575   9.150
 5074POPC   GL124973  37.703  20.582   8.850
 5074POPC   GL224974  37.746  20.716   8.850
 5074POPC   C1A24975  37.645  20.597   8.550
 5074POPC   D2A24976  37.681  20.634   8.250
 5074POPC   C3A24977  37.689  20.561   7.950
 5074POPC   C4A24978  37.630  20.591   7.650
 5074POPC   C1B24979  37.792  20.879   8.550
 5074POPC   C2B24980  37.722  20.808   8.250
 5074POPC   C3B24981  37.748  20.801   7.950
 5074POPC   C4B24982  37.788  20.818   7.650
 5075POPC   NC324983  19.840   2.011   9.450
 5075POPC   PO424984  19.861   2.021   9.150
 5075POPC   GL124985  19.880   1.975   8.850
 5075POPC   GL224986  19.708   1.986   8.850
 5075POPC   C1A24987  19.825   1.970   8.550
 5075POPC   D2A24988  19.858   1.969   8.250
 5075POPC   C3A24989  19.857   1.980   7.950
 5075POPC   C4A24990  19.882   2.032   7.650
 5075POPC   C1B24991  19.584   1.898   8.550
 5075POPC   C2B24992  19.626   1.894   8.250
 5075POPC   C3B24993  19.610   1.914   7.950
 5075POPC   C4B24994  19.559   1.876   7.650
 5076POPC   NC324995   4.359  25.273   9.450
 5076POPC   PO424996   4.278  25.273   9.150
 5076POPC   GL124997   4.306  25.246   8.850
 5076POPC   GL224998   4.434  25.227   8.850
 5076POPC   C1A24999   4.356  25.274   8.550
 5076POPC   D2A25000   4.338  25.276   8.250
 5076POPC   C3A25001   4.363  25.223   7.950
 5076POPC   C4A25002   4.329  25.267   7.650
 5076POPC   C1B25003   4.532  25.168   8.550
 5076POPC   C2B25004   4.534  25.106   8.250
 5076POPC   C3B25005   4.570  25.081   7.950
 5076POPC   C4B25006   4.519  25.149   7.650
 5077POPC   NC325007  13.631  10.539   9.450
 5077POPC   PO425008  13.602  10.523   9.150
 5077POPC   GL125009  13.675  10.522   8.850
 5077POPC   GL225010  13.591  10.614   8.850
 5077POPC   C1A25011  13.579  10.536   8.550
 5077POPC   D2A25012  13.622  10.552   8.250
 5077POPC   C3A25013  13.615  10.492   7.950
 5077POPC   C4A25014  13.608  10.488   7.650
 5077POPC   C1B25015  13.652  10.751   8.550
 5077POPC   C2B25016  13.625  10.810   8.250
 5077POPC   C3B25017  13.596  10.796   7.950
 5077POPC   C4B25018  13.573  10.733   7.650
 5078POPC   NC325019  22.943  34.582   9.450
 5078POPC   PO425020  22.978  34.609   9.150
 5078POPC   GL125021  22.963  34.561   8.850
 5078POPC   GL225022  23.071  34.610   8.850
 5078POPC   C1A25023  22.899  34.550   8.550
 5078POPC   D2A25024  22.943  34.542   8.250
 5078POPC   C3A25025  22.947  34.554   7.950
 5078POPC   C4A25026  22.929  34.604   7.650
 5078POPC   C1B25027  23.226  34.546   8.550
 5078POPC   C2B25028  23.228  34.610   8.250
 5078POPC   C3B25029  23.182  34.608   7.950
 5078POPC   C4B25030  23.185  34.616   7.650
 5079POPC   NC325031  29.137  19.863   9.450
 5079POPC   PO425032  29.128  19.880   9.150
 5079POPC   GL125033  29.122  19.868   8.850
 5079POPC   GL225034  29.131  20.004   8.850
 5079POPC   C1A25035  29.122  19.805   8.550
 5079POPC   D2A25036  29.156  19.848   8.250
 5079POPC   C3A25037  29.122  19.879   7.950
 5079POPC   C4A25038  29.123  19.860   7.650
 5079POPC   C1B25039  29.148  20.091   8.550
 5079POPC   C2B25040  29.123  20.066   8.250
 5079POPC   C3B25041  29.102  20.103   7.950
 5079POPC   C4B25042  29.143  20.129   7.650
 5080POPC   NC325043   5.917  23.753   9.450
 5080POPC   PO425044   5.831  23.724   9.150
 5080POPC   GL125045   5.831  23.691   8.850
 5080POPC   GL225046   5.924  23.859   8.850
 5080POPC   C1A25047   5.909  23.689   8.550
 5080POPC   D2A25048   5.870  23.672   8.250
 5080POPC   C3A25049   5.827  23.714   7.950
 5080POPC   C4A25050   5.868  23.714   7.650
 5080POPC   C1B25051   5.917  23.971   8.550
 5080POPC   C2B25052   5.882  23.966   8.250
 5080POPC   C3B25053   5.925  23.974   7.950
 5080POPC   C4B25054   5.908  23.950   7.650
 5081POPC   NC325055  41.552  10.527   9.450
 5081POPC   PO425056  41.582  10.475   9.150
 5081POPC   GL125057  41.582  10.552   8.850
 5081POPC   GL225058  41.549  10.438   8.850
 5081POPC   C1A25059  41.509  10.483   8.550
 5081POPC   D2A25060  41.529  10.560   8.250
 5081POPC   C3A25061  41.555  10.481   7.950
 5081POPC   C4A25062  41.517  10.515   7.650
 5081POPC   C1B25063  41.483  10.286   8.550
 5081POPC   C2B25064  41.529  10.312   8.250
 5081POPC   C3B25065  41.536  10.308   7.950
 5081POPC   C4B25066  41.502  10.228   7.650
 5082POPC   NC325067   5.043  44.644   9.450
 5082POPC   PO425068   5.060  44.633   9.150
 5082POPC   GL125069   5.129  44.650   8.850
 5082POPC   GL225070   5.143  44.735   8.850
 5082POPC   C1A25071   5.107  44.626   8.550
 5082POPC   D2A25072   5.082  44.682   8.250
 5082POPC   C3A25073   5.073  44.644   7.950
 5082POPC   C4A25074   5.045  44.619   7.650
 5082POPC   C1B25075   5.182  44.907   8.550
 5082POPC   C2B25076   5.148  44.851   8.250
 5082POPC   C3B25077   5.221  44.886   7.950
 5082POPC   C4B25078   5.162  44.902   7.650
 5083POPC   NC325079  23.712  11.304   9.450
 5083POPC   PO425080  23.723  11.323   9.150
 5083POPC   GL125081  23.669  11.310   8.850
 5083POPC   GL225082  23.775  11.204   8.850
 5083POPC   C1A25083  23.743  11.311   8.550
 5083POPC   D2A25084  23.740  11.268   8.250
 5083POPC   C3A25085  23.736  11.346   7.950
 5083POPC   C4A25086  23.745  11.279   7.650
 5083POPC   C1B25087  23.934  11.114   8.550
 5083POPC   C2B25088  23.942  11.109   8.250
 5083POPC   C3B25089  23.944  11.160   7.950
 5083POPC   C4B25090  23.938  11.124   7.650
 5084POPC   NC325091  11.301  25.225   9.450
 5084POPC   PO425092  11.262  25.309   9.150
 5084POPC   GL125093  11.260  25.250   8.850
 5084POPC   GL225094  11.318  25.377   8.850
 5084POPC   C1A25095  11.253  25.236   8.550
 5084POPC   D2A25096  11.294  25.301   8.250
 5084POPC   C3A25097  11.349  25.222   7.950
 5084POPC   C4A25098  11.312  25.227   7.650
 5084POPC   C1B25099  11.286  25.500   8.550
 5084POPC   C2B25100  11.296  25.532   8.250
 5084POPC   C3B25101  11.287  25.462   7.950
 5084POPC   C4B25102  11.266  25.494   7.650
 5085POPC   NC325103  22.962  29.893   9.450
 5085POPC   PO425104  22.947  29.944   9.150
 5085POPC   GL125105  22.930  29.919   8.850
 5085POPC   GL225106  23.034  29.851   8.850
 5085POPC   C1A25107  22.966  29.934   8.550
 5085POPC   D2A25108  22.960  29.874   8.250
 5085POPC   C3A25109  22.926  29.944   7.950
 5085POPC   C4A25110  22.958  29.877   7.650
 5085POPC   C1B25111  23.130  29.723   8.550
 5085POPC   C2B25112  23.151  29.769   8.250
 5085POPC   C3B25113  23.061  29.694   7.950
 5085POPC   C4B25114  23.073  29.712   7.650
 5086POPC   NC325115  36.086  13.630   9.450
 5086POPC   PO425116  36.092  13.670   9.150
 5086POPC   GL125117  36.106  13.603   8.850
 5086POPC   GL225118  36.077  13.784   8.850
 5086POPC   C1A25119  36.118  13.665   8.550
 5086POPC   D2A25120  36.104  13.656   8.250
 5086POPC   C3A25121  36.093  13.594   7.950
 5086POPC   C4A25122  36.175  13.666   7.650
 5086POPC   C1B25123  36.060  13.879   8.550
 5086POPC   C2B25124  36.030  13.907   8.250
 5086POPC   C3B25125  36.070  13.892   7.950
 5086POPC   C4B25126  36.091  13.876   7.650
 5087POPC   NC325127  36.117   1.984   9.450
 5087POPC   PO425128  36.104   2.039   9.150
 5087POPC   GL125129  36.171   1.995   8.850
 5087POPC   GL225130  36.038   2.001   8.850
 5087POPC   C1A25131  36.102   1.982   8.550
 5087POPC   D2A25132  36.078   2.024   8.250
 5087POPC   C3A25133  36.096   1.976   7.950
 5087POPC   C4A25134  36.158   2.017   7.650
 5087POPC   C1B25135  35.881   1.923   8.550
 5087POPC   C2B25136  35.913   1.874   8.250
 5087POPC   C3B25137  35.868   1.904   7.950
 5087POPC   C4B25138  35.909   1.873   7.650
 5088POPC   NC325139  25.275  39.270   9.450
 5088POPC   PO425140  25.310  39.236   9.150
 5088POPC   GL125141  25.224  39.209   8.850
 5088POPC   GL225142  25.247  39.304   8.850
 5088POPC   C1A25143  25.282  39.188   8.550
 5088POPC   D2A25144  25.216  39.239   8.250
 5088POPC   C3A25145  25.233  39.275   7.950
 5088POPC   C4A25146  25.229  39.201   7.650
 5088POPC   C1B25147  25.311  39.468   8.550
 5088POPC   C2B25148  25.346  39.443   8.250
 5088POPC   C3B25149  25.305  39.502   7.950
 5088POPC   C4B25150  25.347  39.480   7.650
 5089POPC   NC325151  22.172  38.414   9.450
 5089POPC   PO425152  22.146  38.441   9.150
 5089POPC   GL125153  22.173  38.407   8.850
 5089POPC   GL225154  22.051  38.446   8.850
 5089POPC   C1A25155  22.142  38.504   8.550
 5089POPC   D2A25156  22.157  38.422   8.250
 5089POPC   C3A25157  22.126  38.466   7.950
 5089POPC   C4A25158  22.119  38.484   7.650
 5089POPC   C1B25159  21.912  38.333   8.550
 5089POPC   C2B25160  21.965  38.314   8.250
 5089POPC   C3B25161  21.900  38.343   7.950
 5089POPC   C4B25162  21.897  38.353   7.650
 5090POPC   NC325163  34.572  26.039   9.450
 5090POPC   PO425164  34.543  25.996   9.150
 5090POPC   GL125165  34.583  26.053   8.850
 5090POPC   GL225166  34.526  26.177   8.850
 5090POPC   C1A25167  34.558  26.061   8.550
 5090POPC   D2A25168  34.571  26.048   8.250
 5090POPC   C3A25169  34.568  26.055   7.950
 5090POPC   C4A25170  34.580  26.082   7.650
 5090POPC   C1B25171  34.617  26.275   8.550
 5090POPC   C2B25172  34.568  26.286   8.250
 5090POPC   C3B25173  34.566  26.308   7.950
 5090POPC   C4B25174  34.612  26.297   7.650
 5091POPC   NC325175  20.620   9.770   9.450
 5091POPC   PO425176  20.627   9.769   9.150
 5091POPC   GL125177  20.619   9.761   8.850
 5091POPC   GL225178  20.708   9.652   8.850
 5091POPC   C1A25179  20.628   9.755   8.550
 5091POPC   D2A25180  20.600   9.722   8.250
 5091POPC   C3A25181  20.628   9.750   7.950
 5091POPC   C4A25182  20.576   9.740   7.650
 5091POPC   C1B25183  20.731   9.563   8.550
 5091POPC   C2B25184  20.686   9.545   8.250
 5091POPC   C3B25185  20.715   9.526   7.950
 5091POPC   C4B25186  20.741   9.551   7.650
 5092POPC   NC325187  11.270  29.933   9.450
 5092POPC   PO425188  11.278  29.912   9.150
 5092POPC   GL125189  11.349  29.950   8.850
 5092POPC   GL225190  11.447  29.979   8.850
 5092POPC   C1A25191  11.321  29.888   8.550
 5092POPC   D2A25192  11.256  29.946   8.250
 5092POPC   C3A25193  11.253  29.908   7.950
 5092POPC   C4A25194  11.277  29.927   7.650
 5092POPC   C1B25195  11.509  30.034   8.550
 5092POPC   C2B25196  11.508  30.052   8.250
 5092POPC   C3B25197  11.535  30.055   7.950
 5092POPC   C4B25198  11.538  30.091   7.650
 5093POPC   NC325199   8.165  12.070   9.450
 5093POPC   PO425200   8.166  12.042   9.150
 5093POPC   GL125201   8.241  12.045   8.850
 5093POPC   GL225202   8.102  12.241   8.850
 5093POPC   C1A25203   8.185  12.118   8.550
 5093POPC   D2A25204   8.220  12.115   8.250
 5093POPC   C3A25205   8.174  12.048   7.950
 5093POPC   C4A25206   8.218  12.114   7.650
 5093POPC   C1B25207   8.126  12.297   8.550
 5093POPC   C2B25208   8.135  12.274   8.250
 5093POPC   C3B25209   8.084  12.262   7.950
 5093POPC   C4B25210   8.100  12.258   7.650
 5094POPC   NC325211  26.046   9.740   9.450
 5094POPC   PO425212  26.022   9.739   9.150
 5094POPC   GL125213  26.066   9.790   8.850
 5094POPC   GL225214  25.910   9.743   8.850
 5094POPC   C1A25215  26.013   9.794   8.550
 5094POPC   D2A25216  26.040   9.745   8.250
 5094POPC   C3A25217  26.068   9.744   7.950
 5094POPC   C4A25218  26.020   9.769   7.650
 5094POPC   C1B25219  25.803   9.728   8.550
 5094POPC   C2B25220  25.799   9.712   8.250
 5094POPC   C3B25221  25.804   9.785   7.950
 5094POPC   C4B25222  25.790   9.744   7.650
 5095POPC   NC325223  42.380   8.932   9.450
 5095POPC   PO425224  42.325   8.939   9.150
 5095POPC   GL125225  42.363   8.924   8.850
 5095POPC   GL225226  42.407   8.906   8.850
 5095POPC   C1A25227  42.330   8.946   8.550
 5095POPC   D2A25228  42.325   8.926   8.250
 5095POPC   C3A25229  42.307   8.962   7.950
 5095POPC   C4A25230  42.351   9.014   7.650
 5095POPC   C1B25231  42.493   8.862   8.550
 5095POPC   C2B25232  42.512   8.861   8.250
 5095POPC   C3B25233  42.527   8.825   7.950
 5095POPC   C4B25234  42.495   8.801   7.650
 5096POPC   NC325235  36.914  14.391   9.450
 5096POPC   PO425236  36.875  14.394   9.150
 5096POPC   GL125237  36.901  14.408   8.850
 5096POPC   GL225238  36.804  14.403   8.850
 5096POPC   C1A25239  36.953  14.424   8.550
 5096POPC   D2A25240  36.953  14.370   8.250
 5096POPC   C3A25241  36.875  14.431   7.950
 5096POPC   C4A25242  36.900  14.434   7.650
 5096POPC   C1B25243  36.700  14.418   8.550
 5096POPC   C2B25244  36.700  14.453   8.250
 5096POPC   C3B25245  36.698  14.413   7.950
 5096POPC   C4B25246  36.686  14.456   7.650
 5097POPC   NC325247  26.767   5.860   9.450
 5097POPC   PO425248  26.854   5.841   9.150
 5097POPC   GL125249  26.813   5.915   8.850
 5097POPC   GL225250  26.763   5.910   8.850
 5097POPC   C1A25251  26.796   5.910   8.550
 5097POPC   D2A25252  26.781   5.885   8.250
 5097POPC   C3A25253  26.843   5.911   7.950
 5097POPC   C4A25254  26.843   5.903   7.650
 5097POPC   C1B25255  26.630   5.996   8.550
 5097POPC   C2B25256  26.593   6.052   8.250
 5097POPC   C3B25257  26.635   6.036   7.950
 5097POPC   C4B25258  26.669   6.045   7.650
 5098POPC   NC325259  11.250  19.875   9.450
 5098POPC   PO425260  11.337  19.823   9.150
 5098POPC   GL125261  11.274  19.809   8.850
 5098POPC   GL225262  11.401  19.714   8.850
 5098POPC   C1A25263  11.346  19.835   8.550
 5098POPC   D2A25264  11.270  19.862   8.250
 5098POPC   C3A25265  11.330  19.795   7.950
 5098POPC   C4A25266  11.333  19.798   7.650
 5098POPC   C1B25267  11.453  19.650   8.550
 5098POPC   C2B25268  11.496  19.695   8.250
 5098POPC   C3B25269  11.433  19.698   7.950
 5098POPC   C4B25270  11.429  19.677   7.650
 5099POPC   NC325271  42.327  19.882   9.450
 5099POPC   PO425272  42.303  19.793   9.150
 5099POPC   GL125273  42.298  19.884   8.850
 5099POPC   GL225274  42.335  19.724   8.850
 5099POPC   C1A25275  42.341  19.808   8.550
 5099POPC   D2A25276  42.297  19.795   8.250
 5099POPC   C3A25277  42.317  19.843   7.950
 5099POPC   C4A25278  42.366  19.824   7.650
 5099POPC   C1B25279  42.404  19.558   8.550
 5099POPC   C2B25280  42.402  19.616   8.250
 5099POPC   C3B25281  42.436  19.577   7.950
 5099POPC   C4B25282  42.466  19.621   7.650
 5100POPC   NC325283  38.439  30.720   9.450
 5100POPC   PO425284  38.484  30.691   9.150
 5100POPC   GL125285  38.491  30.675   8.850
 5100POPC   GL225286  38.480  30.569   8.850
 5100POPC   C1A25287  38.492  30.656   8.550
 5100POPC   D2A25288  38.435  30.674   8.250
 5100POPC   C3A25289  38.441  30.688   7.950
 5100POPC   C4A25290  38.417  30.679   7.650
 5100POPC   C1B25291  38.393  30.413   8.550
 5100POPC   C2B25292  38.433  30.470   8.250
 5100POPC   C3B25293  38.465  30.447   7.950
 5100POPC   C4B25294  38.441  30.476   7.650
 5101POPC   NC325295  19.840  20.651   9.450
 5101POPC   PO425296  19.797  20.643   9.150
 5101POPC   GL125297  19.833  20.597   8.850
 5101POPC   GL225298  19.911  20.680   8.850
 5101POPC   C1A25299  19.873  20.625   8.550
 5101POPC   D2A25300  19.792  20.569   8.250
 5101POPC   C3A25301  19.848  20.580   7.950
 5101POPC   C4A25302  19.842  20.596   7.650
 5101POPC   C1B25303  20.053  20.739   8.550
 5101POPC   C2B25304  20.069  20.690   8.250
 5101POPC   C3B25305  20.024  20.775   7.950
 5101POPC   C4B25306  20.081  20.710   7.650
 5102POPC   NC325307  31.509  37.640   9.450
 5102POPC   PO425308  31.450  37.658   9.150
 5102POPC   GL125309  31.511  37.657   8.850
 5102POPC   GL225310  31.327  37.647   8.850
 5102POPC   C1A25311  31.502  37.707   8.550
 5102POPC   D2A25312  31.465  37.721   8.250
 5102POPC   C3A25313  31.500  37.670   7.950
 5102POPC   C4A25314  31.494  37.636   7.650
 5102POPC   C1B25315  31.263  37.568   8.550
 5102POPC   C2B25316  31.263  37.630   8.250
 5102POPC   C3B25317  31.208  37.555   7.950
 5102POPC   C4B25318  31.283  37.577   7.650
 5103POPC   NC325319   6.665  43.108   9.450
 5103POPC   PO425320   6.659  43.112   9.150
 5103POPC   GL125321   6.678  43.125   8.850
 5103POPC   GL225322   6.569  43.188   8.850
 5103POPC   C1A25323   6.626  43.062   8.550
 5103POPC   D2A25324   6.658  43.130   8.250
 5103POPC   C3A25325   6.650  43.147   7.950
 5103POPC   C4A25326   6.672  43.083   7.650
 5103POPC   C1B25327   6.456  43.263   8.550
 5103POPC   C2B25328   6.515  43.273   8.250
 5103POPC   C3B25329   6.519  43.327   7.950
 5103POPC   C4B25330   6.478  43.305   7.650
 5104POPC   NC325331  30.721  31.481   9.450
 5104POPC   PO425332  30.715  31.490   9.150
 5104POPC   GL125333  30.659  31.483   8.850
 5104POPC   GL225334  30.786  31.343   8.850
 5104POPC   C1A25335  30.665  31.468   8.550
 5104POPC   D2A25336  30.715  31.439   8.250
 5104POPC   C3A25337  30.719  31.467   7.950
 5104POPC   C4A25338  30.715  31.471   7.650
 5104POPC   C1B25339  30.767  31.236   8.550
 5104POPC   C2B25340  30.779  31.224   8.250
 5104POPC   C3B25341  30.749  31.222   7.950
 5104POPC   C4B25342  30.813  31.258   7.650
 5105POPC   NC325343  10.573  14.386   9.450
 5105POPC   PO425344  10.540  14.428   9.150
 5105POPC   GL125345  10.493  14.442   8.850
 5105POPC   GL225346  10.469  14.491   8.850
 5105POPC   C1A25347  10.490  14.387   8.550
 5105POPC   D2A25348  10.568  14.439   8.250
 5105POPC   C3A25349  10.486  14.367   7.950
 5105POPC   C4A25350  10.533  14.386   7.650
 5105POPC   C1B25351  10.362  14.598   8.550
 5105POPC   C2B25352  10.347  14.546   8.250
 5105POPC   C3B25353  10.388  14.623   7.950
 5105POPC   C4B25354  10.356  14.598   7.650
 5106POPC   NC325355  40.743   9.021   9.450
 5106POPC   PO425356  40.754   8.981   9.150
 5106POPC   GL125357  40.787   8.996   8.850
 5106POPC   GL225358  40.734   9.049   8.850
 5106POPC   C1A25359  40.745   8.975   8.550
 5106POPC   D2A25360  40.801   8.951   8.250
 5106POPC   C3A25361  40.805   9.010   7.950
 5106POPC   C4A25362  40.766   8.948   7.650
 5106POPC   C1B25363  40.739   9.261   8.550
 5106POPC   C2B25364  40.789   9.210   8.250
 5106POPC   C3B25365  40.815   9.267   7.950
 5106POPC   C4B25366  40.762   9.259   7.650
 5107POPC   NC325367  32.270  15.136   9.450
 5107POPC   PO425368  32.253  15.193   9.150
 5107POPC   GL125369  32.260  15.133   8.850
 5107POPC   GL225370  32.338  15.314   8.850
 5107POPC   C1A25371  32.201  15.188   8.550
 5107POPC   D2A25372  32.209  15.195   8.250
 5107POPC   C3A25373  32.284  15.200   7.950
 5107POPC   C4A25374  32.221  15.229   7.650
 5107POPC   C1B25375  32.351  15.414   8.550
 5107POPC   C2B25376  32.401  15.367   8.250
 5107POPC   C3B25377  32.391  15.421   7.950
 5107POPC   C4B25378  32.354  15.392   7.650
 5108POPC   NC325379  25.293   9.013   9.450
 5108POPC   PO425380  25.221   9.022   9.150
 5108POPC   GL125381  25.280   8.976   8.850
 5108POPC   GL225382  25.193   9.087   8.850
 5108POPC   C1A25383  25.282   8.974   8.550
 5108POPC   D2A25384  25.244   8.923   8.250
 5108POPC   C3A25385  25.231   8.939   7.950
 5108POPC   C4A25386  25.303   8.974   7.650
 5108POPC   C1B25387  25.185   9.171   8.550
 5108POPC   C2B25388  25.172   9.205   8.250
 5108POPC   C3B25389  25.161   9.163   7.950
 5108POPC   C4B25390  25.163   9.187   7.650
 5109POPC   NC325391  20.624  29.874   9.450
 5109POPC   PO425392  20.609  29.960   9.150
 5109POPC   GL125393  20.660  29.892   8.850
 5109POPC   GL225394  20.632  29.810   8.850
 5109POPC   C1A25395  20.588  29.966   8.550
 5109POPC   D2A25396  20.594  29.946   8.250
 5109POPC   C3A25397  20.594  29.967   7.950
 5109POPC   C4A25398  20.598  29.944   7.650
 5109POPC   C1B25399  20.572  29.627   8.550
 5109POPC   C2B25400  20.553  29.649   8.250
 5109POPC   C3B25401  20.577  29.669   7.950
 5109POPC   C4B25402  20.625  29.696   7.650
 5110POPC   NC325403  23.693   9.797   9.450
 5110POPC   PO425404  23.741   9.785   9.150
 5110POPC   GL125405  23.703   9.761   8.850
 5110POPC   GL225406  23.849   9.635   8.850
 5110POPC   C1A25407  23.681   9.741   8.550
 5110POPC   D2A25408  23.706   9.717   8.250
 5110POPC   C3A25409  23.721   9.723   7.950
 5110POPC   C4A25410  23.698   9.735   7.650
 5110POPC   C1B25411  23.839   9.597   8.550
 5110POPC   C2B25412  23.891   9.604   8.250
 5110POPC   C3B25413  23.875   9.547   7.950
 5110POPC   C4B25414  23.933   9.547   7.650
 5111POPC   NC325415   7.430   1.239   9.450
 5111POPC   PO425416   7.393   1.242   9.150
 5111POPC   GL125417   7.470   1.222   8.850
 5111POPC   GL225418   7.315   1.300   8.850
 5111POPC   C1A25419   7.394   1.247   8.550
 5111POPC   D2A25420   7.377   1.230   8.250
 5111POPC   C3A25421   7.379   1.258   7.950
 5111POPC   C4A25422   7.380   1.177   7.650
 5111POPC   C1B25423   7.250   1.349   8.550
 5111POPC   C2B25424   7.206   1.382   8.250
 5111POPC   C3B25425   7.263   1.370   7.950
 5111POPC   C4B25426   7.193   1.312   7.650
 5112POPC   NC325427   6.692  38.478   9.450
 5112POPC   PO425428   6.620  38.482   9.150
 5112POPC   GL125429   6.693  38.504   8.850
 5112POPC   GL225430   6.627  38.602   8.850
 5112POPC   C1A25431   6.676  38.442   8.550
 5112POPC   D2A25432   6.677  38.448   8.250
 5112POPC   C3A25433   6.646  38.487   7.950
 5112POPC   C4A25434   6.672  38.407   7.650
 5112POPC   C1B25435   6.614  38.693   8.550
 5112POPC   C2B25436   6.612  38.716   8.250
 5112POPC   C3B25437   6.673  38.753   7.950
 5112POPC   C4B25438   6.632  38.735   7.650
 5113POPC   NC325439  28.367   5.877   9.450
 5113POPC   PO425440  28.371   5.825   9.150
 5113POPC   GL125441  28.354   5.856   8.850
 5113POPC   GL225442  28.280   5.854   8.850
 5113POPC   C1A25443  28.321   5.879   8.550
 5113POPC   D2A25444  28.333   5.819   8.250
 5113POPC   C3A25445  28.400   5.856   7.950
 5113POPC   C4A25446  28.411   5.853   7.650
 5113POPC   C1B25447  28.160   5.822   8.550
 5113POPC   C2B25448  28.134   5.754   8.250
 5113POPC   C3B25449  28.180   5.826   7.950
 5113POPC   C4B25450  28.099   5.739   7.650
 5114POPC   NC325451  37.641  26.794   9.450
 5114POPC   PO425452  37.726  26.790   9.150
 5114POPC   GL125453  37.677  26.800   8.850
 5114POPC   GL225454  37.770  26.741   8.850
 5114POPC   C1A25455  37.711  26.863   8.550
 5114POPC   D2A25456  37.722  26.806   8.250
 5114POPC   C3A25457  37.643  26.800   7.950
 5114POPC   C4A25458  37.659  26.833   7.650
 5114POPC   C1B25459  37.834  26.641   8.550
 5114POPC   C2B25460  37.829  26.614   8.250
 5114POPC   C3B25461  37.829  26.597   7.950
 5114POPC   C4B25462  37.763  26.606   7.650
 5115POPC   NC325463   9.016  19.818   9.450
 5115POPC   PO425464   8.959  19.843   9.150
 5115POPC   GL125465   8.990  19.880   8.850
 5115POPC   GL225466   8.899  19.992   8.850
 5115POPC   C1A25467   8.936  19.792   8.550
 5115POPC   D2A25468   8.938  19.859   8.250
 5115POPC   C3A25469   8.984  19.852   7.950
 5115POPC   C4A25470   8.965  19.861   7.650
 5115POPC   C1B25471   8.841  20.047   8.550
 5115POPC   C2B25472   8.821  20.058   8.250
 5115POPC   C3B25473   8.889  20.054   7.950
 5115POPC   C4B25474   8.863  20.036   7.650
 5116POPC   NC325475  26.086  24.454   9.450
 5116POPC   PO425476  26.091  24.494   9.150
 5116POPC   GL125477  26.015  24.529   8.850
 5116POPC   GL225478  26.034  24.397   8.850
 5116POPC   C1A25479  26.045  24.455   8.550
 5116POPC   D2A25480  26.029  24.501   8.250
 5116POPC   C3A25481  26.049  24.483   7.950
 5116POPC   C4A25482  26.084  24.451   7.650
 5116POPC   C1B25483  26.081  24.204   8.550
 5116POPC   C2B25484  26.060  24.220   8.250
 5116POPC   C3B25485  26.060  24.237   7.950
 5116POPC   C4B25486  26.089  24.269   7.650
 5117POPC   NC325487  19.052  22.117   9.450
 5117POPC   PO425488  19.016  22.198   9.150
 5117POPC   GL125489  19.075  22.198   8.850
 5117POPC   GL225490  19.183  22.205   8.850
 5117POPC   C1A25491  19.044  22.142   8.550
 5117POPC   D2A25492  19.050  22.152   8.250
 5117POPC   C3A25493  19.042  22.181   7.950
 5117POPC   C4A25494  19.072  22.121   7.650
 5117POPC   C1B25495  19.270  22.277   8.550
 5117POPC   C2B25496  19.289  22.270   8.250
 5117POPC   C3B25497  19.309  22.349   7.950
 5117POPC   C4B25498  19.273  22.320   7.650
 5118POPC   NC325499  12.899  31.471   9.450
 5118POPC   PO425500  12.809  31.473   9.150
 5118POPC   GL125501  12.831  31.456   8.850
 5118POPC   GL225502  12.915  31.381   8.850
 5118POPC   C1A25503  12.841  31.486   8.550
 5118POPC   D2A25504  12.807  31.435   8.250
 5118POPC   C3A25505  12.836  31.451   7.950
 5118POPC   C4A25506  12.854  31.426   7.650
 5118POPC   C1B25507  12.941  31.196   8.550
 5118POPC   C2B25508  12.935  31.205   8.250
 5118POPC   C3B25509  12.911  31.266   7.950
 5118POPC   C4B25510  12.900  31.182   7.650
 5119POPC   NC325511   0.429  28.323   9.450
 5119POPC   PO425512   0.442  28.372   9.150
 5119POPC   GL125513   0.440  28.383   8.850
 5119POPC   GL225514   0.580  28.255   8.850
 5119POPC   C1A25515   0.445  28.320   8.550
 5119POPC   D2A25516   0.421  28.367   8.250
 5119POPC   C3A25517   0.406  28.324   7.950
 5119POPC   C4A25518   0.486  28.403   7.650
 5119POPC   C1B25519   0.601  28.181   8.550
 5119POPC   C2B25520   0.609  28.200   8.250
 5119POPC   C3B25521   0.678  28.226   7.950
 5119POPC   C4B25522   0.648  28.207   7.650
 5120POPC   NC325523  10.549  10.476   9.450
 5120POPC   PO425524  10.491  10.553   9.150
 5120POPC   GL125525  10.546  10.511   8.850
 5120POPC   GL225526  10.392  10.471   8.850
 5120POPC   C1A25527  10.568  10.514   8.550
 5120POPC   D2A25528  10.511  10.511   8.250
 5120POPC   C3A25529  10.492  10.486   7.950
 5120POPC   C4A25530  10.525  10.510   7.650
 5120POPC   C1B25531  10.250  10.503   8.550
 5120POPC   C2B25532  10.259  10.497   8.250
 5120POPC   C3B25533  10.249  10.534   7.950
 5120POPC   C4B25534  10.301  10.510   7.650
 5121POPC   NC325535  18.248   5.051   9.450
 5121POPC   PO425536  18.241   5.127   9.150
 5121POPC   GL125537  18.303   5.082   8.850
 5121POPC   GL225538  18.291   5.201   8.850
 5121POPC   C1A25539  18.297   5.137   8.550
 5121POPC   D2A25540  18.309   5.097   8.250
 5121POPC   C3A25541  18.257   5.141   7.950
 5121POPC   C4A25542  18.306   5.049   7.650
 5121POPC   C1B25543  18.204   5.338   8.550
 5121POPC   C2B25544  18.215   5.338   8.250
 5121POPC   C3B25545  18.271   5.355   7.950
 5121POPC   C4B25546  18.223   5.327   7.650
 5122POPC   NC325547  11.252   5.823   9.450
 5122POPC   PO425548  11.322   5.910   9.150
 5122POPC   GL125549  11.266   5.909   8.850
 5122POPC   GL225550  11.392   5.952   8.850
 5122POPC   C1A25551  11.306   5.851   8.550
 5122POPC   D2A25552  11.337   5.896   8.250
 5122POPC   C3A25553  11.291   5.857   7.950
 5122POPC   C4A25554  11.325   5.867   7.650
 5122POPC   C1B25555  11.498   5.998   8.550
 5122POPC   C2B25556  11.452   6.032   8.250
 5122POPC   C3B25557  11.463   5.998   7.950
 5122POPC   C4B25558  11.484   6.024   7.650
 5123POPC   NC325559  19.851  31.500   9.450
 5123POPC   PO425560  19.785  31.429   9.150
 5123POPC   GL125561  19.816  31.465   8.850
 5123POPC   GL225562  19.704  31.393   8.850
 5123POPC   C1A25563  19.821  31.509   8.550
 5123POPC   D2A25564  19.861  31.472   8.250
 5123POPC   C3A25565  19.795  31.517   7.950
 5123POPC   C4A25566  19.868  31.479   7.650
 5123POPC   C1B25567  19.661  31.336   8.550
 5123POPC   C2B25568  19.641  31.362   8.250
 5123POPC   C3B25569  19.582  31.339   7.950
 5123POPC   C4B25570  19.654  31.395   7.650
 5124POPC   NC325571  26.779  22.967   9.450
 5124POPC   PO425572  26.811  22.921   9.150
 5124POPC   GL125573  26.830  22.966   8.850
 5124POPC   GL225574  26.858  22.768   8.850
 5124POPC   C1A25575  26.823  22.902   8.550
 5124POPC   D2A25576  26.834  22.896   8.250
 5124POPC   C3A25577  26.863  22.936   7.950
 5124POPC   C4A25578  26.838  22.903   7.650
 5124POPC   C1B25579  26.832  22.726   8.550
 5124POPC   C2B25580  26.826  22.695   8.250
 5124POPC   C3B25581  26.872  22.736   7.950
 5124POPC   C4B25582  26.860  22.663   7.650
 5125POPC   NC325583  37.639  10.506   9.450
 5125POPC   PO425584  37.668  10.507   9.150
 5125POPC   GL125585  37.714  10.566   8.850
 5125POPC   GL225586  37.598  10.493   8.850
 5125POPC   C1A25587  37.647  10.543   8.550
 5125POPC   D2A25588  37.689  10.512   8.250
 5125POPC   C3A25589  37.717  10.529   7.950
 5125POPC   C4A25590  37.696  10.517   7.650
 5125POPC   C1B25591  37.414  10.453   8.550
 5125POPC   C2B25592  37.393  10.426   8.250
 5125POPC   C3B25593  37.392  10.424   7.950
 5125POPC   C4B25594  37.414  10.493   7.650
 5126POPC   NC325595   2.765   8.244   9.450
 5126POPC   PO425596   2.815   8.150   9.150
 5126POPC   GL125597   2.806   8.220   8.850
 5126POPC   GL225598   2.788   8.338   8.850
 5126POPC   C1A25599   2.737   8.219   8.550
 5126POPC   D2A25600   2.813   8.205   8.250
 5126POPC   C3A25601   2.777   8.213   7.950
 5126POPC   C4A25602   2.727   8.231   7.650
 5126POPC   C1B25603   2.902   8.373   8.550
 5126POPC   C2B25604   2.941   8.418   8.250
 5126POPC   C3B25605   2.916   8.377   7.950
 5126POPC   C4B25606   2.938   8.462   7.650
 5127POPC   NC325607  37.680  22.204   9.450
 5127POPC   PO425608  37.677  22.168   9.150
 5127POPC   GL125609  37.695  22.173   8.850
 5127POPC   GL225610  37.544  22.186   8.850
 5127POPC   C1A25611  37.664  22.156   8.550
 5127POPC   D2A25612  37.645  22.188   8.250
 5127POPC   C3A25613  37.654  22.147   7.950
 5127POPC   C4A25614  37.678  22.161   7.650
 5127POPC   C1B25615  37.424  22.179   8.550
 5127POPC   C2B25616  37.426  22.187   8.250
 5127POPC   C3B25617  37.475  22.228   7.950
 5127POPC   C4B25618  37.479  22.224   7.650
 5128POPC   NC325619  25.303  36.854   9.450
 5128POPC   PO425620  25.298  36.940   9.150
 5128POPC   GL125621  25.242  36.875   8.850
 5128POPC   GL225622  25.335  36.989   8.850
 5128POPC   C1A25623  25.234  36.895   8.550
 5128POPC   D2A25624  25.270  36.927   8.250
 5128POPC   C3A25625  25.285  36.928   7.950
 5128POPC   C4A25626  25.216  36.926   7.650
 5128POPC   C1B25627  25.535  36.940   8.550
 5128POPC   C2B25628  25.493  36.957   8.250
 5128POPC   C3B25629  25.539  36.940   7.950
 5128POPC   C4B25630  25.549  36.934   7.650
 5129POPC   NC325631  12.099  42.349   9.450
 5129POPC   PO425632  12.118  42.325   9.150
 5129POPC   GL125633  12.098  42.353   8.850
 5129POPC   GL225634  12.068  42.469   8.850
 5129POPC   C1A25635  12.054  42.349   8.550
 5129POPC   D2A25636  12.042  42.373   8.250
 5129POPC   C3A25637  12.103  42.309   7.950
 5129POPC   C4A25638  12.087  42.314   7.650
 5129POPC   C1B25639  12.026  42.540   8.550
 5129POPC   C2B25640  12.047  42.583   8.250
 5129POPC   C3B25641  12.062  42.605   7.950
 5129POPC   C4B25642  12.021  42.581   7.650
 5130POPC   NC325643  24.448   2.748   9.450
 5130POPC   PO425644  24.536   2.771   9.150
 5130POPC   GL125645  24.521   2.721   8.850
 5130POPC   GL225646  24.466   2.632   8.850
 5130POPC   C1A25647  24.476   2.815   8.550
 5130POPC   D2A25648  24.522   2.727   8.250
 5130POPC   C3A25649  24.517   2.719   7.950
 5130POPC   C4A25650  24.511   2.762   7.650
 5130POPC   C1B25651  24.387   2.556   8.550
 5130POPC   C2B25652  24.396   2.560   8.250
 5130POPC   C3B25653  24.370   2.504   7.950
 5130POPC   C4B25654  24.336   2.549   7.650
 5131POPC   NC325655  30.663  15.909   9.450
 5131POPC   PO425656  30.701  15.906   9.150
 5131POPC   GL125657  30.688  15.925   8.850
 5131POPC   GL225658  30.588  15.889   8.850
 5131POPC   C1A25659  30.647  15.931   8.550
 5131POPC   D2A25660  30.729  15.944   8.250
 5131POPC   C3A25661  30.709  15.926   7.950
 5131POPC   C4A25662  30.667  15.921   7.650
 5131POPC   C1B25663  30.549  15.771   8.550
 5131POPC   C2B25664  30.563  15.752   8.250
 5131POPC   C3B25665  30.596  15.777   7.950
 5131POPC   C4B25666  30.514  15.736   7.650
 5132POPC   NC325667  12.807   5.122   9.450
 5132POPC   PO425668  12.833   5.109   9.150
 5132POPC   GL125669  12.878   5.101   8.850
 5132POPC   GL225670  12.896   5.249   8.850
 5132POPC   C1A25671  12.880   5.050   8.550
 5132POPC   D2A25672  12.804   5.061   8.250
 5132POPC   C3A25673  12.860   5.140   7.950
 5132POPC   C4A25674  12.834   5.116   7.650
 5132POPC   C1B25675  12.969   5.373   8.550
 5132POPC   C2B25676  12.942   5.322   8.250
 5132POPC   C3B25677  12.942   5.334   7.950
 5132POPC   C4B25678  12.905   5.321   7.650
 5133POPC   NC325679  20.636  36.878   9.450
 5133POPC   PO425680  20.570  36.892   9.150
 5133POPC   GL125681  20.656  36.933   8.850
 5133POPC   GL225682  20.486  37.020   8.850
 5133POPC   C1A25683  20.592  36.933   8.550
 5133POPC   D2A25684  20.585  36.893   8.250
 5133POPC   C3A25685  20.609  36.932   7.950
 5133POPC   C4A25686  20.565  36.945   7.650
 5133POPC   C1B25687  20.485  37.116   8.550
 5133POPC   C2B25688  20.478  37.071   8.250
 5133POPC   C3B25689  20.502  37.137   7.950
 5133POPC   C4B25690  20.422  37.087   7.650
 5134POPC   NC325691  29.874  38.454   9.450
 5134POPC   PO425692  29.940  38.466   9.150
 5134POPC   GL125693  29.888  38.449   8.850
 5134POPC   GL225694  29.833  38.491   8.850
 5134POPC   C1A25695  29.924  38.480   8.550
 5134POPC   D2A25696  29.890  38.453   8.250
 5134POPC   C3A25697  29.929  38.434   7.950
 5134POPC   C4A25698  29.938  38.492   7.650
 5134POPC   C1B25699  29.677  38.505   8.550
 5134POPC   C2B25700  29.671  38.529   8.250
 5134POPC   C3B25701  29.710  38.505   7.950
 5134POPC   C4B25702  29.715  38.544   7.650
 5135POPC   NC325703  41.522  36.886   9.450
 5135POPC   PO425704  41.604  36.924   9.150
 5135POPC   GL125705  41.565  36.951   8.850
 5135POPC   GL225706  41.643  36.821   8.850
 5135POPC   C1A25707  41.593  36.936   8.550
 5135POPC   D2A25708  41.527  36.913   8.250
 5135POPC   C3A25709  41.524  36.887   7.950
 5135POPC   C4A25710  41.536  36.855   7.650
 5135POPC   C1B25711  41.713  36.781   8.550
 5135POPC   C2B25712  41.730  36.719   8.250
 5135POPC   C3B25713  41.712  36.790   7.950
 5135POPC   C4B25714  41.700  36.789   7.650
 5136POPC   NC325715  25.991   4.311   9.450
 5136POPC   PO425716  26.003   4.285   9.150
 5136POPC   GL125717  26.038   4.306   8.850
 5136POPC   GL225718  26.141   4.473   8.850
 5136POPC   C1A25719  26.073   4.339   8.550
 5136POPC   D2A25720  25.995   4.333   8.250
 5136POPC   C3A25721  25.997   4.337   7.950
 5136POPC   C4A25722  26.030   4.278   7.650
 5136POPC   C1B25723  26.193   4.574   8.550
 5136POPC   C2B25724  26.120   4.514   8.250
 5136POPC   C3B25725  26.164   4.533   7.950
 5136POPC   C4B25726  26.120   4.496   7.650
 5137POPC   NC325727  12.110   5.130   9.450
 5137POPC   PO425728  12.089   5.089   9.150
 5137POPC   GL125729  12.079   5.055   8.850
 5137POPC   GL225730  11.955   5.113   8.850
 5137POPC   C1A25731  12.067   5.136   8.550
 5137POPC   D2A25732  12.049   5.063   8.250
 5137POPC   C3A25733  12.100   5.049   7.950
 5137POPC   C4A25734  12.079   5.054   7.650
 5137POPC   C1B25735  11.803   5.120   8.550
 5137POPC   C2B25736  11.871   5.120   8.250
 5137POPC   C3B25737  11.799   5.168   7.950
 5137POPC   C4B25738  11.795   5.102   7.650
 5138POPC   NC325739  36.150  31.424   9.450
 5138POPC   PO425740  36.125  31.458   9.150
 5138POPC   GL125741  36.089  31.458   8.850
 5138POPC   GL225742  36.262  31.498   8.850
 5138POPC   C1A25743  36.090  31.458   8.550
 5138POPC   D2A25744  36.084  31.473   8.250
 5138POPC   C3A25745  36.148  31.515   7.950
 5138POPC   C4A25746  36.125  31.432   7.650
 5138POPC   C1B25747  36.394  31.538   8.550
 5138POPC   C2B25748  36.373  31.522   8.250
 5138POPC   C3B25749  36.353  31.526   7.950
 5138POPC   C4B25750  36.373  31.584   7.650
 5139POPC   NC325751  16.765  29.955   9.450
 5139POPC   PO425752  16.770  29.877   9.150
 5139POPC   GL125753  16.780  29.964   8.850
 5139POPC   GL225754  16.650  29.950   8.850
 5139POPC   C1A25755  16.706  29.938   8.550
 5139POPC   D2A25756  16.754  29.955   8.250
 5139POPC   C3A25757  16.747  29.873   7.950
 5139POPC   C4A25758  16.713  29.951   7.650
 5139POPC   C1B25759  16.520  30.013   8.550
 5139POPC   C2B25760  16.483  30.037   8.250
 5139POPC   C3B25761  16.490  30.017   7.950
 5139POPC   C4B25762  16.458  29.962   7.650
 5140POPC   NC325763  11.278  19.081   9.450
 5140POPC   PO425764  11.343  19.010   9.150
 5140POPC   GL125765  11.348  19.108   8.850
 5140POPC   GL225766  11.376  19.200   8.850
 5140POPC   C1A25767  11.262  19.099   8.550
 5140POPC   D2A25768  11.250  19.088   8.250
 5140POPC   C3A25769  11.282  19.043   7.950
 5140POPC   C4A25770  11.287  19.025   7.650
 5140POPC   C1B25771  11.370  19.283   8.550
 5140POPC   C2B25772  11.322  19.275   8.250
 5140POPC   C3B25773  11.418  19.265   7.950
 5140POPC   C4B25774  11.397  19.261   7.650
 5141POPC   NC325775  39.240   2.772   9.450
 5141POPC   PO425776  39.206   2.751   9.150
 5141POPC   GL125777  39.236   2.773   8.850
 5141POPC   GL225778  39.314   2.827   8.850
 5141POPC   C1A25779  39.214   2.756   8.550
 5141POPC   D2A25780  39.236   2.746   8.250
 5141POPC   C3A25781  39.229   2.795   7.950
 5141POPC   C4A25782  39.184   2.779   7.650
 5141POPC   C1B25783  39.447   2.931   8.550
 5141POPC   C2B25784  39.382   2.925   8.250
 5141POPC   C3B25785  39.405   2.876   7.950
 5141POPC   C4B25786  39.410   2.935   7.650
 5142POPC   NC325787  39.280  36.130   9.450
 5142POPC   PO425788  39.225  36.121   9.150
 5142POPC   GL125789  39.195  36.078   8.850
 5142POPC   GL225790  39.120  36.249   8.850
 5142POPC   C1A25791  39.201  36.089   8.550
 5142POPC   D2A25792  39.250  36.083   8.250
 5142POPC   C3A25793  39.214  36.141   7.950
 5142POPC   C4A25794  39.203  36.079   7.650
 5142POPC   C1B25795  39.093  36.370   8.550
 5142POPC   C2B25796  39.050  36.313   8.250
 5142POPC   C3B25797  39.090  36.365   7.950
 5142POPC   C4B25798  39.102  36.293   7.650
 5143POPC   NC325799  10.512  43.848   9.450
 5143POPC   PO425800  10.488  43.924   9.150
 5143POPC   GL125801  10.487  43.932   8.850
 5143POPC   GL225802  10.360  43.884   8.850
 5143POPC   C1A25803  10.514  43.905   8.550
 5143POPC   D2A25804  10.521  43.924   8.250
 5143POPC   C3A25805  10.562  43.931   7.950
 5143POPC   C4A25806  10.520  43.883   7.650
 5143POPC   C1B25807  10.228  43.874   8.550
 5143POPC   C2B25808  10.303  43.881   8.250
 5143POPC   C3B25809  10.310  43.894   7.950
 5143POPC   C4B25810  10.236  43.905   7.650
 5144POPC   NC325811  15.206  19.055   9.450
 5144POPC   PO425812  15.186  19.010   9.150
 5144POPC   GL125813  15.196  19.033   8.850
 5144POPC   GL225814  15.108  19.043   8.850
 5144POPC   C1A25815  15.174  19.032   8.550
 5144POPC   D2A25816  15.168  19.011   8.250
 5144POPC   C3A25817  15.168  19.078   7.950
 5144POPC   C4A25818  15.134  19.011   7.650
 5144POPC   C1B25819  14.960  18.926   8.550
 5144POPC   C2B25820  14.983  18.919   8.250
 5144POPC   C3B25821  14.949  18.948   7.950
 5144POPC   C4B25822  14.994  18.982   7.650
 5145POPC   NC325823  33.828  35.355   9.450
 5145POPC   PO425824  33.843  35.343   9.150
 5145POPC   GL125825  33.784  35.394   8.850
 5145POPC   GL225826  33.834  35.264   8.850
 5145POPC   C1A25827  33.779  35.306   8.550
 5145POPC   D2A25828  33.818  35.318   8.250
 5145POPC   C3A25829  33.777  35.373   7.950
 5145POPC   C4A25830  33.772  35.384   7.650
 5145POPC   C1B25831  33.901  35.136   8.550
 5145POPC   C2B25832  33.903  35.146   8.250
 5145POPC   C3B25833  33.822  35.149   7.950
 5145POPC   C4B25834  33.906  35.093   7.650
 5146POPC   NC325835  26.024  21.362   9.450
 5146POPC   PO425836  26.069  21.376   9.150
 5146POPC   GL125837  26.053  21.398   8.850
 5146POPC   GL225838  25.876  21.335   8.850
 5146POPC   C1A25839  26.018  21.374   8.550
 5146POPC   D2A25840  26.021  21.380   8.250
 5146POPC   C3A25841  26.020  21.413   7.950
 5146POPC   C4A25842  26.066  21.430   7.650
 5146POPC   C1B25843  25.822  21.383   8.550
 5146POPC   C2B25844  25.799  21.340   8.250
 5146POPC   C3B25845  25.794  21.386   7.950
 5146POPC   C4B25846  25.810  21.364   7.650
 5147POPC   NC325847  35.316  25.217   9.450
 5147POPC   PO425848  35.356  25.266   9.150
 5147POPC   GL125849  35.398  25.250   8.850
 5147POPC   GL225850  35.455  25.238   8.850
 5147POPC   C1A25851  35.375  25.285   8.550
 5147POPC   D2A25852  35.343  25.222   8.250
 5147POPC   C3A25853  35.304  25.233   7.950
 5147POPC   C4A25854  35.371  25.284   7.650
 5147POPC   C1B25855  35.566  25.208   8.550
 5147POPC   C2B25856  35.643  25.205   8.250
 5147POPC   C3B25857  35.558  25.211   7.950
 5147POPC   C4B25858  35.599  25.194   7.650
 5148POPC   NC325859  18.245   3.520   9.450
 5148POPC   PO425860  18.281   3.512   9.150
 5148POPC   GL125861  18.273   3.519   8.850
 5148POPC   GL225862  18.447   3.513   8.850
 5148POPC   C1A25863  18.263   3.501   8.550
 5148POPC   D2A25864  18.285   3.551   8.250
 5148POPC   C3A25865  18.291   3.509   7.950
 5148POPC   C4A25866  18.301   3.575   7.650
 5148POPC   C1B25867  18.540   3.557   8.550
 5148POPC   C2B25868  18.524   3.500   8.250
 5148POPC   C3B25869  18.495   3.567   7.950
 5148POPC   C4B25870  18.566   3.482   7.650
 5149POPC   NC325871  40.748  30.726   9.450
 5149POPC   PO425872  40.801  30.724   9.150
 5149POPC   GL125873  40.814  30.724   8.850
 5149POPC   GL225874  40.910  30.740   8.850
 5149POPC   C1A25875  40.803  30.713   8.550
 5149POPC   D2A25876  40.825  30.711   8.250
 5149POPC   C3A25877  40.819  30.697   7.950
 5149POPC   C4A25878  40.787  30.734   7.650
 5149POPC   C1B25879  40.908  30.835   8.550
 5149POPC   C2B25880  40.940  30.897   8.250
 5149POPC   C3B25881  40.908  30.924   7.950
 5149POPC   C4B25882  41.002  30.900   7.650
 5150POPC   NC325883  40.030   5.120   9.450
 5150POPC   PO425884  40.015   5.056   9.150
 5150POPC   GL125885  39.978   5.062   8.850
 5150POPC   GL225886  40.004   5.247   8.850
 5150POPC   C1A25887  39.998   5.050   8.550
 5150POPC   D2A25888  39.964   5.112   8.250
 5150POPC   C3A25889  40.046   5.045   7.950
 5150POPC   C4A25890  39.987   5.107   7.650
 5150POPC   C1B25891  40.125   5.374   8.550
 5150POPC   C2B25892  40.034   5.310   8.250
 5150POPC   C3B25893  40.120   5.362   7.950
 5150POPC   C4B25894  40.045   5.342   7.650
 5151POPC   NC325895   5.887  29.932   9.450
 5151POPC   PO425896   5.863  29.915   9.150
 5151POPC   GL125897   5.909  29.932   8.850
 5151POPC   GL225898   5.799  29.992   8.850
 5151POPC   C1A25899   5.908  29.943   8.550
 5151POPC   D2A25900   5.823  29.959   8.250
 5151POPC   C3A25901   5.868  29.926   7.950
 5151POPC   C4A25902   5.882  29.876   7.650
 5151POPC   C1B25903   5.778  30.152   8.550
 5151POPC   C2B25904   5.731  30.166   8.250
 5151POPC   C3B25905   5.731  30.161   7.950
 5151POPC   C4B25906   5.723  30.124   7.650
 5152POPC   NC325907  38.499  16.726   9.450
 5152POPC   PO425908  38.414  16.697   9.150
 5152POPC   GL125909  38.458  16.770   8.850
 5152POPC   GL225910  38.369  16.658   8.850
 5152POPC   C1A25911  38.470  16.762   8.550
 5152POPC   D2A25912  38.429  16.692   8.250
 5152POPC   C3A25913  38.477  16.738   7.950
 5152POPC   C4A25914  38.462  16.736   7.650
 5152POPC   C1B25915  38.201  16.730   8.550
 5152POPC   C2B25916  38.211  16.726   8.250
 5152POPC   C3B25917  38.168  16.685   7.950
 5152POPC   C4B25918  38.203  16.635   7.650
 5153POPC   NC325919  20.607  39.248   9.450
 5153POPC   PO425920  20.632  39.248   9.150
 5153POPC   GL125921  20.561  39.190   8.850
 5153POPC   GL225922  20.521  39.183   8.850
 5153POPC   C1A25923  20.606  39.248   8.550
 5153POPC   D2A25924  20.562  39.235   8.250
 5153POPC   C3A25925  20.654  39.227   7.950
 5153POPC   C4A25926  20.613  39.268   7.650
 5153POPC   C1B25927  20.412  39.088   8.550
 5153POPC   C2B25928  20.400  39.137   8.250
 5153POPC   C3B25929  20.380  39.118   7.950
 5153POPC   C4B25930  20.345  39.166   7.650
 5154POPC   NC325931  35.346   4.360   9.450
 5154POPC   PO425932  35.346   4.363   9.150
 5154POPC   GL125933  35.305   4.279   8.850
 5154POPC   GL225934  35.435   4.405   8.850
 5154POPC   C1A25935  35.337   4.334   8.550
 5154POPC   D2A25936  35.320   4.309   8.250
 5154POPC   C3A25937  35.381   4.312   7.950
 5154POPC   C4A25938  35.340   4.318   7.650
 5154POPC   C1B25939  35.530   4.495   8.550
 5154POPC   C2B25940  35.544   4.453   8.250
 5154POPC   C3B25941  35.538   4.481   7.950
 5154POPC   C4B25942  35.548   4.466   7.650
 5155POPC   NC325943  27.637  21.374   9.450
 5155POPC   PO425944  27.636  21.395   9.150
 5155POPC   GL125945  27.632  21.339   8.850
 5155POPC   GL225946  27.610  21.534   8.850
 5155POPC   C1A25947  27.571  21.342   8.550
 5155POPC   D2A25948  27.627  21.420   8.250
 5155POPC   C3A25949  27.561  21.400   7.950
 5155POPC   C4A25950  27.574  21.421   7.650
 5155POPC   C1B25951  27.682  21.589   8.550
 5155POPC   C2B25952  27.660  21.600   8.250
 5155POPC   C3B25953  27.616  21.607   7.950
 5155POPC   C4B25954  27.621  21.670   7.650
 5156POPC   NC325955  22.180   6.642   9.450
 5156POPC   PO425956  22.210   6.662   9.150
 5156POPC   GL125957  22.195   6.655   8.850
 5156POPC   GL225958  22.127   6.763   8.850
 5156POPC   C1A25959  22.200   6.682   8.550
 5156POPC   D2A25960  22.177   6.617   8.250
 5156POPC   C3A25961  22.187   6.660   7.950
 5156POPC   C4A25962  22.154   6.604   7.650
 5156POPC   C1B25963  22.190   6.886   8.550
 5156POPC   C2B25964  22.183   6.894   8.250
 5156POPC   C3B25965  22.176   6.926   7.950
 5156POPC   C4B25966  22.159   6.934   7.650
 5157POPC   NC325967   4.353  18.317   9.450
 5157POPC   PO425968   4.288  18.250   9.150
 5157POPC   GL125969   4.307  18.274   8.850
 5157POPC   GL225970   4.198  18.348   8.850
 5157POPC   C1A25971   4.302  18.281   8.550
 5157POPC   D2A25972   4.345  18.258   8.250
 5157POPC   C3A25973   4.286  18.325   7.950
 5157POPC   C4A25974   4.363  18.330   7.650
 5157POPC   C1B25975   4.136  18.467   8.550
 5157POPC   C2B25976   4.214  18.498   8.250
 5157POPC   C3B25977   4.178  18.516   7.950
 5157POPC   C4B25978   4.146  18.514   7.650
 5158POPC   NC325979   9.768   9.736   9.450
 5158POPC   PO425980   9.710   9.792   9.150
 5158POPC   GL125981   9.741   9.782   8.850
 5158POPC   GL225982   9.798   9.805   8.850
 5158POPC   C1A25983   9.732   9.744   8.550
 5158POPC   D2A25984   9.793   9.739   8.250
 5158POPC   C3A25985   9.796   9.774   7.950
 5158POPC   C4A25986   9.776   9.712   7.650
 5158POPC   C1B25987   9.949   9.907   8.550
 5158POPC   C2B25988   9.866   9.985   8.250
 5158POPC   C3B25989   9.865   9.927   7.950
 5158POPC   C4B25990   9.882   9.923   7.650
 5159POPC   NC325991  37.640  35.392   9.450
 5159POPC   PO425992  37.702  35.401   9.150
 5159POPC   GL125993  37.705  35.357   8.850
 5159POPC   GL225994  37.539  35.329   8.850
 5159POPC   C1A25995  37.725  35.360   8.550
 5159POPC   D2A25996  37.658  35.392   8.250
 5159POPC   C3A25997  37.713  35.397   7.950
 5159POPC   C4A25998  37.698  35.321   7.650
 5159POPC   C1B25999  37.398  35.313   8.550
 5159POPC   C2B26000  37.439  35.286   8.250
 5159POPC   C3B26001  37.447  35.227   7.950
 5159POPC   C4B26002  37.413  35.298   7.650
 5160POPC   NC326003  25.305   2.766   9.450
 5160POPC   PO426004  25.271   2.746   9.150
 5160POPC   GL126005  25.288   2.727   8.850
 5160POPC   GL226006  25.398   2.690   8.850
 5160POPC   C1A26007  25.283   2.776   8.550
 5160POPC   D2A26008  25.275   2.785   8.250
 5160POPC   C3A26009  25.217   2.758   7.950
 5160POPC   C4A26010  25.216   2.730   7.650
 5160POPC   C1B26011  25.452   2.588   8.550
 5160POPC   C2B26012  25.500   2.597   8.250
 5160POPC   C3B26013  25.474   2.670   7.950
 5160POPC   C4B26014  25.498   2.665   7.650
 5161POPC   NC326015  20.620  10.502   9.450
 5161POPC   PO426016  20.600  10.546   9.150
 5161POPC   GL126017  20.618  10.537   8.850
 5161POPC   GL226018  20.676  10.581   8.850
 5161POPC   C1A26019  20.632  10.488   8.550
 5161POPC   D2A26020  20.641  10.500   8.250
 5161POPC   C3A26021  20.653  10.516   7.950
 5161POPC   C4A26022  20.599  10.494   7.650
 5161POPC   C1B26023  20.730  10.731   8.550
 5161POPC   C2B26024  20.705  10.750   8.250
 5161POPC   C3B26025  20.752  10.713   7.950
 5161POPC   C4B26026  20.735  10.771   7.650
 5162POPC   NC326027  36.903  29.950   9.450
 5162POPC   PO426028  36.903  29.915   9.150
 5162POPC   GL126029  36.865  29.913   8.850
 5162POPC   GL226030  36.951  29.997   8.850
 5162POPC   C1A26031  36.858  29.878   8.550
 5162POPC   D2A26032  36.917  29.895   8.250
 5162POPC   C3A26033  36.950  29.948   7.950
 5162POPC   C4A26034  36.942  29.969   7.650
 5162POPC   C1B26035  37.097  30.071   8.550
 5162POPC   C2B26036  37.049  30.127   8.250
 5162POPC   C3B26037  37.098  30.114   7.950
 5162POPC   C4B26038  37.077  30.135   7.650
 5163POPC   NC326039  15.982  22.908   9.450
 5163POPC   PO426040  15.991  22.923   9.150
 5163POPC   GL126041  15.951  22.972   8.850
 5163POPC   GL226042  16.066  22.825   8.850
 5163POPC   C1A26043  16.002  22.941   8.550
 5163POPC   D2A26044  15.972  22.929   8.250
 5163POPC   C3A26045  15.955  22.945   7.950
 5163POPC   C4A26046  15.988  22.906   7.650
 5163POPC   C1B26047  16.120  22.798   8.550
 5163POPC   C2B26048  16.135  22.745   8.250
 5163POPC   C3B26049  16.208  22.796   7.950
 5163POPC   C4B26050  16.206  22.827   7.650
 5164POPC   NC326051   3.509  32.986   9.450
 5164POPC   PO426052   3.545  33.051   9.150
 5164POPC   GL126053   3.587  33.050   8.850
 5164POPC   GL226054   3.619  33.136   8.850
 5164POPC   C1A26055   3.512  33.042   8.550
 5164POPC   D2A26056   3.524  33.063   8.250
 5164POPC   C3A26057   3.492  33.009   7.950
 5164POPC   C4A26058   3.547  32.984   7.650
 5164POPC   C1B26059   3.649  33.226   8.550
 5164POPC   C2B26060   3.643  33.220   8.250
 5164POPC   C3B26061   3.630  33.266   7.950
 5164POPC   C4B26062   3.598  33.249   7.650
 5165POPC   NC326063   7.393  25.234   9.450
 5165POPC   PO426064   7.399  25.241   9.150
 5165POPC   GL126065   7.433  25.291   8.850
 5165POPC   GL226066   7.485  25.190   8.850
 5165POPC   C1A26067   7.428  25.223   8.550
 5165POPC   D2A26068   7.403  25.216   8.250
 5165POPC   C3A26069   7.450  25.221   7.950
 5165POPC   C4A26070   7.378  25.255   7.650
 5165POPC   C1B26071   7.550  25.025   8.550
 5165POPC   C2B26072   7.492  25.087   8.250
 5165POPC   C3B26073   7.523  25.053   7.950
 5165POPC   C4B26074   7.525  24.996   7.650
 5166POPC   NC326075  43.928  43.104   9.450
 5166POPC   PO426076  43.929  43.089   9.150
 5166POPC   GL126077  43.898  43.093   8.850
 5166POPC   GL226078  43.780  43.171   8.850
 5166POPC   C1A26079  43.928  43.155   8.550
 5166POPC   D2A26080  43.920  43.099   8.250
 5166POPC   C3A26081  43.908  43.085   7.950
 5166POPC   C4A26082  43.848  43.105   7.650
 5166POPC   C1B26083  43.631  43.146   8.550
 5166POPC   C2B26084  43.650  43.183   8.250
 5166POPC   C3B26085  43.664  43.176   7.950
 5166POPC   C4B26086  43.670  43.117   7.650
 5167POPC   NC326087  33.759  15.916   9.450
 5167POPC   PO426088  33.808  15.945   9.150
 5167POPC   GL126089  33.779  16.005   8.850
 5167POPC   GL226090  33.802  16.033   8.850
 5167POPC   C1A26091  33.762  16.002   8.550
 5167POPC   D2A26092  33.817  15.989   8.250
 5167POPC   C3A26093  33.797  15.986   7.950
 5167POPC   C4A26094  33.839  15.925   7.650
 5167POPC   C1B26095  33.834  16.218   8.550
 5167POPC   C2B26096  33.858  16.163   8.250
 5167POPC   C3B26097  33.852  16.240   7.950
 5167POPC   C4B26098  33.856  16.225   7.650
 5168POPC   NC326099  19.792   9.005   9.450
 5168POPC   PO426100  19.840   9.004   9.150
 5168POPC   GL126101  19.859   8.944   8.850
 5168POPC   GL226102  19.770   9.064   8.850
 5168POPC   C1A26103  19.861   8.970   8.550
 5168POPC   D2A26104  19.811   8.974   8.250
 5168POPC   C3A26105  19.838   8.987   7.950
 5168POPC   C4A26106  19.823   8.990   7.650
 5168POPC   C1B26107  19.726   9.203   8.550
 5168POPC   C2B26108  19.795   9.211   8.250
 5168POPC   C3B26109  19.738   9.219   7.950
 5168POPC   C4B26110  19.747   9.230   7.650
 5169POPC   NC326111  32.990  15.942   9.450
 5169POPC   PO426112  33.059  15.911   9.150
 5169POPC   GL126113  33.008  15.934   8.850
 5169POPC   GL226114  33.102  15.827   8.850
 5169POPC   C1A26115  33.035  15.988   8.550
 5169POPC   D2A26116  32.981  15.966   8.250
 5169POPC   C3A26117  32.988  15.983   7.950
 5169POPC   C4A26118  33.000  15.945   7.650
 5169POPC   C1B26119  33.198  15.774   8.550
 5169POPC   C2B26120  33.167  15.780   8.250
 5169POPC   C3B26121  33.202  15.704   7.950
 5169POPC   C4B26122  33.211  15.742   7.650
 5170POPC   NC326123  33.057  26.861   9.450
 5170POPC   PO426124  33.036  26.856   9.150
 5170POPC   GL126125  33.018  26.785   8.850
 5170POPC   GL226126  32.997  26.646   8.850
 5170POPC   C1A26127  33.054  26.793   8.550
 5170POPC   D2A26128  33.065  26.806   8.250
 5170POPC   C3A26129  33.038  26.841   7.950
 5170POPC   C4A26130  33.009  26.818   7.650
 5170POPC   C1B26131  32.977  26.612   8.550
 5170POPC   C2B26132  33.039  26.535   8.250
 5170POPC   C3B26133  33.056  26.556   7.950
 5170POPC   C4B26134  33.032  26.521   7.650
 5171POPC   NC326135  23.686  22.943   9.450
 5171POPC   PO426136  23.676  22.930   9.150
 5171POPC   GL126137  23.752  22.965   8.850
 5171POPC   GL226138  23.698  22.780   8.850
 5171POPC   C1A26139  23.714  22.892   8.550
 5171POPC   D2A26140  23.732  22.908   8.250
 5171POPC   C3A26141  23.747  22.970   7.950
 5171POPC   C4A26142  23.693  22.945   7.650
 5171POPC   C1B26143  23.733  22.658   8.550
 5171POPC   C2B26144  23.723  22.722   8.250
 5171POPC   C3B26145  23.668  22.689   7.950
 5171POPC   C4B26146  23.666  22.702   7.650
 5172POPC   NC326147  39.187   8.950   9.450
 5172POPC   PO426148  39.236   8.996   9.150
 5172POPC   GL126149  39.197   8.978   8.850
 5172POPC   GL226150  39.149   9.072   8.850
 5172POPC   C1A26151  39.278   8.929   8.550
 5172POPC   D2A26152  39.182   8.923   8.250
 5172POPC   C3A26153  39.268   8.945   7.950
 5172POPC   C4A26154  39.229   8.972   7.650
 5172POPC   C1B26155  39.052   9.141   8.550
 5172POPC   C2B26156  39.086   9.166   8.250
 5172POPC   C3B26157  39.129   9.191   7.950
 5172POPC   C4B26158  39.117   9.147   7.650
 5173POPC   NC326159   5.879  26.854   9.450
 5173POPC   PO426160   5.900  26.779   9.150
 5173POPC   GL126161   5.880  26.787   8.850
 5173POPC   GL226162   5.968  26.885   8.850
 5173POPC   C1A26163   5.871  26.833   8.550
 5173POPC   D2A26164   5.826  26.822   8.250
 5173POPC   C3A26165   5.887  26.780   7.950
 5173POPC   C4A26166   5.894  26.851   7.650
 5173POPC   C1B26167   6.092  26.889   8.550
 5173POPC   C2B26168   6.125  26.908   8.250
 5173POPC   C3B26169   6.052  26.910   7.950
 5173POPC   C4B26170   6.114  26.955   7.650
 5174POPC   NC326171   0.476  35.353   9.450
 5174POPC   PO426172   0.427  35.312   9.150
 5174POPC   GL126173   0.479  35.356   8.850
 5174POPC   GL226174   0.479  35.219   8.850
 5174POPC   C1A26175   0.409  35.376   8.550
 5174POPC   D2A26176   0.393  35.320   8.250
 5174POPC   C3A26177   0.423  35.394   7.950
 5174POPC   C4A26178   0.468  35.323   7.650
 5174POPC   C1B26179   0.466  35.111   8.550
 5174POPC   C2B26180   0.497  35.149   8.250
 5174POPC   C3B26181   0.506  35.078   7.950
 5174POPC   C4B26182   0.502  35.144   7.650
 5175POPC   NC326183  30.673  21.386   9.450
 5175POPC   PO426184  30.648  21.344   9.150
 5175POPC   GL126185  30.725  21.388   8.850
 5175POPC   GL226186  30.607  21.292   8.850
 5175POPC   C1A26187  30.688  21.432   8.550
 5175POPC   D2A26188  30.738  21.398   8.250
 5175POPC   C3A26189  30.698  21.420   7.950
 5175POPC   C4A26190  30.680  21.361   7.650
 5175POPC   C1B26191  30.623  21.201   8.550
 5175POPC   C2B26192  30.612  21.131   8.250
 5175POPC   C3B26193  30.642  21.117   7.950
 5175POPC   C4B26194  30.570  21.154   7.650
 5176POPC   NC326195   9.756   2.018   9.450
 5176POPC   PO426196   9.721   2.008   9.150
 5176POPC   GL126197   9.726   2.007   8.850
 5176POPC   GL226198   9.838   2.141   8.850
 5176POPC   C1A26199   9.722   1.959   8.550
 5176POPC   D2A26200   9.748   1.963   8.250
 5176POPC   C3A26201   9.745   2.021   7.950
 5176POPC   C4A26202   9.767   2.038   7.650
 5176POPC   C1B26203   9.845   2.242   8.550
 5176POPC   C2B26204   9.848   2.196   8.250
 5176POPC   C3B26205   9.869   2.239   7.950
 5176POPC   C4B26206   9.849   2.153   7.650
 5177POPC   NC326207   4.315  38.462   9.450
 5177POPC   PO426208   4.272  38.479   9.150
 5177POPC   GL126209   4.307  38.448   8.850
 5177POPC   GL226210   4.402  38.591   8.850
 5177POPC   C1A26211   4.269  38.453   8.550
 5177POPC   D2A26212   4.312  38.485   8.250
 5177POPC   C3A26213   4.333  38.504   7.950
 5177POPC   C4A26214   4.349  38.442   7.650
 5177POPC   C1B26215   4.471  38.627   8.550
 5177POPC   C2B26216   4.471  38.701   8.250
 5177POPC   C3B26217   4.443  38.662   7.950
 5177POPC   C4B26218   4.455  38.677   7.650
 5178POPC   NC326219  10.544  20.575   9.450
 5178POPC   PO426220  10.531  20.571   9.150
 5178POPC   GL126221  10.523  20.572   8.850
 5178POPC   GL226222  10.592  20.684   8.850
 5178POPC   C1A26223  10.556  20.659   8.550
 5178POPC   D2A26224  10.536  20.565   8.250
 5178POPC   C3A26225  10.521  20.646   7.950
 5178POPC   C4A26226  10.561  20.608   7.650
 5178POPC   C1B26227  10.619  20.877   8.550
 5178POPC   C2B26228  10.638  20.801   8.250
 5178POPC   C3B26229  10.573  20.831   7.950
 5178POPC   C4B26230  10.597  20.804   7.650
 5179POPC   NC326231  42.309  10.519   9.450
 5179POPC   PO426232  42.306  10.517   9.150
 5179POPC   GL126233  42.378  10.486   8.850
 5179POPC   GL226234  42.313  10.368   8.850
 5179POPC   C1A26235  42.349  10.500   8.550
 5179POPC   D2A26236  42.358  10.496   8.250
 5179POPC   C3A26237  42.289  10.549   7.950
 5179POPC   C4A26238  42.332  10.510   7.650
 5179POPC   C1B26239  42.316  10.309   8.550
 5179POPC   C2B26240  42.317  10.285   8.250
 5179POPC   C3B26241  42.391  10.253   7.950
 5179POPC   C4B26242  42.364  10.286   7.650
 5180POPC   NC326243  12.122  39.267   9.450
 5180POPC   PO426244  12.084  39.208   9.150
 5180POPC   GL126245  12.062  39.202   8.850
 5180POPC   GL226246  12.082  39.088   8.850
 5180POPC   C1A26247  12.082  39.194   8.550
 5180POPC   D2A26248  12.092  39.244   8.250
 5180POPC   C3A26249  12.030  39.193   7.950
 5180POPC   C4A26250  12.099  39.221   7.650
 5180POPC   C1B26251  12.148  38.984   8.550
 5180POPC   C2B26252  12.164  38.966   8.250
 5180POPC   C3B26253  12.196  38.965   7.950
 5180POPC   C4B26254  12.133  39.022   7.650
 5181POPC   NC326255   8.156  12.832   9.450
 5181POPC   PO426256   8.216  12.869   9.150
 5181POPC   GL126257   8.218  12.851   8.850
 5181POPC   GL226258   8.037  12.847   8.850
 5181POPC   C1A26259   8.224  12.825   8.550
 5181POPC   D2A26260   8.152  12.836   8.250
 5181POPC   C3A26261   8.224  12.858   7.950
 5181POPC   C4A26262   8.196  12.885   7.650
 5181POPC   C1B26263   8.015  12.783   8.550
 5181POPC   C2B26264   7.964  12.758   8.250
 5181POPC   C3B26265   7.961  12.697   7.950
 5181POPC   C4B26266   7.957  12.782   7.650
 5182POPC   NC326267  12.807  28.332   9.450
 5182POPC   PO426268  12.811  28.370   9.150
 5182POPC   GL126269  12.846  28.402   8.850
 5182POPC   GL226270  12.757  28.455   8.850
 5182POPC   C1A26271  12.856  28.361   8.550
 5182POPC   D2A26272  12.896  28.387   8.250
 5182POPC   C3A26273  12.828  28.397   7.950
 5182POPC   C4A26274  12.888  28.328   7.650
 5182POPC   C1B26275  12.694  28.569   8.550
 5182POPC   C2B26276  12.727  28.559   8.250
 5182POPC   C3B26277  12.756  28.611   7.950
 5182POPC   C4B26278  12.769  28.605   7.650
 5183POPC   NC326279  32.260  37.677   9.450
 5183POPC   PO426280  32.198  37.644   9.150
 5183POPC   GL126281  32.211  37.649   8.850
 5183POPC   GL226282  32.346  37.735   8.850
 5183POPC   C1A26283  32.267  37.640   8.550
 5183POPC   D2A26284  32.211  37.652   8.250
 5183POPC   C3A26285  32.209  37.692   7.950
 5183POPC   C4A26286  32.278  37.679   7.650
 5183POPC   C1B26287  32.483  37.794   8.550
 5183POPC   C2B26288  32.475  37.808   8.250
 5183POPC   C3B26289  32.447  37.882   7.950
 5183POPC   C4B26290  32.471  37.865   7.650
 5184POPC   NC326291  44.689  29.916   9.450
 5184POPC   PO426292  44.680  29.898   9.150
 5184POPC   GL126293  44.640  29.945   8.850
 5184POPC   GL226294  44.534  29.939   8.850
 5184POPC   C1A26295  44.647  29.923   8.550
 5184POPC   D2A26296  44.685  29.902   8.250
 5184POPC   C3A26297  44.663  29.937   7.950
 5184POPC   C4A26298  44.688  29.919   7.650
 5184POPC   C1B26299  44.452  29.859   8.550
 5184POPC   C2B26300  44.455  29.915   8.250
 5184POPC   C3B26301  44.447  29.827   7.950
 5184POPC   C4B26302  44.414  29.907   7.650
 5185POPC   NC326303  21.431  21.407   9.450
 5185POPC   PO426304  21.372  21.367   9.150
 5185POPC   GL126305  21.376  21.365   8.850
 5185POPC   GL226306  21.356  21.506   8.850
 5185POPC   C1A26307  21.397  21.427   8.550
 5185POPC   D2A26308  21.413  21.412   8.250
 5185POPC   C3A26309  21.386  21.424   7.950
 5185POPC   C4A26310  21.361  21.373   7.650
 5185POPC   C1B26311  21.362  21.638   8.550
 5185POPC   C2B26312  21.380  21.664   8.250
 5185POPC   C3B26313  21.378  21.655   7.950
 5185POPC   C4B26314  21.333  21.599   7.650
 5186POPC   NC326315  28.386  43.157   9.450
 5186POPC   PO426316  28.409  43.141   9.150
 5186POPC   GL126317  28.320  43.065   8.850
 5186POPC   GL226318  28.316  43.171   8.850
 5186POPC   C1A26319  28.370  43.123   8.550
 5186POPC   D2A26320  28.365  43.126   8.250
 5186POPC   C3A26321  28.409  43.131   7.950
 5186POPC   C4A26322  28.335  43.079   7.650
 5186POPC   C1B26323  28.197  43.319   8.550
 5186POPC   C2B26324  28.208  43.321   8.250
 5186POPC   C3B26325  28.246  43.305   7.950
 5186POPC   C4B26326  28.195  43.271   7.650
 5187POPC   NC326327   4.290  11.302   9.450
 5187POPC   PO426328   4.333  11.288   9.150
 5187POPC   GL126329   4.338  11.345   8.850
 5187POPC   GL226330   4.234  11.425   8.850
 5187POPC   C1A26331   4.323  11.276   8.550
 5187POPC   D2A26332   4.325  11.348   8.250
 5187POPC   C3A26333   4.359  11.294   7.950
 5187POPC   C4A26334   4.333  11.294   7.650
 5187POPC   C1B26335   4.112  11.475   8.550
 5187POPC   C2B26336   4.167  11.531   8.250
 5187POPC   C3B26337   4.182  11.477   7.950
 5187POPC   C4B26338   4.113  11.529   7.650
 5188POPC   NC326339  22.190  19.039   9.450
 5188POPC   PO426340  22.196  19.109   9.150
 5188POPC   GL126341  22.153  19.019   8.850
 5188POPC   GL226342  22.300  19.080   8.850
 5188POPC   C1A26343  22.196  19.096   8.550
 5188POPC   D2A26344  22.175  19.035   8.250
 5188POPC   C3A26345  22.159  19.069   7.950
 5188POPC   C4A26346  22.124  19.099   7.650
 5188POPC   C1B26347  22.429  19.159   8.550
 5188POPC   C2B26348  22.347  19.134   8.250
 5188POPC   C3B26349  22.416  19.211   7.950
 5188POPC   C4B26350  22.341  19.195   7.650
 5189POPC   NC326351  36.937  23.672   9.450
 5189POPC   PO426352  36.930  23.763   9.150
 5189POPC   GL126353  36.945  23.675   8.850
 5189POPC   GL226354  36.905  23.601   8.850
 5189POPC   C1A26355  36.890  23.721   8.550
 5189POPC   D2A26356  36.869  23.673   8.250
 5189POPC   C3A26357  36.924  23.723   7.950
 5189POPC   C4A26358  36.885  23.723   7.650
 5189POPC   C1B26359  36.791  23.479   8.550
 5189POPC   C2B26360  36.846  23.489   8.250
 5189POPC   C3B26361  36.819  23.506   7.950
 5189POPC   C4B26362  36.835  23.517   7.650
 5190POPC   NC326363  28.354  25.219   9.450
 5190POPC   PO426364  28.372  25.252   9.150
 5190POPC   GL126365  28.404  25.284   8.850
 5190POPC   GL226366  28.358  25.362   8.850
 5190POPC   C1A26367  28.337  25.227   8.550
 5190POPC   D2A26368  28.413  25.265   8.250
 5190POPC   C3A26369  28.389  25.255   7.950
 5190POPC   C4A26370  28.333  25.287   7.650
 5190POPC   C1B26371  28.369  25.536   8.550
 5190POPC   C2B26372  28.358  25.501   8.250
 5190POPC   C3B26373  28.436  25.484   7.950
 5190POPC   C4B26374  28.398  25.473   7.650
 5191POPC   NC326375  16.778   7.452   9.450
 5191POPC   PO426376  16.683   7.382   9.150
 5191POPC   GL126377  16.757   7.452   8.850
 5191POPC   GL226378  16.803   7.287   8.850
 5191POPC   C1A26379  16.740   7.438   8.550
 5191POPC   D2A26380  16.754   7.464   8.250
 5191POPC   C3A26381  16.696   7.371   7.950
 5191POPC   C4A26382  16.746   7.461   7.650
 5191POPC   C1B26383  16.917   7.273   8.550
 5191POPC   C2B26384  16.928   7.263   8.250
 5191POPC   C3B26385  16.908   7.281   7.950
 5191POPC   C4B26386  16.870   7.237   7.650
 5192POPC   NC326387   2.020  44.693   9.450
 5192POPC   PO426388   2.010  44.650   9.150
 5192POPC   GL126389   2.031  44.645   8.850
 5192POPC   GL226390   1.960  44.527   8.850
 5192POPC   C1A26391   1.957  44.617   8.550
 5192POPC   D2A26392   1.973  44.689   8.250
 5192POPC   C3A26393   2.034  44.703   7.950
 5192POPC   C4A26394   1.966  44.667   7.650
 5192POPC   C1B26395   1.845  44.422   8.550
 5192POPC   C2B26396   1.878  44.474   8.250
 5192POPC   C3B26397   1.838  44.446   7.950
 5192POPC   C4B26398   1.821  44.486   7.650
 5193POPC   NC326399  29.933   6.595   9.450
 5193POPC   PO426400  29.959   6.670   9.150
 5193POPC   GL126401  29.897   6.639   8.850
 5193POPC   GL226402  29.799   6.645   8.850
 5193POPC   C1A26403  29.878   6.688   8.550
 5193POPC   D2A26404  29.899   6.618   8.250
 5193POPC   C3A26405  29.900   6.645   7.950
 5193POPC   C4A26406  29.875   6.613   7.650
 5193POPC   C1B26407  29.696   6.533   8.550
 5193POPC   C2B26408  29.696   6.600   8.250
 5193POPC   C3B26409  29.660   6.582   7.950
 5193POPC   C4B26410  29.683   6.565   7.650
 5194POPC   NC326411   2.767  43.133   9.450
 5194POPC   PO426412   2.757  43.063   9.150
 5194POPC   GL126413   2.736  43.117   8.850
 5194POPC   GL226414   2.821  43.248   8.850
 5194POPC   C1A26415   2.778  43.076   8.550
 5194POPC   D2A26416   2.722  43.146   8.250
 5194POPC   C3A26417   2.726  43.146   7.950
 5194POPC   C4A26418   2.797  43.121   7.650
 5194POPC   C1B26419   2.828  43.341   8.550
 5194POPC   C2B26420   2.840  43.346   8.250
 5194POPC   C3B26421   2.817  43.350   7.950
 5194POPC   C4B26422   2.828  43.348   7.650
 5195POPC   NC326423  19.058  31.427   9.450
 5195POPC   PO426424  19.022  31.450   9.150
 5195POPC   GL126425  19.038  31.458   8.850
 5195POPC   GL226426  19.106  31.371   8.850
 5195POPC   C1A26427  19.039  31.424   8.550
 5195POPC   D2A26428  19.065  31.495   8.250
 5195POPC   C3A26429  19.061  31.423   7.950
 5195POPC   C4A26430  19.073  31.463   7.650
 5195POPC   C1B26431  19.118  31.210   8.550
 5195POPC   C2B26432  19.089  31.271   8.250
 5195POPC   C3B26433  19.122  31.238   7.950
 5195POPC   C4B26434  19.092  31.206   7.650
 5196POPC   NC326435  14.419  29.943   9.450
 5196POPC   PO426436  14.414  29.946   9.150
 5196POPC   GL126437  14.394  29.953   8.850
 5196POPC   GL226438  14.424  29.819   8.850
 5196POPC   C1A26439  14.368  29.948   8.550
 5196POPC   D2A26440  14.453  29.902   8.250
 5196POPC   C3A26441  14.385  29.923   7.950
 5196POPC   C4A26442  14.446  29.924   7.650
 5196POPC   C1B26443  14.542  29.683   8.550
 5196POPC   C2B26444  14.544  29.705   8.250
 5196POPC   C3B26445  14.558  29.697   7.950
 5196POPC   C4B26446  14.564  29.727   7.650
 5197POPC   NC326447  22.121  10.514   9.450
 5197POPC   PO426448  22.169  10.554   9.150
 5197POPC   GL126449  22.170  10.505   8.850
 5197POPC   GL226450  22.164  10.380   8.850
 5197POPC   C1A26451  22.144  10.556   8.550
 5197POPC   D2A26452  22.115  10.474   8.250
 5197POPC   C3A26453  22.121  10.491   7.950
 5197POPC   C4A26454  22.211  10.494   7.650
 5197POPC   C1B26455  22.197  10.302   8.550
 5197POPC   C2B26456  22.167  10.323   8.250
 5197POPC   C3B26457  22.163  10.240   7.950
 5197POPC   C4B26458  22.167  10.270   7.650
 5198POPC   NC326459  29.879   0.405   9.450
 5198POPC   PO426460  29.918   0.394   9.150
 5198POPC   GL126461  29.886   0.428   8.850
 5198POPC   GL226462  29.810   0.502   8.850
 5198POPC   C1A26463  29.897   0.434   8.550
 5198POPC   D2A26464  29.898   0.406   8.250
 5198POPC   C3A26465  29.896   0.471   7.950
 5198POPC   C4A26466  29.919   0.406   7.650
 5198POPC   C1B26467  29.802   0.632   8.550
 5198POPC   C2B26468  29.748   0.628   8.250
 5198POPC   C3B26469  29.796   0.615   7.950
 5198POPC   C4B26470  29.785   0.606   7.650
 5199POPC   NC326471  15.962  27.577   9.450
 5199POPC   PO426472  15.949  27.596   9.150
 5199POPC   GL126473  15.976  27.592   8.850
 5199POPC   GL226474  15.837  27.698   8.850
 5199POPC   C1A26475  15.958  27.637   8.550
 5199POPC   D2A26476  15.971  27.548   8.250
 5199POPC   C3A26477  15.990  27.565   7.950
 5199POPC   C4A26478  15.953  27.568   7.650
 5199POPC   C1B26479  15.761  27.752   8.550
 5199POPC   C2B26480  15.849  27.802   8.250
 5199POPC   C3B26481  15.764  27.795   7.950
 5199POPC   C4B26482  15.781  27.778   7.650
 5200POPC   NC326483  39.966  32.262   9.450
 5200POPC   PO426484  40.023  32.209   9.150
 5200POPC   GL126485  39.984  32.219   8.850
 5200POPC   GL226486  39.844  32.242   8.850
 5200POPC   C1A26487  39.970  32.232   8.550
 5200POPC   D2A26488  40.010  32.294   8.250
 5200POPC   C3A26489  40.024  32.214   7.950
 5200POPC   C4A26490  39.979  32.272   7.650
 5200POPC   C1B26491  39.772  32.330   8.550
 5200POPC   C2B26492  39.723  32.314   8.250
 5200POPC   C3B26493  39.771  32.357   7.950
 5200POPC   C4B26494  39.778  32.343   7.650
 5201POPC   NC326495  38.468  26.797   9.450
 5201POPC   PO426496  38.504  26.820   9.150
 5201POPC   GL126497  38.433  26.831   8.850
 5201POPC   GL226498  38.524  26.894   8.850
 5201POPC   C1A26499  38.471  26.839   8.550
 5201POPC   D2A26500  38.432  26.827   8.250
 5201POPC   C3A26501  38.499  26.801   7.950
 5201POPC   C4A26502  38.432  26.826   7.650
 5201POPC   C1B26503  38.681  26.939   8.550
 5201POPC   C2B26504  38.732  26.904   8.250
 5201POPC   C3B26505  38.682  26.942   7.950
 5201POPC   C4B26506  38.661  26.919   7.650
 5202POPC   NC326507  12.861  39.973   9.450
 5202POPC   PO426508  12.828  39.999   9.150
 5202POPC   GL126509  12.813  39.961   8.850
 5202POPC   GL226510  12.944  40.133   8.850
 5202POPC   C1A26511  12.825  40.000   8.550
 5202POPC   D2A26512  12.868  39.990   8.250
 5202POPC   C3A26513  12.864  40.051   7.950
 5202POPC   C4A26514  12.843  39.974   7.650
 5202POPC   C1B26515  13.050  40.149   8.550
 5202POPC   C2B26516  13.059  40.218   8.250
 5202POPC   C3B26517  13.060  40.141   7.950
 5202POPC   C4B26518  13.069  40.168   7.650
 5203POPC   NC326519  24.467  38.498   9.450
 5203POPC   PO426520  24.474  38.491   9.150
 5203POPC   GL126521  24.447  38.445   8.850
 5203POPC   GL226522  24.349  38.508   8.850
 5203POPC   C1A26523  24.498  38.419   8.550
 5203POPC   D2A26524  24.474  38.498   8.250
 5203POPC   C3A26525  24.486  38.488   7.950
 5203POPC   C4A26526  24.520  38.431   7.650
 5203POPC   C1B26527  24.231  38.610   8.550
 5203POPC   C2B26528  24.260  38.602   8.250
 5203POPC   C3B26529  24.276  38.600   7.950
 5203POPC   C4B26530  24.249  38.590   7.650
 5204POPC   NC326531  19.049  40.021   9.450
 5204POPC   PO426532  19.059  39.985   9.150
 5204POPC   GL126533  19.101  39.969   8.850
 5204POPC   GL226534  19.049  39.896   8.850
 5204POPC   C1A26535  19.047  39.988   8.550
 5204POPC   D2A26536  19.075  39.972   8.250
 5204POPC   C3A26537  19.038  40.024   7.950
 5204POPC   C4A26538  19.009  39.995   7.650
 5204POPC   C1B26539  18.940  39.790   8.550
 5204POPC   C2B26540  18.921  39.747   8.250
 5204POPC   C3B26541  18.896  39.796   7.950
 5204POPC   C4B26542  18.897  39.799   7.650
 5205POPC   NC326543  10.486  38.479   9.450
 5205POPC   PO426544  10.521  38.475   9.150
 5205POPC   GL126545  10.506  38.469   8.850
 5205POPC   GL226546  10.577  38.533   8.850
 5205POPC   C1A26547  10.565  38.456   8.550
 5205POPC   D2A26548  10.478  38.474   8.250
 5205POPC   C3A26549  10.541  38.444   7.950
 5205POPC   C4A26550  10.543  38.409   7.650
 5205POPC   C1B26551  10.740  38.613   8.550
 5205POPC   C2B26552  10.752  38.617   8.250
 5205POPC   C3B26553  10.747  38.588   7.950
 5205POPC   C4B26554  10.758  38.586   7.650
 5206POPC   NC326555  16.721  33.763   9.450
 5206POPC   PO426556  16.740  33.754   9.150
 5206POPC   GL126557  16.683  33.798   8.850
 5206POPC   GL226558  16.677  33.903   8.850
 5206POPC   C1A26559  16.729  33.849   8.550
 5206POPC   D2A26560  16.688  33.789   8.250
 5206POPC   C3A26561  16.714  33.804   7.950
 5206POPC   C4A26562  16.753  33.837   7.650
 5206POPC   C1B26563  16.615  34.001   8.550
 5206POPC   C2B26564  16.622  33.994   8.250
 5206POPC   C3B26565  16.618  34.013   7.950
 5206POPC   C4B26566  16.672  34.071   7.650
 5207POPC   NC326567  21.387  23.754   9.450
 5207POPC   PO426568  21.348  23.700   9.150
 5207POPC   GL126569  21.431  23.672   8.850
 5207POPC   GL226570  21.323  23.752   8.850
 5207POPC   C1A26571  21.417  23.681   8.550
 5207POPC   D2A26572  21.396  23.736   8.250
 5207POPC   C3A26573  21.394  23.695   7.950
 5207POPC   C4A26574  21.352  23.693   7.650
 5207POPC   C1B26575  21.214  23.885   8.550
 5207POPC   C2B26576  21.183  23.929   8.250
 5207POPC   C3B26577  21.199  23.894   7.950
 5207POPC   C4B26578  21.238  23.915   7.650
 5208POPC   NC326579   5.141  33.042   9.450
 5208POPC   PO426580   5.061  33.029   9.150
 5208POPC   GL126581   5.136  33.002   8.850
 5208POPC   GL226582   5.186  33.040   8.850
 5208POPC   C1A26583   5.044  33.008   8.550
 5208POPC   D2A26584   5.092  33.068   8.250
 5208POPC   C3A26585   5.130  33.027   7.950
 5208POPC   C4A26586   5.055  33.040   7.650
 5208POPC   C1B26587   5.353  32.978   8.550
 5208POPC   C2B26588   5.345  33.017   8.250
 5208POPC   C3B26589   5.296  33.004   7.950
 5208POPC   C4B26590   5.314  33.003   7.650
 5209POPC   NC326591  42.353  42.289   9.450
 5209POPC   PO426592  42.360  42.377   9.150
 5209POPC   GL126593  42.322  42.295   8.850
 5209POPC   GL226594  42.314  42.229   8.850
 5209POPC   C1A26595  42.381  42.299   8.550
 5209POPC   D2A26596  42.372  42.367   8.250
 5209POPC   C3A26597  42.297  42.345   7.950
 5209POPC   C4A26598  42.310  42.328   7.650
 5209POPC   C1B26599  42.283  42.087   8.550
 5209POPC   C2B26600  42.247  42.120   8.250
 5209POPC   C3B26601  42.270  42.134   7.950
 5209POPC   C4B26602  42.305  42.054   7.650
 5210POPC   NC326603  20.644   5.135   9.450
 5210POPC   PO426604  20.651   5.046   9.150
 5210POPC   GL126605  20.561   5.114   8.850
 5210POPC   GL226606  20.533   5.064   8.850
 5210POPC   C1A26607  20.651   5.121   8.550
 5210POPC   D2A26608  20.585   5.096   8.250
 5210POPC   C3A26609  20.563   5.093   7.950
 5210POPC   C4A26610  20.621   5.129   7.650
 5210POPC   C1B26611  20.435   4.989   8.550
 5210POPC   C2B26612  20.374   4.927   8.250
 5210POPC   C3B26613  20.370   4.973   7.950
 5210POPC   C4B26614  20.450   4.975   7.650
 5211POPC   NC326615  33.004  17.547   9.450
 5211POPC   PO426616  33.040  17.497   9.150
 5211POPC   GL126617  33.050  17.468   8.850
 5211POPC   GL226618  32.994  17.655   8.850
 5211POPC   C1A26619  33.054  17.526   8.550
 5211POPC   D2A26620  33.042  17.479   8.250
 5211POPC   C3A26621  32.979  17.497   7.950
 5211POPC   C4A26622  33.073  17.531   7.650
 5211POPC   C1B26623  33.011  17.783   8.550
 5211POPC   C2B26624  33.022  17.780   8.250
 5211POPC   C3B26625  32.934  17.776   7.950
 5211POPC   C4B26626  32.966  17.750   7.650
 5212POPC   NC326627  22.157  29.909   9.450
 5212POPC   PO426628  22.161  29.876   9.150
 5212POPC   GL126629  22.114  29.965   8.850
 5212POPC   GL226630  22.074  29.900   8.850
 5212POPC   C1A26631  22.156  29.915   8.550
 5212POPC   D2A26632  22.193  29.888   8.250
 5212POPC   C3A26633  22.159  29.878   7.950
 5212POPC   C4A26634  22.156  29.912   7.650
 5212POPC   C1B26635  21.940  29.868   8.550
 5212POPC   C2B26636  21.882  29.891   8.250
 5212POPC   C3B26637  21.923  29.865   7.950
 5212POPC   C4B26638  21.951  29.867   7.650
 5213POPC   NC326639   1.262  22.196   9.450
 5213POPC   PO426640   1.255  22.192   9.150
 5213POPC   GL126641   1.226  22.167   8.850
 5213POPC   GL226642   1.106  22.307   8.850
 5213POPC   C1A26643   1.208  22.133   8.550
 5213POPC   D2A26644   1.224  22.112   8.250
 5213POPC   C3A26645   1.217  22.123   7.950
 5213POPC   C4A26646   1.214  22.137   7.650
 5213POPC   C1B26647   1.133  22.427   8.550
 5213POPC   C2B26648   1.129  22.353   8.250
 5213POPC   C3B26649   1.119  22.376   7.950
 5213POPC   C4B26650   1.104  22.385   7.650
 5214POPC   NC326651  12.859  16.732   9.450
 5214POPC   PO426652  12.845  16.706   9.150
 5214POPC   GL126653  12.836  16.765   8.850
 5214POPC   GL226654  13.003  16.762   8.850
 5214POPC   C1A26655  12.901  16.757   8.550
 5214POPC   D2A26656  12.854  16.741   8.250
 5214POPC   C3A26657  12.855  16.711   7.950
 5214POPC   C4A26658  12.879  16.702   7.650
 5214POPC   C1B26659  13.100  16.735   8.550
 5214POPC   C2B26660  13.090  16.774   8.250
 5214POPC   C3B26661  13.062  16.790   7.950
 5214POPC   C4B26662  13.079  16.760   7.650
 5215POPC   NC326663  40.736  31.456   9.450
 5215POPC   PO426664  40.830  31.521   9.150
 5215POPC   GL126665  40.822  31.442   8.850
 5215POPC   GL226666  40.707  31.371   8.850
 5215POPC   C1A26667  40.781  31.510   8.550
 5215POPC   D2A26668  40.807  31.487   8.250
 5215POPC   C3A26669  40.753  31.449   7.950
 5215POPC   C4A26670  40.810  31.481   7.650
 5215POPC   C1B26671  40.533  31.371   8.550
 5215POPC   C2B26672  40.541  31.311   8.250
 5215POPC   C3B26673  40.553  31.341   7.950
 5215POPC   C4B26674  40.541  31.358   7.650
 5216POPC   NC326675  19.820  38.498   9.450
 5216POPC   PO426676  19.815  38.474   9.150
 5216POPC   GL126677  19.828  38.435   8.850
 5216POPC   GL226678  19.680  38.412   8.850
 5216POPC   C1A26679  19.832  38.500   8.550
 5216POPC   D2A26680  19.842  38.505   8.250
 5216POPC   C3A26681  19.875  38.464   7.950
 5216POPC   C4A26682  19.838  38.429   7.650
 5216POPC   C1B26683  19.554  38.350   8.550
 5216POPC   C2B26684  19.582  38.413   8.250
 5216POPC   C3B26685  19.605  38.339   7.950
 5216POPC   C4B26686  19.549  38.401   7.650
 5217POPC   NC326687   2.803  34.532   9.450
 5217POPC   PO426688   2.781  34.546   9.150
 5217POPC   GL126689   2.731  34.557   8.850
 5217POPC   GL226690   2.798  34.686   8.850
 5217POPC   C1A26691   2.791  34.588   8.550
 5217POPC   D2A26692   2.791  34.529   8.250
 5217POPC   C3A26693   2.788  34.585   7.950
 5217POPC   C4A26694   2.769  34.540   7.650
 5217POPC   C1B26695   2.876  34.764   8.550
 5217POPC   C2B26696   2.838  34.813   8.250
 5217POPC   C3B26697   2.829  34.822   7.950
 5217POPC   C4B26698   2.820  34.790   7.650
 5218POPC   NC326699  15.188  32.251   9.450
 5218POPC   PO426700  15.228  32.238   9.150
 5218POPC   GL126701  15.151  32.216   8.850
 5218POPC   GL226702  15.069  32.378   8.850
 5218POPC   C1A26703  15.141  32.266   8.550
 5218POPC   D2A26704  15.205  32.226   8.250
 5218POPC   C3A26705  15.190  32.253   7.950
 5218POPC   C4A26706  15.194  32.252   7.650
 5218POPC   C1B26707  15.001  32.497   8.550
 5218POPC   C2B26708  14.993  32.425   8.250
 5218POPC   C3B26709  15.008  32.438   7.950
 5218POPC   C4B26710  15.020  32.419   7.650
 5219POPC   NC326711  33.849  22.936   9.450
 5219POPC   PO426712  33.763  22.902   9.150
 5219POPC   GL126713  33.778  22.928   8.850
 5219POPC   GL226714  33.891  23.038   8.850
 5219POPC   C1A26715  33.789  22.899   8.550
 5219POPC   D2A26716  33.753  22.964   8.250
 5219POPC   C3A26717  33.792  22.901   7.950
 5219POPC   C4A26718  33.841  22.943   7.650
 5219POPC   C1B26719  34.040  23.140   8.550
 5219POPC   C2B26720  33.954  23.093   8.250
 5219POPC   C3B26721  33.978  23.093   7.950
 5219POPC   C4B26722  34.021  23.052   7.650
 5220POPC   NC326723  22.182  39.209   9.450
 5220POPC   PO426724  22.159  39.203   9.150
 5220POPC   GL126725  22.122  39.216   8.850
 5220POPC   GL226726  22.050  39.291   8.850
 5220POPC   C1A26727  22.154  39.257   8.550
 5220POPC   D2A26728  22.118  39.238   8.250
 5220POPC   C3A26729  22.152  39.193   7.950
 5220POPC   C4A26730  22.145  39.270   7.650
 5220POPC   C1B26731  22.016  39.423   8.550
 5220POPC   C2B26732  21.944  39.380   8.250
 5220POPC   C3B26733  21.928  39.443   7.950
 5220POPC   C4B26734  21.933  39.350   7.650
 5221POPC   NC326735   2.764  40.044   9.450
 5221POPC   PO426736   2.781  40.049   9.150
 5221POPC   GL126737   2.734  39.992   8.850
 5221POPC   GL226738   2.806  39.915   8.850
 5221POPC   C1A26739   2.784  39.957   8.550
 5221POPC   D2A26740   2.789  40.017   8.250
 5221POPC   C3A26741   2.726  39.995   7.950
 5221POPC   C4A26742   2.725  40.002   7.650
 5221POPC   C1B26743   2.824  39.732   8.550
 5221POPC   C2B26744   2.894  39.732   8.250
 5221POPC   C3B26745   2.894  39.737   7.950
 5221POPC   C4B26746   2.845  39.773   7.650
 5222POPC   NC326747  19.825  34.573   9.450
 5222POPC   PO426748  19.791  34.604   9.150
 5222POPC   GL126749  19.879  34.613   8.850
 5222POPC   GL226750  19.929  34.591   8.850
 5222POPC   C1A26751  19.824  34.584   8.550
 5222POPC   D2A26752  19.812  34.548   8.250
 5222POPC   C3A26753  19.813  34.614   7.950
 5222POPC   C4A26754  19.825  34.576   7.650
 5222POPC   C1B26755  20.071  34.704   8.550
 5222POPC   C2B26756  20.016  34.624   8.250
 5222POPC   C3B26757  20.040  34.722   7.950
 5222POPC   C4B26758  20.111  34.719   7.650
 5223POPC   NC326759  41.608  16.722   9.450
 5223POPC   PO426760  41.592  16.778   9.150
 5223POPC   GL126761  41.603  16.722   8.850
 5223POPC   GL226762  41.653  16.655   8.850
 5223POPC   C1A26763  41.541  16.761   8.550
 5223POPC   D2A26764  41.532  16.769   8.250
 5223POPC   C3A26765  41.530  16.692   7.950
 5223POPC   C4A26766  41.595  16.694   7.650
 5223POPC   C1B26767  41.660  16.539   8.550
 5223POPC   C2B26768  41.675  16.534   8.250
 5223POPC   C3B26769  41.618  16.544   7.950
 5223POPC   C4B26770  41.645  16.539   7.650
 5224POPC   NC326771  34.549  12.101   9.450
 5224POPC   PO426772  34.551  12.115   9.150
 5224POPC   GL126773  34.619  12.124   8.850
 5224POPC   GL226774  34.656  12.121   8.850
 5224POPC   C1A26775  34.530  12.092   8.550
 5224POPC   D2A26776  34.620  12.104   8.250
 5224POPC   C3A26777  34.531  12.116   7.950
 5224POPC   C4A26778  34.565  12.052   7.650
 5224POPC   C1B26779  34.737  12.244   8.550
 5224POPC   C2B26780  34.752  12.263   8.250
 5224POPC   C3B26781  34.799  12.258   7.950
 5224POPC   C4B26782  34.760  12.175   7.650
 5225POPC   NC326783  33.057   3.540   9.450
 5225POPC   PO426784  32.980   3.554   9.150
 5225POPC   GL126785  32.998   3.572   8.850
 5225POPC   GL226786  32.996   3.675   8.850
 5225POPC   C1A26787  33.068   3.559   8.550
 5225POPC   D2A26788  33.005   3.527   8.250
 5225POPC   C3A26789  32.983   3.589   7.950
 5225POPC   C4A26790  32.980   3.499   7.650
 5225POPC   C1B26791  32.992   3.821   8.550
 5225POPC   C2B26792  32.948   3.809   8.250
 5225POPC   C3B26793  32.966   3.750   7.950
 5225POPC   C4B26794  32.965   3.834   7.650
 5226POPC   NC326795  15.982  19.027   9.450
 5226POPC   PO426796  15.921  19.011   9.150
 5226POPC   GL126797  15.924  19.085   8.850
 5226POPC   GL226798  15.869  19.152   8.850
 5226POPC   C1A26799  15.976  19.086   8.550
 5226POPC   D2A26800  15.956  19.033   8.250
 5226POPC   C3A26801  15.966  19.013   7.950
 5226POPC   C4A26802  15.906  19.022   7.650
 5226POPC   C1B26803  15.836  19.254   8.550
 5226POPC   C2B26804  15.802  19.208   8.250
 5226POPC   C3B26805  15.749  19.289   7.950
 5226POPC   C4B26806  15.837  19.261   7.650
 5227POPC   NC326807  15.174  29.876   9.450
 5227POPC   PO426808  15.201  29.966   9.150
 5227POPC   GL126809  15.148  29.900   8.850
 5227POPC   GL226810  15.267  29.837   8.850
 5227POPC   C1A26811  15.215  29.963   8.550
 5227POPC   D2A26812  15.223  29.945   8.250
 5227POPC   C3A26813  15.139  29.894   7.950
 5227POPC   C4A26814  15.159  29.908   7.650
 5227POPC   C1B26815  15.419  29.807   8.550
 5227POPC   C2B26816  15.437  29.790   8.250
 5227POPC   C3B26817  15.370  29.814   7.950
 5227POPC   C4B26818  15.421  29.805   7.650
 5228POPC   NC326819  35.313  20.646   9.450
 5228POPC   PO426820  35.358  20.619   9.150
 5228POPC   GL126821  35.320  20.616   8.850
 5228POPC   GL226822  35.266  20.727   8.850
 5228POPC   C1A26823  35.364  20.581   8.550
 5228POPC   D2A26824  35.382  20.656   8.250
 5228POPC   C3A26825  35.377  20.599   7.950
 5228POPC   C4A26826  35.317  20.644   7.650
 5228POPC   C1B26827  35.277  20.801   8.550
 5228POPC   C2B26828  35.268  20.839   8.250
 5228POPC   C3B26829  35.293  20.877   7.950
 5228POPC   C4B26830  35.271  20.857   7.650
 5229POPC   NC326831  21.378  29.158   9.450
 5229POPC   PO426832  21.378  29.096   9.150
 5229POPC   GL126833  21.388  29.176   8.850
 5229POPC   GL226834  21.400  29.235   8.850
 5229POPC   C1A26835  21.377  29.122   8.550
 5229POPC   D2A26836  21.414  29.119   8.250
 5229POPC   C3A26837  21.417  29.195   7.950
 5229POPC   C4A26838  21.374  29.193   7.650
 5229POPC   C1B26839  21.456  29.388   8.550
 5229POPC   C2B26840  21.455  29.381   8.250
 5229POPC   C3B26841  21.499  29.423   7.950
 5229POPC   C4B26842  21.482  29.384   7.650
 5230POPC   NC326843  12.123  19.049   9.450
 5230POPC   PO426844  12.051  19.096   9.150
 5230POPC   GL126845  12.075  19.057   8.850
 5230POPC   GL226846  12.221  18.983   8.850
 5230POPC   C1A26847  12.069  19.103   8.550
 5230POPC   D2A26848  12.054  19.058   8.250
 5230POPC   C3A26849  12.108  19.098   7.950
 5230POPC   C4A26850  12.102  19.072   7.650
 5230POPC   C1B26851  12.255  18.947   8.550
 5230POPC   C2B26852  12.281  18.989   8.250
 5230POPC   C3B26853  12.289  18.899   7.950
 5230POPC   C4B26854  12.332  18.932   7.650
 5231POPC   NC326855  15.135  34.625   9.450
 5231POPC   PO426856  15.148  34.548   9.150
 5231POPC   GL126857  15.141  34.612   8.850
 5231POPC   GL226858  15.295  34.454   8.850
 5231POPC   C1A26859  15.168  34.556   8.550
 5231POPC   D2A26860  15.198  34.579   8.250
 5231POPC   C3A26861  15.135  34.564   7.950
 5231POPC   C4A26862  15.179  34.583   7.650
 5231POPC   C1B26863  15.334  34.410   8.550
 5231POPC   C2B26864  15.343  34.392   8.250
 5231POPC   C3B26865  15.375  34.461   7.950
 5231POPC   C4B26866  15.364  34.370   7.650
 5232POPC   NC326867  12.087   3.557   9.450
 5232POPC   PO426868  12.092   3.546   9.150
 5232POPC   GL126869  12.120   3.514   8.850
 5232POPC   GL226870  11.926   3.546   8.850
 5232POPC   C1A26871  12.080   3.529   8.550
 5232POPC   D2A26872  12.100   3.526   8.250
 5232POPC   C3A26873  12.119   3.535   7.950
 5232POPC   C4A26874  12.097   3.527   7.650
 5232POPC   C1B26875  11.827   3.484   8.550
 5232POPC   C2B26876  11.806   3.474   8.250
 5232POPC   C3B26877  11.813   3.532   7.950
 5232POPC   C4B26878  11.819   3.538   7.650
 5233POPC   NC326879  33.793   5.867   9.450
 5233POPC   PO426880  33.776   5.856   9.150
 5233POPC   GL126881  33.776   5.847   8.850
 5233POPC   GL226882  33.815   5.995   8.850
 5233POPC   C1A26883  33.820   5.917   8.550
 5233POPC   D2A26884  33.808   5.860   8.250
 5233POPC   C3A26885  33.794   5.893   7.950
 5233POPC   C4A26886  33.821   5.873   7.650
 5233POPC   C1B26887  33.820   6.151   8.550
 5233POPC   C2B26888  33.802   6.070   8.250
 5233POPC   C3B26889  33.840   6.087   7.950
 5233POPC   C4B26890  33.797   6.100   7.650
 5234POPC   NC326891  19.077  17.512   9.450
 5234POPC   PO426892  19.044  17.461   9.150
 5234POPC   GL126893  19.078  17.499   8.850
 5234POPC   GL226894  19.141  17.494   8.850
 5234POPC   C1A26895  19.085  17.548   8.550
 5234POPC   D2A26896  19.059  17.461   8.250
 5234POPC   C3A26897  19.083  17.523   7.950
 5234POPC   C4A26898  19.080  17.479   7.650
 5234POPC   C1B26899  19.299  17.595   8.550
 5234POPC   C2B26900  19.266  17.616   8.250
 5234POPC   C3B26901  19.269  17.525   7.950
 5234POPC   C4B26902  19.347  17.609   7.650
 5235POPC   NC326903  41.602  29.184   9.450
 5235POPC   PO426904  41.604  29.141   9.150
 5235POPC   GL126905  41.579  29.167   8.850
 5235POPC   GL226906  41.434  29.231   8.850
 5235POPC   C1A26907  41.530  29.175   8.550
 5235POPC   D2A26908  41.592  29.156   8.250
 5235POPC   C3A26909  41.546  29.195   7.950
 5235POPC   C4A26910  41.536  29.151   7.650
 5235POPC   C1B26911  41.353  29.258   8.550
 5235POPC   C2B26912  41.354  29.342   8.250
 5235POPC   C3B26913  41.337  29.338   7.950
 5235POPC   C4B26914  41.318  29.322   7.650
 5236POPC   NC326915  13.670   8.154   9.450
 5236POPC   PO426916  13.641   8.229   9.150
 5236POPC   GL126917  13.630   8.154   8.850
 5236POPC   GL226918  13.800   8.223   8.850
 5236POPC   C1A26919  13.669   8.159   8.550
 5236POPC   D2A26920  13.640   8.224   8.250
 5236POPC   C3A26921  13.653   8.207   7.950
 5236POPC   C4A26922  13.628   8.194   7.650
 5236POPC   C1B26923  13.836   8.241   8.550
 5236POPC   C2B26924  13.857   8.244   8.250
 5236POPC   C3B26925  13.831   8.219   7.950
 5236POPC   C4B26926  13.837   8.278   7.650
 5237POPC   NC326927  29.904  39.275   9.450
 5237POPC   PO426928  29.922  39.279   9.150
 5237POPC   GL126929  29.935  39.252   8.850
 5237POPC   GL226930  29.967  39.376   8.850
 5237POPC   C1A26931  29.933  39.277   8.550
 5237POPC   D2A26932  29.968  39.265   8.250
 5237POPC   C3A26933  29.967  39.199   7.950
 5237POPC   C4A26934  29.931  39.222   7.650
 5237POPC   C1B26935  29.902  39.488   8.550
 5237POPC   C2B26936  29.936  39.464   8.250
 5237POPC   C3B26937  29.888  39.484   7.950
 5237POPC   C4B26938  29.883  39.510   7.650
 5238POPC   NC326939  40.759   1.261   9.450
 5238POPC   PO426940  40.808   1.236   9.150
 5238POPC   GL126941  40.756   1.186   8.850
 5238POPC   GL226942  40.774   1.040   8.850
 5238POPC   C1A26943  40.740   1.238   8.550
 5238POPC   D2A26944  40.736   1.192   8.250
 5238POPC   C3A26945  40.746   1.232   7.950
 5238POPC   C4A26946  40.750   1.184   7.650
 5238POPC   C1B26947  40.817   1.000   8.550
 5238POPC   C2B26948  40.773   0.950   8.250
 5238POPC   C3B26949  40.788   0.985   7.950
 5238POPC   C4B26950  40.807   0.972   7.650
 5239POPC   NC326951   8.186  44.687   9.450
 5239POPC   PO426952   8.218  44.632   9.150
 5239POPC   GL126953   8.229  44.625   8.850
 5239POPC   GL226954   8.295  44.737   8.850
 5239POPC   C1A26955   8.219  44.670   8.550
 5239POPC   D2A26956   8.221  44.630   8.250
 5239POPC   C3A26957   8.181  44.659   7.950
 5239POPC   C4A26958   8.181  44.644   7.650
 5239POPC   C1B26959   8.420  44.769   8.550
 5239POPC   C2B26960   8.435  44.820   8.250
 5239POPC   C3B26961   8.446  44.808   7.950
 5239POPC   C4B26962   8.422  44.837   7.650
 5240POPC   NC326963  22.915  35.324   9.450
 5240POPC   PO426964  22.913  35.364   9.150
 5240POPC   GL126965  22.965  35.400   8.850
 5240POPC   GL226966  23.002  35.491   8.850
 5240POPC   C1A26967  22.896  35.366   8.550
 5240POPC   D2A26968  22.938  35.351   8.250
 5240POPC   C3A26969  22.927  35.353   7.950
 5240POPC   C4A26970  22.958  35.334   7.650
 5240POPC   C1B26971  23.049  35.534   8.550
 5240POPC   C2B26972  23.085  35.526   8.250
 5240POPC   C3B26973  23.039  35.599   7.950
 5240POPC   C4B26974  23.055  35.586   7.650
 5241POPC   NC326975  41.604  43.139   9.450
 5241POPC   PO426976  41.545  43.114   9.150
 5241POPC   GL126977  41.522  43.121   8.850
 5241POPC   GL226978  41.454  43.206   8.850
 5241POPC   C1A26979  41.590  43.106   8.550
 5241POPC   D2A26980  41.516  43.112   8.250
 5241POPC   C3A26981  41.525  43.131   7.950
 5241POPC   C4A26982  41.590  43.150   7.650
 5241POPC   C1B26983  41.390  43.295   8.550
 5241POPC   C2B26984  41.379  43.330   8.250
 5241POPC   C3B26985  41.414  43.251   7.950
 5241POPC   C4B26986  41.382  43.294   7.650
 5242POPC   NC326987   5.913  20.636   9.450
 5242POPC   PO426988   5.913  20.620   9.150
 5242POPC   GL126989   5.874  20.596   8.850
 5242POPC   GL226990   5.759  20.549   8.850
 5242POPC   C1A26991   5.820  20.570   8.550
 5242POPC   D2A26992   5.882  20.602   8.250
 5242POPC   C3A26993   5.820  20.649   7.950
 5242POPC   C4A26994   5.839  20.640   7.650
 5242POPC   C1B26995   5.731  20.457   8.550
 5242POPC   C2B26996   5.720  20.469   8.250
 5242POPC   C3B26997   5.699  20.431   7.950
 5242POPC   C4B26998   5.736  20.442   7.650
 5243POPC   NC326999   1.249  16.742   9.450
 5243POPC   PO427000   1.240  16.704   9.150
 5243POPC   GL127001   1.199  16.781   8.850
 5243POPC   GL227002   1.075  16.674   8.850
 5243POPC   C1A27003   1.228  16.686   8.550
 5243POPC   D2A27004   1.176  16.715   8.250
 5243POPC   C3A27005   1.251  16.711   7.950
 5243POPC   C4A27006   1.258  16.780   7.650
 5243POPC   C1B27007   1.021  16.612   8.550
 5243POPC   C2B27008   1.008  16.559   8.250
 5243POPC   C3B27009   0.987  16.610   7.950
 5243POPC   C4B27010   0.987  16.585   7.650
 5244POPC   NC327011  39.229  15.908   9.450
 5244POPC   PO427012  39.230  15.976   9.150
 5244POPC   GL127013  39.185  15.984   8.850
 5244POPC   GL227014  39.142  15.982   8.850
 5244POPC   C1A27015  39.185  15.970   8.550
 5244POPC   D2A27016  39.202  15.947   8.250
 5244POPC   C3A27017  39.190  15.915   7.950
 5244POPC   C4A27018  39.261  15.961   7.650
 5244POPC   C1B27019  38.948  15.948   8.550
 5244POPC   C2B27020  38.988  16.022   8.250
 5244POPC   C3B27021  38.991  16.021   7.950
 5244POPC   C4B27022  38.951  16.020   7.650
 5245POPC   NC327023  31.499  34.558   9.450
 5245POPC   PO427024  31.492  34.610   9.150
 5245POPC   GL127025  31.442  34.537   8.850
 5245POPC   GL227026  31.318  34.515   8.850
 5245POPC   C1A27027  31.493  34.535   8.550
 5245POPC   D2A27028  31.509  34.609   8.250
 5245POPC   C3A27029  31.520  34.570   7.950
 5245POPC   C4A27030  31.489  34.622   7.650
 5245POPC   C1B27031  31.232  34.486   8.550
 5245POPC   C2B27032  31.269  34.426   8.250
 5245POPC   C3B27033  31.253  34.490   7.950
 5245POPC   C4B27034  31.197  34.456   7.650
 5246POPC   NC327035  31.458  19.029   9.450
 5246POPC   PO427036  31.469  19.048   9.150
 5246POPC   GL127037  31.435  19.077   8.850
 5246POPC   GL227038  31.410  19.159   8.850
 5246POPC   C1A27039  31.431  19.066   8.550
 5246POPC   D2A27040  31.500  19.107   8.250
 5246POPC   C3A27041  31.492  19.078   7.950
 5246POPC   C4A27042  31.490  19.041   7.650
 5246POPC   C1B27043  31.351  19.287   8.550
 5246POPC   C2B27044  31.374  19.263   8.250
 5246POPC   C3B27045  31.377  19.231   7.950
 5246POPC   C4B27046  31.344  19.269   7.650
 5247POPC   NC327047  15.946   5.105   9.450
 5247POPC   PO427048  15.915   5.101   9.150
 5247POPC   GL127049  15.926   5.057   8.850
 5247POPC   GL227050  15.822   5.071   8.850
 5247POPC   C1A27051  15.999   5.081   8.550
 5247POPC   D2A27052  15.967   5.090   8.250
 5247POPC   C3A27053  15.906   5.074   7.950
 5247POPC   C4A27054  15.973   5.051   7.650
 5247POPC   C1B27055  15.697   4.986   8.550
 5247POPC   C2B27056  15.716   4.980   8.250
 5247POPC   C3B27057  15.736   4.959   7.950
 5247POPC   C4B27058  15.773   4.921   7.650
 5248POPC   NC327059  20.613  19.091   9.450
 5248POPC   PO427060  20.628  19.093   9.150
 5248POPC   GL127061  20.565  19.035   8.850
 5248POPC   GL227062  20.676  19.075   8.850
 5248POPC   C1A27063  20.636  19.059   8.550
 5248POPC   D2A27064  20.654  19.014   8.250
 5248POPC   C3A27065  20.611  19.070   7.950
 5248POPC   C4A27066  20.594  19.023   7.650
 5248POPC   C1B27067  20.796  19.178   8.550
 5248POPC   C2B27068  20.817  19.226   8.250
 5248POPC   C3B27069  20.834  19.215   7.950
 5248POPC   C4B27070  20.840  19.188   7.650
 5249POPC   NC327071  24.511  25.256   9.450
 5249POPC   PO427072  24.495  25.308   9.150
 5249POPC   GL127073  24.490  25.238   8.850
 5249POPC   GL227074  24.511  25.171   8.850
 5249POPC   C1A27075  24.468  25.278   8.550
 5249POPC   D2A27076  24.496  25.284   8.250
 5249POPC   C3A27077  24.512  25.251   7.950
 5249POPC   C4A27078  24.498  25.280   7.650
 5249POPC   C1B27079  24.667  25.070   8.550
 5249POPC   C2B27080  24.633  25.046   8.250
 5249POPC   C3B27081  24.655  25.074   7.950
 5249POPC   C4B27082  24.619  25.064   7.650
 5250POPC   NC327083  43.916  26.864   9.450
 5250POPC   PO427084  43.847  26.837   9.150
 5250POPC   GL127085  43.898  26.812   8.850
 5250POPC   GL227086  43.867  26.667   8.850
 5250POPC   C1A27087  43.891  26.852   8.550
 5250POPC   D2A27088  43.884  26.769   8.250
 5250POPC   C3A27089  43.860  26.860   7.950
 5250POPC   C4A27090  43.936  26.789   7.650
 5250POPC   C1B27091  43.786  26.610   8.550
 5250POPC   C2B27092  43.792  26.553   8.250
 5250POPC   C3B27093  43.771  26.611   7.950
 5250POPC   C4B27094  43.816  26.631   7.650
 5251POPC   NC327095  39.280  28.332   9.450
 5251POPC   PO427096  39.216  28.328   9.150
 5251POPC   GL127097  39.192  28.404   8.850
 5251POPC   GL227098  39.135  28.514   8.850
 5251POPC   C1A27099  39.258  28.373   8.550
 5251POPC   D2A27100  39.197  28.399   8.250
 5251POPC   C3A27101  39.226  28.359   7.950
 5251POPC   C4A27102  39.203  28.417   7.650
 5251POPC   C1B27103  39.108  28.635   8.550
 5251POPC   C2B27104  39.088  28.552   8.250
 5251POPC   C3B27105  39.097  28.646   7.950
 5251POPC   C4B27106  39.146  28.594   7.650
 5252POPC   NC327107  19.849  23.688   9.450
 5252POPC   PO427108  19.799  23.674   9.150
 5252POPC   GL127109  19.803  23.725   8.850
 5252POPC   GL227110  19.757  23.781   8.850
 5252POPC   C1A27111  19.813  23.687   8.550
 5252POPC   D2A27112  19.794  23.706   8.250
 5252POPC   C3A27113  19.865  23.708   7.950
 5252POPC   C4A27114  19.842  23.744   7.650
 5252POPC   C1B27115  19.686  23.936   8.550
 5252POPC   C2B27116  19.734  23.966   8.250
 5252POPC   C3B27117  19.671  23.872   7.950
 5252POPC   C4B27118  19.675  23.894   7.650
 5253POPC   NC327119  18.234  17.461   9.450
 5253POPC   PO427120  18.328  17.487   9.150
 5253POPC   GL127121  18.262  17.539   8.850
 5253POPC   GL227122  18.318  17.645   8.850
 5253POPC   C1A27123  18.330  17.487   8.550
 5253POPC   D2A27124  18.237  17.548   8.250
 5253POPC   C3A27125  18.311  17.541   7.950
 5253POPC   C4A27126  18.255  17.470   7.650
 5253POPC   C1B27127  18.292  17.768   8.550
 5253POPC   C2B27128  18.278  17.802   8.250
 5253POPC   C3B27129  18.277  17.708   7.950
 5253POPC   C4B27130  18.270  17.708   7.650
 5254POPC   NC327131  29.181  42.328   9.450
 5254POPC   PO427132  29.142  42.289   9.150
 5254POPC   GL127133  29.095  42.349   8.850
 5254POPC   GL227134  29.091  42.401   8.850
 5254POPC   C1A27135  29.179  42.300   8.550
 5254POPC   D2A27136  29.159  42.322   8.250
 5254POPC   C3A27137  29.183  42.339   7.950
 5254POPC   C4A27138  29.146  42.294   7.650
 5254POPC   C1B27139  28.945  42.548   8.550
 5254POPC   C2B27140  28.989  42.567   8.250
 5254POPC   C3B27141  28.958  42.554   7.950
 5254POPC   C4B27142  29.015  42.475   7.650
 5255POPC   NC327143   1.974   8.961   9.450
 5255POPC   PO427144   2.020   8.978   9.150
 5255POPC   GL127145   2.015   8.999   8.850
 5255POPC   GL227146   1.974   9.110   8.850
 5255POPC   C1A27147   2.029   8.960   8.550
 5255POPC   D2A27148   2.031   8.932   8.250
 5255POPC   C3A27149   2.018   9.002   7.950
 5255POPC   C4A27150   1.977   9.009   7.650
 5255POPC   C1B27151   1.930   9.190   8.550
 5255POPC   C2B27152   1.956   9.215   8.250
 5255POPC   C3B27153   1.917   9.243   7.950
 5255POPC   C4B27154   1.945   9.243   7.650
 5256POPC   NC327155  11.345  15.978   9.450
 5256POPC   PO427156  11.274  15.947   9.150
 5256POPC   GL127157  11.262  15.957   8.850
 5256POPC   GL227158  11.254  15.828   8.850
 5256POPC   C1A27159  11.336  15.951   8.550
 5256POPC   D2A27160  11.319  15.995   8.250
 5256POPC   C3A27161  11.303  15.962   7.950
 5256POPC   C4A27162  11.303  15.946   7.650
 5256POPC   C1B27163  11.291  15.750   8.550
 5256POPC   C2B27164  11.245  15.725   8.250
 5256POPC   C3B27165  11.210  15.731   7.950
 5256POPC   C4B27166  11.228  15.684   7.650
 5257POPC   NC327167  17.552  26.006   9.450
 5257POPC   PO427168  17.489  26.062   9.150
 5257POPC   GL127169  17.480  26.053   8.850
 5257POPC   GL227170  17.377  26.051   8.850
 5257POPC   C1A27171  17.464  26.086   8.550
 5257POPC   D2A27172  17.538  26.082   8.250
 5257POPC   C3A27173  17.469  26.044   7.950
 5257POPC   C4A27174  17.513  26.080   7.650
 5257POPC   C1B27175  17.306  26.086   8.550
 5257POPC   C2B27176  17.256  26.083   8.250
 5257POPC   C3B27177  17.277  26.075   7.950
 5257POPC   C4B27178  17.224  26.141   7.650
 5258POPC   NC327179  20.594  35.382   9.450
 5258POPC   PO427180  20.618  35.303   9.150
 5258POPC   GL127181  20.572  35.360   8.850
 5258POPC   GL227182  20.712  35.415   8.850
 5258POPC   C1A27183  20.570  35.398   8.550
 5258POPC   D2A27184  20.620  35.383   8.250
 5258POPC   C3A27185  20.641  35.374   7.950
 5258POPC   C4A27186  20.600  35.350   7.650
 5258POPC   C1B27187  20.849  35.468   8.550
 5258POPC   C2B27188  20.807  35.484   8.250
 5258POPC   C3B27189  20.798  35.480   7.950
 5258POPC   C4B27190  20.846  35.416   7.650
 5259POPC   NC327191   3.569  36.943   9.450
 5259POPC   PO427192   3.526  36.886   9.150
 5259POPC   GL127193   3.529  36.945   8.850
 5259POPC   GL227194   3.435  36.823   8.850
 5259POPC   C1A27195   3.524  36.871   8.550
 5259POPC   D2A27196   3.563  36.858   8.250
 5259POPC   C3A27197   3.552  36.885   7.950
 5259POPC   C4A27198   3.535  36.935   7.650
 5259POPC   C1B27199   3.291  36.739   8.550
 5259POPC   C2B27200   3.382  36.718   8.250
 5259POPC   C3B27201   3.355  36.738   7.950
 5259POPC   C4B27202   3.352  36.743   7.650
 5260POPC   NC327203  31.493  11.263   9.450
 5260POPC   PO427204  31.474  11.294   9.150
 5260POPC   GL127205  31.461  11.327   8.850
 5260POPC   GL227206  31.383  11.378   8.850
 5260POPC   C1A27207  31.473  11.300   8.550
 5260POPC   D2A27208  31.472  11.266   8.250
 5260POPC   C3A27209  31.472  11.266   7.950
 5260POPC   C4A27210  31.476  11.346   7.650
 5260POPC   C1B27211  31.295  11.432   8.550
 5260POPC   C2B27212  31.255  11.381   8.250
 5260POPC   C3B27213  31.228  11.436   7.950
 5260POPC   C4B27214  31.280  11.433   7.650
 5261POPC   NC327215  41.560  34.556   9.450
 5261POPC   PO427216  41.567  34.623   9.150
 5261POPC   GL127217  41.516  34.568   8.850
 5261POPC   GL227218  41.420  34.594   8.850
 5261POPC   C1A27219  41.551  34.555   8.550
 5261POPC   D2A27220  41.557  34.623   8.250
 5261POPC   C3A27221  41.549  34.615   7.950
 5261POPC   C4A27222  41.527  34.531   7.650
 5261POPC   C1B27223  41.287  34.644   8.550
 5261POPC   C2B27224  41.320  34.670   8.250
 5261POPC   C3B27225  41.266  34.607   7.950
 5261POPC   C4B27226  41.294  34.597   7.650
 5262POPC   NC327227   8.187  30.745   9.450
 5262POPC   PO427228   8.183  30.724   9.150
 5262POPC   GL127229   8.174  30.655   8.850
 5262POPC   GL227230   8.125  30.793   8.850
 5262POPC   C1A27231   8.149  30.681   8.550
 5262POPC   D2A27232   8.164  30.724   8.250
 5262POPC   C3A27233   8.173  30.716   7.950
 5262POPC   C4A27234   8.174  30.665   7.650
 5262POPC   C1B27235   8.143  30.946   8.550
 5262POPC   C2B27236   8.105  30.970   8.250
 5262POPC   C3B27237   8.107  30.962   7.950
 5262POPC   C4B27238   8.075  30.915   7.650
 5263POPC   NC327239  23.722   8.208   9.450
 5263POPC   PO427240  23.762   8.204   9.150
 5263POPC   GL127241  23.664   8.181   8.850
 5263POPC   GL227242  23.572   8.180   8.850
 5263POPC   C1A27243  23.695   8.167   8.550
 5263POPC   D2A27244  23.723   8.153   8.250
 5263POPC   C3A27245  23.750   8.188   7.950
 5263POPC   C4A27246  23.677   8.160   7.650
 5263POPC   C1B27247  23.464   8.247   8.550
 5263POPC   C2B27248  23.455   8.280   8.250
 5263POPC   C3B27249  23.507   8.297   7.950
 5263POPC   C4B27250  23.450   8.231   7.650
 5264POPC   NC327251   1.225  19.098   9.450
 5264POPC   PO427252   1.247  19.041   9.150
 5264POPC   GL127253   1.232  19.033   8.850
 5264POPC   GL227254   1.320  19.024   8.850
 5264POPC   C1A27255   1.237  19.055   8.550
 5264POPC   D2A27256   1.210  19.103   8.250
 5264POPC   C3A27257   1.243  19.083   7.950
 5264POPC   C4A27258   1.237  19.070   7.650
 5264POPC   C1B27259   1.481  19.055   8.550
 5264POPC   C2B27260   1.469  18.990   8.250
 5264POPC   C3B27261   1.507  19.073   7.950
 5264POPC   C4B27262   1.445  18.996   7.650
 5265POPC   NC327263  19.832  39.982   9.450
 5265POPC   PO427264  19.884  40.035   9.150
 5265POPC   GL127265  19.827  39.983   8.850
 5265POPC   GL227266  19.714  40.014   8.850
 5265POPC   C1A27267  19.834  40.008   8.550
 5265POPC   D2A27268  19.826  39.993   8.250
 5265POPC   C3A27269  19.786  40.011   7.950
 5265POPC   C4A27270  19.851  39.980   7.650
 5265POPC   C1B27271  19.584  40.036   8.550
 5265POPC   C2B27272  19.577  40.053   8.250
 5265POPC   C3B27273  19.581  40.090   7.950
 5265POPC   C4B27274  19.633  40.069   7.650
 5266POPC   NC327275  41.585  22.956   9.450
 5266POPC   PO427276  41.518  22.935   9.150
 5266POPC   GL127277  41.594  22.895   8.850
 5266POPC   GL227278  41.665  22.874   8.850
 5266POPC   C1A27279  41.514  22.896   8.550
 5266POPC   D2A27280  41.511  22.920   8.250
 5266POPC   C3A27281  41.526  22.928   7.950
 5266POPC   C4A27282  41.558  22.891   7.650
 5266POPC   C1B27283  41.758  22.858   8.550
 5266POPC   C2B27284  41.796  22.834   8.250
 5266POPC   C3B27285  41.737  22.843   7.950
 5266POPC   C4B27286  41.801  22.842   7.650
 5267POPC   NC327287  20.574  28.368   9.450
 5267POPC   PO427288  20.617  28.365   9.150
 5267POPC   GL127289  20.596  28.334   8.850
 5267POPC   GL227290  20.571  28.261   8.850
 5267POPC   C1A27291  20.598  28.333   8.550
 5267POPC   D2A27292  20.658  28.394   8.250
 5267POPC   C3A27293  20.598  28.388   7.950
 5267POPC   C4A27294  20.585  28.413   7.650
 5267POPC   C1B27295  20.520  28.155   8.550
 5267POPC   C2B27296  20.528  28.200   8.250
 5267POPC   C3B27297  20.431  28.139   7.950
 5267POPC   C4B27298  20.521  28.134   7.650
 5268POPC   NC327299  42.333   0.403   9.450
 5268POPC   PO427300  42.346   0.395   9.150
 5268POPC   GL127301  42.329   0.456   8.850
 5268POPC   GL227302  42.342   0.324   8.850
 5268POPC   C1A27303  42.305   0.430   8.550
 5268POPC   D2A27304  42.370   0.408   8.250
 5268POPC   C3A27305  42.381   0.435   7.950
 5268POPC   C4A27306  42.290   0.425   7.650
 5268POPC   C1B27307  42.434   0.157   8.550
 5268POPC   C2B27308  42.403   0.184   8.250
 5268POPC   C3B27309  42.450   0.184   7.950
 5268POPC   C4B27310  42.389   0.209   7.650
 5269POPC   NC327311   6.614  17.475   9.450
 5269POPC   PO427312   6.622  17.470   9.150
 5269POPC   GL127313   6.609  17.500   8.850
 5269POPC   GL227314   6.577  17.419   8.850
 5269POPC   C1A27315   6.673  17.540   8.550
 5269POPC   D2A27316   6.612  17.486   8.250
 5269POPC   C3A27317   6.600  17.501   7.950
 5269POPC   C4A27318   6.684  17.544   7.650
 5269POPC   C1B27319   6.436  17.355   8.550
 5269POPC   C2B27320   6.434  17.339   8.250
 5269POPC   C3B27321   6.405  17.342   7.950
 5269POPC   C4B27322   6.441  17.411   7.650
 5270POPC   NC327323  27.627  18.320   9.450
 5270POPC   PO427324  27.625  18.332   9.150
 5270POPC   GL127325  27.616  18.271   8.850
 5270POPC   GL227326  27.582  18.410   8.850
 5270POPC   C1A27327  27.544  18.324   8.550
 5270POPC   D2A27328  27.544  18.235   8.250
 5270POPC   C3A27329  27.619  18.238   7.950
 5270POPC   C4A27330  27.607  18.253   7.650
 5270POPC   C1B27331  27.537  18.516   8.550
 5270POPC   C2B27332  27.617  18.558   8.250
 5270POPC   C3B27333  27.589  18.532   7.950
 5270POPC   C4B27334  27.526  18.530   7.650
 5271POPC   NC327335  32.213  39.265   9.450
 5271POPC   PO427336  32.281  39.259   9.150
 5271POPC   GL127337  32.206  39.245   8.850
 5271POPC   GL227338  32.399  39.173   8.850
 5271POPC   C1A27339  32.297  39.242   8.550
 5271POPC   D2A27340  32.266  39.206   8.250
 5271POPC   C3A27341  32.298  39.224   7.950
 5271POPC   C4A27342  32.227  39.232   7.650
 5271POPC   C1B27343  32.513  39.122   8.550
 5271POPC   C2B27344  32.443  39.140   8.250
 5271POPC   C3B27345  32.496  39.147   7.950
 5271POPC   C4B27346  32.502  39.168   7.650
 5272POPC   NC327347  10.531  27.556   9.450
 5272POPC   PO427348  10.504  27.605   9.150
 5272POPC   GL127349  10.552  27.625   8.850
 5272POPC   GL227350  10.579  27.560   8.850
 5272POPC   C1A27351  10.551  27.584   8.550
 5272POPC   D2A27352  10.519  27.547   8.250
 5272POPC   C3A27353  10.530  27.612   7.950
 5272POPC   C4A27354  10.528  27.619   7.650
 5272POPC   C1B27355  10.708  27.432   8.550
 5272POPC   C2B27356  10.730  27.407   8.250
 5272POPC   C3B27357  10.737  27.436   7.950
 5272POPC   C4B27358  10.684  27.450   7.650
 5273POPC   NC327359  27.559  12.826   9.450
 5273POPC   PO427360  27.587  12.826   9.150
 5273POPC   GL127361  27.568  12.838   8.850
 5273POPC   GL227362  27.520  12.701   8.850
 5273POPC   C1A27363  27.579  12.854   8.550
 5273POPC   D2A27364  27.553  12.836   8.250
 5273POPC   C3A27365  27.613  12.807   7.950
 5273POPC   C4A27366  27.627  12.889   7.650
 5273POPC   C1B27367  27.573  12.616   8.550
 5273POPC   C2B27368  27.577  12.594   8.250
 5273POPC   C3B27369  27.575  12.602   7.950
 5273POPC   C4B27370  27.499  12.586   7.650
 5274POPC   NC327371  43.836  22.163   9.450
 5274POPC   PO427372  43.854  22.125   9.150
 5274POPC   GL127373  43.932  22.181   8.850
 5274POPC   GL227374  43.814  22.026   8.850
 5274POPC   C1A27375  43.927  22.190   8.550
 5274POPC   D2A27376  43.892  22.133   8.250
 5274POPC   C3A27377  43.887  22.133   7.950
 5274POPC   C4A27378  43.884  22.138   7.650
 5274POPC   C1B27379  43.683  21.958   8.550
 5274POPC   C2B27380  43.685  21.962   8.250
 5274POPC   C3B27381  43.764  21.967   7.950
 5274POPC   C4B27382  43.709  21.998   7.650
 5275POPC   NC327383  29.189   7.446   9.450
 5275POPC   PO427384  29.164   7.399   9.150
 5275POPC   GL127385  29.176   7.462   8.850
 5275POPC   GL227386  29.095   7.318   8.850
 5275POPC   C1A27387  29.114   7.423   8.550
 5275POPC   D2A27388  29.178   7.441   8.250
 5275POPC   C3A27389  29.129   7.399   7.950
 5275POPC   C4A27390  29.149   7.450   7.650
 5275POPC   C1B27391  29.066   7.245   8.550
 5275POPC   C2B27392  29.015   7.181   8.250
 5275POPC   C3B27393  29.068   7.253   7.950
 5275POPC   C4B27394  28.974   7.220   7.650
 5276POPC   NC327395   2.742  24.486   9.450
 5276POPC   PO427396   2.769  24.451   9.150
 5276POPC   GL127397   2.717  24.533   8.850
 5276POPC   GL227398   2.856  24.404   8.850
 5276POPC   C1A27399   2.735  24.447   8.550
 5276POPC   D2A27400   2.727  24.507   8.250
 5276POPC   C3A27401   2.810  24.508   7.950
 5276POPC   C4A27402   2.813  24.502   7.650
 5276POPC   C1B27403   2.946  24.327   8.550
 5276POPC   C2B27404   2.959  24.380   8.250
 5276POPC   C3B27405   2.936  24.396   7.950
 5276POPC   C4B27406   2.939  24.369   7.650
 5277POPC   NC327407  40.044  15.228   9.450
 5277POPC   PO427408  40.044  15.215   9.150
 5277POPC   GL127409  40.007  15.203   8.850
 5277POPC   GL227410  39.886  15.184   8.850
 5277POPC   C1A27411  39.973  15.185   8.550
 5277POPC   D2A27412  40.055  15.138   8.250
 5277POPC   C3A27413  39.960  15.134   7.950
 5277POPC   C4A27414  40.016  15.173   7.650
 5277POPC   C1B27415  39.767  15.145   8.550
 5277POPC   C2B27416  39.793  15.198   8.250
 5277POPC   C3B27417  39.802  15.191   7.950
 5277POPC   C4B27418  39.738  15.127   7.650
 5278POPC   NC327419  11.330  44.626   9.450
 5278POPC   PO427420  11.262  44.702   9.150
 5278POPC   GL127421  11.347  44.666   8.850
 5278POPC   GL227422  11.421  44.749   8.850
 5278POPC   C1A27423  11.295  44.621   8.550
 5278POPC   D2A27424  11.323  44.654   8.250
 5278POPC   C3A27425  11.295  44.620   7.950
 5278POPC   C4A27426  11.333  44.621   7.650
 5278POPC   C1B27427  11.562  44.739   8.550
 5278POPC   C2B27428  11.518  44.773   8.250
 5278POPC   C3B27429  11.501  44.794   7.950
 5278POPC   C4B27430  11.483  44.795   7.650
 5279POPC   NC327431  22.929  19.051   9.450
 5279POPC   PO427432  22.972  19.086   9.150
 5279POPC   GL127433  22.965  19.018   8.850
 5279POPC   GL227434  23.102  19.012   8.850
 5279POPC   C1A27435  22.932  19.040   8.550
 5279POPC   D2A27436  22.965  19.078   8.250
 5279POPC   C3A27437  22.939  19.054   7.950
 5279POPC   C4A27438  22.899  19.017   7.650
 5279POPC   C1B27439  23.176  18.959   8.550
 5279POPC   C2B27440  23.158  18.962   8.250
 5279POPC   C3B27441  23.190  19.035   7.950
 5279POPC   C4B27442  23.208  19.041   7.650
 5280POPC   NC327443  25.992  12.894   9.450
 5280POPC   PO427444  26.074  12.850   9.150
 5280POPC   GL127445  26.032  12.882   8.850
 5280POPC   GL227446  25.975  12.738   8.850
 5280POPC   C1A27447  26.017  12.822   8.550
 5280POPC   D2A27448  26.070  12.891   8.250
 5280POPC   C3A27449  26.089  12.890   7.950
 5280POPC   C4A27450  26.001  12.874   7.650
 5280POPC   C1B27451  25.910  12.635   8.550
 5280POPC   C2B27452  25.845  12.694   8.250
 5280POPC   C3B27453  25.826  12.700   7.950
 5280POPC   C4B27454  25.833  12.652   7.650
 5281POPC   NC327455  17.509  34.576   9.450
 5281POPC   PO427456  17.538  34.620   9.150
 5281POPC   GL127457  17.464  34.527   8.850
 5281POPC   GL227458  17.424  34.540   8.850
 5281POPC   C1A27459  17.500  34.566   8.550
 5281POPC   D2A27460  17.549  34.535   8.250
 5281POPC   C3A27461  17.502  34.540   7.950
 5281POPC   C4A27462  17.510  34.608   7.650
 5281POPC   C1B27463  17.233  34.463   8.550
 5281POPC   C2B27464  17.244  34.471   8.250
 5281POPC   C3B27465  17.302  34.486   7.950
 5281POPC   C4B27466  17.314  34.532   7.650
 5282POPC   NC327467  35.353  32.242   9.450
 5282POPC   PO427468  35.399  32.211   9.150
 5282POPC   GL127469  35.314  32.249   8.850
 5282POPC   GL227470  35.453  32.156   8.850
 5282POPC   C1A27471  35.378  32.224   8.550
 5282POPC   D2A27472  35.401  32.222   8.250
 5282POPC   C3A27473  35.311  32.281   7.950
 5282POPC   C4A27474  35.325  32.270   7.650
 5282POPC   C1B27475  35.510  32.096   8.550
 5282POPC   C2B27476  35.522  32.026   8.250
 5282POPC   C3B27477  35.535  32.052   7.950
 5282POPC   C4B27478  35.479  32.107   7.650
 5283POPC   NC327479  15.906   0.433   9.450
 5283POPC   PO427480  15.960   0.389   9.150
 5283POPC   GL127481  15.997   0.390   8.850
 5283POPC   GL227482  15.900   0.314   8.850
 5283POPC   C1A27483  15.921   0.432   8.550
 5283POPC   D2A27484  15.915   0.403   8.250
 5283POPC   C3A27485  15.935   0.425   7.950
 5283POPC   C4A27486  15.975   0.487   7.650
 5283POPC   C1B27487  15.894   0.151   8.550
 5283POPC   C2B27488  15.961   0.203   8.250
 5283POPC   C3B27489  15.971   0.227   7.950
 5283POPC   C4B27490  15.963   0.156   7.650
 5284POPC   NC327491   2.745  22.950   9.450
 5284POPC   PO427492   2.755  22.952   9.150
 5284POPC   GL127493   2.815  22.984   8.850
 5284POPC   GL227494   2.687  23.044   8.850
 5284POPC   C1A27495   2.761  22.949   8.550
 5284POPC   D2A27496   2.738  22.948   8.250
 5284POPC   C3A27497   2.773  22.977   7.950
 5284POPC   C4A27498   2.776  22.957   7.650
 5284POPC   C1B27499   2.562  23.090   8.550
 5284POPC   C2B27500   2.566  23.055   8.250
 5284POPC   C3B27501   2.569  23.072   7.950
 5284POPC   C4B27502   2.555  23.068   7.650
 5285POPC   NC327503   3.504   8.977   9.450
 5285POPC   PO427504   3.568   8.933   9.150
 5285POPC   GL127505   3.524   8.953   8.850
 5285POPC   GL227506   3.634   8.960   8.850
 5285POPC   C1A27507   3.506   9.000   8.550
 5285POPC   D2A27508   3.529   9.013   8.250
 5285POPC   C3A27509   3.506   9.015   7.950
 5285POPC   C4A27510   3.526   8.977   7.650
 5285POPC   C1B27511   3.790   8.975   8.550
 5285POPC   C2B27512   3.769   9.020   8.250
 5285POPC   C3B27513   3.839   9.002   7.950
 5285POPC   C4B27514   3.822   8.944   7.650
 5286POPC   NC327515  35.355  35.382   9.450
 5286POPC   PO427516  35.346  35.327   9.150
 5286POPC   GL127517  35.307  35.357   8.850
 5286POPC   GL227518  35.452  35.355   8.850
 5286POPC   C1A27519  35.392  35.382   8.550
 5286POPC   D2A27520  35.378  35.372   8.250
 5286POPC   C3A27521  35.306  35.397   7.950
 5286POPC   C4A27522  35.309  35.379   7.650
 5286POPC   C1B27523  35.631  35.378   8.550
 5286POPC   C2B27524  35.630  35.391   8.250
 5286POPC   C3B27525  35.628  35.450   7.950
 5286POPC   C4B27526  35.633  35.381   7.650
 5287POPC   NC327527  43.935  38.434   9.450
 5287POPC   PO427528  43.909  38.462   9.150
 5287POPC   GL127529  43.910  38.451   8.850
 5287POPC   GL227530  43.998  38.372   8.850
 5287POPC   C1A27531  43.900  38.407   8.550
 5287POPC   D2A27532  43.874  38.483   8.250
 5287POPC   C3A27533  43.876  38.494   7.950
 5287POPC   C4A27534  43.868  38.503   7.650
 5287POPC   C1B27535  44.121  38.342   8.550
 5287POPC   C2B27536  44.063  38.328   8.250
 5287POPC   C3B27537  44.079  38.318   7.950
 5287POPC   C4B27538  44.090  38.301   7.650
 5288POPC   NC327539  40.819  27.587   9.450
 5288POPC   PO427540  40.806  27.631   9.150
 5288POPC   GL127541  40.740  27.577   8.850
 5288POPC   GL227542  40.838  27.766   8.850
 5288POPC   C1A27543  40.767  27.635   8.550
 5288POPC   D2A27544  40.762  27.595   8.250
 5288POPC   C3A27545  40.818  27.589   7.950
 5288POPC   C4A27546  40.795  27.584   7.650
 5288POPC   C1B27547  40.869  27.791   8.550
 5288POPC   C2B27548  40.847  27.809   8.250
 5288POPC   C3B27549  40.864  27.814   7.950
 5288POPC   C4B27550  40.806  27.792   7.650
 5289POPC   NC327551  41.536   5.847   9.450
 5289POPC   PO427552  41.569   5.821   9.150
 5289POPC   GL127553  41.525   5.878   8.850
 5289POPC   GL227554  41.448   5.845   8.850
 5289POPC   C1A27555  41.556   5.898   8.550
 5289POPC   D2A27556  41.543   5.919   8.250
 5289POPC   C3A27557  41.556   5.828   7.950
 5289POPC   C4A27558  41.603   5.899   7.650
 5289POPC   C1B27559  41.276   5.840   8.550
 5289POPC   C2B27560  41.354   5.822   8.250
 5289POPC   C3B27561  41.312   5.873   7.950
 5289POPC   C4B27562  41.298   5.828   7.650
 5290POPC   NC327563   2.730  16.777   9.450
 5290POPC   PO427564   2.719  16.727   9.150
 5290POPC   GL127565   2.771  16.771   8.850
 5290POPC   GL227566   2.835  16.580   8.850
 5290POPC   C1A27567   2.796  16.719   8.550
 5290POPC   D2A27568   2.774  16.755   8.250
 5290POPC   C3A27569   2.796  16.754   7.950
 5290POPC   C4A27570   2.743  16.763   7.650
 5290POPC   C1B27571   2.898  16.527   8.550
 5290POPC   C2B27572   2.845  16.549   8.250
 5290POPC   C3B27573   2.832  16.513   7.950
 5290POPC   C4B27574   2.854  16.506   7.650
 5291POPC   NC327575   5.093  40.013   9.450
 5291POPC   PO427576   5.135  39.976   9.150
 5291POPC   GL127577   5.055  40.022   8.850
 5291POPC   GL227578   4.997  39.946   8.850
 5291POPC   C1A27579   5.093  39.998   8.550
 5291POPC   D2A27580   5.140  40.047   8.250
 5291POPC   C3A27581   5.078  39.976   7.950
 5291POPC   C4A27582   5.065  39.999   7.650
 5291POPC   C1B27583   4.816  39.970   8.550
 5291POPC   C2B27584   4.836  39.918   8.250
 5291POPC   C3B27585   4.894  39.976   7.950
 5291POPC   C4B27586   4.850  39.948   7.650
 5292POPC   NC327587  26.079  22.983   9.450
 5292POPC   PO427588  26.002  22.961   9.150
 5292POPC   GL127589  26.090  22.964   8.850
 5292POPC   GL227590  26.023  23.052   8.850
 5292POPC   C1A27591  26.070  22.944   8.550
 5292POPC   D2A27592  26.052  22.926   8.250
 5292POPC   C3A27593  26.083  22.920   7.950
 5292POPC   C4A27594  26.011  22.941   7.650
 5292POPC   C1B27595  25.906  23.158   8.550
 5292POPC   C2B27596  25.885  23.202   8.250
 5292POPC   C3B27597  25.893  23.132   7.950
 5292POPC   C4B27598  25.876  23.141   7.650
 5293POPC   NC327599  16.762  22.980   9.450
 5293POPC   PO427600  16.751  22.948   9.150
 5293POPC   GL127601  16.725  22.910   8.850
 5293POPC   GL227602  16.604  22.899   8.850
 5293POPC   C1A27603  16.752  22.894   8.550
 5293POPC   D2A27604  16.692  22.943   8.250
 5293POPC   C3A27605  16.731  22.942   7.950
 5293POPC   C4A27606  16.731  22.951   7.650
 5293POPC   C1B27607  16.563  22.851   8.550
 5293POPC   C2B27608  16.512  22.800   8.250
 5293POPC   C3B27609  16.543  22.759   7.950
 5293POPC   C4B27610  16.535  22.779   7.650
 5294POPC   NC327611  14.373   7.457   9.450
 5294POPC   PO427612  14.378   7.440   9.150
 5294POPC   GL127613  14.431   7.437   8.850
 5294POPC   GL227614  14.329   7.572   8.850
 5294POPC   C1A27615  14.375   7.437   8.550
 5294POPC   D2A27616  14.396   7.428   8.250
 5294POPC   C3A27617  14.425   7.444   7.950
 5294POPC   C4A27618  14.432   7.399   7.650
 5294POPC   C1B27619  14.384   7.625   8.550
 5294POPC   C2B27620  14.385   7.686   8.250
 5294POPC   C3B27621  14.356   7.687   7.950
 5294POPC   C4B27622  14.320   7.616   7.650
 5295POPC   NC327623   5.823  40.791   9.450
 5295POPC   PO427624   5.868  40.809   9.150
 5295POPC   GL127625   5.829  40.803   8.850
 5295POPC   GL227626   5.821  40.858   8.850
 5295POPC   C1A27627   5.830  40.764   8.550
 5295POPC   D2A27628   5.842  40.784   8.250
 5295POPC   C3A27629   5.859  40.828   7.950
 5295POPC   C4A27630   5.913  40.810   7.650
 5295POPC   C1B27631   5.763  41.045   8.550
 5295POPC   C2B27632   5.844  41.001   8.250
 5295POPC   C3B27633   5.811  41.041   7.950
 5295POPC   C4B27634   5.761  41.013   7.650
 5296POPC   NC327635   1.232  17.535   9.450
 5296POPC   PO427636   1.252  17.478   9.150
 5296POPC   GL127637   1.252  17.506   8.850
 5296POPC   GL227638   1.301  17.432   8.850
 5296POPC   C1A27639   1.248  17.549   8.550
 5296POPC   D2A27640   1.219  17.488   8.250
 5296POPC   C3A27641   1.171  17.537   7.950
 5296POPC   C4A27642   1.249  17.492   7.650
 5296POPC   C1B27643   1.418  17.380   8.550
 5296POPC   C2B27644   1.454  17.354   8.250
 5296POPC   C3B27645   1.433  17.400   7.950
 5296POPC   C4B27646   1.455  17.359   7.650
 5297POPC   NC327647  16.740   2.781   9.450
 5297POPC   PO427648  16.709   2.768   9.150
 5297POPC   GL127649  16.716   2.763   8.850
 5297POPC   GL227650  16.787   2.661   8.850
 5297POPC   C1A27651  16.683   2.752   8.550
 5297POPC   D2A27652  16.699   2.727   8.250
 5297POPC   C3A27653  16.718   2.737   7.950
 5297POPC   C4A27654  16.769   2.734   7.650
 5297POPC   C1B27655  16.753   2.542   8.550
 5297POPC   C2B27656  16.743   2.515   8.250
 5297POPC   C3B27657  16.768   2.528   7.950
 5297POPC   C4B27658  16.758   2.519   7.650
 5298POPC   NC327659  39.965  17.492   9.450
 5298POPC   PO427660  40.000  17.504   9.150
 5298POPC   GL127661  40.027  17.495   8.850
 5298POPC   GL227662  39.849  17.545   8.850
 5298POPC   C1A27663  40.033  17.539   8.550
 5298POPC   D2A27664  40.055  17.487   8.250
 5298POPC   C3A27665  40.050  17.552   7.950
 5298POPC   C4A27666  40.007  17.470   7.650
 5298POPC   C1B27667  39.799  17.510   8.550
 5298POPC   C2B27668  39.735  17.474   8.250
 5298POPC   C3B27669  39.780  17.536   7.950
 5298POPC   C4B27670  39.734  17.488   7.650
 5299POPC   NC327671  44.619  18.304   9.450
 5299POPC   PO427672  44.624  18.258   9.150
 5299POPC   GL127673  44.619  18.306   8.850
 5299POPC   GL227674  44.708  18.146   8.850
 5299POPC   C1A27675  44.647  18.244   8.550
 5299POPC   D2A27676  44.639  18.295   8.250
 5299POPC   C3A27677  44.624  18.245   7.950
 5299POPC   C4A27678  44.644  18.244   7.650
 5299POPC   C1B27679  44.710  17.991   8.550
 5299POPC   C2B27680  44.673  18.062   8.250
 5299POPC   C3B27681  44.627  18.002   7.950
 5299POPC   C4B27682  44.716  18.010   7.650
 5300POPC   NC327683  11.291   8.931   9.450
 5300POPC   PO427684  11.311   8.937   9.150
 5300POPC   GL127685  11.304   8.963   8.850
 5300POPC   GL227686  11.356   9.092   8.850
 5300POPC   C1A27687  11.265   8.995   8.550
 5300POPC   D2A27688  11.296   9.021   8.250
 5300POPC   C3A27689  11.319   9.012   7.950
 5300POPC   C4A27690  11.255   8.964   7.650
 5300POPC   C1B27691  11.460   9.216   8.550
 5300POPC   C2B27692  11.424   9.144   8.250
 5300POPC   C3B27693  11.411   9.132   7.950
 5300POPC   C4B27694  11.422   9.213   7.650
 5301POPC   NC327695  28.409   6.661   9.450
 5301POPC   PO427696  28.373   6.617   9.150
 5301POPC   GL127697  28.334   6.643   8.850
 5301POPC   GL227698  28.485   6.686   8.850
 5301POPC   C1A27699  28.324   6.677   8.550
 5301POPC   D2A27700  28.360   6.655   8.250
 5301POPC   C3A27701  28.407   6.685   7.950
 5301POPC   C4A27702  28.348   6.659   7.650
 5301POPC   C1B27703  28.656   6.701   8.550
 5301POPC   C2B27704  28.638   6.715   8.250
 5301POPC   C3B27705  28.594   6.679   7.950
 5301POPC   C4B27706  28.653   6.732   7.650
 5302POPC   NC327707  24.486  15.933   9.450
 5302POPC   PO427708  24.480  15.963   9.150
 5302POPC   GL127709  24.448  15.973   8.850
 5302POPC   GL227710  24.379  16.085   8.850
 5302POPC   C1A27711  24.486  16.002   8.550
 5302POPC   D2A27712  24.449  16.004   8.250
 5302POPC   C3A27713  24.486  15.970   7.950
 5302POPC   C4A27714  24.518  15.985   7.650
 5302POPC   C1B27715  24.318  16.153   8.550
 5302POPC   C2B27716  24.331  16.183   8.250
 5302POPC   C3B27717  24.364  16.095   7.950
 5302POPC   C4B27718  24.323  16.163   7.650
 5303POPC   NC327719  43.868  37.631   9.450
 5303POPC   PO427720  43.931  37.700   9.150
 5303POPC   GL127721  43.881  37.641   8.850
 5303POPC   GL227722  43.792  37.653   8.850
 5303POPC   C1A27723  43.901  37.655   8.550
 5303POPC   D2A27724  43.926  37.720   8.250
 5303POPC   C3A27725  43.926  37.695   7.950
 5303POPC   C4A27726  43.896  37.701   7.650
 5303POPC   C1B27727  43.673  37.604   8.550
 5303POPC   C2B27728  43.697  37.567   8.250
 5303POPC   C3B27729  43.620  37.577   7.950
 5303POPC   C4B27730  43.650  37.566   7.650
 5304POPC   NC327731  17.467  14.448   9.450
 5304POPC   PO427732  17.516  14.388   9.150
 5304POPC   GL127733  17.506  14.426   8.850
 5304POPC   GL227734  17.561  14.318   8.850
 5304POPC   C1A27735  17.526  14.376   8.550
 5304POPC   D2A27736  17.474  14.428   8.250
 5304POPC   C3A27737  17.461  14.394   7.950
 5304POPC   C4A27738  17.511  14.371   7.650
 5304POPC   C1B27739  17.733  14.279   8.550
 5304POPC   C2B27740  17.719  14.295   8.250
 5304POPC   C3B27741  17.737  14.255   7.950
 5304POPC   C4B27742  17.746  14.259   7.650
 5305POPC   NC327743  15.975  15.939   9.450
 5305POPC   PO427744  15.958  15.974   9.150
 5305POPC   GL127745  15.949  16.002   8.850
 5305POPC   GL227746  15.948  15.824   8.850
 5305POPC   C1A27747  15.975  15.946   8.550
 5305POPC   D2A27748  15.960  15.907   8.250
 5305POPC   C3A27749  15.920  15.960   7.950
 5305POPC   C4A27750  15.914  15.965   7.650
 5305POPC   C1B27751  15.984  15.701   8.550
 5305POPC   C2B27752  16.012  15.689   8.250
 5305POPC   C3B27753  15.991  15.754   7.950
 5305POPC   C4B27754  15.990  15.663   7.650
 5306POPC   NC327755  36.081  39.966   9.450
 5306POPC   PO427756  36.167  40.005   9.150
 5306POPC   GL127757  36.123  39.998   8.850
 5306POPC   GL227758  36.271  39.946   8.850
 5306POPC   C1A27759  36.109  39.998   8.550
 5306POPC   D2A27760  36.126  40.050   8.250
 5306POPC   C3A27761  36.120  40.016   7.950
 5306POPC   C4A27762  36.147  40.014   7.650
 5306POPC   C1B27763  36.384  39.966   8.550
 5306POPC   C2B27764  36.362  39.977   8.250
 5306POPC   C3B27765  36.355  39.975   7.950
 5306POPC   C4B27766  36.391  39.894   7.650
 5307POPC   NC327767  24.528  22.981   9.450
 5307POPC   PO427768  24.476  22.903   9.150
 5307POPC   GL127769  24.499  22.896   8.850
 5307POPC   GL227770  24.538  23.082   8.850
 5307POPC   C1A27771  24.515  22.890   8.550
 5307POPC   D2A27772  24.484  22.982   8.250
 5307POPC   C3A27773  24.476  22.951   7.950
 5307POPC   C4A27774  24.498  22.896   7.650
 5307POPC   C1B27775  24.535  23.155   8.550
 5307POPC   C2B27776  24.516  23.206   8.250
 5307POPC   C3B27777  24.511  23.212   7.950
 5307POPC   C4B27778  24.594  23.208   7.650
 5308POPC   NC327779  43.851  40.032   9.450
 5308POPC   PO427780  43.893  39.980   9.150
 5308POPC   GL127781  43.927  40.006   8.850
 5308POPC   GL227782  43.888  39.869   8.850
 5308POPC   C1A27783  43.875  40.037   8.550
 5308POPC   D2A27784  43.846  40.044   8.250
 5308POPC   C3A27785  43.876  40.035   7.950
 5308POPC   C4A27786  43.935  39.992   7.650
 5308POPC   C1B27787  43.824  39.746   8.550
 5308POPC   C2B27788  43.894  39.738   8.250
 5308POPC   C3B27789  43.876  39.779   7.950
 5308POPC   C4B27790  43.881  39.765   7.650
 5309POPC   NC327791  36.874  19.028   9.450
 5309POPC   PO427792  36.899  19.045   9.150
 5309POPC   GL127793  36.885  19.049   8.850
 5309POPC   GL227794  36.851  19.128   8.850
 5309POPC   C1A27795  36.952  19.012   8.550
 5309POPC   D2A27796  36.921  19.106   8.250
 5309POPC   C3A27797  36.927  19.010   7.950
 5309POPC   C4A27798  36.928  19.064   7.650
 5309POPC   C1B27799  36.664  19.231   8.550
 5309POPC   C2B27800  36.726  19.234   8.250
 5309POPC   C3B27801  36.667  19.235   7.950
 5309POPC   C4B27802  36.704  19.201   7.650
 5310POPC   NC327803  11.272  18.284   9.450
 5310POPC   PO427804  11.264  18.258   9.150
 5310POPC   GL127805  11.330  18.323   8.850
 5310POPC   GL227806  11.293  18.148   8.850
 5310POPC   C1A27807  11.271  18.259   8.550
 5310POPC   D2A27808  11.291  18.234   8.250
 5310POPC   C3A27809  11.285  18.249   7.950
 5310POPC   C4A27810  11.330  18.235   7.650
 5310POPC   C1B27811  11.250  18.031   8.550
 5310POPC   C2B27812  11.323  18.043   8.250
 5310POPC   C3B27813  11.274  17.996   7.950
 5310POPC   C4B27814  11.253  18.061   7.650
 5311POPC   NC327815   6.653  11.327   9.450
 5311POPC   PO427816   6.605  11.332   9.150
 5311POPC   GL127817   6.656  11.261   8.850
 5311POPC   GL227818   6.658  11.179   8.850
 5311POPC   C1A27819   6.670  11.346   8.550
 5311POPC   D2A27820   6.643  11.349   8.250
 5311POPC   C3A27821   6.639  11.339   7.950
 5311POPC   C4A27822   6.684  11.286   7.650
 5311POPC   C1B27823   6.658  11.089   8.550
 5311POPC   C2B27824   6.584  11.026   8.250
 5311POPC   C3B27825   6.594  11.041   7.950
 5311POPC   C4B27826   6.649  11.080   7.650
 5312POPC   NC327827  15.991  14.437   9.450
 5312POPC   PO427828  15.968  14.446   9.150
 5312POPC   GL127829  15.983  14.389   8.850
 5312POPC   GL227830  16.082  14.398   8.850
 5312POPC   C1A27831  15.931  14.393   8.550
 5312POPC   D2A27832  15.973  14.407   8.250
 5312POPC   C3A27833  15.953  14.393   7.950
 5312POPC   C4A27834  15.909  14.410   7.650
 5312POPC   C1B27835  16.156  14.529   8.550
 5312POPC   C2B27836  16.190  14.491   8.250
 5312POPC   C3B27837  16.213  14.525   7.950
 5312POPC   C4B27838  16.232  14.502   7.650
 5313POPC   NC327839  29.872  31.516   9.450
 5313POPC   PO427840  29.941  31.485   9.150
 5313POPC   GL127841  29.894  31.432   8.850
 5313POPC   GL227842  29.987  31.601   8.850
 5313POPC   C1A27843  29.913  31.499   8.550
 5313POPC   D2A27844  29.952  31.520   8.250
 5313POPC   C3A27845  29.940  31.486   7.950
 5313POPC   C4A27846  29.916  31.433   7.650
 5313POPC   C1B27847  29.980  31.652   8.550
 5313POPC   C2B27848  30.035  31.681   8.250
 5313POPC   C3B27849  29.977  31.653   7.950
 5313POPC   C4B27850  29.979  31.664   7.650
 5314POPC   NC327851   8.208  15.164   9.450
 5314POPC   PO427852   8.241  15.213   9.150
 5314POPC   GL127853   8.212  15.151   8.850
 5314POPC   GL227854   8.249  15.293   8.850
 5314POPC   C1A27855   8.186  15.212   8.550
 5314POPC   D2A27856   8.177  15.192   8.250
 5314POPC   C3A27857   8.204  15.163   7.950
 5314POPC   C4A27858   8.200  15.220   7.650
 5314POPC   C1B27859   8.309  15.441   8.550
 5314POPC   C2B27860   8.309  15.387   8.250
 5314POPC   C3B27861   8.274  15.380   7.950
 5314POPC   C4B27862   8.252  15.367   7.650
 5315POPC   NC327863   4.346   0.402   9.450
 5315POPC   PO427864   4.293   0.437   9.150
 5315POPC   GL127865   4.287   0.431   8.850
 5315POPC   GL227866   4.222   0.504   8.850
 5315POPC   C1A27867   4.281   0.421   8.550
 5315POPC   D2A27868   4.362   0.408   8.250
 5315POPC   C3A27869   4.297   0.456   7.950
 5315POPC   C4A27870   4.360   0.431   7.650
 5315POPC   C1B27871   4.080   0.466   8.550
 5315POPC   C2B27872   4.077   0.508   8.250
 5315POPC   C3B27873   4.115   0.513   7.950
 5315POPC   C4B27874   4.093   0.539   7.650
 5316POPC   NC327875  11.268   4.290   9.450
 5316POPC   PO427876  11.304   4.295   9.150
 5316POPC   GL127877  11.302   4.312   8.850
 5316POPC   GL227878  11.359   4.290   8.850
 5316POPC   C1A27879  11.294   4.282   8.550
 5316POPC   D2A27880  11.310   4.340   8.250
 5316POPC   C3A27881  11.265   4.347   7.950
 5316POPC   C4A27882  11.287   4.343   7.650
 5316POPC   C1B27883  11.527   4.184   8.550
 5316POPC   C2B27884  11.486   4.183   8.250
 5316POPC   C3B27885  11.483   4.149   7.950
 5316POPC   C4B27886  11.528   4.175   7.650
 5317POPC   NC327887  27.592  15.131   9.450
 5317POPC   PO427888  27.619  15.228   9.150
 5317POPC   GL127889  27.619  15.162   8.850
 5317POPC   GL227890  27.660  15.078   8.850
 5317POPC   C1A27891  27.570  15.196   8.550
 5317POPC   D2A27892  27.583  15.145   8.250
 5317POPC   C3A27893  27.620  15.175   7.950
 5317POPC   C4A27894  27.580  15.220   7.650
 5317POPC   C1B27895  27.645  14.935   8.550
 5317POPC   C2B27896  27.663  14.931   8.250
 5317POPC   C3B27897  27.600  14.922   7.950
 5317POPC   C4B27898  27.632  14.940   7.650
 5318POPC   NC327899  15.161   1.240   9.450
 5318POPC   PO427900  15.168   1.183   9.150
 5318POPC   GL127901  15.132   1.248   8.850
 5318POPC   GL227902  15.141   1.061   8.850
 5318POPC   C1A27903  15.190   1.237   8.550
 5318POPC   D2A27904  15.147   1.182   8.250
 5318POPC   C3A27905  15.170   1.168   7.950
 5318POPC   C4A27906  15.207   1.236   7.650
 5318POPC   C1B27907  15.106   0.971   8.550
 5318POPC   C2B27908  15.117   0.978   8.250
 5318POPC   C3B27909  15.130   0.996   7.950
 5318POPC   C4B27910  15.097   0.930   7.650
 5319POPC   NC327911  17.531  32.276   9.450
 5319POPC   PO427912  17.540  32.296   9.150
 5319POPC   GL127913  17.501  32.219   8.850
 5319POPC   GL227914  17.630  32.276   8.850
 5319POPC   C1A27915  17.467  32.201   8.550
 5319POPC   D2A27916  17.488  32.213   8.250
 5319POPC   C3A27917  17.512  32.264   7.950
 5319POPC   C4A27918  17.526  32.289   7.650
 5319POPC   C1B27919  17.735  32.354   8.550
 5319POPC   C2B27920  17.716  32.331   8.250
 5319POPC   C3B27921  17.712  32.297   7.950
 5319POPC   C4B27922  17.764  32.312   7.650
 5320POPC   NC327923  29.883  12.809   9.450
 5320POPC   PO427924  29.911  12.897   9.150
 5320POPC   GL127925  29.897  12.815   8.850
 5320POPC   GL227926  30.082  12.923   8.850
 5320POPC   C1A27927  29.934  12.868   8.550
 5320POPC   D2A27928  29.907  12.889   8.250
 5320POPC   C3A27929  29.908  12.864   7.950
 5320POPC   C4A27930  29.876  12.805   7.650
 5320POPC   C1B27931  30.180  12.972   8.550
 5320POPC   C2B27932  30.142  12.963   8.250
 5320POPC   C3B27933  30.142  12.979   7.950
 5320POPC   C4B27934  30.179  12.970   7.650
 5321POPC   NC327935   8.954  27.633   9.450
 5321POPC   PO427936   8.974  27.603   9.150
 5321POPC   GL127937   8.957  27.553   8.850
 5321POPC   GL227938   9.086  27.551   8.850
 5321POPC   C1A27939   9.012  27.614   8.550
 5321POPC   D2A27940   8.976  27.619   8.250
 5321POPC   C3A27941   8.928  27.603   7.950
 5321POPC   C4A27942   8.996  27.578   7.650
 5321POPC   C1B27943   9.178  27.448   8.550
 5321POPC   C2B27944   9.206  27.444   8.250
 5321POPC   C3B27945   9.124  27.411   7.950
 5321POPC   C4B27946   9.153  27.420   7.650
 5322POPC   NC327947  19.056  40.807   9.450
 5322POPC   PO427948  19.054  40.776   9.150
 5322POPC   GL127949  19.091  40.745   8.850
 5322POPC   GL227950  18.999  40.877   8.850
 5322POPC   C1A27951  19.011  40.820   8.550
 5322POPC   D2A27952  19.022  40.735   8.250
 5322POPC   C3A27953  19.059  40.806   7.950
 5322POPC   C4A27954  19.016  40.748   7.650
 5322POPC   C1B27955  18.801  40.921   8.550
 5322POPC   C2B27956  18.796  40.951   8.250
 5322POPC   C3B27957  18.842  40.873   7.950
 5322POPC   C4B27958  18.812  40.944   7.650
 5323POPC   NC327959  24.518   8.957   9.450
 5323POPC   PO427960  24.514   8.959   9.150
 5323POPC   GL127961  24.474   8.996   8.850
 5323POPC   GL227962  24.581   9.022   8.850
 5323POPC   C1A27963  24.526   9.016   8.550
 5323POPC   D2A27964  24.523   8.982   8.250
 5323POPC   C3A27965  24.502   8.965   7.950
 5323POPC   C4A27966  24.465   9.002   7.650
 5323POPC   C1B27967  24.695   9.011   8.550
 5323POPC   C2B27968  24.787   9.030   8.250
 5323POPC   C3B27969  24.780   9.028   7.950
 5323POPC   C4B27970  24.741   8.982   7.650
 5324POPC   NC327971  12.082  26.077   9.450
 5324POPC   PO427972  12.112  26.015   9.150
 5324POPC   GL127973  12.093  26.022   8.850
 5324POPC   GL227974  12.158  25.975   8.850
 5324POPC   C1A27975  12.040  26.060   8.550
 5324POPC   D2A27976  12.107  25.992   8.250
 5324POPC   C3A27977  12.056  26.001   7.950
 5324POPC   C4A27978  12.064  26.048   7.650
 5324POPC   C1B27979  12.249  25.921   8.550
 5324POPC   C2B27980  12.220  25.843   8.250
 5324POPC   C3B27981  12.283  25.929   7.950
 5324POPC   C4B27982  12.282  25.851   7.650
 5325POPC   NC327983   0.440  19.875   9.450
 5325POPC   PO427984   0.476  19.812   9.150
 5325POPC   GL127985   0.415  19.851   8.850
 5325POPC   GL227986   0.359  19.936   8.850
 5325POPC   C1A27987   0.392  19.869   8.550
 5325POPC   D2A27988   0.465  19.835   8.250
 5325POPC   C3A27989   0.464  19.848   7.950
 5325POPC   C4A27990   0.424  19.830   7.650
 5325POPC   C1B27991   0.335  19.992   8.550
 5325POPC   C2B27992   0.295  19.998   8.250
 5325POPC   C3B27993   0.320  20.066   7.950
 5325POPC   C4B27994   0.282  19.997   7.650
 5326POPC   NC327995  44.624   7.393   9.450
 5326POPC   PO427996  44.672   7.440   9.150
 5326POPC   GL127997  44.654   7.413   8.850
 5326POPC   GL227998  44.622   7.522   8.850
 5326POPC   C1A27999  44.703   7.427   8.550
 5326POPC   D2A28000  44.704   7.429   8.250
 5326POPC   C3A28001  44.636   7.394   7.950
 5326POPC   C4A28002  44.658   7.436   7.650
 5326POPC   C1B28003  44.667   7.703   8.550
 5326POPC   C2B28004  44.684   7.645   8.250
 5326POPC   C3B28005  44.607   7.680   7.950
 5326POPC   C4B28006  44.630   7.699   7.650
 5327POPC   NC328007  38.456  17.551   9.450
 5327POPC   PO428008  38.485  17.495   9.150
 5327POPC   GL128009  38.428  17.522   8.850
 5327POPC   GL228010  38.391  17.601   8.850
 5327POPC   C1A28011  38.480  17.549   8.550
 5327POPC   D2A28012  38.421  17.464   8.250
 5327POPC   C3A28013  38.444  17.517   7.950
 5327POPC   C4A28014  38.483  17.532   7.650
 5327POPC   C1B28015  38.295  17.627   8.550
 5327POPC   C2B28016  38.296  17.659   8.250
 5327POPC   C3B28017  38.220  17.601   7.950
 5327POPC   C4B28018  38.271  17.692   7.650
 5328POPC   NC328019   3.518  40.792   9.450
 5328POPC   PO428020   3.499  40.753   9.150
 5328POPC   GL128021   3.514  40.781   8.850
 5328POPC   GL228022   3.690  40.745   8.850
 5328POPC   C1A28023   3.579  40.794   8.550
 5328POPC   D2A28024   3.573  40.806   8.250
 5328POPC   C3A28025   3.540  40.754   7.950
 5328POPC   C4A28026   3.529  40.756   7.650
 5328POPC   C1B28027   3.784  40.668   8.550
 5328POPC   C2B28028   3.765  40.668   8.250
 5328POPC   C3B28029   3.726  40.644   7.950
 5328POPC   C4B28030   3.714  40.637   7.650
 5329POPC   NC328031   1.174  12.103   9.450
 5329POPC   PO428032   1.218  12.106   9.150
 5329POPC   GL128033   1.196  12.123   8.850
 5329POPC   GL228034   1.106  12.056   8.850
 5329POPC   C1A28035   1.172  12.114   8.550
 5329POPC   D2A28036   1.200  12.111   8.250
 5329POPC   C3A28037   1.244  12.090   7.950
 5329POPC   C4A28038   1.263  12.108   7.650
 5329POPC   C1B28039   0.930  12.066   8.550
 5329POPC   C2B28040   1.008  12.028   8.250
 5329POPC   C3B28041   0.979  12.049   7.950
 5329POPC   C4B28042   0.976  12.064   7.650
 5330POPC   NC328043  12.054   0.458   9.450
 5330POPC   PO428044  12.087   0.445   9.150
 5330POPC   GL128045  12.077   0.472   8.850
 5330POPC   GL228046  12.209   0.483   8.850
 5330POPC   C1A28047  12.053   0.442   8.550
 5330POPC   D2A28048  12.036   0.472   8.250
 5330POPC   C3A28049  12.038   0.427   7.950
 5330POPC   C4A28050  12.125   0.417   7.650
 5330POPC   C1B28051  12.346   0.539   8.550
 5330POPC   C2B28052  12.323   0.518   8.250
 5330POPC   C3B28053  12.347   0.559   7.950
 5330POPC   C4B28054  12.284   0.565   7.650
 5331POPC   NC328055  43.895  44.657   9.450
 5331POPC   PO428056  43.904  44.664   9.150
 5331POPC   GL128057  43.919  44.619   8.850
 5331POPC   GL228058  43.856  44.554   8.850
 5331POPC   C1A28059  43.920  44.613   8.550
 5331POPC   D2A28060  43.913  44.681   8.250
 5331POPC   C3A28061  43.887  44.701   7.950
 5331POPC   C4A28062  43.861  44.661   7.650
 5331POPC   C1B28063  43.869  44.454   8.550
 5331POPC   C2B28064  43.928  44.418   8.250
 5331POPC   C3B28065  43.904  44.364   7.950
 5331POPC   C4B28066  43.836  44.370   7.650
 5332POPC   NC328067  29.965  33.803   9.450
 5332POPC   PO428068  29.934  33.795   9.150
 5332POPC   GL128069  29.946  33.770   8.850
 5332POPC   GL228070  29.832  33.662   8.850
 5332POPC   C1A28071  29.916  33.760   8.550
 5332POPC   D2A28072  29.905  33.770   8.250
 5332POPC   C3A28073  29.931  33.838   7.950
 5332POPC   C4A28074  29.907  33.834   7.650
 5332POPC   C1B28075  29.829  33.620   8.550
 5332POPC   C2B28076  29.803  33.625   8.250
 5332POPC   C3B28077  29.760  33.541   7.950
 5332POPC   C4B28078  29.745  33.557   7.650
 5333POPC   NC328079  17.467  25.283   9.450
 5333POPC   PO428080  17.468  25.224   9.150
 5333POPC   GL128081  17.534  25.244   8.850
 5333POPC   GL228082  17.541  25.390   8.850
 5333POPC   C1A28083  17.489  25.310   8.550
 5333POPC   D2A28084  17.515  25.244   8.250
 5333POPC   C3A28085  17.466  25.251   7.950
 5333POPC   C4A28086  17.530  25.297   7.650
 5333POPC   C1B28087  17.634  25.464   8.550
 5333POPC   C2B28088  17.605  25.526   8.250
 5333POPC   C3B28089  17.659  25.441   7.950
 5333POPC   C4B28090  17.647  25.444   7.650
 5334POPC   NC328091  33.828  39.968   9.450
 5334POPC   PO428092  33.835  40.013   9.150
 5334POPC   GL128093  33.783  40.045   8.850
 5334POPC   GL228094  33.737  40.084   8.850
 5334POPC   C1A28095  33.833  40.017   8.550
 5334POPC   D2A28096  33.760  40.048   8.250
 5334POPC   C3A28097  33.805  39.988   7.950
 5334POPC   C4A28098  33.785  39.972   7.650
 5334POPC   C1B28099  33.741  40.221   8.550
 5334POPC   C2B28100  33.689  40.252   8.250
 5334POPC   C3B28101  33.687  40.277   7.950
 5334POPC   C4B28102  33.741  40.228   7.650
 5335POPC   NC328103  43.930  30.683   9.450
 5335POPC   PO428104  43.883  30.736   9.150
 5335POPC   GL128105  43.921  30.701   8.850
 5335POPC   GL228106  44.030  30.649   8.850
 5335POPC   C1A28107  43.846  30.673   8.550
 5335POPC   D2A28108  43.933  30.722   8.250
 5335POPC   C3A28109  43.855  30.725   7.950
 5335POPC   C4A28110  43.930  30.706   7.650
 5335POPC   C1B28111  44.079  30.508   8.550
 5335POPC   C2B28112  44.084  30.585   8.250
 5335POPC   C3B28113  44.072  30.542   7.950
 5335POPC   C4B28114  44.037  30.530   7.650
 5336POPC   NC328115  13.663  29.111   9.450
 5336POPC   PO428116  13.595  29.098   9.150
 5336POPC   GL128117  13.579  29.121   8.850
 5336POPC   GL228118  13.547  29.124   8.850
 5336POPC   C1A28119  13.635  29.124   8.550
 5336POPC   D2A28120  13.597  29.113   8.250
 5336POPC   C3A28121  13.668  29.139   7.950
 5336POPC   C4A28122  13.677  29.157   7.650
 5336POPC   C1B28123  13.405  29.124   8.550
 5336POPC   C2B28124  13.411  29.121   8.250
 5336POPC   C3B28125  13.342  29.161   7.950
 5336POPC   C4B28126  13.329  29.125   7.650
 5337POPC   NC328127  16.717  15.213   9.450
 5337POPC   PO428128  16.770  15.221   9.150
 5337POPC   GL128129  16.708  15.143   8.850
 5337POPC   GL228130  16.866  15.222   8.850
 5337POPC   C1A28131  16.699  15.147   8.550
 5337POPC   D2A28132  16.775  15.216   8.250
 5337POPC   C3A28133  16.731  15.160   7.950
 5337POPC   C4A28134  16.745  15.208   7.650
 5337POPC   C1B28135  16.959  15.297   8.550
 5337POPC   C2B28136  16.947  15.262   8.250
 5337POPC   C3B28137  16.954  15.223   7.950
 5337POPC   C4B28138  16.959  15.273   7.650
 5338POPC   NC328139  25.237  19.071   9.450
 5338POPC   PO428140  25.229  19.101   9.150
 5338POPC   GL128141  25.285  19.018   8.850
 5338POPC   GL228142  25.407  19.002   8.850
 5338POPC   C1A28143  25.223  19.096   8.550
 5338POPC   D2A28144  25.256  19.026   8.250
 5338POPC   C3A28145  25.305  19.099   7.950
 5338POPC   C4A28146  25.272  19.102   7.650
 5338POPC   C1B28147  25.516  18.964   8.550
 5338POPC   C2B28148  25.476  18.974   8.250
 5338POPC   C3B28149  25.492  19.045   7.950
 5338POPC   C4B28150  25.546  18.982   7.650
 5339POPC   NC328151  19.789  19.859   9.450
 5339POPC   PO428152  19.838  19.850   9.150
 5339POPC   GL128153  19.809  19.850   8.850
 5339POPC   GL228154  19.954  19.927   8.850
 5339POPC   C1A28155  19.804  19.871   8.550
 5339POPC   D2A28156  19.801  19.882   8.250
 5339POPC   C3A28157  19.809  19.873   7.950
 5339POPC   C4A28158  19.834  19.788   7.650
 5339POPC   C1B28159  20.054  19.947   8.550
 5339POPC   C2B28160  20.033  19.940   8.250
 5339POPC   C3B28161  20.055  19.908   7.950
 5339POPC   C4B28162  20.007  19.932   7.650
 5340POPC   NC328163  39.959   0.437   9.450
 5340POPC   PO428164  40.014   0.394   9.150
 5340POPC   GL128165  39.977   0.455   8.850
 5340POPC   GL228166  39.940   0.296   8.850
 5340POPC   C1A28167  40.010   0.468   8.550
 5340POPC   D2A28168  40.000   0.448   8.250
 5340POPC   C3A28169  40.037   0.421   7.950
 5340POPC   C4A28170  39.996   0.434   7.650
 5340POPC   C1B28171  39.942   0.242   8.550
 5340POPC   C2B28172  39.866   0.233   8.250
 5340POPC   C3B28173  39.909   0.164   7.950
 5340POPC   C4B28174  39.862   0.231   7.650
 5341POPC   NC328175  33.807  26.771   9.450
 5341POPC   PO428176  33.835  26.825   9.150
 5341POPC   GL128177  33.761  26.775   8.850
 5341POPC   GL228178  33.874  26.834   8.850
 5341POPC   C1A28179  33.754  26.839   8.550
 5341POPC   D2A28180  33.759  26.795   8.250
 5341POPC   C3A28181  33.781  26.811   7.950
 5341POPC   C4A28182  33.846  26.827   7.650
 5341POPC   C1B28183  33.991  26.936   8.550
 5341POPC   C2B28184  34.080  26.955   8.250
 5341POPC   C3B28185  34.056  26.876   7.950
 5341POPC   C4B28186  34.042  26.898   7.650
 5342POPC   NC328187  19.040  12.106   9.450
 5342POPC   PO428188  19.081  12.087   9.150
 5342POPC   GL128189  19.076  12.038   8.850
 5342POPC   GL228190  19.183  12.003   8.850
 5342POPC   C1A28191  19.102  12.081   8.550
 5342POPC   D2A28192  19.093  12.036   8.250
 5342POPC   C3A28193  19.053  12.031   7.950
 5342POPC   C4A28194  19.009  12.118   7.650
 5342POPC   C1B28195  19.205  11.889   8.550
 5342POPC   C2B28196  19.241  11.884   8.250
 5342POPC   C3B28197  19.238  11.849   7.950
 5342POPC   C4B28198  19.244  11.930   7.650
 5343POPC   NC328199  10.551  31.423   9.450
 5343POPC   PO428200  10.564  31.430   9.150
 5343POPC   GL128201  10.531  31.446   8.850
 5343POPC   GL228202  10.514  31.329   8.850
 5343POPC   C1A28203  10.558  31.513   8.550
 5343POPC   D2A28204  10.524  31.480   8.250
 5343POPC   C3A28205  10.532  31.449   7.950
 5343POPC   C4A28206  10.530  31.489   7.650
 5343POPC   C1B28207  10.533  31.195   8.550
 5343POPC   C2B28208  10.543  31.262   8.250
 5343POPC   C3B28209  10.501  31.251   7.950
 5343POPC   C4B28210  10.562  31.179   7.650
 5344POPC   NC328211  15.958   8.967   9.450
 5344POPC   PO428212  15.990   8.944   9.150
 5344POPC   GL128213  15.986   8.970   8.850
 5344POPC   GL228214  16.039   8.890   8.850
 5344POPC   C1A28215  15.944   9.005   8.550
 5344POPC   D2A28216  15.944   8.966   8.250
 5344POPC   C3A28217  15.997   8.991   7.950
 5344POPC   C4A28218  15.991   8.970   7.650
 5344POPC   C1B28219  16.099   8.761   8.550
 5344POPC   C2B28220  16.162   8.807   8.250
 5344POPC   C3B28221  16.096   8.761   7.950
 5344POPC   C4B28222  16.094   8.828   7.650
 5345POPC   NC328223  38.478  11.273   9.450
 5345POPC   PO428224  38.442  11.313   9.150
 5345POPC   GL128225  38.460  11.282   8.850
 5345POPC   GL228226  38.463  11.453   8.850
 5345POPC   C1A28227  38.489  11.350   8.550
 5345POPC   D2A28228  38.488  11.317   8.250
 5345POPC   C3A28229  38.496  11.308   7.950
 5345POPC   C4A28230  38.465  11.270   7.650
 5345POPC   C1B28231  38.510  11.588   8.550
 5345POPC   C2B28232  38.523  11.527   8.250
 5345POPC   C3B28233  38.454  11.597   7.950
 5345POPC   C4B28234  38.497  11.596   7.650
 5346POPC   NC328235  29.107  34.559   9.450
 5346POPC   PO428236  29.100  34.542   9.150
 5346POPC   GL128237  29.112  34.565   8.850
 5346POPC   GL228238  29.186  34.515   8.850
 5346POPC   C1A28239  29.157  34.572   8.550
 5346POPC   D2A28240  29.173  34.600   8.250
 5346POPC   C3A28241  29.100  34.586   7.950
 5346POPC   C4A28242  29.139  34.545   7.650
 5346POPC   C1B28243  29.298  34.355   8.550
 5346POPC   C2B28244  29.360  34.421   8.250
 5346POPC   C3B28245  29.316  34.428   7.950
 5346POPC   C4B28246  29.350  34.439   7.650
 5347POPC   NC328247  15.955  12.052   9.450
 5347POPC   PO428248  15.935  12.073   9.150
 5347POPC   GL128249  15.916  12.076   8.850
 5347POPC   GL228250  15.949  11.914   8.850
 5347POPC   C1A28251  15.918  12.116   8.550
 5347POPC   D2A28252  15.969  12.027   8.250
 5347POPC   C3A28253  15.974  12.123   7.950
 5347POPC   C4A28254  15.960  12.075   7.650
 5347POPC   C1B28255  15.895  11.848   8.550
 5347POPC   C2B28256  15.922  11.837   8.250
 5347POPC   C3B28257  15.881  11.856   7.950
 5347POPC   C4B28258  15.952  11.843   7.650
 5348POPC   NC328259   3.585  19.089   9.450
 5348POPC   PO428260   3.569  19.017   9.150
 5348POPC   GL128261   3.561  19.077   8.850
 5348POPC   GL228262   3.642  18.996   8.850
 5348POPC   C1A28263   3.507  19.071   8.550
 5348POPC   D2A28264   3.561  19.072   8.250
 5348POPC   C3A28265   3.571  19.100   7.950
 5348POPC   C4A28266   3.510  19.014   7.650
 5348POPC   C1B28267   3.763  19.009   8.550
 5348POPC   C2B28268   3.756  18.964   8.250
 5348POPC   C3B28269   3.783  19.004   7.950
 5348POPC   C4B28270   3.798  18.927   7.650
 5349POPC   NC328271  41.599  15.162   9.450
 5349POPC   PO428272  41.511  15.176   9.150
 5349POPC   GL128273  41.547  15.215   8.850
 5349POPC   GL228274  41.505  15.269   8.850
 5349POPC   C1A28275  41.528  15.229   8.550
 5349POPC   D2A28276  41.597  15.194   8.250
 5349POPC   C3A28277  41.575  15.177   7.950
 5349POPC   C4A28278  41.524  15.138   7.650
 5349POPC   C1B28279  41.442  15.368   8.550
 5349POPC   C2B28280  41.454  15.432   8.250
 5349POPC   C3B28281  41.429  15.394   7.950
 5349POPC   C4B28282  41.508  15.374   7.650
 5350POPC   NC328283  21.364  19.834   9.450
 5350POPC   PO428284  21.399  19.875   9.150
 5350POPC   GL128285  21.378  19.803   8.850
 5350POPC   GL228286  21.419  19.698   8.850
 5350POPC   C1A28287  21.431  19.839   8.550
 5350POPC   D2A28288  21.435  19.833   8.250
 5350POPC   C3A28289  21.434  19.816   7.950
 5350POPC   C4A28290  21.362  19.831   7.650
 5350POPC   C1B28291  21.513  19.644   8.550
 5350POPC   C2B28292  21.497  19.636   8.250
 5350POPC   C3B28293  21.536  19.616   7.950
 5350POPC   C4B28294  21.518  19.597   7.650
 5351POPC   NC328295  16.748  43.061   9.450
 5351POPC   PO428296  16.755  43.136   9.150
 5351POPC   GL128297  16.747  43.138   8.850
 5351POPC   GL228298  16.798  43.262   8.850
 5351POPC   C1A28299  16.690  43.066   8.550
 5351POPC   D2A28300  16.694  43.061   8.250
 5351POPC   C3A28301  16.709  43.141   7.950
 5351POPC   C4A28302  16.732  43.137   7.650
 5351POPC   C1B28303  16.858  43.347   8.550
 5351POPC   C2B28304  16.854  43.351   8.250
 5351POPC   C3B28305  16.837  43.357   7.950
 5351POPC   C4B28306  16.874  43.280   7.650
 5352POPC   NC328307  32.220   4.352   9.450
 5352POPC   PO428308  32.210   4.327   9.150
 5352POPC   GL128309  32.289   4.286   8.850
 5352POPC   GL228310  32.251   4.484   8.850
 5352POPC   C1A28311  32.261   4.299   8.550
 5352POPC   D2A28312  32.231   4.269   8.250
 5352POPC   C3A28313  32.256   4.301   7.950
 5352POPC   C4A28314  32.276   4.341   7.650
 5352POPC   C1B28315  32.188   4.596   8.550
 5352POPC   C2B28316  32.142   4.528   8.250
 5352POPC   C3B28317  32.177   4.576   7.950
 5352POPC   C4B28318  32.160   4.595   7.650
 5353POPC   NC328319  43.124  35.398   9.450
 5353POPC   PO428320  43.111  35.352   9.150
 5353POPC   GL128321  43.157  35.321   8.850
 5353POPC   GL228322  43.199  35.448   8.850
 5353POPC   C1A28323  43.122  35.323   8.550
 5353POPC   D2A28324  43.129  35.321   8.250
 5353POPC   C3A28325  43.085  35.310   7.950
 5353POPC   C4A28326  43.090  35.342   7.650
 5353POPC   C1B28327  43.280  35.596   8.550
 5353POPC   C2B28328  43.297  35.565   8.250
 5353POPC   C3B28329  43.282  35.598   7.950
 5353POPC   C4B28330  43.234  35.519   7.650
 5354POPC   NC328331  44.640  34.594   9.450
 5354POPC   PO428332  44.697  34.536   9.150
 5354POPC   GL128333  44.636  34.582   8.850
 5354POPC   GL228334  44.555  34.572   8.850
 5354POPC   C1A28335  44.694  34.588   8.550
 5354POPC   D2A28336  44.661  34.597   8.250
 5354POPC   C3A28337  44.685  34.528   7.950
 5354POPC   C4A28338  44.665  34.578   7.650
 5354POPC   C1B28339  44.420  34.598   8.550
 5354POPC   C2B28340  44.405  34.672   8.250
 5354POPC   C3B28341  44.425  34.682   7.950
 5354POPC   C4B28342  44.470  34.648   7.650
 5355POPC   NC328343   0.474  15.960   9.450
 5355POPC   PO428344   0.457  15.925   9.150
 5355POPC   GL128345   0.454  15.942   8.850
 5355POPC   GL228346   0.464  16.054   8.850
 5355POPC   C1A28347   0.422  15.982   8.550
 5355POPC   D2A28348   0.410  15.951   8.250
 5355POPC   C3A28349   0.389  15.958   7.950
 5355POPC   C4A28350   0.439  15.911   7.650
 5355POPC   C1B28351   0.583  16.196   8.550
 5355POPC   C2B28352   0.558  16.206   8.250
 5355POPC   C3B28353   0.566  16.158   7.950
 5355POPC   C4B28354   0.548  16.146   7.650
 5356POPC   NC328355  26.004  23.665   9.450
 5356POPC   PO428356  26.045  23.717   9.150
 5356POPC   GL128357  26.081  23.749   8.850
 5356POPC   GL228358  25.901  23.669   8.850
 5356POPC   C1A28359  25.992  23.743   8.550
 5356POPC   D2A28360  26.014  23.672   8.250
 5356POPC   C3A28361  26.069  23.684   7.950
 5356POPC   C4A28362  26.072  23.678   7.650
 5356POPC   C1B28363  25.822  23.542   8.550
 5356POPC   C2B28364  25.808  23.567   8.250
 5356POPC   C3B28365  25.853  23.527   7.950
 5356POPC   C4B28366  25.896  23.585   7.650
 5357POPC   NC328367  15.173  30.692   9.450
 5357POPC   PO428368  15.163  30.731   9.150
 5357POPC   GL128369  15.227  30.732   8.850
 5357POPC   GL228370  15.268  30.817   8.850
 5357POPC   C1A28371  15.209  30.658   8.550
 5357POPC   D2A28372  15.227  30.678   8.250
 5357POPC   C3A28373  15.222  30.739   7.950
 5357POPC   C4A28374  15.135  30.673   7.650
 5357POPC   C1B28375  15.333  30.910   8.550
 5357POPC   C2B28376  15.317  30.857   8.250
 5357POPC   C3B28377  15.370  30.867   7.950
 5357POPC   C4B28378  15.380  30.866   7.650
 5358POPC   NC328379  43.120   4.294   9.450
 5358POPC   PO428380  43.104   4.277   9.150
 5358POPC   GL128381  43.115   4.306   8.850
 5358POPC   GL228382  43.024   4.233   8.850
 5358POPC   C1A28383  43.157   4.360   8.550
 5358POPC   D2A28384  43.141   4.330   8.250
 5358POPC   C3A28385  43.151   4.312   7.950
 5358POPC   C4A28386  43.083   4.306   7.650
 5358POPC   C1B28387  42.979   4.117   8.550
 5358POPC   C2B28388  43.063   4.124   8.250
 5358POPC   C3B28389  43.034   4.087   7.950
 5358POPC   C4B28390  42.974   4.037   7.650
 5359POPC   NC328391  43.120   1.239   9.450
 5359POPC   PO428392  43.147   1.206   9.150
 5359POPC   GL128393  43.091   1.178   8.850
 5359POPC   GL228394  43.267   1.219   8.850
 5359POPC   C1A28395  43.084   1.170   8.550
 5359POPC   D2A28396  43.061   1.187   8.250
 5359POPC   C3A28397  43.104   1.173   7.950
 5359POPC   C4A28398  43.069   1.171   7.650
 5359POPC   C1B28399  43.387   1.192   8.550
 5359POPC   C2B28400  43.326   1.232   8.250
 5359POPC   C3B28401  43.396   1.165   7.950
 5359POPC   C4B28402  43.382   1.250   7.650
 5360POPC   NC328403   4.307   1.220   9.450
 5360POPC   PO428404   4.296   1.255   9.150
 5360POPC   GL128405   4.345   1.221   8.850
 5360POPC   GL228406   4.432   1.131   8.850
 5360POPC   C1A28407   4.366   1.179   8.550
 5360POPC   D2A28408   4.326   1.245   8.250
 5360POPC   C3A28409   4.269   1.185   7.950
 5360POPC   C4A28410   4.350   1.194   7.650
 5360POPC   C1B28411   4.502   1.108   8.550
 5360POPC   C2B28412   4.524   1.105   8.250
 5360POPC   C3B28413   4.537   1.134   7.950
 5360POPC   C4B28414   4.593   1.119   7.650
 5361POPC   NC328415  26.002   8.954   9.450
 5361POPC   PO428416  26.057   9.003   9.150
 5361POPC   GL128417  26.032   9.009   8.850
 5361POPC   GL228418  26.026   9.122   8.850
 5361POPC   C1A28419  26.003   9.001   8.550
 5361POPC   D2A28420  26.058   8.955   8.250
 5361POPC   C3A28421  26.026   8.976   7.950
 5361POPC   C4A28422  25.994   8.986   7.650
 5361POPC   C1B28423  26.052   9.188   8.550
 5361POPC   C2B28424  25.981   9.227   8.250
 5361POPC   C3B28425  25.992   9.264   7.950
 5361POPC   C4B28426  25.995   9.197   7.650
 5362POPC   NC328427   1.998  34.611   9.450
 5362POPC   PO428428   2.016  34.535   9.150
 5362POPC   GL128429   2.011  34.530   8.850
 5362POPC   GL228430   2.056  34.501   8.850
 5362POPC   C1A28431   1.994  34.575   8.550
 5362POPC   D2A28432   2.004  34.601   8.250
 5362POPC   C3A28433   1.947  34.560   7.950
 5362POPC   C4A28434   1.941  34.528   7.650
 5362POPC   C1B28435   2.096  34.413   8.550
 5362POPC   C2B28436   2.144  34.333   8.250
 5362POPC   C3B28437   2.111  34.355   7.950
 5362POPC   C4B28438   2.098  34.393   7.650
 5363POPC   NC328439  12.051  22.173   9.450
 5363POPC   PO428440  12.046  22.113   9.150
 5363POPC   GL128441  12.036  22.195   8.850
 5363POPC   GL228442  12.046  22.239   8.850
 5363POPC   C1A28443  12.060  22.157   8.550
 5363POPC   D2A28444  12.114  22.156   8.250
 5363POPC   C3A28445  12.051  22.141   7.950
 5363POPC   C4A28446  12.087  22.204   7.650
 5363POPC   C1B28447  11.994  22.401   8.550
 5363POPC   C2B28448  12.027  22.377   8.250
 5363POPC   C3B28449  12.055  22.454   7.950
 5363POPC   C4B28450  12.011  22.450   7.650
 5364POPC   NC328451  35.364   8.195   9.450
 5364POPC   PO428452  35.334   8.244   9.150
 5364POPC   GL128453  35.306   8.177   8.850
 5364POPC   GL228454  35.266   8.094   8.850
 5364POPC   C1A28455  35.310   8.174   8.550
 5364POPC   D2A28456  35.395   8.187   8.250
 5364POPC   C3A28457  35.317   8.176   7.950
 5364POPC   C4A28458  35.308   8.190   7.650
 5364POPC   C1B28459  35.185   8.018   8.550
 5364POPC   C2B28460  35.226   7.954   8.250
 5364POPC   C3B28461  35.208   7.982   7.950
 5364POPC   C4B28462  35.262   7.998   7.650
 5365POPC   NC328463   6.676   8.225   9.450
 5365POPC   PO428464   6.608   8.213   9.150
 5365POPC   GL128465   6.601   8.174   8.850
 5365POPC   GL228466   6.524   8.334   8.850
 5365POPC   C1A28467   6.647   8.159   8.550
 5365POPC   D2A28468   6.673   8.210   8.250
 5365POPC   C3A28469   6.619   8.215   7.950
 5365POPC   C4A28470   6.643   8.158   7.650
 5365POPC   C1B28471   6.454   8.424   8.550
 5365POPC   C2B28472   6.517   8.381   8.250
 5365POPC   C3B28473   6.444   8.434   7.950
 5365POPC   C4B28474   6.510   8.417   7.650
 5366POPC   NC328475  12.052  30.691   9.450
 5366POPC   PO428476  12.075  30.738   9.150
 5366POPC   GL128477  12.051  30.672   8.850
 5366POPC   GL228478  12.071  30.543   8.850
 5366POPC   C1A28479  12.086  30.658   8.550
 5366POPC   D2A28480  12.081  30.714   8.250
 5366POPC   C3A28481  12.121  30.684   7.950
 5366POPC   C4A28482  12.077  30.659   7.650
 5366POPC   C1B28483  12.056  30.416   8.550
 5366POPC   C2B28484  12.031  30.442   8.250
 5366POPC   C3B28485  12.024  30.463   7.950
 5366POPC   C4B28486  12.054  30.421   7.650
 5367POPC   NC328487  19.074  26.070   9.450
 5367POPC   PO428488  19.093  25.992   9.150
 5367POPC   GL128489  19.058  26.088   8.850
 5367POPC   GL228490  19.051  25.935   8.850
 5367POPC   C1A28491  19.013  26.081   8.550
 5367POPC   D2A28492  19.036  26.067   8.250
 5367POPC   C3A28493  19.032  26.021   7.950
 5367POPC   C4A28494  19.098  26.080   7.650
 5367POPC   C1B28495  19.128  25.762   8.550
 5367POPC   C2B28496  19.104  25.768   8.250
 5367POPC   C3B28497  19.063  25.755   7.950
 5367POPC   C4B28498  19.142  25.787   7.650
 5368POPC   NC328499  19.030  29.116   9.450
 5368POPC   PO428500  19.044  29.160   9.150
 5368POPC   GL128501  19.047  29.114   8.850
 5368POPC   GL228502  19.215  29.222   8.850
 5368POPC   C1A28503  19.016  29.179   8.550
 5368POPC   D2A28504  19.058  29.144   8.250
 5368POPC   C3A28505  19.059  29.161   7.950
 5368POPC   C4A28506  19.063  29.136   7.650
 5368POPC   C1B28507  19.285  29.175   8.550
 5368POPC   C2B28508  19.339  29.160   8.250
 5368POPC   C3B28509  19.340  29.259   7.950
 5368POPC   C4B28510  19.295  29.187   7.650
 5369POPC   NC328511  26.844  41.606   9.450
 5369POPC   PO428512  26.770  41.533   9.150
 5369POPC   GL128513  26.769  41.526   8.850
 5369POPC   GL228514  26.915  41.467   8.850
 5369POPC   C1A28515  26.814  41.556   8.550
 5369POPC   D2A28516  26.805  41.515   8.250
 5369POPC   C3A28517  26.800  41.531   7.950
 5369POPC   C4A28518  26.803  41.534   7.650
 5369POPC   C1B28519  27.043  41.434   8.550
 5369POPC   C2B28520  27.011  41.496   8.250
 5369POPC   C3B28521  27.098  41.502   7.950
 5369POPC   C4B28522  27.085  41.498   7.650
 5370POPC   NC328523  16.003  19.797   9.450
 5370POPC   PO428524  15.946  19.801   9.150
 5370POPC   GL128525  15.933  19.800   8.850
 5370POPC   GL228526  15.896  19.910   8.850
 5370POPC   C1A28527  15.964  19.844   8.550
 5370POPC   D2A28528  15.986  19.830   8.250
 5370POPC   C3A28529  15.951  19.823   7.950
 5370POPC   C4A28530  15.990  19.805   7.650
 5370POPC   C1B28531  15.812  20.018   8.550
 5370POPC   C2B28532  15.778  20.010   8.250
 5370POPC   C3B28533  15.797  20.055   7.950
 5370POPC   C4B28534  15.755  20.011   7.650
 5371POPC   NC328535  33.755  38.414   9.450
 5371POPC   PO428536  33.817  38.458   9.150
 5371POPC   GL128537  33.814  38.405   8.850
 5371POPC   GL228538  33.726  38.488   8.850
 5371POPC   C1A28539  33.817  38.502   8.550
 5371POPC   D2A28540  33.764  38.477   8.250
 5371POPC   C3A28541  33.771  38.502   7.950
 5371POPC   C4A28542  33.842  38.405   7.650
 5371POPC   C1B28543  33.583  38.580   8.550
 5371POPC   C2B28544  33.584  38.570   8.250
 5371POPC   C3B28545  33.571  38.582   7.950
 5371POPC   C4B28546  33.612  38.554   7.650
 5372POPC   NC328547  13.663  21.378   9.450
 5372POPC   PO428548  13.648  21.345   9.150
 5372POPC   GL128549  13.676  21.375   8.850
 5372POPC   GL228550  13.697  21.461   8.850
 5372POPC   C1A28551  13.610  21.414   8.550
 5372POPC   D2A28552  13.634  21.431   8.250
 5372POPC   C3A28553  13.636  21.363   7.950
 5372POPC   C4A28554  13.630  21.340   7.650
 5372POPC   C1B28555  13.726  21.598   8.550
 5372POPC   C2B28556  13.771  21.631   8.250
 5372POPC   C3B28557  13.815  21.602   7.950
 5372POPC   C4B28558  13.768  21.607   7.650
 5373POPC   NC328559   1.211   2.728   9.450
 5373POPC   PO428560   1.238   2.796   9.150
 5373POPC   GL128561   1.220   2.809   8.850
 5373POPC   GL228562   1.315   2.697   8.850
 5373POPC   C1A28563   1.186   2.815   8.550
 5373POPC   D2A28564   1.186   2.737   8.250
 5373POPC   C3A28565   1.207   2.815   7.950
 5373POPC   C4A28566   1.219   2.811   7.650
 5373POPC   C1B28567   1.447   2.638   8.550
 5373POPC   C2B28568   1.414   2.647   8.250
 5373POPC   C3B28569   1.415   2.561   7.950
 5373POPC   C4B28570   1.400   2.606   7.650
 5374POPC   NC328571  36.883  30.656   9.450
 5374POPC   PO428572  36.925  30.694   9.150
 5374POPC   GL128573  36.934  30.738   8.850
 5374POPC   GL228574  36.997  30.604   8.850
 5374POPC   C1A28575  36.919  30.738   8.550
 5374POPC   D2A28576  36.880  30.685   8.250
 5374POPC   C3A28577  36.865  30.721   7.950
 5374POPC   C4A28578  36.892  30.666   7.650
 5374POPC   C1B28579  37.052  30.548   8.550
 5374POPC   C2B28580  37.039  30.490   8.250
 5374POPC   C3B28581  37.052  30.567   7.950
 5374POPC   C4B28582  37.121  30.566   7.650
 5375POPC   NC328583   8.938   8.242   9.450
 5375POPC   PO428584   9.006   8.235   9.150
 5375POPC   GL128585   8.946   8.227   8.850
 5375POPC   GL228586   8.887   8.290   8.850
 5375POPC   C1A28587   8.966   8.173   8.550
 5375POPC   D2A28588   9.009   8.163   8.250
 5375POPC   C3A28589   9.015   8.226   7.950
 5375POPC   C4A28590   9.013   8.175   7.650
 5375POPC   C1B28591   8.734   8.274   8.550
 5375POPC   C2B28592   8.728   8.272   8.250
 5375POPC   C3B28593   8.740   8.342   7.950
 5375POPC   C4B28594   8.745   8.304   7.650
 5376POPC   NC328595  43.119  24.447   9.450
 5376POPC   PO428596  43.063  24.514   9.150
 5376POPC   GL128597  43.122  24.450   8.850
 5376POPC   GL228598  43.096  24.411   8.850
 5376POPC   C1A28599  43.069  24.514   8.550
 5376POPC   D2A28600  43.089  24.477   8.250
 5376POPC   C3A28601  43.083  24.457   7.950
 5376POPC   C4A28602  43.077  24.528   7.650
 5376POPC   C1B28603  43.074  24.249   8.550
 5376POPC   C2B28604  43.068  24.285   8.250
 5376POPC   C3B28605  43.016  24.269   7.950
 5376POPC   C4B28606  42.997  24.263   7.650
 5377POPC   NC328607  13.643   2.805   9.450
 5377POPC   PO428608  13.609   2.802   9.150
 5377POPC   GL128609  13.601   2.745   8.850
 5377POPC   GL228610  13.572   2.846   8.850
 5377POPC   C1A28611  13.593   2.716   8.550
 5377POPC   D2A28612  13.677   2.798   8.250
 5377POPC   C3A28613  13.579   2.784   7.950
 5377POPC   C4A28614  13.622   2.764   7.650
 5377POPC   C1B28615  13.414   2.922   8.550
 5377POPC   C2B28616  13.471   2.938   8.250
 5377POPC   C3B28617  13.444   2.903   7.950
 5377POPC   C4B28618  13.438   2.900   7.650
 5378POPC   NC328619  19.840  29.928   9.450
 5378POPC   PO428620  19.791  29.958   9.150
 5378POPC   GL128621  19.867  29.873   8.850
 5378POPC   GL228622  19.978  30.043   8.850
 5378POPC   C1A28623  19.843  29.888   8.550
 5378POPC   D2A28624  19.858  29.872   8.250
 5378POPC   C3A28625  19.878  29.877   7.950
 5378POPC   C4A28626  19.863  29.927   7.650
 5378POPC   C1B28627  20.055  30.066   8.550
 5378POPC   C2B28628  20.032  30.049   8.250
 5378POPC   C3B28629  19.983  30.107   7.950
 5378POPC   C4B28630  19.999  30.089   7.650
 5379POPC   NC328631  16.777  25.288   9.450
 5379POPC   PO428632  16.701  25.297   9.150
 5379POPC   GL128633  16.731  25.305   8.850
 5379POPC   GL228634  16.743  25.426   8.850
 5379POPC   C1A28635  16.764  25.247   8.550
 5379POPC   D2A28636  16.711  25.280   8.250
 5379POPC   C3A28637  16.760  25.238   7.950
 5379POPC   C4A28638  16.768  25.271   7.650
 5379POPC   C1B28639  16.784  25.512   8.550
 5379POPC   C2B28640  16.777  25.518   8.250
 5379POPC   C3B28641  16.750  25.481   7.950
 5379POPC   C4B28642  16.826  25.495   7.650
 5380POPC   NC328643  34.554  12.876   9.450
 5380POPC   PO428644  34.624  12.847   9.150
 5380POPC   GL128645  34.572  12.803   8.850
 5380POPC   GL228646  34.643  12.872   8.850
 5380POPC   C1A28647  34.532  12.855   8.550
 5380POPC   D2A28648  34.570  12.853   8.250
 5380POPC   C3A28649  34.530  12.888   7.950
 5380POPC   C4A28650  34.572  12.882   7.650
 5380POPC   C1B28651  34.809  12.939   8.550
 5380POPC   C2B28652  34.826  12.943   8.250
 5380POPC   C3B28653  34.829  13.017   7.950
 5380POPC   C4B28654  34.766  13.006   7.650
 5381POPC   NC328655  29.160   6.617   9.450
 5381POPC   PO428656  29.145   6.643   9.150
 5381POPC   GL128657  29.112   6.694   8.850
 5381POPC   GL228658  29.158   6.512   8.850
 5381POPC   C1A28659  29.113   6.629   8.550
 5381POPC   D2A28660  29.125   6.635   8.250
 5381POPC   C3A28661  29.179   6.645   7.950
 5381POPC   C4A28662  29.137   6.681   7.650
 5381POPC   C1B28663  29.200   6.435   8.550
 5381POPC   C2B28664  29.171   6.400   8.250
 5381POPC   C3B28665  29.217   6.367   7.950
 5381POPC   C4B28666  29.181   6.352   7.650
 5382POPC   NC328667  15.213  22.138   9.450
 5382POPC   PO428668  15.176  22.211   9.150
 5382POPC   GL128669  15.148  22.172   8.850
 5382POPC   GL228670  15.260  22.185   8.850
 5382POPC   C1A28671  15.196  22.135   8.550
 5382POPC   D2A28672  15.165  22.128   8.250
 5382POPC   C3A28673  15.143  22.128   7.950
 5382POPC   C4A28674  15.227  22.175   7.650
 5382POPC   C1B28675  15.412  22.249   8.550
 5382POPC   C2B28676  15.444  22.179   8.250
 5382POPC   C3B28677  15.455  22.200   7.950
 5382POPC   C4B28678  15.450  22.215   7.650
 5383POPC   NC328679  38.440  27.638   9.450
 5383POPC   PO428680  38.409  27.636   9.150
 5383POPC   GL128681  38.433  27.589   8.850
 5383POPC   GL228682  38.544  27.539   8.850
 5383POPC   C1A28683  38.438  27.640   8.550
 5383POPC   D2A28684  38.410  27.551   8.250
 5383POPC   C3A28685  38.416  27.616   7.950
 5383POPC   C4A28686  38.427  27.582   7.650
 5383POPC   C1B28687  38.573  27.451   8.550
 5383POPC   C2B28688  38.667  27.394   8.250
 5383POPC   C3B28689  38.634  27.445   7.950
 5383POPC   C4B28690  38.642  27.356   7.650
 5384POPC   NC328691  15.972  26.856   9.450
 5384POPC   PO428692  15.937  26.814   9.150
 5384POPC   GL128693  16.000  26.786   8.850
 5384POPC   GL228694  16.031  26.787   8.850
 5384POPC   C1A28695  16.001  26.834   8.550
 5384POPC   D2A28696  15.932  26.831   8.250
 5384POPC   C3A28697  15.962  26.846   7.950
 5384POPC   C4A28698  15.935  26.804   7.650
 5384POPC   C1B28699  16.194  26.804   8.550
 5384POPC   C2B28700  16.229  26.742   8.250
 5384POPC   C3B28701  16.243  26.743   7.950
 5384POPC   C4B28702  16.173  26.805   7.650
 5385POPC   NC328703  18.301  35.312   9.450
 5385POPC   PO428704  18.237  35.368   9.150
 5385POPC   GL128705  18.282  35.361   8.850
 5385POPC   GL228706  18.372  35.464   8.850
 5385POPC   C1A28707  18.287  35.355   8.550
 5385POPC   D2A28708  18.276  35.308   8.250
 5385POPC   C3A28709  18.308  35.313   7.950
 5385POPC   C4A28710  18.278  35.381   7.650
 5385POPC   C1B28711  18.529  35.493   8.550
 5385POPC   C2B28712  18.460  35.494   8.250
 5385POPC   C3B28713  18.445  35.518   7.950
 5385POPC   C4B28714  18.488  35.522   7.650
 5386POPC   NC328715  26.834  13.586   9.450
 5386POPC   PO428716  26.810  13.591   9.150
 5386POPC   GL128717  26.832  13.634   8.850
 5386POPC   GL228718  26.965  13.666   8.850
 5386POPC   C1A28719  26.791  13.660   8.550
 5386POPC   D2A28720  26.823  13.633   8.250
 5386POPC   C3A28721  26.839  13.615   7.950
 5386POPC   C4A28722  26.773  13.580   7.650
 5386POPC   C1B28723  27.025  13.687   8.550
 5386POPC   C2B28724  27.045  13.671   8.250
 5386POPC   C3B28725  27.028  13.693   7.950
 5386POPC   C4B28726  27.016  13.619   7.650
 5387POPC   NC328727  28.407  36.948   9.450
 5387POPC   PO428728  28.361  36.905   9.150
 5387POPC   GL128729  28.319  36.870   8.850
 5387POPC   GL228730  28.303  36.978   8.850
 5387POPC   C1A28731  28.373  36.911   8.550
 5387POPC   D2A28732  28.328  36.904   8.250
 5387POPC   C3A28733  28.413  36.910   7.950
 5387POPC   C4A28734  28.368  36.947   7.650
 5387POPC   C1B28735  28.166  37.091   8.550
 5387POPC   C2B28736  28.162  37.113   8.250
 5387POPC   C3B28737  28.172  37.095   7.950
 5387POPC   C4B28738  28.206  37.090   7.650
 5388POPC   NC328739  38.463  32.980   9.450
 5388POPC   PO428740  38.453  33.004   9.150
 5388POPC   GL128741  38.413  32.975   8.850
 5388POPC   GL228742  38.469  33.131   8.850
 5388POPC   C1A28743  38.461  32.975   8.550
 5388POPC   D2A28744  38.407  33.026   8.250
 5388POPC   C3A28745  38.446  33.039   7.950
 5388POPC   C4A28746  38.486  33.055   7.650
 5388POPC   C1B28747  38.405  33.222   8.550
 5388POPC   C2B28748  38.430  33.300   8.250
 5388POPC   C3B28749  38.376  33.293   7.950
 5388POPC   C4B28750  38.451  33.254   7.650
 5389POPC   NC328751  14.402  15.215   9.450
 5389POPC   PO428752  14.417  15.144   9.150
 5389POPC   GL128753  14.408  15.220   8.850
 5389POPC   GL228754  14.312  15.270   8.850
 5389POPC   C1A28755  14.383  15.191   8.550
 5389POPC   D2A28756  14.391  15.216   8.250
 5389POPC   C3A28757  14.405  15.203   7.950
 5389POPC   C4A28758  14.409  15.150   7.650
 5389POPC   C1B28759  14.178  15.388   8.550
 5389POPC   C2B28760  14.240  15.339   8.250
 5389POPC   C3B28761  14.261  15.404   7.950
 5389POPC   C4B28762  14.250  15.343   7.650
 5390POPC   NC328763  40.051  24.480   9.450
 5390POPC   PO428764  40.002  24.494   9.150
 5390POPC   GL128765  39.966  24.462   8.850
 5390POPC   GL228766  40.068  24.376   8.850
 5390POPC   C1A28767  39.981  24.488   8.550
 5390POPC   D2A28768  39.970  24.506   8.250
 5390POPC   C3A28769  40.045  24.494   7.950
 5390POPC   C4A28770  39.990  24.481   7.650
 5390POPC   C1B28771  40.224  24.329   8.550
 5390POPC   C2B28772  40.219  24.377   8.250
 5390POPC   C3B28773  40.186  24.319   7.950
 5390POPC   C4B28774  40.188  24.382   7.650
 5391POPC   NC328775  37.662  15.222   9.450
 5391POPC   PO428776  37.668  15.200   9.150
 5391POPC   GL128777  37.668  15.145   8.850
 5391POPC   GL228778  37.616  15.316   8.850
 5391POPC   C1A28779  37.653  15.215   8.550
 5391POPC   D2A28780  37.665  15.140   8.250
 5391POPC   C3A28781  37.667  15.216   7.950
 5391POPC   C4A28782  37.688  15.158   7.650
 5391POPC   C1B28783  37.578  15.389   8.550
 5391POPC   C2B28784  37.516  15.364   8.250
 5391POPC   C3B28785  37.536  15.431   7.950
 5391POPC   C4B28786  37.523  15.424   7.650
 5392POPC   NC328787  26.830  34.609   9.450
 5392POPC   PO428788  26.768  34.546   9.150
 5392POPC   GL128789  26.793  34.579   8.850
 5392POPC   GL228790  26.693  34.502   8.850
 5392POPC   C1A28791  26.853  34.581   8.550
 5392POPC   D2A28792  26.801  34.582   8.250
 5392POPC   C3A28793  26.781  34.563   7.950
 5392POPC   C4A28794  26.860  34.602   7.650
 5392POPC   C1B28795  26.673  34.416   8.550
 5392POPC   C2B28796  26.619  34.377   8.250
 5392POPC   C3B28797  26.663  34.365   7.950
 5392POPC   C4B28798  26.675  34.406   7.650
 5393POPC   NC328799  43.144  44.616   9.450
 5393POPC   PO428800  43.098  44.702   9.150
 5393POPC   GL128801  43.147  44.650   8.850
 5393POPC   GL228802  43.004  44.706   8.850
 5393POPC   C1A28803  43.070  44.679   8.550
 5393POPC   D2A28804  43.147  44.697   8.250
 5393POPC   C3A28805  43.095  44.623   7.950
 5393POPC   C4A28806  43.094  44.638   7.650
 5393POPC   C1B28807  42.902  44.773   8.550
 5393POPC   C2B28808  42.887  44.760   8.250
 5393POPC   C3B28809  42.928  44.806   7.950
 5393POPC   C4B28810  42.924  44.729   7.650
 5394POPC   NC328811   5.072  28.377   9.450
 5394POPC   PO428812   5.106  28.352   9.150
 5394POPC   GL128813   5.139  28.345   8.850
 5394POPC   GL228814   4.947  28.428   8.850
 5394POPC   C1A28815   5.135  28.389   8.550
 5394POPC   D2A28816   5.052  28.412   8.250
 5394POPC   C3A28817   5.079  28.341   7.950
 5394POPC   C4A28818   5.120  28.339   7.650
 5394POPC   C1B28819   4.826  28.461   8.550
 5394POPC   C2B28820   4.901  28.459   8.250
 5394POPC   C3B28821   4.832  28.449   7.950
 5394POPC   C4B28822   4.826  28.469   7.650
 5395POPC   NC328823   6.691  22.958   9.450
 5395POPC   PO428824   6.683  22.977   9.150
 5395POPC   GL128825   6.686  22.988   8.850
 5395POPC   GL228826   6.507  22.992   8.850
 5395POPC   C1A28827   6.687  22.926   8.550
 5395POPC   D2A28828   6.640  22.978   8.250
 5395POPC   C3A28829   6.679  22.984   7.950
 5395POPC   C4A28830   6.611  22.917   7.650
 5395POPC   C1B28831   6.436  22.976   8.550
 5395POPC   C2B28832   6.444  23.026   8.250
 5395POPC   C3B28833   6.438  23.028   7.950
 5395POPC   C4B28834   6.438  23.025   7.650
 5396POPC   NC328835  44.663   9.731   9.450
 5396POPC   PO428836  44.634   9.699   9.150
 5396POPC   GL128837  44.626   9.759   8.850
 5396POPC   GL228838  44.558   9.856   8.850
 5396POPC   C1A28839  44.702   9.754   8.550
 5396POPC   D2A28840  44.669   9.718   8.250
 5396POPC   C3A28841  44.666   9.726   7.950
 5396POPC   C4A28842  44.657   9.731   7.650
 5396POPC   C1B28843  44.538  10.005   8.550
 5396POPC   C2B28844  44.494   9.955   8.250
 5396POPC   C3B28845  44.553   9.978   7.950
 5396POPC   C4B28846  44.561   9.969   7.650
 5397POPC   NC328847  22.157  35.365   9.450
 5397POPC   PO428848  22.186  35.309   9.150
 5397POPC   GL128849  22.119  35.364   8.850
 5397POPC   GL228850  22.190  35.272   8.850
 5397POPC   C1A28851  22.116  35.347   8.550
 5397POPC   D2A28852  22.197  35.357   8.250
 5397POPC   C3A28853  22.197  35.371   7.950
 5397POPC   C4A28854  22.176  35.335   7.650
 5397POPC   C1B28855  22.143  35.071   8.550
 5397POPC   C2B28856  22.185  35.089   8.250
 5397POPC   C3B28857  22.143  35.059   7.950
 5397POPC   C4B28858  22.131  35.054   7.650
 5398POPC   NC328859  35.386  10.573   9.450
 5398POPC   PO428860  35.321  10.534   9.150
 5398POPC   GL128861  35.341  10.550   8.850
 5398POPC   GL228862  35.366  10.403   8.850
 5398POPC   C1A28863  35.328  10.526   8.550
 5398POPC   D2A28864  35.326  10.548   8.250
 5398POPC   C3A28865  35.312  10.521   7.950
 5398POPC   C4A28866  35.319  10.523   7.650
 5398POPC   C1B28867  35.409  10.315   8.550
 5398POPC   C2B28868  35.401  10.325   8.250
 5398POPC   C3B28869  35.380  10.308   7.950
 5398POPC   C4B28870  35.409  10.246   7.650
 5399POPC   NC328871  39.973  35.317   9.450
 5399POPC   PO428872  40.033  35.397   9.150
 5399POPC   GL128873  40.035  35.304   8.850
 5399POPC   GL228874  39.883  35.386   8.850
 5399POPC   C1A28875  40.031  35.336   8.550
 5399POPC   D2A28876  39.996  35.378   8.250
 5399POPC   C3A28877  40.038  35.342   7.950
 5399POPC   C4A28878  40.031  35.324   7.650
 5399POPC   C1B28879  39.777  35.340   8.550
 5399POPC   C2B28880  39.753  35.349   8.250
 5399POPC   C3B28881  39.788  35.353   7.950
 5399POPC   C4B28882  39.747  35.357   7.650
 5400POPC   NC328883   0.474  36.879   9.450
 5400POPC   PO428884   0.446  36.879   9.150
 5400POPC   GL128885   0.466  36.854   8.850
 5400POPC   GL228886   0.397  36.990   8.850
 5400POPC   C1A28887   0.410  36.891   8.550
 5400POPC   D2A28888   0.481  36.859   8.250
 5400POPC   C3A28889   0.421  36.952   7.950
 5400POPC   C4A28890   0.464  36.920   7.650
 5400POPC   C1B28891   0.311  37.187   8.550
 5400POPC   C2B28892   0.318  37.152   8.250
 5400POPC   C3B28893   0.315  37.172   7.950
 5400POPC   C4B28894   0.356  37.097   7.650
 5401POPC   NC328895  33.026  24.468   9.450
 5401POPC   PO428896  32.996  24.509   9.150
 5401POPC   GL128897  33.064  24.449   8.850
 5401POPC   GL228898  32.945  24.358   8.850
 5401POPC   C1A28899  33.056  24.449   8.550
 5401POPC   D2A28900  33.048  24.539   8.250
 5401POPC   C3A28901  33.044  24.441   7.950
 5401POPC   C4A28902  33.025  24.495   7.650
 5401POPC   C1B28903  32.974  24.244   8.550
 5401POPC   C2B28904  33.012  24.274   8.250
 5401POPC   C3B28905  32.936  24.251   7.950
 5401POPC   C4B28906  32.974  24.237   7.650
 5402POPC   NC328907  40.754  18.302   9.450
 5402POPC   PO428908  40.769  18.239   9.150
 5402POPC   GL128909  40.772  18.237   8.850
 5402POPC   GL228910  40.866  18.162   8.850
 5402POPC   C1A28911  40.760  18.234   8.550
 5402POPC   D2A28912  40.778  18.289   8.250
 5402POPC   C3A28913  40.772  18.280   7.950
 5402POPC   C4A28914  40.827  18.252   7.650
 5402POPC   C1B28915  41.001  18.084   8.550
 5402POPC   C2B28916  40.930  18.088   8.250
 5402POPC   C3B28917  40.971  18.075   7.950
 5402POPC   C4B28918  40.936  18.139   7.650
 5403POPC   NC328919  12.097  38.486   9.450
 5403POPC   PO428920  12.120  38.423   9.150
 5403POPC   GL128921  12.125  38.418   8.850
 5403POPC   GL228922  12.085  38.618   8.850
 5403POPC   C1A28923  12.104  38.438   8.550
 5403POPC   D2A28924  12.080  38.414   8.250
 5403POPC   C3A28925  12.101  38.462   7.950
 5403POPC   C4A28926  12.035  38.498   7.650
 5403POPC   C1B28927  11.985  38.656   8.550
 5403POPC   C2B28928  12.034  38.696   8.250
 5403POPC   C3B28929  11.997  38.738   7.950
 5403POPC   C4B28930  12.031  38.664   7.650
 5404POPC   NC328931  44.707  28.369   9.450
 5404POPC   PO428932  44.711  28.392   9.150
 5404POPC   GL128933  44.696  28.390   8.850
 5404POPC   GL228934  44.809  28.329   8.850
 5404POPC   C1A28935  44.614  28.337   8.550
 5404POPC   D2A28936  44.645  28.390   8.250
 5404POPC   C3A28937  44.642  28.357   7.950
 5404POPC   C4A28938  44.647  28.404   7.650
 5404POPC   C1B28939  44.898  28.304   8.550
 5404POPC   C2B28940  44.904  28.232   8.250
 5404POPC   C3B28941  44.903  28.212   7.950
 5404POPC   C4B28942  44.898  28.272   7.650
 5405POPC   NC328943  42.292  21.342   9.450
 5405POPC   PO428944  42.324  21.421   9.150
 5405POPC   GL128945  42.336  21.429   8.850
 5405POPC   GL228946  42.286  21.518   8.850
 5405POPC   C1A28947  42.319  21.411   8.550
 5405POPC   D2A28948  42.355  21.410   8.250
 5405POPC   C3A28949  42.349  21.433   7.950
 5405POPC   C4A28950  42.299  21.436   7.650
 5405POPC   C1B28951  42.240  21.645   8.550
 5405POPC   C2B28952  42.296  21.652   8.250
 5405POPC   C3B28953  42.246  21.626   7.950
 5405POPC   C4B28954  42.297  21.590   7.650
 5406POPC   NC328955  15.194  41.541   9.450
 5406POPC   PO428956  15.134  41.571   9.150
 5406POPC   GL128957  15.150  41.571   8.850
 5406POPC   GL228958  15.295  41.507   8.850
 5406POPC   C1A28959  15.144  41.530   8.550
 5406POPC   D2A28960  15.188  41.603   8.250
 5406POPC   C3A28961  15.229  41.566   7.950
 5406POPC   C4A28962  15.224  41.559   7.650
 5406POPC   C1B28963  15.449  41.468   8.550
 5406POPC   C2B28964  15.388  41.443   8.250
 5406POPC   C3B28965  15.437  41.443   7.950
 5406POPC   C4B28966  15.437  41.469   7.650
 5407POPC   NC328967  19.033  10.476   9.450
 5407POPC   PO428968  19.047  10.549   9.150
 5407POPC   GL128969  19.015  10.478   8.850
 5407POPC   GL228970  19.147  10.544   8.850
 5407POPC   C1A28971  19.036  10.553   8.550
 5407POPC   D2A28972  19.052  10.553   8.250
 5407POPC   C3A28973  19.095  10.574   7.950
 5407POPC   C4A28974  19.013  10.480   7.650
 5407POPC   C1B28975  19.351  10.466   8.550
 5407POPC   C2B28976  19.268  10.491   8.250
 5407POPC   C3B28977  19.298  10.438   7.950
 5407POPC   C4B28978  19.328  10.434   7.650
 5408POPC   NC328979  36.155  19.019   9.450
 5408POPC   PO428980  36.117  19.072   9.150
 5408POPC   GL128981  36.132  19.080   8.850
 5408POPC   GL228982  36.216  19.163   8.850
 5408POPC   C1A28983  36.093  19.065   8.550
 5408POPC   D2A28984  36.138  19.034   8.250
 5408POPC   C3A28985  36.095  19.072   7.950
 5408POPC   C4A28986  36.099  19.105   7.650
 5408POPC   C1B28987  36.367  19.201   8.550
 5408POPC   C2B28988  36.320  19.237   8.250
 5408POPC   C3B28989  36.309  19.176   7.950
 5408POPC   C4B28990  36.329  19.183   7.650
 5409POPC   NC328991  16.001  17.496   9.450
 5409POPC   PO428992  15.943  17.458   9.150
 5409POPC   GL128993  15.943  17.462   8.850
 5409POPC   GL228994  15.819  17.404   8.850
 5409POPC   C1A28995  15.941  17.543   8.550
 5409POPC   D2A28996  15.975  17.490   8.250
 5409POPC   C3A28997  15.986  17.497   7.950
 5409POPC   C4A28998  15.918  17.466   7.650
 5409POPC   C1B28999  15.823  17.359   8.550
 5409POPC   C2B29000  15.785  17.317   8.250
 5409POPC   C3B29001  15.732  17.327   7.950
 5409POPC   C4B29002  15.826  17.378   7.650
 5410POPC   NC329003  13.645   1.247   9.450
 5410POPC   PO429004  13.580   1.201   9.150
 5410POPC   GL129005  13.628   1.255   8.850
 5410POPC   GL229006  13.768   1.231   8.850
 5410POPC   C1A29007  13.668   1.197   8.550
 5410POPC   D2A29008  13.642   1.218   8.250
 5410POPC   C3A29009  13.631   1.260   7.950
 5410POPC   C4A29010  13.639   1.224   7.650
 5410POPC   C1B29011  13.855   1.216   8.550
 5410POPC   C2B29012  13.891   1.230   8.250
 5410POPC   C3B29013  13.897   1.210   7.950
 5410POPC   C4B29014  13.916   1.232   7.650
 5411POPC   NC329015  32.227  32.226   9.450
 5411POPC   PO429016  32.253  32.239   9.150
 5411POPC   GL129017  32.293  32.219   8.850
 5411POPC   GL229018  32.343  32.314   8.850
 5411POPC   C1A29019  32.211  32.205   8.550
 5411POPC   D2A29020  32.224  32.295   8.250
 5411POPC   C3A29021  32.227  32.295   7.950
 5411POPC   C4A29022  32.215  32.233   7.650
 5411POPC   C1B29023  32.420  32.363   8.550
 5411POPC   C2B29024  32.432  32.350   8.250
 5411POPC   C3B29025  32.463  32.346   7.950
 5411POPC   C4B29026  32.424  32.397   7.650
 5412POPC   NC329027   6.637   0.433   9.450
 5412POPC   PO429028   6.625   0.477   9.150
 5412POPC   GL129029   6.668   0.453   8.850
 5412POPC   GL229030   6.757   0.362   8.850
 5412POPC   C1A29031   6.676   0.416   8.550
 5412POPC   D2A29032   6.599   0.449   8.250
 5412POPC   C3A29033   6.644   0.472   7.950
 5412POPC   C4A29034   6.644   0.437   7.650
 5412POPC   C1B29035   6.840   0.256   8.550
 5412POPC   C2B29036   6.841   0.282   8.250
 5412POPC   C3B29037   6.858   0.206   7.950
 5412POPC   C4B29038   6.850   0.253   7.650
 5413POPC   NC329039  43.855  42.338   9.450
 5413POPC   PO429040  43.876  42.350   9.150
 5413POPC   GL129041  43.861  42.345   8.850
 5413POPC   GL229042  43.916  42.176   8.850
 5413POPC   C1A29043  43.930  42.379   8.550
 5413POPC   D2A29044  43.923  42.319   8.250
 5413POPC   C3A29045  43.910  42.351   7.950
 5413POPC   C4A29046  43.908  42.338   7.650
 5413POPC   C1B29047  43.990  42.058   8.550
 5413POPC   C2B29048  43.980  42.097   8.250
 5413POPC   C3B29049  43.999  42.079   7.950
 5413POPC   C4B29050  44.014  42.124   7.650
 5414POPC   NC329051  31.432   0.445   9.450
 5414POPC   PO429052  31.515   0.404   9.150
 5414POPC   GL129053  31.466   0.388   8.850
 5414POPC   GL229054  31.322   0.441   8.850
 5414POPC   C1A29055  31.514   0.407   8.550
 5414POPC   D2A29056  31.469   0.414   8.250
 5414POPC   C3A29057  31.510   0.400   7.950
 5414POPC   C4A29058  31.463   0.468   7.650
 5414POPC   C1B29059  31.224   0.406   8.550
 5414POPC   C2B29060  31.194   0.435   8.250
 5414POPC   C3B29061  31.176   0.484   7.950
 5414POPC   C4B29062  31.218   0.420   7.650
 5415POPC   NC329063  43.107  18.251   9.450
 5415POPC   PO429064  43.085  18.277   9.150
 5415POPC   GL129065  43.156  18.275   8.850
 5415POPC   GL229066  43.079  18.137   8.850
 5415POPC   C1A29067  43.138  18.309   8.550
 5415POPC   D2A29068  43.076  18.287   8.250
 5415POPC   C3A29069  43.156  18.325   7.950
 5415POPC   C4A29070  43.094  18.329   7.650
 5415POPC   C1B29071  43.076  17.990   8.550
 5415POPC   C2B29072  43.089  18.081   8.250
 5415POPC   C3B29073  43.151  18.077   7.950
 5415POPC   C4B29074  43.101  18.046   7.650
 5416POPC   NC329075  29.113  29.158   9.450
 5416POPC   PO429076  29.142  29.140   9.150
 5416POPC   GL129077  29.129  29.153   8.850
 5416POPC   GL229078  29.031  29.149   8.850
 5416POPC   C1A29079  29.127  29.104   8.550
 5416POPC   D2A29080  29.188  29.151   8.250
 5416POPC   C3A29081  29.113  29.140   7.950
 5416POPC   C4A29082  29.123  29.176   7.650
 5416POPC   C1B29083  28.849  29.102   8.550
 5416POPC   C2B29084  28.861  29.081   8.250
 5416POPC   C3B29085  28.905  29.139   7.950
 5416POPC   C4B29086  28.876  29.077   7.650
 5417POPC   NC329087   8.202  13.663   9.450
 5417POPC   PO429088   8.191  13.658   9.150
 5417POPC   GL129089   8.188  13.648   8.850
 5417POPC   GL229090   8.285  13.657   8.850
 5417POPC   C1A29091   8.225  13.579   8.550
 5417POPC   D2A29092   8.196  13.618   8.250
 5417POPC   C3A29093   8.227  13.581   7.950
 5417POPC   C4A29094   8.244  13.675   7.650
 5417POPC   C1B29095   8.475  13.681   8.550
 5417POPC   C2B29096   8.461  13.705   8.250
 5417POPC   C3B29097   8.451  13.752   7.950
 5417POPC   C4B29098   8.393  13.748   7.650
 5418POPC   NC329099   2.782  12.820   9.450
 5418POPC   PO429100   2.766  12.881   9.150
 5418POPC   GL129101   2.774  12.838   8.850
 5418POPC   GL229102   2.696  12.786   8.850
 5418POPC   C1A29103   2.717  12.882   8.550
 5418POPC   D2A29104   2.743  12.832   8.250
 5418POPC   C3A29105   2.726  12.888   7.950
 5418POPC   C4A29106   2.798  12.896   7.650
 5418POPC   C1B29107   2.567  12.676   8.550
 5418POPC   C2B29108   2.605  12.675   8.250
 5418POPC   C3B29109   2.534  12.644   7.950
 5418POPC   C4B29110   2.558  12.661   7.650
 5419POPC   NC329111  12.882  29.959   9.450
 5419POPC   PO429112  12.891  29.952   9.150
 5419POPC   GL129113  12.872  29.901   8.850
 5419POPC   GL229114  12.916  29.753   8.850
 5419POPC   C1A29115  12.812  29.887   8.550
 5419POPC   D2A29116  12.886  29.923   8.250
 5419POPC   C3A29117  12.835  29.914   7.950
 5419POPC   C4A29118  12.885  29.890   7.650
 5419POPC   C1B29119  12.937  29.651   8.550
 5419POPC   C2B29120  12.884  29.676   8.250
 5419POPC   C3B29121  12.875  29.652   7.950
 5419POPC   C4B29122  12.934  29.720   7.650
 5420POPC   NC329123  27.545   3.495   9.450
 5420POPC   PO429124  27.584   3.493   9.150
 5420POPC   GL129125  27.605   3.578   8.850
 5420POPC   GL229126  27.480   3.431   8.850
 5420POPC   C1A29127  27.575   3.520   8.550
 5420POPC   D2A29128  27.607   3.507   8.250
 5420POPC   C3A29129  27.573   3.493   7.950
 5420POPC   C4A29130  27.592   3.573   7.650
 5420POPC   C1B29131  27.451   3.305   8.550
 5420POPC   C2B29132  27.472   3.389   8.250
 5420POPC   C3B29133  27.389   3.358   7.950
 5420POPC   C4B29134  27.419   3.360   7.650
 5421POPC   NC329135  28.400  15.149   9.450
 5421POPC   PO429136  28.394  15.177   9.150
 5421POPC   GL129137  28.384  15.212   8.850
 5421POPC   GL229138  28.489  15.193   8.850
 5421POPC   C1A29139  28.362  15.226   8.550
 5421POPC   D2A29140  28.371  15.201   8.250
 5421POPC   C3A29141  28.356  15.144   7.950
 5421POPC   C4A29142  28.412  15.208   7.650
 5421POPC   C1B29143  28.586  15.100   8.550
 5421POPC   C2B29144  28.651  15.119   8.250
 5421POPC   C3B29145  28.633  15.112   7.950
 5421POPC   C4B29146  28.589  15.142   7.650
 5422POPC   NC329147   4.343  36.151   9.450
 5422POPC   PO429148   4.350  36.094   9.150
 5422POPC   GL129149   4.326  36.105   8.850
 5422POPC   GL229150   4.175  36.072   8.850
 5422POPC   C1A29151   4.320  36.125   8.550
 5422POPC   D2A29152   4.352  36.090   8.250
 5422POPC   C3A29153   4.302  36.135   7.950
 5422POPC   C4A29154   4.308  36.147   7.650
 5422POPC   C1B29155   4.115  36.046   8.550
 5422POPC   C2B29156   4.082  35.987   8.250
 5422POPC   C3B29157   4.135  36.007   7.950
 5422POPC   C4B29158   4.127  36.046   7.650
 5423POPC   NC329159  36.900  35.316   9.450
 5423POPC   PO429160  36.861  35.358   9.150
 5423POPC   GL129161  36.916  35.374   8.850
 5423POPC   GL229162  36.933  35.185   8.850
 5423POPC   C1A29163  36.869  35.344   8.550
 5423POPC   D2A29164  36.923  35.304   8.250
 5423POPC   C3A29165  36.904  35.390   7.950
 5423POPC   C4A29166  36.884  35.310   7.650
 5423POPC   C1B29167  36.901  35.105   8.550
 5423POPC   C2B29168  36.906  35.133   8.250
 5423POPC   C3B29169  36.858  35.141   7.950
 5423POPC   C4B29170  36.853  35.069   7.650
 5424POPC   NC329171  18.295  36.862   9.450
 5424POPC   PO429172  18.251  36.920   9.150
 5424POPC   GL129173  18.276  36.895   8.850
 5424POPC   GL229174  18.168  36.944   8.850
 5424POPC   C1A29175  18.233  36.923   8.550
 5424POPC   D2A29176  18.291  36.879   8.250
 5424POPC   C3A29177  18.322  36.935   7.950
 5424POPC   C4A29178  18.301  36.949   7.650
 5424POPC   C1B29179  18.048  37.054   8.550
 5424POPC   C2B29180  18.087  36.978   8.250
 5424POPC   C3B29181  18.084  37.000   7.950
 5424POPC   C4B29182  18.036  37.028   7.650
 5425POPC   NC329183  11.306  22.131   9.450
 5425POPC   PO429184  11.320  22.144   9.150
 5425POPC   GL129185  11.344  22.208   8.850
 5425POPC   GL229186  11.401  22.175   8.850
 5425POPC   C1A29187  11.329  22.155   8.550
 5425POPC   D2A29188  11.277  22.150   8.250
 5425POPC   C3A29189  11.269  22.208   7.950
 5425POPC   C4A29190  11.256  22.188   7.650
 5425POPC   C1B29191  11.537  22.208   8.550
 5425POPC   C2B29192  11.519  22.172   8.250
 5425POPC   C3B29193  11.515  22.159   7.950
 5425POPC   C4B29194  11.582  22.231   7.650
 5426POPC   NC329195  34.611  38.492   9.450
 5426POPC   PO429196  34.543  38.492   9.150
 5426POPC   GL129197  34.564  38.437   8.850
 5426POPC   GL229198  34.607  38.602   8.850
 5426POPC   C1A29199  34.591  38.411   8.550
 5426POPC   D2A29200  34.573  38.429   8.250
 5426POPC   C3A29201  34.547  38.461   7.950
 5426POPC   C4A29202  34.574  38.444   7.650
 5426POPC   C1B29203  34.656  38.716   8.550
 5426POPC   C2B29204  34.623  38.671   8.250
 5426POPC   C3B29205  34.675  38.683   7.950
 5426POPC   C4B29206  34.582  38.720   7.650
 5427POPC   NC329207  43.928  33.830   9.450
 5427POPC   PO429208  43.926  33.780   9.150
 5427POPC   GL129209  43.922  33.821   8.850
 5427POPC   GL229210  43.801  33.783   8.850
 5427POPC   C1A29211  43.932  33.805   8.550
 5427POPC   D2A29212  43.877  33.798   8.250
 5427POPC   C3A29213  43.880  33.767   7.950
 5427POPC   C4A29214  43.877  33.777   7.650
 5427POPC   C1B29215  43.619  33.734   8.550
 5427POPC   C2B29216  43.675  33.733   8.250
 5427POPC   C3B29217  43.666  33.723   7.950
 5427POPC   C4B29218  43.640  33.802   7.650
 5428POPC   NC329219  42.317  37.664   9.450
 5428POPC   PO429220  42.309  37.728   9.150
 5428POPC   GL129221  42.298  37.667   8.850
 5428POPC   GL229222  42.413  37.768   8.850
 5428POPC   C1A29223  42.307  37.645   8.550
 5428POPC   D2A29224  42.381  37.645   8.250
 5428POPC   C3A29225  42.291  37.667   7.950
 5428POPC   C4A29226  42.316  37.704   7.650
 5428POPC   C1B29227  42.448  37.938   8.550
 5428POPC   C2B29228  42.426  37.883   8.250
 5428POPC   C3B29229  42.430  37.895   7.950
 5428POPC   C4B29230  42.455  37.893   7.650
 5429POPC   NC329231  29.166  19.032   9.450
 5429POPC   PO429232  29.096  19.097   9.150
 5429POPC   GL129233  29.116  19.072   8.850
 5429POPC   GL229234  29.168  18.949   8.850
 5429POPC   C1A29235  29.165  19.088   8.550
 5429POPC   D2A29236  29.183  19.083   8.250
 5429POPC   C3A29237  29.182  19.019   7.950
 5429POPC   C4A29238  29.169  19.028   7.650
 5429POPC   C1B29239  29.273  18.843   8.550
 5429POPC   C2B29240  29.190  18.831   8.250
 5429POPC   C3B29241  29.214  18.856   7.950
 5429POPC   C4B29242  29.219  18.785   7.650
 5430POPC   NC329243  19.053  14.440   9.450
 5430POPC   PO429244  19.074  14.426   9.150
 5430POPC   GL129245  19.035  14.440   8.850
 5430POPC   GL229246  19.089  14.555   8.850
 5430POPC   C1A29247  19.053  14.397   8.550
 5430POPC   D2A29248  19.023  14.429   8.250
 5430POPC   C3A29249  19.026  14.445   7.950
 5430POPC   C4A29250  19.074  14.416   7.650
 5430POPC   C1B29251  19.115  14.611   8.550
 5430POPC   C2B29252  19.065  14.635   8.250
 5430POPC   C3B29253  19.127  14.651   7.950
 5430POPC   C4B29254  19.124  14.661   7.650
 5431POPC   NC329255  36.872   6.650   9.450
 5431POPC   PO429256  36.862   6.695   9.150
 5431POPC   GL129257  36.875   6.603   8.850
 5431POPC   GL229258  37.076   6.634   8.850
 5431POPC   C1A29259  36.946   6.694   8.550
 5431POPC   D2A29260  36.945   6.689   8.250
 5431POPC   C3A29261  36.886   6.689   7.950
 5431POPC   C4A29262  36.927   6.648   7.650
 5431POPC   C1B29263  37.121   6.601   8.550
 5431POPC   C2B29264  37.164   6.647   8.250
 5431POPC   C3B29265  37.134   6.642   7.950
 5431POPC   C4B29266  37.104   6.606   7.650
 5432POPC   NC329267  28.377  19.801   9.450
 5432POPC   PO429268  28.382  19.865   9.150
 5432POPC   GL129269  28.416  19.786   8.850
 5432POPC   GL229270  28.342  19.892   8.850
 5432POPC   C1A29271  28.353  19.805   8.550
 5432POPC   D2A29272  28.364  19.785   8.250
 5432POPC   C3A29273  28.354  19.822   7.950
 5432POPC   C4A29274  28.408  19.842   7.650
 5432POPC   C1B29275  28.192  20.087   8.550
 5432POPC   C2B29276  28.231  20.045   8.250
 5432POPC   C3B29277  28.238  20.028   7.950
 5432POPC   C4B29278  28.218  20.022   7.650
 5433POPC   NC329279   1.215  23.746   9.450
 5433POPC   PO429280   1.198  23.689   9.150
 5433POPC   GL129281   1.224  23.681   8.850
 5433POPC   GL229282   1.266  23.834   8.850
 5433POPC   C1A29283   1.186  23.675   8.550
 5433POPC   D2A29284   1.233  23.755   8.250
 5433POPC   C3A29285   1.220  23.748   7.950
 5433POPC   C4A29286   1.229  23.671   7.650
 5433POPC   C1B29287   1.223  23.953   8.550
 5433POPC   C2B29288   1.228  23.932   8.250
 5433POPC   C3B29289   1.235  23.986   7.950
 5433POPC   C4B29290   1.243  23.921   7.650
 5434POPC   NC329291  17.489  20.649   9.450
 5434POPC   PO429292  17.510  20.582   9.150
 5434POPC   GL129293  17.550  20.619   8.850
 5434POPC   GL229294  17.436  20.573   8.850
 5434POPC   C1A29295  17.502  20.568   8.550
 5434POPC   D2A29296  17.527  20.567   8.250
 5434POPC   C3A29297  17.464  20.563   7.950
 5434POPC   C4A29298  17.538  20.590   7.650
 5434POPC   C1B29299  17.245  20.490   8.550
 5434POPC   C2B29300  17.233  20.531   8.250
 5434POPC   C3B29301  17.279  20.485   7.950
 5434POPC   C4B29302  17.240  20.518   7.650
 5435POPC   NC329303  12.850  32.991   9.450
 5435POPC   PO429304  12.835  33.001   9.150
 5435POPC   GL129305  12.886  32.997   8.850
 5435POPC   GL229306  12.935  32.959   8.850
 5435POPC   C1A29307  12.875  33.060   8.550
 5435POPC   D2A29308  12.891  33.049   8.250
 5435POPC   C3A29309  12.853  32.982   7.950
 5435POPC   C4A29310  12.805  32.998   7.650
 5435POPC   C1B29311  13.095  32.932   8.550
 5435POPC   C2B29312  13.116  32.941   8.250
 5435POPC   C3B29313  13.073  32.911   7.950
 5435POPC   C4B29314  13.096  32.966   7.650
 5436POPC   NC329315  29.917  14.450   9.450
 5436POPC   PO429316  29.883  14.356   9.150
 5436POPC   GL129317  29.905  14.384   8.850
 5436POPC   GL229318  30.070  14.392   8.850
 5436POPC   C1A29319  29.970  14.448   8.550
 5436POPC   D2A29320  29.899  14.440   8.250
 5436POPC   C3A29321  29.937  14.417   7.950
 5436POPC   C4A29322  29.948  14.441   7.650
 5436POPC   C1B29323  30.149  14.402   8.550
 5436POPC   C2B29324  30.166  14.376   8.250
 5436POPC   C3B29325  30.166  14.412   7.950
 5436POPC   C4B29326  30.205  14.405   7.650
 5437POPC   NC329327  43.111  38.475   9.450
 5437POPC   PO429328  43.105  38.450   9.150
 5437POPC   GL129329  43.101  38.408   8.850
 5437POPC   GL229330  43.257  38.441   8.850
 5437POPC   C1A29331  43.074  38.448   8.550
 5437POPC   D2A29332  43.084  38.435   8.250
 5437POPC   C3A29333  43.142  38.424   7.950
 5437POPC   C4A29334  43.066  38.415   7.650
 5437POPC   C1B29335  43.358  38.441   8.550
 5437POPC   C2B29336  43.390  38.422   8.250
 5437POPC   C3B29337  43.385  38.377   7.950
 5437POPC   C4B29338  43.388  38.421   7.650
 5438POPC   NC329339  26.796  20.583   9.450
 5438POPC   PO429340  26.863  20.604   9.150
 5438POPC   GL129341  26.789  20.643   8.850
 5438POPC   GL229342  26.703  20.537   8.850
 5438POPC   C1A29343  26.791  20.603   8.550
 5438POPC   D2A29344  26.843  20.575   8.250
 5438POPC   C3A29345  26.811  20.583   7.950
 5438POPC   C4A29346  26.835  20.593   7.650
 5438POPC   C1B29347  26.596  20.535   8.550
 5438POPC   C2B29348  26.640  20.541   8.250
 5438POPC   C3B29349  26.601  20.546   7.950
 5438POPC   C4B29350  26.635  20.476   7.650
 5439POPC   NC329351   5.840   1.224   9.450
 5439POPC   PO429352   5.910   1.184   9.150
 5439POPC   GL129353   5.895   1.204   8.850
 5439POPC   GL229354   5.753   1.132   8.850
 5439POPC   C1A29355   5.879   1.261   8.550
 5439POPC   D2A29356   5.887   1.176   8.250
 5439POPC   C3A29357   5.874   1.252   7.950
 5439POPC   C4A29358   5.840   1.247   7.650
 5439POPC   C1B29359   5.625   1.104   8.550
 5439POPC   C2B29360   5.609   1.069   8.250
 5439POPC   C3B29361   5.670   1.084   7.950
 5439POPC   C4B29362   5.634   1.144   7.650
 5440POPC   NC329363   3.585  11.301   9.450
 5440POPC   PO429364   3.501  11.349   9.150
 5440POPC   GL129365   3.576  11.323   8.850
 5440POPC   GL229366   3.501  11.141   8.850
 5440POPC   C1A29367   3.569  11.336   8.550
 5440POPC   D2A29368   3.502  11.296   8.250
 5440POPC   C3A29369   3.570  11.328   7.950
 5440POPC   C4A29370   3.524  11.315   7.650
 5440POPC   C1B29371   3.521  11.037   8.550
 5440POPC   C2B29372   3.534  11.006   8.250
 5440POPC   C3B29373   3.487  11.095   7.950
 5440POPC   C4B29374   3.554  11.030   7.650
 5441POPC   NC329375  34.615  33.836   9.450
 5441POPC   PO429376  34.587  33.775   9.150
 5441POPC   GL129377  34.563  33.824   8.850
 5441POPC   GL229378  34.542  33.933   8.850
 5441POPC   C1A29379  34.572  33.768   8.550
 5441POPC   D2A29380  34.546  33.833   8.250
 5441POPC   C3A29381  34.555  33.750   7.950
 5441POPC   C4A29382  34.541  33.756   7.650
 5441POPC   C1B29383  34.548  34.066   8.550
 5441POPC   C2B29384  34.563  34.056   8.250
 5441POPC   C3B29385  34.543  34.088   7.950
 5441POPC   C4B29386  34.543  34.056   7.650
 5442POPC   NC329387  33.765  14.428   9.450
 5442POPC   PO429388  33.759  14.433   9.150
 5442POPC   GL129389  33.816  14.434   8.850
 5442POPC   GL229390  33.696  14.349   8.850
 5442POPC   C1A29391  33.809  14.409   8.550
 5442POPC   D2A29392  33.841  14.369   8.250
 5442POPC   C3A29393  33.811  14.449   7.950
 5442POPC   C4A29394  33.824  14.385   7.650
 5442POPC   C1B29395  33.567  14.383   8.550
 5442POPC   C2B29396  33.538  14.355   8.250
 5442POPC   C3B29397  33.574  14.379   7.950
 5442POPC   C4B29398  33.517  14.340   7.650
 5443POPC   NC329399  37.726   2.770   9.450
 5443POPC   PO429400  37.694   2.736   9.150
 5443POPC   GL129401  37.697   2.769   8.850
 5443POPC   GL229402  37.531   2.680   8.850
 5443POPC   C1A29403  37.653   2.749   8.550
 5443POPC   D2A29404  37.658   2.800   8.250
 5443POPC   C3A29405  37.683   2.745   7.950
 5443POPC   C4A29406  37.727   2.770   7.650
 5443POPC   C1B29407  37.472   2.623   8.550
 5443POPC   C2B29408  37.473   2.618   8.250
 5443POPC   C3B29409  37.424   2.637   7.950
 5443POPC   C4B29410  37.449   2.633   7.650
 5444POPC   NC329411  40.014   6.606   9.450
 5444POPC   PO429412  39.982   6.647   9.150
 5444POPC   GL129413  40.002   6.693   8.850
 5444POPC   GL229414  40.018   6.710   8.850
 5444POPC   C1A29415  39.972   6.635   8.550
 5444POPC   D2A29416  39.984   6.601   8.250
 5444POPC   C3A29417  40.002   6.659   7.950
 5444POPC   C4A29418  40.012   6.623   7.650
 5444POPC   C1B29419  40.128   6.865   8.550
 5444POPC   C2B29420  40.100   6.920   8.250
 5444POPC   C3B29421  40.141   6.841   7.950
 5444POPC   C4B29422  40.070   6.900   7.650
 5445POPC   NC329423  16.713  14.446   9.450
 5445POPC   PO429424  16.758  14.412   9.150
 5445POPC   GL129425  16.688  14.354   8.850
 5445POPC   GL229426  16.741  14.549   8.850
 5445POPC   C1A29427  16.775  14.359   8.550
 5445POPC   D2A29428  16.728  14.428   8.250
 5445POPC   C3A29429  16.688  14.384   7.950
 5445POPC   C4A29430  16.691  14.428   7.650
 5445POPC   C1B29431  16.875  14.585   8.550
 5445POPC   C2B29432  16.855  14.654   8.250
 5445POPC   C3B29433  16.872  14.626   7.950
 5445POPC   C4B29434  16.859  14.683   7.650
 5446POPC   NC329435   7.419   8.929   9.450
 5446POPC   PO429436   7.458   8.995   9.150
 5446POPC   GL129437   7.440   9.003   8.850
 5446POPC   GL229438   7.345   8.809   8.850
 5446POPC   C1A29439   7.434   8.959   8.550
 5446POPC   D2A29440   7.461   8.951   8.250
 5446POPC   C3A29441   7.429   9.005   7.950
 5446POPC   C4A29442   7.467   8.979   7.650
 5446POPC   C1B29443   7.333   8.699   8.550
 5446POPC   C2B29444   7.312   8.778   8.250
 5446POPC   C3B29445   7.355   8.737   7.950
 5446POPC   C4B29446   7.350   8.774   7.650
 5447POPC   NC329447  14.431  28.327   9.450
 5447POPC   PO429448  14.412  28.391   9.150
 5447POPC   GL129449  14.419  28.399   8.850
 5447POPC   GL229450  14.489  28.376   8.850
 5447POPC   C1A29451  14.401  28.357   8.550
 5447POPC   D2A29452  14.435  28.330   8.250
 5447POPC   C3A29453  14.354  28.387   7.950
 5447POPC   C4A29454  14.407  28.363   7.650
 5447POPC   C1B29455  14.616  28.477   8.550
 5447POPC   C2B29456  14.636  28.443   8.250
 5447POPC   C3B29457  14.647  28.396   7.950
 5447POPC   C4B29458  14.624  28.419   7.650
 5448POPC   NC329459  14.383  19.035   9.450
 5448POPC   PO429460  14.417  19.107   9.150
 5448POPC   GL129461  14.368  19.018   8.850
 5448POPC   GL229462  14.561  19.051   8.850
 5448POPC   C1A29463  14.440  19.091   8.550
 5448POPC   D2A29464  14.356  19.092   8.250
 5448POPC   C3A29465  14.426  19.072   7.950
 5448POPC   C4A29466  14.450  19.057   7.650
 5448POPC   C1B29467  14.676  19.113   8.550
 5448POPC   C2B29468  14.685  19.076   8.250
 5448POPC   C3B29469  14.685  19.102   7.950
 5448POPC   C4B29470  14.649  19.070   7.650
 5449POPC   NC329471  28.375   9.739   9.450
 5449POPC   PO429472  28.364   9.725   9.150
 5449POPC   GL129473  28.370   9.795   8.850
 5449POPC   GL229474  28.435   9.863   8.850
 5449POPC   C1A29475  28.323   9.721   8.550
 5449POPC   D2A29476  28.403   9.762   8.250
 5449POPC   C3A29477  28.404   9.791   7.950
 5449POPC   C4A29478  28.374   9.735   7.650
 5449POPC   C1B29479  28.421   9.989   8.550
 5449POPC   C2B29480  28.381  10.003   8.250
 5449POPC   C3B29481  28.388  10.033   7.950
 5449POPC   C4B29482  28.390   9.951   7.650
 5450POPC   NC329483  38.474  36.855   9.450
 5450POPC   PO429484  38.451  36.936   9.150
 5450POPC   GL129485  38.504  36.914   8.850
 5450POPC   GL229486  38.542  36.931   8.850
 5450POPC   C1A29487  38.481  36.938   8.550
 5450POPC   D2A29488  38.482  36.899   8.250
 5450POPC   C3A29489  38.457  36.873   7.950
 5450POPC   C4A29490  38.490  36.922   7.650
 5450POPC   C1B29491  38.656  36.997   8.550
 5450POPC   C2B29492  38.694  37.007   8.250
 5450POPC   C3B29493  38.696  37.047   7.950
 5450POPC   C4B29494  38.711  37.012   7.650
 5451POPC   NC329495  39.241  36.917   9.450
 5451POPC   PO429496  39.259  36.896   9.150
 5451POPC   GL129497  39.258  36.942   8.850
 5451POPC   GL229498  39.295  36.781   8.850
 5451POPC   C1A29499  39.277  36.892   8.550
 5451POPC   D2A29500  39.262  36.937   8.250
 5451POPC   C3A29501  39.253  36.871   7.950
 5451POPC   C4A29502  39.233  36.864   7.650
 5451POPC   C1B29503  39.228  36.649   8.550
 5451POPC   C2B29504  39.227  36.665   8.250
 5451POPC   C3B29505  39.310  36.608   7.950
 5451POPC   C4B29506  39.262  36.612   7.650
 5452POPC   NC329507  17.458   4.315   9.450
 5452POPC   PO429508  17.466   4.310   9.150
 5452POPC   GL129509  17.535   4.290   8.850
 5452POPC   GL229510  17.344   4.298   8.850
 5452POPC   C1A29511  17.490   4.298   8.550
 5452POPC   D2A29512  17.497   4.348   8.250
 5452POPC   C3A29513  17.488   4.287   7.950
 5452POPC   C4A29514  17.505   4.330   7.650
 5452POPC   C1B29515  17.289   4.249   8.550
 5452POPC   C2B29516  17.231   4.247   8.250
 5452POPC   C3B29517  17.270   4.280   7.950
 5452POPC   C4B29518  17.245   4.277   7.650
 5453POPC   NC329519  44.671  20.587   9.450
 5453POPC   PO429520  44.696  20.649   9.150
 5453POPC   GL129521  44.667  20.630   8.850
 5453POPC   GL229522  44.681  20.707   8.850
 5453POPC   C1A29523  44.681  20.621   8.550
 5453POPC   D2A29524  44.697  20.652   8.250
 5453POPC   C3A29525  44.679  20.584   7.950
 5453POPC   C4A29526  44.672  20.644   7.650
 5453POPC   C1B29527  44.733  20.828   8.550
 5453POPC   C2B29528  44.674  20.891   8.250
 5453POPC   C3B29529  44.675  20.815   7.950
 5453POPC   C4B29530  44.721  20.848   7.650
 5454POPC   NC329531   4.301  44.678   9.450
 5454POPC   PO429532   4.270  44.669   9.150
 5454POPC   GL129533   4.277  44.705   8.850
 5454POPC   GL229534   4.375  44.763   8.850
 5454POPC   C1A29535   4.336  44.667   8.550
 5454POPC   D2A29536   4.321  44.649   8.250
 5454POPC   C3A29537   4.338  44.625   7.950
 5454POPC   C4A29538   4.333  44.640   7.650
 5454POPC   C1B29539   4.558  44.862   8.550
 5454POPC   C2B29540   4.541  44.828   8.250
 5454POPC   C3B29541   4.513  44.860   7.950
 5454POPC   C4B29542   4.465  44.868   7.650
 5455POPC   NC329543  43.140  23.748   9.450
 5455POPC   PO429544  43.096  23.694   9.150
 5455POPC   GL129545  43.099  23.737   8.850
 5455POPC   GL229546  42.984  23.729   8.850
 5455POPC   C1A29547  43.130  23.685   8.550
 5455POPC   D2A29548  43.115  23.728   8.250
 5455POPC   C3A29549  43.089  23.680   7.950
 5455POPC   C4A29550  43.068  23.726   7.650
 5455POPC   C1B29551  42.843  23.754   8.550
 5455POPC   C2B29552  42.840  23.765   8.250
 5455POPC   C3B29553  42.871  23.703   7.950
 5455POPC   C4B29554  42.862  23.770   7.650
 5456POPC   NC329555  15.133  21.350   9.450
 5456POPC   PO429556  15.186  21.371   9.150
 5456POPC   GL129557  15.193  21.403   8.850
 5456POPC   GL229558  15.272  21.296   8.850
 5456POPC   C1A29559  15.132  21.399   8.550
 5456POPC   D2A29560  15.172  21.411   8.250
 5456POPC   C3A29561  15.142  21.431   7.950
 5456POPC   C4A29562  15.139  21.418   7.650
 5456POPC   C1B29563  15.275  21.146   8.550
 5456POPC   C2B29564  15.242  21.142   8.250
 5456POPC   C3B29565  15.271  21.152   7.950
 5456POPC   C4B29566  15.298  21.186   7.650
 5457POPC   NC329567  17.472  29.145   9.450
 5457POPC   PO429568  17.505  29.177   9.150
 5457POPC   GL129569  17.525  29.174   8.850
 5457POPC   GL229570  17.402  29.224   8.850
 5457POPC   C1A29571  17.522  29.096   8.550
 5457POPC   D2A29572  17.543  29.106   8.250
 5457POPC   C3A29573  17.552  29.194   7.950
 5457POPC   C4A29574  17.550  29.117   7.650
 5457POPC   C1B29575  17.327  29.271   8.550
 5457POPC   C2B29576  17.332  29.266   8.250
 5457POPC   C3B29577  17.272  29.320   7.950
 5457POPC   C4B29578  17.307  29.247   7.650
 5458POPC   NC329579  40.770  34.595   9.450
 5458POPC   PO429580  40.803  34.549   9.150
 5458POPC   GL129581  40.733  34.559   8.850
 5458POPC   GL229582  40.661  34.561   8.850
 5458POPC   C1A29583  40.822  34.563   8.550
 5458POPC   D2A29584  40.808  34.593   8.250
 5458POPC   C3A29585  40.766  34.599   7.950
 5458POPC   C4A29586  40.802  34.569   7.650
 5458POPC   C1B29587  40.485  34.618   8.550
 5458POPC   C2B29588  40.492  34.592   8.250
 5458POPC   C3B29589  40.585  34.648   7.950
 5458POPC   C4B29590  40.488  34.583   7.650
 5459POPC   NC329591  37.708  14.434   9.450
 5459POPC   PO429592  37.679  14.365   9.150
 5459POPC   GL129593  37.697  14.437   8.850
 5459POPC   GL229594  37.644  14.544   8.850
 5459POPC   C1A29595  37.654  14.390   8.550
 5459POPC   D2A29596  37.639  14.421   8.250
 5459POPC   C3A29597  37.651  14.451   7.950
 5459POPC   C4A29598  37.709  14.432   7.650
 5459POPC   C1B29599  37.662  14.676   8.550
 5459POPC   C2B29600  37.638  14.601   8.250
 5459POPC   C3B29601  37.641  14.660   7.950
 5459POPC   C4B29602  37.673  14.697   7.650
 5460POPC   NC329603  15.193  13.586   9.450
 5460POPC   PO429604  15.136  13.658   9.150
 5460POPC   GL129605  15.199  13.668   8.850
 5460POPC   GL229606  15.099  13.691   8.850
 5460POPC   C1A29607  15.145  13.623   8.550
 5460POPC   D2A29608  15.159  13.644   8.250
 5460POPC   C3A29609  15.159  13.604   7.950
 5460POPC   C4A29610  15.185  13.605   7.650
 5460POPC   C1B29611  15.042  13.818   8.550
 5460POPC   C2B29612  15.056  13.838   8.250
 5460POPC   C3B29613  15.008  13.863   7.950
 5460POPC   C4B29614  15.033  13.837   7.650
 5461POPC   NC329615  37.665  36.932   9.450
 5461POPC   PO429616  37.702  36.934   9.150
 5461POPC   GL129617  37.697  36.918   8.850
 5461POPC   GL229618  37.525  36.977   8.850
 5461POPC   C1A29619  37.688  36.863   8.550
 5461POPC   D2A29620  37.642  36.947   8.250
 5461POPC   C3A29621  37.649  36.931   7.950
 5461POPC   C4A29622  37.635  36.898   7.650
 5461POPC   C1B29623  37.431  37.008   8.550
 5461POPC   C2B29624  37.488  37.025   8.250
 5461POPC   C3B29625  37.426  37.001   7.950
 5461POPC   C4B29626  37.446  36.950   7.650
 5462POPC   NC329627   7.408  31.461   9.450
 5462POPC   PO429628   7.396  31.491   9.150
 5462POPC   GL129629   7.406  31.521   8.850
 5462POPC   GL229630   7.296  31.365   8.850
 5462POPC   C1A29631   7.470  31.485   8.550
 5462POPC   D2A29632   7.467  31.464   8.250
 5462POPC   C3A29633   7.437  31.447   7.950
 5462POPC   C4A29634   7.411  31.485   7.650
 5462POPC   C1B29635   7.245  31.313   8.550
 5462POPC   C2B29636   7.277  31.230   8.250
 5462POPC   C3B29637   7.286  31.266   7.950
 5462POPC   C4B29638   7.306  31.320   7.650
 5463POPC   NC329639  26.061  35.310   9.450
 5463POPC   PO429640  26.005  35.326   9.150
 5463POPC   GL129641  26.040  35.370   8.850
 5463POPC   GL229642  26.133  35.500   8.850
 5463POPC   C1A29643  26.017  35.361   8.550
 5463POPC   D2A29644  26.016  35.387   8.250
 5463POPC   C3A29645  26.071  35.370   7.950
 5463POPC   C4A29646  26.021  35.373   7.650
 5463POPC   C1B29647  26.205  35.580   8.550
 5463POPC   C2B29648  26.232  35.528   8.250
 5463POPC   C3B29649  26.164  35.591   7.950
 5463POPC   C4B29650  26.217  35.576   7.650
 5464POPC   NC329651  21.352  44.642   9.450
 5464POPC   PO429652  21.350  44.671   9.150
 5464POPC   GL129653  21.391  44.702   8.850
 5464POPC   GL229654  21.286  44.779   8.850
 5464POPC   C1A29655  21.434  44.633   8.550
 5464POPC   D2A29656  21.419  44.624   8.250
 5464POPC   C3A29657  21.391  44.689   7.950
 5464POPC   C4A29658  21.422  44.683   7.650
 5464POPC   C1B29659  21.281  44.925   8.550
 5464POPC   C2B29660  21.243  44.891   8.250
 5464POPC   C3B29661  21.244  44.904   7.950
 5464POPC   C4B29662  21.324  44.841   7.650
 5465POPC   NC329663  22.167  16.698   9.450
 5465POPC   PO429664  22.154  16.749   9.150
 5465POPC   GL129665  22.199  16.714   8.850
 5465POPC   GL229666  22.214  16.580   8.850
 5465POPC   C1A29667  22.170  16.766   8.550
 5465POPC   D2A29668  22.208  16.732   8.250
 5465POPC   C3A29669  22.128  16.759   7.950
 5465POPC   C4A29670  22.170  16.737   7.650
 5465POPC   C1B29671  22.203  16.441   8.550
 5465POPC   C2B29672  22.201  16.508   8.250
 5465POPC   C3B29673  22.222  16.516   7.950
 5465POPC   C4B29674  22.177  16.498   7.650
 5466POPC   NC329675   6.606  10.476   9.450
 5466POPC   PO429676   6.597  10.516   9.150
 5466POPC   GL129677   6.685  10.566   8.850
 5466POPC   GL229678   6.748  10.476   8.850
 5466POPC   C1A29679   6.680  10.527   8.550
 5466POPC   D2A29680   6.695  10.525   8.250
 5466POPC   C3A29681   6.643  10.508   7.950
 5466POPC   C4A29682   6.632  10.484   7.650
 5466POPC   C1B29683   6.810  10.296   8.550
 5466POPC   C2B29684   6.767  10.319   8.250
 5466POPC   C3B29685   6.774  10.314   7.950
 5466POPC   C4B29686   6.810  10.369   7.650
 5467POPC   NC329687   2.018  33.789   9.450
 5467POPC   PO429688   2.038  33.830   9.150
 5467POPC   GL129689   1.998  33.814   8.850
 5467POPC   GL229690   1.934  33.886   8.850
 5467POPC   C1A29691   1.988  33.819   8.550
 5467POPC   D2A29692   2.000  33.810   8.250
 5467POPC   C3A29693   1.992  33.815   7.950
 5467POPC   C4A29694   1.965  33.765   7.650
 5467POPC   C1B29695   1.924  34.016   8.550
 5467POPC   C2B29696   1.939  34.093   8.250
 5467POPC   C3B29697   1.989  34.052   7.950
 5467POPC   C4B29698   1.947  34.068   7.650
 5468POPC   NC329699  23.719   2.036   9.450
 5468POPC   PO429700  23.756   2.013   9.150
 5468POPC   GL129701  23.686   2.000   8.850
 5468POPC   GL229702  23.831   1.978   8.850
 5468POPC   C1A29703  23.739   1.946   8.550
 5468POPC   D2A29704  23.741   2.022   8.250
 5468POPC   C3A29705  23.666   1.955   7.950
 5468POPC   C4A29706  23.723   1.971   7.650
 5468POPC   C1B29707  23.949   1.939   8.550
 5468POPC   C2B29708  23.959   1.945   8.250
 5468POPC   C3B29709  23.962   1.927   7.950
 5468POPC   C4B29710  23.960   1.921   7.650
 5469POPC   NC329711  15.154   5.113   9.450
 5469POPC   PO429712  15.183   5.070   9.150
 5469POPC   GL129713  15.214   5.132   8.850
 5469POPC   GL229714  15.075   5.086   8.850
 5469POPC   C1A29715  15.170   5.107   8.550
 5469POPC   D2A29716  15.223   5.083   8.250
 5469POPC   C3A29717  15.170   5.134   7.950
 5469POPC   C4A29718  15.142   5.073   7.650
 5469POPC   C1B29719  14.919   5.043   8.550
 5469POPC   C2B29720  14.988   4.995   8.250
 5469POPC   C3B29721  14.956   5.017   7.950
 5469POPC   C4B29722  14.899   5.052   7.650
 5470POPC   NC329723  41.523   3.493   9.450
 5470POPC   PO429724  41.543   3.516   9.150
 5470POPC   GL129725  41.531   3.494   8.850
 5470POPC   GL229726  41.656   3.538   8.850
 5470POPC   C1A29727  41.539   3.511   8.550
 5470POPC   D2A29728  41.554   3.534   8.250
 5470POPC   C3A29729  41.579   3.585   7.950
 5470POPC   C4A29730  41.562   3.497   7.650
 5470POPC   C1B29731  41.798   3.521   8.550
 5470POPC   C2B29732  41.824   3.536   8.250
 5470POPC   C3B29733  41.790   3.482   7.950
 5470POPC   C4B29734  41.838   3.473   7.650
 5471POPC   NC329735   2.760  22.175   9.450
 5471POPC   PO429736   2.761  22.198   9.150
 5471POPC   GL129737   2.802  22.150   8.850
 5471POPC   GL229738   2.862  22.048   8.850
 5471POPC   C1A29739   2.784  22.148   8.550
 5471POPC   D2A29740   2.768  22.151   8.250
 5471POPC   C3A29741   2.784  22.205   7.950
 5471POPC   C4A29742   2.760  22.212   7.650
 5471POPC   C1B29743   2.887  21.973   8.550
 5471POPC   C2B29744   2.852  21.899   8.250
 5471POPC   C3B29745   2.858  21.949   7.950
 5471POPC   C4B29746   2.824  21.927   7.650
 5472POPC   NC329747  40.010  29.154   9.450
 5472POPC   PO429748  40.012  29.116   9.150
 5472POPC   GL129749  39.972  29.158   8.850
 5472POPC   GL229750  39.957  29.074   8.850
 5472POPC   C1A29751  39.961  29.139   8.550
 5472POPC   D2A29752  39.970  29.163   8.250
 5472POPC   C3A29753  39.963  29.114   7.950
 5472POPC   C4A29754  40.051  29.157   7.650
 5472POPC   C1B29755  39.944  28.964   8.550
 5472POPC   C2B29756  39.886  28.945   8.250
 5472POPC   C3B29757  39.923  28.898   7.950
 5472POPC   C4B29758  39.861  28.956   7.650
 5473POPC   NC329759  32.261   2.788   9.450
 5473POPC   PO429760  32.274   2.759   9.150
 5473POPC   GL129761  32.294   2.762   8.850
 5473POPC   GL229762  32.079   2.699   8.850
 5473POPC   C1A29763  32.295   2.815   8.550
 5473POPC   D2A29764  32.234   2.801   8.250
 5473POPC   C3A29765  32.202   2.796   7.950
 5473POPC   C4A29766  32.223   2.811   7.650
 5473POPC   C1B29767  32.048   2.712   8.550
 5473POPC   C2B29768  32.000   2.676   8.250
 5473POPC   C3B29769  32.041   2.707   7.950
 5473POPC   C4B29770  31.956   2.662   7.650
 5474POPC   NC329771  41.590  32.294   9.450
 5474POPC   PO429772  41.594  32.206   9.150
 5474POPC   GL129773  41.583  32.208   8.850
 5474POPC   GL229774  41.629  32.144   8.850
 5474POPC   C1A29775  41.574  32.291   8.550
 5474POPC   D2A29776  41.590  32.261   8.250
 5474POPC   C3A29777  41.595  32.213   7.950
 5474POPC   C4A29778  41.550  32.241   7.650
 5474POPC   C1B29779  41.648  32.012   8.550
 5474POPC   C2B29780  41.586  31.952   8.250
 5474POPC   C3B29781  41.569  32.009   7.950
 5474POPC   C4B29782  41.594  31.969   7.650
 5475POPC   NC329783  18.260   0.461   9.450
 5475POPC   PO429784  18.266   0.398   9.150
 5475POPC   GL129785  18.319   0.400   8.850
 5475POPC   GL229786  18.283   0.550   8.850
 5475POPC   C1A29787  18.320   0.426   8.550
 5475POPC   D2A29788  18.266   0.401   8.250
 5475POPC   C3A29789  18.264   0.408   7.950
 5475POPC   C4A29790  18.328   0.391   7.650
 5475POPC   C1B29791  18.359   0.666   8.550
 5475POPC   C2B29792  18.316   0.643   8.250
 5475POPC   C3B29793  18.378   0.726   7.950
 5475POPC   C4B29794  18.309   0.718   7.650
 5476POPC   NC329795  34.597   2.019   9.450
 5476POPC   PO429796  34.593   1.976   9.150
 5476POPC   GL129797  34.588   1.952   8.850
 5476POPC   GL229798  34.664   1.919   8.850
 5476POPC   C1A29799  34.591   1.987   8.550
 5476POPC   D2A29800  34.612   1.994   8.250
 5476POPC   C3A29801  34.562   1.992   7.950
 5476POPC   C4A29802  34.558   2.023   7.650
 5476POPC   C1B29803  34.830   1.859   8.550
 5476POPC   C2B29804  34.790   1.913   8.250
 5476POPC   C3B29805  34.844   1.842   7.950
 5476POPC   C4B29806  34.799   1.852   7.650
 5477POPC   NC329807   9.788  29.182   9.450
 5477POPC   PO429808   9.766  29.108   9.150
 5477POPC   GL129809   9.791  29.176   8.850
 5477POPC   GL229810   9.866  29.155   8.850
 5477POPC   C1A29811   9.713  29.099   8.550
 5477POPC   D2A29812   9.769  29.155   8.250
 5477POPC   C3A29813   9.792  29.173   7.950
 5477POPC   C4A29814   9.720  29.173   7.650
 5477POPC   C1B29815   9.984  29.226   8.550
 5477POPC   C2B29816   9.989  29.257   8.250
 5477POPC   C3B29817  10.035  29.176   7.950
 5477POPC   C4B29818  10.033  29.256   7.650
 5478POPC   NC329819  33.812   1.211   9.450
 5478POPC   PO429820  33.808   1.248   9.150
 5478POPC   GL129821  33.793   1.175   8.850
 5478POPC   GL229822  33.793   1.112   8.850
 5478POPC   C1A29823  33.839   1.246   8.550
 5478POPC   D2A29824  33.817   1.238   8.250
 5478POPC   C3A29825  33.802   1.172   7.950
 5478POPC   C4A29826  33.771   1.230   7.650
 5478POPC   C1B29827  33.757   0.974   8.550
 5478POPC   C2B29828  33.757   0.926   8.250
 5478POPC   C3B29829  33.792   0.995   7.950
 5478POPC   C4B29830  33.725   0.934   7.650
 5479POPC   NC329831  27.585  11.346   9.450
 5479POPC   PO429832  27.603  11.304   9.150
 5479POPC   GL129833  27.631  11.251   8.850
 5479POPC   GL229834  27.594  11.210   8.850
 5479POPC   C1A29835  27.635  11.313   8.550
 5479POPC   D2A29836  27.552  11.280   8.250
 5479POPC   C3A29837  27.560  11.349   7.950
 5479POPC   C4A29838  27.623  11.273   7.650
 5479POPC   C1B29839  27.661  11.089   8.550
 5479POPC   C2B29840  27.660  11.012   8.250
 5479POPC   C3B29841  27.658  11.034   7.950
 5479POPC   C4B29842  27.565  11.037   7.650
 5480POPC   NC329843   6.595  35.349   9.450
 5480POPC   PO429844   6.604  35.392   9.150
 5480POPC   GL129845   6.638  35.341   8.850
 5480POPC   GL229846   6.770  35.475   8.850
 5480POPC   C1A29847   6.659  35.319   8.550
 5480POPC   D2A29848   6.692  35.315   8.250
 5480POPC   C3A29849   6.647  35.341   7.950
 5480POPC   C4A29850   6.625  35.337   7.650
 5480POPC   C1B29851   6.792  35.489   8.550
 5480POPC   C2B29852   6.804  35.543   8.250
 5480POPC   C3B29853   6.768  35.494   7.950
 5480POPC   C4B29854   6.806  35.558   7.650
 5481POPC   NC329855  15.949  35.401   9.450
 5481POPC   PO429856  15.943  35.332   9.150
 5481POPC   GL129857  15.938  35.318   8.850
 5481POPC   GL229858  15.928  35.416   8.850
 5481POPC   C1A29859  15.963  35.326   8.550
 5481POPC   D2A29860  15.918  35.388   8.250
 5481POPC   C3A29861  15.968  35.348   7.950
 5481POPC   C4A29862  15.946  35.313   7.650
 5481POPC   C1B29863  15.873  35.590   8.550
 5481POPC   C2B29864  15.788  35.549   8.250
 5481POPC   C3B29865  15.849  35.610   7.950
 5481POPC   C4B29866  15.836  35.605   7.650
 5482POPC   NC329867  36.093  32.294   9.450
 5482POPC   PO429868  36.169  32.251   9.150
 5482POPC   GL129869  36.122  32.242   8.850
 5482POPC   GL229870  36.181  32.355   8.850
 5482POPC   C1A29871  36.097  32.257   8.550
 5482POPC   D2A29872  36.118  32.208   8.250
 5482POPC   C3A29873  36.087  32.283   7.950
 5482POPC   C4A29874  36.154  32.257   7.650
 5482POPC   C1B29875  36.148  32.538   8.550
 5482POPC   C2B29876  36.125  32.459   8.250
 5482POPC   C3B29877  36.107  32.492   7.950
 5482POPC   C4B29878  36.117  32.547   7.650
 5483POPC   NC329879   6.652  19.831   9.450
 5483POPC   PO429880   6.607  19.794   9.150
 5483POPC   GL129881   6.637  19.866   8.850
 5483POPC   GL229882   6.568  19.963   8.850
 5483POPC   C1A29883   6.684  19.884   8.550
 5483POPC   D2A29884   6.629  19.873   8.250
 5483POPC   C3A29885   6.621  19.798   7.950
 5483POPC   C4A29886   6.677  19.850   7.650
 5483POPC   C1B29887   6.484  19.964   8.550
 5483POPC   C2B29888   6.502  20.013   8.250
 5483POPC   C3B29889   6.423  19.989   7.950
 5483POPC   C4B29890   6.470  20.027   7.650
 5484POPC   NC329891  13.646  12.056   9.450
 5484POPC   PO429892  13.633  12.105   9.150
 5484POPC   GL129893  13.589  12.120   8.850
 5484POPC   GL229894  13.725  12.120   8.850
 5484POPC   C1A29895  13.634  12.047   8.550
 5484POPC   D2A29896  13.652  12.122   8.250
 5484POPC   C3A29897  13.617  12.081   7.950
 5484POPC   C4A29898  13.674  12.057   7.650
 5484POPC   C1B29899  13.869  12.228   8.550
 5484POPC   C2B29900  13.875  12.194   8.250
 5484POPC   C3B29901  13.808  12.150   7.950
 5484POPC   C4B29902  13.882  12.232   7.650
 5485POPC   NC329903   2.007  35.302   9.450
 5485POPC   PO429904   1.941  35.394   9.150
 5485POPC   GL129905   1.971  35.366   8.850
 5485POPC   GL229906   2.039  35.267   8.850
 5485POPC   C1A29907   2.037  35.325   8.550
 5485POPC   D2A29908   2.016  35.322   8.250
 5485POPC   C3A29909   2.032  35.368   7.950
 5485POPC   C4A29910   1.985  35.328   7.650
 5485POPC   C1B29911   2.088  35.088   8.550
 5485POPC   C2B29912   2.075  35.096   8.250
 5485POPC   C3B29913   2.067  35.116   7.950
 5485POPC   C4B29914   2.126  35.132   7.650
 5486POPC   NC329915  31.435   7.430   9.450
 5486POPC   PO429916  31.512   7.447   9.150
 5486POPC   GL129917  31.427   7.377   8.850
 5486POPC   GL229918  31.390   7.359   8.850
 5486POPC   C1A29919  31.466   7.461   8.550
 5486POPC   D2A29920  31.448   7.448   8.250
 5486POPC   C3A29921  31.490   7.407   7.950
 5486POPC   C4A29922  31.510   7.417   7.650
 5486POPC   C1B29923  31.242   7.427   8.550
 5486POPC   C2B29924  31.181   7.424   8.250
 5486POPC   C3B29925  31.208   7.420   7.950
 5486POPC   C4B29926  31.212   7.378   7.650
 5487POPC   NC329927   1.971  33.057   9.450
 5487POPC   PO429928   2.037  33.053   9.150
 5487POPC   GL129929   2.015  33.036   8.850
 5487POPC   GL229930   1.956  32.897   8.850
 5487POPC   C1A29931   2.037  33.004   8.550
 5487POPC   D2A29932   1.953  33.003   8.250
 5487POPC   C3A29933   2.027  33.010   7.950
 5487POPC   C4A29934   2.004  32.995   7.650
 5487POPC   C1B29935   1.935  32.762   8.550
 5487POPC   C2B29936   1.921  32.786   8.250
 5487POPC   C3B29937   1.890  32.776   7.950
 5487POPC   C4B29938   1.892  32.828   7.650
 5488POPC   NC329939  36.884  10.518   9.450
 5488POPC   PO429940  36.885  10.499   9.150
 5488POPC   GL129941  36.905  10.527   8.850
 5488POPC   GL229942  36.935  10.594   8.850
 5488POPC   C1A29943  36.901  10.498   8.550
 5488POPC   D2A29944  36.898  10.553   8.250
 5488POPC   C3A29945  36.953  10.564   7.950
 5488POPC   C4A29946  36.895  10.540   7.650
 5488POPC   C1B29947  36.974  10.738   8.550
 5488POPC   C2B29948  37.021  10.761   8.250
 5488POPC   C3B29949  36.997  10.800   7.950
 5488POPC   C4B29950  37.011  10.775   7.650
 5489POPC   NC329951  13.667  22.954   9.450
 5489POPC   PO429952  13.595  22.972   9.150
 5489POPC   GL129953  13.623  22.950   8.850
 5489POPC   GL229954  13.693  23.028   8.850
 5489POPC   C1A29955  13.662  22.955   8.550
 5489POPC   D2A29956  13.612  22.960   8.250
 5489POPC   C3A29957  13.593  22.949   7.950
 5489POPC   C4A29958  13.665  22.902   7.650
 5489POPC   C1B29959  13.744  23.206   8.550
 5489POPC   C2B29960  13.773  23.135   8.250
 5489POPC   C3B29961  13.736  23.210   7.950
 5489POPC   C4B29962  13.734  23.196   7.650
 5490POPC   NC329963  43.910  43.908   9.450
 5490POPC   PO429964  43.897  43.917   9.150
 5490POPC   GL129965  43.856  43.864   8.850
 5490POPC   GL229966  43.987  43.829   8.850
 5490POPC   C1A29967  43.895  43.869   8.550
 5490POPC   D2A29968  43.899  43.927   8.250
 5490POPC   C3A29969  43.900  43.851   7.950
 5490POPC   C4A29970  43.870  43.906   7.650
 5490POPC   C1B29971  44.099  43.821   8.550
 5490POPC   C2B29972  44.147  43.794   8.250
 5490POPC   C3B29973  44.081  43.771   7.950
 5490POPC   C4B29974  44.087  43.809   7.650
 5491POPC   NC329975  41.551  28.333   9.450
 5491POPC   PO429976  41.553  28.405   9.150
 5491POPC   GL129977  41.527  28.376   8.850
 5491POPC   GL229978  41.671  28.260   8.850
 5491POPC   C1A29979  41.514  28.368   8.550
 5491POPC   D2A29980  41.587  28.339   8.250
 5491POPC   C3A29981  41.552  28.348   7.950
 5491POPC   C4A29982  41.538  28.366   7.650
 5491POPC   C1B29983  41.693  28.141   8.550
 5491POPC   C2B29984  41.678  28.203   8.250
 5491POPC   C3B29985  41.706  28.145   7.950
 5491POPC   C4B29986  41.742  28.175   7.650
 5492POPC   NC329987  40.035  41.589   9.450
 5492POPC   PO429988  39.967  41.601   9.150
 5492POPC   GL129989  40.044  41.599   8.850
 5492POPC   GL229990  40.042  41.425   8.850
 5492POPC   C1A29991  40.046  41.538   8.550
 5492POPC   D2A29992  39.971  41.585   8.250
 5492POPC   C3A29993  39.991  41.529   7.950
 5492POPC   C4A29994  40.022  41.588   7.650
 5492POPC   C1B29995  40.088  41.290   8.550
 5492POPC   C2B29996  40.061  41.323   8.250
 5492POPC   C3B29997  40.032  41.346   7.950
 5492POPC   C4B29998  40.027  41.284   7.650
 5493POPC   NC329999   0.417  23.731   9.450
 5493POPC   PO430000   0.464  23.716   9.150
 5493POPC   GL130001   0.463  23.754   8.850
 5493POPC   GL230002   0.508  23.624   8.850
 5493POPC   C1A30003   0.429  23.740   8.550
 5493POPC   D2A30004   0.419  23.689   8.250
 5493POPC   C3A30005   0.441  23.742   7.950
 5493POPC   C4A30006   0.447  23.762   7.650
 5493POPC   C1B30007   0.699  23.584   8.550
 5493POPC   C2B30008   0.690  23.597   8.250
 5493POPC   C3B30009   0.630  23.639   7.950
 5493POPC   C4B30010   0.691  23.592   7.650
 5494POPC   NC330011  18.331   7.424   9.450
 5494POPC   PO430012  18.236   7.377   9.150
 5494POPC   GL130013  18.332   7.443   8.850
 5494POPC   GL230014  18.324   7.296   8.850
 5494POPC   C1A30015  18.258   7.453   8.550
 5494POPC   D2A30016  18.293   7.463   8.250
 5494POPC   C3A30017  18.309   7.404   7.950
 5494POPC   C4A30018  18.245   7.404   7.650
 5494POPC   C1B30019  18.402   7.208   8.550
 5494POPC   C2B30020  18.356   7.184   8.250
 5494POPC   C3B30021  18.370   7.230   7.950
 5494POPC   C4B30022  18.394   7.163   7.650
 5495POPC   NC330023   9.770  39.221   9.450
 5495POPC   PO430024   9.752  39.188   9.150
 5495POPC   GL130025   9.715  39.266   8.850
 5495POPC   GL230026   9.680  39.356   8.850
 5495POPC   C1A30027   9.797  39.270   8.550
 5495POPC   D2A30028   9.713  39.268   8.250
 5495POPC   C3A30029   9.764  39.250   7.950
 5495POPC   C4A30030   9.778  39.239   7.650
 5495POPC   C1B30031   9.665  39.499   8.550
 5495POPC   C2B30032   9.635  39.427   8.250
 5495POPC   C3B30033   9.686  39.421   7.950
 5495POPC   C4B30034   9.703  39.506   7.650
 5496POPC   NC330035  11.279  40.748   9.450
 5496POPC   PO430036  11.310  40.824   9.150
 5496POPC   GL130037  11.271  40.752   8.850
 5496POPC   GL230038  11.349  40.905   8.850
 5496POPC   C1A30039  11.324  40.739   8.550
 5496POPC   D2A30040  11.259  40.736   8.250
 5496POPC   C3A30041  11.272  40.827   7.950
 5496POPC   C4A30042  11.349  40.802   7.650
 5496POPC   C1B30043  11.470  41.042   8.550
 5496POPC   C2B30044  11.423  40.969   8.250
 5496POPC   C3B30045  11.393  40.979   7.950
 5496POPC   C4B30046  11.413  41.019   7.650
 5497POPC   NC330047  40.803  17.499   9.450
 5497POPC   PO430048  40.735  17.495   9.150
 5497POPC   GL130049  40.829  17.541   8.850
 5497POPC   GL230050  40.749  17.364   8.850
 5497POPC   C1A30051  40.803  17.517   8.550
 5497POPC   D2A30052  40.817  17.511   8.250
 5497POPC   C3A30053  40.822  17.545   7.950
 5497POPC   C4A30054  40.820  17.471   7.650
 5497POPC   C1B30055  40.815  17.228   8.550
 5497POPC   C2B30056  40.771  17.256   8.250
 5497POPC   C3B30057  40.794  17.224   7.950
 5497POPC   C4B30058  40.757  17.288   7.650
 5498POPC   NC330059  32.200  33.820   9.450
 5498POPC   PO430060  32.247  33.817   9.150
 5498POPC   GL130061  32.210  33.782   8.850
 5498POPC   GL230062  32.171  33.833   8.850
 5498POPC   C1A30063  32.204  33.767   8.550
 5498POPC   D2A30064  32.238  33.785   8.250
 5498POPC   C3A30065  32.262  33.836   7.950
 5498POPC   C4A30066  32.210  33.768   7.650
 5498POPC   C1B30067  32.007  33.969   8.550
 5498POPC   C2B30068  32.077  33.949   8.250
 5498POPC   C3B30069  32.077  33.938   7.950
 5498POPC   C4B30070  32.052  33.983   7.650
 5499POPC   NC330071  40.738  25.216   9.450
 5499POPC   PO430072  40.787  25.291   9.150
 5499POPC   GL130073  40.832  25.231   8.850
 5499POPC   GL230074  40.684  25.344   8.850
 5499POPC   C1A30075  40.744  25.242   8.550
 5499POPC   D2A30076  40.820  25.282   8.250
 5499POPC   C3A30077  40.750  25.241   7.950
 5499POPC   C4A30078  40.765  25.258   7.650
 5499POPC   C1B30079  40.587  25.513   8.550
 5499POPC   C2B30080  40.620  25.493   8.250
 5499POPC   C3B30081  40.630  25.493   7.950
 5499POPC   C4B30082  40.600  25.429   7.650
 5500POPC   NC330083  23.736  19.844   9.450
 5500POPC   PO430084  23.728  19.884   9.150
 5500POPC   GL130085  23.709  19.854   8.850
 5500POPC   GL230086  23.615  19.723   8.850
 5500POPC   C1A30087  23.671  19.844   8.550
 5500POPC   D2A30088  23.718  19.817   8.250
 5500POPC   C3A30089  23.717  19.844   7.950
 5500POPC   C4A30090  23.683  19.877   7.650
 5500POPC   C1B30091  23.608  19.624   8.550
 5500POPC   C2B30092  23.612  19.579   8.250
 5500POPC   C3B30093  23.557  19.613   7.950
 5500POPC   C4B30094  23.551  19.613   7.650
 5501POPC   NC330095  24.449  23.724   9.450
 5501POPC   PO430096  24.501  23.750   9.150
 5501POPC   GL130097  24.451  23.724   8.850
 5501POPC   GL230098  24.367  23.648   8.850
 5501POPC   C1A30099  24.450  23.728   8.550
 5501POPC   D2A30100  24.505  23.678   8.250
 5501POPC   C3A30101  24.491  23.759   7.950
 5501POPC   C4A30102  24.525  23.737   7.650
 5501POPC   C1B30103  24.305  23.502   8.550
 5501POPC   C2B30104  24.295  23.491   8.250
 5501POPC   C3B30105  24.268  23.492   7.950
 5501POPC   C4B30106  24.318  23.575   7.650
 5502POPC   NC330107   1.237   5.058   9.450
 5502POPC   PO430108   1.237   5.121   9.150
 5502POPC   GL130109   1.177   5.108   8.850
 5502POPC   GL230110   1.152   5.170   8.850
 5502POPC   C1A30111   1.221   5.091   8.550
 5502POPC   D2A30112   1.237   5.049   8.250
 5502POPC   C3A30113   1.255   5.095   7.950
 5502POPC   C4A30114   1.166   5.107   7.650
 5502POPC   C1B30115   1.050   5.263   8.550
 5502POPC   C2B30116   0.983   5.212   8.250
 5502POPC   C3B30117   1.032   5.258   7.950
 5502POPC   C4B30118   1.009   5.206   7.650
 5503POPC   NC330119   1.228  28.338   9.450
 5503POPC   PO430120   1.203  28.351   9.150
 5503POPC   GL130121   1.224  28.370   8.850
 5503POPC   GL230122   1.215  28.239   8.850
 5503POPC   C1A30123   1.182  28.370   8.550
 5503POPC   D2A30124   1.205  28.338   8.250
 5503POPC   C3A30125   1.252  28.341   7.950
 5503POPC   C4A30126   1.173  28.379   7.650
 5503POPC   C1B30127   1.234  28.123   8.550
 5503POPC   C2B30128   1.234  28.132   8.250
 5503POPC   C3B30129   1.296  28.123   7.950
 5503POPC   C4B30130   1.233  28.130   7.650
 5504POPC   NC330131  36.927  20.603   9.450
 5504POPC   PO430132  36.915  20.630   9.150
 5504POPC   GL130133  36.909  20.585   8.850
 5504POPC   GL230134  36.816  20.655   8.850
 5504POPC   C1A30135  36.885  20.625   8.550
 5504POPC   D2A30136  36.948  20.613   8.250
 5504POPC   C3A30137  36.912  20.571   7.950
 5504POPC   C4A30138  36.886  20.649   7.650
 5504POPC   C1B30139  36.650  20.767   8.550
 5504POPC   C2B30140  36.657  20.779   8.250
 5504POPC   C3B30141  36.651  20.742   7.950
 5504POPC   C4B30142  36.673  20.729   7.650
 5505POPC   NC330143  40.038  19.089   9.450
 5505POPC   PO430144  39.990  19.046   9.150
 5505POPC   GL130145  39.969  19.020   8.850
 5505POPC   GL230146  40.073  18.936   8.850
 5505POPC   C1A30147  40.021  19.077   8.550
 5505POPC   D2A30148  40.004  19.013   8.250
 5505POPC   C3A30149  40.031  19.036   7.950
 5505POPC   C4A30150  40.055  19.094   7.650
 5505POPC   C1B30151  40.151  18.881   8.550
 5505POPC   C2B30152  40.199  18.906   8.250
 5505POPC   C3B30153  40.180  18.933   7.950
 5505POPC   C4B30154  40.168  18.908   7.650
 5506POPC   NC330155  38.432  23.726   9.450
 5506POPC   PO430156  38.417  23.754   9.150
 5506POPC   GL130157  38.407  23.718   8.850
 5506POPC   GL230158  38.453  23.612   8.850
 5506POPC   C1A30159  38.421  23.756   8.550
 5506POPC   D2A30160  38.470  23.666   8.250
 5506POPC   C3A30161  38.452  23.680   7.950
 5506POPC   C4A30162  38.474  23.697   7.650
 5506POPC   C1B30163  38.418  23.481   8.550
 5506POPC   C2B30164  38.377  23.431   8.250
 5506POPC   C3B30165  38.324  23.493   7.950
 5506POPC   C4B30166  38.337  23.510   7.650
 5507POPC   NC330167  44.701  12.856   9.450
 5507POPC   PO430168  44.706  12.888   9.150
 5507POPC   GL130169  44.670  12.864   8.850
 5507POPC   GL230170  44.784  12.963   8.850
 5507POPC   C1A30171  44.656  12.811   8.550
 5507POPC   D2A30172  44.691  12.819   8.250
 5507POPC   C3A30173  44.649  12.830   7.950
 5507POPC   C4A30174  44.662  12.805   7.650
 5507POPC   C1B30175  44.915  12.934   8.550
 5507POPC   C2B30176  44.858  12.989   8.250
 5507POPC   C3B30177  44.876  12.981   7.950
 5507POPC   C4B30178  44.859  13.012   7.650
 5508POPC   NC330179  38.449  34.590   9.450
 5508POPC   PO430180  38.443  34.561   9.150
 5508POPC   GL130181  38.492  34.547   8.850
 5508POPC   GL230182  38.425  34.654   8.850
 5508POPC   C1A30183  38.405  34.539   8.550
 5508POPC   D2A30184  38.496  34.580   8.250
 5508POPC   C3A30185  38.415  34.610   7.950
 5508POPC   C4A30186  38.450  34.578   7.650
 5508POPC   C1B30187  38.324  34.746   8.550
 5508POPC   C2B30188  38.331  34.781   8.250
 5508POPC   C3B30189  38.294  34.776   7.950
 5508POPC   C4B30190  38.320  34.816   7.650
 5509POPC   NC330191   6.601  33.804   9.450
 5509POPC   PO430192   6.641  33.845   9.150
 5509POPC   GL130193   6.627  33.757   8.850
 5509POPC   GL230194   6.721  33.963   8.850
 5509POPC   C1A30195   6.680  33.788   8.550
 5509POPC   D2A30196   6.667  33.764   8.250
 5509POPC   C3A30197   6.691  33.751   7.950
 5509POPC   C4A30198   6.632  33.824   7.650
 5509POPC   C1B30199   6.688  33.997   8.550
 5509POPC   C2B30200   6.715  34.084   8.250
 5509POPC   C3B30201   6.719  34.067   7.950
 5509POPC   C4B30202   6.753  34.036   7.650
 5510POPC   NC330203  11.291  39.252   9.450
 5510POPC   PO430204  11.313  39.254   9.150
 5510POPC   GL130205  11.340  39.248   8.850
 5510POPC   GL230206  11.379  39.181   8.850
 5510POPC   C1A30207  11.321  39.195   8.550
 5510POPC   D2A30208  11.343  39.213   8.250
 5510POPC   C3A30209  11.307  39.191   7.950
 5510POPC   C4A30210  11.346  39.190   7.650
 5510POPC   C1B30211  11.493  39.099   8.550
 5510POPC   C2B30212  11.465  39.019   8.250
 5510POPC   C3B30213  11.497  39.010   7.950
 5510POPC   C4B30214  11.512  39.069   7.650
 5511POPC   NC330215  11.297  14.385   9.450
 5511POPC   PO430216  11.254  14.404   9.150
 5511POPC   GL130217  11.314  14.357   8.850
 5511POPC   GL230218  11.293  14.234   8.850
 5511POPC   C1A30219  11.285  14.397   8.550
 5511POPC   D2A30220  11.282  14.409   8.250
 5511POPC   C3A30221  11.296  14.419   7.950
 5511POPC   C4A30222  11.270  14.448   7.650
 5511POPC   C1B30223  11.317  14.176   8.550
 5511POPC   C2B30224  11.287  14.107   8.250
 5511POPC   C3B30225  11.308  14.188   7.950
 5511POPC   C4B30226  11.288  14.173   7.650
 5512POPC   NC330227  19.860   7.413   9.450
 5512POPC   PO430228  19.806   7.391   9.150
 5512POPC   GL130229  19.788   7.377   8.850
 5512POPC   GL230230  19.920   7.300   8.850
 5512POPC   C1A30231  19.825   7.419   8.550
 5512POPC   D2A30232  19.855   7.429   8.250
 5512POPC   C3A30233  19.838   7.390   7.950
 5512POPC   C4A30234  19.846   7.398   7.650
 5512POPC   C1B30235  19.964   7.230   8.550
 5512POPC   C2B30236  19.903   7.174   8.250
 5512POPC   C3B30237  19.959   7.190   7.950
 5512POPC   C4B30238  19.963   7.236   7.650
 5513POPC   NC330239  15.143   2.804   9.450
 5513POPC   PO430240  15.172   2.730   9.150
 5513POPC   GL130241  15.185   2.719   8.850
 5513POPC   GL230242  15.187   2.924   8.850
 5513POPC   C1A30243  15.149   2.747   8.550
 5513POPC   D2A30244  15.180   2.770   8.250
 5513POPC   C3A30245  15.228   2.794   7.950
 5513POPC   C4A30246  15.172   2.796   7.650
 5513POPC   C1B30247  15.297   3.001   8.550
 5513POPC   C2B30248  15.282   2.953   8.250
 5513POPC   C3B30249  15.254   2.972   7.950
 5513POPC   C4B30250  15.301   3.014   7.650
 5514POPC   NC330251  15.145  23.759   9.450
 5514POPC   PO430252  15.201  23.696   9.150
 5514POPC   GL130253  15.184  23.745   8.850
 5514POPC   GL230254  15.035  23.750   8.850
 5514POPC   C1A30255  15.220  23.744   8.550
 5514POPC   D2A30256  15.207  23.735   8.250
 5514POPC   C3A30257  15.206  23.679   7.950
 5514POPC   C4A30258  15.224  23.760   7.650
 5514POPC   C1B30259  14.985  23.839   8.550
 5514POPC   C2B30260  14.953  23.855   8.250
 5514POPC   C3B30261  14.969  23.782   7.950
 5514POPC   C4B30262  14.912  23.841   7.650
 5515POPC   NC330263  43.146  13.613   9.450
 5515POPC   PO430264  43.128  13.593   9.150
 5515POPC   GL130265  43.096  13.656   8.850
 5515POPC   GL230266  42.957  13.627   8.850
 5515POPC   C1A30267  43.074  13.622   8.550
 5515POPC   D2A30268  43.155  13.602   8.250
 5515POPC   C3A30269  43.097  13.607   7.950
 5515POPC   C4A30270  43.092  13.603   7.650
 5515POPC   C1B30271  42.846  13.642   8.550
 5515POPC   C2B30272  42.853  13.598   8.250
 5515POPC   C3B30273  42.861  13.636   7.950
 5515POPC   C4B30274  42.857  13.662   7.650
 5516POPC   NC330275   1.212  44.640   9.450
 5516POPC   PO430276   1.194  44.683   9.150
 5516POPC   GL130277   1.224  44.646   8.850
 5516POPC   GL230278   1.258  44.572   8.850
 5516POPC   C1A30279   1.207  44.696   8.550
 5516POPC   D2A30280   1.187  44.689   8.250
 5516POPC   C3A30281   1.176  44.676   7.950
 5516POPC   C4A30282   1.253  44.676   7.650
 5516POPC   C1B30283   1.226  44.440   8.550
 5516POPC   C2B30284   1.180  44.369   8.250
 5516POPC   C3B30285   1.173  44.389   7.950
 5516POPC   C4B30286   1.243  44.397   7.650
 5517POPC   NC330287   2.026   8.246   9.450
 5517POPC   PO430288   1.996   8.234   9.150
 5517POPC   GL130289   1.946   8.199   8.850
 5517POPC   GL230290   1.902   8.149   8.850
 5517POPC   C1A30291   2.032   8.226   8.550
 5517POPC   D2A30292   2.023   8.148   8.250
 5517POPC   C3A30293   2.005   8.193   7.950
 5517POPC   C4A30294   1.954   8.232   7.650
 5517POPC   C1B30295   1.771   8.041   8.550
 5517POPC   C2B30296   1.826   8.024   8.250
 5517POPC   C3B30297   1.787   8.063   7.950
 5517POPC   C4B30298   1.836   7.995   7.650
 5518POPC   NC330299  30.722  40.789   9.450
 5518POPC   PO430300  30.671  40.755   9.150
 5518POPC   GL130301  30.719  40.760   8.850
 5518POPC   GL230302  30.809  40.732   8.850
 5518POPC   C1A30303  30.662  40.756   8.550
 5518POPC   D2A30304  30.700  40.778   8.250
 5518POPC   C3A30305  30.668  40.737   7.950
 5518POPC   C4A30306  30.718  40.788   7.650
 5518POPC   C1B30307  30.910  40.669   8.550
 5518POPC   C2B30308  30.941  40.639   8.250
 5518POPC   C3B30309  30.907  40.674   7.950
 5518POPC   C4B30310  30.927  40.632   7.650
 5519POPC   NC330311  11.341  37.639   9.450
 5519POPC   PO430312  11.319  37.651   9.150
 5519POPC   GL130313  11.302  37.692   8.850
 5519POPC   GL230314  11.420  37.589   8.850
 5519POPC   C1A30315  11.317  37.639   8.550
 5519POPC   D2A30316  11.308  37.640   8.250
 5519POPC   C3A30317  11.268  37.663   7.950
 5519POPC   C4A30318  11.323  37.662   7.650
 5519POPC   C1B30319  11.435  37.508   8.550
 5519POPC   C2B30320  11.512  37.521   8.250
 5519POPC   C3B30321  11.454  37.505   7.950
 5519POPC   C4B30322  11.476  37.490   7.650
 5520POPC   NC330323   6.669  19.074   9.450
 5520POPC   PO430324   6.649  19.009   9.150
 5520POPC   GL130325   6.643  19.101   8.850
 5520POPC   GL230326   6.769  19.077   8.850
 5520POPC   C1A30327   6.651  19.094   8.550
 5520POPC   D2A30328   6.610  19.056   8.250
 5520POPC   C3A30329   6.636  19.016   7.950
 5520POPC   C4A30330   6.618  19.060   7.650
 5520POPC   C1B30331   6.905  19.112   8.550
 5520POPC   C2B30332   6.877  19.131   8.250
 5520POPC   C3B30333   6.850  19.068   7.950
 5520POPC   C4B30334   6.933  19.101   7.650
 5521POPC   NC330335  42.379  19.014   9.450
 5521POPC   PO430336  42.303  19.033   9.150
 5521POPC   GL130337  42.330  19.107   8.850
 5521POPC   GL230338  42.227  19.035   8.850
 5521POPC   C1A30339  42.373  19.024   8.550
 5521POPC   D2A30340  42.323  19.063   8.250
 5521POPC   C3A30341  42.350  19.070   7.950
 5521POPC   C4A30342  42.384  19.040   7.650
 5521POPC   C1B30343  42.035  19.047   8.550
 5521POPC   C2B30344  42.128  19.048   8.250
 5521POPC   C3B30345  42.064  19.052   7.950
 5521POPC   C4B30346  42.084  19.057   7.650
 5522POPC   NC330347  17.507   5.094   9.450
 5522POPC   PO430348  17.459   5.124   9.150
 5522POPC   GL130349  17.481   5.056   8.850
 5522POPC   GL230350  17.624   5.056   8.850
 5522POPC   C1A30351  17.484   5.120   8.550
 5522POPC   D2A30352  17.533   5.086   8.250
 5522POPC   C3A30353  17.530   5.080   7.950
 5522POPC   C4A30354  17.534   5.057   7.650
 5522POPC   C1B30355  17.721   5.093   8.550
 5522POPC   C2B30356  17.721   5.066   8.250
 5522POPC   C3B30357  17.752   5.009   7.950
 5522POPC   C4B30358  17.789   5.019   7.650
 5523POPC   NC330359   1.197  43.838   9.450
 5523POPC   PO430360   1.256  43.885   9.150
 5523POPC   GL130361   1.174  43.868   8.850
 5523POPC   GL230362   1.081  43.839   8.850
 5523POPC   C1A30363   1.191  43.855   8.550
 5523POPC   D2A30364   1.231  43.920   8.250
 5523POPC   C3A30365   1.207  43.925   7.950
 5523POPC   C4A30366   1.246  43.848   7.650
 5523POPC   C1B30367   0.959  43.894   8.550
 5523POPC   C2B30368   0.999  43.876   8.250
 5523POPC   C3B30369   0.971  43.835   7.950
 5523POPC   C4B30370   0.952  43.842   7.650
 5524POPC   NC330371  18.330  22.971   9.450
 5524POPC   PO430372  18.286  22.903   9.150
 5524POPC   GL130373  18.315  22.973   8.850
 5524POPC   GL230374  18.424  22.980   8.850
 5524POPC   C1A30375  18.300  22.965   8.550
 5524POPC   D2A30376  18.324  22.912   8.250
 5524POPC   C3A30377  18.236  22.960   7.950
 5524POPC   C4A30378  18.313  22.984   7.650
 5524POPC   C1B30379  18.499  23.110   8.550
 5524POPC   C2B30380  18.450  23.061   8.250
 5524POPC   C3B30381  18.526  23.074   7.950
 5524POPC   C4B30382  18.485  23.069   7.650
 5525POPC   NC330383  23.684  38.447   9.450
 5525POPC   PO430384  23.722  38.419   9.150
 5525POPC   GL130385  23.713  38.490   8.850
 5525POPC   GL230386  23.830  38.508   8.850
 5525POPC   C1A30387  23.666  38.444   8.550
 5525POPC   D2A30388  23.700  38.410   8.250
 5525POPC   C3A30389  23.758  38.500   7.950
 5525POPC   C4A30390  23.681  38.482   7.650
 5525POPC   C1B30391  23.995  38.439   8.550
 5525POPC   C2B30392  23.998  38.490   8.250
 5525POPC   C3B30393  23.973  38.458   7.950
 5525POPC   C4B30394  23.962  38.499   7.650
 5526POPC   NC330395   7.385  15.962   9.450
 5526POPC   PO430396   7.399  15.905   9.150
 5526POPC   GL130397   7.378  15.929   8.850
 5526POPC   GL230398   7.488  16.070   8.850
 5526POPC   C1A30399   7.414  15.955   8.550
 5526POPC   D2A30400   7.403  15.955   8.250
 5526POPC   C3A30401   7.434  15.934   7.950
 5526POPC   C4A30402   7.422  15.915   7.650
 5526POPC   C1B30403   7.504  16.234   8.550
 5526POPC   C2B30404   7.506  16.161   8.250
 5526POPC   C3B30405   7.449  16.180   7.950
 5526POPC   C4B30406   7.473  16.223   7.650
 5527POPC   NC330407  16.693  23.684   9.450
 5527POPC   PO430408  16.727  23.756   9.150
 5527POPC   GL130409  16.778  23.695   8.850
 5527POPC   GL230410  16.857  23.672   8.850
 5527POPC   C1A30411  16.764  23.740   8.550
 5527POPC   D2A30412  16.732  23.670   8.250
 5527POPC   C3A30413  16.764  23.717   7.950
 5527POPC   C4A30414  16.757  23.757   7.650
 5527POPC   C1B30415  16.892  23.566   8.550
 5527POPC   C2B30416  16.939  23.548   8.250
 5527POPC   C3B30417  16.939  23.575   7.950
 5527POPC   C4B30418  16.892  23.570   7.650
 5528POPC   NC330419  15.165   0.453   9.450
 5528POPC   PO430420  15.191   0.388   9.150
 5528POPC   GL130421  15.175   0.425   8.850
 5528POPC   GL230422  15.173   0.549   8.850
 5528POPC   C1A30423  15.163   0.445   8.550
 5528POPC   D2A30424  15.136   0.459   8.250
 5528POPC   C3A30425  15.204   0.408   7.950
 5528POPC   C4A30426  15.159   0.455   7.650
 5528POPC   C1B30427  15.143   0.638   8.550
 5528POPC   C2B30428  15.156   0.712   8.250
 5528POPC   C3B30429  15.178   0.736   7.950
 5528POPC   C4B30430  15.160   0.726   7.650
 5529POPC   NC330431  42.301  16.769   9.450
 5529POPC   PO430432  42.344  16.722   9.150
 5529POPC   GL130433  42.370  16.781   8.850
 5529POPC   GL230434  42.411  16.625   8.850
 5529POPC   C1A30435  42.318  16.771   8.550
 5529POPC   D2A30436  42.308  16.729   8.250
 5529POPC   C3A30437  42.346  16.765   7.950
 5529POPC   C4A30438  42.293  16.779   7.650
 5529POPC   C1B30439  42.507  16.596   8.550
 5529POPC   C2B30440  42.579  16.635   8.250
 5529POPC   C3B30441  42.532  16.583   7.950
 5529POPC   C4B30442  42.582  16.578   7.650
 5530POPC   NC330443  21.418  18.301   9.450
 5530POPC   PO430444  21.411  18.255   9.150
 5530POPC   GL130445  21.399  18.298   8.850
 5530POPC   GL230446  21.239  18.214   8.850
 5530POPC   C1A30447  21.346  18.270   8.550
 5530POPC   D2A30448  21.384  18.316   8.250
 5530POPC   C3A30449  21.431  18.236   7.950
 5530POPC   C4A30450  21.354  18.275   7.650
 5530POPC   C1B30451  21.173  18.203   8.550
 5530POPC   C2B30452  21.177  18.223   8.250
 5530POPC   C3B30453  21.167  18.159   7.950
 5530POPC   C4B30454  21.195  18.238   7.650
 5531POPC   NC330455  32.265  19.812   9.450
 5531POPC   PO430456  32.271  19.855   9.150
 5531POPC   GL130457  32.209  19.848   8.850
 5531POPC   GL230458  32.144  19.704   8.850
 5531POPC   C1A30459  32.248  19.813   8.550
 5531POPC   D2A30460  32.221  19.860   8.250
 5531POPC   C3A30461  32.264  19.850   7.950
 5531POPC   C4A30462  32.278  19.814   7.650
 5531POPC   C1B30463  32.073  19.680   8.550
 5531POPC   C2B30464  32.125  19.641   8.250
 5531POPC   C3B30465  32.088  19.638   7.950
 5531POPC   C4B30466  32.065  19.596   7.650
 5532POPC   NC330467  11.329   1.985   9.450
 5532POPC   PO430468  11.337   1.991   9.150
 5532POPC   GL130469  11.274   2.019   8.850
 5532POPC   GL230470  11.385   1.903   8.850
 5532POPC   C1A30471  11.320   1.996   8.550
 5532POPC   D2A30472  11.275   1.967   8.250
 5532POPC   C3A30473  11.341   1.954   7.950
 5532POPC   C4A30474  11.252   2.023   7.650
 5532POPC   C1B30475  11.451   1.784   8.550
 5532POPC   C2B30476  11.447   1.776   8.250
 5532POPC   C3B30477  11.445   1.768   7.950
 5532POPC   C4B30478  11.492   1.781   7.650
 5533POPC   NC330479  40.771  12.856   9.450
 5533POPC   PO430480  40.812  12.809   9.150
 5533POPC   GL130481  40.824  12.863   8.850
 5533POPC   GL230482  40.771  12.983   8.850
 5533POPC   C1A30483  40.738  12.841   8.550
 5533POPC   D2A30484  40.754  12.875   8.250
 5533POPC   C3A30485  40.816  12.901   7.950
 5533POPC   C4A30486  40.797  12.815   7.650
 5533POPC   C1B30487  40.832  13.148   8.550
 5533POPC   C2B30488  40.784  13.083   8.250
 5533POPC   C3B30489  40.836  13.060   7.950
 5533POPC   C4B30490  40.779  13.074   7.650
 5534POPC   NC330491  33.051   1.261   9.450
 5534POPC   PO430492  33.061   1.236   9.150
 5534POPC   GL130493  33.038   1.243   8.850
 5534POPC   GL230494  33.148   1.172   8.850
 5534POPC   C1A30495  33.038   1.182   8.550
 5534POPC   D2A30496  33.006   1.254   8.250
 5534POPC   C3A30497  32.977   1.260   7.950
 5534POPC   C4A30498  32.983   1.170   7.650
 5534POPC   C1B30499  33.257   1.104   8.550
 5534POPC   C2B30500  33.235   1.055   8.250
 5534POPC   C3B30501  33.262   1.050   7.950
 5534POPC   C4B30502  33.191   1.013   7.650
 5535POPC   NC330503  43.918  26.022   9.450
 5535POPC   PO430504  43.889  26.077   9.150
 5535POPC   GL130505  43.922  26.013   8.850
 5535POPC   GL230506  43.799  25.894   8.850
 5535POPC   C1A30507  43.912  26.037   8.550
 5535POPC   D2A30508  43.838  26.047   8.250
 5535POPC   C3A30509  43.926  25.994   7.950
 5535POPC   C4A30510  43.843  26.074   7.650
 5535POPC   C1B30511  43.802  25.814   8.550
 5535POPC   C2B30512  43.771  25.838   8.250
 5535POPC   C3B30513  43.803  25.820   7.950
 5535POPC   C4B30514  43.792  25.780   7.650
 5536POPC   NC330515  40.764  26.793   9.450
 5536POPC   PO430516  40.772  26.800   9.150
 5536POPC   GL130517  40.791  26.805   8.850
 5536POPC   GL230518  40.809  26.937   8.850
 5536POPC   C1A30519  40.790  26.835   8.550
 5536POPC   D2A30520  40.831  26.863   8.250
 5536POPC   C3A30521  40.801  26.863   7.950
 5536POPC   C4A30522  40.741  26.793   7.650
 5536POPC   C1B30523  40.903  27.074   8.550
 5536POPC   C2B30524  40.856  27.084   8.250
 5536POPC   C3B30525  40.898  27.026   7.950
 5536POPC   C4B30526  40.933  27.027   7.650
 5537POPC   NC330527   9.735   0.453   9.450
 5537POPC   PO430528   9.714   0.464   9.150
 5537POPC   GL130529   9.750   0.430   8.850
 5537POPC   GL230530   9.887   0.401   8.850
 5537POPC   C1A30531   9.716   0.400   8.550
 5537POPC   D2A30532   9.756   0.431   8.250
 5537POPC   C3A30533   9.720   0.410   7.950
 5537POPC   C4A30534   9.766   0.391   7.650
 5537POPC   C1B30535   9.972   0.419   8.550
 5537POPC   C2B30536   9.967   0.351   8.250
 5537POPC   C3B30537  10.021   0.371   7.950
 5537POPC   C4B30538  10.030   0.406   7.650
 5538POPC   NC330539  36.861  22.972   9.450
 5538POPC   PO430540  36.889  22.962   9.150
 5538POPC   GL130541  36.858  22.931   8.850
 5538POPC   GL230542  36.864  23.007   8.850
 5538POPC   C1A30543  36.867  22.908   8.550
 5538POPC   D2A30544  36.860  22.965   8.250
 5538POPC   C3A30545  36.911  22.947   7.950
 5538POPC   C4A30546  36.933  22.975   7.650
 5538POPC   C1B30547  36.731  23.148   8.550
 5538POPC   C2B30548  36.786  23.171   8.250
 5538POPC   C3B30549  36.772  23.191   7.950
 5538POPC   C4B30550  36.782  23.183   7.650
 5539POPC   NC330551  42.331   2.012   9.450
 5539POPC   PO430552  42.323   1.963   9.150
 5539POPC   GL130553  42.354   2.019   8.850
 5539POPC   GL230554  42.297   2.092   8.850
 5539POPC   C1A30555  42.330   1.945   8.550
 5539POPC   D2A30556  42.333   1.962   8.250
 5539POPC   C3A30557  42.321   1.988   7.950
 5539POPC   C4A30558  42.384   1.957   7.650
 5539POPC   C1B30559  42.234   2.212   8.550
 5539POPC   C2B30560  42.141   2.220   8.250
 5539POPC   C3B30561  42.163   2.208   7.950
 5539POPC   C4B30562  42.150   2.233   7.650
 5540POPC   NC330563  18.315  27.612   9.450
 5540POPC   PO430564  18.284  27.548   9.150
 5540POPC   GL130565  18.267  27.635   8.850
 5540POPC   GL230566  18.314  27.496   8.850
 5540POPC   C1A30567  18.251  27.558   8.550
 5540POPC   D2A30568  18.238  27.562   8.250
 5540POPC   C3A30569  18.280  27.603   7.950
 5540POPC   C4A30570  18.262  27.549   7.650
 5540POPC   C1B30571  18.318  27.317   8.550
 5540POPC   C2B30572  18.269  27.306   8.250
 5540POPC   C3B30573  18.271  27.312   7.950
 5540POPC   C4B30574  18.299  27.393   7.650
 5541POPC   NC330575  16.742  17.540   9.450
 5541POPC   PO430576  16.747  17.471   9.150
 5541POPC   GL130577  16.751  17.539   8.850
 5541POPC   GL230578  16.898  17.553   8.850
 5541POPC   C1A30579  16.729  17.496   8.550
 5541POPC   D2A30580  16.760  17.494   8.250
 5541POPC   C3A30581  16.760  17.468   7.950
 5541POPC   C4A30582  16.687  17.514   7.650
 5541POPC   C1B30583  17.010  17.597   8.550
 5541POPC   C2B30584  17.016  17.578   8.250
 5541POPC   C3B30585  16.996  17.579   7.950
 5541POPC   C4B30586  16.928  17.526   7.650
 5542POPC   NC330587  10.562   2.775   9.450
 5542POPC   PO430588  10.478   2.798   9.150
 5542POPC   GL130589  10.505   2.791   8.850
 5542POPC   GL230590  10.563   2.912   8.850
 5542POPC   C1A30591  10.542   2.734   8.550
 5542POPC   D2A30592  10.572   2.804   8.250
 5542POPC   C3A30593  10.534   2.803   7.950
 5542POPC   C4A30594  10.539   2.800   7.650
 5542POPC   C1B30595  10.525   2.987   8.550
 5542POPC   C2B30596  10.477   3.065   8.250
 5542POPC   C3B30597  10.486   3.049   7.950
 5542POPC   C4B30598  10.504   3.045   7.650
 5543POPC   NC330599  12.126  33.841   9.450
 5543POPC   PO430600  12.060  33.815   9.150
 5543POPC   GL130601  12.058  33.838   8.850
 5543POPC   GL230602  11.938  33.770   8.850
 5543POPC   C1A30603  12.048  33.785   8.550
 5543POPC   D2A30604  12.035  33.845   8.250
 5543POPC   C3A30605  12.121  33.782   7.950
 5543POPC   C4A30606  12.034  33.789   7.650
 5543POPC   C1B30607  11.917  33.614   8.550
 5543POPC   C2B30608  11.884  33.656   8.250
 5543POPC   C3B30609  11.890  33.672   7.950
 5543POPC   C4B30610  11.930  33.621   7.650
 5544POPC   NC330611  22.918  11.277   9.450
 5544POPC   PO430612  22.978  11.262   9.150
 5544POPC   GL130613  22.906  11.272   8.850
 5544POPC   GL230614  22.966  11.457   8.850
 5544POPC   C1A30615  22.942  11.347   8.550
 5544POPC   D2A30616  22.964  11.338   8.250
 5544POPC   C3A30617  22.972  11.254   7.950
 5544POPC   C4A30618  22.936  11.303   7.650
 5544POPC   C1B30619  22.930  11.530   8.550
 5544POPC   C2B30620  22.962  11.567   8.250
 5544POPC   C3B30621  22.933  11.500   7.950
 5544POPC   C4B30622  22.962  11.556   7.650
 5545POPC   NC330623   3.535  29.173   9.450
 5545POPC   PO430624   3.522  29.106   9.150
 5545POPC   GL130625   3.527  29.116   8.850
 5545POPC   GL230626   3.399  29.157   8.850
 5545POPC   C1A30627   3.492  29.158   8.550
 5545POPC   D2A30628   3.562  29.174   8.250
 5545POPC   C3A30629   3.528  29.172   7.950
 5545POPC   C4A30630   3.512  29.179   7.650
 5545POPC   C1B30631   3.277  29.193   8.550
 5545POPC   C2B30632   3.268  29.188   8.250
 5545POPC   C3B30633   3.294  29.159   7.950
 5545POPC   C4B30634   3.299  29.180   7.650
 5546POPC   NC330635   2.737  37.670   9.450
 5546POPC   PO430636   2.801  37.671   9.150
 5546POPC   GL130637   2.742  37.661   8.850
 5546POPC   GL230638   2.803  37.524   8.850
 5546POPC   C1A30639   2.792  37.714   8.550
 5546POPC   D2A30640   2.742  37.709   8.250
 5546POPC   C3A30641   2.792  37.638   7.950
 5546POPC   C4A30642   2.781  37.718   7.650
 5546POPC   C1B30643   2.833  37.428   8.550
 5546POPC   C2B30644   2.793  37.440   8.250
 5546POPC   C3B30645   2.826  37.459   7.950
 5546POPC   C4B30646   2.813  37.416   7.650
 5547POPC   NC330647  41.515  42.377   9.450
 5547POPC   PO430648  41.600  42.371   9.150
 5547POPC   GL130649  41.514  42.286   8.850
 5547POPC   GL230650  41.490  42.191   8.850
 5547POPC   C1A30651  41.511  42.318   8.550
 5547POPC   D2A30652  41.576  42.297   8.250
 5547POPC   C3A30653  41.536  42.343   7.950
 5547POPC   C4A30654  41.512  42.362   7.650
 5547POPC   C1B30655  41.543  42.060   8.550
 5547POPC   C2B30656  41.559  42.117   8.250
 5547POPC   C3B30657  41.477  42.098   7.950
 5547POPC   C4B30658  41.542  42.053   7.650
 5548POPC   NC330659  31.467  29.952   9.450
 5548POPC   PO430660  31.512  29.932   9.150
 5548POPC   GL130661  31.481  29.911   8.850
 5548POPC   GL230662  31.558  30.019   8.850
 5548POPC   C1A30663  31.431  29.970   8.550
 5548POPC   D2A30664  31.467  29.890   8.250
 5548POPC   C3A30665  31.439  29.888   7.950
 5548POPC   C4A30666  31.462  29.968   7.650
 5548POPC   C1B30667  31.640  30.097   8.550
 5548POPC   C2B30668  31.553  30.125   8.250
 5548POPC   C3B30669  31.632  30.095   7.950
 5548POPC   C4B30670  31.567  30.154   7.650
 5549POPC   NC330671  21.363  36.082   9.450
 5549POPC   PO430672  21.373  36.090   9.150
 5549POPC   GL130673  21.411  36.149   8.850
 5549POPC   GL230674  21.353  36.285   8.850
 5549POPC   C1A30675  21.409  36.102   8.550
 5549POPC   D2A30676  21.414  36.156   8.250
 5549POPC   C3A30677  21.353  36.084   7.950
 5549POPC   C4A30678  21.411  36.132   7.650
 5549POPC   C1B30679  21.290  36.324   8.550
 5549POPC   C2B30680  21.255  36.350   8.250
 5549POPC   C3B30681  21.317  36.306   7.950
 5549POPC   C4B30682  21.254  36.387   7.650
 5550POPC   NC330683   0.424  30.704   9.450
 5550POPC   PO430684   0.480  30.722   9.150
 5550POPC   GL130685   0.459  30.696   8.850
 5550POPC   GL230686   0.509  30.821   8.850
 5550POPC   C1A30687   0.406  30.671   8.550
 5550POPC   D2A30688   0.422  30.713   8.250
 5550POPC   C3A30689   0.391  30.724   7.950
 5550POPC   C4A30690   0.463  30.733   7.650
 5550POPC   C1B30691   0.627  30.896   8.550
 5550POPC   C2B30692   0.573  30.890   8.250
 5550POPC   C3B30693   0.643  30.886   7.950
 5550POPC   C4B30694   0.644  30.881   7.650
 5551POPC   NC330695  21.353  41.514   9.450
 5551POPC   PO430696  21.400  41.519   9.150
 5551POPC   GL130697  21.385  41.516   8.850
 5551POPC   GL230698  21.415  41.406   8.850
 5551POPC   C1A30699  21.354  41.599   8.550
 5551POPC   D2A30700  21.375  41.562   8.250
 5551POPC   C3A30701  21.393  41.513   7.950
 5551POPC   C4A30702  21.414  41.605   7.650
 5551POPC   C1B30703  21.356  41.317   8.550
 5551POPC   C2B30704  21.313  41.281   8.250
 5551POPC   C3B30705  21.343  41.302   7.950
 5551POPC   C4B30706  21.385  41.280   7.650
 5552POPC   NC330707  31.426  18.268   9.450
 5552POPC   PO430708  31.476  18.251   9.150
 5552POPC   GL130709  31.483  18.260   8.850
 5552POPC   GL230710  31.581  18.336   8.850
 5552POPC   C1A30711  31.485  18.257   8.550
 5552POPC   D2A30712  31.507  18.319   8.250
 5552POPC   C3A30713  31.481  18.284   7.950
 5552POPC   C4A30714  31.479  18.299   7.650
 5552POPC   C1B30715  31.592  18.507   8.550
 5552POPC   C2B30716  31.601  18.493   8.250
 5552POPC   C3B30717  31.603  18.431   7.950
 5552POPC   C4B30718  31.605  18.459   7.650
 5553POPC   NC330719   5.108  40.828   9.450
 5553POPC   PO430720   5.050  40.757   9.150
 5553POPC   GL130721   5.130  40.782   8.850
 5553POPC   GL230722   5.099  40.918   8.850
 5553POPC   C1A30723   5.101  40.803   8.550
 5553POPC   D2A30724   5.051  40.787   8.250
 5553POPC   C3A30725   5.136  40.814   7.950
 5553POPC   C4A30726   5.057  40.790   7.650
 5553POPC   C1B30727   5.010  41.013   8.550
 5553POPC   C2B30728   5.086  41.054   8.250
 5553POPC   C3B30729   5.072  41.036   7.950
 5553POPC   C4B30730   4.997  41.060   7.650
 5554POPC   NC330731  35.383  42.296   9.450
 5554POPC   PO430732  35.345  42.294   9.150
 5554POPC   GL130733  35.315  42.342   8.850
 5554POPC   GL230734  35.469  42.426   8.850
 5554POPC   C1A30735  35.387  42.290   8.550
 5554POPC   D2A30736  35.338  42.318   8.250
 5554POPC   C3A30737  35.332  42.357   7.950
 5554POPC   C4A30738  35.303  42.300   7.650
 5554POPC   C1B30739  35.568  42.495   8.550
 5554POPC   C2B30740  35.591  42.482   8.250
 5554POPC   C3B30741  35.581  42.471   7.950
 5554POPC   C4B30742  35.604  42.416   7.650
 5555POPC   NC330743  13.578  14.436   9.450
 5555POPC   PO430744  13.624  14.403   9.150
 5555POPC   GL130745  13.579  14.360   8.850
 5555POPC   GL230746  13.667  14.499   8.850
 5555POPC   C1A30747  13.674  14.415   8.550
 5555POPC   D2A30748  13.674  14.395   8.250
 5555POPC   C3A30749  13.675  14.414   7.950
 5555POPC   C4A30750  13.677  14.364   7.650
 5555POPC   C1B30751  13.754  14.611   8.550
 5555POPC   C2B30752  13.752  14.613   8.250
 5555POPC   C3B30753  13.723  14.673   7.950
 5555POPC   C4B30754  13.741  14.615   7.650
 5556POPC   NC330755  28.412  21.382   9.450
 5556POPC   PO430756  28.327  21.431   9.150
 5556POPC   GL130757  28.403  21.352   8.850
 5556POPC   GL230758  28.446  21.433   8.850
 5556POPC   C1A30759  28.347  21.433   8.550
 5556POPC   D2A30760  28.388  21.435   8.250
 5556POPC   C3A30761  28.395  21.365   7.950
 5556POPC   C4A30762  28.356  21.349   7.650
 5556POPC   C1B30763  28.597  21.561   8.550
 5556POPC   C2B30764  28.541  21.539   8.250
 5556POPC   C3B30765  28.596  21.541   7.950
 5556POPC   C4B30766  28.538  21.496   7.650
 5557POPC   NC330767   6.678  26.781   9.450
 5557POPC   PO430768   6.670  26.839   9.150
 5557POPC   GL130769   6.604  26.782   8.850
 5557POPC   GL230770   6.550  26.863   8.850
 5557POPC   C1A30771   6.668  26.797   8.550
 5557POPC   D2A30772   6.633  26.778   8.250
 5557POPC   C3A30773   6.599  26.863   7.950
 5557POPC   C4A30774   6.614  26.841   7.650
 5557POPC   C1B30775   6.378  26.909   8.550
 5557POPC   C2B30776   6.407  26.907   8.250
 5557POPC   C3B30777   6.382  26.884   7.950
 5557POPC   C4B30778   6.406  26.844   7.650
 5558POPC   NC330779   1.970  42.304   9.450
 5558POPC   PO430780   2.024  42.292   9.150
 5558POPC   GL130781   2.004  42.341   8.850
 5558POPC   GL230782   1.947  42.385   8.850
 5558POPC   C1A30783   2.013  42.353   8.550
 5558POPC   D2A30784   1.991  42.312   8.250
 5558POPC   C3A30785   1.942  42.356   7.950
 5558POPC   C4A30786   2.026  42.290   7.650
 5558POPC   C1B30787   1.848  42.503   8.550
 5558POPC   C2B30788   1.777  42.558   8.250
 5558POPC   C3B30789   1.860  42.542   7.950
 5558POPC   C4B30790   1.795  42.489   7.650
 5559POPC   NC330791   1.973  26.083   9.450
 5559POPC   PO430792   1.971  25.996   9.150
 5559POPC   GL130793   1.985  26.079   8.850
 5559POPC   GL230794   2.088  25.969   8.850
 5559POPC   C1A30795   2.015  26.090   8.550
 5559POPC   D2A30796   2.007  26.000   8.250
 5559POPC   C3A30797   2.023  26.037   7.950
 5559POPC   C4A30798   1.969  25.998   7.650
 5559POPC   C1B30799   2.151  25.853   8.550
 5559POPC   C2B30800   2.123  25.828   8.250
 5559POPC   C3B30801   2.152  25.873   7.950
 5559POPC   C4B30802   2.097  25.856   7.650
 5560POPC   NC330803  36.858  36.125   9.450
 5560POPC   PO430804  36.938  36.117   9.150
 5560POPC   GL130805  36.920  36.135   8.850
 5560POPC   GL230806  36.833  36.016   8.850
 5560POPC   C1A30807  36.938  36.168   8.550
 5560POPC   D2A30808  36.872  36.135   8.250
 5560POPC   C3A30809  36.903  36.175   7.950
 5560POPC   C4A30810  36.908  36.084   7.650
 5560POPC   C1B30811  36.847  35.876   8.550
 5560POPC   C2B30812  36.812  35.858   8.250
 5560POPC   C3B30813  36.815  35.923   7.950
 5560POPC   C4B30814  36.825  35.902   7.650
 5561POPC   NC330815  40.004  27.550   9.450
 5561POPC   PO430816  39.996  27.614   9.150
 5561POPC   GL130817  39.990  27.591   8.850
 5561POPC   GL230818  40.082  27.600   8.850
 5561POPC   C1A30819  40.020  27.572   8.550
 5561POPC   D2A30820  40.023  27.578   8.250
 5561POPC   C3A30821  40.021  27.582   7.950
 5561POPC   C4A30822  40.017  27.558   7.650
 5561POPC   C1B30823  40.302  27.618   8.550
 5561POPC   C2B30824  40.267  27.648   8.250
 5561POPC   C3B30825  40.232  27.646   7.950
 5561POPC   C4B30826  40.221  27.683   7.650
 5562POPC   NC330827   5.125  21.420   9.450
 5562POPC   PO430828   5.059  21.418   9.150
 5562POPC   GL130829   5.051  21.434   8.850
 5562POPC   GL230830   5.148  21.484   8.850
 5562POPC   C1A30831   5.067  21.417   8.550
 5562POPC   D2A30832   5.092  21.387   8.250
 5562POPC   C3A30833   5.048  21.388   7.950
 5562POPC   C4A30834   5.084  21.359   7.650
 5562POPC   C1B30835   5.158  21.607   8.550
 5562POPC   C2B30836   5.089  21.648   8.250
 5562POPC   C3B30837   5.141  21.659   7.950
 5562POPC   C4B30838   5.134  21.648   7.650
 5563POPC   NC330839  15.963  42.379   9.450
 5563POPC   PO430840  15.958  42.300   9.150
 5563POPC   GL130841  16.004  42.383   8.850
 5563POPC   GL230842  15.887  42.440   8.850
 5563POPC   C1A30843  16.005  42.329   8.550
 5563POPC   D2A30844  15.933  42.288   8.250
 5563POPC   C3A30845  15.937  42.360   7.950
 5563POPC   C4A30846  15.941  42.305   7.650
 5563POPC   C1B30847  15.836  42.530   8.550
 5563POPC   C2B30848  15.822  42.554   8.250
 5563POPC   C3B30849  15.839  42.583   7.950
 5563POPC   C4B30850  15.876  42.581   7.650
 5564POPC   NC330851  19.869  40.790   9.450
 5564POPC   PO430852  19.832  40.743   9.150
 5564POPC   GL130853  19.845  40.738   8.850
 5564POPC   GL230854  19.795  40.723   8.850
 5564POPC   C1A30855  19.798  40.799   8.550
 5564POPC   D2A30856  19.796  40.785   8.250
 5564POPC   C3A30857  19.814  40.761   7.950
 5564POPC   C4A30858  19.869  40.821   7.650
 5564POPC   C1B30859  19.695  40.531   8.550
 5564POPC   C2B30860  19.732  40.610   8.250
 5564POPC   C3B30861  19.689  40.604   7.950
 5564POPC   C4B30862  19.713  40.604   7.650
 5565POPC   NC330863   0.447  38.435   9.450
 5565POPC   PO430864   0.454  38.481   9.150
 5565POPC   GL130865   0.452  38.430   8.850
 5565POPC   GL230866   0.501  38.341   8.850
 5565POPC   C1A30867   0.392  38.433   8.550
 5565POPC   D2A30868   0.438  38.444   8.250
 5565POPC   C3A30869   0.429  38.457   7.950
 5565POPC   C4A30870   0.488  38.435   7.650
 5565POPC   C1B30871   0.514  38.192   8.550
 5565POPC   C2B30872   0.506  38.221   8.250
 5565POPC   C3B30873   0.457  38.177   7.950
 5565POPC   C4B30874   0.498  38.264   7.650
 5566POPC   NC330875  34.589  43.160   9.450
 5566POPC   PO430876  34.541  43.075   9.150
 5566POPC   GL130877  34.566  43.070   8.850
 5566POPC   GL230878  34.615  43.218   8.850
 5566POPC   C1A30879  34.547  43.114   8.550
 5566POPC   D2A30880  34.596  43.062   8.250
 5566POPC   C3A30881  34.550  43.096   7.950
 5566POPC   C4A30882  34.568  43.065   7.650
 5566POPC   C1B30883  34.657  43.343   8.550
 5566POPC   C2B30884  34.742  43.305   8.250
 5566POPC   C3B30885  34.732  43.291   7.950
 5566POPC   C4B30886  34.695  43.317   7.650
 5567POPC   NC330887   8.184  26.009   9.450
 5567POPC   PO430888   8.211  26.053   9.150
 5567POPC   GL130889   8.152  26.046   8.850
 5567POPC   GL230890   8.288  26.196   8.850
 5567POPC   C1A30891   8.218  25.995   8.550
 5567POPC   D2A30892   8.196  26.019   8.250
 5567POPC   C3A30893   8.186  26.076   7.950
 5567POPC   C4A30894   8.192  26.032   7.650
 5567POPC   C1B30895   8.263  26.297   8.550
 5567POPC   C2B30896   8.278  26.244   8.250
 5567POPC   C3B30897   8.273  26.261   7.950
 5567POPC   C4B30898   8.283  26.300   7.650
 5568POPC   NC330899  23.723  18.269   9.450
 5568POPC   PO430900  23.748  18.270   9.150
 5568POPC   GL130901  23.696  18.259   8.850
 5568POPC   GL230902  23.871  18.364   8.850
 5568POPC   C1A30903  23.713  18.294   8.550
 5568POPC   D2A30904  23.718  18.271   8.250
 5568POPC   C3A30905  23.701  18.295   7.950
 5568POPC   C4A30906  23.692  18.325   7.650
 5568POPC   C1B30907  23.897  18.424   8.550
 5568POPC   C2B30908  23.982  18.440   8.250
 5568POPC   C3B30909  23.958  18.403   7.950
 5568POPC   C4B30910  23.910  18.407   7.650
 5569POPC   NC330911  44.643   5.848   9.450
 5569POPC   PO430912  44.692   5.918   9.150
 5569POPC   GL130913  44.636   5.883   8.850
 5569POPC   GL230914  44.661   6.009   8.850
 5569POPC   C1A30915  44.615   5.838   8.550
 5569POPC   D2A30916  44.663   5.825   8.250
 5569POPC   C3A30917  44.675   5.845   7.950
 5569POPC   C4A30918  44.712   5.821   7.650
 5569POPC   C1B30919  44.711   6.123   8.550
 5569POPC   C2B30920  44.772   6.090   8.250
 5569POPC   C3B30921  44.688   6.139   7.950
 5569POPC   C4B30922  44.695   6.130   7.650
 5570POPC   NC330923  33.831   5.135   9.450
 5570POPC   PO430924  33.779   5.049   9.150
 5570POPC   GL130925  33.804   5.118   8.850
 5570POPC   GL230926  33.698   4.943   8.850
 5570POPC   C1A30927  33.802   5.114   8.550
 5570POPC   D2A30928  33.794   5.133   8.250
 5570POPC   C3A30929  33.816   5.048   7.950
 5570POPC   C4A30930  33.808   5.087   7.650
 5570POPC   C1B30931  33.651   4.895   8.550
 5570POPC   C2B30932  33.708   4.863   8.250
 5570POPC   C3B30933  33.664   4.866   7.950
 5570POPC   C4B30934  33.644   4.839   7.650
 5571POPC   NC330935  29.906  15.228   9.450
 5571POPC   PO430936  29.887  15.172   9.150
 5571POPC   GL130937  29.901  15.138   8.850
 5571POPC   GL230938  29.990  15.118   8.850
 5571POPC   C1A30939  29.940  15.210   8.550
 5571POPC   D2A30940  29.891  15.221   8.250
 5571POPC   C3A30941  29.965  15.150   7.950
 5571POPC   C4A30942  29.876  15.133   7.650
 5571POPC   C1B30943  30.088  14.953   8.550
 5571POPC   C2B30944  30.106  14.992   8.250
 5571POPC   C3B30945  30.060  15.045   7.950
 5571POPC   C4B30946  30.110  14.960   7.650
 5572POPC   NC330947  19.108   4.351   9.450
 5572POPC   PO430948  19.096   4.354   9.150
 5572POPC   GL130949  19.063   4.324   8.850
 5572POPC   GL230950  18.997   4.211   8.850
 5572POPC   C1A30951  19.106   4.304   8.550
 5572POPC   D2A30952  19.019   4.282   8.250
 5572POPC   C3A30953  19.039   4.286   7.950
 5572POPC   C4A30954  19.062   4.343   7.650
 5572POPC   C1B30955  18.914   4.167   8.550
 5572POPC   C2B30956  18.928   4.117   8.250
 5572POPC   C3B30957  18.846   4.161   7.950
 5572POPC   C4B30958  18.915   4.121   7.650
 5573POPC   NC330959  29.944  13.670   9.450
 5573POPC   PO430960  29.912  13.627   9.150
 5573POPC   GL130961  29.929  13.634   8.850
 5573POPC   GL230962  29.908  13.769   8.850
 5573POPC   C1A30963  29.921  13.663   8.550
 5573POPC   D2A30964  29.951  13.675   8.250
 5573POPC   C3A30965  29.938  13.585   7.950
 5573POPC   C4A30966  29.927  13.626   7.650
 5573POPC   C1B30967  29.973  13.851   8.550
 5573POPC   C2B30968  29.955  13.857   8.250
 5573POPC   C3B30969  29.981  13.923   7.950
 5573POPC   C4B30970  29.958  13.900   7.650
 5574POPC   NC330971  30.665   5.048   9.450
 5574POPC   PO430972  30.691   5.086   9.150
 5574POPC   GL130973  30.677   5.083   8.850
 5574POPC   GL230974  30.790   5.085   8.850
 5574POPC   C1A30975  30.659   5.072   8.550
 5574POPC   D2A30976  30.652   5.128   8.250
 5574POPC   C3A30977  30.693   5.107   7.950
 5574POPC   C4A30978  30.746   5.115   7.650
 5574POPC   C1B30979  30.966   5.095   8.550
 5574POPC   C2B30980  30.937   5.158   8.250
 5574POPC   C3B30981  30.976   5.145   7.950
 5574POPC   C4B30982  30.908   5.123   7.650
 5575POPC   NC330983  26.811   5.108   9.450
 5575POPC   PO430984  26.817   5.135   9.150
 5575POPC   GL130985  26.775   5.109   8.850
 5575POPC   GL230986  26.830   5.217   8.850
 5575POPC   C1A30987  26.864   5.084   8.550
 5575POPC   D2A30988  26.848   5.121   8.250
 5575POPC   C3A30989  26.775   5.120   7.950
 5575POPC   C4A30990  26.787   5.059   7.650
 5575POPC   C1B30991  26.780   5.377   8.550
 5575POPC   C2B30992  26.777   5.363   8.250
 5575POPC   C3B30993  26.800   5.378   7.950
 5575POPC   C4B30994  26.801   5.361   7.650
 5576POPC   NC330995  42.367   5.914   9.450
 5576POPC   PO430996  42.309   5.869   9.150
 5576POPC   GL130997  42.359   5.867   8.850
 5576POPC   GL230998  42.463   5.910   8.850
 5576POPC   C1A30999  42.307   5.819   8.550
 5576POPC   D2A31000  42.373   5.831   8.250
 5576POPC   C3A31001  42.330   5.841   7.950
 5576POPC   C4A31002  42.367   5.848   7.650
 5576POPC   C1B31003  42.538   6.031   8.550
 5576POPC   C2B31004  42.549   6.005   8.250
 5576POPC   C3B31005  42.582   6.017   7.950
 5576POPC   C4B31006  42.591   5.945   7.650
 5577POPC   NC331007  40.032   8.151   9.450
 5577POPC   PO431008  39.991   8.240   9.150
 5577POPC   GL131009  40.023   8.176   8.850
 5577POPC   GL231010  39.971   8.357   8.850
 5577POPC   C1A31011  39.976   8.205   8.550
 5577POPC   D2A31012  39.989   8.173   8.250
 5577POPC   C3A31013  40.015   8.217   7.950
 5577POPC   C4A31014  39.978   8.236   7.650
 5577POPC   C1B31015  39.897   8.467   8.550
 5577POPC   C2B31016  39.954   8.401   8.250
 5577POPC   C3B31017  39.961   8.387   7.950
 5577POPC   C4B31018  39.895   8.436   7.650
 5578POPC   NC331019  26.027   5.076   9.450
 5578POPC   PO431020  26.032   5.066   9.150
 5578POPC   GL131021  25.996   5.083   8.850
 5578POPC   GL231022  25.878   5.035   8.850
 5578POPC   C1A31023  26.090   5.130   8.550
 5578POPC   D2A31024  25.993   5.056   8.250
 5578POPC   C3A31025  25.997   5.106   7.950
 5578POPC   C4A31026  25.997   5.124   7.650
 5578POPC   C1B31027  25.828   5.023   8.550
 5578POPC   C2B31028  25.801   5.021   8.250
 5578POPC   C3B31029  25.840   5.021   7.950
 5578POPC   C4B31030  25.760   5.088   7.650
 5579POPC   NC331031  12.049  11.283   9.450
 5579POPC   PO431032  12.123  11.288   9.150
 5579POPC   GL131033  12.102  11.326   8.850
 5579POPC   GL231034  11.977  11.453   8.850
 5579POPC   C1A31035  12.081  11.262   8.550
 5579POPC   D2A31036  12.067  11.278   8.250
 5579POPC   C3A31037  12.034  11.267   7.950
 5579POPC   C4A31038  12.102  11.302   7.650
 5579POPC   C1B31039  11.894  11.532   8.550
 5579POPC   C2B31040  11.896  11.465   8.250
 5579POPC   C3B31041  11.895  11.543   7.950
 5579POPC   C4B31042  11.985  11.471   7.650
 5580POPC   NC331043  15.952   1.942   9.450
 5580POPC   PO431044  15.917   2.026   9.150
 5580POPC   GL131045  15.990   1.978   8.850
 5580POPC   GL231046  16.051   2.017   8.850
 5580POPC   C1A31047  15.907   2.033   8.550
 5580POPC   D2A31048  15.950   1.952   8.250
 5580POPC   C3A31049  15.986   1.996   7.950
 5580POPC   C4A31050  15.954   1.979   7.650
 5580POPC   C1B31051  16.240   1.952   8.550
 5580POPC   C2B31052  16.236   2.002   8.250
 5580POPC   C3B31053  16.163   1.946   7.950
 5580POPC   C4B31054  16.228   1.944   7.650
 5581POPC   NC331055  10.521  29.921   9.450
 5581POPC   PO431056  10.523  29.921   9.150
 5581POPC   GL131057  10.521  29.945   8.850
 5581POPC   GL231058  10.632  29.930   8.850
 5581POPC   C1A31059  10.480  29.912   8.550
 5581POPC   D2A31060  10.549  29.878   8.250
 5581POPC   C3A31061  10.572  29.944   7.950
 5581POPC   C4A31062  10.517  29.896   7.650
 5581POPC   C1B31063  10.793  29.921   8.550
 5581POPC   C2B31064  10.741  29.951   8.250
 5581POPC   C3B31065  10.811  29.927   7.950
 5581POPC   C4B31066  10.773  29.927   7.650
 5582POPC   NC331067  24.471  34.617   9.450
 5582POPC   PO431068  24.509  34.529   9.150
 5582POPC   GL131069  24.449  34.547   8.850
 5582POPC   GL231070  24.426  34.637   8.850
 5582POPC   C1A31071  24.500  34.543   8.550
 5582POPC   D2A31072  24.448  34.527   8.250
 5582POPC   C3A31073  24.469  34.543   7.950
 5582POPC   C4A31074  24.508  34.598   7.650
 5582POPC   C1B31075  24.276  34.703   8.550
 5582POPC   C2B31076  24.333  34.698   8.250
 5582POPC   C3B31077  24.336  34.701   7.950
 5582POPC   C4B31078  24.354  34.732   7.650
 5583POPC   NC331079   5.109  39.182   9.450
 5583POPC   PO431080   5.049  39.223   9.150
 5583POPC   GL131081   5.045  39.245   8.850
 5583POPC   GL231082   5.126  39.373   8.850
 5583POPC   C1A31083   5.063  39.205   8.550
 5583POPC   D2A31084   5.071  39.211   8.250
 5583POPC   C3A31085   5.132  39.187   7.950
 5583POPC   C4A31086   5.137  39.259   7.650
 5583POPC   C1B31087   5.158  39.414   8.550
 5583POPC   C2B31088   5.214  39.434   8.250
 5583POPC   C3B31089   5.172  39.416   7.950
 5583POPC   C4B31090   5.209  39.440   7.650
 5584POPC   NC331091  43.061  39.255   9.450
 5584POPC   PO431092  43.089  39.223   9.150
 5584POPC   GL131093  43.143  39.217   8.850
 5584POPC   GL231094  43.000  39.110   8.850
 5584POPC   C1A31095  43.079  39.250   8.550
 5584POPC   D2A31096  43.114  39.229   8.250
 5584POPC   C3A31097  43.086  39.237   7.950
 5584POPC   C4A31098  43.148  39.208   7.650
 5584POPC   C1B31099  42.932  39.010   8.550
 5584POPC   C2B31100  43.000  39.016   8.250
 5584POPC   C3B31101  42.973  39.066   7.950
 5584POPC   C4B31102  42.970  39.016   7.650
 5585POPC   NC331103  29.099  14.382   9.450
 5585POPC   PO431104  29.109  14.434   9.150
 5585POPC   GL131105  29.174  14.439   8.850
 5585POPC   GL231106  29.067  14.459   8.850
 5585POPC   C1A31107  29.118  14.379   8.550
 5585POPC   D2A31108  29.150  14.405   8.250
 5585POPC   C3A31109  29.116  14.378   7.950
 5585POPC   C4A31110  29.135  14.402   7.650
 5585POPC   C1B31111  28.945  14.593   8.550
 5585POPC   C2B31112  29.000  14.598   8.250
 5585POPC   C3B31113  29.027  14.592   7.950
 5585POPC   C4B31114  28.972  14.592   7.650
 5586POPC   NC331115  31.468  44.692   9.450
 5586POPC   PO431116  31.444  44.642   9.150
 5586POPC   GL131117  31.444  44.659   8.850
 5586POPC   GL231118  31.365  44.739   8.850
 5586POPC   C1A31119  31.479  44.703   8.550
 5586POPC   D2A31120  31.426  44.681   8.250
 5586POPC   C3A31121  31.468  44.688   7.950
 5586POPC   C4A31122  31.463  44.691   7.650
 5586POPC   C1B31123  31.330  44.850   8.550
 5586POPC   C2B31124  31.279  44.814   8.250
 5586POPC   C3B31125  31.317  44.819   7.950
 5586POPC   C4B31126  31.277  44.835   7.650
 5587POPC   NC331127  19.802  37.709   9.450
 5587POPC   PO431128  19.800  37.699   9.150
 5587POPC   GL131129  19.831  37.686   8.850
 5587POPC   GL231130  20.002  37.737   8.850
 5587POPC   C1A31131  19.795  37.667   8.550
 5587POPC   D2A31132  19.866  37.720   8.250
 5587POPC   C3A31133  19.879  37.667   7.950
 5587POPC   C4A31134  19.841  37.649   7.650
 5587POPC   C1B31135  20.118  37.681   8.550
 5587POPC   C2B31136  20.058  37.724   8.250
 5587POPC   C3B31137  20.031  37.775   7.950
 5587POPC   C4B31138  20.097  37.706   7.650
 5588POPC   NC331139  40.738  29.153   9.450
 5588POPC   PO431140  40.769  29.143   9.150
 5588POPC   GL131141  40.785  29.185   8.850
 5588POPC   GL231142  40.678  29.236   8.850
 5588POPC   C1A31143  40.824  29.180   8.550
 5588POPC   D2A31144  40.826  29.181   8.250
 5588POPC   C3A31145  40.754  29.149   7.950
 5588POPC   C4A31146  40.793  29.100   7.650
 5588POPC   C1B31147  40.594  29.274   8.550
 5588POPC   C2B31148  40.592  29.258   8.250
 5588POPC   C3B31149  40.545  29.258   7.950
 5588POPC   C4B31150  40.607  29.292   7.650
 5589POPC   NC331151  36.900  40.795   9.450
 5589POPC   PO431152  36.897  40.831   9.150
 5589POPC   GL131153  36.928  40.831   8.850
 5589POPC   GL231154  36.963  40.907   8.850
 5589POPC   C1A31155  36.906  40.763   8.550
 5589POPC   D2A31156  36.950  40.773   8.250
 5589POPC   C3A31157  36.868  40.817   7.950
 5589POPC   C4A31158  36.934  40.827   7.650
 5589POPC   C1B31159  36.930  41.028   8.550
 5589POPC   C2B31160  36.967  41.058   8.250
 5589POPC   C3B31161  36.970  41.054   7.950
 5589POPC   C4B31162  36.901  41.068   7.650
 5590POPC   NC331163  36.943  22.205   9.450
 5590POPC   PO431164  36.861  22.170   9.150
 5590POPC   GL131165  36.936  22.123   8.850
 5590POPC   GL231166  36.732  22.138   8.850
 5590POPC   C1A31167  36.930  22.203   8.550
 5590POPC   D2A31168  36.880  22.157   8.250
 5590POPC   C3A31169  36.882  22.131   7.950
 5590POPC   C4A31170  36.928  22.176   7.650
 5590POPC   C1B31171  36.702  22.171   8.550
 5590POPC   C2B31172  36.641  22.152   8.250
 5590POPC   C3B31173  36.626  22.145   7.950
 5590POPC   C4B31174  36.627  22.156   7.650
 5591POPC   NC331175  41.583  29.945   9.450
 5591POPC   PO431176  41.588  29.954   9.150
 5591POPC   GL131177  41.609  29.908   8.850
 5591POPC   GL231178  41.474  29.931   8.850
 5591POPC   C1A31179  41.524  29.903   8.550
 5591POPC   D2A31180  41.537  29.965   8.250
 5591POPC   C3A31181  41.524  29.901   7.950
 5591POPC   C4A31182  41.548  29.894   7.650
 5591POPC   C1B31183  41.335  29.950   8.550
 5591POPC   C2B31184  41.295  29.939   8.250
 5591POPC   C3B31185  41.275  29.996   7.950
 5591POPC   C4B31186  41.337  29.932   7.650
 5592POPC   NC331187  39.971  30.728   9.450
 5592POPC   PO431188  40.011  30.715   9.150
 5592POPC   GL131189  40.003  30.739   8.850
 5592POPC   GL231190  39.946  30.590   8.850
 5592POPC   C1A31191  40.018  30.729   8.550
 5592POPC   D2A31192  40.020  30.682   8.250
 5592POPC   C3A31193  40.026  30.736   7.950
 5592POPC   C4A31194  40.052  30.693   7.650
 5592POPC   C1B31195  39.854  30.520   8.550
 5592POPC   C2B31196  39.850  30.428   8.250
 5592POPC   C3B31197  39.933  30.480   7.950
 5592POPC   C4B31198  39.886  30.444   7.650
 5593POPC   NC331199   5.089  30.731   9.450
 5593POPC   PO431200   5.073  30.650   9.150
 5593POPC   GL131201   5.142  30.657   8.850
 5593POPC   GL231202   5.060  30.833   8.850
 5593POPC   C1A31203   5.140  30.648   8.550
 5593POPC   D2A31204   5.086  30.680   8.250
 5593POPC   C3A31205   5.062  30.725   7.950
 5593POPC   C4A31206   5.139  30.711   7.650
 5593POPC   C1B31207   4.965  30.859   8.550
 5593POPC   C2B31208   4.968  30.869   8.250
 5593POPC   C3B31209   4.977  30.919   7.950
 5593POPC   C4B31210   4.942  30.907   7.650
 5594POPC   NC331211  39.988  40.826   9.450
 5594POPC   PO431212  39.975  40.771   9.150
 5594POPC   GL131213  39.973  40.828   8.850
 5594POPC   GL231214  40.008  40.943   8.850
 5594POPC   C1A31215  39.969  40.773   8.550
 5594POPC   D2A31216  40.023  40.748   8.250
 5594POPC   C3A31217  40.045  40.810   7.950
 5594POPC   C4A31218  39.972  40.773   7.650
 5594POPC   C1B31219  40.023  40.981   8.550
 5594POPC   C2B31220  40.108  41.021   8.250
 5594POPC   C3B31221  40.064  40.989   7.950
 5594POPC   C4B31222  40.038  41.056   7.650
 5595POPC   NC331223  15.924   1.222   9.450
 5595POPC   PO431224  15.910   1.219   9.150
 5595POPC   GL131225  15.913   1.254   8.850
 5595POPC   GL231226  16.043   1.113   8.850
 5595POPC   C1A31227  15.957   1.260   8.550
 5595POPC   D2A31228  16.004   1.252   8.250
 5595POPC   C3A31229  15.919   1.243   7.950
 5595POPC   C4A31230  15.914   1.263   7.650
 5595POPC   C1B31231  16.067   0.953   8.550
 5595POPC   C2B31232  16.086   1.052   8.250
 5595POPC   C3B31233  16.100   1.036   7.950
 5595POPC   C4B31234  16.114   0.979   7.650
 5596POPC   NC331235  29.884  40.823   9.450
 5596POPC   PO431236  29.942  40.763   9.150
 5596POPC   GL131237  29.951  40.772   8.850
 5596POPC   GL231238  29.821  40.672   8.850
 5596POPC   C1A31239  29.932  40.828   8.550
 5596POPC   D2A31240  29.904  40.821   8.250
 5596POPC   C3A31241  29.871  40.781   7.950
 5596POPC   C4A31242  29.944  40.743   7.650
 5596POPC   C1B31243  29.704  40.609   8.550
 5596POPC   C2B31244  29.729  40.624   8.250
 5596POPC   C3B31245  29.775  40.626   7.950
 5596POPC   C4B31246  29.736  40.629   7.650
 5597POPC   NC331247   4.364  32.291   9.450
 5597POPC   PO431248   4.350  32.213   9.150
 5597POPC   GL131249   4.322  32.212   8.850
 5597POPC   GL231250   4.411  32.313   8.850
 5597POPC   C1A31251   4.347  32.290   8.550
 5597POPC   D2A31252   4.286  32.264   8.250
 5597POPC   C3A31253   4.304  32.201   7.950
 5597POPC   C4A31254   4.321  32.261   7.650
 5597POPC   C1B31255   4.510  32.350   8.550
 5597POPC   C2B31256   4.514  32.388   8.250
 5597POPC   C3B31257   4.554  32.376   7.950
 5597POPC   C4B31258   4.542  32.324   7.650
 5598POPC   NC331259  19.035   8.199   9.450
 5598POPC   PO431260  19.087   8.234   9.150
 5598POPC   GL131261  19.068   8.234   8.850
 5598POPC   GL231262  18.995   8.360   8.850
 5598POPC   C1A31263  19.099   8.208   8.550
 5598POPC   D2A31264  19.076   8.222   8.250
 5598POPC   C3A31265  19.036   8.243   7.950
 5598POPC   C4A31266  19.096   8.236   7.650
 5598POPC   C1B31267  18.961   8.405   8.550
 5598POPC   C2B31268  18.995   8.417   8.250
 5598POPC   C3B31269  19.023   8.444   7.950
 5598POPC   C4B31270  18.963   8.431   7.650
 5599POPC   NC331271  39.196  32.254   9.450
 5599POPC   PO431272  39.224  32.251   9.150
 5599POPC   GL131273  39.256  32.231   8.850
 5599POPC   GL231274  39.313  32.280   8.850
 5599POPC   C1A31275  39.233  32.227   8.550
 5599POPC   D2A31276  39.215  32.260   8.250
 5599POPC   C3A31277  39.214  32.203   7.950
 5599POPC   C4A31278  39.241  32.270   7.650
 5599POPC   C1B31279  39.433  32.378   8.550
 5599POPC   C2B31280  39.435  32.327   8.250
 5599POPC   C3B31281  39.472  32.327   7.950
 5599POPC   C4B31282  39.449  32.386   7.650
 5600POPC   NC331283  33.786   4.358   9.450
 5600POPC   PO431284  33.804   4.316   9.150
 5600POPC   GL131285  33.845   4.338   8.850
 5600POPC   GL231286  33.750   4.370   8.850
 5600POPC   C1A31287  33.802   4.268   8.550
 5600POPC   D2A31288  33.808   4.349   8.250
 5600POPC   C3A31289  33.819   4.276   7.950
 5600POPC   C4A31290  33.804   4.297   7.650
 5600POPC   C1B31291  33.633   4.548   8.550
 5600POPC   C2B31292  33.601   4.521   8.250
 5600POPC   C3B31293  33.671   4.487   7.950
 5600POPC   C4B31294  33.644   4.468   7.650
 5601POPC   NC331295  18.282  40.740   9.450
 5601POPC   PO431296  18.270  40.751   9.150
 5601POPC   GL131297  18.245  40.751   8.850
 5601POPC   GL231298  18.143  40.839   8.850
 5601POPC   C1A31299  18.325  40.799   8.550
 5601POPC   D2A31300  18.270  40.826   8.250
 5601POPC   C3A31301  18.269  40.774   7.950
 5601POPC   C4A31302  18.318  40.772   7.650
 5601POPC   C1B31303  18.081  40.862   8.550
 5601POPC   C2B31304  18.030  40.877   8.250
 5601POPC   C3B31305  18.077  40.907   7.950
 5601POPC   C4B31306  18.052  40.877   7.650
 5602POPC   NC331307   2.722  19.025   9.450
 5602POPC   PO431308   2.778  19.071   9.150
 5602POPC   GL131309   2.806  19.032   8.850
 5602POPC   GL231310   2.927  19.112   8.850
 5602POPC   C1A31311   2.729  19.071   8.550
 5602POPC   D2A31312   2.815  19.069   8.250
 5602POPC   C3A31313   2.779  19.074   7.950
 5602POPC   C4A31314   2.778  19.026   7.650
 5602POPC   C1B31315   3.011  19.185   8.550
 5602POPC   C2B31316   3.003  19.143   8.250
 5602POPC   C3B31317   2.988  19.205   7.950
 5602POPC   C4B31318   2.942  19.153   7.650
 5603POPC   NC331319  32.256   9.783   9.450
 5603POPC   PO431320  32.277   9.702   9.150
 5603POPC   GL131321  32.212   9.759   8.850
 5603POPC   GL231322  32.397   9.705   8.850
 5603POPC   C1A31323  32.228   9.747   8.550
 5603POPC   D2A31324  32.254   9.728   8.250
 5603POPC   C3A31325  32.284   9.792   7.950
 5603POPC   C4A31326  32.289   9.764   7.650
 5603POPC   C1B31327  32.491   9.654   8.550
 5603POPC   C2B31328  32.466   9.648   8.250
 5603POPC   C3B31329  32.455   9.700   7.950
 5603POPC   C4B31330  32.507   9.630   7.650
 5604POPC   NC331331  15.958  41.510   9.450
 5604POPC   PO431332  16.001  41.517   9.150
 5604POPC   GL131333  15.908  41.536   8.850
 5604POPC   GL231334  16.018  41.414   8.850
 5604POPC   C1A31335  15.962  41.603   8.550
 5604POPC   D2A31336  15.989  41.577   8.250
 5604POPC   C3A31337  15.986  41.534   7.950
 5604POPC   C4A31338  15.958  41.570   7.650
 5604POPC   C1B31339  16.075  41.324   8.550
 5604POPC   C2B31340  16.054  41.369   8.250
 5604POPC   C3B31341  16.104  41.330   7.950
 5604POPC   C4B31342  16.130  41.381   7.650
 5605POPC   NC331343  10.560   5.900   9.450
 5605POPC   PO431344  10.505   5.883   9.150
 5605POPC   GL131345  10.513   5.866   8.850
 5605POPC   GL231346  10.632   5.878   8.850
 5605POPC   C1A31347  10.545   5.895   8.550
 5605POPC   D2A31348  10.540   5.882   8.250
 5605POPC   C3A31349  10.487   5.853   7.950
 5605POPC   C4A31350  10.523   5.837   7.650
 5605POPC   C1B31351  10.762   6.030   8.550
 5605POPC   C2B31352  10.787   6.020   8.250
 5605POPC   C3B31353  10.777   5.999   7.950
 5605POPC   C4B31354  10.698   5.994   7.650
 5606POPC   NC331355  28.323  22.130   9.450
 5606POPC   PO431356  28.356  22.180   9.150
 5606POPC   GL131357  28.354  22.191   8.850
 5606POPC   GL231358  28.493  22.056   8.850
 5606POPC   C1A31359  28.394  22.150   8.550
 5606POPC   D2A31360  28.322  22.140   8.250
 5606POPC   C3A31361  28.320  22.178   7.950
 5606POPC   C4A31362  28.330  22.131   7.650
 5606POPC   C1B31363  28.548  22.059   8.550
 5606POPC   C2B31364  28.618  22.040   8.250
 5606POPC   C3B31365  28.619  21.991   7.950
 5606POPC   C4B31366  28.577  22.075   7.650
 5607POPC   NC331367  14.356  22.973   9.450
 5607POPC   PO431368  14.368  22.978   9.150
 5607POPC   GL131369  14.448  22.922   8.850
 5607POPC   GL231370  14.328  22.800   8.850
 5607POPC   C1A31371  14.371  22.905   8.550
 5607POPC   D2A31372  14.451  22.947   8.250
 5607POPC   C3A31373  14.400  22.942   7.950
 5607POPC   C4A31374  14.432  22.896   7.650
 5607POPC   C1B31375  14.352  22.696   8.550
 5607POPC   C2B31376  14.332  22.715   8.250
 5607POPC   C3B31377  14.282  22.662   7.950
 5607POPC   C4B31378  14.273  22.745   7.650
 5608POPC   NC331379  28.357  29.108   9.450
 5608POPC   PO431380  28.371  29.111   9.150
 5608POPC   GL131381  28.354  29.187   8.850
 5608POPC   GL231382  28.413  29.300   8.850
 5608POPC   C1A31383  28.349  29.144   8.550
 5608POPC   D2A31384  28.402  29.116   8.250
 5608POPC   C3A31385  28.366  29.110   7.950
 5608POPC   C4A31386  28.350  29.191   7.650
 5608POPC   C1B31387  28.439  29.348   8.550
 5608POPC   C2B31388  28.451  29.414   8.250
 5608POPC   C3B31389  28.428  29.402   7.950
 5608POPC   C4B31390  28.445  29.420   7.650
 5609POPC   NC331391  42.312  31.447   9.450
 5609POPC   PO431392  42.350  31.433   9.150
 5609POPC   GL131393  42.359  31.462   8.850
 5609POPC   GL231394  42.440  31.471   8.850
 5609POPC   C1A31395  42.300  31.439   8.550
 5609POPC   D2A31396  42.376  31.485   8.250
 5609POPC   C3A31397  42.357  31.491   7.950
 5609POPC   C4A31398  42.294  31.475   7.650
 5609POPC   C1B31399  42.553  31.349   8.550
 5609POPC   C2B31400  42.537  31.359   8.250
 5609POPC   C3B31401  42.587  31.336   7.950
 5609POPC   C4B31402  42.594  31.329   7.650
 5610POPC   NC331403   6.695  34.571   9.450
 5610POPC   PO431404   6.684  34.538   9.150
 5610POPC   GL131405   6.673  34.625   8.850
 5610POPC   GL231406   6.557  34.710   8.850
 5610POPC   C1A31407   6.612  34.537   8.550
 5610POPC   D2A31408   6.643  34.540   8.250
 5610POPC   C3A31409   6.610  34.604   7.950
 5610POPC   C4A31410   6.598  34.575   7.650
 5610POPC   C1B31411   6.515  34.819   8.550
 5610POPC   C2B31412   6.539  34.770   8.250
 5610POPC   C3B31413   6.533  34.763   7.950
 5610POPC   C4B31414   6.503  34.759   7.650
 5611POPC   NC331415  38.420  43.869   9.450
 5611POPC   PO431416  38.450  43.892   9.150
 5611POPC   GL131417  38.455  43.870   8.850
 5611POPC   GL231418  38.612  43.851   8.850
 5611POPC   C1A31419  38.460  43.882   8.550
 5611POPC   D2A31420  38.449  43.913   8.250
 5611POPC   C3A31421  38.471  43.878   7.950
 5611POPC   C4A31422  38.425  43.854   7.650
 5611POPC   C1B31423  38.686  43.896   8.550
 5611POPC   C2B31424  38.666  43.942   8.250
 5611POPC   C3B31425  38.669  43.884   7.950
 5611POPC   C4B31426  38.732  43.893   7.650
 5612POPC   NC331427  22.976  38.432   9.450
 5612POPC   PO431428  22.965  38.502   9.150
 5612POPC   GL131429  22.934  38.432   8.850
 5612POPC   GL231430  22.971  38.351   8.850
 5612POPC   C1A31431  22.959  38.446   8.550
 5612POPC   D2A31432  22.898  38.446   8.250
 5612POPC   C3A31433  22.963  38.457   7.950
 5612POPC   C4A31434  22.922  38.446   7.650
 5612POPC   C1B31435  23.026  38.261   8.550
 5612POPC   C2B31436  23.090  38.207   8.250
 5612POPC   C3B31437  23.067  38.266   7.950
 5612POPC   C4B31438  23.061  38.194   7.650
 5613POPC   NC331439  25.263  28.416   9.450
 5613POPC   PO431440  25.237  28.397   9.150
 5613POPC   GL131441  25.224  28.324   8.850
 5613POPC   GL231442  25.143  28.389   8.850
 5613POPC   C1A31443  25.256  28.366   8.550
 5613POPC   D2A31444  25.282  28.339   8.250
 5613POPC   C3A31445  25.223  28.340   7.950
 5613POPC   C4A31446  25.302  28.323   7.650
 5613POPC   C1B31447  25.063  28.325   8.550
 5613POPC   C2B31448  24.976  28.295   8.250
 5613POPC   C3B31449  25.004  28.323   7.950
 5613POPC   C4B31450  25.005  28.290   7.650
 5614POPC   NC331451  32.227  28.386   9.450
 5614POPC   PO431452  32.212  28.416   9.150
 5614POPC   GL131453  32.250  28.417   8.850
 5614POPC   GL231454  32.198  28.501   8.850
 5614POPC   C1A31455  32.279  28.332   8.550
 5614POPC   D2A31456  32.233  28.386   8.250
 5614POPC   C3A31457  32.239  28.324   7.950
 5614POPC   C4A31458  32.238  28.372   7.650
 5614POPC   C1B31459  32.110  28.630   8.550
 5614POPC   C2B31460  32.129  28.564   8.250
 5614POPC   C3B31461  32.172  28.616   7.950
 5614POPC   C4B31462  32.154  28.546   7.650
 5615POPC   NC331463   2.764  36.112   9.450
 5615POPC   PO431464   2.724  36.173   9.150
 5615POPC   GL131465   2.781  36.163   8.850
 5615POPC   GL231466   2.872  36.161   8.850
 5615POPC   C1A31467   2.756  36.153   8.550
 5615POPC   D2A31468   2.790  36.093   8.250
 5615POPC   C3A31469   2.761  36.113   7.950
 5615POPC   C4A31470   2.770  36.098   7.650
 5615POPC   C1B31471   2.976  36.141   8.550
 5615POPC   C2B31472   3.035  36.108   8.250
 5615POPC   C3B31473   3.014  36.112   7.950
 5615POPC   C4B31474   2.982  36.176   7.650
 5616POPC   NC331475  42.313   3.528   9.450
 5616POPC   PO431476  42.305   3.585   9.150
 5616POPC   GL131477  42.309   3.580   8.850
 5616POPC   GL231478  42.254   3.462   8.850
 5616POPC   C1A31479  42.347   3.562   8.550
 5616POPC   D2A31480  42.356   3.542   8.250
 5616POPC   C3A31481  42.351   3.543   7.950
 5616POPC   C4A31482  42.314   3.588   7.650
 5616POPC   C1B31483  42.092   3.406   8.550
 5616POPC   C2B31484  42.111   3.482   8.250
 5616POPC   C3B31485  42.159   3.447   7.950
 5616POPC   C4B31486  42.084   3.422   7.650
 5617POPC   NC331487  26.795   9.021   9.450
 5617POPC   PO431488  26.782   8.961   9.150
 5617POPC   GL131489  26.825   8.986   8.850
 5617POPC   GL231490  26.897   9.077   8.850
 5617POPC   C1A31491  26.861   8.927   8.550
 5617POPC   D2A31492  26.807   8.955   8.250
 5617POPC   C3A31493  26.768   9.006   7.950
 5617POPC   C4A31494  26.821   8.969   7.650
 5617POPC   C1B31495  26.907   9.198   8.550
 5617POPC   C2B31496  26.966   9.165   8.250
 5617POPC   C3B31497  26.976   9.160   7.950
 5617POPC   C4B31498  26.975   9.142   7.650
 5618POPC   NC331499  40.750  16.780   9.450
 5618POPC   PO431500  40.826  16.732   9.150
 5618POPC   GL131501  40.743  16.720   8.850
 5618POPC   GL231502  40.901  16.841   8.850
 5618POPC   C1A31503  40.752  16.700   8.550
 5618POPC   D2A31504  40.789  16.778   8.250
 5618POPC   C3A31505  40.768  16.718   7.950
 5618POPC   C4A31506  40.756  16.770   7.650
 5618POPC   C1B31507  40.965  16.898   8.550
 5618POPC   C2B31508  40.986  16.926   8.250
 5618POPC   C3B31509  40.925  16.860   7.950
 5618POPC   C4B31510  40.965  16.918   7.650
 5619POPC   NC331511  12.853  23.720   9.450
 5619POPC   PO431512  12.835  23.693   9.150
 5619POPC   GL131513  12.841  23.725   8.850
 5619POPC   GL231514  12.908  23.830   8.850
 5619POPC   C1A31515  12.898  23.707   8.550
 5619POPC   D2A31516  12.819  23.743   8.250
 5619POPC   C3A31517  12.820  23.738   7.950
 5619POPC   C4A31518  12.874  23.751   7.650
 5619POPC   C1B31519  13.025  23.870   8.550
 5619POPC   C2B31520  13.056  23.813   8.250
 5619POPC   C3B31521  13.018  23.810   7.950
 5619POPC   C4B31522  13.039  23.829   7.650
 5620POPC   NC331523   0.459   8.235   9.450
 5620POPC   PO431524   0.455   8.186   9.150
 5620POPC   GL131525   0.408   8.232   8.850
 5620POPC   GL231526   0.332   8.307   8.850
 5620POPC   C1A31527   0.397   8.150   8.550
 5620POPC   D2A31528   0.463   8.163   8.250
 5620POPC   C3A31529   0.478   8.246   7.950
 5620POPC   C4A31530   0.425   8.153   7.650
 5620POPC   C1B31531   0.287   8.325   8.550
 5620POPC   C2B31532   0.287   8.338   8.250
 5620POPC   C3B31533   0.235   8.340   7.950
 5620POPC   C4B31534   0.270   8.387   7.650
 5621POPC   NC331535  26.063  12.038   9.450
 5621POPC   PO431536  26.053  12.059   9.150
 5621POPC   GL131537  26.032  12.080   8.850
 5621POPC   GL231538  25.867  12.031   8.850
 5621POPC   C1A31539  26.034  12.038   8.550
 5621POPC   D2A31540  26.076  12.124   8.250
 5621POPC   C3A31541  26.065  12.085   7.950
 5621POPC   C4A31542  26.062  12.100   7.650
 5621POPC   C1B31543  25.787  12.127   8.550
 5621POPC   C2B31544  25.803  12.126   8.250
 5621POPC   C3B31545  25.781  12.103   7.950
 5621POPC   C4B31546  25.818  12.104   7.650
 5622POPC   NC331547  26.059  36.133   9.450
 5622POPC   PO431548  26.074  36.164   9.150
 5622POPC   GL131549  25.993  36.116   8.850
 5622POPC   GL231550  26.188  36.093   8.850
 5622POPC   C1A31551  26.022  36.078   8.550
 5622POPC   D2A31552  26.017  36.101   8.250
 5622POPC   C3A31553  26.002  36.088   7.950
 5622POPC   C4A31554  26.014  36.083   7.650
 5622POPC   C1B31555  26.229  35.974   8.550
 5622POPC   C2B31556  26.294  35.962   8.250
 5622POPC   C3B31557  26.265  36.034   7.950
 5622POPC   C4B31558  26.253  35.958   7.650
 5623POPC   NC331559  14.413   8.198   9.450
 5623POPC   PO431560  14.412   8.201   9.150
 5623POPC   GL131561  14.393   8.189   8.850
 5623POPC   GL231562  14.465   8.048   8.850
 5623POPC   C1A31563  14.362   8.149   8.550
 5623POPC   D2A31564  14.399   8.199   8.250
 5623POPC   C3A31565  14.366   8.241   7.950
 5623POPC   C4A31566  14.360   8.160   7.650
 5623POPC   C1B31567  14.488   7.981   8.550
 5623POPC   C2B31568  14.435   7.992   8.250
 5623POPC   C3B31569  14.483   7.957   7.950
 5623POPC   C4B31570  14.462   7.994   7.650
 5624POPC   NC331571  26.837   2.017   9.450
 5624POPC   PO431572  26.784   2.030   9.150
 5624POPC   GL131573  26.801   1.947   8.850
 5624POPC   GL231574  26.833   1.816   8.850
 5624POPC   C1A31575  26.841   1.992   8.550
 5624POPC   D2A31576  26.845   1.988   8.250
 5624POPC   C3A31577  26.854   1.955   7.950
 5624POPC   C4A31578  26.782   1.947   7.650
 5624POPC   C1B31579  26.818   1.723   8.550
 5624POPC   C2B31580  26.792   1.714   8.250
 5624POPC   C3B31581  26.767   1.758   7.950
 5624POPC   C4B31582  26.764   1.757   7.650
 5625POPC   NC331583  16.688  40.799   9.450
 5625POPC   PO431584  16.755  40.793   9.150
 5625POPC   GL131585  16.705  40.796   8.850
 5625POPC   GL231586  16.878  40.853   8.850
 5625POPC   C1A31587  16.715  40.778   8.550
 5625POPC   D2A31588  16.737  40.787   8.250
 5625POPC   C3A31589  16.705  40.764   7.950
 5625POPC   C4A31590  16.777  40.811   7.650
 5625POPC   C1B31591  16.959  40.962   8.550
 5625POPC   C2B31592  16.881  40.908   8.250
 5625POPC   C3B31593  16.971  40.914   7.950
 5625POPC   C4B31594  16.916  40.910   7.650
 5626POPC   NC331595  44.651  41.524   9.450
 5626POPC   PO431596  44.642  41.583   9.150
 5626POPC   GL131597  44.628  41.558   8.850
 5626POPC   GL231598  44.565  41.480   8.850
 5626POPC   C1A31599  44.622  41.594   8.550
 5626POPC   D2A31600  44.681  41.598   8.250
 5626POPC   C3A31601  44.701  41.516   7.950
 5626POPC   C4A31602  44.638  41.516   7.650
 5626POPC   C1B31603  44.465  41.471   8.550
 5626POPC   C2B31604  44.426  41.495   8.250
 5626POPC   C3B31605  44.461  41.453   7.950
 5626POPC   C4B31606  44.452  41.445   7.650
 5627POPC   NC331607  42.353  22.904   9.450
 5627POPC   PO431608  42.306  22.956   9.150
 5627POPC   GL131609  42.323  22.964   8.850
 5627POPC   GL231610  42.370  22.789   8.850
 5627POPC   C1A31611  42.337  22.901   8.550
 5627POPC   D2A31612  42.338  22.952   8.250
 5627POPC   C3A31613  42.328  22.973   7.950
 5627POPC   C4A31614  42.369  22.930   7.650
 5627POPC   C1B31615  42.431  22.681   8.550
 5627POPC   C2B31616  42.335  22.689   8.250
 5627POPC   C3B31617  42.427  22.691   7.950
 5627POPC   C4B31618  42.370  22.657   7.650
 5628POPC   NC331619   0.415  19.028   9.450
 5628POPC   PO431620   0.464  19.094   9.150
 5628POPC   GL131621   0.426  19.023   8.850
 5628POPC   GL231622   0.553  19.125   8.850
 5628POPC   C1A31623   0.390  19.087   8.550
 5628POPC   D2A31624   0.449  19.049   8.250
 5628POPC   C3A31625   0.452  19.090   7.950
 5628POPC   C4A31626   0.396  19.024   7.650
 5628POPC   C1B31627   0.581  19.181   8.550
 5628POPC   C2B31628   0.654  19.268   8.250
 5628POPC   C3B31629   0.640  19.237   7.950
 5628POPC   C4B31630   0.641  19.269   7.650
 5629POPC   NC331631   7.445  16.731   9.450
 5629POPC   PO431632   7.385  16.713   9.150
 5629POPC   GL131633   7.409  16.723   8.850
 5629POPC   GL231634   7.462  16.810   8.850
 5629POPC   C1A31635   7.421  16.682   8.550
 5629POPC   D2A31636   7.394  16.774   8.250
 5629POPC   C3A31637   7.395  16.750   7.950
 5629POPC   C4A31638   7.371  16.705   7.650
 5629POPC   C1B31639   7.570  16.945   8.550
 5629POPC   C2B31640   7.488  16.967   8.250
 5629POPC   C3B31641   7.568  16.943   7.950
 5629POPC   C4B31642   7.525  16.913   7.650
 5630POPC   NC331643   7.408  21.433   9.450
 5630POPC   PO431644   7.396  21.400   9.150
 5630POPC   GL131645   7.406  21.371   8.850
 5630POPC   GL231646   7.500  21.380   8.850
 5630POPC   C1A31647   7.432  21.405   8.550
 5630POPC   D2A31648   7.395  21.351   8.250
 5630POPC   C3A31649   7.377  21.414   7.950
 5630POPC   C4A31650   7.410  21.343   7.650
 5630POPC   C1B31651   7.609  21.317   8.550
 5630POPC   C2B31652   7.648  21.262   8.250
 5630POPC   C3B31653   7.664  21.271   7.950
 5630POPC   C4B31654   7.672  21.349   7.650
 5631POPC   NC331655   3.493  19.817   9.450
 5631POPC   PO431656   3.549  19.839   9.150
 5631POPC   GL131657   3.533  19.837   8.850
 5631POPC   GL231658   3.446  19.742   8.850
 5631POPC   C1A31659   3.569  19.786   8.550
 5631POPC   D2A31660   3.510  19.828   8.250
 5631POPC   C3A31661   3.579  19.828   7.950
 5631POPC   C4A31662   3.520  19.877   7.650
 5631POPC   C1B31663   3.396  19.632   8.550
 5631POPC   C2B31664   3.403  19.643   8.250
 5631POPC   C3B31665   3.384  19.634   7.950
 5631POPC   C4B31666   3.364  19.690   7.650
 5632POPC   NC331667  31.435  36.923   9.450
 5632POPC   PO431668  31.480  36.909   9.150
 5632POPC   GL131669  31.505  36.865   8.850
 5632POPC   GL231670  31.520  37.040   8.850
 5632POPC   C1A31671  31.488  36.933   8.550
 5632POPC   D2A31672  31.429  36.939   8.250
 5632POPC   C3A31673  31.465  36.928   7.950
 5632POPC   C4A31674  31.454  36.875   7.650
 5632POPC   C1B31675  31.629  37.140   8.550
 5632POPC   C2B31676  31.649  37.049   8.250
 5632POPC   C3B31677  31.606  37.130   7.950
 5632POPC   C4B31678  31.613  37.121   7.650
 5633POPC   NC331679   5.140  41.569   9.450
 5633POPC   PO431680   5.136  41.514   9.150
 5633POPC   GL131681   5.066  41.566   8.850
 5633POPC   GL231682   5.145  41.443   8.850
 5633POPC   C1A31683   5.105  41.518   8.550
 5633POPC   D2A31684   5.047  41.589   8.250
 5633POPC   C3A31685   5.109  41.576   7.950
 5633POPC   C4A31686   5.084  41.536   7.650
 5633POPC   C1B31687   5.165  41.331   8.550
 5633POPC   C2B31688   5.196  41.317   8.250
 5633POPC   C3B31689   5.217  41.274   7.950
 5633POPC   C4B31690   5.148  41.356   7.650
 5634POPC   NC331691   7.378  36.949   9.450
 5634POPC   PO431692   7.384  36.898   9.150
 5634POPC   GL131693   7.388  36.881   8.850
 5634POPC   GL231694   7.501  36.823   8.850
 5634POPC   C1A31695   7.458  36.854   8.550
 5634POPC   D2A31696   7.465  36.917   8.250
 5634POPC   C3A31697   7.375  36.898   7.950
 5634POPC   C4A31698   7.383  36.871   7.650
 5634POPC   C1B31699   7.627  36.725   8.550
 5634POPC   C2B31700   7.627  36.677   8.250
 5634POPC   C3B31701   7.595  36.734   7.950
 5634POPC   C4B31702   7.595  36.714   7.650
 5635POPC   NC331703  40.803  32.238   9.450
 5635POPC   PO431704  40.737  32.262   9.150
 5635POPC   GL131705  40.746  32.243   8.850
 5635POPC   GL231706  40.716  32.137   8.850
 5635POPC   C1A31707  40.767  32.208   8.550
 5635POPC   D2A31708  40.833  32.224   8.250
 5635POPC   C3A31709  40.795  32.274   7.950
 5635POPC   C4A31710  40.758  32.203   7.650
 5635POPC   C1B31711  40.761  32.037   8.550
 5635POPC   C2B31712  40.745  31.984   8.250
 5635POPC   C3B31713  40.672  31.969   7.950
 5635POPC   C4B31714  40.738  32.034   7.650
 5636POPC   NC331715  18.275  16.773   9.450
 5636POPC   PO431716  18.253  16.722   9.150
 5636POPC   GL131717  18.301  16.700   8.850
 5636POPC   GL231718  18.423  16.720   8.850
 5636POPC   C1A31719  18.292  16.781   8.550
 5636POPC   D2A31720  18.247  16.722   8.250
 5636POPC   C3A31721  18.304  16.715   7.950
 5636POPC   C4A31722  18.249  16.751   7.650
 5636POPC   C1B31723  18.499  16.712   8.550
 5636POPC   C2B31724  18.492  16.783   8.250
 5636POPC   C3B31725  18.540  16.806   7.950
 5636POPC   C4B31726  18.508  16.710   7.650
 5637POPC   NC331727  17.548  15.197   9.450
 5637POPC   PO431728  17.512  15.222   9.150
 5637POPC   GL131729  17.530  15.209   8.850
 5637POPC   GL231730  17.400  15.146   8.850
 5637POPC   C1A31731  17.483  15.136   8.550
 5637POPC   D2A31732  17.487  15.176   8.250
 5637POPC   C3A31733  17.543  15.165   7.950
 5637POPC   C4A31734  17.543  15.167   7.650
 5637POPC   C1B31735  17.208  15.243   8.550
 5637POPC   C2B31736  17.260  15.191   8.250
 5637POPC   C3B31737  17.226  15.165   7.950
 5637POPC   C4B31738  17.243  15.177   7.650
 5638POPC   NC331739  40.012   2.035   9.450
 5638POPC   PO431740  39.994   1.980   9.150
 5638POPC   GL131741  39.995   2.028   8.850
 5638POPC   GL231742  39.890   2.073   8.850
 5638POPC   C1A31743  40.015   1.953   8.550
 5638POPC   D2A31744  39.978   1.943   8.250
 5638POPC   C3A31745  39.973   2.038   7.950
 5638POPC   C4A31746  39.990   1.973   7.650
 5638POPC   C1B31747  39.813   2.117   8.550
 5638POPC   C2B31748  39.764   2.152   8.250
 5638POPC   C3B31749  39.825   2.134   7.950
 5638POPC   C4B31750  39.752   2.141   7.650
 5639POPC   NC331751  14.445  12.875   9.450
 5639POPC   PO431752  14.399  12.853   9.150
 5639POPC   GL131753  14.380  12.836   8.850
 5639POPC   GL231754  14.444  12.696   8.850
 5639POPC   C1A31755  14.430  12.900   8.550
 5639POPC   D2A31756  14.380  12.846   8.250
 5639POPC   C3A31757  14.449  12.826   7.950
 5639POPC   C4A31758  14.362  12.805   7.650
 5639POPC   C1B31759  14.403  12.652   8.550
 5639POPC   C2B31760  14.376  12.558   8.250
 5639POPC   C3B31761  14.410  12.565   7.950
 5639POPC   C4B31762  14.437  12.604   7.650
 5640POPC   NC331763   7.426  14.375   9.450
 5640POPC   PO431764   7.394  14.416   9.150
 5640POPC   GL131765   7.436  14.440   8.850
 5640POPC   GL231766   7.502  14.497   8.850
 5640POPC   C1A31767   7.387  14.370   8.550
 5640POPC   D2A31768   7.460  14.422   8.250
 5640POPC   C3A31769   7.408  14.387   7.950
 5640POPC   C4A31770   7.438  14.450   7.650
 5640POPC   C1B31771   7.585  14.555   8.550
 5640POPC   C2B31772   7.606  14.596   8.250
 5640POPC   C3B31773   7.553  14.589   7.950
 5640POPC   C4B31774   7.649  14.535   7.650
 5641POPC   NC331775  28.387  17.503   9.450
 5641POPC   PO431776  28.350  17.503   9.150
 5641POPC   GL131777  28.401  17.487   8.850
 5641POPC   GL231778  28.364  17.398   8.850
 5641POPC   C1A31779  28.337  17.490   8.550
 5641POPC   D2A31780  28.382  17.545   8.250
 5641POPC   C3A31781  28.331  17.459   7.950
 5641POPC   C4A31782  28.321  17.528   7.650
 5641POPC   C1B31783  28.235  17.247   8.550
 5641POPC   C2B31784  28.265  17.265   8.250
 5641POPC   C3B31785  28.315  17.323   7.950
 5641POPC   C4B31786  28.286  17.275   7.650
 5642POPC   NC331787  36.114  22.205   9.450
 5642POPC   PO431788  36.091  22.140   9.150
 5642POPC   GL131789  36.103  22.171   8.850
 5642POPC   GL231790  35.971  22.141   8.850
 5642POPC   C1A31791  36.108  22.189   8.550
 5642POPC   D2A31792  36.151  22.182   8.250
 5642POPC   C3A31793  36.103  22.176   7.950
 5642POPC   C4A31794  36.168  22.113   7.650
 5642POPC   C1B31795  35.872  22.169   8.550
 5642POPC   C2B31796  35.919  22.127   8.250
 5642POPC   C3B31797  35.902  22.089   7.950
 5642POPC   C4B31798  35.877  22.108   7.650
 5643POPC   NC331799  16.702  22.158   9.450
 5643POPC   PO431800  16.689  22.112   9.150
 5643POPC   GL131801  16.768  22.131   8.850
 5643POPC   GL231802  16.675  22.061   8.850
 5643POPC   C1A31803  16.682  22.151   8.550
 5643POPC   D2A31804  16.717  22.116   8.250
 5643POPC   C3A31805  16.751  22.163   7.950
 5643POPC   C4A31806  16.726  22.210   7.650
 5643POPC   C1B31807  16.678  21.930   8.550
 5643POPC   C2B31808  16.642  21.946   8.250
 5643POPC   C3B31809  16.670  21.890   7.950
 5643POPC   C4B31810  16.620  21.918   7.650
 5644POPC   NC331811  23.680   7.393   9.450
 5644POPC   PO431812  23.743   7.443   9.150
 5644POPC   GL131813  23.685   7.458   8.850
 5644POPC   GL231814  23.849   7.512   8.850
 5644POPC   C1A31815  23.751   7.401   8.550
 5644POPC   D2A31816  23.718   7.424   8.250
 5644POPC   C3A31817  23.746   7.462   7.950
 5644POPC   C4A31818  23.708   7.395   7.650
 5644POPC   C1B31819  23.954   7.521   8.550
 5644POPC   C2B31820  23.969   7.501   8.250
 5644POPC   C3B31821  23.906   7.513   7.950
 5644POPC   C4B31822  23.990   7.514   7.650
 5645POPC   NC331823  26.018  40.012   9.450
 5645POPC   PO431824  26.086  40.031   9.150
 5645POPC   GL131825  26.003  40.002   8.850
 5645POPC   GL231826  25.969  40.124   8.850
 5645POPC   C1A31827  26.087  39.996   8.550
 5645POPC   D2A31828  26.008  40.033   8.250
 5645POPC   C3A31829  26.008  39.962   7.950
 5645POPC   C4A31830  26.047  40.012   7.650
 5645POPC   C1B31831  25.951  40.210   8.550
 5645POPC   C2B31832  25.898  40.238   8.250
 5645POPC   C3B31833  25.926  40.272   7.950
 5645POPC   C4B31834  25.947  40.226   7.650
 5646POPC   NC331835  24.523  13.583   9.450
 5646POPC   PO431836  24.512  13.610   9.150
 5646POPC   GL131837  24.510  13.623   8.850
 5646POPC   GL231838  24.525  13.757   8.850
 5646POPC   C1A31839  24.537  13.620   8.550
 5646POPC   D2A31840  24.481  13.658   8.250
 5646POPC   C3A31841  24.446  13.617   7.950
 5646POPC   C4A31842  24.516  13.662   7.650
 5646POPC   C1B31843  24.508  13.873   8.550
 5646POPC   C2B31844  24.490  13.854   8.250
 5646POPC   C3B31845  24.484  13.909   7.950
 5646POPC   C4B31846  24.563  13.907   7.650
 5647POPC   NC331847  14.409  19.848   9.450
 5647POPC   PO431848  14.361  19.818   9.150
 5647POPC   GL131849  14.422  19.791   8.850
 5647POPC   GL231850  14.503  19.897   8.850
 5647POPC   C1A31851  14.422  19.827   8.550
 5647POPC   D2A31852  14.408  19.805   8.250
 5647POPC   C3A31853  14.377  19.819   7.950
 5647POPC   C4A31854  14.448  19.877   7.650
 5647POPC   C1B31855  14.543  20.022   8.550
 5647POPC   C2B31856  14.541  20.054   8.250
 5647POPC   C3B31857  14.594  20.022   7.950
 5647POPC   C4B31858  14.538  20.003   7.650
 5648POPC   NC331859   0.406  18.283   9.450
 5648POPC   PO431860   0.428  18.259   9.150
 5648POPC   GL131861   0.474  18.241   8.850
 5648POPC   GL231862   0.360  18.397   8.850
 5648POPC   C1A31863   0.478  18.267   8.550
 5648POPC   D2A31864   0.397  18.320   8.250
 5648POPC   C3A31865   0.486  18.237   7.950
 5648POPC   C4A31866   0.447  18.329   7.650
 5648POPC   C1B31867   0.262  18.510   8.550
 5648POPC   C2B31868   0.316  18.516   8.250
 5648POPC   C3B31869   0.291  18.472   7.950
 5648POPC   C4B31870   0.325  18.455   7.650
 5649POPC   NC331871   1.254  26.031   9.450
 5649POPC   PO431872   1.218  26.039   9.150
 5649POPC   GL131873   1.193  26.016   8.850
 5649POPC   GL231874   1.282  26.107   8.850
 5649POPC   C1A31875   1.211  26.043   8.550
 5649POPC   D2A31876   1.196  26.063   8.250
 5649POPC   C3A31877   1.261  26.012   7.950
 5649POPC   C4A31878   1.196  26.017   7.650
 5649POPC   C1B31879   1.421  26.146   8.550
 5649POPC   C2B31880   1.417  26.177   8.250
 5649POPC   C3B31881   1.422  26.120   7.950
 5649POPC   C4B31882   1.457  26.186   7.650
 5650POPC   NC331883  19.049   9.717   9.450
 5650POPC   PO431884  19.015   9.795   9.150
 5650POPC   GL131885  19.084   9.740   8.850
 5650POPC   GL231886  18.902   9.663   8.850
 5650POPC   C1A31887  19.043   9.717   8.550
 5650POPC   D2A31888  19.100   9.720   8.250
 5650POPC   C3A31889  19.044   9.777   7.950
 5650POPC   C4A31890  19.080   9.704   7.650
 5650POPC   C1B31891  18.826   9.665   8.550
 5650POPC   C2B31892  18.819   9.667   8.250
 5650POPC   C3B31893  18.811   9.685   7.950
 5650POPC   C4B31894  18.858   9.701   7.650
 5651POPC   NC331895  16.757  12.896   9.450
 5651POPC   PO431896  16.762  12.863   9.150
 5651POPC   GL131897  16.738  12.878   8.850
 5651POPC   GL231898  16.656  12.728   8.850
 5651POPC   C1A31899  16.741  12.843   8.550
 5651POPC   D2A31900  16.685  12.811   8.250
 5651POPC   C3A31901  16.751  12.828   7.950
 5651POPC   C4A31902  16.716  12.887   7.650
 5651POPC   C1B31903  16.632  12.573   8.550
 5651POPC   C2B31904  16.668  12.605   8.250
 5651POPC   C3B31905  16.633  12.617   7.950
 5651POPC   C4B31906  16.616  12.583   7.650
 5652POPC   NC331907  22.196  15.980   9.450
 5652POPC   PO431908  22.205  15.997   9.150
 5652POPC   GL131909  22.196  15.949   8.850
 5652POPC   GL231910  22.156  15.802   8.850
 5652POPC   C1A31911  22.138  15.924   8.550
 5652POPC   D2A31912  22.135  15.958   8.250
 5652POPC   C3A31913  22.190  15.950   7.950
 5652POPC   C4A31914  22.210  15.975   7.650
 5652POPC   C1B31915  22.234  15.742   8.550
 5652POPC   C2B31916  22.185  15.682   8.250
 5652POPC   C3B31917  22.174  15.746   7.950
 5652POPC   C4B31918  22.252  15.667   7.650
 5653POPC   NC331919   8.213   2.719   9.450
 5653POPC   PO431920   8.229   2.814   9.150
 5653POPC   GL131921   8.153   2.725   8.850
 5653POPC   GL231922   8.248   2.705   8.850
 5653POPC   C1A31923   8.151   2.809   8.550
 5653POPC   D2A31924   8.153   2.777   8.250
 5653POPC   C3A31925   8.213   2.758   7.950
 5653POPC   C4A31926   8.226   2.769   7.650
 5653POPC   C1B31927   8.342   2.587   8.550
 5653POPC   C2B31928   8.391   2.621   8.250
 5653POPC   C3B31929   8.390   2.633   7.950
 5653POPC   C4B31930   8.364   2.565   7.650
 5654POPC   NC331931  37.640   5.832   9.450
 5654POPC   PO431932  37.714   5.917   9.150
 5654POPC   GL131933  37.666   5.861   8.850
 5654POPC   GL231934  37.649   6.036   8.850
 5654POPC   C1A31935  37.663   5.872   8.550
 5654POPC   D2A31936  37.719   5.854   8.250
 5654POPC   C3A31937  37.713   5.889   7.950
 5654POPC   C4A31938  37.709   5.821   7.650
 5654POPC   C1B31939  37.715   6.098   8.550
 5654POPC   C2B31940  37.722   6.165   8.250
 5654POPC   C3B31941  37.668   6.128   7.950
 5654POPC   C4B31942  37.680   6.136   7.650
 5655POPC   NC331943   3.576   2.765   9.450
 5655POPC   PO431944   3.583   2.792   9.150
 5655POPC   GL131945   3.494   2.761   8.850
 5655POPC   GL231946   3.382   2.706   8.850
 5655POPC   C1A31947   3.579   2.749   8.550
 5655POPC   D2A31948   3.513   2.788   8.250
 5655POPC   C3A31949   3.554   2.716   7.950
 5655POPC   C4A31950   3.572   2.735   7.650
 5655POPC   C1B31951   3.258   2.711   8.550
 5655POPC   C2B31952   3.313   2.696   8.250
 5655POPC   C3B31953   3.342   2.719   7.950
 5655POPC   C4B31954   3.316   2.711   7.650
 5656POPC   NC331955  15.968  13.618   9.450
 5656POPC   PO431956  15.968  13.579   9.150
 5656POPC   GL131957  15.985  13.609   8.850
 5656POPC   GL231958  15.977  13.499   8.850
 5656POPC   C1A31959  15.956  13.652   8.550
 5656POPC   D2A31960  15.942  13.620   8.250
 5656POPC   C3A31961  15.921  13.610   7.950
 5656POPC   C4A31962  15.937  13.655   7.650
 5656POPC   C1B31963  15.996  13.335   8.550
 5656POPC   C2B31964  16.036  13.425   8.250
 5656POPC   C3B31965  16.033  13.382   7.950
 5656POPC   C4B31966  15.954  13.430   7.650
 5657POPC   NC331967  23.716   8.988   9.450
 5657POPC   PO431968  23.681   8.930   9.150
 5657POPC   GL131969  23.706   9.007   8.850
 5657POPC   GL231970  23.594   9.014   8.850
 5657POPC   C1A31971  23.748   9.014   8.550
 5657POPC   D2A31972  23.707   8.956   8.250
 5657POPC   C3A31973  23.714   8.989   7.950
 5657POPC   C4A31974  23.678   8.931   7.650
 5657POPC   C1B31975  23.503   8.948   8.550
 5657POPC   C2B31976  23.441   8.976   8.250
 5657POPC   C3B31977  23.436   9.025   7.950
 5657POPC   C4B31978  23.454   8.977   7.650
 5658POPC   NC331979  12.070  29.891   9.450
 5658POPC   PO431980  12.041  29.938   9.150
 5658POPC   GL131981  12.125  29.873   8.850
 5658POPC   GL231982  11.966  29.835   8.850
 5658POPC   C1A31983  12.124  29.890   8.550
 5658POPC   D2A31984  12.090  29.967   8.250
 5658POPC   C3A31985  12.116  29.921   7.950
 5658POPC   C4A31986  12.086  29.943   7.650
 5658POPC   C1B31987  11.858  29.805   8.550
 5658POPC   C2B31988  11.817  29.800   8.250
 5658POPC   C3B31989  11.818  29.836   7.950
 5658POPC   C4B31990  11.847  29.820   7.650
 5659POPC   NC331991  34.579  14.409   9.450
 5659POPC   PO431992  34.589  14.390   9.150
 5659POPC   GL131993  34.553  14.365   8.850
 5659POPC   GL231994  34.569  14.280   8.850
 5659POPC   C1A31995  34.601  14.424   8.550
 5659POPC   D2A31996  34.555  14.367   8.250
 5659POPC   C3A31997  34.598  14.426   7.950
 5659POPC   C4A31998  34.538  14.439   7.650
 5659POPC   C1B31999  34.597  14.119   8.550
 5659POPC   C2B32000  34.603  14.108   8.250
 5659POPC   C3B32001  34.518  14.131   7.950
 5659POPC   C4B32002  34.581  14.199   7.650
 5660POPC   NC332003   1.993  29.111   9.450
 5660POPC   PO432004   1.949  29.105   9.150
 5660POPC   GL132005   1.951  29.114   8.850
 5660POPC   GL232006   1.937  29.237   8.850
 5660POPC   C1A32007   2.019  29.191   8.550
 5660POPC   D2A32008   1.989  29.108   8.250
 5660POPC   C3A32009   1.992  29.177   7.950
 5660POPC   C4A32010   1.974  29.121   7.650
 5660POPC   C1B32011   1.839  29.338   8.550
 5660POPC   C2B32012   1.906  29.409   8.250
 5660POPC   C3B32013   1.869  29.350   7.950
 5660POPC   C4B32014   1.873  29.344   7.650
 5661POPC   NC332015  44.682  13.652   9.450
 5661POPC   PO432016  44.622  13.646   9.150
 5661POPC   GL132017  44.633  13.674   8.850
 5661POPC   GL232018  44.514  13.723   8.850
 5661POPC   C1A32019  44.645  13.631   8.550
 5661POPC   D2A32020  44.652  13.659   8.250
 5661POPC   C3A32021  44.689  13.629   7.950
 5661POPC   C4A32022  44.680  13.586   7.650
 5661POPC   C1B32023  44.489  13.761   8.550
 5661POPC   C2B32024  44.494  13.740   8.250
 5661POPC   C3B32025  44.449  13.770   7.950
 5661POPC   C4B32026  44.478  13.743   7.650
 5662POPC   NC332027  31.494   4.286   9.450
 5662POPC   PO432028  31.444   4.310   9.150
 5662POPC   GL132029  31.448   4.304   8.850
 5662POPC   GL232030  31.435   4.170   8.850
 5662POPC   C1A32031  31.470   4.345   8.550
 5662POPC   D2A32032  31.428   4.274   8.250
 5662POPC   C3A32033  31.452   4.340   7.950
 5662POPC   C4A32034  31.462   4.357   7.650
 5662POPC   C1B32035  31.513   4.108   8.550
 5662POPC   C2B32036  31.421   4.046   8.250
 5662POPC   C3B32037  31.491   4.088   7.950
 5662POPC   C4B32038  31.515   4.023   7.650
 5663POPC   NC332039  39.192  24.512   9.450
 5663POPC   PO432040  39.228  24.490   9.150
 5663POPC   GL132041  39.262  24.469   8.850
 5663POPC   GL232042  39.323  24.595   8.850
 5663POPC   C1A32043  39.232  24.471   8.550
 5663POPC   D2A32044  39.258  24.475   8.250
 5663POPC   C3A32045  39.220  24.483   7.950
 5663POPC   C4A32046  39.252  24.480   7.650
 5663POPC   C1B32047  39.492  24.660   8.550
 5663POPC   C2B32048  39.398  24.575   8.250
 5663POPC   C3B32049  39.473  24.653   7.950
 5663POPC   C4B32050  39.483  24.570   7.650
 5664POPC   NC332051   0.417   8.992   9.450
 5664POPC   PO432052   0.447   8.935   9.150
 5664POPC   GL132053   0.389   8.945   8.850
 5664POPC   GL232054   0.454   9.120   8.850
 5664POPC   C1A32055   0.418   9.021   8.550
 5664POPC   D2A32056   0.474   8.992   8.250
 5664POPC   C3A32057   0.416   8.955   7.950
 5664POPC   C4A32058   0.400   8.956   7.650
 5664POPC   C1B32059   0.553   9.186   8.550
 5664POPC   C2B32060   0.537   9.245   8.250
 5664POPC   C3B32061   0.544   9.205   7.950
 5664POPC   C4B32062   0.573   9.196   7.650
 5665POPC   NC332063  22.153  42.301   9.450
 5665POPC   PO432064  22.169  42.292   9.150
 5665POPC   GL132065  22.131  42.375   8.850
 5665POPC   GL232066  22.043  42.254   8.850
 5665POPC   C1A32067  22.190  42.304   8.550
 5665POPC   D2A32068  22.146  42.316   8.250
 5665POPC   C3A32069  22.122  42.380   7.950
 5665POPC   C4A32070  22.120  42.345   7.650
 5665POPC   C1B32071  21.995  42.205   8.550
 5665POPC   C2B32072  22.005  42.164   8.250
 5665POPC   C3B32073  21.942  42.189   7.950
 5665POPC   C4B32074  21.985  42.142   7.650
 5666POPC   NC332075  34.558  29.182   9.450
 5666POPC   PO432076  34.568  29.121   9.150
 5666POPC   GL132077  34.591  29.132   8.850
 5666POPC   GL232078  34.491  29.219   8.850
 5666POPC   C1A32079  34.595  29.105   8.550
 5666POPC   D2A32080  34.559  29.157   8.250
 5666POPC   C3A32081  34.579  29.166   7.950
 5666POPC   C4A32082  34.606  29.132   7.650
 5666POPC   C1B32083  34.382  29.322   8.550
 5666POPC   C2B32084  34.471  29.308   8.250
 5666POPC   C3B32085  34.459  29.356   7.950
 5666POPC   C4B32086  34.427  29.373   7.650
 5667POPC   NC332087  37.653  43.145   9.450
 5667POPC   PO432088  37.640  43.146   9.150
 5667POPC   GL132089  37.655  43.096   8.850
 5667POPC   GL232090  37.600  43.005   8.850
 5667POPC   C1A32091  37.712  43.131   8.550
 5667POPC   D2A32092  37.639  43.078   8.250
 5667POPC   C3A32093  37.660  43.141   7.950
 5667POPC   C4A32094  37.720  43.141   7.650
 5667POPC   C1B32095  37.565  42.902   8.550
 5667POPC   C2B32096  37.553  42.861   8.250
 5667POPC   C3B32097  37.538  42.935   7.950
 5667POPC   C4B32098  37.553  42.927   7.650
 5668POPC   NC332099   8.960   1.245   9.450
 5668POPC   PO432100   8.951   1.243   9.150
 5668POPC   GL132101   8.994   1.207   8.850
 5668POPC   GL232102   8.810   1.236   8.850
 5668POPC   C1A32103   8.954   1.207   8.550
 5668POPC   D2A32104   9.021   1.225   8.250
 5668POPC   C3A32105   9.006   1.231   7.950
 5668POPC   C4A32106   8.952   1.227   7.650
 5668POPC   C1B32107   8.708   1.190   8.550
 5668POPC   C2B32108   8.681   1.190   8.250
 5668POPC   C3B32109   8.752   1.261   7.950
 5668POPC   C4B32110   8.720   1.252   7.650
 5669POPC   NC332111   9.004   2.010   9.450
 5669POPC   PO432112   9.014   1.981   9.150
 5669POPC   GL132113   9.018   1.958   8.850
 5669POPC   GL232114   8.891   2.075   8.850
 5669POPC   C1A32115   8.952   2.011   8.550
 5669POPC   D2A32116   8.984   1.976   8.250
 5669POPC   C3A32117   9.006   2.015   7.950
 5669POPC   C4A32118   8.943   1.968   7.650
 5669POPC   C1B32119   8.776   2.167   8.550
 5669POPC   C2B32120   8.759   2.122   8.250
 5669POPC   C3B32121   8.739   2.171   7.950
 5669POPC   C4B32122   8.812   2.148   7.650
 5670POPC   NC332123  15.136   1.978   9.450
 5670POPC   PO432124  15.187   2.028   9.150
 5670POPC   GL132125  15.214   1.952   8.850
 5670POPC   GL232126  15.254   2.032   8.850
 5670POPC   C1A32127  15.182   2.007   8.550
 5670POPC   D2A32128  15.176   1.951   8.250
 5670POPC   C3A32129  15.154   2.011   7.950
 5670POPC   C4A32130  15.186   1.982   7.650
 5670POPC   C1B32131  15.362   2.141   8.550
 5670POPC   C2B32132  15.421   2.144   8.250
 5670POPC   C3B32133  15.411   2.116   7.950
 5670POPC   C4B32134  15.382   2.159   7.650
 5671POPC   NC332135  35.396  18.323   9.450
 5671POPC   PO432136  35.347  18.237   9.150
 5671POPC   GL132137  35.330  18.258   8.850
 5671POPC   GL232138  35.281  18.217   8.850
 5671POPC   C1A32139  35.369  18.234   8.550
 5671POPC   D2A32140  35.339  18.248   8.250
 5671POPC   C3A32141  35.340  18.288   7.950
 5671POPC   C4A32142  35.325  18.330   7.650
 5671POPC   C1B32143  35.084  18.169   8.550
 5671POPC   C2B32144  35.067  18.245   8.250
 5671POPC   C3B32145  35.121  18.209   7.950
 5671POPC   C4B32146  35.089  18.170   7.650
 5672POPC   NC332147  12.880   2.722   9.450
 5672POPC   PO432148  12.855   2.745   9.150
 5672POPC   GL132149  12.835   2.777   8.850
 5672POPC   GL232150  12.881   2.659   8.850
 5672POPC   C1A32151  12.855   2.738   8.550
 5672POPC   D2A32152  12.845   2.778   8.250
 5672POPC   C3A32153  12.842   2.772   7.950
 5672POPC   C4A32154  12.843   2.778   7.650
 5672POPC   C1B32155  12.800   2.466   8.550
 5672POPC   C2B32156  12.807   2.550   8.250
 5672POPC   C3B32157  12.843   2.536   7.950
 5672POPC   C4B32158  12.875   2.473   7.650
 5673POPC   NC332159  33.027  34.580   9.450
 5673POPC   PO432160  33.048  34.597   9.150
 5673POPC   GL132161  33.036  34.623   8.850
 5673POPC   GL232162  32.862  34.624   8.850
 5673POPC   C1A32163  33.062  34.606   8.550
 5673POPC   D2A32164  33.032  34.614   8.250
 5673POPC   C3A32165  32.998  34.541   7.950
 5673POPC   C4A32166  33.008  34.552   7.650
 5673POPC   C1B32167  32.741  34.666   8.550
 5673POPC   C2B32168  32.796  34.639   8.250
 5673POPC   C3B32169  32.795  34.662   7.950
 5673POPC   C4B32170  32.795  34.616   7.650
 5674POPC   NC332171  22.148  36.153   9.450
 5674POPC   PO432172  22.163  36.163   9.150
 5674POPC   GL132173  22.198  36.101   8.850
 5674POPC   GL232174  22.234  36.014   8.850
 5674POPC   C1A32175  22.198  36.099   8.550
 5674POPC   D2A32176  22.146  36.109   8.250
 5674POPC   C3A32177  22.168  36.080   7.950
 5674POPC   C4A32178  22.188  36.095   7.650
 5674POPC   C1B32179  22.271  35.896   8.550
 5674POPC   C2B32180  22.302  35.897   8.250
 5674POPC   C3B32181  22.310  35.936   7.950
 5674POPC   C4B32182  22.345  35.939   7.650
 5675POPC   NC332183  29.942   4.323   9.450
 5675POPC   PO432184  29.931   4.280   9.150
 5675POPC   GL132185  29.930   4.285   8.850
 5675POPC   GL232186  29.844   4.238   8.850
 5675POPC   C1A32187  29.904   4.280   8.550
 5675POPC   D2A32188  29.888   4.343   8.250
 5675POPC   C3A32189  29.905   4.270   7.950
 5675POPC   C4A32190  29.952   4.283   7.650
 5675POPC   C1B32191  29.802   4.079   8.550
 5675POPC   C2B32192  29.734   4.149   8.250
 5675POPC   C3B32193  29.787   4.096   7.950
 5675POPC   C4B32194  29.789   4.088   7.650
 5676POPC   NC332195   5.834  11.279   9.450
 5676POPC   PO432196   5.874  11.325   9.150
 5676POPC   GL132197   5.834  11.341   8.850
 5676POPC   GL232198   5.813  11.376   8.850
 5676POPC   C1A32199   5.913  11.284   8.550
 5676POPC   D2A32200   5.826  11.283   8.250
 5676POPC   C3A32201   5.914  11.273   7.950
 5676POPC   C4A32202   5.821  11.320   7.650
 5676POPC   C1B32203   5.866  11.533   8.550
 5676POPC   C2B32204   5.780  11.563   8.250
 5676POPC   C3B32205   5.831  11.537   7.950
 5676POPC   C4B32206   5.798  11.550   7.650
 5677POPC   NC332207  36.087   6.689   9.450
 5677POPC   PO432208  36.150   6.617   9.150
 5677POPC   GL132209  36.136   6.622   8.850
 5677POPC   GL232210  36.029   6.633   8.850
 5677POPC   C1A32211  36.090   6.646   8.550
 5677POPC   D2A32212  36.109   6.595   8.250
 5677POPC   C3A32213  36.175   6.694   7.950
 5677POPC   C4A32214  36.105   6.665   7.650
 5677POPC   C1B32215  35.903   6.669   8.550
 5677POPC   C2B32216  35.892   6.684   8.250
 5677POPC   C3B32217  35.870   6.709   7.950
 5677POPC   C4B32218  35.874   6.705   7.650
 5678POPC   NC332219  33.806  37.648   9.450
 5678POPC   PO432220  33.819  37.682   9.150
 5678POPC   GL132221  33.822  37.635   8.850
 5678POPC   GL232222  33.827  37.789   8.850
 5678POPC   C1A32223  33.754  37.630   8.550
 5678POPC   D2A32224  33.846  37.671   8.250
 5678POPC   C3A32225  33.802  37.662   7.950
 5678POPC   C4A32226  33.847  37.633   7.650
 5678POPC   C1B32227  33.737  37.895   8.550
 5678POPC   C2B32228  33.797  37.920   8.250
 5678POPC   C3B32229  33.733  37.911   7.950
 5678POPC   C4B32230  33.728  37.922   7.650
 5679POPC   NC332231  28.367  14.426   9.450
 5679POPC   PO432232  28.343  14.383   9.150
 5679POPC   GL132233  28.363  14.370   8.850
 5679POPC   GL232234  28.364  14.518   8.850
 5679POPC   C1A32235  28.347  14.375   8.550
 5679POPC   D2A32236  28.377  14.414   8.250
 5679POPC   C3A32237  28.378  14.359   7.950
 5679POPC   C4A32238  28.341  14.372   7.650
 5679POPC   C1B32239  28.266  14.663   8.550
 5679POPC   C2B32240  28.332  14.690   8.250
 5679POPC   C3B32241  28.267  14.674   7.950
 5679POPC   C4B32242  28.263  14.610   7.650
 5680POPC   NC332243  32.210  29.931   9.450
 5680POPC   PO432244  32.225  29.968   9.150
 5680POPC   GL132245  32.298  29.918   8.850
 5680POPC   GL232246  32.340  30.047   8.850
 5680POPC   C1A32247  32.242  29.963   8.550
 5680POPC   D2A32248  32.253  29.898   8.250
 5680POPC   C3A32249  32.260  29.925   7.950
 5680POPC   C4A32250  32.248  29.915   7.650
 5680POPC   C1B32251  32.467  30.046   8.550
 5680POPC   C2B32252  32.470  30.090   8.250
 5680POPC   C3B32253  32.465  30.091   7.950
 5680POPC   C4B32254  32.447  30.099   7.650
 5681POPC   NC332255  11.296  31.471   9.450
 5681POPC   PO432256  11.310  31.522   9.150
 5681POPC   GL132257  11.290  31.509   8.850
 5681POPC   GL232258  11.210  31.396   8.850
 5681POPC   C1A32259  11.285  31.495   8.550
 5681POPC   D2A32260  11.253  31.498   8.250
 5681POPC   C3A32261  11.258  31.510   7.950
 5681POPC   C4A32262  11.313  31.465   7.650
 5681POPC   C1B32263  11.109  31.388   8.550
 5681POPC   C2B32264  11.039  31.369   8.250
 5681POPC   C3B32265  11.114  31.377   7.950
 5681POPC   C4B32266  11.119  31.381   7.650
 5682POPC   NC332267  41.557  19.816   9.450
 5682POPC   PO432268  41.582  19.853   9.150
 5682POPC   GL132269  41.513  19.860   8.850
 5682POPC   GL232270  41.556  19.984   8.850
 5682POPC   C1A32271  41.527  19.881   8.550
 5682POPC   D2A32272  41.528  19.851   8.250
 5682POPC   C3A32273  41.562  19.856   7.950
 5682POPC   C4A32274  41.553  19.815   7.650
 5682POPC   C1B32275  41.442  20.080   8.550
 5682POPC   C2B32276  41.439  20.023   8.250
 5682POPC   C3B32277  41.499  20.059   7.950
 5682POPC   C4B32278  41.428  20.051   7.650
 5683POPC   NC332279  31.484   9.722   9.450
 5683POPC   PO432280  31.443   9.736   9.150
 5683POPC   GL132281  31.496   9.700   8.850
 5683POPC   GL232282  31.600   9.663   8.850
 5683POPC   C1A32283  31.496   9.708   8.550
 5683POPC   D2A32284  31.444   9.704   8.250
 5683POPC   C3A32285  31.462   9.719   7.950
 5683POPC   C4A32286  31.475   9.755   7.650
 5683POPC   C1B32287  31.646   9.667   8.550
 5683POPC   C2B32288  31.654   9.663   8.250
 5683POPC   C3B32289  31.733   9.628   7.950
 5683POPC   C4B32290  31.710   9.651   7.650
 5684POPC   NC332291  26.782  38.446   9.450
 5684POPC   PO432292  26.802  38.422   9.150
 5684POPC   GL132293  26.833  38.487   8.850
 5684POPC   GL232294  26.780  38.611   8.850
 5684POPC   C1A32295  26.809  38.437   8.550
 5684POPC   D2A32296  26.790  38.460   8.250
 5684POPC   C3A32297  26.809  38.442   7.950
 5684POPC   C4A32298  26.843  38.500   7.650
 5684POPC   C1B32299  26.795  38.726   8.550
 5684POPC   C2B32300  26.788  38.734   8.250
 5684POPC   C3B32301  26.777  38.684   7.950
 5684POPC   C4B32302  26.758  38.679   7.650
 5685POPC   NC332303  14.366  32.981   9.450
 5685POPC   PO432304  14.402  33.045   9.150
 5685POPC   GL132305  14.375  33.017   8.850
 5685POPC   GL232306  14.330  33.142   8.850
 5685POPC   C1A32307  14.359  33.014   8.550
 5685POPC   D2A32308  14.407  33.026   8.250
 5685POPC   C3A32309  14.445  33.031   7.950
 5685POPC   C4A32310  14.453  33.031   7.650
 5685POPC   C1B32311  14.319  33.292   8.550
 5685POPC   C2B32312  14.321  33.263   8.250
 5685POPC   C3B32313  14.328  33.284   7.950
 5685POPC   C4B32314  14.332  33.251   7.650
 5686POPC   NC332315  41.556   5.106   9.450
 5686POPC   PO432316  41.573   5.053   9.150
 5686POPC   GL132317  41.556   5.072   8.850
 5686POPC   GL232318  41.663   5.189   8.850
 5686POPC   C1A32319  41.531   5.052   8.550
 5686POPC   D2A32320  41.568   5.077   8.250
 5686POPC   C3A32321  41.585   5.071   7.950
 5686POPC   C4A32322  41.597   5.101   7.650
 5686POPC   C1B32323  41.764   5.227   8.550
 5686POPC   C2B32324  41.794   5.159   8.250
 5686POPC   C3B32325  41.808   5.172   7.950
 5686POPC   C4B32326  41.770   5.209   7.650
 5687POPC   NC332327   8.988  29.182   9.450
 5687POPC   PO432328   8.948  29.182   9.150
 5687POPC   GL132329   8.951  29.122   8.850
 5687POPC   GL232330   9.015  29.072   8.850
 5687POPC   C1A32331   8.992  29.193   8.550
 5687POPC   D2A32332   8.984  29.099   8.250
 5687POPC   C3A32333   8.959  29.167   7.950
 5687POPC   C4A32334   8.973  29.181   7.650
 5687POPC   C1B32335   9.184  28.953   8.550
 5687POPC   C2B32336   9.166  28.946   8.250
 5687POPC   C3B32337   9.115  28.929   7.950
 5687POPC   C4B32338   9.163  29.021   7.650
 5688POPC   NC332339  33.771  29.172   9.450
 5688POPC   PO432340  33.826  29.103   9.150
 5688POPC   GL132341  33.841  29.125   8.850
 5688POPC   GL232342  33.923  29.090   8.850
 5688POPC   C1A32343  33.798  29.100   8.550
 5688POPC   D2A32344  33.803  29.154   8.250
 5688POPC   C3A32345  33.819  29.135   7.950
 5688POPC   C4A32346  33.842  29.117   7.650
 5688POPC   C1B32347  34.043  29.090   8.550
 5688POPC   C2B32348  34.011  29.096   8.250
 5688POPC   C3B32349  33.987  29.066   7.950
 5688POPC   C4B32350  34.017  29.085   7.650
 5689POPC   NC332351   1.241  43.067   9.450
 5689POPC   PO432352   1.179  43.082   9.150
 5689POPC   GL132353   1.226  43.129   8.850
 5689POPC   GL232354   1.074  43.086   8.850
 5689POPC   C1A32355   1.229  43.123   8.550
 5689POPC   D2A32356   1.199  43.081   8.250
 5689POPC   C3A32357   1.223  43.111   7.950
 5689POPC   C4A32358   1.182  43.126   7.650
 5689POPC   C1B32359   1.009  43.043   8.550
 5689POPC   C2B32360   0.938  43.026   8.250
 5689POPC   C3B32361   0.958  43.059   7.950
 5689POPC   C4B32362   0.982  43.054   7.650
 5690POPC   NC332363  41.601  43.875   9.450
 5690POPC   PO432364  41.579  43.889   9.150
 5690POPC   GL132365  41.510  43.861   8.850
 5690POPC   GL232366  41.463  43.954   8.850
 5690POPC   C1A32367  41.541  43.857   8.550
 5690POPC   D2A32368  41.574  43.850   8.250
 5690POPC   C3A32369  41.609  43.861   7.950
 5690POPC   C4A32370  41.599  43.897   7.650
 5690POPC   C1B32371  41.402  44.123   8.550
 5690POPC   C2B32372  41.459  44.127   8.250
 5690POPC   C3B32373  41.483  44.120   7.950
 5690POPC   C4B32374  41.486  44.149   7.650
 5691POPC   NC332375   0.437  34.595   9.450
 5691POPC   PO432376   0.464  34.575   9.150
 5691POPC   GL132377   0.391  34.563   8.850
 5691POPC   GL232378   0.492  34.511   8.850
 5691POPC   C1A32379   0.488  34.557   8.550
 5691POPC   D2A32380   0.448  34.623   8.250
 5691POPC   C3A32381   0.469  34.610   7.950
 5691POPC   C4A32382   0.482  34.561   7.650
 5691POPC   C1B32383   0.547  34.339   8.550
 5691POPC   C2B32384   0.622  34.404   8.250
 5691POPC   C3B32385   0.603  34.388   7.950
 5691POPC   C4B32386   0.611  34.337   7.650
 5692POPC   NC332387  35.343  13.618   9.450
 5692POPC   PO432388  35.314  13.653   9.150
 5692POPC   GL132389  35.363  13.621   8.850
 5692POPC   GL232390  35.298  13.494   8.850
 5692POPC   C1A32391  35.368  13.602   8.550
 5692POPC   D2A32392  35.392  13.648   8.250
 5692POPC   C3A32393  35.385  13.671   7.950
 5692POPC   C4A32394  35.315  13.671   7.650
 5692POPC   C1B32395  35.335  13.370   8.550
 5692POPC   C2B32396  35.394  13.399   8.250
 5692POPC   C3B32397  35.377  13.339   7.950
 5692POPC   C4B32398  35.330  13.401   7.650
 5693POPC   NC332399  36.108  36.859   9.450
 5693POPC   PO432400  36.164  36.856   9.150
 5693POPC   GL132401  36.109  36.895   8.850
 5693POPC   GL232402  36.264  36.888   8.850
 5693POPC   C1A32403  36.115  36.946   8.550
 5693POPC   D2A32404  36.122  36.910   8.250
 5693POPC   C3A32405  36.132  36.922   7.950
 5693POPC   C4A32406  36.095  36.938   7.650
 5693POPC   C1B32407  36.421  36.906   8.550
 5693POPC   C2B32408  36.403  36.939   8.250
 5693POPC   C3B32409  36.357  36.895   7.950
 5693POPC   C4B32410  36.364  36.921   7.650
 5694POPC   NC332411   8.164   1.972   9.450
 5694POPC   PO432412   8.231   1.966   9.150
 5694POPC   GL132413   8.243   1.969   8.850
 5694POPC   GL232414   8.133   2.097   8.850
 5694POPC   C1A32415   8.207   1.949   8.550
 5694POPC   D2A32416   8.206   2.002   8.250
 5694POPC   C3A32417   8.184   1.952   7.950
 5694POPC   C4A32418   8.196   1.979   7.650
 5694POPC   C1B32419   8.028   2.200   8.550
 5694POPC   C2B32420   8.019   2.217   8.250
 5694POPC   C3B32421   8.071   2.209   7.950
 5694POPC   C4B32422   8.085   2.224   7.650
 5695POPC   NC332423  43.919   1.247   9.450
 5695POPC   PO432424  43.884   1.216   9.150
 5695POPC   GL132425  43.898   1.199   8.850
 5695POPC   GL232426  43.819   1.374   8.850
 5695POPC   C1A32427  43.855   1.201   8.550
 5695POPC   D2A32428  43.933   1.175   8.250
 5695POPC   C3A32429  43.859   1.200   7.950
 5695POPC   C4A32430  43.889   1.221   7.650
 5695POPC   C1B32431  43.746   1.449   8.550
 5695POPC   C2B32432  43.835   1.426   8.250
 5695POPC   C3B32433  43.752   1.415   7.950
 5695POPC   C4B32434  43.754   1.461   7.650
 5696POPC   NC332435  25.237  21.391   9.450
 5696POPC   PO432436  25.297  21.416   9.150
 5696POPC   GL132437  25.254  21.395   8.850
 5696POPC   GL232438  25.386  21.327   8.850
 5696POPC   C1A32439  25.313  21.409   8.550
 5696POPC   D2A32440  25.217  21.423   8.250
 5696POPC   C3A32441  25.283  21.364   7.950
 5696POPC   C4A32442  25.265  21.403   7.650
 5696POPC   C1B32443  25.508  21.288   8.550
 5696POPC   C2B32444  25.495  21.223   8.250
 5696POPC   C3B32445  25.490  21.243   7.950
 5696POPC   C4B32446  25.534  21.271   7.650
 5697POPC   NC332447  41.558   0.428   9.450
 5697POPC   PO432448  41.598   0.448   9.150
 5697POPC   GL132449  41.521   0.452   8.850
 5697POPC   GL232450  41.488   0.335   8.850
 5697POPC   C1A32451  41.580   0.452   8.550
 5697POPC   D2A32452  41.573   0.425   8.250
 5697POPC   C3A32453  41.576   0.392   7.950
 5697POPC   C4A32454  41.586   0.419   7.650
 5697POPC   C1B32455  41.437   0.216   8.550
 5697POPC   C2B32456  41.410   0.254   8.250
 5697POPC   C3B32457  41.440   0.181   7.950
 5697POPC   C4B32458  41.472   0.229   7.650
 5698POPC   NC332459  36.922   8.968   9.450
 5698POPC   PO432460  36.946   8.932   9.150
 5698POPC   GL132461  36.866   9.000   8.850
 5698POPC   GL232462  37.002   9.003   8.850
 5698POPC   C1A32463  36.893   8.972   8.550
 5698POPC   D2A32464  36.914   8.947   8.250
 5698POPC   C3A32465  36.908   8.938   7.950
 5698POPC   C4A32466  36.946   8.936   7.650
 5698POPC   C1B32467  37.141   9.097   8.550
 5698POPC   C2B32468  37.108   9.149   8.250
 5698POPC   C3B32469  37.070   9.091   7.950
 5698POPC   C4B32470  37.078   9.114   7.650
 5699POPC   NC332471  22.162  40.012   9.450
 5699POPC   PO432472  22.182  40.020   9.150
 5699POPC   GL132473  22.125  40.033   8.850
 5699POPC   GL232474  22.077  39.933   8.850
 5699POPC   C1A32475  22.186  39.995   8.550
 5699POPC   D2A32476  22.148  40.004   8.250
 5699POPC   C3A32477  22.187  40.024   7.950
 5699POPC   C4A32478  22.146  40.020   7.650
 5699POPC   C1B32479  22.111  39.751   8.550
 5699POPC   C2B32480  22.076  39.736   8.250
 5699POPC   C3B32481  22.058  39.810   7.950
 5699POPC   C4B32482  22.121  39.798   7.650
 5700POPC   NC332483  26.056  19.857   9.450
 5700POPC   PO432484  26.091  19.805   9.150
 5700POPC   GL132485  26.007  19.854   8.850
 5700POPC   GL232486  26.097  19.785   8.850
 5700POPC   C1A32487  26.091  19.848   8.550
 5700POPC   D2A32488  26.018  19.799   8.250
 5700POPC   C3A32489  26.015  19.877   7.950
 5700POPC   C4A32490  26.079  19.830   7.650
 5700POPC   C1B32491  26.209  19.655   8.550
 5700POPC   C2B32492  26.255  19.643   8.250
 5700POPC   C3B32493  26.210  19.722   7.950
 5700POPC   C4B32494  26.272  19.729   7.650
 5701POPC   NC332495  44.650  25.237   9.450
 5701POPC   PO432496  44.631  25.292   9.150
 5701POPC   GL132497  44.671  25.264   8.850
 5701POPC   GL232498  44.633  25.143   8.850
 5701POPC   C1A32499  44.699  25.284   8.550
 5701POPC   D2A32500  44.637  25.282   8.250
 5701POPC   C3A32501  44.706  25.291   7.950
 5701POPC   C4A32502  44.692  25.300   7.650
 5701POPC   C1B32503  44.713  25.016   8.550
 5701POPC   C2B32504  44.716  25.037   8.250
 5701POPC   C3B32505  44.713  25.013   7.950
 5701POPC   C4B32506  44.708  24.983   7.650
 5702POPC   NC332507  43.918  11.273   9.450
 5702POPC   PO432508  43.837  11.259   9.150
 5702POPC   GL132509  43.904  11.294   8.850
 5702POPC   GL232510  43.812  11.232   8.850
 5702POPC   C1A32511  43.920  11.258   8.550
 5702POPC   D2A32512  43.854  11.298   8.250
 5702POPC   C3A32513  43.856  11.270   7.950
 5702POPC   C4A32514  43.878  11.303   7.650
 5702POPC   C1B32515  43.672  11.105   8.550
 5702POPC   C2B32516  43.685  11.097   8.250
 5702POPC   C3B32517  43.700  11.141   7.950
 5702POPC   C4B32518  43.693  11.111   7.650
 5703POPC   NC332519   6.608  37.630   9.450
 5703POPC   PO432520   6.671  37.698   9.150
 5703POPC   GL132521   6.687  37.680   8.850
 5703POPC   GL232522   6.690  37.540   8.850
 5703POPC   C1A32523   6.617  37.650   8.550
 5703POPC   D2A32524   6.671  37.674   8.250
 5703POPC   C3A32525   6.668  37.634   7.950
 5703POPC   C4A32526   6.640  37.633   7.650
 5703POPC   C1B32527   6.680  37.440   8.550
 5703POPC   C2B32528   6.711  37.461   8.250
 5703POPC   C3B32529   6.764  37.428   7.950
 5703POPC   C4B32530   6.698  37.422   7.650
 5704POPC   NC332531  22.904  20.563   9.450
 5704POPC   PO432532  22.966  20.635   9.150
 5704POPC   GL132533  22.920  20.569   8.850
 5704POPC   GL232534  22.959  20.479   8.850
 5704POPC   C1A32535  22.953  20.634   8.550
 5704POPC   D2A32536  22.974  20.586   8.250
 5704POPC   C3A32537  22.964  20.645   7.950
 5704POPC   C4A32538  22.960  20.563   7.650
 5704POPC   C1B32539  22.925  20.385   8.550
 5704POPC   C2B32540  22.956  20.398   8.250
 5704POPC   C3B32541  22.942  20.340   7.950
 5704POPC   C4B32542  22.928  20.360   7.650
 5705POPC   NC332543  11.277   0.412   9.450
 5705POPC   PO432544  11.311   0.468   9.150
 5705POPC   GL132545  11.277   0.462   8.850
 5705POPC   GL232546  11.240   0.309   8.850
 5705POPC   C1A32547  11.296   0.430   8.550
 5705POPC   D2A32548  11.281   0.393   8.250
 5705POPC   C3A32549  11.311   0.479   7.950
 5705POPC   C4A32550  11.321   0.473   7.650
 5705POPC   C1B32551  11.170   0.210   8.550
 5705POPC   C2B32552  11.187   0.231   8.250
 5705POPC   C3B32553  11.172   0.255   7.950
 5705POPC   C4B32554  11.151   0.197   7.650
 5706POPC   NC332555  36.143  35.331   9.450
 5706POPC   PO432556  36.155  35.343   9.150
 5706POPC   GL132557  36.132  35.306   8.850
 5706POPC   GL232558  36.207  35.204   8.850
 5706POPC   C1A32559  36.128  35.318   8.550
 5706POPC   D2A32560  36.161  35.304   8.250
 5706POPC   C3A32561  36.160  35.374   7.950
 5706POPC   C4A32562  36.172  35.389   7.650
 5706POPC   C1B32563  36.225  35.173   8.550
 5706POPC   C2B32564  36.235  35.086   8.250
 5706POPC   C3B32565  36.275  35.090   7.950
 5706POPC   C4B32566  36.258  35.118   7.650
 5707POPC   NC332567  40.817   5.855   9.450
 5707POPC   PO432568  40.804   5.888   9.150
 5707POPC   GL132569  40.821   5.831   8.850
 5707POPC   GL232570  40.843   5.939   8.850
 5707POPC   C1A32571  40.814   5.876   8.550
 5707POPC   D2A32572  40.771   5.882   8.250
 5707POPC   C3A32573  40.822   5.864   7.950
 5707POPC   C4A32574  40.830   5.835   7.650
 5707POPC   C1B32575  41.004   5.967   8.550
 5707POPC   C2B32576  41.038   6.045   8.250
 5707POPC   C3B32577  40.980   6.059   7.950
 5707POPC   C4B32578  40.942   5.991   7.650
 5708POPC   NC332579  26.772   7.465   9.450
 5708POPC   PO432580  26.790   7.467   9.150
 5708POPC   GL132581  26.808   7.412   8.850
 5708POPC   GL232582  26.939   7.547   8.850
 5708POPC   C1A32583  26.858   7.416   8.550
 5708POPC   D2A32584  26.832   7.417   8.250
 5708POPC   C3A32585  26.834   7.440   7.950
 5708POPC   C4A32586  26.787   7.436   7.650
 5708POPC   C1B32587  26.963   7.604   8.550
 5708POPC   C2B32588  26.942   7.625   8.250
 5708POPC   C3B32589  26.943   7.626   7.950
 5708POPC   C4B32590  27.004   7.621   7.650
 5709POPC   NC332591  16.685  30.692   9.450
 5709POPC   PO432592  16.683  30.723   9.150
 5709POPC   GL132593  16.766  30.692   8.850
 5709POPC   GL232594  16.835  30.605   8.850
 5709POPC   C1A32595  16.746  30.710   8.550
 5709POPC   D2A32596  16.771  30.745   8.250
 5709POPC   C3A32597  16.734  30.724   7.950
 5709POPC   C4A32598  16.780  30.705   7.650
 5709POPC   C1B32599  16.919  30.527   8.550
 5709POPC   C2B32600  16.923  30.579   8.250
 5709POPC   C3B32601  16.921  30.565   7.950
 5709POPC   C4B32602  16.959  30.573   7.650
 5710POPC   NC332603   4.320  29.168   9.450
 5710POPC   PO432604   4.356  29.121   9.150
 5710POPC   GL132605   4.297  29.103   8.850
 5710POPC   GL232606   4.415  28.995   8.850
 5710POPC   C1A32607   4.289  29.144   8.550
 5710POPC   D2A32608   4.281  29.107   8.250
 5710POPC   C3A32609   4.345  29.124   7.950
 5710POPC   C4A32610   4.268  29.188   7.650
 5710POPC   C1B32611   4.381  28.919   8.550
 5710POPC   C2B32612   4.427  28.968   8.250
 5710POPC   C3B32613   4.431  28.905   7.950
 5710POPC   C4B32614   4.407  28.955   7.650
 5711POPC   NC332615  34.567   6.668   9.450
 5711POPC   PO432616  34.544   6.638   9.150
 5711POPC   GL132617  34.601   6.641   8.850
 5711POPC   GL232618  34.565   6.761   8.850
 5711POPC   C1A32619  34.564   6.649   8.550
 5711POPC   D2A32620  34.550   6.624   8.250
 5711POPC   C3A32621  34.621   6.674   7.950
 5711POPC   C4A32622  34.540   6.691   7.650
 5711POPC   C1B32623  34.531   6.917   8.550
 5711POPC   C2B32624  34.525   6.901   8.250
 5711POPC   C3B32625  34.573   6.921   7.950
 5711POPC   C4B32626  34.587   6.886   7.650
 5712POPC   NC332627  34.557  36.106   9.450
 5712POPC   PO432628  34.548  36.084   9.150
 5712POPC   GL132629  34.539  36.085   8.850
 5712POPC   GL232630  34.720  36.057   8.850
 5712POPC   C1A32631  34.598  36.175   8.550
 5712POPC   D2A32632  34.592  36.106   8.250
 5712POPC   C3A32633  34.601  36.121   7.950
 5712POPC   C4A32634  34.587  36.110   7.650
 5712POPC   C1B32635  34.741  35.930   8.550
 5712POPC   C2B32636  34.752  35.979   8.250
 5712POPC   C3B32637  34.799  35.950   7.950
 5712POPC   C4B32638  34.790  35.989   7.650
 5713POPC   NC332639  30.676   8.989   9.450
 5713POPC   PO432640  30.652   9.021   9.150
 5713POPC   GL132641  30.724   8.989   8.850
 5713POPC   GL232642  30.783   9.086   8.850
 5713POPC   C1A32643  30.720   8.946   8.550
 5713POPC   D2A32644  30.649   8.970   8.250
 5713POPC   C3A32645  30.706   8.963   7.950
 5713POPC   C4A32646  30.695   8.955   7.650
 5713POPC   C1B32647  30.845   9.244   8.550
 5713POPC   C2B32648  30.834   9.161   8.250
 5713POPC   C3B32649  30.817   9.198   7.950
 5713POPC   C4B32650  30.759   9.160   7.650
 5714POPC   NC332651   7.430   0.404   9.450
 5714POPC   PO432652   7.398   0.484   9.150
 5714POPC   GL132653   7.408   0.417   8.850
 5714POPC   GL232654   7.536   0.438   8.850
 5714POPC   C1A32655   7.389   0.468   8.550
 5714POPC   D2A32656   7.389   0.436   8.250
 5714POPC   C3A32657   7.464   0.446   7.950
 5714POPC   C4A32658   7.396   0.485   7.650
 5714POPC   C1B32659   7.692   0.380   8.550
 5714POPC   C2B32660   7.664   0.380   8.250
 5714POPC   C3B32661   7.630   0.442   7.950
 5714POPC   C4B32662   7.644   0.451   7.650
 5715POPC   NC332663   8.191   8.159   9.450
 5715POPC   PO432664   8.213   8.211   9.150
 5715POPC   GL132665   8.148   8.152   8.850
 5715POPC   GL232666   8.081   8.132   8.850
 5715POPC   C1A32667   8.224   8.151   8.550
 5715POPC   D2A32668   8.229   8.184   8.250
 5715POPC   C3A32669   8.181   8.165   7.950
 5715POPC   C4A32670   8.232   8.198   7.650
 5715POPC   C1B32671   7.981   8.087   8.550
 5715POPC   C2B32672   7.987   8.047   8.250
 5715POPC   C3B32673   8.007   8.117   7.950
 5715POPC   C4B32674   8.029   8.100   7.650
 5716POPC   NC332675   0.425   1.182   9.450
 5716POPC   PO432676   0.472   1.231   9.150
 5716POPC   GL132677   0.393   1.185   8.850
 5716POPC   GL232678   0.531   1.135   8.850
 5716POPC   C1A32679   0.471   1.227   8.550
 5716POPC   D2A32680   0.439   1.218   8.250
 5716POPC   C3A32681   0.417   1.258   7.950
 5716POPC   C4A32682   0.441   1.215   7.650
 5716POPC   C1B32683   0.628   1.184   8.550
 5716POPC   C2B32684   0.643   1.191   8.250
 5716POPC   C3B32685   0.694   1.119   7.950
 5716POPC   C4B32686   0.645   1.110   7.650
 5717POPC   NC332687  19.018   1.979   9.450
 5717POPC   PO432688  19.039   2.005   9.150
 5717POPC   GL132689  19.073   1.954   8.850
 5717POPC   GL232690  18.912   1.943   8.850
 5717POPC   C1A32691  19.060   1.984   8.550
 5717POPC   D2A32692  19.103   1.947   8.250
 5717POPC   C3A32693  19.026   1.946   7.950
 5717POPC   C4A32694  19.055   1.999   7.650
 5717POPC   C1B32695  18.774   1.881   8.550
 5717POPC   C2B32696  18.773   1.894   8.250
 5717POPC   C3B32697  18.854   1.944   7.950
 5717POPC   C4B32698  18.774   1.901   7.650
 5718POPC   NC332699  13.636  12.878   9.450
 5718POPC   PO432700  13.578  12.824   9.150
 5718POPC   GL132701  13.634  12.865   8.850
 5718POPC   GL232702  13.617  12.735   8.850
 5718POPC   C1A32703  13.605  12.836   8.550
 5718POPC   D2A32704  13.616  12.890   8.250
 5718POPC   C3A32705  13.617  12.874   7.950
 5718POPC   C4A32706  13.597  12.805   7.650
 5718POPC   C1B32707  13.548  12.619   8.550
 5718POPC   C2B32708  13.509  12.571   8.250
 5718POPC   C3B32709  13.564  12.578   7.950
 5718POPC   C4B32710  13.549  12.625   7.650
 5719POPC   NC332711  23.672  17.494   9.450
 5719POPC   PO432712  23.713  17.476   9.150
 5719POPC   GL132713  23.737  17.506   8.850
 5719POPC   GL232714  23.712  17.627   8.850
 5719POPC   C1A32715  23.688  17.536   8.550
 5719POPC   D2A32716  23.715  17.501   8.250
 5719POPC   C3A32717  23.701  17.506   7.950
 5719POPC   C4A32718  23.688  17.518   7.650
 5719POPC   C1B32719  23.820  17.785   8.550
 5719POPC   C2B32720  23.829  17.706   8.250
 5719POPC   C3B32721  23.766  17.724   7.950
 5719POPC   C4B32722  23.853  17.753   7.650
 5720POPC   NC332723  40.031  42.378   9.450
 5720POPC   PO432724  39.989  42.348   9.150
 5720POPC   GL132725  40.025  42.296   8.850
 5720POPC   GL232726  39.840  42.382   8.850
 5720POPC   C1A32727  40.053  42.324   8.550
 5720POPC   D2A32728  40.004  42.349   8.250
 5720POPC   C3A32729  39.984  42.336   7.950
 5720POPC   C4A32730  40.024  42.352   7.650
 5720POPC   C1B32731  39.757  42.360   8.550
 5720POPC   C2B32732  39.813  42.360   8.250
 5720POPC   C3B32733  39.768  42.373   7.950
 5720POPC   C4B32734  39.752  42.365   7.650
 5721POPC   NC332735  39.960  22.914   9.450
 5721POPC   PO432736  40.043  22.895   9.150
 5721POPC   GL132737  39.980  22.891   8.850
 5721POPC   GL232738  39.881  22.977   8.850
 5721POPC   C1A32739  40.048  22.968   8.550
 5721POPC   D2A32740  40.051  22.971   8.250
 5721POPC   C3A32741  40.028  22.985   7.950
 5721POPC   C4A32742  40.018  22.941   7.650
 5721POPC   C1B32743  39.764  22.937   8.550
 5721POPC   C2B32744  39.761  22.978   8.250
 5721POPC   C3B32745  39.746  23.017   7.950
 5721POPC   C4B32746  39.766  22.949   7.650
 5722POPC   NC332747   5.064  29.907   9.450
 5722POPC   PO432748   5.052  29.950   9.150
 5722POPC   GL132749   5.103  29.872   8.850
 5722POPC   GL232750   5.126  29.786   8.850
 5722POPC   C1A32751   5.125  29.895   8.550
 5722POPC   D2A32752   5.135  29.927   8.250
 5722POPC   C3A32753   5.136  29.883   7.950
 5722POPC   C4A32754   5.044  29.965   7.650
 5722POPC   C1B32755   5.056  29.665   8.550
 5722POPC   C2B32756   5.094  29.673   8.250
 5722POPC   C3B32757   5.047  29.621   7.950
 5722POPC   C4B32758   5.067  29.656   7.650
 5723POPC   NC332759   6.644  28.400   9.450
 5723POPC   PO432760   6.689  28.376   9.150
 5723POPC   GL132761   6.679  28.390   8.850
 5723POPC   GL232762   6.573  28.468   8.850
 5723POPC   C1A32763   6.640  28.417   8.550
 5723POPC   D2A32764   6.683  28.400   8.250
 5723POPC   C3A32765   6.605  28.371   7.950
 5723POPC   C4A32766   6.654  28.409   7.650
 5723POPC   C1B32767   6.451  28.526   8.550
 5723POPC   C2B32768   6.464  28.526   8.250
 5723POPC   C3B32769   6.463  28.526   7.950
 5723POPC   C4B32770   6.384  28.471   7.650
 5724POPC   NC332771   7.433  26.859   9.450
 5724POPC   PO432772   7.470  26.793   9.150
 5724POPC   GL132773   7.375  26.831   8.850
 5724POPC   GL232774   7.267  26.740   8.850
 5724POPC   C1A32775   7.407  26.782   8.550
 5724POPC   D2A32776   7.382  26.770   8.250
 5724POPC   C3A32777   7.434  26.811   7.950
 5724POPC   C4A32778   7.444  26.772   7.650
 5724POPC   C1B32779   7.200  26.701   8.550
 5724POPC   C2B32780   7.242  26.648   8.250
 5724POPC   C3B32781   7.242  26.692   7.950
 5724POPC   C4B32782   7.225  26.663   7.650
 5725POPC   NC332783  11.314  20.588   9.450
 5725POPC   PO432784  11.263  20.565   9.150
 5725POPC   GL132785  11.324  20.589   8.850
 5725POPC   GL232786  11.243  20.764   8.850
 5725POPC   C1A32787  11.313  20.639   8.550
 5725POPC   D2A32788  11.322  20.628   8.250
 5725POPC   C3A32789  11.334  20.628   7.950
 5725POPC   C4A32790  11.271  20.654   7.650
 5725POPC   C1B32791  11.164  20.876   8.550
 5725POPC   C2B32792  11.217  20.812   8.250
 5725POPC   C3B32793  11.175  20.819   7.950
 5725POPC   C4B32794  11.242  20.862   7.650
 5726POPC   NC332795  38.478   9.757   9.450
 5726POPC   PO432796  38.425   9.747   9.150
 5726POPC   GL132797  38.487   9.728   8.850
 5726POPC   GL232798  38.404   9.834   8.850
 5726POPC   C1A32799  38.447   9.791   8.550
 5726POPC   D2A32800  38.414   9.789   8.250
 5726POPC   C3A32801  38.499   9.759   7.950
 5726POPC   C4A32802  38.497   9.779   7.650
 5726POPC   C1B32803  38.297   9.857   8.550
 5726POPC   C2B32804  38.212   9.922   8.250
 5726POPC   C3B32805  38.279   9.942   7.950
 5726POPC   C4B32806  38.289   9.892   7.650
 5727POPC   NC332807  28.419  12.040   9.450
 5727POPC   PO432808  28.368  12.054   9.150
 5727POPC   GL132809  28.334  12.108   8.850
 5727POPC   GL232810  28.317  12.015   8.850
 5727POPC   C1A32811  28.364  12.086   8.550
 5727POPC   D2A32812  28.418  12.121   8.250
 5727POPC   C3A32813  28.380  12.090   7.950
 5727POPC   C4A32814  28.403  12.112   7.650
 5727POPC   C1B32815  28.209  11.905   8.550
 5727POPC   C2B32816  28.224  11.927   8.250
 5727POPC   C3B32817  28.198  11.955   7.950
 5727POPC   C4B32818  28.223  11.893   7.650
 5728POPC   NC332819  17.483   8.160   9.450
 5728POPC   PO432820  17.471   8.165   9.150
 5728POPC   GL132821  17.505   8.205   8.850
 5728POPC   GL232822  17.383   8.255   8.850
 5728POPC   C1A32823  17.494   8.166   8.550
 5728POPC   D2A32824  17.517   8.148   8.250
 5728POPC   C3A32825  17.467   8.241   7.950
 5728POPC   C4A32826  17.516   8.230   7.650
 5728POPC   C1B32827  17.281   8.372   8.550
 5728POPC   C2B32828  17.340   8.411   8.250
 5728POPC   C3B32829  17.316   8.351   7.950
 5728POPC   C4B32830  17.349   8.351   7.650
 5729POPC   NC332831  17.468  16.762   9.450
 5729POPC   PO432832  17.487  16.731   9.150
 5729POPC   GL132833  17.543  16.721   8.850
 5729POPC   GL232834  17.609  16.818   8.850
 5729POPC   C1A32835  17.460  16.761   8.550
 5729POPC   D2A32836  17.479  16.773   8.250
 5729POPC   C3A32837  17.549  16.779   7.950
 5729POPC   C4A32838  17.467  16.773   7.650
 5729POPC   C1B32839  17.713  16.841   8.550
 5729POPC   C2B32840  17.721  16.880   8.250
 5729POPC   C3B32841  17.674  16.914   7.950
 5729POPC   C4B32842  17.755  16.917   7.650
 5730POPC   NC332843  12.854   1.971   9.450
 5730POPC   PO432844  12.807   1.940   9.150
 5730POPC   GL132845  12.841   2.001   8.850
 5730POPC   GL232846  12.785   1.953   8.850
 5730POPC   C1A32847  12.900   1.985   8.550
 5730POPC   D2A32848  12.814   2.023   8.250
 5730POPC   C3A32849  12.828   2.018   7.950
 5730POPC   C4A32850  12.856   2.033   7.650
 5730POPC   C1B32851  12.584   1.904   8.550
 5730POPC   C2B32852  12.603   1.873   8.250
 5730POPC   C3B32853  12.611   1.874   7.950
 5730POPC   C4B32854  12.643   1.877   7.650
 5731POPC   NC332855  10.538  42.369   9.450
 5731POPC   PO432856  10.538  42.320   9.150
 5731POPC   GL132857  10.479  42.335   8.850
 5731POPC   GL232858  10.515  42.496   8.850
 5731POPC   C1A32859  10.574  42.321   8.550
 5731POPC   D2A32860  10.504  42.315   8.250
 5731POPC   C3A32861  10.538  42.363   7.950
 5731POPC   C4A32862  10.519  42.313   7.650
 5731POPC   C1B32863  10.544  42.535   8.550
 5731POPC   C2B32864  10.516  42.567   8.250
 5731POPC   C3B32865  10.541  42.568   7.950
 5731POPC   C4B32866  10.517  42.618   7.650
 5732POPC   NC332867  17.547  17.464   9.450
 5732POPC   PO432868  17.493  17.507   9.150
 5732POPC   GL132869  17.489  17.535   8.850
 5732POPC   GL232870  17.539  17.655   8.850
 5732POPC   C1A32871  17.483  17.465   8.550
 5732POPC   D2A32872  17.531  17.494   8.250
 5732POPC   C3A32873  17.497  17.467   7.950
 5732POPC   C4A32874  17.506  17.536   7.650
 5732POPC   C1B32875  17.575  17.768   8.550
 5732POPC   C2B32876  17.539  17.724   8.250
 5732POPC   C3B32877  17.504  17.707   7.950
 5732POPC   C4B32878  17.497  17.782   7.650
 5733POPC   NC332879  15.925  16.711   9.450
 5733POPC   PO432880  15.949  16.744   9.150
 5733POPC   GL132881  15.931  16.709   8.850
 5733POPC   GL232882  16.039  16.624   8.850
 5733POPC   C1A32883  15.981  16.762   8.550
 5733POPC   D2A32884  15.986  16.691   8.250
 5733POPC   C3A32885  15.966  16.716   7.950
 5733POPC   C4A32886  15.963  16.728   7.650
 5733POPC   C1B32887  16.123  16.573   8.550
 5733POPC   C2B32888  16.135  16.552   8.250
 5733POPC   C3B32889  16.177  16.620   7.950
 5733POPC   C4B32890  16.195  16.533   7.650
 5734POPC   NC332891   1.961  28.327   9.450
 5734POPC   PO432892   2.002  28.346   9.150
 5734POPC   GL132893   1.973  28.346   8.850
 5734POPC   GL232894   2.027  28.269   8.850
 5734POPC   C1A32895   1.999  28.329   8.550
 5734POPC   D2A32896   1.941  28.365   8.250
 5734POPC   C3A32897   1.951  28.328   7.950
 5734POPC   C4A32898   2.002  28.375   7.650
 5734POPC   C1B32899   2.096  28.110   8.550
 5734POPC   C2B32900   2.101  28.124   8.250
 5734POPC   C3B32901   2.069  28.111   7.950
 5734POPC   C4B32902   2.057  28.131   7.650
 5735POPC   NC332903  34.550  41.526   9.450
 5735POPC   PO432904  34.608  41.580   9.150
 5735POPC   GL132905  34.622  41.515   8.850
 5735POPC   GL232906  34.487  41.684   8.850
 5735POPC   C1A32907  34.605  41.552   8.550
 5735POPC   D2A32908  34.560  41.584   8.250
 5735POPC   C3A32909  34.542  41.552   7.950
 5735POPC   C4A32910  34.527  41.555   7.650
 5735POPC   C1B32911  34.350  41.717   8.550
 5735POPC   C2B32912  34.385  41.712   8.250
 5735POPC   C3B32913  34.406  41.715   7.950
 5735POPC   C4B32914  34.357  41.684   7.650
 5736POPC   NC332915  43.159  34.596   9.450
 5736POPC   PO432916  43.156  34.563   9.150
 5736POPC   GL132917  43.087  34.529   8.850
 5736POPC   GL232918  43.252  34.468   8.850
 5736POPC   C1A32919  43.132  34.544   8.550
 5736POPC   D2A32920  43.137  34.569   8.250
 5736POPC   C3A32921  43.086  34.549   7.950
 5736POPC   C4A32922  43.064  34.607   7.650
 5736POPC   C1B32923  43.289  34.421   8.550
 5736POPC   C2B32924  43.311  34.390   8.250
 5736POPC   C3B32925  43.284  34.403   7.950
 5736POPC   C4B32926  43.265  34.448   7.650
 5737POPC   NC332927  36.114  14.413   9.450
 5737POPC   PO432928  36.135  14.413   9.150
 5737POPC   GL132929  36.124  14.420   8.850
 5737POPC   GL232930  36.050  14.436   8.850
 5737POPC   C1A32931  36.101  14.363   8.550
 5737POPC   D2A32932  36.174  14.423   8.250
 5737POPC   C3A32933  36.119  14.360   7.950
 5737POPC   C4A32934  36.161  14.398   7.650
 5737POPC   C1B32935  35.902  14.533   8.550
 5737POPC   C2B32936  35.962  14.600   8.250
 5737POPC   C3B32937  35.896  14.598   7.950
 5737POPC   C4B32938  35.963  14.565   7.650
 5738POPC   NC332939   8.218  29.871   9.450
 5738POPC   PO432940   8.152  29.873   9.150
 5738POPC   GL132941   8.229  29.960   8.850
 5738POPC   GL232942   8.032  29.926   8.850
 5738POPC   C1A32943   8.196  29.964   8.550
 5738POPC   D2A32944   8.159  29.911   8.250
 5738POPC   C3A32945   8.206  29.920   7.950
 5738POPC   C4A32946   8.224  29.906   7.650
 5738POPC   C1B32947   7.951  29.948   8.550
 5738POPC   C2B32948   7.953  29.907   8.250
 5738POPC   C3B32949   7.939  29.907   7.950
 5738POPC   C4B32950   7.963  29.906   7.650
 5739POPC   NC332951   2.716  41.518   9.450
 5739POPC   PO432952   2.799  41.602   9.150
 5739POPC   GL132953   2.770  41.569   8.850
 5739POPC   GL232954   2.636  41.517   8.850
 5739POPC   C1A32955   2.800  41.598   8.550
 5739POPC   D2A32956   2.779  41.533   8.250
 5739POPC   C3A32957   2.736  41.582   7.950
 5739POPC   C4A32958   2.785  41.580   7.650
 5739POPC   C1B32959   2.565  41.490   8.550
 5739POPC   C2B32960   2.550  41.533   8.250
 5739POPC   C3B32961   2.501  41.579   7.950
 5739POPC   C4B32962   2.539  41.551   7.650
 5740POPC   NC332963  17.495  43.871   9.450
 5740POPC   PO432964  17.497  43.861   9.150
 5740POPC   GL132965  17.531  43.914   8.850
 5740POPC   GL232966  17.444  43.956   8.850
 5740POPC   C1A32967  17.532  43.908   8.550
 5740POPC   D2A32968  17.457  43.865   8.250
 5740POPC   C3A32969  17.491  43.890   7.950
 5740POPC   C4A32970  17.519  43.896   7.650
 5740POPC   C1B32971  17.458  44.153   8.550
 5740POPC   C2B32972  17.399  44.110   8.250
 5740POPC   C3B32973  17.406  44.124   7.950
 5740POPC   C4B32974  17.464  44.137   7.650
 5741POPC   NC332975  33.066   4.356   9.450
 5741POPC   PO432976  32.982   4.351   9.150
 5741POPC   GL132977  33.023   4.349   8.850
 5741POPC   GL232978  32.894   4.347   8.850
 5741POPC   C1A32979  33.026   4.288   8.550
 5741POPC   D2A32980  33.022   4.317   8.250
 5741POPC   C3A32981  33.009   4.297   7.950
 5741POPC   C4A32982  33.060   4.343   7.650
 5741POPC   C1B32983  32.805   4.439   8.550
 5741POPC   C2B32984  32.814   4.375   8.250
 5741POPC   C3B32985  32.780   4.430   7.950
 5741POPC   C4B32986  32.784   4.418   7.650
 5742POPC   NC332987   2.769  15.994   9.450
 5742POPC   PO432988   2.803  15.975   9.150
 5742POPC   GL132989   2.772  15.918   8.850
 5742POPC   GL232990   2.664  15.841   8.850
 5742POPC   C1A32991   2.782  16.000   8.550
 5742POPC   D2A32992   2.767  15.995   8.250
 5742POPC   C3A32993   2.766  15.922   7.950
 5742POPC   C4A32994   2.735  15.972   7.650
 5742POPC   C1B32995   2.648  15.713   8.550
 5742POPC   C2B32996   2.640  15.720   8.250
 5742POPC   C3B32997   2.646  15.752   7.950
 5742POPC   C4B32998   2.640  15.777   7.650
 5743POPC   NC332999  17.482  13.633   9.450
 5743POPC   PO433000  17.495  13.674   9.150
 5743POPC   GL133001  17.535  13.629   8.850
 5743POPC   GL233002  17.363  13.668   8.850
 5743POPC   C1A33003  17.458  13.596   8.550
 5743POPC   D2A33004  17.466  13.586   8.250
 5743POPC   C3A33005  17.538  13.630   7.950
 5743POPC   C4A33006  17.480  13.663   7.650
 5743POPC   C1B33007  17.251  13.760   8.550
 5743POPC   C2B33008  17.250  13.792   8.250
 5743POPC   C3B33009  17.244  13.766   7.950
 5743POPC   C4B33010  17.331  13.776   7.650
 5744POPC   NC333011  26.074  38.428   9.450
 5744POPC   PO433012  26.049  38.452   9.150
 5744POPC   GL133013  26.041  38.421   8.850
 5744POPC   GL233014  26.061  38.340   8.850
 5744POPC   C1A33015  26.047  38.454   8.550
 5744POPC   D2A33016  26.041  38.433   8.250
 5744POPC   C3A33017  26.080  38.483   7.950
 5744POPC   C4A33018  26.002  38.478   7.650
 5744POPC   C1B33019  26.015  38.161   8.550
 5744POPC   C2B33020  26.000  38.213   8.250
 5744POPC   C3B33021  25.995  38.246   7.950
 5744POPC   C4B33022  26.028  38.193   7.650
 5745POPC   NC333023  12.870  41.571   9.450
 5745POPC   PO433024  12.804  41.530   9.150
 5745POPC   GL133025  12.828  41.595   8.850
 5745POPC   GL233026  12.741  41.646   8.850
 5745POPC   C1A33027  12.819  41.548   8.550
 5745POPC   D2A33028  12.848  41.573   8.250
 5745POPC   C3A33029  12.889  41.531   7.950
 5745POPC   C4A33030  12.817  41.569   7.650
 5745POPC   C1B33031  12.728  41.760   8.550
 5745POPC   C2B33032  12.741  41.803   8.250
 5745POPC   C3B33033  12.678  41.760   7.950
 5745POPC   C4B33034  12.663  41.746   7.650
 5746POPC   NC333035  25.293  31.491   9.450
 5746POPC   PO433036  25.230  31.428   9.150
 5746POPC   GL133037  25.251  31.515   8.850
 5746POPC   GL233038  25.358  31.411   8.850
 5746POPC   C1A33039  25.264  31.463   8.550
 5746POPC   D2A33040  25.314  31.464   8.250
 5746POPC   C3A33041  25.240  31.426   7.950
 5746POPC   C4A33042  25.264  31.512   7.650
 5746POPC   C1B33043  25.494  31.334   8.550
 5746POPC   C2B33044  25.474  31.355   8.250
 5746POPC   C3B33045  25.425  31.334   7.950
 5746POPC   C4B33046  25.485  31.324   7.650
 5747POPC   NC333047  22.909  40.770   9.450
 5747POPC   PO433048  22.982  40.823   9.150
 5747POPC   GL133049  22.921  40.745   8.850
 5747POPC   GL233050  23.080  40.682   8.850
 5747POPC   C1A33051  22.895  40.788   8.550
 5747POPC   D2A33052  22.969  40.765   8.250
 5747POPC   C3A33053  22.929  40.816   7.950
 5747POPC   C4A33054  22.958  40.794   7.650
 5747POPC   C1B33055  23.118  40.628   8.550
 5747POPC   C2B33056  23.128  40.696   8.250
 5747POPC   C3B33057  23.125  40.654   7.950
 5747POPC   C4B33058  23.106  40.678   7.650
 5748POPC   NC333059  32.979  18.255   9.450
 5748POPC   PO433060  33.028  18.255   9.150
 5748POPC   GL133061  33.047  18.329   8.850
 5748POPC   GL233062  33.129  18.198   8.850
 5748POPC   C1A33063  32.987  18.298   8.550
 5748POPC   D2A33064  32.989  18.274   8.250
 5748POPC   C3A33065  33.048  18.280   7.950
 5748POPC   C4A33066  32.975  18.295   7.650
 5748POPC   C1B33067  33.232  18.145   8.550
 5748POPC   C2B33068  33.288  18.148   8.250
 5748POPC   C3B33069  33.218  18.218   7.950
 5748POPC   C4B33070  33.286  18.205   7.650
 5749POPC   NC333071   6.692  26.006   9.450
 5749POPC   PO433072   6.660  26.021   9.150
 5749POPC   GL133073   6.686  26.041   8.850
 5749POPC   GL233074   6.535  25.968   8.850
 5749POPC   C1A33075   6.632  26.024   8.550
 5749POPC   D2A33076   6.632  26.072   8.250
 5749POPC   C3A33077   6.658  26.036   7.950
 5749POPC   C4A33078   6.610  26.010   7.650
 5749POPC   C1B33079   6.378  25.961   8.550
 5749POPC   C2B33080   6.380  25.986   8.250
 5749POPC   C3B33081   6.439  25.954   7.950
 5749POPC   C4B33082   6.377  25.918   7.650
 5750POPC   NC333083   2.791  13.643   9.450
 5750POPC   PO433084   2.719  13.652   9.150
 5750POPC   GL133085   2.764  13.647   8.850
 5750POPC   GL233086   2.739  13.457   8.850
 5750POPC   C1A33087   2.807  13.618   8.550
 5750POPC   D2A33088   2.760  13.583   8.250
 5750POPC   C3A33089   2.777  13.673   7.950
 5750POPC   C4A33090   2.748  13.639   7.650
 5750POPC   C1B33091   2.726  13.359   8.550
 5750POPC   C2B33092   2.774  13.419   8.250
 5750POPC   C3B33093   2.773  13.421   7.950
 5750POPC   C4B33094   2.772  13.335   7.650
 5751POPC   NC333095  32.226  16.694   9.450
 5751POPC   PO433096  32.250  16.766   9.150
 5751POPC   GL133097  32.273  16.760   8.850
 5751POPC   GL233098  32.161  16.878   8.850
 5751POPC   C1A33099  32.199  16.716   8.550
 5751POPC   D2A33100  32.275  16.732   8.250
 5751POPC   C3A33101  32.283  16.683   7.950
 5751POPC   C4A33102  32.204  16.705   7.650
 5751POPC   C1B33103  32.139  17.004   8.550
 5751POPC   C2B33104  32.107  16.947   8.250
 5751POPC   C3B33105  32.126  16.930   7.950
 5751POPC   C4B33106  32.182  16.988   7.650
 5752POPC   NC333107  18.330  26.084   9.450
 5752POPC   PO433108  18.309  26.087   9.150
 5752POPC   GL133109  18.283  26.074   8.850
 5752POPC   GL233110  18.380  26.084   8.850
 5752POPC   C1A33111  18.234  26.067   8.550
 5752POPC   D2A33112  18.257  25.999   8.250
 5752POPC   C3A33113  18.268  26.091   7.950
 5752POPC   C4A33114  18.243  26.055   7.650
 5752POPC   C1B33115  18.525  26.124   8.550
 5752POPC   C2B33116  18.553  26.069   8.250
 5752POPC   C3B33117  18.524  26.105   7.950
 5752POPC   C4B33118  18.514  26.091   7.650
 5753POPC   NC333119  35.359  31.446   9.450
 5753POPC   PO433120  35.306  31.504   9.150
 5753POPC   GL133121  35.386  31.436   8.850
 5753POPC   GL233122  35.236  31.467   8.850
 5753POPC   C1A33123  35.333  31.461   8.550
 5753POPC   D2A33124  35.358  31.501   8.250
 5753POPC   C3A33125  35.323  31.513   7.950
 5753POPC   C4A33126  35.374  31.467   7.650
 5753POPC   C1B33127  35.153  31.462   8.550
 5753POPC   C2B33128  35.106  31.438   8.250
 5753POPC   C3B33129  35.106  31.391   7.950
 5753POPC   C4B33130  35.061  31.397   7.650
 5754POPC   NC333131  43.894  15.192   9.450
 5754POPC   PO433132  43.920  15.135   9.150
 5754POPC   GL133133  43.910  15.138   8.850
 5754POPC   GL233134  43.817  15.267   8.850
 5754POPC   C1A33135  43.888  15.217   8.550
 5754POPC   D2A33136  43.902  15.136   8.250
 5754POPC   C3A33137  43.856  15.226   7.950
 5754POPC   C4A33138  43.927  15.153   7.650
 5754POPC   C1B33139  43.703  15.348   8.550
 5754POPC   C2B33140  43.650  15.319   8.250
 5754POPC   C3B33141  43.681  15.347   7.950
 5754POPC   C4B33142  43.663  15.271   7.650
 5755POPC   NC333143  33.752   8.150   9.450
 5755POPC   PO433144  33.763   8.231   9.150
 5755POPC   GL133145  33.833   8.184   8.850
 5755POPC   GL233146  33.968   8.164   8.850
 5755POPC   C1A33147  33.771   8.244   8.550
 5755POPC   D2A33148  33.779   8.225   8.250
 5755POPC   C3A33149  33.817   8.233   7.950
 5755POPC   C4A33150  33.835   8.175   7.650
 5755POPC   C1B33151  34.048   8.191   8.550
 5755POPC   C2B33152  34.075   8.204   8.250
 5755POPC   C3B33153  34.042   8.129   7.950
 5755POPC   C4B33154  34.017   8.180   7.650
 5756POPC   NC333155  28.350   4.307   9.450
 5756POPC   PO433156  28.397   4.294   9.150
 5756POPC   GL133157  28.404   4.316   8.850
 5756POPC   GL233158  28.535   4.364   8.850
 5756POPC   C1A33159  28.329   4.299   8.550
 5756POPC   D2A33160  28.333   4.270   8.250
 5756POPC   C3A33161  28.369   4.273   7.950
 5756POPC   C4A33162  28.380   4.344   7.650
 5756POPC   C1B33163  28.621   4.337   8.550
 5756POPC   C2B33164  28.631   4.357   8.250
 5756POPC   C3B33165  28.614   4.354   7.950
 5756POPC   C4B33166  28.577   4.421   7.650
 5757POPC   NC333167   5.085  31.426   9.450
 5757POPC   PO433168   5.077  31.476   9.150
 5757POPC   GL133169   5.067  31.518   8.850
 5757POPC   GL233170   5.148  31.619   8.850
 5757POPC   C1A33171   5.102  31.477   8.550
 5757POPC   D2A33172   5.090  31.507   8.250
 5757POPC   C3A33173   5.113  31.447   7.950
 5757POPC   C4A33174   5.077  31.475   7.650
 5757POPC   C1B33175   5.196  31.671   8.550
 5757POPC   C2B33176   5.251  31.719   8.250
 5757POPC   C3B33177   5.278  31.643   7.950
 5757POPC   C4B33178   5.186  31.640   7.650
 5758POPC   NC333179  19.071  16.753   9.450
 5758POPC   PO433180  19.012  16.748   9.150
 5758POPC   GL133181  19.044  16.694   8.850
 5758POPC   GL233182  19.140  16.892   8.850
 5758POPC   C1A33183  19.107  16.693   8.550
 5758POPC   D2A33184  19.016  16.740   8.250
 5758POPC   C3A33185  19.084  16.700   7.950
 5758POPC   C4A33186  19.061  16.724   7.650
 5758POPC   C1B33187  19.152  16.964   8.550
 5758POPC   C2B33188  19.148  16.924   8.250
 5758POPC   C3B33189  19.150  16.950   7.950
 5758POPC   C4B33190  19.179  16.985   7.650
 5759POPC   NC333191   7.467  19.787   9.450
 5759POPC   PO433192   7.466  19.786   9.150
 5759POPC   GL133193   7.434  19.853   8.850
 5759POPC   GL233194   7.314  19.874   8.850
 5759POPC   C1A33195   7.422  19.808   8.550
 5759POPC   D2A33196   7.384  19.853   8.250
 5759POPC   C3A33197   7.440  19.828   7.950
 5759POPC   C4A33198   7.419  19.812   7.650
 5759POPC   C1B33199   7.168  19.881   8.550
 5759POPC   C2B33200   7.212  19.915   8.250
 5759POPC   C3B33201   7.207  19.926   7.950
 5759POPC   C4B33202   7.166  19.930   7.650
 5760POPC   NC333203  18.302  42.316   9.450
 5760POPC   PO433204  18.291  42.318   9.150
 5760POPC   GL133205  18.242  42.351   8.850
 5760POPC   GL233206  18.295  42.185   8.850
 5760POPC   C1A33207  18.274  42.298   8.550
 5760POPC   D2A33208  18.312  42.297   8.250
 5760POPC   C3A33209  18.302  42.317   7.950
 5760POPC   C4A33210  18.317  42.300   7.650
 5760POPC   C1B33211  18.256  42.087   8.550
 5760POPC   C2B33212  18.275  42.035   8.250
 5760POPC   C3B33213  18.319  42.058   7.950
 5760POPC   C4B33214  18.317  42.062   7.650
 5761POPC   NC333215   5.879  30.709   9.450
 5761POPC   PO433216   5.903  30.720   9.150
 5761POPC   GL133217   5.832  30.717   8.850
 5761POPC   GL233218   5.850  30.537   8.850
 5761POPC   C1A33219   5.862  30.681   8.550
 5761POPC   D2A33220   5.890  30.701   8.250
 5761POPC   C3A33221   5.904  30.651   7.950
 5761POPC   C4A33222   5.908  30.711   7.650
 5761POPC   C1B33223   5.783  30.492   8.550
 5761POPC   C2B33224   5.799  30.429   8.250
 5761POPC   C3B33225   5.763  30.499   7.950
 5761POPC   C4B33226   5.751  30.492   7.650
 5762POPC   NC333227  25.240   7.385   9.450
 5762POPC   PO433228  25.310   7.425   9.150
 5762POPC   GL133229  25.223   7.396   8.850
 5762POPC   GL233230  25.281   7.525   8.850
 5762POPC   C1A33231  25.265   7.378   8.550
 5762POPC   D2A33232  25.256   7.426   8.250
 5762POPC   C3A33233  25.250   7.458   7.950
 5762POPC   C4A33234  25.268   7.460   7.650
 5762POPC   C1B33235  25.279   7.651   8.550
 5762POPC   C2B33236  25.213   7.720   8.250
 5762POPC   C3B33237  25.279   7.704   7.950
 5762POPC   C4B33238  25.269   7.662   7.650
 5763POPC   NC333239   5.091  10.523   9.450
 5763POPC   PO433240   5.073  10.478   9.150
 5763POPC   GL133241   5.091  10.508   8.850
 5763POPC   GL233242   5.203  10.591   8.850
 5763POPC   C1A33243   5.066  10.519   8.550
 5763POPC   D2A33244   5.069  10.553   8.250
 5763POPC   C3A33245   5.065  10.544   7.950
 5763POPC   C4A33246   5.142  10.521   7.650
 5763POPC   C1B33247   5.290  10.612   8.550
 5763POPC   C2B33248   5.305  10.639   8.250
 5763POPC   C3B33249   5.316  10.637   7.950
 5763POPC   C4B33250   5.334  10.622   7.650
 5764POPC   NC333251   6.623  43.914   9.450
 5764POPC   PO433252   6.664  43.873   9.150
 5764POPC   GL133253   6.610  43.921   8.850
 5764POPC   GL233254   6.700  43.787   8.850
 5764POPC   C1A33255   6.636  43.915   8.550
 5764POPC   D2A33256   6.608  43.914   8.250
 5764POPC   C3A33257   6.680  43.904   7.950
 5764POPC   C4A33258   6.668  43.898   7.650
 5764POPC   C1B33259   6.778  43.738   8.550
 5764POPC   C2B33260   6.791  43.669   8.250
 5764POPC   C3B33261   6.845  43.712   7.950
 5764POPC   C4B33262   6.816  43.717   7.650
 5765POPC   NC333263   7.469  38.446   9.450
 5765POPC   PO433264   7.405  38.477   9.150
 5765POPC   GL133265   7.373  38.487   8.850
 5765POPC   GL233266   7.564  38.497   8.850
 5765POPC   C1A33267   7.430  38.491   8.550
 5765POPC   D2A33268   7.438  38.443   8.250
 5765POPC   C3A33269   7.438  38.491   7.950
 5765POPC   C4A33270   7.431  38.500   7.650
 5765POPC   C1B33271   7.656  38.491   8.550
 5765POPC   C2B33272   7.643  38.521   8.250
 5765POPC   C3B33273   7.676  38.537   7.950
 5765POPC   C4B33274   7.678  38.540   7.650
 5766POPC   NC333275  42.342  36.095   9.450
 5766POPC   PO433276  42.304  36.162   9.150
 5766POPC   GL133277  42.342  36.155   8.850
 5766POPC   GL233278  42.183  36.125   8.850
 5766POPC   C1A33279  42.335  36.104   8.550
 5766POPC   D2A33280  42.342  36.125   8.250
 5766POPC   C3A33281  42.337  36.140   7.950
 5766POPC   C4A33282  42.303  36.114   7.650
 5766POPC   C1B33283  42.098  36.066   8.550
 5766POPC   C2B33284  42.130  36.050   8.250
 5766POPC   C3B33285  42.120  36.045   7.950
 5766POPC   C4B33286  42.083  36.042   7.650
 5767POPC   NC333287   1.955  40.045   9.450
 5767POPC   PO433288   2.034  40.016   9.150
 5767POPC   GL133289   2.028  39.991   8.850
 5767POPC   GL233290   1.847  39.986   8.850
 5767POPC   C1A33291   2.017  40.021   8.550
 5767POPC   D2A33292   2.025  40.053   8.250
 5767POPC   C3A33293   1.979  39.972   7.950
 5767POPC   C4A33294   1.967  39.962   7.650
 5767POPC   C1B33295   1.772  39.850   8.550
 5767POPC   C2B33296   1.726  39.880   8.250
 5767POPC   C3B33297   1.730  39.847   7.950
 5767POPC   C4B33298   1.723  39.866   7.650
 5768POPC   NC333299  22.207  21.363   9.450
 5768POPC   PO433300  22.179  21.406   9.150
 5768POPC   GL133301  22.119  21.402   8.850
 5768POPC   GL233302  22.141  21.469   8.850
 5768POPC   C1A33303  22.127  21.423   8.550
 5768POPC   D2A33304  22.157  21.338   8.250
 5768POPC   C3A33305  22.141  21.350   7.950
 5768POPC   C4A33306  22.127  21.376   7.650
 5768POPC   C1B33307  22.156  21.591   8.550
 5768POPC   C2B33308  22.194  21.619   8.250
 5768POPC   C3B33309  22.238  21.664   7.950
 5768POPC   C4B33310  22.156  21.653   7.650
 5769POPC   NC333311   1.983  24.536   9.450
 5769POPC   PO433312   1.953  24.491   9.150
 5769POPC   GL133313   1.987  24.449   8.850
 5769POPC   GL233314   1.940  24.339   8.850
 5769POPC   C1A33315   2.029  24.481   8.550
 5769POPC   D2A33316   2.021  24.447   8.250
 5769POPC   C3A33317   1.943  24.449   7.950
 5769POPC   C4A33318   2.007  24.535   7.650
 5769POPC   C1B33319   2.011  24.199   8.550
 5769POPC   C2B33320   2.026  24.209   8.250
 5769POPC   C3B33321   1.942  24.285   7.950
 5769POPC   C4B33322   1.943  24.210   7.650
 5770POPC   NC333323  43.934  29.945   9.450
 5770POPC   PO433324  43.857  29.876   9.150
 5770POPC   GL133325  43.839  29.880   8.850
 5770POPC   GL233326  43.965  30.005   8.850
 5770POPC   C1A33327  43.848  29.946   8.550
 5770POPC   D2A33328  43.871  29.901   8.250
 5770POPC   C3A33329  43.842  29.904   7.950
 5770POPC   C4A33330  43.913  29.911   7.650
 5770POPC   C1B33331  44.004  30.108   8.550
 5770POPC   C2B33332  44.048  30.067   8.250
 5770POPC   C3B33333  44.015  30.112   7.950
 5770POPC   C4B33334  44.030  30.123   7.650
 5771POPC   NC333335  24.464  36.888   9.450
 5771POPC   PO433336  24.461  36.887   9.150
 5771POPC   GL133337  24.476  36.886   8.850
 5771POPC   GL233338  24.342  36.830   8.850
 5771POPC   C1A33339  24.460  36.927   8.550
 5771POPC   D2A33340  24.496  36.858   8.250
 5771POPC   C3A33341  24.453  36.947   7.950
 5771POPC   C4A33342  24.499  36.928   7.650
 5771POPC   C1B33343  24.288  36.780   8.550
 5771POPC   C2B33344  24.263  36.776   8.250
 5771POPC   C3B33345  24.236  36.784   7.950
 5771POPC   C4B33346  24.278  36.792   7.650
 5772POPC   NC333347  36.946  26.056   9.450
 5772POPC   PO433348  36.888  26.031   9.150
 5772POPC   GL133349  36.881  25.996   8.850
 5772POPC   GL233350  36.834  26.016   8.850
 5772POPC   C1A33351  36.858  26.030   8.550
 5772POPC   D2A33352  36.937  26.074   8.250
 5772POPC   C3A33353  36.893  26.065   7.950
 5772POPC   C4A33354  36.879  25.999   7.650
 5772POPC   C1B33355  36.667  25.876   8.550
 5772POPC   C2B33356  36.684  25.922   8.250
 5772POPC   C3B33357  36.727  25.899   7.950
 5772POPC   C4B33358  36.751  25.920   7.650
 5773POPC   NC333359  20.560  38.453   9.450
 5773POPC   PO433360  20.615  38.428   9.150
 5773POPC   GL133361  20.562  38.412   8.850
 5773POPC   GL233362  20.639  38.595   8.850
 5773POPC   C1A33363  20.632  38.430   8.550
 5773POPC   D2A33364  20.609  38.469   8.250
 5773POPC   C3A33365  20.645  38.432   7.950
 5773POPC   C4A33366  20.614  38.481   7.650
 5773POPC   C1B33367  20.709  38.699   8.550
 5773POPC   C2B33368  20.705  38.652   8.250
 5773POPC   C3B33369  20.727  38.687   7.950
 5773POPC   C4B33370  20.713  38.642   7.650
 5774POPC   NC333371  29.949  37.672   9.450
 5774POPC   PO433372  29.959  37.723   9.150
 5774POPC   GL133373  29.902  37.697   8.850
 5774POPC   GL233374  29.796  37.721   8.850
 5774POPC   C1A33375  29.940  37.722   8.550
 5774POPC   D2A33376  29.951  37.708   8.250
 5774POPC   C3A33377  29.970  37.642   7.950
 5774POPC   C4A33378  29.890  37.728   7.650
 5774POPC   C1B33379  29.719  37.664   8.550
 5774POPC   C2B33380  29.713  37.634   8.250
 5774POPC   C3B33381  29.705  37.665   7.950
 5774POPC   C4B33382  29.648  37.667   7.650
 5775POPC   NC333383   6.670   2.020   9.450
 5775POPC   PO433384   6.605   2.032   9.150
 5775POPC   GL133385   6.650   1.982   8.850
 5775POPC   GL233386   6.514   1.953   8.850
 5775POPC   C1A33387   6.672   1.961   8.550
 5775POPC   D2A33388   6.601   2.029   8.250
 5775POPC   C3A33389   6.686   2.023   7.950
 5775POPC   C4A33390   6.637   1.983   7.650
 5775POPC   C1B33391   6.374   1.906   8.550
 5775POPC   C2B33392   6.425   1.985   8.250
 5775POPC   C3B33393   6.358   1.937   7.950
 5775POPC   C4B33394   6.384   1.941   7.650
 5776POPC   NC333395  22.180   2.792   9.450
 5776POPC   PO433396  22.180   2.770   9.150
 5776POPC   GL133397  22.210   2.762   8.850
 5776POPC   GL233398  22.100   2.599   8.850
 5776POPC   C1A33399  22.191   2.747   8.550
 5776POPC   D2A33400  22.194   2.813   8.250
 5776POPC   C3A33401  22.174   2.781   7.950
 5776POPC   C4A33402  22.132   2.797   7.650
 5776POPC   C1B33403  22.092   2.498   8.550
 5776POPC   C2B33404  22.078   2.574   8.250
 5776POPC   C3B33405  22.086   2.489   7.950
 5776POPC   C4B33406  22.081   2.492   7.650
 5777POPC   NC333407  19.037  16.004   9.450
 5777POPC   PO433408  19.042  15.924   9.150
 5777POPC   GL133409  19.075  15.975   8.850
 5777POPC   GL233410  19.063  16.025   8.850
 5777POPC   C1A33411  19.023  15.950   8.550
 5777POPC   D2A33412  19.091  15.990   8.250
 5777POPC   C3A33413  19.034  16.005   7.950
 5777POPC   C4A33414  19.102  15.955   7.650
 5777POPC   C1B33415  19.131  16.188   8.550
 5777POPC   C2B33416  19.186  16.233   8.250
 5777POPC   C3B33417  19.187  16.169   7.950
 5777POPC   C4B33418  19.128  16.167   7.650
 5778POPC   NC333419  40.746  37.687   9.450
 5778POPC   PO433420  40.742  37.708   9.150
 5778POPC   GL133421  40.780  37.646   8.850
 5778POPC   GL233422  40.847  37.547   8.850
 5778POPC   C1A33423  40.767  37.666   8.550
 5778POPC   D2A33424  40.795  37.710   8.250
 5778POPC   C3A33425  40.797  37.716   7.950
 5778POPC   C4A33426  40.829  37.669   7.650
 5778POPC   C1B33427  40.906  37.441   8.550
 5778POPC   C2B33428  40.896  37.502   8.250
 5778POPC   C3B33429  40.878  37.444   7.950
 5778POPC   C4B33430  40.954  37.442   7.650
 5779POPC   NC333431  23.720  28.332   9.450
 5779POPC   PO433432  23.685  28.321   9.150
 5779POPC   GL133433  23.727  28.418   8.850
 5779POPC   GL233434  23.801  28.412   8.850
 5779POPC   C1A33435  23.762  28.371   8.550
 5779POPC   D2A33436  23.705  28.339   8.250
 5779POPC   C3A33437  23.755  28.353   7.950
 5779POPC   C4A33438  23.730  28.355   7.650
 5779POPC   C1B33439  23.948  28.487   8.550
 5779POPC   C2B33440  23.889  28.556   8.250
 5779POPC   C3B33441  23.948  28.549   7.950
 5779POPC   C4B33442  23.941  28.511   7.650
 5780POPC   NC333443  17.555   5.910   9.450
 5780POPC   PO433444  17.463   5.872   9.150
 5780POPC   GL133445  17.550   5.851   8.850
 5780POPC   GL233446  17.544   5.994   8.850
 5780POPC   C1A33447  17.488   5.821   8.550
 5780POPC   D2A33448  17.503   5.886   8.250
 5780POPC   C3A33449  17.530   5.907   7.950
 5780POPC   C4A33450  17.502   5.872   7.650
 5780POPC   C1B33451  17.562   6.114   8.550
 5780POPC   C2B33452  17.497   6.101   8.250
 5780POPC   C3B33453  17.577   6.126   7.950
 5780POPC   C4B33454  17.531   6.104   7.650
 5781POPC   NC333455  35.399  17.499   9.450
 5781POPC   PO433456  35.344  17.475   9.150
 5781POPC   GL133457  35.354  17.529   8.850
 5781POPC   GL233458  35.296  17.636   8.850
 5781POPC   C1A33459  35.384  17.553   8.550
 5781POPC   D2A33460  35.332  17.540   8.250
 5781POPC   C3A33461  35.334  17.472   7.950
 5781POPC   C4A33462  35.330  17.556   7.650
 5781POPC   C1B33463  35.298  17.770   8.550
 5781POPC   C2B33464  35.365  17.745   8.250
 5781POPC   C3B33465  35.282  17.775   7.950
 5781POPC   C4B33466  35.339  17.732   7.650
 5782POPC   NC333467  29.148  30.667   9.450
 5782POPC   PO433468  29.117  30.667   9.150
 5782POPC   GL133469  29.122  30.737   8.850
 5782POPC   GL233470  29.234  30.663   8.850
 5782POPC   C1A33471  29.181  30.682   8.550
 5782POPC   D2A33472  29.098  30.744   8.250
 5782POPC   C3A33473  29.179  30.648   7.950
 5782POPC   C4A33474  29.172  30.744   7.650
 5782POPC   C1B33475  29.388  30.620   8.550
 5782POPC   C2B33476  29.345  30.654   8.250
 5782POPC   C3B33477  29.416  30.646   7.950
 5782POPC   C4B33478  29.368  30.625   7.650
 5783POPC   NC333479  33.795  30.741   9.450
 5783POPC   PO433480  33.784  30.740   9.150
 5783POPC   GL133481  33.792  30.685   8.850
 5783POPC   GL233482  33.867  30.562   8.850
 5783POPC   C1A33483  33.773  30.683   8.550
 5783POPC   D2A33484  33.751  30.718   8.250
 5783POPC   C3A33485  33.782  30.661   7.950
 5783POPC   C4A33486  33.849  30.732   7.650
 5783POPC   C1B33487  33.865  30.504   8.550
 5783POPC   C2B33488  33.834  30.469   8.250
 5783POPC   C3B33489  33.831  30.455   7.950
 5783POPC   C4B33490  33.842  30.485   7.650
 5784POPC   NC333491   0.449  26.054   9.450
 5784POPC   PO433492   0.408  26.015   9.150
 5784POPC   GL133493   0.453  26.052   8.850
 5784POPC   GL233494   0.466  25.870   8.850
 5784POPC   C1A33495   0.460  26.070   8.550
 5784POPC   D2A33496   0.410  26.059   8.250
 5784POPC   C3A33497   0.396  26.013   7.950
 5784POPC   C4A33498   0.434  26.041   7.650
 5784POPC   C1B33499   0.469  25.801   8.550
 5784POPC   C2B33500   0.486  25.842   8.250
 5784POPC   C3B33501   0.498  25.804   7.950
 5784POPC   C4B33502   0.470  25.817   7.650
 5785POPC   NC333503   8.151   1.223   9.450
 5785POPC   PO433504   8.224   1.179   9.150
 5785POPC   GL133505   8.193   1.216   8.850
 5785POPC   GL233506   8.088   1.260   8.850
 5785POPC   C1A33507   8.197   1.190   8.550
 5785POPC   D2A33508   8.246   1.223   8.250
 5785POPC   C3A33509   8.220   1.190   7.950
 5785POPC   C4A33510   8.218   1.260   7.650
 5785POPC   C1B33511   8.038   1.333   8.550
 5785POPC   C2B33512   8.011   1.335   8.250
 5785POPC   C3B33513   8.031   1.373   7.950
 5785POPC   C4B33514   7.953   1.378   7.650
 5786POPC   NC333515  19.806   9.721   9.450
 5786POPC   PO433516  19.832   9.766   9.150
 5786POPC   GL133517  19.821   9.771   8.850
 5786POPC   GL233518  19.871   9.882   8.850
 5786POPC   C1A33519  19.799   9.728   8.550
 5786POPC   D2A33520  19.883   9.764   8.250
 5786POPC   C3A33521  19.846   9.743   7.950
 5786POPC   C4A33522  19.832   9.771   7.650
 5786POPC   C1B33523  19.945   9.944   8.550
 5786POPC   C2B33524  19.905   9.938   8.250
 5786POPC   C3B33525  19.933   9.922   7.950
 5786POPC   C4B33526  19.922   9.966   7.650
 5787POPC   NC333527   4.280  42.312   9.450
 5787POPC   PO433528   4.334  42.318   9.150
 5787POPC   GL133529   4.312  42.307   8.850
 5787POPC   GL233530   4.314  42.431   8.850
 5787POPC   C1A33531   4.353  42.348   8.550
 5787POPC   D2A33532   4.298  42.383   8.250
 5787POPC   C3A33533   4.363  42.302   7.950
 5787POPC   C4A33534   4.280  42.380   7.650
 5787POPC   C1B33535   4.310  42.632   8.550
 5787POPC   C2B33536   4.322  42.580   8.250
 5787POPC   C3B33537   4.308  42.553   7.950
 5787POPC   C4B33538   4.374  42.607   7.650
 5788POPC   NC333539   6.686   8.947   9.450
 5788POPC   PO433540   6.631   9.017   9.150
 5788POPC   GL133541   6.653   8.999   8.850
 5788POPC   GL233542   6.740   8.917   8.850
 5788POPC   C1A33543   6.624   9.004   8.550
 5788POPC   D2A33544   6.624   8.942   8.250
 5788POPC   C3A33545   6.654   8.940   7.950
 5788POPC   C4A33546   6.600   8.962   7.650
 5788POPC   C1B33547   6.928   8.972   8.550
 5788POPC   C2B33548   6.866   8.947   8.250
 5788POPC   C3B33549   6.903   8.930   7.950
 5788POPC   C4B33550   6.844   8.913   7.650
 5789POPC   NC333551  14.387  20.588   9.450
 5789POPC   PO433552  14.433  20.627   9.150
 5789POPC   GL133553  14.409  20.610   8.850
 5789POPC   GL233554  14.309  20.706   8.850
 5789POPC   C1A33555  14.389  20.638   8.550
 5789POPC   D2A33556  14.368  20.578   8.250
 5789POPC   C3A33557  14.419  20.632   7.950
 5789POPC   C4A33558  14.435  20.597   7.650
 5789POPC   C1B33559  14.240  20.748   8.550
 5789POPC   C2B33560  14.170  20.789   8.250
 5789POPC   C3B33561  14.254  20.745   7.950
 5789POPC   C4B33562  14.253  20.764   7.650
 5790POPC   NC333563  11.291  33.024   9.450
 5790POPC   PO433564  11.285  33.029   9.150
 5790POPC   GL133565  11.273  33.071   8.850
 5790POPC   GL233566  11.236  33.107   8.850
 5790POPC   C1A33567  11.332  32.998   8.550
 5790POPC   D2A33568  11.281  33.031   8.250
 5790POPC   C3A33569  11.260  32.979   7.950
 5790POPC   C4A33570  11.322  33.051   7.650
 5790POPC   C1B33571  11.276  33.253   8.550
 5790POPC   C2B33572  11.279  33.313   8.250
 5790POPC   C3B33573  11.194  33.261   7.950
 5790POPC   C4B33574  11.226  33.224   7.650
 5791POPC   NC333575  37.718  11.276   9.450
 5791POPC   PO433576  37.692  11.310   9.150
 5791POPC   GL133577  37.689  11.272   8.850
 5791POPC   GL233578  37.690  11.424   8.850
 5791POPC   C1A33579  37.685  11.270   8.550
 5791POPC   D2A33580  37.684  11.320   8.250
 5791POPC   C3A33581  37.715  11.302   7.950
 5791POPC   C4A33582  37.635  11.264   7.650
 5791POPC   C1B33583  37.787  11.563   8.550
 5791POPC   C2B33584  37.754  11.517   8.250
 5791POPC   C3B33585  37.766  11.573   7.950
 5791POPC   C4B33586  37.813  11.550   7.650
 5792POPC   NC333587  30.664   9.736   9.450
 5792POPC   PO433588  30.734   9.766   9.150
 5792POPC   GL133589  30.730   9.733   8.850
 5792POPC   GL233590  30.781   9.801   8.850
 5792POPC   C1A33591  30.711   9.708   8.550
 5792POPC   D2A33592  30.738   9.760   8.250
 5792POPC   C3A33593  30.719   9.788   7.950
 5792POPC   C4A33594  30.655   9.749   7.650
 5792POPC   C1B33595  30.921   9.862   8.550
 5792POPC   C2B33596  30.912   9.827   8.250
 5792POPC   C3B33597  30.912   9.848   7.950
 5792POPC   C4B33598  30.981   9.852   7.650
 5793POPC   NC333599  38.448  32.269   9.450
 5793POPC   PO433600  38.491  32.282   9.150
 5793POPC   GL133601  38.440  32.245   8.850
 5793POPC   GL233602  38.510  32.168   8.850
 5793POPC   C1A33603  38.429  32.247   8.550
 5793POPC   D2A33604  38.460  32.201   8.250
 5793POPC   C3A33605  38.483  32.207   7.950
 5793POPC   C4A33606  38.408  32.211   7.650
 5793POPC   C1B33607  38.567  32.004   8.550
 5793POPC   C2B33608  38.534  31.970   8.250
 5793POPC   C3B33609  38.576  32.025   7.950
 5793POPC   C4B33610  38.543  32.050   7.650
 5794POPC   NC333611  14.373   2.731   9.450
 5794POPC   PO433612  14.396   2.755   9.150
 5794POPC   GL133613  14.402   2.806   8.850
 5794POPC   GL233614  14.290   2.792   8.850
 5794POPC   C1A33615  14.390   2.749   8.550
 5794POPC   D2A33616  14.439   2.793   8.250
 5794POPC   C3A33617  14.453   2.747   7.950
 5794POPC   C4A33618  14.369   2.723   7.650
 5794POPC   C1B33619  14.151   2.820   8.550
 5794POPC   C2B33620  14.151   2.821   8.250
 5794POPC   C3B33621  14.150   2.869   7.950
 5794POPC   C4B33622  14.187   2.832   7.650
 5795POPC   NC333623  39.206  42.310   9.450
 5795POPC   PO433624  39.215  42.380   9.150
 5795POPC   GL133625  39.265  42.362   8.850
 5795POPC   GL233626  39.163  42.413   8.850
 5795POPC   C1A33627  39.222  42.311   8.550
 5795POPC   D2A33628  39.199  42.317   8.250
 5795POPC   C3A33629  39.273  42.285   7.950
 5795POPC   C4A33630  39.213  42.360   7.650
 5795POPC   C1B33631  39.095  42.535   8.550
 5795POPC   C2B33632  39.105  42.550   8.250
 5795POPC   C3B33633  39.139  42.552   7.950
 5795POPC   C4B33634  39.127  42.564   7.650
 5796POPC   NC333635  39.218   7.415   9.450
 5796POPC   PO433636  39.229   7.411   9.150
 5796POPC   GL133637  39.206   7.461   8.850
 5796POPC   GL233638  39.171   7.562   8.850
 5796POPC   C1A33639  39.223   7.397   8.550
 5796POPC   D2A33640  39.214   7.465   8.250
 5796POPC   C3A33641  39.246   7.431   7.950
 5796POPC   C4A33642  39.211   7.451   7.650
 5796POPC   C1B33643  39.055   7.623   8.550
 5796POPC   C2B33644  39.019   7.648   8.250
 5796POPC   C3B33645  39.096   7.573   7.950
 5796POPC   C4B33646  39.100   7.631   7.650
 5797POPC   NC333647   6.691  36.102   9.450
 5797POPC   PO433648   6.679  36.106   9.150
 5797POPC   GL133649   6.625  36.160   8.850
 5797POPC   GL233650   6.709  36.063   8.850
 5797POPC   C1A33651   6.684  36.128   8.550
 5797POPC   D2A33652   6.691  36.159   8.250
 5797POPC   C3A33653   6.595  36.107   7.950
 5797POPC   C4A33654   6.612  36.135   7.650
 5797POPC   C1B33655   6.788  35.875   8.550
 5797POPC   C2B33656   6.722  35.879   8.250
 5797POPC   C3B33657   6.722  35.908   7.950
 5797POPC   C4B33658   6.713  35.919   7.650
 5798POPC   NC333659  41.514  12.855   9.450
 5798POPC   PO433660  41.570  12.886   9.150
 5798POPC   GL133661  41.547  12.868   8.850
 5798POPC   GL233662  41.624  12.749   8.850
 5798POPC   C1A33663  41.594  12.899   8.550
 5798POPC   D2A33664  41.514  12.840   8.250
 5798POPC   C3A33665  41.519  12.896   7.950
 5798POPC   C4A33666  41.596  12.889   7.650
 5798POPC   C1B33667  41.615  12.602   8.550
 5798POPC   C2B33668  41.626  12.621   8.250
 5798POPC   C3B33669  41.592  12.641   7.950
 5798POPC   C4B33670  41.600  12.611   7.650
 5799POPC   NC333671   5.048  34.559   9.450
 5799POPC   PO433672   5.102  34.594   9.150
 5799POPC   GL133673   5.090  34.620   8.850
 5799POPC   GL233674   4.980  34.562   8.850
 5799POPC   C1A33675   5.112  34.594   8.550
 5799POPC   D2A33676   5.082  34.601   8.250
 5799POPC   C3A33677   5.097  34.530   7.950
 5799POPC   C4A33678   5.097  34.616   7.650
 5799POPC   C1B33679   4.909  34.510   8.550
 5799POPC   C2B33680   4.899  34.484   8.250
 5799POPC   C3B33681   4.893  34.453   7.950
 5799POPC   C4B33682   4.875  34.473   7.650
 5800POPC   NC333683  23.690  24.516   9.450
 5800POPC   PO433684  23.695  24.504   9.150
 5800POPC   GL133685  23.672  24.535   8.850
 5800POPC   GL233686  23.838  24.473   8.850
 5800POPC   C1A33687  23.698  24.448   8.550
 5800POPC   D2A33688  23.749  24.468   8.250
 5800POPC   C3A33689  23.669  24.442   7.950
 5800POPC   C4A33690  23.708  24.440   7.650
 5800POPC   C1B33691  23.934  24.546   8.550
 5800POPC   C2B33692  23.917  24.543   8.250
 5800POPC   C3B33693  23.974  24.487   7.950
 5800POPC   C4B33694  23.975  24.509   7.650
 5801POPC   NC333695   4.325   3.566   9.450
 5801POPC   PO433696   4.359   3.569   9.150
 5801POPC   GL133697   4.301   3.585   8.850
 5801POPC   GL233698   4.373   3.387   8.850
 5801POPC   C1A33699   4.330   3.493   8.550
 5801POPC   D2A33700   4.292   3.524   8.250
 5801POPC   C3A33701   4.344   3.582   7.950
 5801POPC   C4A33702   4.286   3.507   7.650
 5801POPC   C1B33703   4.315   3.264   8.550
 5801POPC   C2B33704   4.376   3.269   8.250
 5801POPC   C3B33705   4.311   3.344   7.950
 5801POPC   C4B33706   4.329   3.284   7.650
 5802POPC   NC333707  36.928  42.381   9.450
 5802POPC   PO433708  36.914  42.299   9.150
 5802POPC   GL133709  36.861  42.364   8.850
 5802POPC   GL233710  36.979  42.210   8.850
 5802POPC   C1A33711  36.887  42.343   8.550
 5802POPC   D2A33712  36.932  42.372   8.250
 5802POPC   C3A33713  36.932  42.287   7.950
 5802POPC   C4A33714  36.866  42.353   7.650
 5802POPC   C1B33715  37.070  42.134   8.550
 5802POPC   C2B33716  37.056  42.165   8.250
 5802POPC   C3B33717  37.127  42.182   7.950
 5802POPC   C4B33718  37.041  42.199   7.650
 5803POPC   NC333719  42.326  33.759   9.450
 5803POPC   PO433720  42.328  33.799   9.150
 5803POPC   GL133721  42.300  33.843   8.850
 5803POPC   GL233722  42.293  33.705   8.850
 5803POPC   C1A33723  42.375  33.841   8.550
 5803POPC   D2A33724  42.308  33.808   8.250
 5803POPC   C3A33725  42.351  33.832   7.950
 5803POPC   C4A33726  42.338  33.780   7.650
 5803POPC   C1B33727  42.244  33.592   8.550
 5803POPC   C2B33728  42.244  33.603   8.250
 5803POPC   C3B33729  42.212  33.530   7.950
 5803POPC   C4B33730  42.288  33.543   7.650
 5804POPC   NC333731  29.154   9.734   9.450
 5804POPC   PO433732  29.131   9.759   9.150
 5804POPC   GL133733  29.184   9.707   8.850
 5804POPC   GL233734  29.002   9.806   8.850
 5804POPC   C1A33735  29.127   9.743   8.550
 5804POPC   D2A33736  29.176   9.711   8.250
 5804POPC   C3A33737  29.157   9.778   7.950
 5804POPC   C4A33738  29.166   9.792   7.650
 5804POPC   C1B33739  28.938   9.849   8.550
 5804POPC   C2B33740  28.951   9.824   8.250
 5804POPC   C3B33741  28.969   9.828   7.950
 5804POPC   C4B33742  28.924   9.848   7.650
 5805POPC   NC333743  20.595  30.682   9.450
 5805POPC   PO433744  20.603  30.712   9.150
 5805POPC   GL133745  20.590  30.650   8.850
 5805POPC   GL233746  20.777  30.710   8.850
 5805POPC   C1A33747  20.655  30.699   8.550
 5805POPC   D2A33748  20.609  30.687   8.250
 5805POPC   C3A33749  20.637  30.699   7.950
 5805POPC   C4A33750  20.660  30.687   7.650
 5805POPC   C1B33751  20.841  30.792   8.550
 5805POPC   C2B33752  20.843  30.772   8.250
 5805POPC   C3B33753  20.878  30.788   7.950
 5805POPC   C4B33754  20.899  30.778   7.650
 5806POPC   NC333755  15.161  14.388   9.450
 5806POPC   PO433756  15.204  14.431   9.150
 5806POPC   GL133757  15.138  14.373   8.850
 5806POPC   GL233758  15.240  14.298   8.850
 5806POPC   C1A33759  15.195  14.442   8.550
 5806POPC   D2A33760  15.140  14.356   8.250
 5806POPC   C3A33761  15.200  14.436   7.950
 5806POPC   C4A33762  15.134  14.403   7.650
 5806POPC   C1B33763  15.375  14.253   8.550
 5806POPC   C2B33764  15.387  14.247   8.250
 5806POPC   C3B33765  15.384  14.187   7.950
 5806POPC   C4B33766  15.344  14.226   7.650
 5807POPC   NC333767  29.891   9.785   9.450
 5807POPC   PO433768  29.949   9.756   9.150
 5807POPC   GL133769  29.965   9.754   8.850
 5807POPC   GL233770  29.839   9.784   8.850
 5807POPC   C1A33771  29.883   9.795   8.550
 5807POPC   D2A33772  29.966   9.716   8.250
 5807POPC   C3A33773  29.872   9.698   7.950
 5807POPC   C4A33774  29.963   9.718   7.650
 5807POPC   C1B33775  29.636   9.727   8.550
 5807POPC   C2B33776  29.630   9.812   8.250
 5807POPC   C3B33777  29.634   9.773   7.950
 5807POPC   C4B33778  29.662   9.810   7.650
 5808POPC   NC333779  32.266   0.414   9.450
 5808POPC   PO433780  32.265   0.434   9.150
 5808POPC   GL133781  32.291   0.411   8.850
 5808POPC   GL233782  32.336   0.364   8.850
 5808POPC   C1A33783  32.258   0.428   8.550
 5808POPC   D2A33784  32.215   0.427   8.250
 5808POPC   C3A33785  32.223   0.440   7.950
 5808POPC   C4A33786  32.234   0.446   7.650
 5808POPC   C1B33787  32.418   0.287   8.550
 5808POPC   C2B33788  32.418   0.218   8.250
 5808POPC   C3B33789  32.425   0.251   7.950
 5808POPC   C4B33790  32.453   0.201   7.650
 5809POPC   NC333791  39.184   9.707   9.450
 5809POPC   PO433792  39.254   9.720   9.150
 5809POPC   GL133793  39.215   9.726   8.850
 5809POPC   GL233794  39.091   9.704   8.850
 5809POPC   C1A33795  39.259   9.749   8.550
 5809POPC   D2A33796  39.228   9.775   8.250
 5809POPC   C3A33797  39.276   9.776   7.950
 5809POPC   C4A33798  39.249   9.748   7.650
 5809POPC   C1B33799  38.989   9.642   8.550
 5809POPC   C2B33800  39.041   9.632   8.250
 5809POPC   C3B33801  38.973   9.646   7.950
 5809POPC   C4B33802  39.036   9.617   7.650
 5810POPC   NC333803  40.788  43.894   9.450
 5810POPC   PO433804  40.757  43.852   9.150
 5810POPC   GL133805  40.784  43.932   8.850
 5810POPC   GL233806  40.945  43.946   8.850
 5810POPC   C1A33807  40.806  43.883   8.550
 5810POPC   D2A33808  40.755  43.933   8.250
 5810POPC   C3A33809  40.785  43.861   7.950
 5810POPC   C4A33810  40.804  43.839   7.650
 5810POPC   C1B33811  41.000  43.966   8.550
 5810POPC   C2B33812  41.045  43.954   8.250
 5810POPC   C3B33813  41.031  43.932   7.950
 5810POPC   C4B33814  40.995  43.921   7.650
 5811POPC   NC333815  26.797  27.598   9.450
 5811POPC   PO433816  26.810  27.638   9.150
 5811POPC   GL133817  26.844  27.614   8.850
 5811POPC   GL233818  26.761  27.498   8.850
 5811POPC   C1A33819  26.817  27.639   8.550
 5811POPC   D2A33820  26.833  27.548   8.250
 5811POPC   C3A33821  26.843  27.643   7.950
 5811POPC   C4A33822  26.790  27.613   7.650
 5811POPC   C1B33823  26.617  27.382   8.550
 5811POPC   C2B33824  26.653  27.363   8.250
 5811POPC   C3B33825  26.683  27.402   7.950
 5811POPC   C4B33826  26.670  27.425   7.650
 5812POPC   NC333827  17.460  12.042   9.450
 5812POPC   PO433828  17.512  12.067   9.150
 5812POPC   GL133829  17.488  12.126   8.850
 5812POPC   GL233830  17.609  12.069   8.850
 5812POPC   C1A33831  17.502  12.082   8.550
 5812POPC   D2A33832  17.464  12.120   8.250
 5812POPC   C3A33833  17.545  12.113   7.950
 5812POPC   C4A33834  17.466  12.059   7.650
 5812POPC   C1B33835  17.771  12.193   8.550
 5812POPC   C2B33836  17.715  12.176   8.250
 5812POPC   C3B33837  17.701  12.146   7.950
 5812POPC   C4B33838  17.748  12.143   7.650
 5813POPC   NC333839  25.996  19.055   9.450
 5813POPC   PO433840  26.005  19.022   9.150
 5813POPC   GL133841  26.034  19.069   8.850
 5813POPC   GL233842  25.936  18.969   8.850
 5813POPC   C1A33843  26.075  19.017   8.550
 5813POPC   D2A33844  26.066  19.014   8.250
 5813POPC   C3A33845  26.077  19.055   7.950
 5813POPC   C4A33846  26.022  19.055   7.650
 5813POPC   C1B33847  25.864  18.877   8.550
 5813POPC   C2B33848  25.885  18.893   8.250
 5813POPC   C3B33849  25.870  18.919   7.950
 5813POPC   C4B33850  25.828  18.858   7.650
 5814POPC   NC333851  35.316  19.022   9.450
 5814POPC   PO433852  35.321  19.039   9.150
 5814POPC   GL133853  35.377  19.066   8.850
 5814POPC   GL233854  35.279  19.133   8.850
 5814POPC   C1A33855  35.323  19.092   8.550
 5814POPC   D2A33856  35.388  19.035   8.250
 5814POPC   C3A33857  35.381  19.102   7.950
 5814POPC   C4A33858  35.395  19.050   7.650
 5814POPC   C1B33859  35.158  19.160   8.550
 5814POPC   C2B33860  35.114  19.110   8.250
 5814POPC   C3B33861  35.158  19.180   7.950
 5814POPC   C4B33862  35.090  19.178   7.650
 5815POPC   NC333863   6.624  36.881   9.450
 5815POPC   PO433864   6.611  36.930   9.150
 5815POPC   GL133865   6.694  36.927   8.850
 5815POPC   GL233866   6.473  36.877   8.850
 5815POPC   C1A33867   6.621  36.875   8.550
 5815POPC   D2A33868   6.664  36.913   8.250
 5815POPC   C3A33869   6.688  36.939   7.950
 5815POPC   C4A33870   6.644  36.939   7.650
 5815POPC   C1B33871   6.378  36.920   8.550
 5815POPC   C2B33872   6.392  36.858   8.250
 5815POPC   C3B33873   6.347  36.897   7.950
 5815POPC   C4B33874   6.425  36.912   7.650
 5816POPC   NC333875  22.963  29.186   9.450
 5816POPC   PO433876  22.920  29.187   9.150
 5816POPC   GL133877  22.891  29.164   8.850
 5816POPC   GL233878  22.949  29.023   8.850
 5816POPC   C1A33879  22.955  29.177   8.550
 5816POPC   D2A33880  22.948  29.162   8.250
 5816POPC   C3A33881  22.940  29.191   7.950
 5816POPC   C4A33882  22.920  29.125   7.650
 5816POPC   C1B33883  22.972  28.934   8.550
 5816POPC   C2B33884  23.008  28.936   8.250
 5816POPC   C3B33885  23.003  28.939   7.950
 5816POPC   C4B33886  22.980  28.890   7.650
 5817POPC   NC333887  34.586  23.751   9.450
 5817POPC   PO433888  34.548  23.701   9.150
 5817POPC   GL133889  34.612  23.701   8.850
 5817POPC   GL233890  34.520  23.632   8.850
 5817POPC   C1A33891  34.600  23.692   8.550
 5817POPC   D2A33892  34.534  23.709   8.250
 5817POPC   C3A33893  34.541  23.732   7.950
 5817POPC   C4A33894  34.608  23.735   7.650
 5817POPC   C1B33895  34.482  23.503   8.550
 5817POPC   C2B33896  34.470  23.527   8.250
 5817POPC   C3B33897  34.423  23.453   7.950
 5817POPC   C4B33898  34.410  23.464   7.650
 5818POPC   NC333899  29.180  43.894   9.450
 5818POPC   PO433900  29.166  43.892   9.150
 5818POPC   GL133901  29.189  43.891   8.850
 5818POPC   GL233902  29.206  43.763   8.850
 5818POPC   C1A33903  29.112  43.870   8.550
 5818POPC   D2A33904  29.110  43.848   8.250
 5818POPC   C3A33905  29.162  43.875   7.950
 5818POPC   C4A33906  29.184  43.931   7.650
 5818POPC   C1B33907  29.222  43.713   8.550
 5818POPC   C2B33908  29.280  43.647   8.250
 5818POPC   C3B33909  29.312  43.631   7.950
 5818POPC   C4B33910  29.292  43.626   7.650
 5819POPC   NC333911  28.410  24.460   9.450
 5819POPC   PO433912  28.394  24.485   9.150
 5819POPC   GL133913  28.326  24.469   8.850
 5819POPC   GL233914  28.216  24.458   8.850
 5819POPC   C1A33915  28.330  24.441   8.550
 5819POPC   D2A33916  28.414  24.499   8.250
 5819POPC   C3A33917  28.331  24.480   7.950
 5819POPC   C4A33918  28.401  24.475   7.650
 5819POPC   C1B33919  28.114  24.468   8.550
 5819POPC   C2B33920  28.130  24.468   8.250
 5819POPC   C3B33921  28.114  24.519   7.950
 5819POPC   C4B33922  28.076  24.497   7.650
 5820POPC   NC333923   4.332  31.446   9.450
 5820POPC   PO433924   4.289  31.463   9.150
 5820POPC   GL133925   4.358  31.435   8.850
 5820POPC   GL233926   4.248  31.540   8.850
 5820POPC   C1A33927   4.318  31.498   8.550
 5820POPC   D2A33928   4.290  31.505   8.250
 5820POPC   C3A33929   4.298  31.508   7.950
 5820POPC   C4A33930   4.294  31.455   7.650
 5820POPC   C1B33931   4.038  31.601   8.550
 5820POPC   C2B33932   4.107  31.563   8.250
 5820POPC   C3B33933   4.125  31.576   7.950
 5820POPC   C4B33934   4.105  31.545   7.650
 5821POPC   NC333935  38.474  25.287   9.450
 5821POPC   PO433936  38.451  25.305   9.150
 5821POPC   GL133937  38.479  25.239   8.850
 5821POPC   GL233938  38.512  25.101   8.850
 5821POPC   C1A33939  38.476  25.268   8.550
 5821POPC   D2A33940  38.446  25.230   8.250
 5821POPC   C3A33941  38.474  25.271   7.950
 5821POPC   C4A33942  38.474  25.217   7.650
 5821POPC   C1B33943  38.481  24.973   8.550
 5821POPC   C2B33944  38.515  25.020   8.250
 5821POPC   C3B33945  38.522  25.061   7.950
 5821POPC   C4B33946  38.529  24.989   7.650
 5822POPC   NC333947  14.425  15.969   9.450
 5822POPC   PO433948  14.368  15.928   9.150
 5822POPC   GL133949  14.419  15.913   8.850
 5822POPC   GL233950  14.342  15.852   8.850
 5822POPC   C1A33951  14.370  15.985   8.550
 5822POPC   D2A33952  14.407  15.935   8.250
 5822POPC   C3A33953  14.452  15.984   7.950
 5822POPC   C4A33954  14.421  15.943   7.650
 5822POPC   C1B33955  14.239  15.750   8.550
 5822POPC   C2B33956  14.207  15.798   8.250
 5822POPC   C3B33957  14.206  15.806   7.950
 5822POPC   C4B33958  14.184  15.748   7.650
 5823POPC   NC333959  30.655   8.190   9.450
 5823POPC   PO433960  30.732   8.227   9.150
 5823POPC   GL133961  30.658   8.155   8.850
 5823POPC   GL233962  30.569   8.093   8.850
 5823POPC   C1A33963  30.656   8.189   8.550
 5823POPC   D2A33964  30.651   8.215   8.250
 5823POPC   C3A33965  30.702   8.222   7.950
 5823POPC   C4A33966  30.675   8.197   7.650
 5823POPC   C1B33967  30.495   8.044   8.550
 5823POPC   C2B33968  30.479   8.064   8.250
 5823POPC   C3B33969  30.473   8.090   7.950
 5823POPC   C4B33970  30.452   8.091   7.650
 5824POPC   NC333971  33.072  44.660   9.450
 5824POPC   PO433972  33.072  44.687   9.150
 5824POPC   GL133973  33.015  44.710   8.850
 5824POPC   GL233974  32.952  44.599   8.850
 5824POPC   C1A33975  33.029  44.686   8.550
 5824POPC   D2A33976  33.048  44.662   8.250
 5824POPC   C3A33977  33.037  44.640   7.950
 5824POPC   C4A33978  33.059  44.673   7.650
 5824POPC   C1B33979  32.795  44.538   8.550
 5824POPC   C2B33980  32.815  44.528   8.250
 5824POPC   C3B33981  32.818  44.538   7.950
 5824POPC   C4B33982  32.808  44.528   7.650
 5825POPC   NC333983  30.692  16.747   9.450
 5825POPC   PO433984  30.650  16.749   9.150
 5825POPC   GL133985  30.649  16.696   8.850
 5825POPC   GL233986  30.849  16.699   8.850
 5825POPC   C1A33987  30.736  16.715   8.550
 5825POPC   D2A33988  30.699  16.718   8.250
 5825POPC   C3A33989  30.740  16.764   7.950
 5825POPC   C4A33990  30.696  16.687   7.650
 5825POPC   C1B33991  30.971  16.693   8.550
 5825POPC   C2B33992  30.891  16.686   8.250
 5825POPC   C3B33993  30.918  16.712   7.950
 5825POPC   C4B33994  30.917  16.643   7.650
 5826POPC   NC333995  29.186  11.318   9.450
 5826POPC   PO433996  29.140  11.273   9.150
 5826POPC   GL133997  29.157  11.311   8.850
 5826POPC   GL233998  29.095  11.417   8.850
 5826POPC   C1A33999  29.181  11.276   8.550
 5826POPC   D2A34000  29.166  11.286   8.250
 5826POPC   C3A34001  29.140  11.303   7.950
 5826POPC   C4A34002  29.128  11.328   7.650
 5826POPC   C1B34003  28.975  11.470   8.550
 5826POPC   C2B34004  28.932  11.415   8.250
 5826POPC   C3B34005  28.973  11.448   7.950
 5826POPC   C4B34006  28.993  11.489   7.650
 5827POPC   NC334007  16.736  26.773   9.450
 5827POPC   PO434008  16.747  26.826   9.150
 5827POPC   GL134009  16.700  26.837   8.850
 5827POPC   GL234010  16.628  26.954   8.850
 5827POPC   C1A34011  16.773  26.854   8.550
 5827POPC   D2A34012  16.775  26.861   8.250
 5827POPC   C3A34013  16.682  26.826   7.950
 5827POPC   C4A34014  16.712  26.795   7.650
 5827POPC   C1B34015  16.594  26.949   8.550
 5827POPC   C2B34016  16.524  26.966   8.250
 5827POPC   C3B34017  16.530  26.959   7.950
 5827POPC   C4B34018  16.527  26.991   7.650
 5828POPC   NC334019  36.922   1.217   9.450
 5828POPC   PO434020  36.915   1.200   9.150
 5828POPC   GL134021  36.882   1.223   8.850
 5828POPC   GL234022  36.757   1.210   8.850
 5828POPC   C1A34023  36.890   1.180   8.550
 5828POPC   D2A34024  36.938   1.240   8.250
 5828POPC   C3A34025  36.948   1.176   7.950
 5828POPC   C4A34026  36.890   1.257   7.650
 5828POPC   C1B34027  36.662   1.182   8.550
 5828POPC   C2B34028  36.659   1.190   8.250
 5828POPC   C3B34029  36.646   1.231   7.950
 5828POPC   C4B34030  36.642   1.196   7.650
 5829POPC   NC334031  14.383  16.716   9.450
 5829POPC   PO434032  14.444  16.778   9.150
 5829POPC   GL134033  14.427  16.778   8.850
 5829POPC   GL234034  14.520  16.839   8.850
 5829POPC   C1A34035  14.410  16.780   8.550
 5829POPC   D2A34036  14.423  16.713   8.250
 5829POPC   C3A34037  14.400  16.727   7.950
 5829POPC   C4A34038  14.369  16.740   7.650
 5829POPC   C1B34039  14.634  16.806   8.550
 5829POPC   C2B34040  14.576  16.827   8.250
 5829POPC   C3B34041  14.660  16.872   7.950
 5829POPC   C4B34042  14.650  16.845   7.650
 5830POPC   NC334043  42.371  40.814   9.450
 5830POPC   PO434044  42.301  40.793   9.150
 5830POPC   GL134045  42.306  40.745   8.850
 5830POPC   GL234046  42.332  40.867   8.850
 5830POPC   C1A34047  42.321  40.799   8.550
 5830POPC   D2A34048  42.374  40.734   8.250
 5830POPC   C3A34049  42.329  40.789   7.950
 5830POPC   C4A34050  42.339  40.745   7.650
 5830POPC   C1B34051  42.187  40.990   8.550
 5830POPC   C2B34052  42.245  40.992   8.250
 5830POPC   C3B34053  42.251  40.976   7.950
 5830POPC   C4B34054  42.186  41.001   7.650
 5831POPC   NC334055  15.938   2.737   9.450
 5831POPC   PO434056  15.960   2.749   9.150
 5831POPC   GL134057  15.990   2.808   8.850
 5831POPC   GL234058  15.952   2.903   8.850
 5831POPC   C1A34059  15.987   2.768   8.550
 5831POPC   D2A34060  15.973   2.787   8.250
 5831POPC   C3A34061  15.938   2.739   7.950
 5831POPC   C4A34062  15.912   2.719   7.650
 5831POPC   C1B34063  15.920   3.012   8.550
 5831POPC   C2B34064  15.962   3.046   8.250
 5831POPC   C3B34065  15.997   3.056   7.950
 5831POPC   C4B34066  15.995   3.062   7.650
 5832POPC   NC334067  20.607  36.127   9.450
 5832POPC   PO434068  20.620  36.140   9.150
 5832POPC   GL134069  20.568  36.106   8.850
 5832POPC   GL234070  20.583  36.042   8.850
 5832POPC   C1A34071  20.570  36.094   8.550
 5832POPC   D2A34072  20.632  36.111   8.250
 5832POPC   C3A34073  20.587  36.120   7.950
 5832POPC   C4A34074  20.631  36.165   7.650
 5832POPC   C1B34075  20.618  35.847   8.550
 5832POPC   C2B34076  20.618  35.849   8.250
 5832POPC   C3B34077  20.614  35.882   7.950
 5832POPC   C4B34078  20.627  35.876   7.650
 5833POPC   NC334079   4.298  40.817   9.450
 5833POPC   PO434080   4.296  40.831   9.150
 5833POPC   GL134081   4.298  40.798   8.850
 5833POPC   GL234082   4.460  40.865   8.850
 5833POPC   C1A34083   4.362  40.752   8.550
 5833POPC   D2A34084   4.281  40.758   8.250
 5833POPC   C3A34085   4.349  40.806   7.950
 5833POPC   C4A34086   4.281  40.766   7.650
 5833POPC   C1B34087   4.548  40.888   8.550
 5833POPC   C2B34088   4.538  40.911   8.250
 5833POPC   C3B34089   4.515  40.817   7.950
 5833POPC   C4B34090   4.508  40.821   7.650
 5834POPC   NC334091  36.173  11.317   9.450
 5834POPC   PO434092  36.149  11.333   9.150
 5834POPC   GL134093  36.136  11.304   8.850
 5834POPC   GL234094  36.189  11.157   8.850
 5834POPC   C1A34095  36.111  11.270   8.550
 5834POPC   D2A34096  36.113  11.300   8.250
 5834POPC   C3A34097  36.172  11.313   7.950
 5834POPC   C4A34098  36.165  11.261   7.650
 5834POPC   C1B34099  36.184  11.013   8.550
 5834POPC   C2B34100  36.185  11.020   8.250
 5834POPC   C3B34101  36.234  11.041   7.950
 5834POPC   C4B34102  36.209  11.076   7.650
 5835POPC   NC334103  18.264  34.547   9.450
 5835POPC   PO434104  18.266  34.590   9.150
 5835POPC   GL134105  18.329  34.596   8.850
 5835POPC   GL234106  18.199  34.545   8.850
 5835POPC   C1A34107  18.259  34.531   8.550
 5835POPC   D2A34108  18.303  34.560   8.250
 5835POPC   C3A34109  18.331  34.614   7.950
 5835POPC   C4A34110  18.236  34.545   7.650
 5835POPC   C1B34111  18.083  34.550   8.550
 5835POPC   C2B34112  17.995  34.514   8.250
 5835POPC   C3B34113  18.011  34.476   7.950
 5835POPC   C4B34114  18.076  34.523   7.650
 5836POPC   NC334115  19.087  20.562   9.450
 5836POPC   PO434116  19.017  20.617   9.150
 5836POPC   GL134117  19.092  20.588   8.850
 5836POPC   GL234118  19.149  20.534   8.850
 5836POPC   C1A34119  19.101  20.630   8.550
 5836POPC   D2A34120  19.081  20.601   8.250
 5836POPC   C3A34121  19.038  20.562   7.950
 5836POPC   C4A34122  19.048  20.577   7.650
 5836POPC   C1B34123  19.168  20.380   8.550
 5836POPC   C2B34124  19.220  20.437   8.250
 5836POPC   C3B34125  19.167  20.447   7.950
 5836POPC   C4B34126  19.183  20.417   7.650
 5837POPC   NC334127  28.327  38.494   9.450
 5837POPC   PO434128  28.401  38.410   9.150
 5837POPC   GL134129  28.356  38.478   8.850
 5837POPC   GL234130  28.425  38.521   8.850
 5837POPC   C1A34131  28.418  38.452   8.550
 5837POPC   D2A34132  28.353  38.419   8.250
 5837POPC   C3A34133  28.371  38.465   7.950
 5837POPC   C4A34134  28.393  38.487   7.650
 5837POPC   C1B34135  28.477  38.610   8.550
 5837POPC   C2B34136  28.503  38.612   8.250
 5837POPC   C3B34137  28.489  38.694   7.950
 5837POPC   C4B34138  28.534  38.648   7.650
 5838POPC   NC334139  29.897  29.934   9.450
 5838POPC   PO434140  29.960  29.915   9.150
 5838POPC   GL134141  29.890  29.889   8.850
 5838POPC   GL234142  29.768  29.882   8.850
 5838POPC   C1A34143  29.953  29.950   8.550
 5838POPC   D2A34144  29.929  29.967   8.250
 5838POPC   C3A34145  29.937  29.933   7.950
 5838POPC   C4A34146  29.916  29.884   7.650
 5838POPC   C1B34147  29.639  29.933   8.550
 5838POPC   C2B34148  29.655  29.921   8.250
 5838POPC   C3B34149  29.664  29.892   7.950
 5838POPC   C4B34150  29.658  29.877   7.650
 5839POPC   NC334151  39.970  29.890   9.450
 5839POPC   PO434152  39.958  29.922   9.150
 5839POPC   GL134153  39.974  29.960   8.850
 5839POPC   GL234154  39.906  29.975   8.850
 5839POPC   C1A34155  40.005  29.927   8.550
 5839POPC   D2A34156  39.957  29.909   8.250
 5839POPC   C3A34157  39.992  29.964   7.950
 5839POPC   C4A34158  39.959  29.923   7.650
 5839POPC   C1B34159  39.787  30.067   8.550
 5839POPC   C2B34160  39.803  30.070   8.250
 5839POPC   C3B34161  39.823  30.008   7.950
 5839POPC   C4B34162  39.753  30.065   7.650
 5840POPC   NC334163  42.314  15.957   9.450
 5840POPC   PO434164  42.366  15.979   9.150
 5840POPC   GL134165  42.351  15.941   8.850
 5840POPC   GL234166  42.340  16.051   8.850
 5840POPC   C1A34167  42.318  15.976   8.550
 5840POPC   D2A34168  42.379  15.967   8.250
 5840POPC   C3A34169  42.322  15.992   7.950
 5840POPC   C4A34170  42.303  15.960   7.650
 5840POPC   C1B34171  42.210  16.193   8.550
 5840POPC   C2B34172  42.290  16.221   8.250
 5840POPC   C3B34173  42.207  16.182   7.950
 5840POPC   C4B34174  42.208  16.147   7.650
 5841POPC   NC334175  36.874  43.118   9.450
 5841POPC   PO434176  36.854  43.111   9.150
 5841POPC   GL134177  36.941  43.123   8.850
 5841POPC   GL234178  37.018  42.980   8.850
 5841POPC   C1A34179  36.930  43.142   8.550
 5841POPC   D2A34180  36.934  43.096   8.250
 5841POPC   C3A34181  36.875  43.073   7.950
 5841POPC   C4A34182  36.858  43.159   7.650
 5841POPC   C1B34183  37.084  42.861   8.550
 5841POPC   C2B34184  37.045  42.924   8.250
 5841POPC   C3B34185  36.993  42.901   7.950
 5841POPC   C4B34186  37.012  42.915   7.650
 5842POPC   NC334187   8.246  17.542   9.450
 5842POPC   PO434188   8.246  17.554   9.150
 5842POPC   GL134189   8.147  17.501   8.850
 5842POPC   GL234190   8.227  17.396   8.850
 5842POPC   C1A34191   8.186  17.548   8.550
 5842POPC   D2A34192   8.240  17.488   8.250
 5842POPC   C3A34193   8.203  17.532   7.950
 5842POPC   C4A34194   8.192  17.467   7.650
 5842POPC   C1B34195   8.215  17.242   8.550
 5842POPC   C2B34196   8.216  17.261   8.250
 5842POPC   C3B34197   8.304  17.251   7.950
 5842POPC   C4B34198   8.273  17.296   7.650
 5843POPC   NC334199  26.855   8.215   9.450
 5843POPC   PO434200  26.836   8.198   9.150
 5843POPC   GL134201  26.846   8.148   8.850
 5843POPC   GL234202  26.834   8.326   8.850
 5843POPC   C1A34203  26.794   8.230   8.550
 5843POPC   D2A34204  26.833   8.199   8.250
 5843POPC   C3A34205  26.793   8.147   7.950
 5843POPC   C4A34206  26.789   8.165   7.650
 5843POPC   C1B34207  26.746   8.446   8.550
 5843POPC   C2B34208  26.751   8.488   8.250
 5843POPC   C3B34209  26.753   8.455   7.950
 5843POPC   C4B34210  26.748   8.483   7.650
 5844POPC   NC334211  41.565  30.717   9.450
 5844POPC   PO434212  41.590  30.702   9.150
 5844POPC   GL134213  41.599  30.745   8.850
 5844POPC   GL234214  41.455  30.787   8.850
 5844POPC   C1A34215  41.574  30.669   8.550
 5844POPC   D2A34216  41.538  30.689   8.250
 5844POPC   C3A34217  41.590  30.649   7.950
 5844POPC   C4A34218  41.604  30.690   7.650
 5844POPC   C1B34219  41.381  30.862   8.550
 5844POPC   C2B34220  41.383  30.774   8.250
 5844POPC   C3B34221  41.328  30.801   7.950
 5844POPC   C4B34222  41.342  30.815   7.650
 5845POPC   NC334223   2.784  17.514   9.450
 5845POPC   PO434224   2.761  17.464   9.150
 5845POPC   GL134225   2.716  17.529   8.850
 5845POPC   GL234226   2.846  17.500   8.850
 5845POPC   C1A34227   2.776  17.546   8.550
 5845POPC   D2A34228   2.788  17.468   8.250
 5845POPC   C3A34229   2.716  17.536   7.950
 5845POPC   C4A34230   2.733  17.507   7.650
 5845POPC   C1B34231   3.047  17.513   8.550
 5845POPC   C2B34232   2.999  17.521   8.250
 5845POPC   C3B34233   2.983  17.534   7.950
 5845POPC   C4B34234   2.989  17.519   7.650
 5846POPC   NC334235  24.472  41.532   9.450
 5846POPC   PO434236  24.503  41.596   9.150
 5846POPC   GL134237  24.461  41.557   8.850
 5846POPC   GL234238  24.480  41.671   8.850
 5846POPC   C1A34239  24.497  41.577   8.550
 5846POPC   D2A34240  24.486  41.606   8.250
 5846POPC   C3A34241  24.482  41.536   7.950
 5846POPC   C4A34242  24.531  41.603   7.650
 5846POPC   C1B34243  24.464  41.825   8.550
 5846POPC   C2B34244  24.490  41.851   8.250
 5846POPC   C3B34245  24.541  41.847   7.950
 5846POPC   C4B34246  24.501  41.813   7.650
 5847POPC   NC334247  39.198  38.467   9.450
 5847POPC   PO434248  39.184  38.474   9.150
 5847POPC   GL134249  39.242  38.421   8.850
 5847POPC   GL234250  39.075  38.479   8.850
 5847POPC   C1A34251  39.201  38.477   8.550
 5847POPC   D2A34252  39.187  38.497   8.250
 5847POPC   C3A34253  39.257  38.430   7.950
 5847POPC   C4A34254  39.251  38.475   7.650
 5847POPC   C1B34255  39.054  38.622   8.550
 5847POPC   C2B34256  39.030  38.612   8.250
 5847POPC   C3B34257  38.993  38.593   7.950
 5847POPC   C4B34258  38.991  38.595   7.650
 5848POPC   NC334259  19.092  27.595   9.450
 5848POPC   PO434260  19.083  27.617   9.150
 5848POPC   GL134261  19.102  27.631   8.850
 5848POPC   GL234262  19.110  27.489   8.850
 5848POPC   C1A34263  19.022  27.625   8.550
 5848POPC   D2A34264  19.073  27.555   8.250
 5848POPC   C3A34265  19.016  27.618   7.950
 5848POPC   C4A34266  19.067  27.614   7.650
 5848POPC   C1B34267  19.119  27.384   8.550
 5848POPC   C2B34268  19.191  27.396   8.250
 5848POPC   C3B34269  19.118  27.344   7.950
 5848POPC   C4B34270  19.117  27.337   7.650
 5849POPC   NC334271  38.414  19.793   9.450
 5849POPC   PO434272  38.421  19.804   9.150
 5849POPC   GL134273  38.478  19.871   8.850
 5849POPC   GL234274  38.543  19.913   8.850
 5849POPC   C1A34275  38.473  19.842   8.550
 5849POPC   D2A34276  38.491  19.808   8.250
 5849POPC   C3A34277  38.492  19.846   7.950
 5849POPC   C4A34278  38.490  19.884   7.650
 5849POPC   C1B34279  38.650  20.024   8.550
 5849POPC   C2B34280  38.588  19.986   8.250
 5849POPC   C3B34281  38.657  19.990   7.950
 5849POPC   C4B34282  38.570  20.011   7.650
 5850POPC   NC334283  36.172  43.061   9.450
 5850POPC   PO434284  36.091  43.119   9.150
 5850POPC   GL134285  36.105  43.122   8.850
 5850POPC   GL234286  36.115  43.239   8.850
 5850POPC   C1A34287  36.161  43.097   8.550
 5850POPC   D2A34288  36.139  43.067   8.250
 5850POPC   C3A34289  36.107  43.078   7.950
 5850POPC   C4A34290  36.144  43.147   7.650
 5850POPC   C1B34291  36.050  43.318   8.550
 5850POPC   C2B34292  36.106  43.350   8.250
 5850POPC   C3B34293  36.080  43.381   7.950
 5850POPC   C4B34294  36.036  43.400   7.650
 5851POPC   NC334295  44.642  11.347   9.450
 5851POPC   PO434296  44.692  11.265   9.150
 5851POPC   GL134297  44.621  11.339   8.850
 5851POPC   GL234298  44.501  11.263   8.850
 5851POPC   C1A34299  44.632  11.319   8.550
 5851POPC   D2A34300  44.623  11.314   8.250
 5851POPC   C3A34301  44.697  11.295   7.950
 5851POPC   C4A34302  44.614  11.251   7.650
 5851POPC   C1B34303  44.471  11.269   8.550
 5851POPC   C2B34304  44.371  11.257   8.250
 5851POPC   C3B34305  44.418  11.216   7.950
 5851POPC   C4B34306  44.378  11.192   7.650
 5852POPC   NC334307   6.607  33.012   9.450
 5852POPC   PO434308   6.676  33.018   9.150
 5852POPC   GL134309   6.671  33.066   8.850
 5852POPC   GL234310   6.552  33.002   8.850
 5852POPC   C1A34311   6.685  33.054   8.550
 5852POPC   D2A34312   6.663  32.986   8.250
 5852POPC   C3A34313   6.650  32.984   7.950
 5852POPC   C4A34314   6.666  33.060   7.650
 5852POPC   C1B34315   6.428  33.102   8.550
 5852POPC   C2B34316   6.425  33.066   8.250
 5852POPC   C3B34317   6.437  33.016   7.950
 5852POPC   C4B34318   6.359  33.098   7.650
 5853POPC   NC334319  19.800  15.963   9.450
 5853POPC   PO434320  19.860  15.996   9.150
 5853POPC   GL134321  19.849  15.963   8.850
 5853POPC   GL234322  19.731  15.895   8.850
 5853POPC   C1A34323  19.880  15.927   8.550
 5853POPC   D2A34324  19.884  15.952   8.250
 5853POPC   C3A34325  19.813  15.947   7.950
 5853POPC   C4A34326  19.849  15.980   7.650
 5853POPC   C1B34327  19.573  15.850   8.550
 5853POPC   C2B34328  19.655  15.818   8.250
 5853POPC   C3B34329  19.643  15.858   7.950
 5853POPC   C4B34330  19.584  15.873   7.650
 5854POPC   NC334331  19.081  41.586   9.450
 5854POPC   PO434332  19.103  41.511   9.150
 5854POPC   GL134333  19.106  41.549   8.850
 5854POPC   GL234334  18.937  41.533   8.850
 5854POPC   C1A34335  19.103  41.588   8.550
 5854POPC   D2A34336  19.026  41.519   8.250
 5854POPC   C3A34337  19.019  41.558   7.950
 5854POPC   C4A34338  19.058  41.604   7.650
 5854POPC   C1B34339  18.794  41.512   8.550
 5854POPC   C2B34340  18.792  41.464   8.250
 5854POPC   C3B34341  18.847  41.459   7.950
 5854POPC   C4B34342  18.850  41.552   7.650
 5855POPC   NC334343  14.382   8.977   9.450
 5855POPC   PO434344  14.363   8.961   9.150
 5855POPC   GL134345  14.375   8.956   8.850
 5855POPC   GL234346  14.292   9.038   8.850
 5855POPC   C1A34347  14.362   8.977   8.550
 5855POPC   D2A34348  14.443   8.934   8.250
 5855POPC   C3A34349  14.398   8.928   7.950
 5855POPC   C4A34350  14.357   8.923   7.650
 5855POPC   C1B34351  14.215   9.055   8.550
 5855POPC   C2B34352  14.130   9.038   8.250
 5855POPC   C3B34353  14.188   9.034   7.950
 5855POPC   C4B34354  14.208   9.072   7.650
 5856POPC   NC334355  10.480  30.661   9.450
 5856POPC   PO434356  10.571  30.706   9.150
 5856POPC   GL134357  10.561  30.686   8.850
 5856POPC   GL234358  10.607  30.764   8.850
 5856POPC   C1A34359  10.561  30.673   8.550
 5856POPC   D2A34360  10.492  30.742   8.250
 5856POPC   C3A34361  10.490  30.707   7.950
 5856POPC   C4A34362  10.574  30.682   7.650
 5856POPC   C1B34363  10.636  30.879   8.550
 5856POPC   C2B34364  10.632  30.938   8.250
 5856POPC   C3B34365  10.657  30.913   7.950
 5856POPC   C4B34366  10.689  30.928   7.650
 5857POPC   NC334367  37.714  26.067   9.450
 5857POPC   PO434368  37.700  26.009   9.150
 5857POPC   GL134369  37.722  25.992   8.850
 5857POPC   GL234370  37.613  26.110   8.850
 5857POPC   C1A34371  37.722  25.997   8.550
 5857POPC   D2A34372  37.650  26.078   8.250
 5857POPC   C3A34373  37.708  26.004   7.950
 5857POPC   C4A34374  37.663  26.022   7.650
 5857POPC   C1B34375  37.477  26.228   8.550
 5857POPC   C2B34376  37.551  26.273   8.250
 5857POPC   C3B34377  37.558  26.279   7.950
 5857POPC   C4B34378  37.572  26.264   7.650
 5858POPC   NC334379  40.767  23.735   9.450
 5858POPC   PO434380  40.743  23.753   9.150
 5858POPC   GL134381  40.798  23.687   8.850
 5858POPC   GL234382  40.769  23.811   8.850
 5858POPC   C1A34383  40.812  23.698   8.550
 5858POPC   D2A34384  40.813  23.755   8.250
 5858POPC   C3A34385  40.741  23.703   7.950
 5858POPC   C4A34386  40.821  23.664   7.650
 5858POPC   C1B34387  40.700  23.952   8.550
 5858POPC   C2B34388  40.671  23.961   8.250
 5858POPC   C3B34389  40.725  23.956   7.950
 5858POPC   C4B34390  40.750  23.940   7.650
 5859POPC   NC334391  30.678   1.971   9.450
 5859POPC   PO434392  30.687   2.022   9.150
 5859POPC   GL134393  30.686   2.006   8.850
 5859POPC   GL234394  30.540   1.982   8.850
 5859POPC   C1A34395  30.679   2.012   8.550
 5859POPC   D2A34396  30.700   1.982   8.250
 5859POPC   C3A34397  30.721   2.011   7.950
 5859POPC   C4A34398  30.655   1.954   7.650
 5859POPC   C1B34399  30.478   1.991   8.550
 5859POPC   C2B34400  30.465   1.996   8.250
 5859POPC   C3B34401  30.470   2.006   7.950
 5859POPC   C4B34402  30.439   2.045   7.650
 5860POPC   NC334403  43.922  36.101   9.450
 5860POPC   PO434404  43.839  36.116   9.150
 5860POPC   GL134405  43.840  36.125   8.850
 5860POPC   GL234406  43.861  36.211   8.850
 5860POPC   C1A34407  43.863  36.165   8.550
 5860POPC   D2A34408  43.852  36.136   8.250
 5860POPC   C3A34409  43.903  36.093   7.950
 5860POPC   C4A34410  43.891  36.098   7.650
 5860POPC   C1B34411  43.866  36.369   8.550
 5860POPC   C2B34412  43.896  36.391   8.250
 5860POPC   C3B34413  43.846  36.351   7.950
 5860POPC   C4B34414  43.921  36.351   7.650
 5861POPC   NC334415   2.797   0.455   9.450
 5861POPC   PO434416   2.743   0.415   9.150
 5861POPC   GL134417   2.815   0.444   8.850
 5861POPC   GL234418   2.880   0.473   8.850
 5861POPC   C1A34419   2.753   0.487   8.550
 5861POPC   D2A34420   2.761   0.400   8.250
 5861POPC   C3A34421   2.716   0.414   7.950
 5861POPC   C4A34422   2.814   0.463   7.650
 5861POPC   C1B34423   2.953   0.478   8.550
 5861POPC   C2B34424   2.967   0.473   8.250
 5861POPC   C3B34425   2.998   0.478   7.950
 5861POPC   C4B34426   3.023   0.537   7.650
 5862POPC   NC334427   5.053  25.295   9.450
 5862POPC   PO434428   5.066  25.279   9.150
 5862POPC   GL134429   5.137  25.238   8.850
 5862POPC   GL234430   5.052  25.356   8.850
 5862POPC   C1A34431   5.048  25.236   8.550
 5862POPC   D2A34432   5.109  25.267   8.250
 5862POPC   C3A34433   5.052  25.284   7.950
 5862POPC   C4A34434   5.136  25.314   7.650
 5862POPC   C1B34435   4.927  25.469   8.550
 5862POPC   C2B34436   4.926  25.493   8.250
 5862POPC   C3B34437   4.956  25.486   7.950
 5862POPC   C4B34438   4.940  25.460   7.650
 5863POPC   NC334439  33.805  15.130   9.450
 5863POPC   PO434440  33.820  15.154   9.150
 5863POPC   GL134441  33.776  15.181   8.850
 5863POPC   GL234442  33.789  15.250   8.850
 5863POPC   C1A34443  33.751  15.196   8.550
 5863POPC   D2A34444  33.781  15.220   8.250
 5863POPC   C3A34445  33.802  15.150   7.950
 5863POPC   C4A34446  33.773  15.200   7.650
 5863POPC   C1B34447  33.670  15.373   8.550
 5863POPC   C2B34448  33.711  15.397   8.250
 5863POPC   C3B34449  33.688  15.390   7.950
 5863POPC   C4B34450  33.678  15.407   7.650
 5864POPC   NC334451   2.029  30.705   9.450
 5864POPC   PO434452   1.999  30.680   9.150
 5864POPC   GL134453   1.998  30.655   8.850
 5864POPC   GL234454   2.094  30.612   8.850
 5864POPC   C1A34455   1.975  30.722   8.550
 5864POPC   D2A34456   2.018  30.723   8.250
 5864POPC   C3A34457   2.037  30.746   7.950
 5864POPC   C4A34458   1.954  30.681   7.650
 5864POPC   C1B34459   2.114  30.446   8.550
 5864POPC   C2B34460   2.120  30.444   8.250
 5864POPC   C3B34461   2.142  30.472   7.950
 5864POPC   C4B34462   2.147  30.483   7.650
 5865POPC   NC334463   5.068  20.574   9.450
 5865POPC   PO434464   5.057  20.651   9.150
 5865POPC   GL134465   5.057  20.569   8.850
 5865POPC   GL234466   5.051  20.470   8.850
 5865POPC   C1A34467   5.096  20.639   8.550
 5865POPC   D2A34468   5.088  20.643   8.250
 5865POPC   C3A34469   5.142  20.592   7.950
 5865POPC   C4A34470   5.057  20.656   7.650
 5865POPC   C1B34471   4.945  20.419   8.550
 5865POPC   C2B34472   4.999  20.415   8.250
 5865POPC   C3B34473   4.981  20.426   7.950
 5865POPC   C4B34474   4.985  20.368   7.650
 5866POPC   NC334475  26.018  37.635   9.450
 5866POPC   PO434476  26.028  37.688   9.150
 5866POPC   GL134477  26.039  37.674   8.850
 5866POPC   GL234478  26.107  37.581   8.850
 5866POPC   C1A34479  26.022  37.666   8.550
 5866POPC   D2A34480  26.060  37.706   8.250
 5866POPC   C3A34481  26.057  37.717   7.950
 5866POPC   C4A34482  26.056  37.694   7.650
 5866POPC   C1B34483  26.144  37.501   8.550
 5866POPC   C2B34484  26.110  37.412   8.250
 5866POPC   C3B34485  26.136  37.404   7.950
 5866POPC   C4B34486  26.182  37.442   7.650
 5867POPC   NC334487  14.372  43.123   9.450
 5867POPC   PO434488  14.421  43.123   9.150
 5867POPC   GL134489  14.355  43.141   8.850
 5867POPC   GL234490  14.447  43.241   8.850
 5867POPC   C1A34491  14.385  43.155   8.550
 5867POPC   D2A34492  14.439  43.087   8.250
 5867POPC   C3A34493  14.451  43.091   7.950
 5867POPC   C4A34494  14.421  43.106   7.650
 5867POPC   C1B34495  14.459  43.355   8.550
 5867POPC   C2B34496  14.468  43.323   8.250
 5867POPC   C3B34497  14.409  43.353   7.950
 5867POPC   C4B34498  14.416  43.404   7.650
 5868POPC   NC334499  27.599  37.631   9.450
 5868POPC   PO434500  27.576  37.700   9.150
 5868POPC   GL134501  27.570  37.672   8.850
 5868POPC   GL234502  27.534  37.761   8.850
 5868POPC   C1A34503  27.601  37.657   8.550
 5868POPC   D2A34504  27.544  37.714   8.250
 5868POPC   C3A34505  27.570  37.640   7.950
 5868POPC   C4A34506  27.551  37.662   7.650
 5868POPC   C1B34507  27.459  37.939   8.550
 5868POPC   C2B34508  27.470  37.847   8.250
 5868POPC   C3B34509  27.480  37.937   7.950
 5868POPC   C4B34510  27.471  37.920   7.650
 5869POPC   NC334511  19.023  42.375   9.450
 5869POPC   PO434512  19.032  42.308   9.150
 5869POPC   GL134513  19.028  42.329   8.850
 5869POPC   GL234514  19.098  42.420   8.850
 5869POPC   C1A34515  19.045  42.347   8.550
 5869POPC   D2A34516  19.037  42.335   8.250
 5869POPC   C3A34517  19.067  42.297   7.950
 5869POPC   C4A34518  19.013  42.285   7.650
 5869POPC   C1B34519  19.165  42.614   8.550
 5869POPC   C2B34520  19.130  42.561   8.250
 5869POPC   C3B34521  19.198  42.550   7.950
 5869POPC   C4B34522  19.178  42.610   7.650
 5870POPC   NC334523  19.079  21.347   9.450
 5870POPC   PO434524  19.065  21.373   9.150
 5870POPC   GL134525  19.059  21.409   8.850
 5870POPC   GL234526  18.985  21.516   8.850
 5870POPC   C1A34527  19.106  21.389   8.550
 5870POPC   D2A34528  19.025  21.354   8.250
 5870POPC   C3A34529  19.045  21.393   7.950
 5870POPC   C4A34530  19.061  21.427   7.650
 5870POPC   C1B34531  18.986  21.580   8.550
 5870POPC   C2B34532  18.931  21.651   8.250
 5870POPC   C3B34533  18.994  21.641   7.950
 5870POPC   C4B34534  18.929  21.634   7.650
 5871POPC   NC334535  43.066  39.984   9.450
 5871POPC   PO434536  43.096  39.966   9.150
 5871POPC   GL134537  43.129  39.965   8.850
 5871POPC   GL234538  42.997  40.086   8.850
 5871POPC   C1A34539  43.159  40.014   8.550
 5871POPC   D2A34540  43.126  39.971   8.250
 5871POPC   C3A34541  43.109  40.002   7.950
 5871POPC   C4A34542  43.154  39.969   7.650
 5871POPC   C1B34543  42.865  40.176   8.550
 5871POPC   C2B34544  42.920  40.171   8.250
 5871POPC   C3B34545  42.919  40.109   7.950
 5871POPC   C4B34546  42.875  40.138   7.650
 5872POPC   NC334547  22.921  19.850   9.450
 5872POPC   PO434548  22.920  19.811   9.150
 5872POPC   GL134549  22.904  19.826   8.850
 5872POPC   GL234550  22.996  19.938   8.850
 5872POPC   C1A34551  22.952  19.812   8.550
 5872POPC   D2A34552  22.930  19.786   8.250
 5872POPC   C3A34553  22.967  19.852   7.950
 5872POPC   C4A34554  22.977  19.819   7.650
 5872POPC   C1B34555  23.027  20.054   8.550
 5872POPC   C2B34556  23.033  20.100   8.250
 5872POPC   C3B34557  23.037  20.031   7.950
 5872POPC   C4B34558  22.995  20.049   7.650
 5873POPC   NC334559  30.727  36.928   9.450
 5873POPC   PO434560  30.661  36.939   9.150
 5873POPC   GL134561  30.658  36.935   8.850
 5873POPC   GL234562  30.584  36.881   8.850
 5873POPC   C1A34563  30.740  36.854   8.550
 5873POPC   D2A34564  30.723  36.900   8.250
 5873POPC   C3A34565  30.673  36.912   7.950
 5873POPC   C4A34566  30.727  36.935   7.650
 5873POPC   C1B34567  30.402  36.902   8.550
 5873POPC   C2B34568  30.470  36.862   8.250
 5873POPC   C3B34569  30.497  36.836   7.950
 5873POPC   C4B34570  30.420  36.913   7.650
 5874POPC   NC334571  32.283  29.171   9.450
 5874POPC   PO434572  32.264  29.147   9.150
 5874POPC   GL134573  32.225  29.177   8.850
 5874POPC   GL234574  32.256  29.013   8.850
 5874POPC   C1A34575  32.272  29.149   8.550
 5874POPC   D2A34576  32.210  29.106   8.250
 5874POPC   C3A34577  32.238  29.103   7.950
 5874POPC   C4A34578  32.272  29.153   7.650
 5874POPC   C1B34579  32.277  28.934   8.550
 5874POPC   C2B34580  32.334  28.912   8.250
 5874POPC   C3B34581  32.290  28.895   7.950
 5874POPC   C4B34582  32.268  28.911   7.650
 5875POPC   NC334583  25.288  13.648   9.450
 5875POPC   PO434584  25.308  13.592   9.150
 5875POPC   GL134585  25.237  13.618   8.850
 5875POPC   GL234586  25.197  13.581   8.850
 5875POPC   C1A34587  25.277  13.648   8.550
 5875POPC   D2A34588  25.291  13.608   8.250
 5875POPC   C3A34589  25.284  13.654   7.950
 5875POPC   C4A34590  25.315  13.588   7.650
 5875POPC   C1B34591  25.069  13.463   8.550
 5875POPC   C2B34592  25.018  13.453   8.250
 5875POPC   C3B34593  25.083  13.454   7.950
 5875POPC   C4B34594  25.032  13.487   7.650
 5876POPC   NC334595  44.625   2.038   9.450
 5876POPC   PO434596  44.709   2.010   9.150
 5876POPC   GL134597  44.655   2.021   8.850
 5876POPC   GL234598  44.585   2.096   8.850
 5876POPC   C1A34599  44.628   2.026   8.550
 5876POPC   D2A34600  44.645   1.947   8.250
 5876POPC   C3A34601  44.617   1.982   7.950
 5876POPC   C4A34602  44.670   2.006   7.650
 5876POPC   C1B34603  44.475   2.148   8.550
 5876POPC   C2B34604  44.486   2.138   8.250
 5876POPC   C3B34605  44.476   2.127   7.950
 5876POPC   C4B34606  44.503   2.105   7.650
 5877POPC   NC334607  14.419   1.963   9.450
 5877POPC   PO434608  14.411   2.018   9.150
 5877POPC   GL134609  14.441   1.959   8.850
 5877POPC   GL234610  14.316   2.030   8.850
 5877POPC   C1A34611  14.409   2.022   8.550
 5877POPC   D2A34612  14.356   1.978   8.250
 5877POPC   C3A34613  14.368   2.037   7.950
 5877POPC   C4A34614  14.422   1.979   7.650
 5877POPC   C1B34615  14.204   2.031   8.550
 5877POPC   C2B34616  14.116   1.982   8.250
 5877POPC   C3B34617  14.160   1.984   7.950
 5877POPC   C4B34618  14.163   2.013   7.650
 5878POPC   NC334619   1.978  32.287   9.450
 5878POPC   PO434620   1.972  32.287   9.150
 5878POPC   GL134621   1.988  32.250   8.850
 5878POPC   GL234622   1.892  32.192   8.850
 5878POPC   C1A34623   2.031  32.277   8.550
 5878POPC   D2A34624   2.033  32.278   8.250
 5878POPC   C3A34625   1.963  32.259   7.950
 5878POPC   C4A34626   2.038  32.241   7.650
 5878POPC   C1B34627   1.832  32.075   8.550
 5878POPC   C2B34628   1.834  32.120   8.250
 5878POPC   C3B34629   1.783  32.046   7.950
 5878POPC   C4B34630   1.755  32.075   7.650
 5879POPC   NC334631  30.723  12.080   9.450
 5879POPC   PO434632  30.744  12.051   9.150
 5879POPC   GL134633  30.739  12.034   8.850
 5879POPC   GL234634  30.798  11.926   8.850
 5879POPC   C1A34635  30.729  12.103   8.550
 5879POPC   D2A34636  30.727  12.125   8.250
 5879POPC   C3A34637  30.744  12.027   7.950
 5879POPC   C4A34638  30.729  12.104   7.650
 5879POPC   C1B34639  30.864  11.904   8.550
 5879POPC   C2B34640  30.818  11.822   8.250
 5879POPC   C3B34641  30.829  11.908   7.950
 5879POPC   C4B34642  30.871  11.843   7.650
 5880POPC   NC334643   3.555  36.109   9.450
 5880POPC   PO434644   3.560  36.095   9.150
 5880POPC   GL134645   3.505  36.078   8.850
 5880POPC   GL234646   3.515  36.062   8.850
 5880POPC   C1A34647   3.513  36.165   8.550
 5880POPC   D2A34648   3.512  36.081   8.250
 5880POPC   C3A34649   3.500  36.151   7.950
 5880POPC   C4A34650   3.516  36.121   7.650
 5880POPC   C1B34651   3.463  35.860   8.550
 5880POPC   C2B34652   3.489  35.886   8.250
 5880POPC   C3B34653   3.440  35.878   7.950
 5880POPC   C4B34654   3.472  35.909   7.650
 5881POPC   NC334655  41.523  26.793   9.450
 5881POPC   PO434656  41.550  26.818   9.150
 5881POPC   GL134657  41.593  26.794   8.850
 5881POPC   GL234658  41.538  26.884   8.850
 5881POPC   C1A34659  41.527  26.825   8.550
 5881POPC   D2A34660  41.556  26.844   8.250
 5881POPC   C3A34661  41.541  26.777   7.950
 5881POPC   C4A34662  41.577  26.826   7.650
 5881POPC   C1B34663  41.398  26.997   8.550
 5881POPC   C2B34664  41.406  26.975   8.250
 5881POPC   C3B34665  41.382  27.070   7.950
 5881POPC   C4B34666  41.460  27.039   7.650
 5882POPC   NC334667  19.100  30.664   9.450
 5882POPC   PO434668  19.102  30.714   9.150
 5882POPC   GL134669  19.080  30.688   8.850
 5882POPC   GL234670  18.888  30.748   8.850
 5882POPC   C1A34671  19.025  30.715   8.550
 5882POPC   D2A34672  19.023  30.736   8.250
 5882POPC   C3A34673  19.062  30.710   7.950
 5882POPC   C4A34674  19.072  30.654   7.650
 5882POPC   C1B34675  18.780  30.741   8.550
 5882POPC   C2B34676  18.798  30.786   8.250
 5882POPC   C3B34677  18.826  30.780   7.950
 5882POPC   C4B34678  18.796  30.741   7.650
 5883POPC   NC334679  12.078  24.488   9.450
 5883POPC   PO434680  12.079  24.476   9.150
 5883POPC   GL134681  12.069  24.534   8.850
 5883POPC   GL234682  12.019  24.422   8.850
 5883POPC   C1A34683  12.114  24.471   8.550
 5883POPC   D2A34684  12.052  24.448   8.250
 5883POPC   C3A34685  12.086  24.515   7.950
 5883POPC   C4A34686  12.106  24.447   7.650
 5883POPC   C1B34687  11.878  24.281   8.550
 5883POPC   C2B34688  11.900  24.314   8.250
 5883POPC   C3B34689  11.864  24.340   7.950
 5883POPC   C4B34690  11.902  24.334   7.650
 5884POPC   NC334691  26.794  35.350   9.450
 5884POPC   PO434692  26.815  35.358   9.150
 5884POPC   GL134693  26.842  35.349   8.850
 5884POPC   GL234694  26.890  35.264   8.850
 5884POPC   C1A34695  26.789  35.369   8.550
 5884POPC   D2A34696  26.863  35.355   8.250
 5884POPC   C3A34697  26.852  35.312   7.950
 5884POPC   C4A34698  26.797  35.376   7.650
 5884POPC   C1B34699  27.021  35.205   8.550
 5884POPC   C2B34700  27.015  35.218   8.250
 5884POPC   C3B34701  27.009  35.193   7.950
 5884POPC   C4B34702  27.001  35.194   7.650
 5885POPC   NC334703  40.038  23.725   9.450
 5885POPC   PO434704  40.004  23.671   9.150
 5885POPC   GL134705  39.969  23.761   8.850
 5885POPC   GL234706  39.998  23.861   8.850
 5885POPC   C1A34707  40.015  23.717   8.550
 5885POPC   D2A34708  40.021  23.713   8.250
 5885POPC   C3A34709  40.054  23.699   7.950
 5885POPC   C4A34710  40.005  23.675   7.650
 5885POPC   C1B34711  39.901  23.903   8.550
 5885POPC   C2B34712  39.941  23.946   8.250
 5885POPC   C3B34713  39.944  23.905   7.950
 5885POPC   C4B34714  39.901  23.937   7.650
 5886POPC   NC334715  32.215  36.873   9.450
 5886POPC   PO434716  32.246  36.931   9.150
 5886POPC   GL134717  32.282  36.943   8.850
 5886POPC   GL234718  32.218  36.996   8.850
 5886POPC   C1A34719  32.272  36.915   8.550
 5886POPC   D2A34720  32.218  36.921   8.250
 5886POPC   C3A34721  32.283  36.896   7.950
 5886POPC   C4A34722  32.227  36.942   7.650
 5886POPC   C1B34723  32.125  37.155   8.550
 5886POPC   C2B34724  32.149  37.099   8.250
 5886POPC   C3B34725  32.128  37.173   7.950
 5886POPC   C4B34726  32.177  37.091   7.650
 5887POPC   NC334727  33.780  22.134   9.450
 5887POPC   PO434728  33.760  22.180   9.150
 5887POPC   GL134729  33.845  22.132   8.850
 5887POPC   GL234730  33.859  22.044   8.850
 5887POPC   C1A34731  33.796  22.198   8.550
 5887POPC   D2A34732  33.830  22.158   8.250
 5887POPC   C3A34733  33.827  22.151   7.950
 5887POPC   C4A34734  33.794  22.156   7.650
 5887POPC   C1B34735  33.956  21.985   8.550
 5887POPC   C2B34736  33.961  21.989   8.250
 5887POPC   C3B34737  34.001  21.984   7.950
 5887POPC   C4B34738  33.985  22.000   7.650
 5888POPC   NC334739  43.123  17.508   9.450
 5888POPC   PO434740  43.120  17.533   9.150
 5888POPC   GL134741  43.143  17.522   8.850
 5888POPC   GL234742  43.153  17.645   8.850
 5888POPC   C1A34743  43.090  17.513   8.550
 5888POPC   D2A34744  43.076  17.543   8.250
 5888POPC   C3A34745  43.112  17.517   7.950
 5888POPC   C4A34746  43.113  17.492   7.650
 5888POPC   C1B34747  43.199  17.718   8.550
 5888POPC   C2B34748  43.189  17.768   8.250
 5888POPC   C3B34749  43.175  17.733   7.950
 5888POPC   C4B34750  43.224  17.787   7.650
 5889POPC   NC334751  42.292  33.053   9.450
 5889POPC   PO434752  42.317  33.052   9.150
 5889POPC   GL134753  42.293  32.977   8.850
 5889POPC   GL234754  42.234  33.050   8.850
 5889POPC   C1A34755  42.341  33.032   8.550
 5889POPC   D2A34756  42.291  33.032   8.250
 5889POPC   C3A34757  42.346  32.982   7.950
 5889POPC   C4A34758  42.353  33.032   7.650
 5889POPC   C1B34759  42.115  33.136   8.550
 5889POPC   C2B34760  42.061  33.065   8.250
 5889POPC   C3B34761  42.066  33.124   7.950
 5889POPC   C4B34762  42.094  33.154   7.650
 5890POPC   NC334763  12.821   8.229   9.450
 5890POPC   PO434764  12.863   8.164   9.150
 5890POPC   GL134765  12.806   8.236   8.850
 5890POPC   GL234766  12.999   8.172   8.850
 5890POPC   C1A34767  12.899   8.203   8.550
 5890POPC   D2A34768  12.806   8.158   8.250
 5890POPC   C3A34769  12.809   8.160   7.950
 5890POPC   C4A34770  12.902   8.172   7.650
 5890POPC   C1B34771  13.121   8.138   8.550
 5890POPC   C2B34772  13.066   8.194   8.250
 5890POPC   C3B34773  13.086   8.207   7.950
 5890POPC   C4B34774  13.125   8.202   7.650
 5891POPC   NC334775   9.005  40.774   9.450
 5891POPC   PO434776   8.933  40.816   9.150
 5891POPC   GL134777   8.988  40.775   8.850
 5891POPC   GL234778   8.899  40.869   8.850
 5891POPC   C1A34779   9.014  40.755   8.550
 5891POPC   D2A34780   8.933  40.808   8.250
 5891POPC   C3A34781   9.008  40.823   7.950
 5891POPC   C4A34782   8.973  40.748   7.650
 5891POPC   C1B34783   8.803  41.023   8.550
 5891POPC   C2B34784   8.860  41.007   8.250
 5891POPC   C3B34785   8.795  40.990   7.950
 5891POPC   C4B34786   8.773  41.003   7.650
 5892POPC   NC334787  32.221  27.608   9.450
 5892POPC   PO434788  32.270  27.556   9.150
 5892POPC   GL134789  32.253  27.590   8.850
 5892POPC   GL234790  32.384  27.529   8.850
 5892POPC   C1A34791  32.228  27.602   8.550
 5892POPC   D2A34792  32.260  27.612   8.250
 5892POPC   C3A34793  32.251  27.623   7.950
 5892POPC   C4A34794  32.251  27.620   7.650
 5892POPC   C1B34795  32.438  27.464   8.550
 5892POPC   C2B34796  32.413  27.471   8.250
 5892POPC   C3B34797  32.439  27.403   7.950
 5892POPC   C4B34798  32.413  27.497   7.650
 5893POPC   NC334799  43.147  19.872   9.450
 5893POPC   PO434800  43.098  19.834   9.150
 5893POPC   GL134801  43.100  19.851   8.850
 5893POPC   GL234802  43.084  20.006   8.850
 5893POPC   C1A34803  43.070  19.834   8.550
 5893POPC   D2A34804  43.062  19.882   8.250
 5893POPC   C3A34805  43.090  19.882   7.950
 5893POPC   C4A34806  43.103  19.802   7.650
 5893POPC   C1B34807  43.115  20.073   8.550
 5893POPC   C2B34808  43.099  20.100   8.250
 5893POPC   C3B34809  43.087  20.131   7.950
 5893POPC   C4B34810  43.173  20.130   7.650
 5894POPC   NC334811  33.062  14.395   9.450
 5894POPC   PO434812  33.008  14.425   9.150
 5894POPC   GL134813  33.064  14.360   8.850
 5894POPC   GL234814  33.118  14.275   8.850
 5894POPC   C1A34815  33.044  14.421   8.550
 5894POPC   D2A34816  33.003  14.424   8.250
 5894POPC   C3A34817  32.992  14.451   7.950
 5894POPC   C4A34818  33.042  14.362   7.650
 5894POPC   C1B34819  33.215  14.196   8.550
 5894POPC   C2B34820  33.219  14.254   8.250
 5894POPC   C3B34821  33.175  14.220   7.950
 5894POPC   C4B34822  33.242  14.205   7.650
 5895POPC   NC334823  25.313  29.902   9.450
 5895POPC   PO434824  25.282  29.970   9.150
 5895POPC   GL134825  25.220  29.906   8.850
 5895POPC   GL234826  25.166  29.856   8.850
 5895POPC   C1A34827  25.226  29.964   8.550
 5895POPC   D2A34828  25.220  29.875   8.250
 5895POPC   C3A34829  25.236  29.959   7.950
 5895POPC   C4A34830  25.236  29.944   7.650
 5895POPC   C1B34831  25.052  29.797   8.550
 5895POPC   C2B34832  25.041  29.840   8.250
 5895POPC   C3B34833  25.004  29.783   7.950
 5895POPC   C4B34834  25.082  29.769   7.650
 5896POPC   NC334835  38.435  35.342   9.450
 5896POPC   PO434836  38.504  35.336   9.150
 5896POPC   GL134837  38.466  35.340   8.850
 5896POPC   GL234838  38.364  35.407   8.850
 5896POPC   C1A34839  38.442  35.397   8.550
 5896POPC   D2A34840  38.453  35.352   8.250
 5896POPC   C3A34841  38.484  35.332   7.950
 5896POPC   C4A34842  38.499  35.400   7.650
 5896POPC   C1B34843  38.198  35.459   8.550
 5896POPC   C2B34844  38.280  35.541   8.250
 5896POPC   C3B34845  38.243  35.497   7.950
 5896POPC   C4B34846  38.224  35.492   7.650
 5897POPC   NC334847   1.961  43.924   9.450
 5897POPC   PO434848   1.982  43.885   9.150
 5897POPC   GL134849   2.004  43.866   8.850
 5897POPC   GL234850   2.077  43.999   8.850
 5897POPC   C1A34851   1.994  43.925   8.550
 5897POPC   D2A34852   1.972  43.906   8.250
 5897POPC   C3A34853   1.962  43.909   7.950
 5897POPC   C4A34854   2.037  43.863   7.650
 5897POPC   C1B34855   2.136  44.139   8.550
 5897POPC   C2B34856   2.093  44.074   8.250
 5897POPC   C3B34857   2.076  44.132   7.950
 5897POPC   C4B34858   2.093  44.075   7.650
 5898POPC   NC334859  29.098  22.985   9.450
 5898POPC   PO434860  29.154  22.985   9.150
 5898POPC   GL134861  29.194  22.952   8.850
 5898POPC   GL234862  29.246  22.999   8.850
 5898POPC   C1A34863  29.111  22.979   8.550
 5898POPC   D2A34864  29.121  22.897   8.250
 5898POPC   C3A34865  29.136  22.946   7.950
 5898POPC   C4A34866  29.100  22.921   7.650
 5898POPC   C1B34867  29.366  23.059   8.550
 5898POPC   C2B34868  29.373  23.105   8.250
 5898POPC   C3B34869  29.358  23.059   7.950
 5898POPC   C4B34870  29.316  23.079   7.650
 5899POPC   NC334871   2.741   6.622   9.450
 5899POPC   PO434872   2.788   6.644   9.150
 5899POPC   GL134873   2.808   6.652   8.850
 5899POPC   GL234874   2.645   6.568   8.850
 5899POPC   C1A34875   2.726   6.631   8.550
 5899POPC   D2A34876   2.759   6.664   8.250
 5899POPC   C3A34877   2.744   6.651   7.950
 5899POPC   C4A34878   2.717   6.662   7.650
 5899POPC   C1B34879   2.534   6.519   8.550
 5899POPC   C2B34880   2.531   6.521   8.250
 5899POPC   C3B34881   2.616   6.479   7.950
 5899POPC   C4B34882   2.626   6.516   7.650
 5900POPC   NC334883   3.584   6.647   9.450
 5900POPC   PO434884   3.584   6.606   9.150
 5900POPC   GL134885   3.569   6.639   8.850
 5900POPC   GL234886   3.541   6.798   8.850
 5900POPC   C1A34887   3.572   6.632   8.550
 5900POPC   D2A34888   3.591   6.627   8.250
 5900POPC   C3A34889   3.569   6.637   7.950
 5900POPC   C4A34890   3.503   6.689   7.650
 5900POPC   C1B34891   3.548   6.923   8.550
 5900POPC   C2B34892   3.497   6.885   8.250
 5900POPC   C3B34893   3.478   6.860   7.950
 5900POPC   C4B34894   3.508   6.912   7.650
 5901POPC   NC334895   3.552  38.458   9.450
 5901POPC   PO434896   3.566  38.427   9.150
 5901POPC   GL134897   3.511  38.407   8.850
 5901POPC   GL234898   3.562  38.342   8.850
 5901POPC   C1A34899   3.519  38.465   8.550
 5901POPC   D2A34900   3.501  38.408   8.250
 5901POPC   C3A34901   3.569  38.421   7.950
 5901POPC   C4A34902   3.524  38.426   7.650
 5901POPC   C1B34903   3.603  38.211   8.550
 5901POPC   C2B34904   3.611  38.218   8.250
 5901POPC   C3B34905   3.579  38.222   7.950
 5901POPC   C4B34906   3.563  38.252   7.650
 5902POPC   NC334907  24.458   5.829   9.450
 5902POPC   PO434908  24.449   5.905   9.150
 5902POPC   GL134909  24.443   5.899   8.850
 5902POPC   GL234910  24.409   5.863   8.850
 5902POPC   C1A34911  24.449   5.868   8.550
 5902POPC   D2A34912  24.508   5.907   8.250
 5902POPC   C3A34913  24.452   5.888   7.950
 5902POPC   C4A34914  24.507   5.906   7.650
 5902POPC   C1B34915  24.196   5.823   8.550
 5902POPC   C2B34916  24.242   5.868   8.250
 5902POPC   C3B34917  24.228   5.800   7.950
 5902POPC   C4B34918  24.272   5.810   7.650
 5903POPC   NC334919  28.389  30.698   9.450
 5903POPC   PO434920  28.356  30.683   9.150
 5903POPC   GL134921  28.350  30.698   8.850
 5903POPC   GL234922  28.369  30.854   8.850
 5903POPC   C1A34923  28.413  30.728   8.550
 5903POPC   D2A34924  28.367  30.713   8.250
 5903POPC   C3A34925  28.402  30.708   7.950
 5903POPC   C4A34926  28.411  30.744   7.650
 5903POPC   C1B34927  28.450  30.894   8.550
 5903POPC   C2B34928  28.447  30.919   8.250
 5903POPC   C3B34929  28.473  30.968   7.950
 5903POPC   C4B34930  28.477  30.942   7.650
 5904POPC   NC334931  39.261  19.037   9.450
 5904POPC   PO434932  39.280  19.095   9.150
 5904POPC   GL134933  39.246  19.049   8.850
 5904POPC   GL234934  39.224  18.940   8.850
 5904POPC   C1A34935  39.258  19.015   8.550
 5904POPC   D2A34936  39.220  19.031   8.250
 5904POPC   C3A34937  39.265  19.016   7.950
 5904POPC   C4A34938  39.265  19.034   7.650
 5904POPC   C1B34939  39.275  18.812   8.550
 5904POPC   C2B34940  39.294  18.840   8.250
 5904POPC   C3B34941  39.236  18.849   7.950
 5904POPC   C4B34942  39.250  18.843   7.650
 5905POPC   NC334943  38.500  29.132   9.450
 5905POPC   PO434944  38.431  29.134   9.150
 5905POPC   GL134945  38.478  29.101   8.850
 5905POPC   GL234946  38.350  29.202   8.850
 5905POPC   C1A34947  38.479  29.158   8.550
 5905POPC   D2A34948  38.470  29.097   8.250
 5905POPC   C3A34949  38.442  29.125   7.950
 5905POPC   C4A34950  38.471  29.131   7.650
 5905POPC   C1B34951  38.262  29.213   8.550
 5905POPC   C2B34952  38.192  29.234   8.250
 5905POPC   C3B34953  38.225  29.261   7.950
 5905POPC   C4B34954  38.178  29.229   7.650
 5906POPC   NC334955  15.914  10.484   9.450
 5906POPC   PO434956  15.910  10.518   9.150
 5906POPC   GL134957  15.989  10.489   8.850
 5906POPC   GL234958  16.072  10.636   8.850
 5906POPC   C1A34959  15.906  10.551   8.550
 5906POPC   D2A34960  15.944  10.502   8.250
 5906POPC   C3A34961  15.937  10.550   7.950
 5906POPC   C4A34962  15.966  10.546   7.650
 5906POPC   C1B34963  16.140  10.697   8.550
 5906POPC   C2B34964  16.091  10.743   8.250
 5906POPC   C3B34965  16.086  10.722   7.950
 5906POPC   C4B34966  16.070  10.734   7.650
 5907POPC   NC334967  15.993   8.239   9.450
 5907POPC   PO434968  15.923   8.149   9.150
 5907POPC   GL134969  15.947   8.199   8.850
 5907POPC   GL234970  16.122   8.135   8.850
 5907POPC   C1A34971  15.915   8.178   8.550
 5907POPC   D2A34972  15.987   8.199   8.250
 5907POPC   C3A34973  15.978   8.182   7.950
 5907POPC   C4A34974  15.982   8.178   7.650
 5907POPC   C1B34975  16.207   8.160   8.550
 5907POPC   C2B34976  16.230   8.174   8.250
 5907POPC   C3B34977  16.184   8.139   7.950
 5907POPC   C4B34978  16.196   8.120   7.650
 5908POPC   NC334979  27.619  25.222   9.450
 5908POPC   PO434980  27.597  25.289   9.150
 5908POPC   GL134981  27.618  25.310   8.850
 5908POPC   GL234982  27.427  25.294   8.850
 5908POPC   C1A34983  27.616  25.295   8.550
 5908POPC   D2A34984  27.587  25.278   8.250
 5908POPC   C3A34985  27.643  25.297   7.950
 5908POPC   C4A34986  27.628  25.242   7.650
 5908POPC   C1B34987  27.362  25.293   8.550
 5908POPC   C2B34988  27.341  25.267   8.250
 5908POPC   C3B34989  27.315  25.249   7.950
 5908POPC   C4B34990  27.344  25.260   7.650
 5909POPC   NC334991  39.185  12.106   9.450
 5909POPC   PO434992  39.254  12.077   9.150
 5909POPC   GL134993  39.214  12.094   8.850
 5909POPC   GL234994  39.186  12.000   8.850
 5909POPC   C1A34995  39.256  12.071   8.550
 5909POPC   D2A34996  39.220  12.044   8.250
 5909POPC   C3A34997  39.249  12.082   7.950
 5909POPC   C4A34998  39.254  12.110   7.650
 5909POPC   C1B34999  39.106  11.814   8.550
 5909POPC   C2B35000  39.110  11.867   8.250
 5909POPC   C3B35001  39.108  11.828   7.950
 5909POPC   C4B35002  39.120  11.864   7.650
 5910POPC   NC335003  32.290  35.347   9.450
 5910POPC   PO435004  32.253  35.342   9.150
 5910POPC   GL135005  32.200  35.353   8.850
 5910POPC   GL235006  32.111  35.391   8.850
 5910POPC   C1A35007  32.236  35.392   8.550
 5910POPC   D2A35008  32.203  35.328   8.250
 5910POPC   C3A35009  32.227  35.324   7.950
 5910POPC   C4A35010  32.283  35.347   7.650
 5910POPC   C1B35011  32.111  35.563   8.550
 5910POPC   C2B35012  32.028  35.485   8.250
 5910POPC   C3B35013  32.018  35.540   7.950
 5910POPC   C4B35014  32.112  35.494   7.650
 5911POPC   NC335015  35.385  38.498   9.450
 5911POPC   PO435016  35.345  38.478   9.150
 5911POPC   GL135017  35.397  38.471   8.850
 5911POPC   GL235018  35.351  38.557   8.850
 5911POPC   C1A35019  35.345  38.502   8.550
 5911POPC   D2A35020  35.327  38.441   8.250
 5911POPC   C3A35021  35.343  38.464   7.950
 5911POPC   C4A35022  35.380  38.485   7.650
 5911POPC   C1B35023  35.476  38.678   8.550
 5911POPC   C2B35024  35.460  38.704   8.250
 5911POPC   C3B35025  35.405  38.690   7.950
 5911POPC   C4B35026  35.487  38.707   7.650
 5912POPC   NC335027  12.888  40.818   9.450
 5912POPC   PO435028  12.824  40.774   9.150
 5912POPC   GL135029  12.867  40.745   8.850
 5912POPC   GL235030  12.704  40.716   8.850
 5912POPC   C1A35031  12.820  40.743   8.550
 5912POPC   D2A35032  12.819  40.818   8.250
 5912POPC   C3A35033  12.812  40.811   7.950
 5912POPC   C4A35034  12.867  40.806   7.650
 5912POPC   C1B35035  12.624  40.750   8.550
 5912POPC   C2B35036  12.557  40.760   8.250
 5912POPC   C3B35037  12.592  40.768   7.950
 5912POPC   C4B35038  12.573  40.713   7.650
 5913POPC   NC335039  27.617  39.267   9.450
 5913POPC   PO435040  27.579  39.270   9.150
 5913POPC   GL135041  27.546  39.242   8.850
 5913POPC   GL235042  27.727  39.148   8.850
 5913POPC   C1A35043  27.614  39.203   8.550
 5913POPC   D2A35044  27.580  39.247   8.250
 5913POPC   C3A35045  27.636  39.227   7.950
 5913POPC   C4A35046  27.597  39.233   7.650
 5913POPC   C1B35047  27.769  39.125   8.550
 5913POPC   C2B35048  27.793  39.061   8.250
 5913POPC   C3B35049  27.768  39.032   7.950
 5913POPC   C4B35050  27.785  39.068   7.650
 5914POPC   NC335051  29.166  12.806   9.450
 5914POPC   PO435052  29.124  12.890   9.150
 5914POPC   GL135053  29.104  12.898   8.850
 5914POPC   GL235054  29.247  12.823   8.850
 5914POPC   C1A35055  29.136  12.832   8.550
 5914POPC   D2A35056  29.114  12.830   8.250
 5914POPC   C3A35057  29.146  12.826   7.950
 5914POPC   C4A35058  29.149  12.861   7.650
 5914POPC   C1B35059  29.384  12.687   8.550
 5914POPC   C2B35060  29.342  12.715   8.250
 5914POPC   C3B35061  29.308  12.662   7.950
 5914POPC   C4B35062  29.313  12.673   7.650
 5915POPC   NC335063  39.256  18.295   9.450
 5915POPC   PO435064  39.265  18.310   9.150
 5915POPC   GL135065  39.189  18.240   8.850
 5915POPC   GL235066  39.248  18.112   8.850
 5915POPC   C1A35067  39.260  18.296   8.550
 5915POPC   D2A35068  39.244  18.321   8.250
 5915POPC   C3A35069  39.229  18.266   7.950
 5915POPC   C4A35070  39.248  18.285   7.650
 5915POPC   C1B35071  39.223  18.034   8.550
 5915POPC   C2B35072  39.175  18.077   8.250
 5915POPC   C3B35073  39.161  18.007   7.950
 5915POPC   C4B35074  39.226  18.064   7.650
 5916POPC   NC335075  40.024  28.353   9.450
 5916POPC   PO435076  40.042  28.324   9.150
 5916POPC   GL135077  39.984  28.395   8.850
 5916POPC   GL235078  39.898  28.404   8.850
 5916POPC   C1A35079  39.966  28.335   8.550
 5916POPC   D2A35080  40.004  28.355   8.250
 5916POPC   C3A35081  40.056  28.345   7.950
 5916POPC   C4A35082  39.970  28.376   7.650
 5916POPC   C1B35083  39.719  28.424   8.550
 5916POPC   C2B35084  39.736  28.399   8.250
 5916POPC   C3B35085  39.762  28.365   7.950
 5916POPC   C4B35086  39.745  28.431   7.650
 5917POPC   NC335087   8.209  21.424   9.450
 5917POPC   PO435088   8.221  21.409   9.150
 5917POPC   GL135089   8.159  21.432   8.850
 5917POPC   GL235090   8.108  21.230   8.850
 5917POPC   C1A35091   8.208  21.431   8.550
 5917POPC   D2A35092   8.190  21.418   8.250
 5917POPC   C3A35093   8.221  21.416   7.950
 5917POPC   C4A35094   8.206  21.423   7.650
 5917POPC   C1B35095   8.106  21.133   8.550
 5917POPC   C2B35096   8.106  21.198   8.250
 5917POPC   C3B35097   8.068  21.152   7.950
 5917POPC   C4B35098   8.053  21.198   7.650
 5918POPC   NC335099  10.488  33.018   9.450
 5918POPC   PO435100  10.564  33.030   9.150
 5918POPC   GL135101  10.504  33.053   8.850
 5918POPC   GL235102  10.459  33.099   8.850
 5918POPC   C1A35103  10.499  33.057   8.550
 5918POPC   D2A35104  10.554  33.018   8.250
 5918POPC   C3A35105  10.539  33.027   7.950
 5918POPC   C4A35106  10.508  33.014   7.650
 5918POPC   C1B35107  10.403  33.242   8.550
 5918POPC   C2B35108  10.394  33.220   8.250
 5918POPC   C3B35109  10.397  33.306   7.950
 5918POPC   C4B35110  10.445  33.303   7.650
 5919POPC   NC335111   6.618  31.483   9.450
 5919POPC   PO435112   6.693  31.462   9.150
 5919POPC   GL135113   6.597  31.436   8.850
 5919POPC   GL235114   6.571  31.639   8.850
 5919POPC   C1A35115   6.600  31.506   8.550
 5919POPC   D2A35116   6.667  31.452   8.250
 5919POPC   C3A35117   6.627  31.484   7.950
 5919POPC   C4A35118   6.655  31.426   7.650
 5919POPC   C1B35119   6.566  31.700   8.550
 5919POPC   C2B35120   6.543  31.694   8.250
 5919POPC   C3B35121   6.569  31.692   7.950
 5919POPC   C4B35122   6.546  31.671   7.650
 5920POPC   NC335123   5.073   2.758   9.450
 5920POPC   PO435124   5.064   2.793   9.150
 5920POPC   GL135125   5.092   2.726   8.850
 5920POPC   GL235126   4.958   2.804   8.850
 5920POPC   C1A35127   5.137   2.801   8.550
 5920POPC   D2A35128   5.057   2.753   8.250
 5920POPC   C3A35129   5.066   2.746   7.950
 5920POPC   C4A35130   5.060   2.804   7.650
 5920POPC   C1B35131   4.878   2.868   8.550
 5920POPC   C2B35132   4.880   2.833   8.250
 5920POPC   C3B35133   4.826   2.819   7.950
 5920POPC   C4B35134   4.856   2.816   7.650
 5921POPC   NC335135  11.285  21.430   9.450
 5921POPC   PO435136  11.284  21.369   9.150
 5921POPC   GL135137  11.309  21.393   8.850
 5921POPC   GL235138  11.373  21.510   8.850
 5921POPC   C1A35139  11.321  21.358   8.550
 5921POPC   D2A35140  11.301  21.422   8.250
 5921POPC   C3A35141  11.258  21.380   7.950
 5921POPC   C4A35142  11.323  21.392   7.650
 5921POPC   C1B35143  11.504  21.598   8.550
 5921POPC   C2B35144  11.483  21.535   8.250
 5921POPC   C3B35145  11.497  21.544   7.950
 5921POPC   C4B35146  11.482  21.529   7.650
 5922POPC   NC335147  15.935  30.680   9.450
 5922POPC   PO435148  15.931  30.729   9.150
 5922POPC   GL135149  16.004  30.665   8.850
 5922POPC   GL235150  16.098  30.705   8.850
 5922POPC   C1A35151  15.917  30.668   8.550
 5922POPC   D2A35152  15.953  30.707   8.250
 5922POPC   C3A35153  15.945  30.696   7.950
 5922POPC   C4A35154  15.950  30.727   7.650
 5922POPC   C1B35155  16.156  30.822   8.550
 5922POPC   C2B35156  16.221  30.762   8.250
 5922POPC   C3B35157  16.226  30.794   7.950
 5922POPC   C4B35158  16.138  30.810   7.650
 5923POPC   NC335159   0.468   9.714   9.450
 5923POPC   PO435160   0.442   9.710   9.150
 5923POPC   GL135161   0.416   9.707   8.850
 5923POPC   GL235162   0.403   9.899   8.850
 5923POPC   C1A35163   0.432   9.711   8.550
 5923POPC   D2A35164   0.469   9.703   8.250
 5923POPC   C3A35165   0.390   9.722   7.950
 5923POPC   C4A35166   0.484   9.700   7.650
 5923POPC   C1B35167   0.345  10.019   8.550
 5923POPC   C2B35168   0.350   9.991   8.250
 5923POPC   C3B35169   0.398   9.943   7.950
 5923POPC   C4B35170   0.369   9.947   7.650
 5924POPC   NC335171  42.328  35.346   9.450
 5924POPC   PO435172  42.351  35.336   9.150
 5924POPC   GL135173  42.314  35.375   8.850
 5924POPC   GL235174  42.249  35.386   8.850
 5924POPC   C1A35175  42.363  35.338   8.550
 5924POPC   D2A35176  42.315  35.382   8.250
 5924POPC   C3A35177  42.314  35.355   7.950
 5924POPC   C4A35178  42.294  35.337   7.650
 5924POPC   C1B35179  42.146  35.437   8.550
 5924POPC   C2B35180  42.061  35.481   8.250
 5924POPC   C3B35181  42.124  35.471   7.950
 5924POPC   C4B35182  42.112  35.405   7.650
 5925POPC   NC335183  29.104  12.080   9.450
 5925POPC   PO435184  29.130  12.060   9.150
 5925POPC   GL135185  29.167  12.098   8.850
 5925POPC   GL235186  29.030  12.201   8.850
 5925POPC   C1A35187  29.123  12.049   8.550
 5925POPC   D2A35188  29.107  12.081   8.250
 5925POPC   C3A35189  29.161  12.074   7.950
 5925POPC   C4A35190  29.139  12.065   7.650
 5925POPC   C1B35191  28.968  12.292   8.550
 5925POPC   C2B35192  28.966  12.227   8.250
 5925POPC   C3B35193  28.933  12.213   7.950
 5925POPC   C4B35194  28.966  12.279   7.650
 5926POPC   NC335195  43.084   3.585   9.450
 5926POPC   PO435196  43.111   3.535   9.150
 5926POPC   GL135197  43.075   3.537   8.850
 5926POPC   GL235198  43.118   3.388   8.850
 5926POPC   C1A35199  43.121   3.524   8.550
 5926POPC   D2A35200  43.151   3.530   8.250
 5926POPC   C3A35201  43.106   3.576   7.950
 5926POPC   C4A35202  43.155   3.570   7.650
 5926POPC   C1B35203  43.200   3.294   8.550
 5926POPC   C2B35204  43.186   3.277   8.250
 5926POPC   C3B35205  43.189   3.275   7.950
 5926POPC   C4B35206  43.160   3.334   7.650
 5927POPC   NC335207  35.322  23.760   9.450
 5927POPC   PO435208  35.381  23.673   9.150
 5927POPC   GL135209  35.384  23.695   8.850
 5927POPC   GL235210  35.272  23.692   8.850
 5927POPC   C1A35211  35.396  23.725   8.550
 5927POPC   D2A35212  35.356  23.692   8.250
 5927POPC   C3A35213  35.331  23.675   7.950
 5927POPC   C4A35214  35.331  23.733   7.650
 5927POPC   C1B35215  35.067  23.711   8.550
 5927POPC   C2B35216  35.123  23.741   8.250
 5927POPC   C3B35217  35.082  23.777   7.950
 5927POPC   C4B35218  35.068  23.742   7.650
 5928POPC   NC335219  17.498  28.363   9.450
 5928POPC   PO435220  17.554  28.390   9.150
 5928POPC   GL135221  17.543  28.411   8.850
 5928POPC   GL235222  17.461  28.262   8.850
 5928POPC   C1A35223  17.464  28.364   8.550
 5928POPC   D2A35224  17.514  28.394   8.250
 5928POPC   C3A35225  17.549  28.332   7.950
 5928POPC   C4A35226  17.546  28.410   7.650
 5928POPC   C1B35227  17.319  28.246   8.550
 5928POPC   C2B35228  17.286  28.163   8.250
 5928POPC   C3B35229  17.276  28.235   7.950
 5928POPC   C4B35230  17.326  28.229   7.650
 5929POPC   NC335231   2.730  14.418   9.450
 5929POPC   PO435232   2.784  14.398   9.150
 5929POPC   GL135233   2.796  14.442   8.850
 5929POPC   GL235234   2.758  14.292   8.850
 5929POPC   C1A35235   2.800  14.433   8.550
 5929POPC   D2A35236   2.716  14.371   8.250
 5929POPC   C3A35237   2.795  14.388   7.950
 5929POPC   C4A35238   2.782  14.388   7.650
 5929POPC   C1B35239   2.731  14.189   8.550
 5929POPC   C2B35240   2.716  14.197   8.250
 5929POPC   C3B35241   2.745  14.165   7.950
 5929POPC   C4B35242   2.748  14.201   7.650
 5930POPC   NC335243  23.701  39.995   9.450
 5930POPC   PO435244  23.740  40.023   9.150
 5930POPC   GL135245  23.759  39.963   8.850
 5930POPC   GL235246  23.822  39.956   8.850
 5930POPC   C1A35247  23.689  39.961   8.550
 5930POPC   D2A35248  23.710  40.047   8.250
 5930POPC   C3A35249  23.677  39.998   7.950
 5930POPC   C4A35250  23.679  39.973   7.650
 5930POPC   C1B35251  23.946  39.955   8.550
 5930POPC   C2B35252  23.988  40.001   8.250
 5930POPC   C3B35253  23.931  39.949   7.950
 5930POPC   C4B35254  23.930  40.005   7.650
 5931POPC   NC335255  33.817   9.797   9.450
 5931POPC   PO435256  33.791   9.788   9.150
 5931POPC   GL135257  33.761   9.729   8.850
 5931POPC   GL235258  33.919   9.659   8.850
 5931POPC   C1A35259  33.819   9.754   8.550
 5931POPC   D2A35260  33.760   9.720   8.250
 5931POPC   C3A35261  33.761   9.748   7.950
 5931POPC   C4A35262  33.830   9.739   7.650
 5931POPC   C1B35263  33.920   9.579   8.550
 5931POPC   C2B35264  33.936   9.518   8.250
 5931POPC   C3B35265  33.913   9.514   7.950
 5931POPC   C4B35266  33.900   9.498   7.650
 5932POPC   NC335267  40.014  14.358   9.450
 5932POPC   PO435268  40.036  14.407   9.150
 5932POPC   GL135269  40.009  14.438   8.850
 5932POPC   GL235270  39.861  14.421   8.850
 5932POPC   C1A35271  39.985  14.398   8.550
 5932POPC   D2A35272  39.968  14.369   8.250
 5932POPC   C3A35273  40.044  14.403   7.950
 5932POPC   C4A35274  40.046  14.381   7.650
 5932POPC   C1B35275  39.708  14.357   8.550
 5932POPC   C2B35276  39.785  14.391   8.250
 5932POPC   C3B35277  39.715  14.415   7.950
 5932POPC   C4B35278  39.757  14.436   7.650
 5933POPC   NC335279  34.574  29.909   9.450
 5933POPC   PO435280  34.539  29.969   9.150
 5933POPC   GL135281  34.591  29.929   8.850
 5933POPC   GL235282  34.479  29.927   8.850
 5933POPC   C1A35283  34.596  29.968   8.550
 5933POPC   D2A35284  34.564  29.881   8.250
 5933POPC   C3A35285  34.583  29.873   7.950
 5933POPC   C4A35286  34.618  29.907   7.650
 5933POPC   C1B35287  34.379  30.078   8.550
 5933POPC   C2B35288  34.371  30.039   8.250
 5933POPC   C3B35289  34.317  30.071   7.950
 5933POPC   C4B35290  34.360  30.061   7.650
 5934POPC   NC335291  27.595  28.384   9.450
 5934POPC   PO435292  27.582  28.349   9.150
 5934POPC   GL135293  27.627  28.357   8.850
 5934POPC   GL235294  27.491  28.435   8.850
 5934POPC   C1A35295  27.633  28.415   8.550
 5934POPC   D2A35296  27.625  28.385   8.250
 5934POPC   C3A35297  27.603  28.321   7.950
 5934POPC   C4A35298  27.626  28.375   7.650
 5934POPC   C1B35299  27.365  28.518   8.550
 5934POPC   C2B35300  27.436  28.548   8.250
 5934POPC   C3B35301  27.364  28.530   7.950
 5934POPC   C4B35302  27.430  28.549   7.650
 5935POPC   NC335303   8.153  41.514   9.450
 5935POPC   PO435304   8.215  41.590   9.150
 5935POPC   GL135305   8.162  41.512   8.850
 5935POPC   GL235306   8.114  41.637   8.850
 5935POPC   C1A35307   8.157  41.584   8.550
 5935POPC   D2A35308   8.188  41.545   8.250
 5935POPC   C3A35309   8.164  41.587   7.950
 5935POPC   C4A35310   8.158  41.518   7.650
 5935POPC   C1B35311   8.057  41.734   8.550
 5935POPC   C2B35312   8.060  41.758   8.250
 5935POPC   C3B35313   8.041  41.784   7.950
 5935POPC   C4B35314   8.046  41.779   7.650
 5936POPC   NC335315   1.219  25.288   9.450
 5936POPC   PO435316   1.184  25.241   9.150
 5936POPC   GL135317   1.222  25.260   8.850
 5936POPC   GL235318   1.119  25.141   8.850
 5936POPC   C1A35319   1.222  25.251   8.550
 5936POPC   D2A35320   1.236  25.229   8.250
 5936POPC   C3A35321   1.203  25.281   7.950
 5936POPC   C4A35322   1.205  25.250   7.650
 5936POPC   C1B35323   1.067  25.122   8.550
 5936POPC   C2B35324   1.049  25.094   8.250
 5936POPC   C3B35325   1.045  25.119   7.950
 5936POPC   C4B35326   1.084  25.074   7.650
 5937POPC   NC335327   0.478  40.046   9.450
 5937POPC   PO435328   0.448  39.994   9.150
 5937POPC   GL135329   0.434  40.016   8.850
 5937POPC   GL235330   0.484  40.086   8.850
 5937POPC   C1A35331   0.437  40.048   8.550
 5937POPC   D2A35332   0.437  39.964   8.250
 5937POPC   C3A35333   0.391  40.052   7.950
 5937POPC   C4A35334   0.454  39.967   7.650
 5937POPC   C1B35335   0.612  40.198   8.550
 5937POPC   C2B35336   0.602  40.261   8.250
 5937POPC   C3B35337   0.540  40.236   7.950
 5937POPC   C4B35338   0.545  40.219   7.650
 5938POPC   NC335339  19.073  15.166   9.450
 5938POPC   PO435340  19.030  15.226   9.150
 5938POPC   GL135341  19.032  15.140   8.850
 5938POPC   GL235342  18.986  15.136   8.850
 5938POPC   C1A35343  19.034  15.161   8.550
 5938POPC   D2A35344  19.069  15.132   8.250
 5938POPC   C3A35345  19.019  15.203   7.950
 5938POPC   C4A35346  19.070  15.141   7.650
 5938POPC   C1B35347  18.880  15.076   8.550
 5938POPC   C2B35348  18.837  15.035   8.250
 5938POPC   C3B35349  18.851  15.070   7.950
 5938POPC   C4B35350  18.890  15.021   7.650
 5939POPC   NC335351  12.083  14.447   9.450
 5939POPC   PO435352  12.123  14.418   9.150
 5939POPC   GL135353  12.095  14.356   8.850
 5939POPC   GL235354  12.178  14.325   8.850
 5939POPC   C1A35355  12.122  14.407   8.550
 5939POPC   D2A35356  12.054  14.374   8.250
 5939POPC   C3A35357  12.076  14.448   7.950
 5939POPC   C4A35358  12.099  14.442   7.650
 5939POPC   C1B35359  12.273  14.325   8.550
 5939POPC   C2B35360  12.281  14.279   8.250
 5939POPC   C3B35361  12.332  14.289   7.950
 5939POPC   C4B35362  12.346  14.319   7.650
 5940POPC   NC335363  11.280  11.301   9.450
 5940POPC   PO435364  11.262  11.262   9.150
 5940POPC   GL135365  11.344  11.282   8.850
 5940POPC   GL235366  11.136  11.328   8.850
 5940POPC   C1A35367  11.326  11.277   8.550
 5940POPC   D2A35368  11.339  11.254   8.250
 5940POPC   C3A35369  11.274  11.263   7.950
 5940POPC   C4A35370  11.306  11.311   7.650
 5940POPC   C1B35371  11.096  11.339   8.550
 5940POPC   C2B35372  11.100  11.310   8.250
 5940POPC   C3B35373  11.012  11.349   7.950
 5940POPC   C4B35374  11.032  11.315   7.650
 5941POPC   NC335375  38.489  15.227   9.450
 5941POPC   PO435376  38.447  15.169   9.150
 5941POPC   GL135377  38.433  15.193   8.850
 5941POPC   GL235378  38.349  15.141   8.850
 5941POPC   C1A35379  38.489  15.189   8.550
 5941POPC   D2A35380  38.436  15.137   8.250
 5941POPC   C3A35381  38.474  15.199   7.950
 5941POPC   C4A35382  38.471  15.186   7.650
 5941POPC   C1B35383  38.227  15.067   8.550
 5941POPC   C2B35384  38.274  15.043   8.250
 5941POPC   C3B35385  38.225  15.090   7.950
 5941POPC   C4B35386  38.250  15.052   7.650
 5942POPC   NC335387   9.731  37.671   9.450
 5942POPC   PO435388   9.759  37.679   9.150
 5942POPC   GL135389   9.762  37.663   8.850
 5942POPC   GL235390   9.791  37.854   8.850
 5942POPC   C1A35391   9.797  37.634   8.550
 5942POPC   D2A35392   9.764  37.686   8.250
 5942POPC   C3A35393   9.759  37.654   7.950
 5942POPC   C4A35394   9.794  37.684   7.650
 5942POPC   C1B35395   9.778  37.978   8.550
 5942POPC   C2B35396   9.744  37.918   8.250
 5942POPC   C3B35397   9.732  37.978   7.950
 5942POPC   C4B35398   9.767  37.916   7.650
 5943POPC   NC335399  40.767   4.286   9.450
 5943POPC   PO435400  40.830   4.339   9.150
 5943POPC   GL135401  40.829   4.339   8.850
 5943POPC   GL235402  40.855   4.235   8.850
 5943POPC   C1A35403  40.753   4.326   8.550
 5943POPC   D2A35404  40.815   4.268   8.250
 5943POPC   C3A35405  40.805   4.299   7.950
 5943POPC   C4A35406  40.813   4.362   7.650
 5943POPC   C1B35407  40.970   4.142   8.550
 5943POPC   C2B35408  40.990   4.094   8.250
 5943POPC   C3B35409  40.921   4.148   7.950
 5943POPC   C4B35410  40.960   4.144   7.650
 5944POPC   NC335411  36.854  38.491   9.450
 5944POPC   PO435412  36.885  38.505   9.150
 5944POPC   GL135413  36.862  38.440   8.850
 5944POPC   GL235414  36.783  38.467   8.850
 5944POPC   C1A35415  36.858  38.454   8.550
 5944POPC   D2A35416  36.892  38.472   8.250
 5944POPC   C3A35417  36.947  38.422   7.950
 5944POPC   C4A35418  36.891  38.457   7.650
 5944POPC   C1B35419  36.690  38.509   8.550
 5944POPC   C2B35420  36.624  38.565   8.250
 5944POPC   C3B35421  36.652  38.565   7.950
 5944POPC   C4B35422  36.705  38.530   7.650
 5945POPC   NC335423  10.534  43.159   9.450
 5945POPC   PO435424  10.482  43.125   9.150
 5945POPC   GL135425  10.552  43.082   8.850
 5945POPC   GL235426  10.531  42.966   8.850
 5945POPC   C1A35427  10.527  43.158   8.550
 5945POPC   D2A35428  10.504  43.139   8.250
 5945POPC   C3A35429  10.475  43.141   7.950
 5945POPC   C4A35430  10.541  43.070   7.650
 5945POPC   C1B35431  10.572  42.871   8.550
 5945POPC   C2B35432  10.500  42.852   8.250
 5945POPC   C3B35433  10.500  42.847   7.950
 5945POPC   C4B35434  10.526  42.901   7.650
 5946POPC   NC335435  12.810  19.856   9.450
 5946POPC   PO435436  12.838  19.804   9.150
 5946POPC   GL135437  12.872  19.806   8.850
 5946POPC   GL235438  13.023  19.794   8.850
 5946POPC   C1A35439  12.842  19.809   8.550
 5946POPC   D2A35440  12.890  19.865   8.250
 5946POPC   C3A35441  12.888  19.794   7.950
 5946POPC   C4A35442  12.802  19.823   7.650
 5946POPC   C1B35443  13.105  19.854   8.550
 5946POPC   C2B35444  13.144  19.801   8.250
 5946POPC   C3B35445  13.151  19.818   7.950
 5946POPC   C4B35446  13.125  19.873   7.650
 5947POPC   NC335447  24.491  33.833   9.450
 5947POPC   PO435448  24.487  33.811   9.150
 5947POPC   GL135449  24.443  33.764   8.850
 5947POPC   GL235450  24.517  33.701   8.850
 5947POPC   C1A35451  24.473  33.786   8.550
 5947POPC   D2A35452  24.499  33.829   8.250
 5947POPC   C3A35453  24.455  33.834   7.950
 5947POPC   C4A35454  24.491  33.844   7.650
 5947POPC   C1B35455  24.556  33.532   8.550
 5947POPC   C2B35456  24.459  33.506   8.250
 5947POPC   C3B35457  24.519  33.535   7.950
 5947POPC   C4B35458  24.460  33.573   7.650
 5948POPC   NC335459  11.346   5.080   9.450
 5948POPC   PO435460  11.295   5.094   9.150
 5948POPC   GL135461  11.279   5.057   8.850
 5948POPC   GL235462  11.352   5.217   8.850
 5948POPC   C1A35463  11.283   5.051   8.550
 5948POPC   D2A35464  11.277   5.057   8.250
 5948POPC   C3A35465  11.307   5.048   7.950
 5948POPC   C4A35466  11.271   5.076   7.650
 5948POPC   C1B35467  11.485   5.350   8.550
 5948POPC   C2B35468  11.471   5.340   8.250
 5948POPC   C3B35469  11.458   5.339   7.950
 5948POPC   C4B35470  11.387   5.257   7.650
 5949POPC   NC335471  34.589  32.223   9.450
 5949POPC   PO435472  34.534  32.270   9.150
 5949POPC   GL135473  34.541  32.297   8.850
 5949POPC   GL235474  34.647  32.196   8.850
 5949POPC   C1A35475  34.549  32.290   8.550
 5949POPC   D2A35476  34.587  32.229   8.250
 5949POPC   C3A35477  34.532  32.238   7.950
 5949POPC   C4A35478  34.548  32.252   7.650
 5949POPC   C1B35479  34.826  32.203   8.550
 5949POPC   C2B35480  34.769  32.151   8.250
 5949POPC   C3B35481  34.806  32.173   7.950
 5949POPC   C4B35482  34.821  32.200   7.650
 5950POPC   NC335483  35.311  33.009   9.450
 5950POPC   PO435484  35.349  32.984   9.150
 5950POPC   GL135485  35.310  33.071   8.850
 5950POPC   GL235486  35.208  33.039   8.850
 5950POPC   C1A35487  35.349  33.007   8.550
 5950POPC   D2A35488  35.393  33.012   8.250
 5950POPC   C3A35489  35.365  33.040   7.950
 5950POPC   C4A35490  35.337  33.025   7.650
 5950POPC   C1B35491  35.081  33.057   8.550
 5950POPC   C2B35492  35.129  33.046   8.250
 5950POPC   C3B35493  35.085  33.084   7.950
 5950POPC   C4B35494  35.074  32.999   7.650
 5951POPC   NC335495  43.080  36.109   9.450
 5951POPC   PO435496  43.146  36.092   9.150
 5951POPC   GL135497  43.085  36.171   8.850
 5951POPC   GL235498  43.017  36.160   8.850
 5951POPC   C1A35499  43.124  36.174   8.550
 5951POPC   D2A35500  43.143  36.148   8.250
 5951POPC   C3A35501  43.098  36.117   7.950
 5951POPC   C4A35502  43.070  36.089   7.650
 5951POPC   C1B35503  42.860  36.319   8.550
 5951POPC   C2B35504  42.947  36.251   8.250
 5951POPC   C3B35505  42.888  36.268   7.950
 5951POPC   C4B35506  42.937  36.268   7.650
 5952POPC   NC335507  28.365   1.978   9.450
 5952POPC   PO435508  28.324   1.960   9.150
 5952POPC   GL135509  28.415   1.949   8.850
 5952POPC   GL235510  28.375   2.144   8.850
 5952POPC   C1A35511  28.334   2.003   8.550
 5952POPC   D2A35512  28.361   2.032   8.250
 5952POPC   C3A35513  28.363   1.998   7.950
 5952POPC   C4A35514  28.419   1.998   7.650
 5952POPC   C1B35515  28.233   2.261   8.550
 5952POPC   C2B35516  28.256   2.231   8.250
 5952POPC   C3B35517  28.280   2.179   7.950
 5952POPC   C4B35518  28.291   2.272   7.650
 5953POPC   NC335519  19.837  22.171   9.450
 5953POPC   PO435520  19.880  22.150   9.150
 5953POPC   GL135521  19.840  22.207   8.850
 5953POPC   GL235522  19.727  22.103   8.850
 5953POPC   C1A35523  19.809  22.147   8.550
 5953POPC   D2A35524  19.824  22.126   8.250
 5953POPC   C3A35525  19.796  22.127   7.950
 5953POPC   C4A35526  19.807  22.153   7.650
 5953POPC   C1B35527  19.595  22.177   8.550
 5953POPC   C2B35528  19.539  22.149   8.250
 5953POPC   C3B35529  19.564  22.107   7.950
 5953POPC   C4B35530  19.598  22.144   7.650
 5954POPC   NC335531  43.894   0.400   9.450
 5954POPC   PO435532  43.864   0.483   9.150
 5954POPC   GL135533  43.919   0.430   8.850
 5954POPC   GL235534  43.731   0.380   8.850
 5954POPC   C1A35535  43.898   0.397   8.550
 5954POPC   D2A35536  43.892   0.417   8.250
 5954POPC   C3A35537  43.876   0.396   7.950
 5954POPC   C4A35538  43.850   0.482   7.650
 5954POPC   C1B35539  43.614   0.380   8.550
 5954POPC   C2B35540  43.658   0.361   8.250
 5954POPC   C3B35541  43.634   0.319   7.950
 5954POPC   C4B35542  43.655   0.356   7.650
 5955POPC   NC335543  19.067   8.979   9.450
 5955POPC   PO435544  19.023   9.022   9.150
 5955POPC   GL135545  19.090   8.953   8.850
 5955POPC   GL235546  18.935   8.848   8.850
 5955POPC   C1A35547  19.034   8.933   8.550
 5955POPC   D2A35548  19.020   9.021   8.250
 5955POPC   C3A35549  19.077   9.022   7.950
 5955POPC   C4A35550  19.065   8.939   7.650
 5955POPC   C1B35551  18.929   8.783   8.550
 5955POPC   C2B35552  18.887   8.773   8.250
 5955POPC   C3B35553  18.838   8.813   7.950
 5955POPC   C4B35554  18.906   8.827   7.650
 5956POPC   NC335555  40.028  38.474   9.450
 5956POPC   PO435556  40.056  38.421   9.150
 5956POPC   GL135557  39.970  38.472   8.850
 5956POPC   GL235558  39.978  38.306   8.850
 5956POPC   C1A35559  39.981  38.409   8.550
 5956POPC   D2A35560  39.976  38.424   8.250
 5956POPC   C3A35561  39.999  38.430   7.950
 5956POPC   C4A35562  40.049  38.480   7.650
 5956POPC   C1B35563  39.861  38.195   8.550
 5956POPC   C2B35564  39.910  38.208   8.250
 5956POPC   C3B35565  39.878  38.267   7.950
 5956POPC   C4B35566  39.915  38.195   7.650
 5957POPC   NC335567  19.828  36.934   9.450
 5957POPC   PO435568  19.880  36.931   9.150
 5957POPC   GL135569  19.795  36.930   8.850
 5957POPC   GL235570  19.678  36.863   8.850
 5957POPC   C1A35571  19.795  36.942   8.550
 5957POPC   D2A35572  19.814  36.908   8.250
 5957POPC   C3A35573  19.828  36.935   7.950
 5957POPC   C4A35574  19.877  36.859   7.650
 5957POPC   C1B35575  19.568  36.762   8.550
 5957POPC   C2B35576  19.648  36.762   8.250
 5957POPC   C3B35577  19.621  36.830   7.950
 5957POPC   C4B35578  19.619  36.814   7.650
 5958POPC   NC335579  13.652  43.077   9.450
 5958POPC   PO435580  13.628  43.068   9.150
 5958POPC   GL135581  13.633  43.116   8.850
 5958POPC   GL235582  13.528  43.061   8.850
 5958POPC   C1A35583  13.605  43.114   8.550
 5958POPC   D2A35584  13.677  43.075   8.250
 5958POPC   C3A35585  13.589  43.063   7.950
 5958POPC   C4A35586  13.674  43.062   7.650
 5958POPC   C1B35587  13.360  43.070   8.550
 5958POPC   C2B35588  13.409  43.079   8.250
 5958POPC   C3B35589  13.356  43.148   7.950
 5958POPC   C4B35590  13.394  43.113   7.650
 5959POPC   NC335591  36.919   0.397   9.450
 5959POPC   PO435592  36.933   0.476   9.150
 5959POPC   GL135593  36.948   0.457   8.850
 5959POPC   GL235594  36.846   0.482   8.850
 5959POPC   C1A35595  36.867   0.402   8.550
 5959POPC   D2A35596  36.886   0.412   8.250
 5959POPC   C3A35597  36.894   0.406   7.950
 5959POPC   C4A35598  36.886   0.401   7.650
 5959POPC   C1B35599  36.696   0.590   8.550
 5959POPC   C2B35600  36.673   0.610   8.250
 5959POPC   C3B35601  36.689   0.548   7.950
 5959POPC   C4B35602  36.677   0.544   7.650
 5960POPC   NC335603   9.752   5.115   9.450
 5960POPC   PO435604   9.759   5.116   9.150
 5960POPC   GL135605   9.751   5.055   8.850
 5960POPC   GL235606   9.707   5.171   8.850
 5960POPC   C1A35607   9.788   5.050   8.550
 5960POPC   D2A35608   9.722   5.141   8.250
 5960POPC   C3A35609   9.798   5.143   7.950
 5960POPC   C4A35610   9.763   5.073   7.650
 5960POPC   C1B35611   9.705   5.337   8.550
 5960POPC   C2B35612   9.694   5.305   8.250
 5960POPC   C3B35613   9.696   5.335   7.950
 5960POPC   C4B35614   9.706   5.297   7.650
 5961POPC   NC335615  10.482  37.650   9.450
 5961POPC   PO435616  10.574  37.698   9.150
 5961POPC   GL135617  10.517  37.710   8.850
 5961POPC   GL235618  10.532  37.603   8.850
 5961POPC   C1A35619  10.510  37.653   8.550
 5961POPC   D2A35620  10.487  37.655   8.250
 5961POPC   C3A35621  10.547  37.727   7.950
 5961POPC   C4A35622  10.511  37.653   7.650
 5961POPC   C1B35623  10.599  37.430   8.550
 5961POPC   C2B35624  10.581  37.485   8.250
 5961POPC   C3B35625  10.629  37.477   7.950
 5961POPC   C4B35626  10.590  37.482   7.650
 5962POPC   NC335627  29.968  41.556   9.450
 5962POPC   PO435628  29.968  41.579   9.150
 5962POPC   GL135629  29.906  41.513   8.850
 5962POPC   GL235630  29.871  41.647   8.850
 5962POPC   C1A35631  29.881  41.521   8.550
 5962POPC   D2A35632  29.923  41.520   8.250
 5962POPC   C3A35633  29.950  41.564   7.950
 5962POPC   C4A35634  29.877  41.555   7.650
 5962POPC   C1B35635  29.780  41.736   8.550
 5962POPC   C2B35636  29.792  41.793   8.250
 5962POPC   C3B35637  29.707  41.786   7.950
 5962POPC   C4B35638  29.730  41.739   7.650
 5963POPC   NC335639  34.622   5.885   9.450
 5963POPC   PO435640  34.624   5.832   9.150
 5963POPC   GL135641  34.567   5.862   8.850
 5963POPC   GL235642  34.603   6.015   8.850
 5963POPC   C1A35643  34.560   5.867   8.550
 5963POPC   D2A35644  34.551   5.853   8.250
 5963POPC   C3A35645  34.623   5.870   7.950
 5963POPC   C4A35646  34.619   5.882   7.650
 5963POPC   C1B35647  34.573   6.103   8.550
 5963POPC   C2B35648  34.568   6.076   8.250
 5963POPC   C3B35649  34.536   6.107   7.950
 5963POPC   C4B35650  34.598   6.069   7.650
 5964POPC   NC335651  14.396   1.248   9.450
 5964POPC   PO435652  14.382   1.174   9.150
 5964POPC   GL135653  14.418   1.225   8.850
 5964POPC   GL235654  14.573   1.176   8.850
 5964POPC   C1A35655  14.391   1.178   8.550
 5964POPC   D2A35656  14.371   1.190   8.250
 5964POPC   C3A35657  14.389   1.261   7.950
 5964POPC   C4A35658  14.360   1.217   7.650
 5964POPC   C1B35659  14.604   1.118   8.550
 5964POPC   C2B35660  14.681   1.161   8.250
 5964POPC   C3B35661  14.682   1.186   7.950
 5964POPC   C4B35662  14.661   1.096   7.650
 5965POPC   NC335663  41.546  39.205   9.450
 5965POPC   PO435664  41.584  39.222   9.150
 5965POPC   GL135665  41.534  39.274   8.850
 5965POPC   GL235666  41.428  39.176   8.850
 5965POPC   C1A35667  41.525  39.195   8.550
 5965POPC   D2A35668  41.572  39.227   8.250
 5965POPC   C3A35669  41.511  39.249   7.950
 5965POPC   C4A35670  41.573  39.201   7.650
 5965POPC   C1B35671  41.351  39.242   8.550
 5965POPC   C2B35672  41.332  39.233   8.250
 5965POPC   C3B35673  41.268  39.204   7.950
 5965POPC   C4B35674  41.266  39.232   7.650
 5966POPC   NC335675  40.811  19.858   9.450
 5966POPC   PO435676  40.816  19.801   9.150
 5966POPC   GL135677  40.828  19.816   8.850
 5966POPC   GL235678  40.717  19.731   8.850
 5966POPC   C1A35679  40.760  19.877   8.550
 5966POPC   D2A35680  40.800  19.837   8.250
 5966POPC   C3A35681  40.742  19.837   7.950
 5966POPC   C4A35682  40.804  19.863   7.650
 5966POPC   C1B35683  40.580  19.755   8.550
 5966POPC   C2B35684  40.522  19.748   8.250
 5966POPC   C3B35685  40.546  19.739   7.950
 5966POPC   C4B35686  40.590  19.685   7.650
 5967POPC   NC335687  15.219  35.374   9.450
 5967POPC   PO435688  15.207  35.318   9.150
 5967POPC   GL135689  15.200  35.394   8.850
 5967POPC   GL235690  15.122  35.250   8.850
 5967POPC   C1A35691  15.181  35.375   8.550
 5967POPC   D2A35692  15.223  35.352   8.250
 5967POPC   C3A35693  15.138  35.331   7.950
 5967POPC   C4A35694  15.210  35.314   7.650
 5967POPC   C1B35695  15.013  35.229   8.550
 5967POPC   C2B35696  14.936  35.162   8.250
 5967POPC   C3B35697  14.946  35.215   7.950
 5967POPC   C4B35698  14.929  35.256   7.650
 5968POPC   NC335699  28.373  19.091   9.450
 5968POPC   PO435700  28.382  19.052   9.150
 5968POPC   GL135701  28.396  19.037   8.850
 5968POPC   GL235702  28.398  19.179   8.850
 5968POPC   C1A35703  28.368  19.025   8.550
 5968POPC   D2A35704  28.410  19.068   8.250
 5968POPC   C3A35705  28.402  19.046   7.950
 5968POPC   C4A35706  28.322  19.052   7.650
 5968POPC   C1B35707  28.493  19.234   8.550
 5968POPC   C2B35708  28.539  19.320   8.250
 5968POPC   C3B35709  28.458  19.260   7.950
 5968POPC   C4B35710  28.531  19.293   7.650
 5969POPC   NC335711  35.374  15.920   9.450
 5969POPC   PO435712  35.358  15.952   9.150
 5969POPC   GL135713  35.359  15.930   8.850
 5969POPC   GL235714  35.296  16.010   8.850
 5969POPC   C1A35715  35.361  16.000   8.550
 5969POPC   D2A35716  35.385  15.980   8.250
 5969POPC   C3A35717  35.336  15.945   7.950
 5969POPC   C4A35718  35.369  15.990   7.650
 5969POPC   C1B35719  35.147  16.148   8.550
 5969POPC   C2B35720  35.164  16.108   8.250
 5969POPC   C3B35721  35.149  16.171   7.950
 5969POPC   C4B35722  35.206  16.151   7.650
 5970POPC   NC335723  26.054   6.660   9.450
 5970POPC   PO435724  26.081   6.648   9.150
 5970POPC   GL135725  26.066   6.668   8.850
 5970POPC   GL235726  25.982   6.731   8.850
 5970POPC   C1A35727  26.061   6.682   8.550
 5970POPC   D2A35728  26.082   6.622   8.250
 5970POPC   C3A35729  26.001   6.630   7.950
 5970POPC   C4A35730  26.033   6.629   7.650
 5970POPC   C1B35731  25.921   6.825   8.550
 5970POPC   C2B35732  25.915   6.796   8.250
 5970POPC   C3B35733  25.927   6.869   7.950
 5970POPC   C4B35734  25.894   6.865   7.650
 5971POPC   NC335735  17.545  31.503   9.450
 5971POPC   PO435736  17.520  31.486   9.150
 5971POPC   GL135737  17.544  31.468   8.850
 5971POPC   GL235738  17.354  31.539   8.850
 5971POPC   C1A35739  17.542  31.423   8.550
 5971POPC   D2A35740  17.544  31.426   8.250
 5971POPC   C3A35741  17.507  31.489   7.950
 5971POPC   C4A35742  17.525  31.477   7.650
 5971POPC   C1B35743  17.263  31.514   8.550
 5971POPC   C2B35744  17.264  31.549   8.250
 5971POPC   C3B35745  17.225  31.556   7.950
 5971POPC   C4B35746  17.260  31.569   7.650
 5972POPC   NC335747  33.072  13.604   9.450
 5972POPC   PO435748  33.046  13.644   9.150
 5972POPC   GL135749  32.988  13.657   8.850
 5972POPC   GL235750  32.976  13.692   8.850
 5972POPC   C1A35751  33.008  13.654   8.550
 5972POPC   D2A35752  33.044  13.631   8.250
 5972POPC   C3A35753  33.049  13.602   7.950
 5972POPC   C4A35754  33.006  13.605   7.650
 5972POPC   C1B35755  32.919  13.799   8.550
 5972POPC   C2B35756  32.875  13.798   8.250
 5972POPC   C3B35757  32.866  13.894   7.950
 5972POPC   C4B35758  32.877  13.815   7.650
 5973POPC   NC335759  24.528   4.295   9.450
 5973POPC   PO435760  24.460   4.282   9.150
 5973POPC   GL135761  24.522   4.334   8.850
 5973POPC   GL235762  24.492   4.226   8.850
 5973POPC   C1A35763  24.459   4.268   8.550
 5973POPC   D2A35764  24.511   4.278   8.250
 5973POPC   C3A35765  24.515   4.309   7.950
 5973POPC   C4A35766  24.461   4.308   7.650
 5973POPC   C1B35767  24.423   4.103   8.550
 5973POPC   C2B35768  24.400   4.089   8.250
 5973POPC   C3B35769  24.386   4.131   7.950
 5973POPC   C4B35770  24.433   4.067   7.650
 5974POPC   NC335771   3.569   4.361   9.450
 5974POPC   PO435772   3.568   4.320   9.150
 5974POPC   GL135773   3.528   4.313   8.850
 5974POPC   GL235774   3.614   4.198   8.850
 5974POPC   C1A35775   3.515   4.282   8.550
 5974POPC   D2A35776   3.587   4.307   8.250
 5974POPC   C3A35777   3.534   4.356   7.950
 5974POPC   C4A35778   3.557   4.268   7.650
 5974POPC   C1B35779   3.679   4.097   8.550
 5974POPC   C2B35780   3.664   4.129   8.250
 5974POPC   C3B35781   3.631   4.154   7.950
 5974POPC   C4B35782   3.672   4.107   7.650
 5975POPC   NC335783  39.272  19.836   9.450
 5975POPC   PO435784  39.218  19.803   9.150
 5975POPC   GL135785  39.266  19.800   8.850
 5975POPC   GL235786  39.100  19.937   8.850
 5975POPC   C1A35787  39.230  19.823   8.550
 5975POPC   D2A35788  39.188  19.874   8.250
 5975POPC   C3A35789  39.199  19.807   7.950
 5975POPC   C4A35790  39.203  19.818   7.650
 5975POPC   C1B35791  39.051  19.994   8.550
 5975POPC   C2B35792  39.061  19.979   8.250
 5975POPC   C3B35793  39.062  20.057   7.950
 5975POPC   C4B35794  39.111  20.038   7.650
 5976POPC   NC335795  31.511  27.565   9.450
 5976POPC   PO435796  31.458  27.596   9.150
 5976POPC   GL135797  31.489  27.594   8.850
 5976POPC   GL235798  31.449  27.731   8.850
 5976POPC   C1A35799  31.465  27.571   8.550
 5976POPC   D2A35800  31.441  27.547   8.250
 5976POPC   C3A35801  31.474  27.561   7.950
 5976POPC   C4A35802  31.472  27.634   7.650
 5976POPC   C1B35803  31.326  27.823   8.550
 5976POPC   C2B35804  31.286  27.824   8.250
 5976POPC   C3B35805  31.377  27.813   7.950
 5976POPC   C4B35806  31.339  27.832   7.650
 5977POPC   NC335807  15.193  17.492   9.450
 5977POPC   PO435808  15.221  17.484   9.150
 5977POPC   GL135809  15.137  17.544   8.850
 5977POPC   GL235810  15.277  17.601   8.850
 5977POPC   C1A35811  15.176  17.475   8.550
 5977POPC   D2A35812  15.170  17.466   8.250
 5977POPC   C3A35813  15.185  17.475   7.950
 5977POPC   C4A35814  15.212  17.520   7.650
 5977POPC   C1B35815  15.372  17.640   8.550
 5977POPC   C2B35816  15.346  17.710   8.250
 5977POPC   C3B35817  15.415  17.641   7.950
 5977POPC   C4B35818  15.341  17.643   7.650
 5978POPC   NC335819  31.488   5.821   9.450
 5978POPC   PO435820  31.453   5.847   9.150
 5978POPC   GL135821  31.430   5.877   8.850
 5978POPC   GL235822  31.305   5.834   8.850
 5978POPC   C1A35823  31.439   5.906   8.550
 5978POPC   D2A35824  31.423   5.835   8.250
 5978POPC   C3A35825  31.457   5.911   7.950
 5978POPC   C4A35826  31.504   5.862   7.650
 5978POPC   C1B35827  31.235   5.825   8.550
 5978POPC   C2B35828  31.208   5.805   8.250
 5978POPC   C3B35829  31.273   5.815   7.950
 5978POPC   C4B35830  31.250   5.795   7.650
 5979POPC   NC335831   6.645  21.362   9.450
 5979POPC   PO435832   6.666  21.406   9.150
 5979POPC   GL135833   6.684  21.383   8.850
 5979POPC   GL235834   6.570  21.228   8.850
 5979POPC   C1A35835   6.621  21.398   8.550
 5979POPC   D2A35836   6.622  21.382   8.250
 5979POPC   C3A35837   6.663  21.346   7.950
 5979POPC   C4A35838   6.653  21.408   7.650
 5979POPC   C1B35839   6.547  21.169   8.550
 5979POPC   C2B35840   6.562  21.122   8.250
 5979POPC   C3B35841   6.564  21.143   7.950
 5979POPC   C4B35842   6.591  21.146   7.650
 5980POPC   NC335843  36.154  30.655   9.450
 5980POPC   PO435844  36.125  30.652   9.150
 5980POPC   GL135845  36.170  30.732   8.850
 5980POPC   GL235846  36.104  30.791   8.850
 5980POPC   C1A35847  36.142  30.658   8.550
 5980POPC   D2A35848  36.133  30.707   8.250
 5980POPC   C3A35849  36.156  30.729   7.950
 5980POPC   C4A35850  36.151  30.679   7.650
 5980POPC   C1B35851  36.179  30.982   8.550
 5980POPC   C2B35852  36.213  30.925   8.250
 5980POPC   C3B35853  36.131  30.943   7.950
 5980POPC   C4B35854  36.189  30.992   7.650
 5981POPC   NC335855  35.336  37.705   9.450
 5981POPC   PO435856  35.357  37.659   9.150
 5981POPC   GL135857  35.316  37.648   8.850
 5981POPC   GL235858  35.399  37.764   8.850
 5981POPC   C1A35859  35.370  37.699   8.550
 5981POPC   D2A35860  35.357  37.703   8.250
 5981POPC   C3A35861  35.333  37.726   7.950
 5981POPC   C4A35862  35.349  37.697   7.650
 5981POPC   C1B35863  35.402  37.903   8.550
 5981POPC   C2B35864  35.468  37.889   8.250
 5981POPC   C3B35865  35.451  37.943   7.950
 5981POPC   C4B35866  35.439  37.916   7.650
 5982POPC   NC335867  33.834  12.808   9.450
 5982POPC   PO435868  33.819  12.837   9.150
 5982POPC   GL135869  33.787  12.846   8.850
 5982POPC   GL235870  33.721  12.743   8.850
 5982POPC   C1A35871  33.792  12.879   8.550
 5982POPC   D2A35872  33.764  12.853   8.250
 5982POPC   C3A35873  33.826  12.883   7.950
 5982POPC   C4A35874  33.770  12.861   7.650
 5982POPC   C1B35875  33.677  12.632   8.550
 5982POPC   C2B35876  33.650  12.653   8.250
 5982POPC   C3B35877  33.653  12.663   7.950
 5982POPC   C4B35878  33.636  12.627   7.650
 5983POPC   NC335879  12.898   0.482   9.450
 5983POPC   PO435880  12.895   0.400   9.150
 5983POPC   GL135881  12.868   0.434   8.850
 5983POPC   GL235882  12.992   0.450   8.850
 5983POPC   C1A35883  12.876   0.430   8.550
 5983POPC   D2A35884  12.866   0.424   8.250
 5983POPC   C3A35885  12.812   0.464   7.950
 5983POPC   C4A35886  12.893   0.450   7.650
 5983POPC   C1B35887  13.038   0.561   8.550
 5983POPC   C2B35888  13.062   0.540   8.250
 5983POPC   C3B35889  13.106   0.521   7.950
 5983POPC   C4B35890  13.033   0.586   7.650
 5984POPC   NC335891   2.729  18.318   9.450
 5984POPC   PO435892   2.735  18.261   9.150
 5984POPC   GL135893   2.774  18.245   8.850
 5984POPC   GL235894   2.646  18.188   8.850
 5984POPC   C1A35895   2.766  18.283   8.550
 5984POPC   D2A35896   2.810  18.307   8.250
 5984POPC   C3A35897   2.724  18.307   7.950
 5984POPC   C4A35898   2.767  18.282   7.650
 5984POPC   C1B35899   2.572  18.117   8.550
 5984POPC   C2B35900   2.604  18.098   8.250
 5984POPC   C3B35901   2.522  18.144   7.950
 5984POPC   C4B35902   2.522  18.134   7.650
 5985POPC   NC335903  42.361  17.523   9.450
 5985POPC   PO435904  42.293  17.537   9.150
 5985POPC   GL135905  42.365  17.465   8.850
 5985POPC   GL235906  42.318  17.617   8.850
 5985POPC   C1A35907  42.285  17.554   8.550
 5985POPC   D2A35908  42.353  17.503   8.250
 5985POPC   C3A35909  42.306  17.495   7.950
 5985POPC   C4A35910  42.327  17.481   7.650
 5985POPC   C1B35911  42.316  17.708   8.550
 5985POPC   C2B35912  42.271  17.782   8.250
 5985POPC   C3B35913  42.321  17.709   7.950
 5985POPC   C4B35914  42.350  17.747   7.650
 5986POPC   NC335915  21.342  10.530   9.450
 5986POPC   PO435916  21.344  10.490   9.150
 5986POPC   GL135917  21.420  10.483   8.850
 5986POPC   GL235918  21.375  10.448   8.850
 5986POPC   C1A35919  21.427  10.537   8.550
 5986POPC   D2A35920  21.372  10.495   8.250
 5986POPC   C3A35921  21.362  10.500   7.950
 5986POPC   C4A35922  21.336  10.531   7.650
 5986POPC   C1B35923  21.453  10.262   8.550
 5986POPC   C2B35924  21.456  10.308   8.250
 5986POPC   C3B35925  21.470  10.272   7.950
 5986POPC   C4B35926  21.471  10.325   7.650
 5987POPC   NC335927  40.805  38.497   9.450
 5987POPC   PO435928  40.759  38.498   9.150
 5987POPC   GL135929  40.742  38.491   8.850
 5987POPC   GL235930  40.658  38.400   8.850
 5987POPC   C1A35931  40.802  38.447   8.550
 5987POPC   D2A35932  40.777  38.414   8.250
 5987POPC   C3A35933  40.816  38.425   7.950
 5987POPC   C4A35934  40.781  38.504   7.650
 5987POPC   C1B35935  40.557  38.239   8.550
 5987POPC   C2B35936  40.585  38.309   8.250
 5987POPC   C3B35937  40.632  38.252   7.950
 5987POPC   C4B35938  40.595  38.323   7.650
 5988POPC   NC335939  26.078  26.833   9.450
 5988POPC   PO435940  26.060  26.811   9.150
 5988POPC   GL135941  26.014  26.801   8.850
 5988POPC   GL235942  25.876  26.832   8.850
 5988POPC   C1A35943  26.048  26.863   8.550
 5988POPC   D2A35944  26.012  26.775   8.250
 5988POPC   C3A35945  26.010  26.861   7.950
 5988POPC   C4A35946  26.091  26.780   7.650
 5988POPC   C1B35947  25.756  26.858   8.550
 5988POPC   C2B35948  25.852  26.887   8.250
 5988POPC   C3B35949  25.808  26.908   7.950
 5988POPC   C4B35950  25.824  26.857   7.650
 5989POPC   NC335951  17.547  11.285   9.450
 5989POPC   PO435952  17.474  11.260   9.150
 5989POPC   GL135953  17.509  11.325   8.850
 5989POPC   GL235954  17.433  11.222   8.850
 5989POPC   C1A35955  17.466  11.252   8.550
 5989POPC   D2A35956  17.499  11.293   8.250
 5989POPC   C3A35957  17.527  11.324   7.950
 5989POPC   C4A35958  17.521  11.277   7.650
 5989POPC   C1B35959  17.457  11.056   8.550
 5989POPC   C2B35960  17.366  11.083   8.250
 5989POPC   C3B35961  17.394  11.035   7.950
 5989POPC   C4B35962  17.380  11.058   7.650
 5990POPC   NC335963  29.123  33.034   9.450
 5990POPC   PO435964  29.184  32.975   9.150
 5990POPC   GL135965  29.141  32.979   8.850
 5990POPC   GL235966  29.233  33.131   8.850
 5990POPC   C1A35967  29.148  33.072   8.550
 5990POPC   D2A35968  29.139  32.976   8.250
 5990POPC   C3A35969  29.172  32.988   7.950
 5990POPC   C4A35970  29.103  33.025   7.650
 5990POPC   C1B35971  29.307  33.201   8.550
 5990POPC   C2B35972  29.271  33.262   8.250
 5990POPC   C3B35973  29.321  33.226   7.950
 5990POPC   C4B35974  29.266  33.261   7.650
 5991POPC   NC335975  35.306  33.840   9.450
 5991POPC   PO435976  35.311  33.780   9.150
 5991POPC   GL135977  35.389  33.817   8.850
 5991POPC   GL235978  35.426  33.718   8.850
 5991POPC   C1A35979  35.336  33.842   8.550
 5991POPC   D2A35980  35.371  33.780   8.250
 5991POPC   C3A35981  35.356  33.812   7.950
 5991POPC   C4A35982  35.332  33.830   7.650
 5991POPC   C1B35983  35.452  33.555   8.550
 5991POPC   C2B35984  35.426  33.533   8.250
 5991POPC   C3B35985  35.454  33.573   7.950
 5991POPC   C4B35986  35.444  33.515   7.650
 5992POPC   NC335987  18.246  31.426   9.450
 5992POPC   PO435988  18.261  31.432   9.150
 5992POPC   GL135989  18.278  31.449   8.850
 5992POPC   GL235990  18.398  31.398   8.850
 5992POPC   C1A35991  18.319  31.426   8.550
 5992POPC   D2A35992  18.260  31.477   8.250
 5992POPC   C3A35993  18.262  31.456   7.950
 5992POPC   C4A35994  18.272  31.511   7.650
 5992POPC   C1B35995  18.436  31.325   8.550
 5992POPC   C2B35996  18.452  31.289   8.250
 5992POPC   C3B35997  18.459  31.261   7.950
 5992POPC   C4B35998  18.445  31.346   7.650
 5993POPC   NC335999   1.236  34.534   9.450
 5993POPC   PO436000   1.229  34.526   9.150
 5993POPC   GL136001   1.202  34.530   8.850
 5993POPC   GL236002   1.232  34.683   8.850
 5993POPC   C1A36003   1.228  34.565   8.550
 5993POPC   D2A36004   1.178  34.582   8.250
 5993POPC   C3A36005   1.175  34.626   7.950
 5993POPC   C4A36006   1.191  34.570   7.650
 5993POPC   C1B36007   1.331  34.843   8.550
 5993POPC   C2B36008   1.307  34.820   8.250
 5993POPC   C3B36009   1.343  34.764   7.950
 5993POPC   C4B36010   1.350  34.802   7.650
 5994POPC   NC336011  29.912   2.810   9.450
 5994POPC   PO436012  29.925   2.759   9.150
 5994POPC   GL136013  29.891   2.810   8.850
 5994POPC   GL236014  29.919   2.873   8.850
 5994POPC   C1A36015  29.960   2.780   8.550
 5994POPC   D2A36016  29.895   2.776   8.250
 5994POPC   C3A36017  29.951   2.801   7.950
 5994POPC   C4A36018  29.894   2.789   7.650
 5994POPC   C1B36019  29.980   3.004   8.550
 5994POPC   C2B36020  30.036   2.989   8.250
 5994POPC   C3B36021  30.038   3.047   7.950
 5994POPC   C4B36022  30.009   2.965   7.650
 5995POPC   NC336023  36.161   3.577   9.450
 5995POPC   PO436024  36.143   3.576   9.150
 5995POPC   GL136025  36.096   3.498   8.850
 5995POPC   GL236026  36.030   3.550   8.850
 5995POPC   C1A36027  36.113   3.588   8.550
 5995POPC   D2A36028  36.124   3.532   8.250
 5995POPC   C3A36029  36.148   3.498   7.950
 5995POPC   C4A36030  36.140   3.582   7.650
 5995POPC   C1B36031  35.918   3.536   8.550
 5995POPC   C2B36032  35.880   3.595   8.250
 5995POPC   C3B36033  35.843   3.545   7.950
 5995POPC   C4B36034  35.878   3.564   7.650
 5996POPC   NC336035  14.376  44.648   9.450
 5996POPC   PO436036  14.429  44.707   9.150
 5996POPC   GL136037  14.436  44.670   8.850
 5996POPC   GL236038  14.311  44.611   8.850
 5996POPC   C1A36039  14.432  44.634   8.550
 5996POPC   D2A36040  14.376  44.691   8.250
 5996POPC   C3A36041  14.403  44.619   7.950
 5996POPC   C4A36042  14.434  44.655   7.650
 5996POPC   C1B36043  14.175  44.610   8.550
 5996POPC   C2B36044  14.123  44.622   8.250
 5996POPC   C3B36045  14.135  44.611   7.950
 5996POPC   C4B36046  14.138  44.556   7.650
 5997POPC   NC336047  18.326  40.054   9.450
 5997POPC   PO436048  18.267  39.962   9.150
 5997POPC   GL136049  18.295  40.052   8.850
 5997POPC   GL236050  18.416  39.996   8.850
 5997POPC   C1A36051  18.243  40.023   8.550
 5997POPC   D2A36052  18.289  39.970   8.250
 5997POPC   C3A36053  18.266  40.031   7.950
 5997POPC   C4A36054  18.270  39.969   7.650
 5997POPC   C1B36055  18.489  39.935   8.550
 5997POPC   C2B36056  18.563  39.978   8.250
 5997POPC   C3B36057  18.499  39.989   7.950
 5997POPC   C4B36058  18.508  39.903   7.650
 5998POPC   NC336059  12.041  37.644   9.450
 5998POPC   PO436060  12.052  37.636   9.150
 5998POPC   GL136061  12.068  37.644   8.850
 5998POPC   GL236062  12.168  37.648   8.850
 5998POPC   C1A36063  12.101  37.662   8.550
 5998POPC   D2A36064  12.105  37.645   8.250
 5998POPC   C3A36065  12.043  37.712   7.950
 5998POPC   C4A36066  12.041  37.680   7.650
 5998POPC   C1B36067  12.302  37.636   8.550
 5998POPC   C2B36068  12.360  37.674   8.250
 5998POPC   C3B36069  12.324  37.640   7.950
 5998POPC   C4B36070  12.283  37.613   7.650
 5999POPC   NC336071  29.163  38.448   9.450
 5999POPC   PO436072  29.177  38.465   9.150
 5999POPC   GL136073  29.122  38.472   8.850
 5999POPC   GL236074  29.255  38.454   8.850
 5999POPC   C1A36075  29.193  38.429   8.550
 5999POPC   D2A36076  29.188  38.427   8.250
 5999POPC   C3A36077  29.193  38.488   7.950
 5999POPC   C4A36078  29.190  38.470   7.650
 5999POPC   C1B36079  29.425  38.465   8.550
 5999POPC   C2B36080  29.356  38.415   8.250
 5999POPC   C3B36081  29.390  38.429   7.950
 5999POPC   C4B36082  29.408  38.402   7.650
 6000POPC   NC336083   8.211  16.737   9.450
 6000POPC   PO436084   8.163  16.697   9.150
 6000POPC   GL136085   8.160  16.772   8.850
 6000POPC   GL236086   8.055  16.663   8.850
 6000POPC   C1A36087   8.172  16.722   8.550
 6000POPC   D2A36088   8.240  16.686   8.250
 6000POPC   C3A36089   8.190  16.688   7.950
 6000POPC   C4A36090   8.180  16.739   7.650
 6000POPC   C1B36091   8.003  16.616   8.550
 6000POPC   C2B36092   7.984  16.664   8.250
 6000POPC   C3B36093   8.020  16.611   7.950
 6000POPC   C4B36094   8.015  16.595   7.650
 6001POPC   NC336095  10.551  32.203   9.450
 6001POPC   PO436096  10.551  32.258   9.150
 6001POPC   GL136097  10.500  32.250   8.850
 6001POPC   GL236098  10.616  32.306   8.850
 6001POPC   C1A36099  10.475  32.268   8.550
 6001POPC   D2A36100  10.496  32.292   8.250
 6001POPC   C3A36101  10.544  32.234   7.950
 6001POPC   C4A36102  10.517  32.272   7.650
 6001POPC   C1B36103  10.692  32.400   8.550
 6001POPC   C2B36104  10.757  32.387   8.250
 6001POPC   C3B36105  10.694  32.377   7.950
 6001POPC   C4B36106  10.680  32.387   7.650
 6002POPC   NC336107  29.875   7.416   9.450
 6002POPC   PO436108  29.923   7.427   9.150
 6002POPC   GL136109  29.947   7.428   8.850
 6002POPC   GL236110  30.030   7.460   8.850
 6002POPC   C1A36111  29.929   7.445   8.550
 6002POPC   D2A36112  29.913   7.465   8.250
 6002POPC   C3A36113  29.891   7.376   7.950
 6002POPC   C4A36114  29.913   7.386   7.650
 6002POPC   C1B36115  30.119   7.503   8.550
 6002POPC   C2B36116  30.172   7.486   8.250
 6002POPC   C3B36117  30.125   7.574   7.950
 6002POPC   C4B36118  30.184   7.514   7.650
 6003POPC   NC336119  12.802   8.944   9.450
 6003POPC   PO436120  12.809   8.924   9.150
 6003POPC   GL136121  12.841   8.928   8.850
 6003POPC   GL236122  12.804   9.083   8.850
 6003POPC   C1A36123  12.886   8.987   8.550
 6003POPC   D2A36124  12.890   8.929   8.250
 6003POPC   C3A36125  12.901   9.016   7.950
 6003POPC   C4A36126  12.888   8.934   7.650
 6003POPC   C1B36127  12.614   9.119   8.550
 6003POPC   C2B36128  12.631   9.135   8.250
 6003POPC   C3B36129  12.624   9.166   7.950
 6003POPC   C4B36130  12.643   9.092   7.650
 6004POPC   NC336131  40.792  14.368   9.450
 6004POPC   PO436132  40.775  14.432   9.150
 6004POPC   GL136133  40.784  14.437   8.850
 6004POPC   GL236134  40.700  14.329   8.850
 6004POPC   C1A36135  40.783  14.382   8.550
 6004POPC   D2A36136  40.756  14.422   8.250
 6004POPC   C3A36137  40.801  14.408   7.950
 6004POPC   C4A36138  40.756  14.389   7.650
 6004POPC   C1B36139  40.654  14.148   8.550
 6004POPC   C2B36140  40.634  14.161   8.250
 6004POPC   C3B36141  40.646  14.154   7.950
 6004POPC   C4B36142  40.678  14.204   7.650
 6005POPC   NC336143  36.862  41.580   9.450
 6005POPC   PO436144  36.859  41.590   9.150
 6005POPC   GL136145  36.916  41.510   8.850
 6005POPC   GL236146  37.044  41.516   8.850
 6005POPC   C1A36147  36.874  41.602   8.550
 6005POPC   D2A36148  36.889  41.550   8.250
 6005POPC   C3A36149  36.937  41.590   7.950
 6005POPC   C4A36150  36.883  41.563   7.650
 6005POPC   C1B36151  37.122  41.509   8.550
 6005POPC   C2B36152  37.128  41.607   8.250
 6005POPC   C3B36153  37.131  41.559   7.950
 6005POPC   C4B36154  37.196  41.542   7.650
 6006POPC   NC336155  37.677  36.102   9.450
 6006POPC   PO436156  37.683  36.174   9.150
 6006POPC   GL136157  37.667  36.131   8.850
 6006POPC   GL236158  37.700  36.042   8.850
 6006POPC   C1A36159  37.689  36.090   8.550
 6006POPC   D2A36160  37.688  36.136   8.250
 6006POPC   C3A36161  37.654  36.103   7.950
 6006POPC   C4A36162  37.696  36.142   7.650
 6006POPC   C1B36163  37.767  35.877   8.550
 6006POPC   C2B36164  37.792  35.919   8.250
 6006POPC   C3B36165  37.791  35.915   7.950
 6006POPC   C4B36166  37.826  35.907   7.650
 6007POPC   NC336167  17.540   8.994   9.450
 6007POPC   PO436168  17.510   8.924   9.150
 6007POPC   GL136169  17.503   8.943   8.850
 6007POPC   GL236170  17.650   8.920   8.850
 6007POPC   C1A36171  17.509   9.010   8.550
 6007POPC   D2A36172  17.473   8.940   8.250
 6007POPC   C3A36173  17.487   8.953   7.950
 6007POPC   C4A36174  17.548   8.931   7.650
 6007POPC   C1B36175  17.759   8.926   8.550
 6007POPC   C2B36176  17.710   8.920   8.250
 6007POPC   C3B36177  17.720   8.872   7.950
 6007POPC   C4B36178  17.762   8.883   7.650
 6008POPC   NC336179  29.190  10.516   9.450
 6008POPC   PO436180  29.168  10.492   9.150
 6008POPC   GL136181  29.101  10.488   8.850
 6008POPC   GL236182  29.008  10.478   8.850
 6008POPC   C1A36183  29.125  10.531   8.550
 6008POPC   D2A36184  29.152  10.500   8.250
 6008POPC   C3A36185  29.142  10.486   7.950
 6008POPC   C4A36186  29.184  10.541   7.650
 6008POPC   C1B36187  28.947  10.469   8.550
 6008POPC   C2B36188  28.934  10.485   8.250
 6008POPC   C3B36189  28.852  10.423   7.950
 6008POPC   C4B36190  28.907  10.495   7.650
 6009POPC   NC336191  37.632  31.495   9.450
 6009POPC   PO436192  37.630  31.441   9.150
 6009POPC   GL136193  37.667  31.469   8.850
 6009POPC   GL236194  37.762  31.441   8.850
 6009POPC   C1A36195  37.633  31.504   8.550
 6009POPC   D2A36196  37.650  31.433   8.250
 6009POPC   C3A36197  37.650  31.483   7.950
 6009POPC   C4A36198  37.650  31.507   7.650
 6009POPC   C1B36199  37.965  31.478   8.550
 6009POPC   C2B36200  37.892  31.476   8.250
 6009POPC   C3B36201  37.947  31.447   7.950
 6009POPC   C4B36202  37.975  31.497   7.650
 6010POPC   NC336203  15.989  11.337   9.450
 6010POPC   PO436204  15.964  11.273   9.150
 6010POPC   GL136205  16.005  11.277   8.850
 6010POPC   GL236206  15.972  11.136   8.850
 6010POPC   C1A36207  16.004  11.263   8.550
 6010POPC   D2A36208  15.938  11.314   8.250
 6010POPC   C3A36209  15.951  11.322   7.950
 6010POPC   C4A36210  15.915  11.323   7.650
 6010POPC   C1B36211  15.928  11.019   8.550
 6010POPC   C2B36212  15.904  11.065   8.250
 6010POPC   C3B36213  15.916  11.076   7.950
 6010POPC   C4B36214  15.917  11.017   7.650
 6011POPC   NC336215  33.801  32.247   9.450
 6011POPC   PO436216  33.776  32.268   9.150
 6011POPC   GL136217  33.835  32.271   8.850
 6011POPC   GL236218  33.883  32.400   8.850
 6011POPC   C1A36219  33.838  32.232   8.550
 6011POPC   D2A36220  33.802  32.266   8.250
 6011POPC   C3A36221  33.778  32.271   7.950
 6011POPC   C4A36222  33.799  32.263   7.650
 6011POPC   C1B36223  33.934  32.456   8.550
 6011POPC   C2B36224  33.914  32.436   8.250
 6011POPC   C3B36225  33.922  32.442   7.950
 6011POPC   C4B36226  33.844  32.494   7.650
 6012POPC   NC336227  22.132  36.903   9.450
 6012POPC   PO436228  22.204  36.906   9.150
 6012POPC   GL136229  22.154  36.925   8.850
 6012POPC   GL236230  22.108  36.792   8.850
 6012POPC   C1A36231  22.170  36.934   8.550
 6012POPC   D2A36232  22.186  36.888   8.250
 6012POPC   C3A36233  22.170  36.938   7.950
 6012POPC   C4A36234  22.149  36.942   7.650
 6012POPC   C1B36235  21.939  36.691   8.550
 6012POPC   C2B36236  21.999  36.704   8.250
 6012POPC   C3B36237  21.991  36.677   7.950
 6012POPC   C4B36238  22.032  36.692   7.650
 6013POPC   NC336239   1.970  40.803   9.450
 6013POPC   PO436240   2.019  40.799   9.150
 6013POPC   GL136241   1.941  40.759   8.850
 6013POPC   GL236242   1.911  40.886   8.850
 6013POPC   C1A36243   1.952  40.755   8.550
 6013POPC   D2A36244   2.017  40.788   8.250
 6013POPC   C3A36245   1.964  40.795   7.950
 6013POPC   C4A36246   2.015  40.829   7.650
 6013POPC   C1B36247   1.904  41.014   8.550
 6013POPC   C2B36248   1.926  41.026   8.250
 6013POPC   C3B36249   1.920  41.011   7.950
 6013POPC   C4B36250   1.896  41.007   7.650
 6014POPC   NC336251  16.769   9.736   9.450
 6014POPC   PO436252  16.683   9.722   9.150
 6014POPC   GL136253  16.684   9.796   8.850
 6014POPC   GL236254  16.816   9.835   8.850
 6014POPC   C1A36255  16.693   9.795   8.550
 6014POPC   D2A36256  16.690   9.771   8.250
 6014POPC   C3A36257  16.688   9.796   7.950
 6014POPC   C4A36258  16.741   9.736   7.650
 6014POPC   C1B36259  16.857   9.994   8.550
 6014POPC   C2B36260  16.862   9.982   8.250
 6014POPC   C3B36261  16.894   9.941   7.950
 6014POPC   C4B36262  16.887   9.929   7.650
 6015POPC   NC336263  22.933   8.203   9.450
 6015POPC   PO436264  22.926   8.224   9.150
 6015POPC   GL136265  22.982   8.225   8.850
 6015POPC   GL236266  22.862   8.216   8.850
 6015POPC   C1A36267  22.965   8.156   8.550
 6015POPC   D2A36268  22.949   8.176   8.250
 6015POPC   C3A36269  22.923   8.203   7.950
 6015POPC   C4A36270  22.923   8.150   7.650
 6015POPC   C1B36271  22.655   8.160   8.550
 6015POPC   C2B36272  22.691   8.121   8.250
 6015POPC   C3B36273  22.730   8.195   7.950
 6015POPC   C4B36274  22.688   8.139   7.650
 6016POPC   NC336275  15.977  34.530   9.450
 6016POPC   PO436276  15.924  34.551   9.150
 6016POPC   GL136277  15.960  34.549   8.850
 6016POPC   GL236278  16.016  34.523   8.850
 6016POPC   C1A36279  15.920  34.558   8.550
 6016POPC   D2A36280  15.986  34.548   8.250
 6016POPC   C3A36281  15.990  34.546   7.950
 6016POPC   C4A36282  15.974  34.551   7.650
 6016POPC   C1B36283  16.178  34.464   8.550
 6016POPC   C2B36284  16.182  34.440   8.250
 6016POPC   C3B36285  16.176  34.410   7.950
 6016POPC   C4B36286  16.197  34.394   7.650
 6017POPC   NC336287  21.382  43.087   9.450
 6017POPC   PO436288  21.342  43.135   9.150
 6017POPC   GL136289  21.391  43.125   8.850
 6017POPC   GL236290  21.519  43.154   8.850
 6017POPC   C1A36291  21.376  43.138   8.550
 6017POPC   D2A36292  21.377  43.076   8.250
 6017POPC   C3A36293  21.402  43.134   7.950
 6017POPC   C4A36294  21.414  43.113   7.650
 6017POPC   C1B36295  21.638  43.222   8.550
 6017POPC   C2B36296  21.624  43.201   8.250
 6017POPC   C3B36297  21.651  43.215   7.950
 6017POPC   C4B36298  21.604  43.253   7.650
 6018POPC   NC336299  13.628   1.994   9.450
 6018POPC   PO436300  13.582   2.001   9.150
 6018POPC   GL136301  13.642   1.994   8.850
 6018POPC   GL236302  13.468   1.939   8.850
 6018POPC   C1A36303  13.640   1.945   8.550
 6018POPC   D2A36304  13.602   2.002   8.250
 6018POPC   C3A36305  13.632   1.983   7.950
 6018POPC   C4A36306  13.645   2.018   7.650
 6018POPC   C1B36307  13.380   1.910   8.550
 6018POPC   C2B36308  13.434   1.908   8.250
 6018POPC   C3B36309  13.420   1.849   7.950
 6018POPC   C4B36310  13.423   1.887   7.650
 6019POPC   NC336311  38.491  38.491   9.450
 6019POPC   PO436312  38.482  38.487   9.150
 6019POPC   GL136313  38.469  38.467   8.850
 6019POPC   GL236314  38.429  38.302   8.850
 6019POPC   C1A36315  38.458  38.490   8.550
 6019POPC   D2A36316  38.423  38.504   8.250
 6019POPC   C3A36317  38.498  38.432   7.950
 6019POPC   C4A36318  38.469  38.458   7.650
 6019POPC   C1B36319  38.396  38.160   8.550
 6019POPC   C2B36320  38.399  38.202   8.250
 6019POPC   C3B36321  38.374  38.168   7.950
 6019POPC   C4B36322  38.379  38.256   7.650
 6020POPC   NC336323  40.028  10.542   9.450
 6020POPC   PO436324  40.013  10.549   9.150
 6020POPC   GL136325  40.009  10.480   8.850
 6020POPC   GL236326  40.140  10.532   8.850
 6020POPC   C1A36327  40.037  10.477   8.550
 6020POPC   D2A36328  40.024  10.485   8.250
 6020POPC   C3A36329  40.032  10.564   7.950
 6020POPC   C4A36330  39.967  10.499   7.650
 6020POPC   C1B36331  40.225  10.520   8.550
 6020POPC   C2B36332  40.228  10.510   8.250
 6020POPC   C3B36333  40.304  10.525   7.950
 6020POPC   C4B36334  40.244  10.453   7.650
 6021POPC   NC336335   7.374   7.405   9.450
 6021POPC   PO436336   7.425   7.443   9.150
 6021POPC   GL136337   7.388   7.427   8.850
 6021POPC   GL236338   7.293   7.445   8.850
 6021POPC   C1A36339   7.445   7.466   8.550
 6021POPC   D2A36340   7.460   7.461   8.250
 6021POPC   C3A36341   7.404   7.455   7.950
 6021POPC   C4A36342   7.443   7.422   7.650
 6021POPC   C1B36343   7.153   7.508   8.550
 6021POPC   C2B36344   7.180   7.493   8.250
 6021POPC   C3B36345   7.213   7.443   7.950
 6021POPC   C4B36346   7.164   7.469   7.650
 6022POPC   NC336347  15.202   8.953   9.450
 6022POPC   PO436348  15.150   8.970   9.150
 6022POPC   GL136349  15.189   8.980   8.850
 6022POPC   GL236350  15.196   8.865   8.850
 6022POPC   C1A36351  15.154   8.966   8.550
 6022POPC   D2A36352  15.229   9.008   8.250
 6022POPC   C3A36353  15.208   8.955   7.950
 6022POPC   C4A36354  15.186   8.970   7.650
 6022POPC   C1B36355  15.289   8.704   8.550
 6022POPC   C2B36356  15.238   8.694   8.250
 6022POPC   C3B36357  15.233   8.726   7.950
 6022POPC   C4B36358  15.285   8.760   7.650
 6023POPC   NC336359  14.391  12.082   9.450
 6023POPC   PO436360  14.360  12.098   9.150
 6023POPC   GL136361  14.379  12.072   8.850
 6023POPC   GL236362  14.299  11.987   8.850
 6023POPC   C1A36363  14.364  12.093   8.550
 6023POPC   D2A36364  14.431  12.088   8.250
 6023POPC   C3A36365  14.409  12.059   7.950
 6023POPC   C4A36366  14.400  12.067   7.650
 6023POPC   C1B36367  14.192  11.895   8.550
 6023POPC   C2B36368  14.236  11.922   8.250
 6023POPC   C3B36369  14.232  11.959   7.950
 6023POPC   C4B36370  14.247  11.891   7.650
 6024POPC   NC336371   3.573  22.131   9.450
 6024POPC   PO436372   3.524  22.147   9.150
 6024POPC   GL136373   3.556  22.152   8.850
 6024POPC   GL236374   3.501  22.071   8.850
 6024POPC   C1A36375   3.587  22.147   8.550
 6024POPC   D2A36376   3.526  22.205   8.250
 6024POPC   C3A36377   3.535  22.166   7.950
 6024POPC   C4A36378   3.496  22.114   7.650
 6024POPC   C1B36379   3.512  21.938   8.550
 6024POPC   C2B36380   3.510  21.957   8.250
 6024POPC   C3B36381   3.480  21.894   7.950
 6024POPC   C4B36382   3.509  21.885   7.650
 6025POPC   NC336383  29.966   3.566   9.450
 6025POPC   PO436384  29.956   3.525   9.150
 6025POPC   GL136385  29.888   3.510   8.850
 6025POPC   GL236386  30.041   3.602   8.850
 6025POPC   C1A36387  29.958   3.574   8.550
 6025POPC   D2A36388  29.890   3.545   8.250
 6025POPC   C3A36389  29.871   3.574   7.950
 6025POPC   C4A36390  29.906   3.508   7.650
 6025POPC   C1B36391  30.159   3.680   8.550
 6025POPC   C2B36392  30.160   3.721   8.250
 6025POPC   C3B36393  30.163   3.717   7.950
 6025POPC   C4B36394  30.096   3.733   7.650
 6026POPC   NC336395   3.539  10.562   9.450
 6026POPC   PO436396   3.501  10.544   9.150
 6026POPC   GL136397   3.537  10.475   8.850
 6026POPC   GL236398   3.707  10.494   8.850
 6026POPC   C1A36399   3.494  10.502   8.550
 6026POPC   D2A36400   3.529  10.574   8.250
 6026POPC   C3A36401   3.544  10.527   7.950
 6026POPC   C4A36402   3.554  10.569   7.650
 6026POPC   C1B36403   3.778  10.477   8.550
 6026POPC   C2B36404   3.801  10.524   8.250
 6026POPC   C3B36405   3.773  10.515   7.950
 6026POPC   C4B36406   3.834  10.453   7.650
 6027POPC   NC336407  19.076  35.351   9.450
 6027POPC   PO436408  19.074  35.377   9.150
 6027POPC   GL136409  19.104  35.368   8.850
 6027POPC   GL236410  18.967  35.375   8.850
 6027POPC   C1A36411  19.010  35.339   8.550
 6027POPC   D2A36412  19.019  35.304   8.250
 6027POPC   C3A36413  19.102  35.319   7.950
 6027POPC   C4A36414  19.107  35.340   7.650
 6027POPC   C1B36415  18.801  35.436   8.550
 6027POPC   C2B36416  18.792  35.447   8.250
 6027POPC   C3B36417  18.864  35.480   7.950
 6027POPC   C4B36418  18.819  35.442   7.650
 6028POPC   NC336419  20.631  43.093   9.450
 6028POPC   PO436420  20.577  43.140   9.150
 6028POPC   GL136421  20.657  43.103   8.850
 6028POPC   GL236422  20.568  43.234   8.850
 6028POPC   C1A36423  20.648  43.077   8.550
 6028POPC   D2A36424  20.628  43.148   8.250
 6028POPC   C3A36425  20.589  43.085   7.950
 6028POPC   C4A36426  20.576  43.095   7.650
 6028POPC   C1B36427  20.510  43.288   8.550
 6028POPC   C2B36428  20.472  43.283   8.250
 6028POPC   C3B36429  20.455  43.281   7.950
 6028POPC   C4B36430  20.512  43.292   7.650
 6029POPC   NC336431  12.095   1.209   9.450
 6029POPC   PO436432  12.028   1.233   9.150
 6029POPC   GL136433  12.035   1.226   8.850
 6029POPC   GL236434  11.998   1.248   8.850
 6029POPC   C1A36435  12.085   1.211   8.550
 6029POPC   D2A36436  12.089   1.229   8.250
 6029POPC   C3A36437  12.103   1.200   7.950
 6029POPC   C4A36438  12.047   1.237   7.650
 6029POPC   C1B36439  11.907   1.343   8.550
 6029POPC   C2B36440  11.884   1.404   8.250
 6029POPC   C3B36441  11.865   1.319   7.950
 6029POPC   C4B36442  11.881   1.404   7.650
 6030POPC   NC336443  12.067  43.153   9.450
 6030POPC   PO436444  12.083  43.147   9.150
 6030POPC   GL136445  12.098  43.091   8.850
 6030POPC   GL236446  11.970  43.164   8.850
 6030POPC   C1A36447  12.123  43.147   8.550
 6030POPC   D2A36448  12.045  43.115   8.250
 6030POPC   C3A36449  12.046  43.087   7.950
 6030POPC   C4A36450  12.089  43.155   7.650
 6030POPC   C1B36451  11.836  43.125   8.550
 6030POPC   C2B36452  11.796  43.154   8.250
 6030POPC   C3B36453  11.792  43.148   7.950
 6030POPC   C4B36454  11.794  43.166   7.650
 6031POPC   NC336455  13.580  39.187   9.450
 6031POPC   PO436456  13.579  39.218   9.150
 6031POPC   GL136457  13.626  39.219   8.850
 6031POPC   GL236458  13.636  39.329   8.850
 6031POPC   C1A36459  13.677  39.268   8.550
 6031POPC   D2A36460  13.584  39.231   8.250
 6031POPC   C3A36461  13.629  39.211   7.950
 6031POPC   C4A36462  13.589  39.278   7.650
 6031POPC   C1B36463  13.727  39.463   8.550
 6031POPC   C2B36464  13.700  39.478   8.250
 6031POPC   C3B36465  13.781  39.451   7.950
 6031POPC   C4B36466  13.709  39.425   7.650
 6032POPC   NC336467  13.675  18.260   9.450
 6032POPC   PO436468  13.586  18.290   9.150
 6032POPC   GL136469  13.633  18.324   8.850
 6032POPC   GL236470  13.667  18.373   8.850
 6032POPC   C1A36471  13.668  18.278   8.550
 6032POPC   D2A36472  13.613  18.326   8.250
 6032POPC   C3A36473  13.626  18.275   7.950
 6032POPC   C4A36474  13.646  18.271   7.650
 6032POPC   C1B36475  13.594  18.569   8.550
 6032POPC   C2B36476  13.631  18.540   8.250
 6032POPC   C3B36477  13.590  18.521   7.950
 6032POPC   C4B36478  13.603  18.521   7.650
 6033POPC   NC336479  17.497  24.483   9.450
 6033POPC   PO436480  17.469  24.479   9.150
 6033POPC   GL136481  17.513  24.470   8.850
 6033POPC   GL236482  17.464  24.564   8.850
 6033POPC   C1A36483  17.531  24.484   8.550
 6033POPC   D2A36484  17.523  24.474   8.250
 6033POPC   C3A36485  17.470  24.509   7.950
 6033POPC   C4A36486  17.471  24.527   7.650
 6033POPC   C1B36487  17.459  24.714   8.550
 6033POPC   C2B36488  17.401  24.733   8.250
 6033POPC   C3B36489  17.390  24.705   7.950
 6033POPC   C4B36490  17.417  24.729   7.650
 6034POPC   NC336491  41.547   9.783   9.450
 6034POPC   PO436492  41.528   9.753   9.150
 6034POPC   GL136493  41.597   9.779   8.850
 6034POPC   GL236494  41.644   9.631   8.850
 6034POPC   C1A36495  41.596   9.729   8.550
 6034POPC   D2A36496  41.585   9.750   8.250
 6034POPC   C3A36497  41.511   9.740   7.950
 6034POPC   C4A36498  41.510   9.703   7.650
 6034POPC   C1B36499  41.729   9.597   8.550
 6034POPC   C2B36500  41.759   9.523   8.250
 6034POPC   C3B36501  41.781   9.520   7.950
 6034POPC   C4B36502  41.695   9.587   7.650
 6035POPC   NC336503  40.810  42.343   9.450
 6035POPC   PO436504  40.803  42.309   9.150
 6035POPC   GL136505  40.798  42.291   8.850
 6035POPC   GL236506  40.738  42.210   8.850
 6035POPC   C1A36507  40.740  42.358   8.550
 6035POPC   D2A36508  40.740  42.294   8.250
 6035POPC   C3A36509  40.783  42.315   7.950
 6035POPC   C4A36510  40.816  42.376   7.650
 6035POPC   C1B36511  40.651  42.149   8.550
 6035POPC   C2B36512  40.658  42.137   8.250
 6035POPC   C3B36513  40.628  42.162   7.950
 6035POPC   C4B36514  40.659  42.166   7.650
 6036POPC   NC336515  22.960  37.639   9.450
 6036POPC   PO436516  22.900  37.705   9.150
 6036POPC   GL136517  22.959  37.709   8.850
 6036POPC   GL236518  22.851  37.778   8.850
 6036POPC   C1A36519  22.916  37.688   8.550
 6036POPC   D2A36520  22.948  37.637   8.250
 6036POPC   C3A36521  22.964  37.662   7.950
 6036POPC   C4A36522  22.897  37.630   7.650
 6036POPC   C1B36523  22.819  37.870   8.550
 6036POPC   C2B36524  22.795  37.938   8.250
 6036POPC   C3B36525  22.846  37.945   7.950
 6036POPC   C4B36526  22.798  37.874   7.650
 6037POPC   NC336527  24.467  39.982   9.450
 6037POPC   PO436528  24.494  40.015   9.150
 6037POPC   GL136529  24.493  40.038   8.850
 6037POPC   GL236530  24.638  40.077   8.850
 6037POPC   C1A36531  24.469  40.047   8.550
 6037POPC   D2A36532  24.468  39.984   8.250
 6037POPC   C3A36533  24.528  40.044   7.950
 6037POPC   C4A36534  24.505  40.009   7.650
 6037POPC   C1B36535  24.759  40.125   8.550
 6037POPC   C2B36536  24.716  40.143   8.250
 6037POPC   C3B36537  24.732  40.100   7.950
 6037POPC   C4B36538  24.761  40.085   7.650
 6038POPC   NC336539  14.406   3.525   9.450
 6038POPC   PO436540  14.387   3.570   9.150
 6038POPC   GL136541  14.429   3.584   8.850
 6038POPC   GL236542  14.314   3.537   8.850
 6038POPC   C1A36543  14.438   3.567   8.550
 6038POPC   D2A36544  14.367   3.494   8.250
 6038POPC   C3A36545  14.362   3.529   7.950
 6038POPC   C4A36546  14.388   3.524   7.650
 6038POPC   C1B36547  14.181   3.515   8.550
 6038POPC   C2B36548  14.125   3.480   8.250
 6038POPC   C3B36549  14.201   3.503   7.950
 6038POPC   C4B36550  14.148   3.466   7.650
 6039POPC   NC336551  19.843  43.140   9.450
 6039POPC   PO436552  19.825  43.064   9.150
 6039POPC   GL136553  19.826  43.127   8.850
 6039POPC   GL236554  19.761  43.270   8.850
 6039POPC   C1A36555  19.813  43.115   8.550
 6039POPC   D2A36556  19.792  43.114   8.250
 6039POPC   C3A36557  19.823  43.090   7.950
 6039POPC   C4A36558  19.813  43.067   7.650
 6039POPC   C1B36559  19.749  43.375   8.550
 6039POPC   C2B36560  19.710  43.371   8.250
 6039POPC   C3B36561  19.709  43.330   7.950
 6039POPC   C4B36562  19.730  43.337   7.650
 6040POPC   NC336563   7.454  27.643   9.450
 6040POPC   PO436564   7.413  27.632   9.150
 6040POPC   GL136565   7.414  27.561   8.850
 6040POPC   GL236566   7.345  27.725   8.850
 6040POPC   C1A36567   7.406  27.565   8.550
 6040POPC   D2A36568   7.407  27.610   8.250
 6040POPC   C3A36569   7.427  27.555   7.950
 6040POPC   C4A36570   7.470  27.597   7.650
 6040POPC   C1B36571   7.279  27.829   8.550
 6040POPC   C2B36572   7.278  27.857   8.250
 6040POPC   C3B36573   7.305  27.851   7.950
 6040POPC   C4B36574   7.279  27.855   7.650
 6041POPC   NC336575  36.151   4.304   9.450
 6041POPC   PO436576  36.145   4.310   9.150
 6041POPC   GL136577  36.160   4.357   8.850
 6041POPC   GL236578  36.215   4.257   8.850
 6041POPC   C1A36579  36.176   4.272   8.550
 6041POPC   D2A36580  36.172   4.296   8.250
 6041POPC   C3A36581  36.108   4.280   7.950
 6041POPC   C4A36582  36.101   4.293   7.650
 6041POPC   C1B36583  36.358   4.213   8.550
 6041POPC   C2B36584  36.347   4.209   8.250
 6041POPC   C3B36585  36.389   4.217   7.950
 6041POPC   C4B36586  36.371   4.216   7.650
 6042POPC   NC336587   7.418  11.333   9.450
 6042POPC   PO436588   7.407  11.299   9.150
 6042POPC   GL136589   7.392  11.254   8.850
 6042POPC   GL236590   7.418  11.180   8.850
 6042POPC   C1A36591   7.395  11.348   8.550
 6042POPC   D2A36592   7.405  11.282   8.250
 6042POPC   C3A36593   7.415  11.280   7.950
 6042POPC   C4A36594   7.410  11.260   7.650
 6042POPC   C1B36595   7.515  11.086   8.550
 6042POPC   C2B36596   7.497  11.054   8.250
 6042POPC   C3B36597   7.509  11.036   7.950
 6042POPC   C4B36598   7.512  11.079   7.650
 6043POPC   NC336599  28.367  41.553   9.450
 6043POPC   PO436600  28.400  41.573   9.150
 6043POPC   GL136601  28.339  41.523   8.850
 6043POPC   GL236602  28.459  41.543   8.850
 6043POPC   C1A36603  28.389  41.553   8.550
 6043POPC   D2A36604  28.400  41.526   8.250
 6043POPC   C3A36605  28.404  41.572   7.950
 6043POPC   C4A36606  28.323  41.533   7.650
 6043POPC   C1B36607  28.594  41.519   8.550
 6043POPC   C2B36608  28.640  41.550   8.250
 6043POPC   C3B36609  28.645  41.542   7.950
 6043POPC   C4B36610  28.665  41.546   7.650
 6044POPC   NC336611  15.137  19.877   9.450
 6044POPC   PO436612  15.134  19.814   9.150
 6044POPC   GL136613  15.131  19.823   8.850
 6044POPC   GL236614  15.339  19.842   8.850
 6044POPC   C1A36615  15.172  19.816   8.550
 6044POPC   D2A36616  15.159  19.847   8.250
 6044POPC   C3A36617  15.152  19.861   7.950
 6044POPC   C4A36618  15.141  19.789   7.650
 6044POPC   C1B36619  15.389  19.814   8.550
 6044POPC   C2B36620  15.466  19.769   8.250
 6044POPC   C3B36621  15.464  19.752   7.950
 6044POPC   C4B36622  15.455  19.779   7.650
 6045POPC   NC336623  31.517  31.485   9.450
 6045POPC   PO436624  31.428  31.437   9.150
 6045POPC   GL136625  31.510  31.500   8.850
 6045POPC   GL236626  31.315  31.491   8.850
 6045POPC   C1A36627  31.431  31.479   8.550
 6045POPC   D2A36628  31.440  31.506   8.250
 6045POPC   C3A36629  31.452  31.457   7.950
 6045POPC   C4A36630  31.467  31.485   7.650
 6045POPC   C1B36631  31.253  31.468   8.550
 6045POPC   C2B36632  31.208  31.480   8.250
 6045POPC   C3B36633  31.257  31.464   7.950
 6045POPC   C4B36634  31.187  31.468   7.650
 6046POPC   NC336635  31.502  39.978   9.450
 6046POPC   PO436636  31.483  39.971   9.150
 6046POPC   GL136637  31.445  39.979   8.850
 6046POPC   GL236638  31.303  40.044   8.850
 6046POPC   C1A36639  31.443  40.026   8.550
 6046POPC   D2A36640  31.455  40.020   8.250
 6046POPC   C3A36641  31.520  40.014   7.950
 6046POPC   C4A36642  31.508  39.964   7.650
 6046POPC   C1B36643  31.232  40.000   8.550
 6046POPC   C2B36644  31.226  40.046   8.250
 6046POPC   C3B36645  31.267  40.047   7.950
 6046POPC   C4B36646  31.217  39.971   7.650
 6047POPC   NC336647  37.664  28.321   9.450
 6047POPC   PO436648  37.670  28.347   9.150
 6047POPC   GL136649  37.673  28.410   8.850
 6047POPC   GL236650  37.605  28.363   8.850
 6047POPC   C1A36651  37.649  28.322   8.550
 6047POPC   D2A36652  37.654  28.397   8.250
 6047POPC   C3A36653  37.678  28.403   7.950
 6047POPC   C4A36654  37.714  28.346   7.650
 6047POPC   C1B36655  37.402  28.230   8.550
 6047POPC   C2B36656  37.453  28.318   8.250
 6047POPC   C3B36657  37.484  28.288   7.950
 6047POPC   C4B36658  37.458  28.318   7.650
 6048POPC   NC336659   1.964   4.286   9.450
 6048POPC   PO436660   1.957   4.360   9.150
 6048POPC   GL136661   2.009   4.334   8.850
 6048POPC   GL236662   2.085   4.195   8.850
 6048POPC   C1A36663   1.954   4.291   8.550
 6048POPC   D2A36664   1.971   4.350   8.250
 6048POPC   C3A36665   1.989   4.269   7.950
 6048POPC   C4A36666   2.001   4.361   7.650
 6048POPC   C1B36667   2.144   4.118   8.550
 6048POPC   C2B36668   2.138   4.083   8.250
 6048POPC   C3B36669   2.127   4.135   7.950
 6048POPC   C4B36670   2.193   4.080   7.650
 6049POPC   NC336671  18.295   8.933   9.450
 6049POPC   PO436672  18.238   8.951   9.150
 6049POPC   GL136673  18.254   8.986   8.850
 6049POPC   GL236674  18.233   8.883   8.850
 6049POPC   C1A36675  18.293   8.937   8.550
 6049POPC   D2A36676  18.276   8.979   8.250
 6049POPC   C3A36677  18.236   8.984   7.950
 6049POPC   C4A36678  18.296   8.967   7.650
 6049POPC   C1B36679  18.203   8.780   8.550
 6049POPC   C2B36680  18.156   8.742   8.250
 6049POPC   C3B36681  18.193   8.743   7.950
 6049POPC   C4B36682  18.226   8.702   7.650
 6050POPC   NC336683   5.104  19.803   9.450
 6050POPC   PO436684   5.109  19.861   9.150
 6050POPC   GL136685   5.061  19.788   8.850
 6050POPC   GL236686   5.008  19.773   8.850
 6050POPC   C1A36687   5.099  19.849   8.550
 6050POPC   D2A36688   5.098  19.820   8.250
 6050POPC   C3A36689   5.097  19.793   7.950
 6050POPC   C4A36690   5.100  19.850   7.650
 6050POPC   C1B36691   4.856  19.720   8.550
 6050POPC   C2B36692   4.902  19.728   8.250
 6050POPC   C3B36693   4.829  19.756   7.950
 6050POPC   C4B36694   4.831  19.781   7.650
 6051POPC   NC336695  39.959   5.822   9.450
 6051POPC   PO436696  40.008   5.837   9.150
 6051POPC   GL136697  39.970   5.874   8.850
 6051POPC   GL236698  39.888   5.831   8.850
 6051POPC   C1A36699  40.017   5.859   8.550
 6051POPC   D2A36700  39.981   5.843   8.250
 6051POPC   C3A36701  40.038   5.841   7.950
 6051POPC   C4A36702  40.054   5.917   7.650
 6051POPC   C1B36703  39.842   5.775   8.550
 6051POPC   C2B36704  39.791   5.739   8.250
 6051POPC   C3B36705  39.842   5.712   7.950
 6051POPC   C4B36706  39.788   5.777   7.650
 6052POPC   NC336707   3.535  26.053   9.450
 6052POPC   PO436708   3.528  26.064   9.150
 6052POPC   GL136709   3.540  26.032   8.850
 6052POPC   GL236710   3.514  25.960   8.850
 6052POPC   C1A36711   3.584  26.069   8.550
 6052POPC   D2A36712   3.519  26.025   8.250
 6052POPC   C3A36713   3.514  26.001   7.950
 6052POPC   C4A36714   3.497  26.003   7.650
 6052POPC   C1B36715   3.458  25.782   8.550
 6052POPC   C2B36716   3.479  25.857   8.250
 6052POPC   C3B36717   3.471  25.800   7.950
 6052POPC   C4B36718   3.408  25.849   7.650
 6053POPC   NC336719  13.587  15.183   9.450
 6053POPC   PO436720  13.641  15.189   9.150
 6053POPC   GL136721  13.617  15.161   8.850
 6053POPC   GL236722  13.615  15.071   8.850
 6053POPC   C1A36723  13.605  15.212   8.550
 6053POPC   D2A36724  13.630  15.206   8.250
 6053POPC   C3A36725  13.601  15.192   7.950
 6053POPC   C4A36726  13.589  15.195   7.650
 6053POPC   C1B36727  13.632  14.932   8.550
 6053POPC   C2B36728  13.600  14.978   8.250
 6053POPC   C3B36729  13.607  14.972   7.950
 6053POPC   C4B36730  13.610  14.972   7.650
 6054POPC   NC336731  43.894  29.186   9.450
 6054POPC   PO436732  43.895  29.164   9.150
 6054POPC   GL136733  43.926  29.183   8.850
 6054POPC   GL236734  43.720  29.177   8.850
 6054POPC   C1A36735  43.933  29.105   8.550
 6054POPC   D2A36736  43.870  29.155   8.250
 6054POPC   C3A36737  43.871  29.139   7.950
 6054POPC   C4A36738  43.906  29.140   7.650
 6054POPC   C1B36739  43.663  29.116   8.550
 6054POPC   C2B36740  43.630  29.133   8.250
 6054POPC   C3B36741  43.646  29.095   7.950
 6054POPC   C4B36742  43.655  29.157   7.650
 6055POPC   NC336743  26.836  42.366   9.450
 6055POPC   PO436744  26.842  42.369   9.150
 6055POPC   GL136745  26.769  42.309   8.850
 6055POPC   GL236746  26.842  42.476   8.850
 6055POPC   C1A36747  26.835  42.373   8.550
 6055POPC   D2A36748  26.830  42.353   8.250
 6055POPC   C3A36749  26.800  42.379   7.950
 6055POPC   C4A36750  26.831  42.311   7.650
 6055POPC   C1B36751  26.879  42.605   8.550
 6055POPC   C2B36752  26.880  42.537   8.250
 6055POPC   C3B36753  26.866  42.539   7.950
 6055POPC   C4B36754  26.875  42.559   7.650
 6056POPC   NC336755  36.130   9.759   9.450
 6056POPC   PO436756  36.170   9.736   9.150
 6056POPC   GL136757  36.087   9.700   8.850
 6056POPC   GL236758  36.241   9.811   8.850
 6056POPC   C1A36759  36.156   9.797   8.550
 6056POPC   D2A36760  36.080   9.750   8.250
 6056POPC   C3A36761  36.088   9.766   7.950
 6056POPC   C4A36762  36.114   9.763   7.650
 6056POPC   C1B36763  36.395   9.851   8.550
 6056POPC   C2B36764  36.332   9.868   8.250
 6056POPC   C3B36765  36.326   9.875   7.950
 6056POPC   C4B36766  36.354   9.858   7.650
 6057POPC   NC336767  16.682  43.918   9.450
 6057POPC   PO436768  16.711  43.903   9.150
 6057POPC   GL136769  16.684  43.888   8.850
 6057POPC   GL236770  16.764  43.770   8.850
 6057POPC   C1A36771  16.729  43.897   8.550
 6057POPC   D2A36772  16.706  43.893   8.250
 6057POPC   C3A36773  16.768  43.929   7.950
 6057POPC   C4A36774  16.764  43.842   7.650
 6057POPC   C1B36775  16.696  43.657   8.550
 6057POPC   C2B36776  16.700  43.666   8.250
 6057POPC   C3B36777  16.656  43.657   7.950
 6057POPC   C4B36778  16.666  43.659   7.650
 6058POPC   NC336779  17.536  27.575   9.450
 6058POPC   PO436780  17.468  27.592   9.150
 6058POPC   GL136781  17.519  27.591   8.850
 6058POPC   GL236782  17.402  27.558   8.850
 6058POPC   C1A36783  17.524  27.564   8.550
 6058POPC   D2A36784  17.536  27.560   8.250
 6058POPC   C3A36785  17.529  27.597   7.950
 6058POPC   C4A36786  17.508  27.604   7.650
 6058POPC   C1B36787  17.312  27.527   8.550
 6058POPC   C2B36788  17.242  27.495   8.250
 6058POPC   C3B36789  17.242  27.525   7.950
 6058POPC   C4B36790  17.282  27.511   7.650
 6059POPC   NC336791   2.803  42.298   9.450
 6059POPC   PO436792   2.724  42.337   9.150
 6059POPC   GL136793   2.785  42.365   8.850
 6059POPC   GL236794   2.780  42.242   8.850
 6059POPC   C1A36795   2.802  42.356   8.550
 6059POPC   D2A36796   2.790  42.358   8.250
 6059POPC   C3A36797   2.741  42.372   7.950
 6059POPC   C4A36798   2.811  42.355   7.650
 6059POPC   C1B36799   2.805  42.052   8.550
 6059POPC   C2B36800   2.787  42.133   8.250
 6059POPC   C3B36801   2.852  42.111   7.950
 6059POPC   C4B36802   2.863  42.098   7.650
 6060POPC   NC336803  27.590   5.865   9.450
 6060POPC   PO436804  27.570   5.903   9.150
 6060POPC   GL136805  27.592   5.835   8.850
 6060POPC   GL236806  27.565   5.970   8.850
 6060POPC   C1A36807  27.548   5.895   8.550
 6060POPC   D2A36808  27.581   5.887   8.250
 6060POPC   C3A36809  27.591   5.901   7.950
 6060POPC   C4A36810  27.548   5.912   7.650
 6060POPC   C1B36811  27.535   6.153   8.550
 6060POPC   C2B36812  27.558   6.162   8.250
 6060POPC   C3B36813  27.577   6.123   7.950
 6060POPC   C4B36814  27.597   6.082   7.650
 6061POPC   NC336815  13.585  11.322   9.450
 6061POPC   PO436816  13.604  11.265   9.150
 6061POPC   GL136817  13.611  11.279   8.850
 6061POPC   GL236818  13.543  11.397   8.850
 6061POPC   C1A36819  13.648  11.276   8.550
 6061POPC   D2A36820  13.674  11.290   8.250
 6061POPC   C3A36821  13.647  11.327   7.950
 6061POPC   C4A36822  13.677  11.292   7.650
 6061POPC   C1B36823  13.542  11.557   8.550
 6061POPC   C2B36824  13.492  11.571   8.250
 6061POPC   C3B36825  13.528  11.533   7.950
 6061POPC   C4B36826  13.516  11.483   7.650
 6062POPC   NC336827  28.416  13.600   9.450
 6062POPC   PO436828  28.358  13.656   9.150
 6062POPC   GL136829  28.365  13.592   8.850
 6062POPC   GL236830  28.218  13.613   8.850
 6062POPC   C1A36831  28.327  13.652   8.550
 6062POPC   D2A36832  28.335  13.605   8.250
 6062POPC   C3A36833  28.383  13.626   7.950
 6062POPC   C4A36834  28.403  13.666   7.650
 6062POPC   C1B36835  28.120  13.488   8.550
 6062POPC   C2B36836  28.120  13.547   8.250
 6062POPC   C3B36837  28.107  13.523   7.950
 6062POPC   C4B36838  28.103  13.561   7.650
 6063POPC   NC336839  17.486   3.510   9.450
 6063POPC   PO436840  17.530   3.569   9.150
 6063POPC   GL136841  17.513   3.589   8.850
 6063POPC   GL236842  17.439   3.374   8.850
 6063POPC   C1A36843  17.537   3.501   8.550
 6063POPC   D2A36844  17.510   3.537   8.250
 6063POPC   C3A36845  17.512   3.545   7.950
 6063POPC   C4A36846  17.487   3.588   7.650
 6063POPC   C1B36847  17.402   3.337   8.550
 6063POPC   C2B36848  17.434   3.330   8.250
 6063POPC   C3B36849  17.412   3.328   7.950
 6063POPC   C4B36850  17.445   3.336   7.650
 6064POPC   NC336851   9.723  13.593   9.450
 6064POPC   PO436852   9.790  13.650   9.150
 6064POPC   GL136853   9.763  13.632   8.850
 6064POPC   GL236854   9.828  13.701   8.850
 6064POPC   C1A36855   9.758  13.592   8.550
 6064POPC   D2A36856   9.707  13.654   8.250
 6064POPC   C3A36857   9.702  13.637   7.950
 6064POPC   C4A36858   9.754  13.676   7.650
 6064POPC   C1B36859   9.798  13.889   8.550
 6064POPC   C2B36860   9.834  13.865   8.250
 6064POPC   C3B36861   9.797  13.892   7.950
 6064POPC   C4B36862   9.876  13.877   7.650
 6065POPC   NC336863  39.248  44.651   9.450
 6065POPC   PO436864  39.252  44.694   9.150
 6065POPC   GL136865  39.234  44.667   8.850
 6065POPC   GL236866  39.156  44.571   8.850
 6065POPC   C1A36867  39.274  44.663   8.550
 6065POPC   D2A36868  39.262  44.655   8.250
 6065POPC   C3A36869  39.273  44.701   7.950
 6065POPC   C4A36870  39.207  44.620   7.650
 6065POPC   C1B36871  38.996  44.597   8.550
 6065POPC   C2B36872  38.989  44.506   8.250
 6065POPC   C3B36873  39.012  44.562   7.950
 6065POPC   C4B36874  39.024  44.567   7.650
 6066POPC   NC336875  37.642  15.991   9.450
 6066POPC   PO436876  37.705  15.986   9.150
 6066POPC   GL136877  37.712  15.981   8.850
 6066POPC   GL236878  37.745  16.095   8.850
 6066POPC   C1A36879  37.711  15.932   8.550
 6066POPC   D2A36880  37.701  15.989   8.250
 6066POPC   C3A36881  37.698  15.962   7.950
 6066POPC   C4A36882  37.701  15.988   7.650
 6066POPC   C1B36883  37.755  16.215   8.550
 6066POPC   C2B36884  37.744  16.228   8.250
 6066POPC   C3B36885  37.766  16.229   7.950
 6066POPC   C4B36886  37.770  16.243   7.650
 6067POPC   NC336887  38.453  13.659   9.450
 6067POPC   PO436888  38.417  13.610   9.150
 6067POPC   GL136889  38.485  13.645   8.850
 6067POPC   GL236890  38.394  13.485   8.850
 6067POPC   C1A36891  38.469  13.603   8.550
 6067POPC   D2A36892  38.465  13.586   8.250
 6067POPC   C3A36893  38.441  13.614   7.950
 6067POPC   C4A36894  38.416  13.641   7.650
 6067POPC   C1B36895  38.344  13.390   8.550
 6067POPC   C2B36896  38.267  13.468   8.250
 6067POPC   C3B36897  38.265  13.407   7.950
 6067POPC   C4B36898  38.269  13.479   7.650
 6068POPC   NC336899   8.176  29.110   9.450
 6068POPC   PO436900   8.218  29.138   9.150
 6068POPC   GL136901   8.235  29.154   8.850
 6068POPC   GL236902   8.354  29.152   8.850
 6068POPC   C1A36903   8.234  29.178   8.550
 6068POPC   D2A36904   8.176  29.110   8.250
 6068POPC   C3A36905   8.154  29.135   7.950
 6068POPC   C4A36906   8.243  29.155   7.650
 6068POPC   C1B36907   8.425  29.183   8.550
 6068POPC   C2B36908   8.441  29.254   8.250
 6068POPC   C3B36909   8.435  29.194   7.950
 6068POPC   C4B36910   8.417  29.196   7.650
 6069POPC   NC336911  37.663   8.188   9.450
 6069POPC   PO436912  37.632   8.190   9.150
 6069POPC   GL136913  37.649   8.175   8.850
 6069POPC   GL236914  37.730   8.293   8.850
 6069POPC   C1A36915  37.677   8.172   8.550
 6069POPC   D2A36916  37.709   8.197   8.250
 6069POPC   C3A36917  37.642   8.237   7.950
 6069POPC   C4A36918  37.677   8.214   7.650
 6069POPC   C1B36919  37.860   8.401   8.550
 6069POPC   C2B36920  37.840   8.397   8.250
 6069POPC   C3B36921  37.899   8.403   7.950
 6069POPC   C4B36922  37.866   8.376   7.650
 6070POPC   NC336923  17.475   9.732   9.450
 6070POPC   PO436924  17.513   9.797   9.150
 6070POPC   GL136925  17.471   9.712   8.850
 6070POPC   GL236926  17.520   9.642   8.850
 6070POPC   C1A36927  17.550   9.761   8.550
 6070POPC   D2A36928  17.486   9.757   8.250
 6070POPC   C3A36929  17.488   9.735   7.950
 6070POPC   C4A36930  17.512   9.792   7.650
 6070POPC   C1B36931  17.601   9.498   8.550
 6070POPC   C2B36932  17.563   9.469   8.250
 6070POPC   C3B36933  17.530   9.465   7.950
 6070POPC   C4B36934  17.547   9.522   7.650
 6071POPC   NC336935  14.399  25.217   9.450
 6071POPC   PO436936  14.404  25.262   9.150
 6071POPC   GL136937  14.392  25.258   8.850
 6071POPC   GL236938  14.444  25.164   8.850
 6071POPC   C1A36939  14.393  25.279   8.550
 6071POPC   D2A36940  14.453  25.281   8.250
 6071POPC   C3A36941  14.383  25.287   7.950
 6071POPC   C4A36942  14.378  25.253   7.650
 6071POPC   C1B36943  14.399  24.991   8.550
 6071POPC   C2B36944  14.395  25.013   8.250
 6071POPC   C3B36945  14.377  24.988   7.950
 6071POPC   C4B36946  14.396  25.030   7.650
 6072POPC   NC336947  13.592  35.343   9.450
 6072POPC   PO436948  13.598  35.360   9.150
 6072POPC   GL136949  13.653  35.391   8.850
 6072POPC   GL236950  13.544  35.442   8.850
 6072POPC   C1A36951  13.638  35.309   8.550
 6072POPC   D2A36952  13.675  35.382   8.250
 6072POPC   C3A36953  13.617  35.331   7.950
 6072POPC   C4A36954  13.630  35.401   7.650
 6072POPC   C1B36955  13.516  35.572   8.550
 6072POPC   C2B36956  13.499  35.592   8.250
 6072POPC   C3B36957  13.445  35.570   7.950
 6072POPC   C4B36958  13.457  35.511   7.650
 6073POPC   NC336959  33.773   0.426   9.450
 6073POPC   PO436960  33.803   0.420   9.150
 6073POPC   GL136961  33.780   0.474   8.850
 6073POPC   GL236962  33.891   0.349   8.850
 6073POPC   C1A36963  33.830   0.454   8.550
 6073POPC   D2A36964  33.844   0.418   8.250
 6073POPC   C3A36965  33.786   0.424   7.950
 6073POPC   C4A36966  33.824   0.394   7.650
 6073POPC   C1B36967  33.932   0.247   8.550
 6073POPC   C2B36968  33.968   0.233   8.250
 6073POPC   C3B36969  33.918   0.224   7.950
 6073POPC   C4B36970  33.988   0.243   7.650
 6074POPC   NC336971  24.471  35.367   9.450
 6074POPC   PO436972  24.485  35.367   9.150
 6074POPC   GL136973  24.530  35.310   8.850
 6074POPC   GL236974  24.530  35.306   8.850
 6074POPC   C1A36975  24.530  35.382   8.550
 6074POPC   D2A36976  24.442  35.385   8.250
 6074POPC   C3A36977  24.448  35.391   7.950
 6074POPC   C4A36978  24.531  35.351   7.650
 6074POPC   C1B36979  24.690  35.214   8.550
 6074POPC   C2B36980  24.683  35.202   8.250
 6074POPC   C3B36981  24.644  35.158   7.950
 6074POPC   C4B36982  24.701  35.209   7.650
 6075POPC   NC336983  23.685   1.205   9.450
 6075POPC   PO436984  23.722   1.192   9.150
 6075POPC   GL136985  23.762   1.257   8.850
 6075POPC   GL236986  23.814   1.220   8.850
 6075POPC   C1A36987  23.664   1.172   8.550
 6075POPC   D2A36988  23.672   1.177   8.250
 6075POPC   C3A36989  23.702   1.250   7.950
 6075POPC   C4A36990  23.734   1.248   7.650
 6075POPC   C1B36991  23.944   1.166   8.550
 6075POPC   C2B36992  23.917   1.205   8.250
 6075POPC   C3B36993  23.944   1.236   7.950
 6075POPC   C4B36994  23.928   1.182   7.650
 6076POPC   NC336995  39.275   4.358   9.450
 6076POPC   PO436996  39.197   4.290   9.150
 6076POPC   GL136997  39.204   4.349   8.850
 6076POPC   GL236998  39.361   4.289   8.850
 6076POPC   C1A36999  39.280   4.353   8.550
 6076POPC   D2A37000  39.271   4.339   8.250
 6076POPC   C3A37001  39.238   4.272   7.950
 6076POPC   C4A37002  39.215   4.342   7.650
 6076POPC   C1B37003  39.454   4.232   8.550
 6076POPC   C2B37004  39.424   4.181   8.250
 6076POPC   C3B37005  39.478   4.143   7.950
 6076POPC   C4B37006  39.400   4.223   7.650
 6077POPC   NC337007  20.642   2.023   9.450
 6077POPC   PO437008  20.657   2.024   9.150
 6077POPC   GL137009  20.592   1.981   8.850
 6077POPC   GL237010  20.695   1.942   8.850
 6077POPC   C1A37011  20.619   2.021   8.550
 6077POPC   D2A37012  20.582   2.029   8.250
 6077POPC   C3A37013  20.598   2.032   7.950
 6077POPC   C4A37014  20.646   2.037   7.650
 6077POPC   C1B37015  20.860   1.912   8.550
 6077POPC   C2B37016  20.844   1.869   8.250
 6077POPC   C3B37017  20.885   1.896   7.950
 6077POPC   C4B37018  20.875   1.889   7.650
 6078POPC   NC337019  37.675  33.768   9.450
 6078POPC   PO437020  37.661  33.791   9.150
 6078POPC   GL137021  37.636  33.818   8.850
 6078POPC   GL237022  37.811  33.909   8.850
 6078POPC   C1A37023  37.672  33.776   8.550
 6078POPC   D2A37024  37.637  33.839   8.250
 6078POPC   C3A37025  37.704  33.779   7.950
 6078POPC   C4A37026  37.661  33.831   7.650
 6078POPC   C1B37027  37.856  33.972   8.550
 6078POPC   C2B37028  37.851  33.981   8.250
 6078POPC   C3B37029  37.843  33.915   7.950
 6078POPC   C4B37030  37.897  33.992   7.650
 6079POPC   NC337031  39.971   3.509   9.450
 6079POPC   PO437032  40.000   3.569   9.150
 6079POPC   GL137033  39.991   3.506   8.850
 6079POPC   GL237034  40.115   3.418   8.850
 6079POPC   C1A37035  40.026   3.574   8.550
 6079POPC   D2A37036  39.975   3.522   8.250
 6079POPC   C3A37037  40.002   3.503   7.950
 6079POPC   C4A37038  39.979   3.589   7.650
 6079POPC   C1B37039  40.166   3.355   8.550
 6079POPC   C2B37040  40.179   3.318   8.250
 6079POPC   C3B37041  40.130   3.311   7.950
 6079POPC   C4B37042  40.193   3.383   7.650
 6080POPC   NC337043  36.880  12.833   9.450
 6080POPC   PO437044  36.909  12.829   9.150
 6080POPC   GL137045  36.874  12.806   8.850
 6080POPC   GL237046  36.869  12.725   8.850
 6080POPC   C1A37047  36.909  12.804   8.550
 6080POPC   D2A37048  36.910  12.897   8.250
 6080POPC   C3A37049  36.898  12.862   7.950
 6080POPC   C4A37050  36.914  12.866   7.650
 6080POPC   C1B37051  36.783  12.612   8.550
 6080POPC   C2B37052  36.748  12.629   8.250
 6080POPC   C3B37053  36.716  12.634   7.950
 6080POPC   C4B37054  36.703  12.610   7.650
 6081POPC   NC337055  18.295  39.253   9.450
 6081POPC   PO437056  18.257  39.247   9.150
 6081POPC   GL137057  18.292  39.253   8.850
 6081POPC   GL237058  18.264  39.158   8.850
 6081POPC   C1A37059  18.322  39.269   8.550
 6081POPC   D2A37060  18.243  39.227   8.250
 6081POPC   C3A37061  18.246  39.208   7.950
 6081POPC   C4A37062  18.321  39.261   7.650
 6081POPC   C1B37063  18.204  39.043   8.550
 6081POPC   C2B37064  18.183  38.985   8.250
 6081POPC   C3B37065  18.203  38.988   7.950
 6081POPC   C4B37066  18.166  39.052   7.650
 6082POPC   NC337067   8.948  14.392   9.450
 6082POPC   PO437068   8.997  14.437   9.150
 6082POPC   GL137069   8.943  14.373   8.850
 6082POPC   GL237070   9.078  14.486   8.850
 6082POPC   C1A37071   8.955  14.357   8.550
 6082POPC   D2A37072   8.952  14.434   8.250
 6082POPC   C3A37073   8.932  14.391   7.950
 6082POPC   C4A37074   8.983  14.373   7.650
 6082POPC   C1B37075   9.159  14.448   8.550
 6082POPC   C2B37076   9.198  14.514   8.250
 6082POPC   C3B37077   9.227  14.461   7.950
 6082POPC   C4B37078   9.237  14.511   7.650
 6083POPC   NC337079  43.852  28.354   9.450
 6083POPC   PO437080  43.898  28.376   9.150
 6083POPC   GL137081  43.931  28.358   8.850
 6083POPC   GL237082  43.964  28.465   8.850
 6083POPC   C1A37083  43.879  28.343   8.550
 6083POPC   D2A37084  43.861  28.332   8.250
 6083POPC   C3A37085  43.842  28.400   7.950
 6083POPC   C4A37086  43.863  28.376   7.650
 6083POPC   C1B37087  44.035  28.554   8.550
 6083POPC   C2B37088  44.051  28.588   8.250
 6083POPC   C3B37089  44.059  28.534   7.950
 6083POPC   C4B37090  44.029  28.501   7.650
 6084POPC   NC337091  26.041  10.532   9.450
 6084POPC   PO437092  26.085  10.493   9.150
 6084POPC   GL137093  26.080  10.535   8.850
 6084POPC   GL237094  26.162  10.418   8.850
 6084POPC   C1A37095  26.053  10.545   8.550
 6084POPC   D2A37096  26.037  10.479   8.250
 6084POPC   C3A37097  26.005  10.552   7.950
 6084POPC   C4A37098  26.020  10.530   7.650
 6084POPC   C1B37099  26.193  10.382   8.550
 6084POPC   C2B37100  26.162  10.286   8.250
 6084POPC   C3B37101  26.237  10.365   7.950
 6084POPC   C4B37102  26.198  10.327   7.650
 6085POPC   NC337103  25.997  41.536   9.450
 6085POPC   PO437104  26.021  41.510   9.150
 6085POPC   GL137105  26.059  41.591   8.850
 6085POPC   GL237106  25.996  41.641   8.850
 6085POPC   C1A37107  26.033  41.530   8.550
 6085POPC   D2A37108  26.017  41.525   8.250
 6085POPC   C3A37109  26.023  41.576   7.950
 6085POPC   C4A37110  26.075  41.594   7.650
 6085POPC   C1B37111  25.992  41.778   8.550
 6085POPC   C2B37112  25.969  41.767   8.250
 6085POPC   C3B37113  25.999  41.783   7.950
 6085POPC   C4B37114  25.971  41.801   7.650
 6086POPC   NC337115   7.457  29.115   9.450
 6086POPC   PO437116   7.374  29.138   9.150
 6086POPC   GL137117   7.437  29.148   8.850
 6086POPC   GL237118   7.358  29.308   8.850
 6086POPC   C1A37119   7.396  29.103   8.550
 6086POPC   D2A37120   7.444  29.193   8.250
 6086POPC   C3A37121   7.444  29.155   7.950
 6086POPC   C4A37122   7.407  29.142   7.650
 6086POPC   C1B37123   7.378  29.434   8.550
 6086POPC   C2B37124   7.372  29.362   8.250
 6086POPC   C3B37125   7.355  29.425   7.950
 6086POPC   C4B37126   7.433  29.441   7.650
 6087POPC   NC337127  36.149  22.889   9.450
 6087POPC   PO437128  36.124  22.902   9.150
 6087POPC   GL137129  36.081  22.981   8.850
 6087POPC   GL237130  35.965  22.884   8.850
 6087POPC   C1A37131  36.103  22.939   8.550
 6087POPC   D2A37132  36.163  22.904   8.250
 6087POPC   C3A37133  36.100  22.930   7.950
 6087POPC   C4A37134  36.081  22.955   7.650
 6087POPC   C1B37135  35.914  22.919   8.550
 6087POPC   C2B37136  35.876  22.915   8.250
 6087POPC   C3B37137  35.916  22.933   7.950
 6087POPC   C4B37138  35.880  22.963   7.650
 6088POPC   NC337139  24.495  28.334   9.450
 6088POPC   PO437140  24.533  28.402   9.150
 6088POPC   GL137141  24.504  28.366   8.850
 6088POPC   GL237142  24.370  28.309   8.850
 6088POPC   C1A37143  24.487  28.330   8.550
 6088POPC   D2A37144  24.511  28.366   8.250
 6088POPC   C3A37145  24.533  28.388   7.950
 6088POPC   C4A37146  24.483  28.399   7.650
 6088POPC   C1B37147  24.304  28.286   8.550
 6088POPC   C2B37148  24.275  28.306   8.250
 6088POPC   C3B37149  24.227  28.259   7.950
 6088POPC   C4B37150  24.257  28.284   7.650
 6089POPC   NC337151  39.983  19.817   9.450
 6089POPC   PO437152  39.969  19.829   9.150
 6089POPC   GL137153  40.010  19.795   8.850
 6089POPC   GL237154  39.846  19.781   8.850
 6089POPC   C1A37155  40.037  19.817   8.550
 6089POPC   D2A37156  39.992  19.869   8.250
 6089POPC   C3A37157  40.032  19.871   7.950
 6089POPC   C4A37158  40.002  19.868   7.650
 6089POPC   C1B37159  39.809  19.776   8.550
 6089POPC   C2B37160  39.758  19.760   8.250
 6089POPC   C3B37161  39.758  19.812   7.950
 6089POPC   C4B37162  39.779  19.730   7.650
 6090POPC   NC337163  25.291  30.655   9.450
 6090POPC   PO437164  25.230  30.689   9.150
 6090POPC   GL137165  25.253  30.689   8.850
 6090POPC   GL237166  25.302  30.842   8.850
 6090POPC   C1A37167  25.244  30.685   8.550
 6090POPC   D2A37168  25.288  30.722   8.250
 6090POPC   C3A37169  25.275  30.650   7.950
 6090POPC   C4A37170  25.216  30.747   7.650
 6090POPC   C1B37171  25.386  30.918   8.550
 6090POPC   C2B37172  25.399  30.935   8.250
 6090POPC   C3B37173  25.355  30.935   7.950
 6090POPC   C4B37174  25.391  30.947   7.650
 6091POPC   NC337175  36.941  16.686   9.450
 6091POPC   PO437176  36.899  16.694   9.150
 6091POPC   GL137177  36.859  16.775   8.850
 6091POPC   GL237178  36.914  16.648   8.850
 6091POPC   C1A37179  36.899  16.696   8.550
 6091POPC   D2A37180  36.935  16.738   8.250
 6091POPC   C3A37181  36.938  16.765   7.950
 6091POPC   C4A37182  36.864  16.746   7.650
 6091POPC   C1B37183  36.901  16.474   8.550
 6091POPC   C2B37184  36.907  16.533   8.250
 6091POPC   C3B37185  36.885  16.459   7.950
 6091POPC   C4B37186  36.910  16.492   7.650
 6092POPC   NC337187  34.562  16.723   9.450
 6092POPC   PO437188  34.543  16.715   9.150
 6092POPC   GL137189  34.564  16.701   8.850
 6092POPC   GL237190  34.480  16.721   8.850
 6092POPC   C1A37191  34.557  16.687   8.550
 6092POPC   D2A37192  34.580  16.694   8.250
 6092POPC   C3A37193  34.621  16.728   7.950
 6092POPC   C4A37194  34.574  16.717   7.650
 6092POPC   C1B37195  34.283  16.669   8.550
 6092POPC   C2B37196  34.327  16.657   8.250
 6092POPC   C3B37197  34.358  16.669   7.950
 6092POPC   C4B37198  34.358  16.669   7.650
 6093POPC   NC337199  39.988   9.020   9.450
 6093POPC   PO437200  40.029   8.965   9.150
 6093POPC   GL137201  39.992   9.022   8.850
 6093POPC   GL237202  39.924   9.008   8.850
 6093POPC   C1A37203  39.986   9.006   8.550
 6093POPC   D2A37204  39.989   9.004   8.250
 6093POPC   C3A37205  39.993   8.998   7.950
 6093POPC   C4A37206  40.002   8.985   7.650
 6093POPC   C1B37207  39.792   9.110   8.550
 6093POPC   C2B37208  39.730   9.083   8.250
 6093POPC   C3B37209  39.810   9.020   7.950
 6093POPC   C4B37210  39.734   9.112   7.650
 6094POPC   NC337211  21.434  22.971   9.450
 6094POPC   PO437212  21.407  22.913   9.150
 6094POPC   GL137213  21.412  22.897   8.850
 6094POPC   GL237214  21.273  22.912   8.850
 6094POPC   C1A37215  21.346  22.954   8.550
 6094POPC   D2A37216  21.409  22.914   8.250
 6094POPC   C3A37217  21.387  22.938   7.950
 6094POPC   C4A37218  21.389  22.901   7.650
 6094POPC   C1B37219  21.140  22.987   8.550
 6094POPC   C2B37220  21.123  23.007   8.250
 6094POPC   C3B37221  21.109  22.933   7.950
 6094POPC   C4B37222  21.132  22.975   7.650
 6095POPC   NC337223  26.784  12.858   9.450
 6095POPC   PO437224  26.767  12.833   9.150
 6095POPC   GL137225  26.808  12.803   8.850
 6095POPC   GL237226  26.734  12.996   8.850
 6095POPC   C1A37227  26.860  12.865   8.550
 6095POPC   D2A37228  26.844  12.867   8.250
 6095POPC   C3A37229  26.838  12.885   7.950
 6095POPC   C4A37230  26.798  12.871   7.650
 6095POPC   C1B37231  26.679  13.080   8.550
 6095POPC   C2B37232  26.646  13.011   8.250
 6095POPC   C3B37233  26.671  13.057   7.950
 6095POPC   C4B37234  26.664  13.094   7.650
 6096POPC   NC337235  42.300  41.519   9.450
 6096POPC   PO437236  42.287  41.516   9.150
 6096POPC   GL137237  42.289  41.590   8.850
 6096POPC   GL237238  42.489  41.619   8.850
 6096POPC   C1A37239  42.308  41.553   8.550
 6096POPC   D2A37240  42.350  41.510   8.250
 6096POPC   C3A37241  42.365  41.533   7.950
 6096POPC   C4A37242  42.287  41.519   7.650
 6096POPC   C1B37243  42.598  41.656   8.550
 6096POPC   C2B37244  42.541  41.642   8.250
 6096POPC   C3B37245  42.600  41.573   7.950
 6096POPC   C4B37246  42.616  41.566   7.650
 6097POPC   NC337247   0.407  33.841   9.450
 6097POPC   PO437248   0.415  33.821   9.150
 6097POPC   GL137249   0.478  33.779   8.850
 6097POPC   GL237250   0.407  33.711   8.850
 6097POPC   C1A37251   0.453  33.766   8.550
 6097POPC   D2A37252   0.461  33.776   8.250
 6097POPC   C3A37253   0.465  33.820   7.950
 6097POPC   C4A37254   0.409  33.829   7.650
 6097POPC   C1B37255   0.348  33.548   8.550
 6097POPC   C2B37256   0.348  33.605   8.250
 6097POPC   C3B37257   0.317  33.569   7.950
 6097POPC   C4B37258   0.384  33.549   7.650
 6098POPC   NC337259  25.253  37.638   9.450
 6098POPC   PO437260  25.228  37.689   9.150
 6098POPC   GL137261  25.264  37.688   8.850
 6098POPC   GL237262  25.128  37.592   8.850
 6098POPC   C1A37263  25.269  37.636   8.550
 6098POPC   D2A37264  25.312  37.700   8.250
 6098POPC   C3A37265  25.315  37.664   7.950
 6098POPC   C4A37266  25.251  37.728   7.650
 6098POPC   C1B37267  25.063  37.573   8.550
 6098POPC   C2B37268  25.027  37.546   8.250
 6098POPC   C3B37269  25.006  37.592   7.950
 6098POPC   C4B37270  25.077  37.572   7.650
 6099POPC   NC337271  18.300  33.762   9.450
 6099POPC   PO437272  18.266  33.801   9.150
 6099POPC   GL137273  18.323  33.834   8.850
 6099POPC   GL237274  18.242  33.690   8.850
 6099POPC   C1A37275  18.304  33.758   8.550
 6099POPC   D2A37276  18.297  33.834   8.250
 6099POPC   C3A37277  18.327  33.766   7.950
 6099POPC   C4A37278  18.265  33.768   7.650
 6099POPC   C1B37279  18.191  33.572   8.550
 6099POPC   C2B37280  18.241  33.560   8.250
 6099POPC   C3B37281  18.206  33.595   7.950
 6099POPC   C4B37282  18.214  33.588   7.650
 6100POPC   NC337283  12.854  43.076   9.450
 6100POPC   PO437284  12.812  43.090   9.150
 6100POPC   GL137285  12.846  43.136   8.850
 6100POPC   GL237286  12.763  43.059   8.850
 6100POPC   C1A37287  12.875  43.119   8.550
 6100POPC   D2A37288  12.821  43.071   8.250
 6100POPC   C3A37289  12.849  43.065   7.950
 6100POPC   C4A37290  12.892  43.126   7.650
 6100POPC   C1B37291  12.636  42.949   8.550
 6100POPC   C2B37292  12.710  42.924   8.250
 6100POPC   C3B37293  12.648  42.919   7.950
 6100POPC   C4B37294  12.671  42.904   7.650
 6101POPC   NC337295  36.914  12.041   9.450
 6101POPC   PO437296  36.904  12.055   9.150
 6101POPC   GL137297  36.945  12.108   8.850
 6101POPC   GL237298  37.014  12.005   8.850
 6101POPC   C1A37299  36.915  12.088   8.550
 6101POPC   D2A37300  36.875  12.053   8.250
 6101POPC   C3A37301  36.923  12.124   7.950
 6101POPC   C4A37302  36.880  12.040   7.650
 6101POPC   C1B37303  37.176  11.989   8.550
 6101POPC   C2B37304  37.099  12.032   8.250
 6101POPC   C3B37305  37.148  11.965   7.950
 6101POPC   C4B37306  37.095  12.040   7.650
 6102POPC   NC337307  43.160  28.354   9.450
 6102POPC   PO437308  43.114  28.376   9.150
 6102POPC   GL137309  43.145  28.324   8.850
 6102POPC   GL237310  43.000  28.266   8.850
 6102POPC   C1A37311  43.106  28.390   8.550
 6102POPC   D2A37312  43.115  28.375   8.250
 6102POPC   C3A37313  43.090  28.400   7.950
 6102POPC   C4A37314  43.084  28.389   7.650
 6102POPC   C1B37315  42.951  28.198   8.550
 6102POPC   C2B37316  42.885  28.225   8.250
 6102POPC   C3B37317  42.946  28.226   7.950
 6102POPC   C4B37318  42.918  28.190   7.650
 6103POPC   NC337319   4.282  22.925   9.450
 6103POPC   PO437320   4.341  22.943   9.150
 6103POPC   GL137321   4.312  22.957   8.850
 6103POPC   GL237322   4.404  22.854   8.850
 6103POPC   C1A37323   4.270  22.967   8.550
 6103POPC   D2A37324   4.293  22.898   8.250
 6103POPC   C3A37325   4.314  22.980   7.950
 6103POPC   C4A37326   4.336  22.921   7.650
 6103POPC   C1B37327   4.574  22.882   8.550
 6103POPC   C2B37328   4.548  22.900   8.250
 6103POPC   C3B37329   4.561  22.829   7.950
 6103POPC   C4B37330   4.505  22.830   7.650
 6104POPC   NC337331   2.033   7.417   9.450
 6104POPC   PO437332   2.023   7.419   9.150
 6104POPC   GL137333   1.946   7.377   8.850
 6104POPC   GL237334   2.004   7.264   8.850
 6104POPC   C1A37335   1.984   7.448   8.550
 6104POPC   D2A37336   1.949   7.423   8.250
 6104POPC   C3A37337   2.008   7.377   7.950
 6104POPC   C4A37338   1.948   7.469   7.650
 6104POPC   C1B37339   2.064   7.189   8.550
 6104POPC   C2B37340   2.061   7.215   8.250
 6104POPC   C3B37341   1.985   7.159   7.950
 6104POPC   C4B37342   2.057   7.216   7.650
 6105POPC   NC337343  13.615  36.109   9.450
 6105POPC   PO437344  13.636  36.117   9.150
 6105POPC   GL137345  13.629  36.111   8.850
 6105POPC   GL237346  13.540  36.118   8.850
 6105POPC   C1A37347  13.585  36.085   8.550
 6105POPC   D2A37348  13.602  36.078   8.250
 6105POPC   C3A37349  13.668  36.112   7.950
 6105POPC   C4A37350  13.598  36.088   7.650
 6105POPC   C1B37351  13.382  36.005   8.550
 6105POPC   C2B37352  13.437  36.044   8.250
 6105POPC   C3B37353  13.349  36.064   7.950
 6105POPC   C4B37354  13.367  36.011   7.650
 6106POPC   NC337355  14.414  36.166   9.450
 6106POPC   PO437356  14.377  36.131   9.150
 6106POPC   GL137357  14.419  36.095   8.850
 6106POPC   GL237358  14.486  36.060   8.850
 6106POPC   C1A37359  14.436  36.080   8.550
 6106POPC   D2A37360  14.367  36.098   8.250
 6106POPC   C3A37361  14.377  36.130   7.950
 6106POPC   C4A37362  14.356  36.108   7.650
 6106POPC   C1B37363  14.580  35.991   8.550
 6106POPC   C2B37364  14.613  36.022   8.250
 6106POPC   C3B37365  14.633  36.007   7.950
 6106POPC   C4B37366  14.623  35.995   7.650
 6107POPC   NC337367  14.376  36.952   9.450
 6107POPC   PO437368  14.373  36.858   9.150
 6107POPC   GL137369  14.419  36.941   8.850
 6107POPC   GL237370  14.250  36.882   8.850
 6107POPC   C1A37371  14.440  36.892   8.550
 6107POPC   D2A37372  14.425  36.913   8.250
 6107POPC   C3A37373  14.405  36.866   7.950
 6107POPC   C4A37374  14.384  36.876   7.650
 6107POPC   C1B37375  14.172  36.879   8.550
 6107POPC   C2B37376  14.117  36.843   8.250
 6107POPC   C3B37377  14.113  36.817   7.950
 6107POPC   C4B37378  14.203  36.873   7.650
 6108POPC   NC337379   4.287  43.913   9.450
 6108POPC   PO437380   4.339  43.855   9.150
 6108POPC   GL137381   4.353  43.841   8.850
 6108POPC   GL237382   4.423  43.955   8.850
 6108POPC   C1A37383   4.345  43.887   8.550
 6108POPC   D2A37384   4.364  43.890   8.250
 6108POPC   C3A37385   4.310  43.925   7.950
 6108POPC   C4A37386   4.279  43.904   7.650
 6108POPC   C1B37387   4.452  44.054   8.550
 6108POPC   C2B37388   4.456  44.094   8.250
 6108POPC   C3B37389   4.458  44.118   7.950
 6108POPC   C4B37390   4.446  44.092   7.650
 6109POPC   NC337391   4.289  21.391   9.450
 6109POPC   PO437392   4.290  21.385   9.150
 6109POPC   GL137393   4.323  21.373   8.850
 6109POPC   GL237394   4.216  21.430   8.850
 6109POPC   C1A37395   4.292  21.358   8.550
 6109POPC   D2A37396   4.338  21.351   8.250
 6109POPC   C3A37397   4.302  21.384   7.950
 6109POPC   C4A37398   4.312  21.428   7.650
 6109POPC   C1B37399   4.108  21.400   8.550
 6109POPC   C2B37400   4.029  21.451   8.250
 6109POPC   C3B37401   4.074  21.411   7.950
 6109POPC   C4B37402   4.069  21.399   7.650
 6110POPC   NC337403   9.772   5.826   9.450
 6110POPC   PO437404   9.741   5.917   9.150
 6110POPC   GL137405   9.700   5.892   8.850
 6110POPC   GL237406   9.658   5.851   8.850
 6110POPC   C1A37407   9.776   5.855   8.550
 6110POPC   D2A37408   9.734   5.889   8.250
 6110POPC   C3A37409   9.762   5.835   7.950
 6110POPC   C4A37410   9.743   5.823   7.650
 6110POPC   C1B37411   9.492   5.786   8.550
 6110POPC   C2B37412   9.467   5.770   8.250
 6110POPC   C3B37413   9.530   5.771   7.950
 6110POPC   C4B37414   9.541   5.820   7.650
 6111POPC   NC337415  27.571   4.292   9.450
 6111POPC   PO437416  27.559   4.362   9.150
 6111POPC   GL137417  27.609   4.330   8.850
 6111POPC   GL237418  27.692   4.357   8.850
 6111POPC   C1A37419  27.561   4.290   8.550
 6111POPC   D2A37420  27.603   4.274   8.250
 6111POPC   C3A37421  27.607   4.276   7.950
 6111POPC   C4A37422  27.553   4.301   7.650
 6111POPC   C1B37423  27.809   4.483   8.550
 6111POPC   C2B37424  27.773   4.510   8.250
 6111POPC   C3B37425  27.766   4.468   7.950
 6111POPC   C4B37426  27.735   4.515   7.650
 6112POPC   NC337427   1.184   3.534   9.450
 6112POPC   PO437428   1.207   3.576   9.150
 6112POPC   GL137429   1.236   3.546   8.850
 6112POPC   GL237430   1.253   3.435   8.850
 6112POPC   C1A37431   1.212   3.514   8.550
 6112POPC   D2A37432   1.231   3.521   8.250
 6112POPC   C3A37433   1.248   3.544   7.950
 6112POPC   C4A37434   1.173   3.510   7.650
 6112POPC   C1B37435   1.345   3.290   8.550
 6112POPC   C2B37436   1.345   3.275   8.250
 6112POPC   C3B37437   1.291   3.279   7.950
 6112POPC   C4B37438   1.333   3.280   7.650
 6113POPC   NC337439   3.520  41.518   9.450
 6113POPC   PO437440   3.584  41.543   9.150
 6113POPC   GL137441   3.579  41.596   8.850
 6113POPC   GL237442   3.476  41.443   8.850
 6113POPC   C1A37443   3.552  41.545   8.550
 6113POPC   D2A37444   3.590  41.535   8.250
 6113POPC   C3A37445   3.515  41.519   7.950
 6113POPC   C4A37446   3.576  41.572   7.650
 6113POPC   C1B37447   3.395  41.363   8.550
 6113POPC   C2B37448   3.418  41.373   8.250
 6113POPC   C3B37449   3.357  41.363   7.950
 6113POPC   C4B37450   3.367  41.343   7.650
 6114POPC   NC337451  22.894  30.737   9.450
 6114POPC   PO437452  22.893  30.662   9.150
 6114POPC   GL137453  22.953  30.732   8.850
 6114POPC   GL237454  22.835  30.675   8.850
 6114POPC   C1A37455  22.957  30.647   8.550
 6114POPC   D2A37456  22.958  30.718   8.250
 6114POPC   C3A37457  22.932  30.724   7.950
 6114POPC   C4A37458  22.934  30.688   7.650
 6114POPC   C1B37459  22.698  30.577   8.550
 6114POPC   C2B37460  22.690  30.658   8.250
 6114POPC   C3B37461  22.700  30.582   7.950
 6114POPC   C4B37462  22.651  30.608   7.650
 6115POPC   NC337463  31.440  35.398   9.450
 6115POPC   PO437464  31.478  35.350   9.150
 6115POPC   GL137465  31.478  35.351   8.850
 6115POPC   GL237466  31.397  35.226   8.850
 6115POPC   C1A37467  31.451  35.308   8.550
 6115POPC   D2A37468  31.469  35.339   8.250
 6115POPC   C3A37469  31.466  35.307   7.950
 6115POPC   C4A37470  31.483  35.330   7.650
 6115POPC   C1B37471  31.316  35.136   8.550
 6115POPC   C2B37472  31.363  35.161   8.250
 6115POPC   C3B37473  31.340  35.161   7.950
 6115POPC   C4B37474  31.355  35.110   7.650
 6116POPC   NC337475   5.139  26.786   9.450
 6116POPC   PO437476   5.133  26.847   9.150
 6116POPC   GL137477   5.112  26.866   8.850
 6116POPC   GL237478   5.108  26.735   8.850
 6116POPC   C1A37479   5.108  26.845   8.550
 6116POPC   D2A37480   5.056  26.815   8.250
 6116POPC   C3A37481   5.073  26.790   7.950
 6116POPC   C4A37482   5.092  26.776   7.650
 6116POPC   C1B37483   5.084  26.602   8.550
 6116POPC   C2B37484   5.109  26.537   8.250
 6116POPC   C3B37485   5.079  26.588   7.950
 6116POPC   C4B37486   5.100  26.545   7.650
 6117POPC   NC337487  13.616  27.578   9.450
 6117POPC   PO437488  13.640  27.549   9.150
 6117POPC   GL137489  13.646  27.563   8.850
 6117POPC   GL237490  13.563  27.567   8.850
 6117POPC   C1A37491  13.604  27.615   8.550
 6117POPC   D2A37492  13.596  27.620   8.250
 6117POPC   C3A37493  13.593  27.570   7.950
 6117POPC   C4A37494  13.661  27.551   7.650
 6117POPC   C1B37495  13.398  27.472   8.550
 6117POPC   C2B37496  13.398  27.430   8.250
 6117POPC   C3B37497  13.414  27.475   7.950
 6117POPC   C4B37498  13.442  27.483   7.650
 6118POPC   NC337499   0.414   7.455   9.450
 6118POPC   PO437500   0.483   7.426   9.150
 6118POPC   GL137501   0.474   7.430   8.850
 6118POPC   GL237502   0.343   7.349   8.850
 6118POPC   C1A37503   0.467   7.432   8.550
 6118POPC   D2A37504   0.474   7.433   8.250
 6118POPC   C3A37505   0.475   7.412   7.950
 6118POPC   C4A37506   0.457   7.433   7.650
 6118POPC   C1B37507   0.246   7.344   8.550
 6118POPC   C2B37508   0.233   7.361   8.250
 6118POPC   C3B37509   0.239   7.342   7.950
 6118POPC   C4B37510   0.245   7.296   7.650
 6119POPC   NC337511  33.771   6.628   9.450
 6119POPC   PO437512  33.840   6.632   9.150
 6119POPC   GL137513  33.754   6.674   8.850
 6119POPC   GL237514  33.948   6.642   8.850
 6119POPC   C1A37515  33.782   6.597   8.550
 6119POPC   D2A37516  33.831   6.632   8.250
 6119POPC   C3A37517  33.755   6.641   7.950
 6119POPC   C4A37518  33.760   6.658   7.650
 6119POPC   C1B37519  34.029   6.626   8.550
 6119POPC   C2B37520  34.076   6.619   8.250
 6119POPC   C3B37521  34.087   6.690   7.950
 6119POPC   C4B37522  34.075   6.691   7.650
 6120POPC   NC337523  27.621  41.602   9.450
 6120POPC   PO437524  27.636  41.592   9.150
 6120POPC   GL137525  27.643  41.558   8.850
 6120POPC   GL237526  27.468  41.571   8.850
 6120POPC   C1A37527  27.635  41.571   8.550
 6120POPC   D2A37528  27.566  41.533   8.250
 6120POPC   C3A37529  27.622  41.532   7.950
 6120POPC   C4A37530  27.641  41.528   7.650
 6120POPC   C1B37531  27.393  41.590   8.550
 6120POPC   C2B37532  27.364  41.562   8.250
 6120POPC   C3B37533  27.389  41.546   7.950
 6120POPC   C4B37534  27.343  41.537   7.650
 6121POPC   NC337535   4.313  22.138   9.450
 6121POPC   PO437536   4.354  22.157   9.150
 6121POPC   GL137537   4.313  22.192   8.850
 6121POPC   GL237538   4.181  22.261   8.850
 6121POPC   C1A37539   4.367  22.170   8.550
 6121POPC   D2A37540   4.344  22.186   8.250
 6121POPC   C3A37541   4.344  22.133   7.950
 6121POPC   C4A37542   4.356  22.165   7.650
 6121POPC   C1B37543   4.062  22.308   8.550
 6121POPC   C2B37544   4.075  22.279   8.250
 6121POPC   C3B37545   4.126  22.243   7.950
 6121POPC   C4B37546   4.122  22.319   7.650
 6122POPC   NC337547  39.213  27.547   9.450
 6122POPC   PO437548  39.253  27.577   9.150
 6122POPC   GL137549  39.237  27.633   8.850
 6122POPC   GL237550  39.076  27.660   8.850
 6122POPC   C1A37551  39.247  27.618   8.550
 6122POPC   D2A37552  39.231  27.614   8.250
 6122POPC   C3A37553  39.195  27.619   7.950
 6122POPC   C4A37554  39.260  27.642   7.650
 6122POPC   C1B37555  39.000  27.659   8.550
 6122POPC   C2B37556  38.996  27.610   8.250
 6122POPC   C3B37557  39.034  27.639   7.950
 6122POPC   C4B37558  38.937  27.663   7.650
 6123POPC   NC337559  22.145  20.611   9.450
 6123POPC   PO437560  22.141  20.657   9.150
 6123POPC   GL137561  22.145  20.654   8.850
 6123POPC   GL237562  22.325  20.611   8.850
 6123POPC   C1A37563  22.130  20.567   8.550
 6123POPC   D2A37564  22.147  20.568   8.250
 6123POPC   C3A37565  22.136  20.618   7.950
 6123POPC   C4A37566  22.184  20.644   7.650
 6123POPC   C1B37567  22.446  20.547   8.550
 6123POPC   C2B37568  22.395  20.512   8.250
 6123POPC   C3B37569  22.384  20.491   7.950
 6123POPC   C4B37570  22.417  20.560   7.650
 6124POPC   NC337571  39.246  43.890   9.450
 6124POPC   PO437572  39.192  43.882   9.150
 6124POPC   GL137573  39.243  43.877   8.850
 6124POPC   GL237574  39.274  43.751   8.850
 6124POPC   C1A37575  39.182  43.931   8.550
 6124POPC   D2A37576  39.181  43.854   8.250
 6124POPC   C3A37577  39.265  43.838   7.950
 6124POPC   C4A37578  39.195  43.875   7.650
 6124POPC   C1B37579  39.352  43.695   8.550
 6124POPC   C2B37580  39.343  43.637   8.250
 6124POPC   C3B37581  39.360  43.673   7.950
 6124POPC   C4B37582  39.351  43.698   7.650
 6125POPC   NC337583  43.849  34.579   9.450
 6125POPC   PO437584  43.856  34.598   9.150
 6125POPC   GL137585  43.896  34.552   8.850
 6125POPC   GL237586  43.802  34.500   8.850
 6125POPC   C1A37587  43.848  34.566   8.550
 6125POPC   D2A37588  43.867  34.613   8.250
 6125POPC   C3A37589  43.922  34.529   7.950
 6125POPC   C4A37590  43.919  34.537   7.650
 6125POPC   C1B37591  43.692  34.489   8.550
 6125POPC   C2B37592  43.625  34.504   8.250
 6125POPC   C3B37593  43.645  34.514   7.950
 6125POPC   C4B37594  43.656  34.525   7.650
 6126POPC   NC337595  17.466  15.985   9.450
 6126POPC   PO437596  17.475  15.964   9.150
 6126POPC   GL137597  17.534  15.906   8.850
 6126POPC   GL237598  17.577  16.053   8.850
 6126POPC   C1A37599  17.460  15.911   8.550
 6126POPC   D2A37600  17.545  15.912   8.250
 6126POPC   C3A37601  17.534  15.920   7.950
 6126POPC   C4A37602  17.462  15.939   7.650
 6126POPC   C1B37603  17.538  16.248   8.550
 6126POPC   C2B37604  17.576  16.176   8.250
 6126POPC   C3B37605  17.563  16.209   7.950
 6126POPC   C4B37606  17.512  16.193   7.650
 6127POPC   NC337607   2.020   1.940   9.450
 6127POPC   PO437608   2.034   1.947   9.150
 6127POPC   GL137609   1.953   2.026   8.850
 6127POPC   GL237610   1.920   1.931   8.850
 6127POPC   C1A37611   2.000   1.980   8.550
 6127POPC   D2A37612   2.019   2.006   8.250
 6127POPC   C3A37613   1.984   2.016   7.950
 6127POPC   C4A37614   2.006   1.985   7.650
 6127POPC   C1B37615   1.845   1.808   8.550
 6127POPC   C2B37616   1.850   1.798   8.250
 6127POPC   C3B37617   1.802   1.740   7.950
 6127POPC   C4B37618   1.897   1.764   7.650
 6128POPC   NC337619  18.278  18.285   9.450
 6128POPC   PO437620  18.250  18.306   9.150
 6128POPC   GL137621  18.234  18.318   8.850
 6128POPC   GL237622  18.215  18.189   8.850
 6128POPC   C1A37623  18.296  18.252   8.550
 6128POPC   D2A37624  18.293  18.256   8.250
 6128POPC   C3A37625  18.288  18.292   7.950
 6128POPC   C4A37626  18.307  18.235   7.650
 6128POPC   C1B37627  18.201  18.015   8.550
 6128POPC   C2B37628  18.197  18.049   8.250
 6128POPC   C3B37629  18.157  18.076   7.950
 6128POPC   C4B37630  18.211  18.085   7.650
 6129POPC   NC337631   1.986   5.046   9.450
 6129POPC   PO437632   1.947   5.086   9.150
 6129POPC   GL137633   1.992   5.097   8.850
 6129POPC   GL237634   2.138   5.134   8.850
 6129POPC   C1A37635   2.018   5.093   8.550
 6129POPC   D2A37636   2.009   5.081   8.250
 6129POPC   C3A37637   1.961   5.091   7.950
 6129POPC   C4A37638   1.999   5.060   7.650
 6129POPC   C1B37639   2.249   5.217   8.550
 6129POPC   C2B37640   2.183   5.210   8.250
 6129POPC   C3B37641   2.177   5.201   7.950
 6129POPC   C4B37642   2.229   5.156   7.650
 6130POPC   NC337643  40.760   2.037   9.450
 6130POPC   PO437644  40.812   1.980   9.150
 6130POPC   GL137645  40.786   1.993   8.850
 6130POPC   GL237646  40.730   2.076   8.850
 6130POPC   C1A37647  40.771   1.942   8.550
 6130POPC   D2A37648  40.769   2.014   8.250
 6130POPC   C3A37649  40.825   1.986   7.950
 6130POPC   C4A37650  40.805   2.014   7.650
 6130POPC   C1B37651  40.634   2.182   8.550
 6130POPC   C2B37652  40.655   2.174   8.250
 6130POPC   C3B37653  40.660   2.234   7.950
 6130POPC   C4B37654  40.688   2.209   7.650
 6131POPC   NC337655  41.541  38.407   9.450
 6131POPC   PO437656  41.521  38.428   9.150
 6131POPC   GL137657  41.553  38.501   8.850
 6131POPC   GL237658  41.392  38.426   8.850
 6131POPC   C1A37659  41.588  38.502   8.550
 6131POPC   D2A37660  41.589  38.499   8.250
 6131POPC   C3A37661  41.549  38.411   7.950
 6131POPC   C4A37662  41.518  38.450   7.650
 6131POPC   C1B37663  41.309  38.416   8.550
 6131POPC   C2B37664  41.316  38.399   8.250
 6131POPC   C3B37665  41.319  38.387   7.950
 6131POPC   C4B37666  41.345  38.388   7.650
 6132POPC   NC337667   8.930  30.700   9.450
 6132POPC   PO437668   9.013  30.683   9.150
 6132POPC   GL137669   8.954  30.714   8.850
 6132POPC   GL237670   9.071  30.757   8.850
 6132POPC   C1A37671   8.935  30.725   8.550
 6132POPC   D2A37672   8.969  30.730   8.250
 6132POPC   C3A37673   9.007  30.688   7.950
 6132POPC   C4A37674   8.982  30.680   7.650
 6132POPC   C1B37675   9.130  30.870   8.550
 6132POPC   C2B37676   9.194  30.863   8.250
 6132POPC   C3B37677   9.145  30.909   7.950
 6132POPC   C4B37678   9.169  30.876   7.650
 6133POPC   NC337679  29.151   8.185   9.450
 6133POPC   PO437680  29.111   8.213   9.150
 6133POPC   GL137681  29.106   8.160   8.850
 6133POPC   GL237682  29.258   8.257   8.850
 6133POPC   C1A37683  29.115   8.236   8.550
 6133POPC   D2A37684  29.157   8.244   8.250
 6133POPC   C3A37685  29.140   8.162   7.950
 6133POPC   C4A37686  29.105   8.156   7.650
 6133POPC   C1B37687  29.324   8.290   8.550
 6133POPC   C2B37688  29.334   8.333   8.250
 6133POPC   C3B37689  29.398   8.262   7.950
 6133POPC   C4B37690  29.367   8.292   7.650
 6134POPC   NC337691  39.241  10.516   9.450
 6134POPC   PO437692  39.280  10.491   9.150
 6134POPC   GL137693  39.276  10.524   8.850
 6134POPC   GL237694  39.190  10.638   8.850
 6134POPC   C1A37695  39.272  10.549   8.550
 6134POPC   D2A37696  39.188  10.505   8.250
 6134POPC   C3A37697  39.262  10.541   7.950
 6134POPC   C4A37698  39.198  10.520   7.650
 6134POPC   C1B37699  39.040  10.709   8.550
 6134POPC   C2B37700  39.097  10.744   8.250
 6134POPC   C3B37701  39.069  10.722   7.950
 6134POPC   C4B37702  39.101  10.679   7.650
 6135POPC   NC337703   1.208  32.265   9.450
 6135POPC   PO437704   1.231  32.258   9.150
 6135POPC   GL137705   1.217  32.245   8.850
 6135POPC   GL237706   1.043  32.236   8.850
 6135POPC   C1A37707   1.234  32.295   8.550
 6135POPC   D2A37708   1.211  32.296   8.250
 6135POPC   C3A37709   1.222  32.198   7.950
 6135POPC   C4A37710   1.166  32.234   7.650
 6135POPC   C1B37711   1.005  32.274   8.550
 6135POPC   C2B37712   0.939  32.321   8.250
 6135POPC   C3B37713   0.969  32.302   7.950
 6135POPC   C4B37714   0.924  32.248   7.650
 6136POPC   NC337715  34.540   2.716   9.450
 6136POPC   PO437716  34.617   2.781   9.150
 6136POPC   GL137717  34.553   2.745   8.850
 6136POPC   GL237718  34.523   2.692   8.850
 6136POPC   C1A37719  34.599   2.802   8.550
 6136POPC   D2A37720  34.601   2.720   8.250
 6136POPC   C3A37721  34.610   2.734   7.950
 6136POPC   C4A37722  34.605   2.766   7.650
 6136POPC   C1B37723  34.533   2.514   8.550
 6136POPC   C2B37724  34.539   2.502   8.250
 6136POPC   C3B37725  34.519   2.538   7.950
 6136POPC   C4B37726  34.508   2.550   7.650
 6137POPC   NC337727  17.480  22.911   9.450
 6137POPC   PO437728  17.549  22.903   9.150
 6137POPC   GL137729  17.554  22.900   8.850
 6137POPC   GL237730  17.565  22.851   8.850
 6137POPC   C1A37731  17.506  22.970   8.550
 6137POPC   D2A37732  17.473  22.906   8.250
 6137POPC   C3A37733  17.461  22.982   7.950
 6137POPC   C4A37734  17.493  22.895   7.650
 6137POPC   C1B37735  17.649  22.739   8.550
 6137POPC   C2B37736  17.606  22.749   8.250
 6137POPC   C3B37737  17.640  22.742   7.950
 6137POPC   C4B37738  17.614  22.771   7.650
 6138POPC   NC337739   4.295  41.530   9.450
 6138POPC   PO437740   4.281  41.533   9.150
 6138POPC   GL137741   4.291  41.578   8.850
 6138POPC   GL237742   4.170  41.476   8.850
 6138POPC   C1A37743   4.347  41.529   8.550
 6138POPC   D2A37744   4.336  41.555   8.250
 6138POPC   C3A37745   4.300  41.587   7.950
 6138POPC   C4A37746   4.334  41.520   7.650
 6138POPC   C1B37747   4.121  41.468   8.550
 6138POPC   C2B37748   4.138  41.475   8.250
 6138POPC   C3B37749   4.064  41.412   7.950
 6138POPC   C4B37750   4.109  41.394   7.650
 6139POPC   NC337751  10.531  12.105   9.450
 6139POPC   PO437752  10.563  12.115   9.150
 6139POPC   GL137753  10.513  12.087   8.850
 6139POPC   GL237754  10.402  11.976   8.850
 6139POPC   C1A37755  10.532  12.117   8.550
 6139POPC   D2A37756  10.534  12.111   8.250
 6139POPC   C3A37757  10.530  12.073   7.950
 6139POPC   C4A37758  10.550  12.075   7.650
 6139POPC   C1B37759  10.296  11.917   8.550
 6139POPC   C2B37760  10.302  11.996   8.250
 6139POPC   C3B37761  10.341  11.925   7.950
 6139POPC   C4B37762  10.355  11.909   7.650
 6140POPC   NC337763  32.291   6.627   9.450
 6140POPC   PO437764  32.227   6.619   9.150
 6140POPC   GL137765  32.288   6.604   8.850
 6140POPC   GL237766  32.373   6.689   8.850
 6140POPC   C1A37767  32.293   6.604   8.550
 6140POPC   D2A37768  32.272   6.690   8.250
 6140POPC   C3A37769  32.235   6.680   7.950
 6140POPC   C4A37770  32.228   6.638   7.650
 6140POPC   C1B37771  32.439   6.791   8.550
 6140POPC   C2B37772  32.399   6.874   8.250
 6140POPC   C3B37773  32.370   6.800   7.950
 6140POPC   C4B37774  32.451   6.788   7.650
 6141POPC   NC337775  15.922  32.285   9.450
 6141POPC   PO437776  15.966  32.286   9.150
 6141POPC   GL137777  15.917  32.212   8.850
 6141POPC   GL237778  16.091  32.319   8.850
 6141POPC   C1A37779  15.952  32.287   8.550
 6141POPC   D2A37780  15.978  32.258   8.250
 6141POPC   C3A37781  15.993  32.213   7.950
 6141POPC   C4A37782  15.971  32.205   7.650
 6141POPC   C1B37783  16.221  32.351   8.550
 6141POPC   C2B37784  16.140  32.392   8.250
 6141POPC   C3B37785  16.174  32.306   7.950
 6141POPC   C4B37786  16.220  32.388   7.650
 6142POPC   NC337787  22.201  17.459   9.450
 6142POPC   PO437788  22.142  17.477   9.150
 6142POPC   GL137789  22.184  17.513   8.850
 6142POPC   GL237790  22.063  17.560   8.850
 6142POPC   C1A37791  22.131  17.469   8.550
 6142POPC   D2A37792  22.144  17.513   8.250
 6142POPC   C3A37793  22.171  17.538   7.950
 6142POPC   C4A37794  22.202  17.556   7.650
 6142POPC   C1B37795  21.907  17.477   8.550
 6142POPC   C2B37796  21.888  17.531   8.250
 6142POPC   C3B37797  21.943  17.555   7.950
 6142POPC   C4B37798  21.939  17.500   7.650
 6143POPC   NC337799   5.836   8.982   9.450
 6143POPC   PO437800   5.891   9.017   9.150
 6143POPC   GL137801   5.901   8.924   8.850
 6143POPC   GL237802   5.760   8.947   8.850
 6143POPC   C1A37803   5.850   8.928   8.550
 6143POPC   D2A37804   5.860   8.923   8.250
 6143POPC   C3A37805   5.853   9.003   7.950
 6143POPC   C4A37806   5.908   8.950   7.650
 6143POPC   C1B37807   5.644   8.829   8.550
 6143POPC   C2B37808   5.631   8.864   8.250
 6143POPC   C3B37809   5.666   8.832   7.950
 6143POPC   C4B37810   5.601   8.882   7.650
 6144POPC   NC337811   7.383  19.083   9.450
 6144POPC   PO437812   7.434  19.016   9.150
 6144POPC   GL137813   7.389  19.032   8.850
 6144POPC   GL237814   7.489  18.986   8.850
 6144POPC   C1A37815   7.419  19.085   8.550
 6144POPC   D2A37816   7.452  19.011   8.250
 6144POPC   C3A37817   7.375  19.089   7.950
 6144POPC   C4A37818   7.438  19.055   7.650
 6144POPC   C1B37819   7.476  18.834   8.550
 6144POPC   C2B37820   7.475  18.819   8.250
 6144POPC   C3B37821   7.470  18.820   7.950
 6144POPC   C4B37822   7.495  18.792   7.650
 6145POPC   NC337823  37.683  21.424   9.450
 6145POPC   PO437824  37.692  21.359   9.150
 6145POPC   GL137825  37.671  21.433   8.850
 6145POPC   GL237826  37.726  21.280   8.850
 6145POPC   C1A37827  37.650  21.422   8.550
 6145POPC   D2A37828  37.682  21.401   8.250
 6145POPC   C3A37829  37.665  21.386   7.950
 6145POPC   C4A37830  37.704  21.347   7.650
 6145POPC   C1B37831  37.887  21.193   8.550
 6145POPC   C2B37832  37.847  21.222   8.250
 6145POPC   C3B37833  37.913  21.184   7.950
 6145POPC   C4B37834  37.909  21.238   7.650
 6146POPC   NC337835   9.771   1.186   9.450
 6146POPC   PO437836   9.709   1.197   9.150
 6146POPC   GL137837   9.775   1.228   8.850
 6146POPC   GL237838   9.700   1.328   8.850
 6146POPC   C1A37839   9.751   1.177   8.550
 6146POPC   D2A37840   9.788   1.192   8.250
 6146POPC   C3A37841   9.760   1.182   7.950
 6146POPC   C4A37842   9.776   1.248   7.650
 6146POPC   C1B37843   9.576   1.446   8.550
 6146POPC   C2B37844   9.584   1.401   8.250
 6146POPC   C3B37845   9.624   1.474   7.950
 6146POPC   C4B37846   9.583   1.425   7.650
 6147POPC   NC337847  21.351  35.365   9.450
 6147POPC   PO437848  21.340  35.357   9.150
 6147POPC   GL137849  21.412  35.378   8.850
 6147POPC   GL237850  21.393  35.237   8.850
 6147POPC   C1A37851  21.376  35.326   8.550
 6147POPC   D2A37852  21.374  35.373   8.250
 6147POPC   C3A37853  21.352  35.348   7.950
 6147POPC   C4A37854  21.384  35.381   7.650
 6147POPC   C1B37855  21.428  35.098   8.550
 6147POPC   C2B37856  21.456  35.087   8.250
 6147POPC   C3B37857  21.456  35.154   7.950
 6147POPC   C4B37858  21.388  35.147   7.650
 6148POPC   NC337859  19.794  39.217   9.450
 6148POPC   PO437860  19.835  39.270   9.150
 6148POPC   GL137861  19.868  39.269   8.850
 6148POPC   GL237862  19.989  39.280   8.850
 6148POPC   C1A37863  19.867  39.191   8.550
 6148POPC   D2A37864  19.848  39.246   8.250
 6148POPC   C3A37865  19.836  39.267   7.950
 6148POPC   C4A37866  19.809  39.207   7.650
 6148POPC   C1B37867  20.059  39.237   8.550
 6148POPC   C2B37868  20.070  39.254   8.250
 6148POPC   C3B37869  20.129  39.201   7.950
 6148POPC   C4B37870  20.098  39.186   7.650
 6149POPC   NC337871  43.063  30.674   9.450
 6149POPC   PO437872  43.108  30.647   9.150
 6149POPC   GL137873  43.108  30.671   8.850
 6149POPC   GL237874  43.183  30.718   8.850
 6149POPC   C1A37875  43.070  30.740   8.550
 6149POPC   D2A37876  43.094  30.656   8.250
 6149POPC   C3A37877  43.096  30.742   7.950
 6149POPC   C4A37878  43.154  30.713   7.650
 6149POPC   C1B37879  43.341  30.841   8.550
 6149POPC   C2B37880  43.326  30.772   8.250
 6149POPC   C3B37881  43.317  30.826   7.950
 6149POPC   C4B37882  43.371  30.853   7.650
 6150POPC   NC337883   1.967   0.488   9.450
 6150POPC   PO437884   1.952   0.420   9.150
 6150POPC   GL137885   2.021   0.468   8.850
 6150POPC   GL237886   2.096   0.536   8.850
 6150POPC   C1A37887   1.965   0.441   8.550
 6150POPC   D2A37888   2.023   0.429   8.250
 6150POPC   C3A37889   1.981   0.479   7.950
 6150POPC   C4A37890   2.007   0.470   7.650
 6150POPC   C1B37891   2.165   0.588   8.550
 6150POPC   C2B37892   2.238   0.584   8.250
 6150POPC   C3B37893   2.205   0.614   7.950
 6150POPC   C4B37894   2.187   0.584   7.650
 6151POPC   NC337895   7.406  20.563   9.450
 6151POPC   PO437896   7.422  20.657   9.150
 6151POPC   GL137897   7.449  20.617   8.850
 6151POPC   GL237898   7.364  20.550   8.850
 6151POPC   C1A37899   7.449  20.656   8.550
 6151POPC   D2A37900   7.444  20.619   8.250
 6151POPC   C3A37901   7.463  20.591   7.950
 6151POPC   C4A37902   7.459  20.580   7.650
 6151POPC   C1B37903   7.240  20.529   8.550
 6151POPC   C2B37904   7.161  20.521   8.250
 6151POPC   C3B37905   7.207  20.520   7.950
 6151POPC   C4B37906   7.225  20.463   7.650
 6152POPC   NC337907  37.677  39.266   9.450
 6152POPC   PO437908  37.713  39.278   9.150
 6152POPC   GL137909  37.678  39.270   8.850
 6152POPC   GL237910  37.695  39.357   8.850
 6152POPC   C1A37911  37.719  39.247   8.550
 6152POPC   D2A37912  37.669  39.188   8.250
 6152POPC   C3A37913  37.697  39.230   7.950
 6152POPC   C4A37914  37.702  39.182   7.650
 6152POPC   C1B37915  37.708  39.478   8.550
 6152POPC   C2B37916  37.679  39.445   8.250
 6152POPC   C3B37917  37.643  39.439   7.950
 6152POPC   C4B37918  37.687  39.489   7.650
 6153POPC   NC337919  13.613  44.671   9.450
 6153POPC   PO437920  13.646  44.661   9.150
 6153POPC   GL137921  13.654  44.699   8.850
 6153POPC   GL237922  13.543  44.758   8.850
 6153POPC   C1A37923  13.616  44.685   8.550
 6153POPC   D2A37924  13.595  44.613   8.250
 6153POPC   C3A37925  13.633  44.643   7.950
 6153POPC   C4A37926  13.663  44.615   7.650
 6153POPC   C1B37927  13.499  44.909   8.550
 6153POPC   C2B37928  13.434  44.858   8.250
 6153POPC   C3B37929  13.500  44.876   7.950
 6153POPC   C4B37930  13.507  44.877   7.650
 6154POPC   NC337931  10.543  40.832   9.450
 6154POPC   PO437932  10.481  40.733   9.150
 6154POPC   GL137933  10.520  40.821   8.850
 6154POPC   GL237934  10.387  40.800   8.850
 6154POPC   C1A37935  10.495  40.734   8.550
 6154POPC   D2A37936  10.511  40.826   8.250
 6154POPC   C3A37937  10.562  40.780   7.950
 6154POPC   C4A37938  10.481  40.772   7.650
 6154POPC   C1B37939  10.273  40.892   8.550
 6154POPC   C2B37940  10.335  40.884   8.250
 6154POPC   C3B37941  10.322  40.940   7.950
 6154POPC   C4B37942  10.306  40.904   7.650
 6155POPC   NC337943  27.567  43.871   9.450
 6155POPC   PO437944  27.616  43.888   9.150
 6155POPC   GL137945  27.558  43.868   8.850
 6155POPC   GL237946  27.723  43.928   8.850
 6155POPC   C1A37947  27.593  43.847   8.550
 6155POPC   D2A37948  27.586  43.914   8.250
 6155POPC   C3A37949  27.639  43.927   7.950
 6155POPC   C4A37950  27.617  43.921   7.650
 6155POPC   C1B37951  27.797  43.885   8.550
 6155POPC   C2B37952  27.826  43.924   8.250
 6155POPC   C3B37953  27.862  43.950   7.950
 6155POPC   C4B37954  27.850  43.948   7.650
 6156POPC   NC337955  40.826  29.960   9.450
 6156POPC   PO437956  40.827  29.884   9.150
 6156POPC   GL137957  40.780  29.933   8.850
 6156POPC   GL237958  40.929  29.901   8.850
 6156POPC   C1A37959  40.770  29.880   8.550
 6156POPC   D2A37960  40.762  29.892   8.250
 6156POPC   C3A37961  40.761  29.910   7.950
 6156POPC   C4A37962  40.752  29.935   7.650
 6156POPC   C1B37963  41.056  29.956   8.550
 6156POPC   C2B37964  40.992  29.884   8.250
 6156POPC   C3B37965  40.994  29.930   7.950
 6156POPC   C4B37966  41.018  29.876   7.650
 6157POPC   NC337967  28.379  40.013   9.450
 6157POPC   PO437968  28.408  39.975   9.150
 6157POPC   GL137969  28.322  40.025   8.850
 6157POPC   GL237970  28.505  39.949   8.850
 6157POPC   C1A37971  28.353  40.040   8.550
 6157POPC   D2A37972  28.331  40.045   8.250
 6157POPC   C3A37973  28.352  39.970   7.950
 6157POPC   C4A37974  28.399  39.984   7.650
 6157POPC   C1B37975  28.592  39.850   8.550
 6157POPC   C2B37976  28.575  39.884   8.250
 6157POPC   C3B37977  28.598  39.914   7.950
 6157POPC   C4B37978  28.637  39.861   7.650
 6158POPC   NC337979  34.566  20.612   9.450
 6158POPC   PO437980  34.623  20.569   9.150
 6158POPC   GL137981  34.581  20.581   8.850
 6158POPC   GL237982  34.640  20.777   8.850
 6158POPC   C1A37983  34.626  20.598   8.550
 6158POPC   D2A37984  34.578  20.628   8.250
 6158POPC   C3A37985  34.584  20.600   7.950
 6158POPC   C4A37986  34.587  20.633   7.650
 6158POPC   C1B37987  34.624  20.886   8.550
 6158POPC   C2B37988  34.579  20.836   8.250
 6158POPC   C3B37989  34.659  20.847   7.950
 6158POPC   C4B37990  34.598  20.887   7.650
 6159POPC   NC337991  42.304  38.452   9.450
 6159POPC   PO437992  42.312  38.488   9.150
 6159POPC   GL137993  42.322  38.449   8.850
 6159POPC   GL237994  42.315  38.513   8.850
 6159POPC   C1A37995  42.380  38.441   8.550
 6159POPC   D2A37996  42.357  38.406   8.250
 6159POPC   C3A37997  42.288  38.487   7.950
 6159POPC   C4A37998  42.310  38.431   7.650
 6159POPC   C1B37999  42.213  38.687   8.550
 6159POPC   C2B38000  42.208  38.633   8.250
 6159POPC   C3B38001  42.169  38.643   7.950
 6159POPC   C4B38002  42.213  38.694   7.650
 6160POPC   NC338003  29.169   1.168   9.450
 6160POPC   PO438004  29.190   1.166   9.150
 6160POPC   GL138005  29.174   1.199   8.850
 6160POPC   GL238006  29.226   1.316   8.850
 6160POPC   C1A38007  29.173   1.196   8.550
 6160POPC   D2A38008  29.192   1.244   8.250
 6160POPC   C3A38009  29.102   1.223   7.950
 6160POPC   C4A38010  29.179   1.202   7.650
 6160POPC   C1B38011  29.264   1.450   8.550
 6160POPC   C2B38012  29.199   1.446   8.250
 6160POPC   C3B38013  29.255   1.455   7.950
 6160POPC   C4B38014  29.267   1.405   7.650
 6161POPC   NC338015  42.312  34.548   9.450
 6161POPC   PO438016  42.300  34.583   9.150
 6161POPC   GL138017  42.285  34.551   8.850
 6161POPC   GL238018  42.457  34.534   8.850
 6161POPC   C1A38019  42.296  34.616   8.550
 6161POPC   D2A38020  42.287  34.541   8.250
 6161POPC   C3A38021  42.363  34.569   7.950
 6161POPC   C4A38022  42.383  34.572   7.650
 6161POPC   C1B38023  42.608  34.575   8.550
 6161POPC   C2B38024  42.558  34.635   8.250
 6161POPC   C3B38025  42.607  34.584   7.950
 6161POPC   C4B38026  42.534  34.621   7.650
 6162POPC   NC338027  25.993  32.208   9.450
 6162POPC   PO438028  26.068  32.223   9.150
 6162POPC   GL138029  26.028  32.245   8.850
 6162POPC   GL238030  26.089  32.116   8.850
 6162POPC   C1A38031  26.080  32.289   8.550
 6162POPC   D2A38032  26.071  32.199   8.250
 6162POPC   C3A38033  25.995  32.210   7.950
 6162POPC   C4A38034  26.058  32.201   7.650
 6162POPC   C1B38035  26.092  31.975   8.550
 6162POPC   C2B38036  26.134  31.981   8.250
 6162POPC   C3B38037  26.147  32.010   7.950
 6162POPC   C4B38038  26.124  32.032   7.650
 6163POPC   NC338039  29.911  30.707   9.450
 6163POPC   PO438040  29.887  30.647   9.150
 6163POPC   GL138041  29.886  30.694   8.850
 6163POPC   GL238042  29.778  30.798   8.850
 6163POPC   C1A38043  29.933  30.730   8.550
 6163POPC   D2A38044  29.925  30.648   8.250
 6163POPC   C3A38045  29.872  30.704   7.950
 6163POPC   C4A38046  29.965  30.656   7.650
 6163POPC   C1B38047  29.721  30.870   8.550
 6163POPC   C2B38048  29.729  30.799   8.250
 6163POPC   C3B38049  29.759  30.856   7.950
 6163POPC   C4B38050  29.689  30.862   7.650
 6164POPC   NC338051  16.711  34.564   9.450
 6164POPC   PO438052  16.775  34.536   9.150
 6164POPC   GL138053  16.771  34.537   8.850
 6164POPC   GL238054  16.573  34.585   8.850
 6164POPC   C1A38055  16.757  34.564   8.550
 6164POPC   D2A38056  16.731  34.551   8.250
 6164POPC   C3A38057  16.759  34.563   7.950
 6164POPC   C4A38058  16.707  34.537   7.650
 6164POPC   C1B38059  16.506  34.574   8.550
 6164POPC   C2B38060  16.456  34.570   8.250
 6164POPC   C3B38061  16.524  34.504   7.950
 6164POPC   C4B38062  16.527  34.548   7.650
 6165POPC   NC338063  22.189   7.420   9.450
 6165POPC   PO438064  22.210   7.453   9.150
 6165POPC   GL138065  22.167   7.413   8.850
 6165POPC   GL238066  22.246   7.389   8.850
 6165POPC   C1A38067  22.188   7.425   8.550
 6165POPC   D2A38068  22.140   7.460   8.250
 6165POPC   C3A38069  22.187   7.419   7.950
 6165POPC   C4A38070  22.148   7.432   7.650
 6165POPC   C1B38071  22.460   7.385   8.550
 6165POPC   C2B38072  22.392   7.452   8.250
 6165POPC   C3B38073  22.434   7.445   7.950
 6165POPC   C4B38074  22.393   7.478   7.650
 6166POPC   NC338075  24.530   2.027   9.450
 6166POPC   PO438076  24.480   2.021   9.150
 6166POPC   GL138077  24.459   2.012   8.850
 6166POPC   GL238078  24.490   2.116   8.850
 6166POPC   C1A38079  24.507   2.001   8.550
 6166POPC   D2A38080  24.536   2.005   8.250
 6166POPC   C3A38081  24.467   1.978   7.950
 6166POPC   C4A38082  24.440   2.018   7.650
 6166POPC   C1B38083  24.549   2.273   8.550
 6166POPC   C2B38084  24.562   2.231   8.250
 6166POPC   C3B38085  24.547   2.198   7.950
 6166POPC   C4B38086  24.537   2.208   7.650
 6167POPC   NC338087   8.975  15.143   9.450
 6167POPC   PO438088   8.940  15.186   9.150
 6167POPC   GL138089   8.999  15.208   8.850
 6167POPC   GL238090   8.923  15.230   8.850
 6167POPC   C1A38091   9.007  15.228   8.550
 6167POPC   D2A38092   8.934  15.171   8.250
 6167POPC   C3A38093   9.012  15.176   7.950
 6167POPC   C4A38094   9.014  15.162   7.650
 6167POPC   C1B38095   8.783  15.356   8.550
 6167POPC   C2B38096   8.858  15.361   8.250
 6167POPC   C3B38097   8.861  15.392   7.950
 6167POPC   C4B38098   8.845  15.378   7.650
 6168POPC   NC338099  29.097  44.663   9.450
 6168POPC   PO438100  29.176  44.699   9.150
 6168POPC   GL138101  29.106  44.658   8.850
 6168POPC   GL238102  29.105  44.735   8.850
 6168POPC   C1A38103  29.134  44.650   8.550
 6168POPC   D2A38104  29.122  44.709   8.250
 6168POPC   C3A38105  29.189  44.689   7.950
 6168POPC   C4A38106  29.167  44.633   7.650
 6168POPC   C1B38107  28.980  44.909   8.550
 6168POPC   C2B38108  28.983  44.919   8.250
 6168POPC   C3B38109  29.067  44.877   7.950
 6168POPC   C4B38110  29.066  44.899   7.650
 6169POPC   NC338111  22.125  34.550   9.450
 6169POPC   PO438112  22.206  34.580   9.150
 6169POPC   GL138113  22.174  34.539   8.850
 6169POPC   GL238114  22.136  34.479   8.850
 6169POPC   C1A38115  22.147  34.535   8.550
 6169POPC   D2A38116  22.211  34.529   8.250
 6169POPC   C3A38117  22.122  34.529   7.950
 6169POPC   C4A38118  22.206  34.554   7.650
 6169POPC   C1B38119  22.041  34.398   8.550
 6169POPC   C2B38120  22.068  34.379   8.250
 6169POPC   C3B38121  22.057  34.345   7.950
 6169POPC   C4B38122  22.076  34.383   7.650
 6170POPC   NC338123  26.838  15.940   9.450
 6170POPC   PO438124  26.858  15.955   9.150
 6170POPC   GL138125  26.838  15.914   8.850
 6170POPC   GL238126  26.648  15.970   8.850
 6170POPC   C1A38127  26.775  15.910   8.550
 6170POPC   D2A38128  26.823  15.969   8.250
 6170POPC   C3A38129  26.861  15.936   7.950
 6170POPC   C4A38130  26.837  15.959   7.650
 6170POPC   C1B38131  26.530  15.985   8.550
 6170POPC   C2B38132  26.591  15.964   8.250
 6170POPC   C3B38133  26.531  15.967   7.950
 6170POPC   C4B38134  26.592  15.928   7.650
 6171POPC   NC338135  24.449  20.615   9.450
 6171POPC   PO438136  24.490  20.592   9.150
 6171POPC   GL138137  24.483  20.653   8.850
 6171POPC   GL238138  24.598  20.691   8.850
 6171POPC   C1A38139  24.460  20.598   8.550
 6171POPC   D2A38140  24.527  20.580   8.250
 6171POPC   C3A38141  24.458  20.598   7.950
 6171POPC   C4A38142  24.489  20.565   7.650
 6171POPC   C1B38143  24.672  20.803   8.550
 6171POPC   C2B38144  24.613  20.858   8.250
 6171POPC   C3B38145  24.579  20.769   7.950
 6171POPC   C4B38146  24.618  20.846   7.650
 6172POPC   NC338147   1.226  38.464   9.450
 6172POPC   PO438148   1.191  38.493   9.150
 6172POPC   GL138149   1.249  38.468   8.850
 6172POPC   GL238150   1.056  38.384   8.850
 6172POPC   C1A38151   1.249  38.490   8.550
 6172POPC   D2A38152   1.191  38.435   8.250
 6172POPC   C3A38153   1.263  38.487   7.950
 6172POPC   C4A38154   1.188  38.502   7.650
 6172POPC   C1B38155   1.000  38.344   8.550
 6172POPC   C2B38156   0.970  38.328   8.250
 6172POPC   C3B38157   1.003  38.299   7.950
 6172POPC   C4B38158   0.982  38.382   7.650
 6173POPC   NC338159   0.417  44.665   9.450
 6173POPC   PO438160   0.390  44.659   9.150
 6173POPC   GL138161   0.436  44.654   8.850
 6173POPC   GL238162   0.500  44.830   8.850
 6173POPC   C1A38163   0.442  44.632   8.550
 6173POPC   D2A38164   0.474  44.646   8.250
 6173POPC   C3A38165   0.395  44.673   7.950
 6173POPC   C4A38166   0.468  44.704   7.650
 6173POPC   C1B38167   0.451  44.860   8.550
 6173POPC   C2B38168   0.502  44.865   8.250
 6173POPC   C3B38169   0.447  44.857   7.950
 6173POPC   C4B38170   0.443  44.897   7.650
 6174POPC   NC338171  20.608  33.025   9.450
 6174POPC   PO438172  20.649  32.989   9.150
 6174POPC   GL138173  20.579  33.028   8.850
 6174POPC   GL238174  20.556  32.891   8.850
 6174POPC   C1A38175  20.640  33.044   8.550
 6174POPC   D2A38176  20.563  33.047   8.250
 6174POPC   C3A38177  20.638  33.072   7.950
 6174POPC   C4A38178  20.631  33.068   7.650
 6174POPC   C1B38179  20.435  32.850   8.550
 6174POPC   C2B38180  20.434  32.841   8.250
 6174POPC   C3B38181  20.443  32.803   7.950
 6174POPC   C4B38182  20.445  32.845   7.650
 6175POPC   NC338183  44.642  33.841   9.450
 6175POPC   PO438184  44.662  33.789   9.150
 6175POPC   GL138185  44.629  33.759   8.850
 6175POPC   GL238186  44.627  33.680   8.850
 6175POPC   C1A38187  44.653  33.802   8.550
 6175POPC   D2A38188  44.663  33.774   8.250
 6175POPC   C3A38189  44.662  33.841   7.950
 6175POPC   C4A38190  44.614  33.759   7.650
 6175POPC   C1B38191  44.568  33.543   8.550
 6175POPC   C2B38192  44.573  33.579   8.250
 6175POPC   C3B38193  44.542  33.614   7.950
 6175POPC   C4B38194  44.579  33.594   7.650
 6176POPC   NC338195  25.298  14.356   9.450
 6176POPC   PO438196  25.310  14.444   9.150
 6176POPC   GL138197  25.304  14.392   8.850
 6176POPC   GL238198  25.229  14.537   8.850
 6176POPC   C1A38199  25.305  14.373   8.550
 6176POPC   D2A38200  25.220  14.384   8.250
 6176POPC   C3A38201  25.231  14.384   7.950
 6176POPC   C4A38202  25.233  14.406   7.650
 6176POPC   C1B38203  25.121  14.594   8.550
 6176POPC   C2B38204  25.099  14.618   8.250
 6176POPC   C3B38205  25.105  14.624   7.950
 6176POPC   C4B38206  25.126  14.646   7.650
 6177POPC   NC338207  27.576  35.315   9.450
 6177POPC   PO438208  27.640  35.379   9.150
 6177POPC   GL138209  27.582  35.320   8.850
 6177POPC   GL238210  27.465  35.489   8.850
 6177POPC   C1A38211  27.574  35.327   8.550
 6177POPC   D2A38212  27.603  35.361   8.250
 6177POPC   C3A38213  27.561  35.318   7.950
 6177POPC   C4A38214  27.570  35.343   7.650
 6177POPC   C1B38215  27.385  35.500   8.550
 6177POPC   C2B38216  27.462  35.557   8.250
 6177POPC   C3B38217  27.465  35.569   7.950
 6177POPC   C4B38218  27.393  35.565   7.650
 6178POPC   NC338219  19.831  35.322   9.450
 6178POPC   PO438220  19.825  35.303   9.150
 6178POPC   GL138221  19.884  35.314   8.850
 6178POPC   GL238222  19.918  35.475   8.850
 6178POPC   C1A38223  19.841  35.374   8.550
 6178POPC   D2A38224  19.851  35.332   8.250
 6178POPC   C3A38225  19.815  35.347   7.950
 6178POPC   C4A38226  19.867  35.337   7.650
 6178POPC   C1B38227  19.936  35.540   8.550
 6178POPC   C2B38228  19.968  35.515   8.250
 6178POPC   C3B38229  19.946  35.518   7.950
 6178POPC   C4B38230  19.985  35.555   7.650
 6179POPC   NC338231   3.566  37.720   9.450
 6179POPC   PO438232   3.573  37.712   9.150
 6179POPC   GL138233   3.575  37.658   8.850
 6179POPC   GL238234   3.593  37.538   8.850
 6179POPC   C1A38235   3.507  37.716   8.550
 6179POPC   D2A38236   3.532  37.639   8.250
 6179POPC   C3A38237   3.540  37.700   7.950
 6179POPC   C4A38238   3.555  37.635   7.650
 6179POPC   C1B38239   3.625  37.417   8.550
 6179POPC   C2B38240   3.623  37.454   8.250
 6179POPC   C3B38241   3.583  37.409   7.950
 6179POPC   C4B38242   3.577  37.454   7.650
 6180POPC   NC338243  27.568  26.048   9.450
 6180POPC   PO438244  27.571  26.021   9.150
 6180POPC   GL138245  27.626  26.072   8.850
 6180POPC   GL238246  27.494  26.072   8.850
 6180POPC   C1A38247  27.591  26.051   8.550
 6180POPC   D2A38248  27.611  26.049   8.250
 6180POPC   C3A38249  27.626  25.995   7.950
 6180POPC   C4A38250  27.633  26.073   7.650
 6180POPC   C1B38251  27.411  26.153   8.550
 6180POPC   C2B38252  27.389  26.194   8.250
 6180POPC   C3B38253  27.332  26.178   7.950
 6180POPC   C4B38254  27.375  26.186   7.650
 6181POPC   NC338255  12.046   7.411   9.450
 6181POPC   PO438256  12.088   7.420   9.150
 6181POPC   GL138257  12.048   7.406   8.850
 6181POPC   GL238258  11.909   7.434   8.850
 6181POPC   C1A38259  12.042   7.374   8.550
 6181POPC   D2A38260  12.054   7.393   8.250
 6181POPC   C3A38261  12.050   7.373   7.950
 6181POPC   C4A38262  12.092   7.393   7.650
 6181POPC   C1B38263  11.836   7.355   8.550
 6181POPC   C2B38264  11.806   7.426   8.250
 6181POPC   C3B38265  11.788   7.447   7.950
 6181POPC   C4B38266  11.800   7.440   7.650
 6182POPC   NC338267  26.843   3.512   9.450
 6182POPC   PO438268  26.844   3.585   9.150
 6182POPC   GL138269  26.840   3.533   8.850
 6182POPC   GL238270  26.911   3.609   8.850
 6182POPC   C1A38271  26.824   3.512   8.550
 6182POPC   D2A38272  26.769   3.525   8.250
 6182POPC   C3A38273  26.772   3.529   7.950
 6182POPC   C4A38274  26.769   3.515   7.650
 6182POPC   C1B38275  26.937   3.734   8.550
 6182POPC   C2B38276  26.986   3.724   8.250
 6182POPC   C3B38277  27.034   3.756   7.950
 6182POPC   C4B38278  27.008   3.709   7.650
 6183POPC   NC338279  22.963   5.055   9.450
 6183POPC   PO438280  22.958   5.073   9.150
 6183POPC   GL138281  22.911   5.141   8.850
 6183POPC   GL238282  22.788   5.032   8.850
 6183POPC   C1A38283  22.988   5.064   8.550
 6183POPC   D2A38284  22.946   5.067   8.250
 6183POPC   C3A38285  22.920   5.114   7.950
 6183POPC   C4A38286  22.974   5.126   7.650
 6183POPC   C1B38287  22.759   4.966   8.550
 6183POPC   C2B38288  22.691   4.910   8.250
 6183POPC   C3B38289  22.750   5.006   7.950
 6183POPC   C4B38290  22.679   4.998   7.650
 6184POPC   NC338291   1.218  36.906   9.450
 6184POPC   PO438292   1.198  36.921   9.150
 6184POPC   GL138293   1.190  36.951   8.850
 6184POPC   GL238294   1.127  36.881   8.850
 6184POPC   C1A38295   1.169  36.864   8.550
 6184POPC   D2A38296   1.177  36.891   8.250
 6184POPC   C3A38297   1.264  36.908   7.950
 6184POPC   C4A38298   1.220  36.924   7.650
 6184POPC   C1B38299   0.951  36.849   8.550
 6184POPC   C2B38300   0.941  36.869   8.250
 6184POPC   C3B38301   1.003  36.862   7.950
 6184POPC   C4B38302   1.015  36.835   7.650
 6185POPC   NC338303  12.070  41.558   9.450
 6185POPC   PO438304  12.071  41.576   9.150
 6185POPC   GL138305  12.124  41.556   8.850
 6185POPC   GL238306  11.958  41.479   8.850
 6185POPC   C1A38307  12.084  41.548   8.550
 6185POPC   D2A38308  12.051  41.539   8.250
 6185POPC   C3A38309  12.098  41.555   7.950
 6185POPC   C4A38310  12.119  41.585   7.650
 6185POPC   C1B38311  11.875  41.442   8.550
 6185POPC   C2B38312  11.886  41.403   8.250
 6185POPC   C3B38313  11.865  41.419   7.950
 6185POPC   C4B38314  11.887  41.416   7.650
 6186POPC   NC338315  41.555  14.393   9.450
 6186POPC   PO438316  41.574  14.354   9.150
 6186POPC   GL138317  41.543  14.398   8.850
 6186POPC   GL238318  41.522  14.290   8.850
 6186POPC   C1A38319  41.563  14.383   8.550
 6186POPC   D2A38320  41.558  14.409   8.250
 6186POPC   C3A38321  41.573  14.422   7.950
 6186POPC   C4A38322  41.605  14.425   7.650
 6186POPC   C1B38323  41.475  14.136   8.550
 6186POPC   C2B38324  41.502  14.202   8.250
 6186POPC   C3B38325  41.482  14.217   7.950
 6186POPC   C4B38326  41.499  14.164   7.650
 6187POPC   NC338327   4.287  17.493   9.450
 6187POPC   PO438328   4.318  17.477   9.150
 6187POPC   GL138329   4.355  17.472   8.850
 6187POPC   GL238330   4.214  17.518   8.850
 6187POPC   C1A38331   4.267  17.533   8.550
 6187POPC   D2A38332   4.356  17.541   8.250
 6187POPC   C3A38333   4.320  17.473   7.950
 6187POPC   C4A38334   4.308  17.544   7.650
 6187POPC   C1B38335   4.087  17.592   8.550
 6187POPC   C2B38336   4.103  17.526   8.250
 6187POPC   C3B38337   4.035  17.577   7.950
 6187POPC   C4B38338   4.066  17.540   7.650
 6188POPC   NC338339  34.609  40.007   9.450
 6188POPC   PO438340  34.599  40.045   9.150
 6188POPC   GL138341  34.592  40.017   8.850
 6188POPC   GL238342  34.628  39.935   8.850
 6188POPC   C1A38343  34.613  40.051   8.550
 6188POPC   D2A38344  34.585  39.973   8.250
 6188POPC   C3A38345  34.556  40.007   7.950
 6188POPC   C4A38346  34.526  40.014   7.650
 6188POPC   C1B38347  34.644  39.724   8.550
 6188POPC   C2B38348  34.614  39.808   8.250
 6188POPC   C3B38349  34.674  39.766   7.950
 6188POPC   C4B38350  34.610  39.752   7.650
 6189POPC   NC338351  44.614  30.742   9.450
 6189POPC   PO438352  44.684  30.657   9.150
 6189POPC   GL138353  44.629  30.744   8.850
 6189POPC   GL238354  44.764  30.753   8.850
 6189POPC   C1A38355  44.687  30.690   8.550
 6189POPC   D2A38356  44.703  30.707   8.250
 6189POPC   C3A38357  44.653  30.707   7.950
 6189POPC   C4A38358  44.668  30.685   7.650
 6189POPC   C1B38359  44.895  30.742   8.550
 6189POPC   C2B38360  44.878  30.720   8.250
 6189POPC   C3B38361  44.929  30.748   7.950
 6189POPC   C4B38362  44.936  30.696   7.650
 6190POPC   NC338363  24.525  30.690   9.450
 6190POPC   PO438364  24.517  30.694   9.150
 6190POPC   GL138365  24.452  30.725   8.850
 6190POPC   GL238366  24.653  30.774   8.850
 6190POPC   C1A38367  24.535  30.653   8.550
 6190POPC   D2A38368  24.492  30.681   8.250
 6190POPC   C3A38369  24.507  30.711   7.950
 6190POPC   C4A38370  24.499  30.672   7.650
 6190POPC   C1B38371  24.732  30.742   8.550
 6190POPC   C2B38372  24.711  30.784   8.250
 6190POPC   C3B38373  24.732  30.802   7.950
 6190POPC   C4B38374  24.752  30.780   7.650
 6191POPC   NC338375  43.069   7.447   9.450
 6191POPC   PO438376  43.132   7.403   9.150
 6191POPC   GL138377  43.160   7.403   8.850
 6191POPC   GL238378  43.012   7.297   8.850
 6191POPC   C1A38379  43.154   7.409   8.550
 6191POPC   D2A38380  43.083   7.438   8.250
 6191POPC   C3A38381  43.091   7.384   7.950
 6191POPC   C4A38382  43.088   7.388   7.650
 6191POPC   C1B38383  43.012   7.215   8.550
 6191POPC   C2B38384  42.989   7.200   8.250
 6191POPC   C3B38385  42.960   7.192   7.950
 6191POPC   C4B38386  42.983   7.176   7.650
 6192POPC   NC338387   3.574  22.952   9.450
 6192POPC   PO438388   3.521  22.926   9.150
 6192POPC   GL138389   3.493  22.899   8.850
 6192POPC   GL238390   3.556  23.040   8.850
 6192POPC   C1A38391   3.574  22.889   8.550
 6192POPC   D2A38392   3.491  22.940   8.250
 6192POPC   C3A38393   3.565  22.958   7.950
 6192POPC   C4A38394   3.502  22.935   7.650
 6192POPC   C1B38395   3.476  23.185   8.550
 6192POPC   C2B38396   3.438  23.180   8.250
 6192POPC   C3B38397   3.480  23.196   7.950
 6192POPC   C4B38398   3.467  23.169   7.650
 6193POPC   NC338399  43.123  43.158   9.450
 6193POPC   PO438400  43.083  43.110   9.150
 6193POPC   GL138401  43.061  43.113   8.850
 6193POPC   GL238402  43.231  43.136   8.850
 6193POPC   C1A38403  43.065  43.061   8.550
 6193POPC   D2A38404  43.093  43.135   8.250
 6193POPC   C3A38405  43.140  43.093   7.950
 6193POPC   C4A38406  43.143  43.117   7.650
 6193POPC   C1B38407  43.312  43.226   8.550
 6193POPC   C2B38408  43.278  43.265   8.250
 6193POPC   C3B38409  43.284  43.213   7.950
 6193POPC   C4B38410  43.283  43.256   7.650
 6194POPC   NC338411  25.240  12.061   9.450
 6194POPC   PO438412  25.236  12.028   9.150
 6194POPC   GL138413  25.278  12.085   8.850
 6194POPC   GL238414  25.362  12.149   8.850
 6194POPC   C1A38415  25.250  12.032   8.550
 6194POPC   D2A38416  25.217  12.072   8.250
 6194POPC   C3A38417  25.304  12.057   7.950
 6194POPC   C4A38418  25.297  12.062   7.650
 6194POPC   C1B38419  25.481  12.203   8.550
 6194POPC   C2B38420  25.490  12.148   8.250
 6194POPC   C3B38421  25.507  12.144   7.950
 6194POPC   C4B38422  25.503  12.195   7.650
 6195POPC   NC338423  31.444  28.358   9.450
 6195POPC   PO438424  31.510  28.342   9.150
 6195POPC   GL138425  31.519  28.334   8.850
 6195POPC   GL238426  31.373  28.516   8.850
 6195POPC   C1A38427  31.457  28.380   8.550
 6195POPC   D2A38428  31.440  28.343   8.250
 6195POPC   C3A38429  31.488  28.324   7.950
 6195POPC   C4A38430  31.430  28.327   7.650
 6195POPC   C1B38431  31.407  28.592   8.550
 6195POPC   C2B38432  31.356  28.566   8.250
 6195POPC   C3B38433  31.326  28.636   7.950
 6195POPC   C4B38434  31.347  28.636   7.650
 6196POPC   NC338435  33.818  23.693   9.450
 6196POPC   PO438436  33.753  23.743   9.150
 6196POPC   GL138437  33.831  23.722   8.850
 6196POPC   GL238438  33.776  23.811   8.850
 6196POPC   C1A38439  33.767  23.749   8.550
 6196POPC   D2A38440  33.817  23.665   8.250
 6196POPC   C3A38441  33.818  23.755   7.950
 6196POPC   C4A38442  33.824  23.669   7.650
 6196POPC   C1B38443  33.714  23.993   8.550
 6196POPC   C2B38444  33.721  23.950   8.250
 6196POPC   C3B38445  33.704  23.930   7.950
 6196POPC   C4B38446  33.700  23.982   7.650
 6197POPC   NC338447  27.625  23.693   9.450
 6197POPC   PO438448  27.590  23.720   9.150
 6197POPC   GL138449  27.641  23.669   8.850
 6197POPC   GL238450  27.450  23.601   8.850
 6197POPC   C1A38451  27.577  23.722   8.550
 6197POPC   D2A38452  27.642  23.750   8.250
 6197POPC   C3A38453  27.593  23.742   7.950
 6197POPC   C4A38454  27.563  23.711   7.650
 6197POPC   C1B38455  27.403  23.550   8.550
 6197POPC   C2B38456  27.348  23.618   8.250
 6197POPC   C3B38457  27.420  23.629   7.950
 6197POPC   C4B38458  27.410  23.539   7.650
 6198POPC   NC338459  20.650  24.500   9.450
 6198POPC   PO438460  20.649  24.532   9.150
 6198POPC   GL138461  20.578  24.512   8.850
 6198POPC   GL238462  20.761  24.512   8.850
 6198POPC   C1A38463  20.638  24.474   8.550
 6198POPC   D2A38464  20.650  24.526   8.250
 6198POPC   C3A38465  20.575  24.479   7.950
 6198POPC   C4A38466  20.601  24.477   7.650
 6198POPC   C1B38467  20.874  24.532   8.550
 6198POPC   C2B38468  20.807  24.542   8.250
 6198POPC   C3B38469  20.840  24.552   7.950
 6198POPC   C4B38470  20.901  24.586   7.650
 6199POPC   NC338471  14.366   5.131   9.450
 6199POPC   PO438472  14.401   5.082   9.150
 6199POPC   GL138473  14.408   5.055   8.850
 6199POPC   GL238474  14.330   5.013   8.850
 6199POPC   C1A38475  14.451   5.123   8.550
 6199POPC   D2A38476  14.374   5.121   8.250
 6199POPC   C3A38477  14.369   5.107   7.950
 6199POPC   C4A38478  14.413   5.070   7.650
 6199POPC   C1B38479  14.161   4.921   8.550
 6199POPC   C2B38480  14.188   4.930   8.250
 6199POPC   C3B38481  14.217   4.982   7.950
 6199POPC   C4B38482  14.202   4.921   7.650
 6200POPC   NC338483  36.079  40.779   9.450
 6200POPC   PO438484  36.140  40.767   9.150
 6200POPC   GL138485  36.167  40.782   8.850
 6200POPC   GL238486  35.993  40.883   8.850
 6200POPC   C1A38487  36.160  40.796   8.550
 6200POPC   D2A38488  36.157  40.819   8.250
 6200POPC   C3A38489  36.133  40.809   7.950
 6200POPC   C4A38490  36.079  40.740   7.650
 6200POPC   C1B38491  35.907  40.897   8.550
 6200POPC   C2B38492  35.966  40.902   8.250
 6200POPC   C3B38493  35.960  40.951   7.950
 6200POPC   C4B38494  35.930  40.968   7.650
 6201POPC   NC338495  26.826  43.145   9.450
 6201POPC   PO438496  26.846  43.151   9.150
 6201POPC   GL138497  26.808  43.089   8.850
 6201POPC   GL238498  26.895  43.118   8.850
 6201POPC   C1A38499  26.801  43.154   8.550
 6201POPC   D2A38500  26.777  43.071   8.250
 6201POPC   C3A38501  26.847  43.075   7.950
 6201POPC   C4A38502  26.863  43.114   7.650
 6201POPC   C1B38503  27.113  43.137   8.550
 6201POPC   C2B38504  27.065  43.158   8.250
 6201POPC   C3B38505  27.047  43.132   7.950
 6201POPC   C4B38506  27.024  43.176   7.650
 6202POPC   NC338507   9.777  15.185   9.450
 6202POPC   PO438508   9.770  15.219   9.150
 6202POPC   GL138509   9.721  15.145   8.850
 6202POPC   GL238510   9.840  15.339   8.850
 6202POPC   C1A38511   9.727  15.158   8.550
 6202POPC   D2A38512   9.773  15.133   8.250
 6202POPC   C3A38513   9.773  15.161   7.950
 6202POPC   C4A38514   9.728  15.186   7.650
 6202POPC   C1B38515   9.894  15.373   8.550
 6202POPC   C2B38516   9.862  15.441   8.250
 6202POPC   C3B38517   9.871  15.406   7.950
 6202POPC   C4B38518   9.891  15.446   7.650
 6203POPC   NC338519  14.379  29.144   9.450
 6203POPC   PO438520  14.405  29.173   9.150
 6203POPC   GL138521  14.415  29.113   8.850
 6203POPC   GL238522  14.288  29.239   8.850
 6203POPC   C1A38523  14.385  29.155   8.550
 6203POPC   D2A38524  14.388  29.191   8.250
 6203POPC   C3A38525  14.388  29.153   7.950
 6203POPC   C4A38526  14.428  29.170   7.650
 6203POPC   C1B38527  14.223  29.272   8.550
 6203POPC   C2B38528  14.155  29.305   8.250
 6203POPC   C3B38529  14.170  29.242   7.950
 6203POPC   C4B38530  14.198  29.300   7.650
 6204POPC   NC338531  32.273  26.793   9.450
 6204POPC   PO438532  32.275  26.801   9.150
 6204POPC   GL138533  32.199  26.810   8.850
 6204POPC   GL238534  32.140  26.892   8.850
 6204POPC   C1A38535  32.274  26.836   8.550
 6204POPC   D2A38536  32.211  26.837   8.250
 6204POPC   C3A38537  32.255  26.859   7.950
 6204POPC   C4A38538  32.256  26.770   7.650
 6204POPC   C1B38539  32.024  27.003   8.550
 6204POPC   C2B38540  32.073  26.980   8.250
 6204POPC   C3B38541  32.107  26.959   7.950
 6204POPC   C4B38542  32.063  27.038   7.650
 6205POPC   NC338543  33.803  40.819   9.450
 6205POPC   PO438544  33.790  40.782   9.150
 6205POPC   GL138545  33.773  40.750   8.850
 6205POPC   GL238546  33.849  40.913   8.850
 6205POPC   C1A38547  33.765  40.769   8.550
 6205POPC   D2A38548  33.804  40.771   8.250
 6205POPC   C3A38549  33.759  40.736   7.950
 6205POPC   C4A38550  33.772  40.738   7.650
 6205POPC   C1B38551  33.922  40.966   8.550
 6205POPC   C2B38552  33.908  41.025   8.250
 6205POPC   C3B38553  33.893  41.048   7.950
 6205POPC   C4B38554  33.899  41.017   7.650
 6206POPC   NC338555  40.777  26.085   9.450
 6206POPC   PO438556  40.735  26.058   9.150
 6206POPC   GL138557  40.757  26.041   8.850
 6206POPC   GL238558  40.943  25.968   8.850
 6206POPC   C1A38559  40.785  26.056   8.550
 6206POPC   D2A38560  40.742  26.016   8.250
 6206POPC   C3A38561  40.734  26.045   7.950
 6206POPC   C4A38562  40.767  26.081   7.650
 6206POPC   C1B38563  41.001  26.001   8.550
 6206POPC   C2B38564  41.034  25.941   8.250
 6206POPC   C3B38565  41.012  25.949   7.950
 6206POPC   C4B38566  40.990  25.945   7.650
 6207POPC   NC338567  10.479  16.750   9.450
 6207POPC   PO438568  10.500  16.730   9.150
 6207POPC   GL138569  10.489  16.704   8.850
 6207POPC   GL238570  10.494  16.842   8.850
 6207POPC   C1A38571  10.480  16.766   8.550
 6207POPC   D2A38572  10.559  16.775   8.250
 6207POPC   C3A38573  10.544  16.721   7.950
 6207POPC   C4A38574  10.570  16.713   7.650
 6207POPC   C1B38575  10.492  16.965   8.550
 6207POPC   C2B38576  10.470  16.966   8.250
 6207POPC   C3B38577  10.478  16.943   7.950
 6207POPC   C4B38578  10.491  17.002   7.650
 6208POPC   NC338579  22.962   1.221   9.450
 6208POPC   PO438580  22.890   1.194   9.150
 6208POPC   GL138581  22.896   1.197   8.850
 6208POPC   GL238582  22.800   1.207   8.850
 6208POPC   C1A38583  22.969   1.200   8.550
 6208POPC   D2A38584  22.966   1.239   8.250
 6208POPC   C3A38585  22.907   1.173   7.950
 6208POPC   C4A38586  22.908   1.258   7.650
 6208POPC   C1B38587  22.674   1.204   8.550
 6208POPC   C2B38588  22.650   1.195   8.250
 6208POPC   C3B38589  22.661   1.231   7.950
 6208POPC   C4B38590  22.699   1.237   7.650
 6209POPC   NC338591  15.218  16.701   9.450
 6209POPC   PO438592  15.219  16.705   9.150
 6209POPC   GL138593  15.192  16.772   8.850
 6209POPC   GL238594  15.062  16.607   8.850
 6209POPC   C1A38595  15.152  16.737   8.550
 6209POPC   D2A38596  15.191  16.683   8.250
 6209POPC   C3A38597  15.184  16.722   7.950
 6209POPC   C4A38598  15.228  16.732   7.650
 6209POPC   C1B38599  15.019  16.557   8.550
 6209POPC   C2B38600  14.953  16.531   8.250
 6209POPC   C3B38601  14.987  16.610   7.950
 6209POPC   C4B38602  14.970  16.513   7.650
 6210POPC   NC338603  44.620  19.049   9.450
 6210POPC   PO438604  44.667  19.028   9.150
 6210POPC   GL138605  44.665  19.060   8.850
 6210POPC   GL238606  44.741  19.015   8.850
 6210POPC   C1A38607  44.648  19.102   8.550
 6210POPC   D2A38608  44.693  19.056   8.250
 6210POPC   C3A38609  44.637  19.082   7.950
 6210POPC   C4A38610  44.691  19.094   7.650
 6210POPC   C1B38611  44.944  19.022   8.550
 6210POPC   C2B38612  44.921  19.002   8.250
 6210POPC   C3B38613  44.884  18.985   7.950
 6210POPC   C4B38614  44.914  19.005   7.650
 6211POPC   NC338615   0.412  33.031   9.450
 6211POPC   PO438616   0.395  33.071   9.150
 6211POPC   GL138617   0.449  32.986   8.850
 6211POPC   GL238618   0.482  33.144   8.850
 6211POPC   C1A38619   0.422  33.024   8.550
 6211POPC   D2A38620   0.484  33.028   8.250
 6211POPC   C3A38621   0.452  32.983   7.950
 6211POPC   C4A38622   0.394  33.015   7.650
 6211POPC   C1B38623   0.503  33.224   8.550
 6211POPC   C2B38624   0.453  33.269   8.250
 6211POPC   C3B38625   0.503  33.303   7.950
 6211POPC   C4B38626   0.462  33.257   7.650
 6212POPC   NC338627   1.184   6.683   9.450
 6212POPC   PO438628   1.200   6.614   9.150
 6212POPC   GL138629   1.166   6.663   8.850
 6212POPC   GL238630   1.125   6.539   8.850
 6212POPC   C1A38631   1.244   6.631   8.550
 6212POPC   D2A38632   1.211   6.662   8.250
 6212POPC   C3A38633   1.186   6.621   7.950
 6212POPC   C4A38634   1.245   6.693   7.650
 6212POPC   C1B38635   1.089   6.474   8.550
 6212POPC   C2B38636   1.126   6.425   8.250
 6212POPC   C3B38637   1.103   6.420   7.950
 6212POPC   C4B38638   1.062   6.444   7.650
 6213POPC   NC338639  28.334   0.396   9.450
 6213POPC   PO438640  28.354   0.420   9.150
 6213POPC   GL138641  28.372   0.409   8.850
 6213POPC   GL238642  28.411   0.323   8.850
 6213POPC   C1A38643  28.401   0.454   8.550
 6213POPC   D2A38644  28.403   0.451   8.250
 6213POPC   C3A38645  28.336   0.436   7.950
 6213POPC   C4A38646  28.418   0.415   7.650
 6213POPC   C1B38647  28.511   0.219   8.550
 6213POPC   C2B38648  28.565   0.216   8.250
 6213POPC   C3B38649  28.568   0.199   7.950
 6213POPC   C4B38650  28.500   0.268   7.650
 6214POPC   NC338651  39.250  32.985   9.450
 6214POPC   PO438652  39.225  33.035   9.150
 6214POPC   GL138653  39.185  33.045   8.850
 6214POPC   GL238654  39.087  33.133   8.850
 6214POPC   C1A38655  39.268  33.059   8.550
 6214POPC   D2A38656  39.229  33.056   8.250
 6214POPC   C3A38657  39.265  33.007   7.950
 6214POPC   C4A38658  39.188  33.059   7.650
 6214POPC   C1B38659  39.061  33.163   8.550
 6214POPC   C2B38660  39.039  33.204   8.250
 6214POPC   C3B38661  38.990  33.206   7.950
 6214POPC   C4B38662  38.990  33.208   7.650
 6215POPC   NC338663  26.004  11.327   9.450
 6215POPC   PO438664  26.050  11.267   9.150
 6215POPC   GL138665  26.014  11.330   8.850
 6215POPC   GL238666  26.152  11.304   8.850
 6215POPC   C1A38667  26.001  11.266   8.550
 6215POPC   D2A38668  26.084  11.283   8.250
 6215POPC   C3A38669  26.076  11.271   7.950
 6215POPC   C4A38670  26.029  11.348   7.650
 6215POPC   C1B38671  26.265  11.237   8.550
 6215POPC   C2B38672  26.275  11.259   8.250
 6215POPC   C3B38673  26.308  11.224   7.950
 6215POPC   C4B38674  26.310  11.233   7.650
 6216POPC   NC338675  27.602  39.991   9.450
 6216POPC   PO438676  27.582  40.033   9.150
 6216POPC   GL138677  27.624  40.019   8.850
 6216POPC   GL238678  27.716  39.998   8.850
 6216POPC   C1A38679  27.577  40.023   8.550
 6216POPC   D2A38680  27.544  40.057   8.250
 6216POPC   C3A38681  27.576  40.056   7.950
 6216POPC   C4A38682  27.598  40.045   7.650
 6216POPC   C1B38683  27.796  39.968   8.550
 6216POPC   C2B38684  27.890  39.978   8.250
 6216POPC   C3B38685  27.835  40.028   7.950
 6216POPC   C4B38686  27.801  39.960   7.650
 6217POPC   NC338687  22.153   0.400   9.450
 6217POPC   PO438688  22.204   0.404   9.150
 6217POPC   GL138689  22.133   0.390   8.850
 6217POPC   GL238690  22.111   0.272   8.850
 6217POPC   C1A38691  22.134   0.402   8.550
 6217POPC   D2A38692  22.143   0.453   8.250
 6217POPC   C3A38693  22.136   0.394   7.950
 6217POPC   C4A38694  22.207   0.420   7.650
 6217POPC   C1B38695  22.095   0.178   8.550
 6217POPC   C2B38696  22.139   0.180   8.250
 6217POPC   C3B38697  22.133   0.170   7.950
 6217POPC   C4B38698  22.099   0.237   7.650
 6218POPC   NC338699  43.845  32.228   9.450
 6218POPC   PO438700  43.860  32.273   9.150
 6218POPC   GL138701  43.924  32.259   8.850
 6218POPC   GL238702  43.753  32.299   8.850
 6218POPC   C1A38703  43.882  32.276   8.550
 6218POPC   D2A38704  43.840  32.237   8.250
 6218POPC   C3A38705  43.882  32.207   7.950
 6218POPC   C4A38706  43.904  32.204   7.650
 6218POPC   C1B38707  43.629  32.355   8.550
 6218POPC   C2B38708  43.655  32.429   8.250
 6218POPC   C3B38709  43.625  32.414   7.950
 6218POPC   C4B38710  43.664  32.387   7.650
 6219POPC   NC338711  15.180  43.141   9.450
 6219POPC   PO438712  15.144  43.103   9.150
 6219POPC   GL138713  15.179  43.094   8.850
 6219POPC   GL238714  15.072  43.066   8.850
 6219POPC   C1A38715  15.169  43.065   8.550
 6219POPC   D2A38716  15.203  43.117   8.250
 6219POPC   C3A38717  15.224  43.147   7.950
 6219POPC   C4A38718  15.131  43.098   7.650
 6219POPC   C1B38719  14.920  43.053   8.550
 6219POPC   C2B38720  14.965  43.067   8.250
 6219POPC   C3B38721  14.905  42.984   7.950
 6219POPC   C4B38722  14.970  43.014   7.650
 6220POPC   NC338723   5.114  18.263   9.450
 6220POPC   PO438724   5.048  18.298   9.150
 6220POPC   GL138725   5.107  18.307   8.850
 6220POPC   GL238726   5.072  18.365   8.850
 6220POPC   C1A38727   5.100  18.303   8.550
 6220POPC   D2A38728   5.141  18.264   8.250
 6220POPC   C3A38729   5.138  18.284   7.950
 6220POPC   C4A38730   5.102  18.319   7.650
 6220POPC   C1B38731   5.055  18.520   8.550
 6220POPC   C2B38732   5.010  18.526   8.250
 6220POPC   C3B38733   5.060  18.513   7.950
 6220POPC   C4B38734   5.047  18.516   7.650
 6221POPC   NC338735  14.375  24.503   9.450
 6221POPC   PO438736  14.427  24.522   9.150
 6221POPC   GL138737  14.383  24.475   8.850
 6221POPC   GL238738  14.493  24.588   8.850
 6221POPC   C1A38739  14.400  24.515   8.550
 6221POPC   D2A38740  14.424  24.510   8.250
 6221POPC   C3A38741  14.385  24.505   7.950
 6221POPC   C4A38742  14.403  24.460   7.650
 6221POPC   C1B38743  14.545  24.753   8.550
 6221POPC   C2B38744  14.531  24.721   8.250
 6221POPC   C3B38745  14.542  24.713   7.950
 6221POPC   C4B38746  14.527  24.674   7.650
 6222POPC   NC338747  24.493  40.789   9.450
 6222POPC   PO438748  24.516  40.781   9.150
 6222POPC   GL138749  24.440  40.825   8.850
 6222POPC   GL238750  24.428  40.888   8.850
 6222POPC   C1A38751  24.532  40.791   8.550
 6222POPC   D2A38752  24.510  40.764   8.250
 6222POPC   C3A38753  24.447  40.810   7.950
 6222POPC   C4A38754  24.530  40.795   7.650
 6222POPC   C1B38755  24.267  40.860   8.550
 6222POPC   C2B38756  24.231  40.922   8.250
 6222POPC   C3B38757  24.236  40.883   7.950
 6222POPC   C4B38758  24.220  40.931   7.650
 6223POPC   NC338759  14.420  26.821   9.450
 6223POPC   PO438760  14.430  26.857   9.150
 6223POPC   GL138761  14.417  26.784   8.850
 6223POPC   GL238762  14.475  26.867   8.850
 6223POPC   C1A38763  14.396  26.773   8.550
 6223POPC   D2A38764  14.373  26.810   8.250
 6223POPC   C3A38765  14.404  26.810   7.950
 6223POPC   C4A38766  14.380  26.843   7.650
 6223POPC   C1B38767  14.527  27.052   8.550
 6223POPC   C2B38768  14.575  26.961   8.250
 6223POPC   C3B38769  14.613  27.007   7.950
 6223POPC   C4B38770  14.604  26.970   7.650
 6224POPC   NC338771  22.156   1.964   9.450
 6224POPC   PO438772  22.176   1.976   9.150
 6224POPC   GL138773  22.171   2.015   8.850
 6224POPC   GL238774  22.128   1.847   8.850
 6224POPC   C1A38775  22.159   1.991   8.550
 6224POPC   D2A38776  22.121   1.991   8.250
 6224POPC   C3A38777  22.132   2.015   7.950
 6224POPC   C4A38778  22.187   2.007   7.650
 6224POPC   C1B38779  22.106   1.786   8.550
 6224POPC   C2B38780  22.050   1.749   8.250
 6224POPC   C3B38781  22.092   1.765   7.950
 6224POPC   C4B38782  22.100   1.769   7.650
 6225POPC   NC338783  36.878  28.350   9.450
 6225POPC   PO438784  36.863  28.410   9.150
 6225POPC   GL138785  36.902  28.324   8.850
 6225POPC   GL238786  36.958  28.246   8.850
 6225POPC   C1A38787  36.922  28.359   8.550
 6225POPC   D2A38788  36.914  28.326   8.250
 6225POPC   C3A38789  36.895  28.415   7.950
 6225POPC   C4A38790  36.876  28.322   7.650
 6225POPC   C1B38791  37.057  28.139   8.550
 6225POPC   C2B38792  37.098  28.204   8.250
 6225POPC   C3B38793  37.073  28.195   7.950
 6225POPC   C4B38794  37.095  28.205   7.650
 6226POPC   NC338795  40.785   3.575   9.450
 6226POPC   PO438796  40.744   3.569   9.150
 6226POPC   GL138797  40.778   3.557   8.850
 6226POPC   GL238798  40.620   3.626   8.850
 6226POPC   C1A38799  40.740   3.506   8.550
 6226POPC   D2A38800  40.802   3.576   8.250
 6226POPC   C3A38801  40.791   3.506   7.950
 6226POPC   C4A38802  40.770   3.569   7.650
 6226POPC   C1B38803  40.598   3.604   8.550
 6226POPC   C2B38804  40.579   3.679   8.250
 6226POPC   C3B38805  40.526   3.627   7.950
 6226POPC   C4B38806  40.588   3.598   7.650
 6227POPC   NC338807  13.613  33.824   9.450
 6227POPC   PO438808  13.653  33.784   9.150
 6227POPC   GL138809  13.638  33.808   8.850
 6227POPC   GL238810  13.461  33.823   8.850
 6227POPC   C1A38811  13.676  33.812   8.550
 6227POPC   D2A38812  13.582  33.811   8.250
 6227POPC   C3A38813  13.646  33.834   7.950
 6227POPC   C4A38814  13.661  33.776   7.650
 6227POPC   C1B38815  13.385  33.918   8.550
 6227POPC   C2B38816  13.391  33.848   8.250
 6227POPC   C3B38817  13.366  33.843   7.950
 6227POPC   C4B38818  13.441  33.855   7.650
 6228POPC   NC338819   1.205  35.324   9.450
 6228POPC   PO438820   1.174  35.346   9.150
 6228POPC   GL138821   1.240  35.334   8.850
 6228POPC   GL238822   1.119  35.270   8.850
 6228POPC   C1A38823   1.196  35.395   8.550
 6228POPC   D2A38824   1.164  35.349   8.250
 6228POPC   C3A38825   1.182  35.371   7.950
 6228POPC   C4A38826   1.177  35.371   7.650
 6228POPC   C1B38827   0.976  35.224   8.550
 6228POPC   C2B38828   0.966  35.169   8.250
 6228POPC   C3B38829   1.026  35.160   7.950
 6228POPC   C4B38830   0.997  35.250   7.650
 6229POPC   NC338831  12.832  17.535   9.450
 6229POPC   PO438832  12.876  17.555   9.150
 6229POPC   GL138833  12.836  17.550   8.850
 6229POPC   GL238834  12.953  17.594   8.850
 6229POPC   C1A38835  12.835  17.525   8.550
 6229POPC   D2A38836  12.878  17.461   8.250
 6229POPC   C3A38837  12.873  17.481   7.950
 6229POPC   C4A38838  12.804  17.554   7.650
 6229POPC   C1B38839  12.968  17.694   8.550
 6229POPC   C2B38840  12.953  17.752   8.250
 6229POPC   C3B38841  13.019  17.719   7.950
 6229POPC   C4B38842  12.980  17.714   7.650
 6230POPC   NC338843  38.491  19.046   9.450
 6230POPC   PO438844  38.477  19.049   9.150
 6230POPC   GL138845  38.462  19.108   8.850
 6230POPC   GL238846  38.452  18.943   8.850
 6230POPC   C1A38847  38.417  19.099   8.550
 6230POPC   D2A38848  38.482  19.104   8.250
 6230POPC   C3A38849  38.500  19.092   7.950
 6230POPC   C4A38850  38.505  19.065   7.650
 6230POPC   C1B38851  38.486  18.778   8.550
 6230POPC   C2B38852  38.453  18.834   8.250
 6230POPC   C3B38853  38.489  18.789   7.950
 6230POPC   C4B38854  38.518  18.822   7.650
 6231POPC   NC338855  17.464  29.924   9.450
 6231POPC   PO438856  17.532  29.924   9.150
 6231POPC   GL138857  17.530  29.944   8.850
 6231POPC   GL238858  17.455  30.022   8.850
 6231POPC   C1A38859  17.514  29.927   8.550
 6231POPC   D2A38860  17.512  29.953   8.250
 6231POPC   C3A38861  17.469  29.876   7.950
 6231POPC   C4A38862  17.485  29.959   7.650
 6231POPC   C1B38863  17.338  30.112   8.550
 6231POPC   C2B38864  17.306  30.118   8.250
 6231POPC   C3B38865  17.393  30.120   7.950
 6231POPC   C4B38866  17.330  30.108   7.650
 6232POPC   NC338867   4.332  32.977   9.450
 6232POPC   PO438868   4.362  33.001   9.150
 6232POPC   GL138869   4.350  33.016   8.850
 6232POPC   GL238870   4.437  32.974   8.850
 6232POPC   C1A38871   4.359  33.044   8.550
 6232POPC   D2A38872   4.334  33.063   8.250
 6232POPC   C3A38873   4.337  33.061   7.950
 6232POPC   C4A38874   4.270  33.034   7.650
 6232POPC   C1B38875   4.476  32.856   8.550
 6232POPC   C2B38876   4.506  32.849   8.250
 6232POPC   C3B38877   4.555  32.890   7.950
 6232POPC   C4B38878   4.476  32.874   7.650
 6233POPC   NC338879  22.893  31.506   9.450
 6233POPC   PO438880  22.974  31.502   9.150
 6233POPC   GL138881  22.944  31.521   8.850
 6233POPC   GL238882  22.866  31.306   8.850
 6233POPC   C1A38883  22.987  31.478   8.550
 6233POPC   D2A38884  22.948  31.512   8.250
 6233POPC   C3A38885  22.979  31.467   7.950
 6233POPC   C4A38886  22.910  31.426   7.650
 6233POPC   C1B38887  22.801  31.255   8.550
 6233POPC   C2B38888  22.817  31.283   8.250
 6233POPC   C3B38889  22.897  31.269   7.950
 6233POPC   C4B38890  22.840  31.255   7.650
 6234POPC   NC338891  19.108  28.364   9.450
 6234POPC   PO438892  19.053  28.404   9.150
 6234POPC   GL138893  19.045  28.394   8.850
 6234POPC   GL238894  19.181  28.243   8.850
 6234POPC   C1A38895  19.079  28.406   8.550
 6234POPC   D2A38896  19.092  28.360   8.250
 6234POPC   C3A38897  19.013  28.357   7.950
 6234POPC   C4A38898  19.019  28.351   7.650
 6234POPC   C1B38899  19.213  28.181   8.550
 6234POPC   C2B38900  19.168  28.186   8.250
 6234POPC   C3B38901  19.180  28.141   7.950
 6234POPC   C4B38902  19.177  28.181   7.650
 6235POPC   NC338903  22.174  37.672   9.450
 6235POPC   PO438904  22.169  37.638   9.150
 6235POPC   GL138905  22.201  37.703   8.850
 6235POPC   GL238906  22.220  37.759   8.850
 6235POPC   C1A38907  22.198  37.705   8.550
 6235POPC   D2A38908  22.203  37.630   8.250
 6235POPC   C3A38909  22.182  37.645   7.950
 6235POPC   C4A38910  22.141  37.638   7.650
 6235POPC   C1B38911  22.363  37.830   8.550
 6235POPC   C2B38912  22.326  37.828   8.250
 6235POPC   C3B38913  22.375  37.785   7.950
 6235POPC   C4B38914  22.337  37.796   7.650
 6236POPC   NC338915  34.553  26.792   9.450
 6236POPC   PO438916  34.576  26.857   9.150
 6236POPC   GL138917  34.592  26.858   8.850
 6236POPC   GL238918  34.712  26.858   8.850
 6236POPC   C1A38919  34.597  26.783   8.550
 6236POPC   D2A38920  34.573  26.775   8.250
 6236POPC   C3A38921  34.618  26.782   7.950
 6236POPC   C4A38922  34.617  26.775   7.650
 6236POPC   C1B38923  34.806  26.932   8.550
 6236POPC   C2B38924  34.743  27.022   8.250
 6236POPC   C3B38925  34.811  26.933   7.950
 6236POPC   C4B38926  34.788  26.974   7.650
 6237POPC   NC338927  21.401  36.874   9.450
 6237POPC   PO438928  21.422  36.880   9.150
 6237POPC   GL138929  21.405  36.904   8.850
 6237POPC   GL238930  21.475  36.988   8.850
 6237POPC   C1A38931  21.356  36.887   8.550
 6237POPC   D2A38932  21.382  36.937   8.250
 6237POPC   C3A38933  21.374  36.860   7.950
 6237POPC   C4A38934  21.388  36.913   7.650
 6237POPC   C1B38935  21.528  37.133   8.550
 6237POPC   C2B38936  21.592  37.037   8.250
 6237POPC   C3B38937  21.546  37.117   7.950
 6237POPC   C4B38938  21.563  37.111   7.650
 6238POPC   NC338939  34.596  35.320   9.450
 6238POPC   PO438940  34.589  35.385   9.150
 6238POPC   GL138941  34.615  35.329   8.850
 6238POPC   GL238942  34.589  35.433   8.850
 6238POPC   C1A38943  34.588  35.350   8.550
 6238POPC   D2A38944  34.548  35.371   8.250
 6238POPC   C3A38945  34.605  35.377   7.950
 6238POPC   C4A38946  34.557  35.386   7.650
 6238POPC   C1B38947  34.609  35.558   8.550
 6238POPC   C2B38948  34.600  35.627   8.250
 6238POPC   C3B38949  34.641  35.636   7.950
 6238POPC   C4B38950  34.564  35.580   7.650
 6239POPC   NC338951   9.717   8.980   9.450
 6239POPC   PO438952   9.764   9.020   9.150
 6239POPC   GL138953   9.726   8.977   8.850
 6239POPC   GL238954   9.880   8.984   8.850
 6239POPC   C1A38955   9.756   8.996   8.550
 6239POPC   D2A38956   9.749   8.957   8.250
 6239POPC   C3A38957   9.772   8.967   7.950
 6239POPC   C4A38958   9.793   8.983   7.650
 6239POPC   C1B38959  10.003   9.006   8.550
 6239POPC   C2B38960   9.987   9.010   8.250
 6239POPC   C3B38961  10.047   8.999   7.950
 6239POPC   C4B38962  10.040   8.966   7.650
 6240POPC   NC338963   4.268  20.649   9.450
 6240POPC   PO438964   4.296  20.603   9.150
 6240POPC   GL138965   4.310  20.611   8.850
 6240POPC   GL238966   4.470  20.604   8.850
 6240POPC   C1A38967   4.321  20.638   8.550
 6240POPC   D2A38968   4.360  20.565   8.250
 6240POPC   C3A38969   4.295  20.589   7.950
 6240POPC   C4A38970   4.363  20.653   7.650
 6240POPC   C1B38971   4.584  20.541   8.550
 6240POPC   C2B38972   4.553  20.610   8.250
 6240POPC   C3B38973   4.556  20.532   7.950
 6240POPC   C4B38974   4.610  20.527   7.650
 6241POPC   NC338975  26.809  24.494   9.450
 6241POPC   PO438976  26.801  24.492   9.150
 6241POPC   GL138977  26.795  24.496   8.850
 6241POPC   GL238978  26.973  24.464   8.850
 6241POPC   C1A38979  26.851  24.477   8.550
 6241POPC   D2A38980  26.800  24.505   8.250
 6241POPC   C3A38981  26.837  24.525   7.950
 6241POPC   C4A38982  26.823  24.492   7.650
 6241POPC   C1B38983  27.013  24.402   8.550
 6241POPC   C2B38984  27.038  24.455   8.250
 6241POPC   C3B38985  27.065  24.415   7.950
 6241POPC   C4B38986  27.036  24.422   7.650
 6242POPC   NC338987   9.756  43.870   9.450
 6242POPC   PO438988   9.782  43.936   9.150
 6242POPC   GL138989   9.789  43.870   8.850
 6242POPC   GL238990   9.758  44.009   8.850
 6242POPC   C1A38991   9.785  43.896   8.550
 6242POPC   D2A38992   9.742  43.863   8.250
 6242POPC   C3A38993   9.712  43.917   7.950
 6242POPC   C4A38994   9.725  43.921   7.650
 6242POPC   C1B38995   9.769  44.112   8.550
 6242POPC   C2B38996   9.794  44.160   8.250
 6242POPC   C3B38997   9.739  44.126   7.950
 6242POPC   C4B38998   9.800  44.125   7.650
 6243POPC   NC338999  43.863  22.908   9.450
 6243POPC   PO439000  43.910  22.978   9.150
 6243POPC   GL139001  43.883  22.923   8.850
 6243POPC   GL239002  43.782  22.928   8.850
 6243POPC   C1A39003  43.858  22.919   8.550
 6243POPC   D2A39004  43.914  22.917   8.250
 6243POPC   C3A39005  43.909  22.982   7.950
 6243POPC   C4A39006  43.921  22.962   7.650
 6243POPC   C1B39007  43.620  22.860   8.550
 6243POPC   C2B39008  43.652  22.917   8.250
 6243POPC   C3B39009  43.599  22.917   7.950
 6243POPC   C4B39010  43.607  22.880   7.650
 6244POPC   NC339011  14.384  43.855   9.450
 6244POPC   PO439012  14.421  43.894   9.150
 6244POPC   GL139013  14.360  43.901   8.850
 6244POPC   GL239014  14.372  43.784   8.850
 6244POPC   C1A39015  14.418  43.874   8.550
 6244POPC   D2A39016  14.359  43.837   8.250
 6244POPC   C3A39017  14.416  43.900   7.950
 6244POPC   C4A39018  14.418  43.902   7.650
 6244POPC   C1B39019  14.439  43.609   8.550
 6244POPC   C2B39020  14.437  43.657   8.250
 6244POPC   C3B39021  14.440  43.652   7.950
 6244POPC   C4B39022  14.464  43.686   7.650
 6245POPC   NC339023  38.444  22.176   9.450
 6245POPC   PO439024  38.453  22.112   9.150
 6245POPC   GL139025  38.415  22.207   8.850
 6245POPC   GL239026  38.537  22.140   8.850
 6245POPC   C1A39027  38.411  22.169   8.550
 6245POPC   D2A39028  38.477  22.180   8.250
 6245POPC   C3A39029  38.436  22.175   7.950
 6245POPC   C4A39030  38.451  22.197   7.650
 6245POPC   C1B39031  38.671  22.106   8.550
 6245POPC   C2B39032  38.718  22.098   8.250
 6245POPC   C3B39033  38.704  22.079   7.950
 6245POPC   C4B39034  38.750  22.149   7.650
 6246POPC   NC339035  25.228  11.345   9.450
 6246POPC   PO439036  25.277  11.268   9.150
 6246POPC   GL139037  25.235  11.334   8.850
 6246POPC   GL239038  25.418  11.282   8.850
 6246POPC   C1A39039  25.263  11.293   8.550
 6246POPC   D2A39040  25.245  11.312   8.250
 6246POPC   C3A39041  25.235  11.262   7.950
 6246POPC   C4A39042  25.274  11.310   7.650
 6246POPC   C1B39043  25.544  11.214   8.550
 6246POPC   C2B39044  25.458  11.162   8.250
 6246POPC   C3B39045  25.517  11.203   7.950
 6246POPC   C4B39046  25.490  11.220   7.650
 6247POPC   NC339047  22.184   3.497   9.450
 6247POPC   PO439048  22.120   3.574   9.150
 6247POPC   GL139049  22.130   3.492   8.850
 6247POPC   GL239050  22.149   3.620   8.850
 6247POPC   C1A39051  22.113   3.583   8.550
 6247POPC   D2A39052  22.137   3.585   8.250
 6247POPC   C3A39053  22.167   3.494   7.950
 6247POPC   C4A39054  22.148   3.540   7.650
 6247POPC   C1B39055  22.122   3.775   8.550
 6247POPC   C2B39056  22.094   3.807   8.250
 6247POPC   C3B39057  22.152   3.814   7.950
 6247POPC   C4B39058  22.131   3.776   7.650
 6248POPC   NC339059  30.688   7.379   9.450
 6248POPC   PO439060  30.690   7.408   9.150
 6248POPC   GL139061  30.656   7.449   8.850
 6248POPC   GL239062  30.522   7.458   8.850
 6248POPC   C1A39063  30.660   7.383   8.550
 6248POPC   D2A39064  30.669   7.436   8.250
 6248POPC   C3A39065  30.697   7.391   7.950
 6248POPC   C4A39066  30.745   7.433   7.650
 6248POPC   C1B39067  30.493   7.404   8.550
 6248POPC   C2B39068  30.409   7.393   8.250
 6248POPC   C3B39069  30.434   7.357   7.950
 6248POPC   C4B39070  30.494   7.433   7.650
 6249POPC   NC339071   5.080  43.869   9.450
 6249POPC   PO439072   5.084  43.883   9.150
 6249POPC   GL139073   5.088  43.845   8.850
 6249POPC   GL239074   5.174  44.019   8.850
 6249POPC   C1A39075   5.135  43.915   8.550
 6249POPC   D2A39076   5.092  43.859   8.250
 6249POPC   C3A39077   5.061  43.875   7.950
 6249POPC   C4A39078   5.071  43.871   7.650
 6249POPC   C1B39079   5.248  44.146   8.550
 6249POPC   C2B39080   5.185  44.126   8.250
 6249POPC   C3B39081   5.209  44.117   7.950
 6249POPC   C4B39082   5.215  44.061   7.650
 6250POPC   NC339083  26.773  33.768   9.450
 6250POPC   PO439084  26.813  33.796   9.150
 6250POPC   GL139085  26.789  33.757   8.850
 6250POPC   GL239086  26.725  33.887   8.850
 6250POPC   C1A39087  26.789  33.824   8.550
 6250POPC   D2A39088  26.815  33.839   8.250
 6250POPC   C3A39089  26.852  33.811   7.950
 6250POPC   C4A39090  26.777  33.832   7.650
 6250POPC   C1B39091  26.734  34.026   8.550
 6250POPC   C2B39092  26.750  33.982   8.250
 6250POPC   C3B39093  26.736  34.003   7.950
 6250POPC   C4B39094  26.678  33.977   7.650
 6251POPC   NC339095  36.096   0.442   9.450
 6251POPC   PO439096  36.110   0.463   9.150
 6251POPC   GL139097  36.085   0.453   8.850
 6251POPC   GL239098  36.127   0.582   8.850
 6251POPC   C1A39099  36.126   0.396   8.550
 6251POPC   D2A39100  36.159   0.444   8.250
 6251POPC   C3A39101  36.160   0.470   7.950
 6251POPC   C4A39102  36.108   0.451   7.650
 6251POPC   C1B39103  36.140   0.703   8.550
 6251POPC   C2B39104  36.048   0.693   8.250
 6251POPC   C3B39105  36.065   0.713   7.950
 6251POPC   C4B39106  36.137   0.662   7.650
 6252POPC   NC339107   8.964  42.330   9.450
 6252POPC   PO439108   8.933  42.331   9.150
 6252POPC   GL139109   8.945  42.358   8.850
 6252POPC   GL239110   9.015  42.482   8.850
 6252POPC   C1A39111   8.953  42.371   8.550
 6252POPC   D2A39112   8.981  42.368   8.250
 6252POPC   C3A39113   8.940  42.290   7.950
 6252POPC   C4A39114   8.973  42.363   7.650
 6252POPC   C1B39115   9.070  42.558   8.550
 6252POPC   C2B39116   9.083  42.519   8.250
 6252POPC   C3B39117   9.065  42.563   7.950
 6252POPC   C4B39118   9.097  42.610   7.650
 6253POPC   NC339119  26.073  15.160   9.450
 6253POPC   PO439120  26.057  15.205   9.150
 6253POPC   GL139121  26.026  15.145   8.850
 6253POPC   GL239122  26.011  15.261   8.850
 6253POPC   C1A39123  26.088  15.146   8.550
 6253POPC   D2A39124  26.042  15.186   8.250
 6253POPC   C3A39125  26.083  15.210   7.950
 6253POPC   C4A39126  26.057  15.175   7.650
 6253POPC   C1B39127  25.948  15.390   8.550
 6253POPC   C2B39128  25.933  15.365   8.250
 6253POPC   C3B39129  25.928  15.389   7.950
 6253POPC   C4B39130  25.905  15.360   7.650
 6254POPC   NC339131  30.665  39.215   9.450
 6254POPC   PO439132  30.650  39.236   9.150
 6254POPC   GL139133  30.700  39.236   8.850
 6254POPC   GL239134  30.665  39.305   8.850
 6254POPC   C1A39135  30.737  39.233   8.550
 6254POPC   D2A39136  30.669  39.203   8.250
 6254POPC   C3A39137  30.720  39.258   7.950
 6254POPC   C4A39138  30.721  39.205   7.650
 6254POPC   C1B39139  30.622  39.421   8.550
 6254POPC   C2B39140  30.566  39.418   8.250
 6254POPC   C3B39141  30.636  39.498   7.950
 6254POPC   C4B39142  30.594  39.499   7.650
 6255POPC   NC339143   2.721  27.559   9.450
 6255POPC   PO439144   2.783  27.627   9.150
 6255POPC   GL139145   2.731  27.551   8.850
 6255POPC   GL239146   2.727  27.506   8.850
 6255POPC   C1A39147   2.777  27.623   8.550
 6255POPC   D2A39148   2.726  27.590   8.250
 6255POPC   C3A39149   2.757  27.634   7.950
 6255POPC   C4A39150   2.776  27.587   7.650
 6255POPC   C1B39151   2.674  27.309   8.550
 6255POPC   C2B39152   2.677  27.351   8.250
 6255POPC   C3B39153   2.723  27.390   7.950
 6255POPC   C4B39154   2.716  27.396   7.650
 6256POPC   NC339155  38.419  43.139   9.450
 6256POPC   PO439156  38.443  43.119   9.150
 6256POPC   GL139157  38.451  43.130   8.850
 6256POPC   GL239158  38.372  43.218   8.850
 6256POPC   C1A39159  38.432  43.128   8.550
 6256POPC   D2A39160  38.459  43.061   8.250
 6256POPC   C3A39161  38.446  43.091   7.950
 6256POPC   C4A39162  38.499  43.102   7.650
 6256POPC   C1B39163  38.315  43.305   8.550
 6256POPC   C2B39164  38.293  43.337   8.250
 6256POPC   C3B39165  38.272  43.357   7.950
 6256POPC   C4B39166  38.264  43.350   7.650
 6257POPC   NC339167  23.736  36.145   9.450
 6257POPC   PO439168  23.718  36.105   9.150
 6257POPC   GL139169  23.759  36.174   8.850
 6257POPC   GL239170  23.747  36.250   8.850
 6257POPC   C1A39171  23.709  36.092   8.550
 6257POPC   D2A39172  23.698  36.106   8.250
 6257POPC   C3A39173  23.703  36.159   7.950
 6257POPC   C4A39174  23.763  36.149   7.650
 6257POPC   C1B39175  23.891  36.380   8.550
 6257POPC   C2B39176  23.885  36.381   8.250
 6257POPC   C3B39177  23.832  36.362   7.950
 6257POPC   C4B39178  23.871  36.326   7.650
 6258POPC   NC339179  27.564   1.258   9.450
 6258POPC   PO439180  27.588   1.228   9.150
 6258POPC   GL139181  27.627   1.261   8.850
 6258POPC   GL239182  27.675   1.299   8.850
 6258POPC   C1A39183  27.553   1.215   8.550
 6258POPC   D2A39184  27.640   1.173   8.250
 6258POPC   C3A39185  27.567   1.234   7.950
 6258POPC   C4A39186  27.642   1.263   7.650
 6258POPC   C1B39187  27.652   1.417   8.550
 6258POPC   C2B39188  27.692   1.443   8.250
 6258POPC   C3B39189  27.663   1.410   7.950
 6258POPC   C4B39190  27.682   1.486   7.650
 6259POPC   NC339191  14.371  11.332   9.450
 6259POPC   PO439192  14.432  11.326   9.150
 6259POPC   GL139193  14.355  11.322   8.850
 6259POPC   GL239194  14.396  11.205   8.850
 6259POPC   C1A39195  14.354  11.269   8.550
 6259POPC   D2A39196  14.434  11.331   8.250
 6259POPC   C3A39197  14.405  11.264   7.950
 6259POPC   C4A39198  14.388  11.333   7.650
 6259POPC   C1B39199  14.493  11.109   8.550
 6259POPC   C2B39200  14.451  11.028   8.250
 6259POPC   C3B39201  14.471  11.013   7.950
 6259POPC   C4B39202  14.460  11.063   7.650
 6260POPC   NC339203   4.364   4.357   9.450
 6260POPC   PO439204   4.363   4.306   9.150
 6260POPC   GL139205   4.307   4.322   8.850
 6260POPC   GL239206   4.155   4.314   8.850
 6260POPC   C1A39207   4.293   4.306   8.550
 6260POPC   D2A39208   4.354   4.344   8.250
 6260POPC   C3A39209   4.365   4.319   7.950
 6260POPC   C4A39210   4.292   4.269   7.650
 6260POPC   C1B39211   4.024   4.334   8.550
 6260POPC   C2B39212   4.117   4.293   8.250
 6260POPC   C3B39213   4.095   4.316   7.950
 6260POPC   C4B39214   4.066   4.246   7.650
 6261POPC   NC339215  30.666  30.666   9.450
 6261POPC   PO439216  30.698  30.685   9.150
 6261POPC   GL139217  30.648  30.732   8.850
 6261POPC   GL239218  30.760  30.836   8.850
 6261POPC   C1A39219  30.718  30.654   8.550
 6261POPC   D2A39220  30.666  30.647   8.250
 6261POPC   C3A39221  30.723  30.719   7.950
 6261POPC   C4A39222  30.671  30.675   7.650
 6261POPC   C1B39223  30.728  30.965   8.550
 6261POPC   C2B39224  30.738  30.928   8.250
 6261POPC   C3B39225  30.716  30.905   7.950
 6261POPC   C4B39226  30.802  30.932   7.650
 6262POPC   NC339227  24.462   5.134   9.450
 6262POPC   PO439228  24.463   5.113   9.150
 6262POPC   GL139229  24.487   5.115   8.850
 6262POPC   GL239230  24.483   4.986   8.850
 6262POPC   C1A39231  24.492   5.129   8.550
 6262POPC   D2A39232  24.488   5.055   8.250
 6262POPC   C3A39233  24.537   5.128   7.950
 6262POPC   C4A39234  24.480   5.113   7.650
 6262POPC   C1B39235  24.492   4.811   8.550
 6262POPC   C2B39236  24.498   4.862   8.250
 6262POPC   C3B39237  24.521   4.884   7.950
 6262POPC   C4B39238  24.546   4.839   7.650
 6263POPC   NC339239  28.352  39.259   9.450
 6263POPC   PO439240  28.389  39.276   9.150
 6263POPC   GL139241  28.363  39.221   8.850
 6263POPC   GL239242  28.282  39.289   8.850
 6263POPC   C1A39243  28.381  39.204   8.550
 6263POPC   D2A39244  28.416  39.226   8.250
 6263POPC   C3A39245  28.413  39.271   7.950
 6263POPC   C4A39246  28.363  39.269   7.650
 6263POPC   C1B39247  28.257  39.485   8.550
 6263POPC   C2B39248  28.277  39.459   8.250
 6263POPC   C3B39249  28.199  39.442   7.950
 6263POPC   C4B39250  28.277  39.403   7.650
 6264POPC   NC339251  43.100  16.768   9.450
 6264POPC   PO439252  43.157  16.695   9.150
 6264POPC   GL139253  43.064  16.701   8.850
 6264POPC   GL239254  43.221  16.660   8.850
 6264POPC   C1A39255  43.151  16.704   8.550
 6264POPC   D2A39256  43.092  16.750   8.250
 6264POPC   C3A39257  43.115  16.709   7.950
 6264POPC   C4A39258  43.064  16.770   7.650
 6264POPC   C1B39259  43.312  16.550   8.550
 6264POPC   C2B39260  43.314  16.570   8.250
 6264POPC   C3B39261  43.314  16.591   7.950
 6264POPC   C4B39262  43.288  16.509   7.650
 6265POPC   NC339263  16.682  10.528   9.450
 6265POPC   PO439264  16.742  10.508   9.150
 6265POPC   GL139265  16.771  10.504   8.850
 6265POPC   GL239266  16.794  10.400   8.850
 6265POPC   C1A39267  16.763  10.492   8.550
 6265POPC   D2A39268  16.696  10.536   8.250
 6265POPC   C3A39269  16.776  10.523   7.950
 6265POPC   C4A39270  16.772  10.540   7.650
 6265POPC   C1B39271  16.855  10.335   8.550
 6265POPC   C2B39272  16.862  10.281   8.250
 6265POPC   C3B39273  16.826  10.256   7.950
 6265POPC   C4B39274  16.837  10.306   7.650
 6266POPC   NC339275  25.303  17.496   9.450
 6266POPC   PO439276  25.305  17.540   9.150
 6266POPC   GL139277  25.244  17.506   8.850
 6266POPC   GL239278  25.377  17.541   8.850
 6266POPC   C1A39279  25.298  17.469   8.550
 6266POPC   D2A39280  25.216  17.555   8.250
 6266POPC   C3A39281  25.218  17.517   7.950
 6266POPC   C4A39282  25.225  17.498   7.650
 6266POPC   C1B39283  25.539  17.558   8.550
 6266POPC   C2B39284  25.483  17.585   8.250
 6266POPC   C3B39285  25.478  17.604   7.950
 6266POPC   C4B39286  25.499  17.611   7.650
 6267POPC   NC339287   2.809  29.955   9.450
 6267POPC   PO439288   2.760  29.920   9.150
 6267POPC   GL139289   2.777  29.932   8.850
 6267POPC   GL239290   2.849  29.918   8.850
 6267POPC   C1A39291   2.745  29.878   8.550
 6267POPC   D2A39292   2.743  29.913   8.250
 6267POPC   C3A39293   2.779  29.900   7.950
 6267POPC   C4A39294   2.768  29.969   7.650
 6267POPC   C1B39295   2.990  29.948   8.550
 6267POPC   C2B39296   3.036  30.004   8.250
 6267POPC   C3B39297   3.001  29.986   7.950
 6267POPC   C4B39298   3.018  29.985   7.650
 6268POPC   NC339299  27.621  29.166   9.450
 6268POPC   PO439300  27.579  29.124   9.150
 6268POPC   GL139301  27.620  29.096   8.850
 6268POPC   GL239302  27.637  29.242   8.850
 6268POPC   C1A39303  27.568  29.152   8.550
 6268POPC   D2A39304  27.630  29.134   8.250
 6268POPC   C3A39305  27.604  29.117   7.950
 6268POPC   C4A39306  27.583  29.113   7.650
 6268POPC   C1B39307  27.711  29.367   8.550
 6268POPC   C2B39308  27.702  29.319   8.250
 6268POPC   C3B39309  27.757  29.377   7.950
 6268POPC   C4B39310  27.729  29.392   7.650
 6269POPC   NC339311   8.173   4.275   9.450
 6269POPC   PO439312   8.168   4.272   9.150
 6269POPC   GL139313   8.192   4.341   8.850
 6269POPC   GL239314   8.075   4.204   8.850
 6269POPC   C1A39315   8.161   4.294   8.550
 6269POPC   D2A39316   8.204   4.278   8.250
 6269POPC   C3A39317   8.238   4.291   7.950
 6269POPC   C4A39318   8.153   4.299   7.650
 6269POPC   C1B39319   7.999   4.121   8.550
 6269POPC   C2B39320   7.998   4.111   8.250
 6269POPC   C3B39321   7.965   4.159   7.950
 6269POPC   C4B39322   8.021   4.120   7.650
 6270POPC   NC339323  19.830  25.304   9.450
 6270POPC   PO439324  19.873  25.290   9.150
 6270POPC   GL139325  19.810  25.246   8.850
 6270POPC   GL239326  19.832  25.160   8.850
 6270POPC   C1A39327  19.849  25.257   8.550
 6270POPC   D2A39328  19.820  25.291   8.250
 6270POPC   C3A39329  19.827  25.241   7.950
 6270POPC   C4A39330  19.823  25.295   7.650
 6270POPC   C1B39331  19.804  25.025   8.550
 6270POPC   C2B39332  19.883  24.989   8.250
 6270POPC   C3B39333  19.810  25.062   7.950
 6270POPC   C4B39334  19.812  24.981   7.650
 6271POPC   NC339335  33.022   5.055   9.450
 6271POPC   PO439336  32.986   5.055   9.150
 6271POPC   GL139337  33.021   5.100   8.850
 6271POPC   GL239338  33.182   5.023   8.850
 6271POPC   C1A39339  33.026   5.063   8.550
 6271POPC   D2A39340  33.068   5.059   8.250
 6271POPC   C3A39341  33.046   5.098   7.950
 6271POPC   C4A39342  33.028   5.143   7.650
 6271POPC   C1B39343  33.249   4.930   8.550
 6271POPC   C2B39344  33.261   4.966   8.250
 6271POPC   C3B39345  33.268   5.018   7.950
 6271POPC   C4B39346  33.193   5.011   7.650
 6272POPC   NC339347  16.747  41.524   9.450
 6272POPC   PO439348  16.703  41.526   9.150
 6272POPC   GL139349  16.721  41.591   8.850
 6272POPC   GL239350  16.624  41.510   8.850
 6272POPC   C1A39351  16.705  41.524   8.550
 6272POPC   D2A39352  16.710  41.567   8.250
 6272POPC   C3A39353  16.768  41.534   7.950
 6272POPC   C4A39354  16.757  41.510   7.650
 6272POPC   C1B39355  16.592  41.396   8.550
 6272POPC   C2B39356  16.579  41.355   8.250
 6272POPC   C3B39357  16.565  41.386   7.950
 6272POPC   C4B39358  16.605  41.383   7.650
 6273POPC   NC339359  30.717  10.484   9.450
 6273POPC   PO439360  30.735  10.569   9.150
 6273POPC   GL139361  30.699  10.485   8.850
 6273POPC   GL239362  30.771  10.402   8.850
 6273POPC   C1A39363  30.670  10.574   8.550
 6273POPC   D2A39364  30.702  10.558   8.250
 6273POPC   C3A39365  30.655  10.558   7.950
 6273POPC   C4A39366  30.659  10.512   7.650
 6273POPC   C1B39367  30.808  10.280   8.550
 6273POPC   C2B39368  30.810  10.356   8.250
 6273POPC   C3B39369  30.861  10.301   7.950
 6273POPC   C4B39370  30.843  10.280   7.650
 6274POPC   NC339371  12.823  22.923   9.450
 6274POPC   PO439372  12.854  22.954   9.150
 6274POPC   GL139373  12.831  22.888   8.850
 6274POPC   GL239374  12.720  22.915   8.850
 6274POPC   C1A39375  12.827  22.903   8.550
 6274POPC   D2A39376  12.804  22.904   8.250
 6274POPC   C3A39377  12.894  22.972   7.950
 6274POPC   C4A39378  12.843  22.903   7.650
 6274POPC   C1B39379  12.559  22.894   8.550
 6274POPC   C2B39380  12.613  22.965   8.250
 6274POPC   C3B39381  12.617  22.946   7.950
 6274POPC   C4B39382  12.558  22.901   7.650
 6275POPC   NC339383  35.391  26.808   9.450
 6275POPC   PO439384  35.370  26.834   9.150
 6275POPC   GL139385  35.349  26.821   8.850
 6275POPC   GL239386  35.428  26.929   8.850
 6275POPC   C1A39387  35.309  26.840   8.550
 6275POPC   D2A39388  35.362  26.795   8.250
 6275POPC   C3A39389  35.343  26.799   7.950
 6275POPC   C4A39390  35.373  26.797   7.650
 6275POPC   C1B39391  35.504  27.021   8.550
 6275POPC   C2B39392  35.470  27.057   8.250
 6275POPC   C3B39393  35.479  27.012   7.950
 6275POPC   C4B39394  35.467  27.018   7.650
 6276POPC   NC339395  32.239  21.369   9.450
 6276POPC   PO439396  32.272  21.435   9.150
 6276POPC   GL139397  32.204  21.362   8.850
 6276POPC   GL239398  32.092  21.368   8.850
 6276POPC   C1A39399  32.280  21.339   8.550
 6276POPC   D2A39400  32.246  21.388   8.250
 6276POPC   C3A39401  32.286  21.352   7.950
 6276POPC   C4A39402  32.238  21.381   7.650
 6276POPC   C1B39403  32.033  21.376   8.550
 6276POPC   C2B39404  31.975  21.446   8.250
 6276POPC   C3B39405  31.996  21.441   7.950
 6276POPC   C4B39406  32.029  21.398   7.650
 6277POPC   NC339407  31.435  17.537   9.450
 6277POPC   PO439408  31.459  17.535   9.150
 6277POPC   GL139409  31.430  17.495   8.850
 6277POPC   GL239410  31.390  17.660   8.850
 6277POPC   C1A39411  31.486  17.484   8.550
 6277POPC   D2A39412  31.463  17.493   8.250
 6277POPC   C3A39413  31.440  17.475   7.950
 6277POPC   C4A39414  31.423  17.489   7.650
 6277POPC   C1B39415  31.390  17.753   8.550
 6277POPC   C2B39416  31.407  17.769   8.250
 6277POPC   C3B39417  31.377  17.726   7.950
 6277POPC   C4B39418  31.431  17.759   7.650
 6278POPC   NC339419   2.777  43.931   9.450
 6278POPC   PO439420   2.730  43.839   9.150
 6278POPC   GL139421   2.789  43.933   8.850
 6278POPC   GL239422   2.905  43.864   8.850
 6278POPC   C1A39423   2.722  43.868   8.550
 6278POPC   D2A39424   2.725  43.849   8.250
 6278POPC   C3A39425   2.740  43.874   7.950
 6278POPC   C4A39426   2.760  43.866   7.650
 6278POPC   C1B39427   3.052  43.827   8.550
 6278POPC   C2B39428   2.999  43.834   8.250
 6278POPC   C3B39429   3.022  43.916   7.950
 6278POPC   C4B39430   3.007  43.838   7.650
 6279POPC   NC339431   1.988  15.976   9.450
 6279POPC   PO439432   1.984  15.949   9.150
 6279POPC   GL139433   1.972  15.943   8.850
 6279POPC   GL239434   2.101  16.052   8.850
 6279POPC   C1A39435   1.994  15.965   8.550
 6279POPC   D2A39436   2.028  15.925   8.250
 6279POPC   C3A39437   1.977  15.950   7.950
 6279POPC   C4A39438   1.961  15.955   7.650
 6279POPC   C1B39439   2.197  16.159   8.550
 6279POPC   C2B39440   2.215  16.095   8.250
 6279POPC   C3B39441   2.158  16.109   7.950
 6279POPC   C4B39442   2.224  16.131   7.650
 6280POPC   NC339443  10.513  26.087   9.450
 6280POPC   PO439444  10.559  26.017   9.150
 6280POPC   GL139445  10.490  26.077   8.850
 6280POPC   GL239446  10.460  26.170   8.850
 6280POPC   C1A39447  10.490  26.011   8.550
 6280POPC   D2A39448  10.494  26.026   8.250
 6280POPC   C3A39449  10.567  26.071   7.950
 6280POPC   C4A39450  10.548  26.072   7.650
 6280POPC   C1B39451  10.447  26.278   8.550
 6280POPC   C2B39452  10.379  26.247   8.250
 6280POPC   C3B39453  10.403  26.252   7.950
 6280POPC   C4B39454  10.434  26.229   7.650
 6281POPC   NC339455  28.392  44.697   9.450
 6281POPC   PO439456  28.412  44.630   9.150
 6281POPC   GL139457  28.381  44.657   8.850
 6281POPC   GL239458  28.426  44.523   8.850
 6281POPC   C1A39459  28.338  44.709   8.550
 6281POPC   D2A39460  28.345  44.629   8.250
 6281POPC   C3A39461  28.344  44.686   7.950
 6281POPC   C4A39462  28.392  44.613   7.650
 6281POPC   C1B39463  28.467  44.390   8.550
 6281POPC   C2B39464  28.442  44.431   8.250
 6281POPC   C3B39465  28.440  44.427   7.950
 6281POPC   C4B39466  28.452  44.443   7.650
 6282POPC   NC339467  39.226  41.600   9.450
 6282POPC   PO439468  39.266  41.580   9.150
 6282POPC   GL139469  39.267  41.540   8.850
 6282POPC   GL239470  39.204  41.659   8.850
 6282POPC   C1A39471  39.182  41.571   8.550
 6282POPC   D2A39472  39.281  41.526   8.250
 6282POPC   C3A39473  39.229  41.584   7.950
 6282POPC   C4A39474  39.257  41.596   7.650
 6282POPC   C1B39475  39.111  41.774   8.550
 6282POPC   C2B39476  39.111  41.791   8.250
 6282POPC   C3B39477  39.118  41.752   7.950
 6282POPC   C4B39478  39.094  41.775   7.650
 6283POPC   NC339479   1.942  17.536   9.450
 6283POPC   PO439480   2.033  17.501   9.150
 6283POPC   GL139481   1.987  17.496   8.850
 6283POPC   GL239482   1.896  17.511   8.850
 6283POPC   C1A39483   2.031  17.543   8.550
 6283POPC   D2A39484   1.988  17.499   8.250
 6283POPC   C3A39485   2.037  17.491   7.950
 6283POPC   C4A39486   1.947  17.535   7.650
 6283POPC   C1B39487   1.733  17.574   8.550
 6283POPC   C2B39488   1.779  17.524   8.250
 6283POPC   C3B39489   1.776  17.597   7.950
 6283POPC   C4B39490   1.744  17.587   7.650
 6284POPC   NC339491  36.096  18.329   9.450
 6284POPC   PO439492  36.124  18.244   9.150
 6284POPC   GL139493  36.167  18.270   8.850
 6284POPC   GL239494  35.963  18.286   8.850
 6284POPC   C1A39495  36.171  18.239   8.550
 6284POPC   D2A39496  36.169  18.271   8.250
 6284POPC   C3A39497  36.135  18.298   7.950
 6284POPC   C4A39498  36.109  18.306   7.650
 6284POPC   C1B39499  35.831  18.216   8.550
 6284POPC   C2B39500  35.906  18.237   8.250
 6284POPC   C3B39501  35.856  18.229   7.950
 6284POPC   C4B39502  35.912  18.287   7.650
 6285POPC   NC339503  16.703   1.963   9.450
 6285POPC   PO439504  16.691   2.026   9.150
 6285POPC   GL139505  16.754   1.998   8.850
 6285POPC   GL239506  16.734   2.094   8.850
 6285POPC   C1A39507  16.682   2.009   8.550
 6285POPC   D2A39508  16.702   2.011   8.250
 6285POPC   C3A39509  16.777   2.024   7.950
 6285POPC   C4A39510  16.706   2.009   7.650
 6285POPC   C1B39511  16.626   2.250   8.550
 6285POPC   C2B39512  16.659   2.202   8.250
 6285POPC   C3B39513  16.698   2.264   7.950
 6285POPC   C4B39514  16.633   2.184   7.650
 6286POPC   NC339515  38.440  18.261   9.450
 6286POPC   PO439516  38.459  18.283   9.150
 6286POPC   GL139517  38.478  18.254   8.850
 6286POPC   GL239518  38.432  18.171   8.850
 6286POPC   C1A39519  38.459  18.263   8.550
 6286POPC   D2A39520  38.463  18.248   8.250
 6286POPC   C3A39521  38.449  18.259   7.950
 6286POPC   C4A39522  38.460  18.257   7.650
 6286POPC   C1B39523  38.391  18.054   8.550
 6286POPC   C2B39524  38.407  18.019   8.250
 6286POPC   C3B39525  38.412  18.088   7.950
 6286POPC   C4B39526  38.441  17.993   7.650
 6287POPC   NC339527  36.873   5.821   9.450
 6287POPC   PO439528  36.935   5.879   9.150
 6287POPC   GL139529  36.880   5.824   8.850
 6287POPC   GL239530  36.866   6.030   8.850
 6287POPC   C1A39531  36.855   5.841   8.550
 6287POPC   D2A39532  36.861   5.913   8.250
 6287POPC   C3A39533  36.868   5.902   7.950
 6287POPC   C4A39534  36.896   5.893   7.650
 6287POPC   C1B39535  36.781   6.153   8.550
 6287POPC   C2B39536  36.810   6.124   8.250
 6287POPC   C3B39537  36.852   6.092   7.950
 6287POPC   C4B39538  36.806   6.108   7.650
 6288POPC   NC339539  26.019  29.945   9.450
 6288POPC   PO439540  26.086  29.952   9.150
 6288POPC   GL139541  26.047  29.879   8.850
 6288POPC   GL239542  25.938  29.890   8.850
 6288POPC   C1A39543  26.080  29.958   8.550
 6288POPC   D2A39544  26.009  29.889   8.250
 6288POPC   C3A39545  26.075  29.914   7.950
 6288POPC   C4A39546  26.039  29.891   7.650
 6288POPC   C1B39547  25.831  29.771   8.550
 6288POPC   C2B39548  25.855  29.751   8.250
 6288POPC   C3B39549  25.865  29.804   7.950
 6288POPC   C4B39550  25.780  29.833   7.650
 6289POPC   NC339551  38.462  33.763   9.450
 6289POPC   PO439552  38.408  33.836   9.150
 6289POPC   GL139553  38.420  33.828   8.850
 6289POPC   GL239554  38.519  33.834   8.850
 6289POPC   C1A39555  38.502  33.843   8.550
 6289POPC   D2A39556  38.454  33.795   8.250
 6289POPC   C3A39557  38.471  33.841   7.950
 6289POPC   C4A39558  38.450  33.830   7.650
 6289POPC   C1B39559  38.667  33.966   8.550
 6289POPC   C2B39560  38.651  33.927   8.250
 6289POPC   C3B39561  38.669  33.922   7.950
 6289POPC   C4B39562  38.652  33.940   7.650
 6290POPC   NC339563   1.258  13.619   9.450
 6290POPC   PO439564   1.244  13.599   9.150
 6290POPC   GL139565   1.196  13.634   8.850
 6290POPC   GL239566   1.163  13.797   8.850
 6290POPC   C1A39567   1.258  13.595   8.550
 6290POPC   D2A39568   1.222  13.587   8.250
 6290POPC   C3A39569   1.212  13.657   7.950
 6290POPC   C4A39570   1.208  13.652   7.650
 6290POPC   C1B39571   1.146  13.903   8.550
 6290POPC   C2B39572   1.155  13.832   8.250
 6290POPC   C3B39573   1.229  13.918   7.950
 6290POPC   C4B39574   1.207  13.834   7.650
 6291POPC   NC339575  11.305   1.180   9.450
 6291POPC   PO439576  11.306   1.233   9.150
 6291POPC   GL139577  11.296   1.233   8.850
 6291POPC   GL239578  11.390   1.117   8.850
 6291POPC   C1A39579  11.306   1.210   8.550
 6291POPC   D2A39580  11.331   1.236   8.250
 6291POPC   C3A39581  11.251   1.240   7.950
 6291POPC   C4A39582  11.269   1.169   7.650
 6291POPC   C1B39583  11.504   1.152   8.550
 6291POPC   C2B39584  11.559   1.151   8.250
 6291POPC   C3B39585  11.502   1.096   7.950
 6291POPC   C4B39586  11.481   1.144   7.650
 6292POPC   NC339587   9.730   6.648   9.450
 6292POPC   PO439588   9.718   6.665   9.150
 6292POPC   GL139589   9.783   6.653   8.850
 6292POPC   GL239590   9.807   6.777   8.850
 6292POPC   C1A39591   9.777   6.651   8.550
 6292POPC   D2A39592   9.791   6.642   8.250
 6292POPC   C3A39593   9.731   6.633   7.950
 6292POPC   C4A39594   9.733   6.679   7.650
 6292POPC   C1B39595   9.879   6.908   8.550
 6292POPC   C2B39596   9.876   6.853   8.250
 6292POPC   C3B39597   9.902   6.898   7.950
 6292POPC   C4B39598   9.903   6.905   7.650
 6293POPC   NC339599  12.873  26.070   9.450
 6293POPC   PO439600  12.889  26.012   9.150
 6293POPC   GL139601  12.834  26.052   8.850
 6293POPC   GL239602  12.785  25.931   8.850
 6293POPC   C1A39603  12.877  26.051   8.550
 6293POPC   D2A39604  12.813  26.025   8.250
 6293POPC   C3A39605  12.810  26.087   7.950
 6293POPC   C4A39606  12.839  26.001   7.650
 6293POPC   C1B39607  12.679  25.819   8.550
 6293POPC   C2B39608  12.724  25.879   8.250
 6293POPC   C3B39609  12.729  25.873   7.950
 6293POPC   C4B39610  12.696  25.806   7.650
 6294POPC   NC339611   1.185   5.843   9.450
 6294POPC   PO439612   1.225   5.865   9.150
 6294POPC   GL139613   1.185   5.861   8.850
 6294POPC   GL239614   1.367   5.951   8.850
 6294POPC   C1A39615   1.245   5.895   8.550
 6294POPC   D2A39616   1.218   5.847   8.250
 6294POPC   C3A39617   1.190   5.833   7.950
 6294POPC   C4A39618   1.255   5.823   7.650
 6294POPC   C1B39619   1.434   6.030   8.550
 6294POPC   C2B39620   1.414   5.965   8.250
 6294POPC   C3B39621   1.377   6.045   7.950
 6294POPC   C4B39622   1.380   5.980   7.650
 6295POPC   NC339623   7.422  28.412   9.450
 6295POPC   PO439624   7.403  28.407   9.150
 6295POPC   GL139625   7.431  28.385   8.850
 6295POPC   GL239626   7.328  28.367   8.850
 6295POPC   C1A39627   7.371  28.392   8.550
 6295POPC   D2A39628   7.413  28.365   8.250
 6295POPC   C3A39629   7.400  28.329   7.950
 6295POPC   C4A39630   7.383  28.397   7.650
 6295POPC   C1B39631   7.135  28.396   8.550
 6295POPC   C2B39632   7.221  28.409   8.250
 6295POPC   C3B39633   7.149  28.457   7.950
 6295POPC   C4B39634   7.228  28.464   7.650
 6296POPC   NC339635  42.324  25.288   9.450
 6296POPC   PO439636  42.377  25.247   9.150
 6296POPC   GL139637  42.291  25.287   8.850
 6296POPC   GL239638  42.458  25.249   8.850
 6296POPC   C1A39639  42.363  25.310   8.550
 6296POPC   D2A39640  42.340  25.217   8.250
 6296POPC   C3A39641  42.353  25.299   7.950
 6296POPC   C4A39642  42.313  25.306   7.650
 6296POPC   C1B39643  42.555  25.256   8.550
 6296POPC   C2B39644  42.559  25.325   8.250
 6296POPC   C3B39645  42.618  25.288   7.950
 6296POPC   C4B39646  42.590  25.328   7.650
 6297POPC   NC339647   6.678  24.501   9.450
 6297POPC   PO439648   6.642  24.446   9.150
 6297POPC   GL139649   6.692  24.513   8.850
 6297POPC   GL239650   6.657  24.656   8.850
 6297POPC   C1A39651   6.615  24.526   8.550
 6297POPC   D2A39652   6.646  24.535   8.250
 6297POPC   C3A39653   6.676  24.538   7.950
 6297POPC   C4A39654   6.631  24.511   7.650
 6297POPC   C1B39655   6.681  24.721   8.550
 6297POPC   C2B39656   6.737  24.680   8.250
 6297POPC   C3B39657   6.673  24.743   7.950
 6297POPC   C4B39658   6.731  24.755   7.650
 6298POPC   NC339659   5.895   9.782   9.450
 6298POPC   PO439660   5.860   9.785   9.150
 6298POPC   GL139661   5.891   9.703   8.850
 6298POPC   GL239662   5.987   9.664   8.850
 6298POPC   C1A39663   5.825   9.763   8.550
 6298POPC   D2A39664   5.825   9.732   8.250
 6298POPC   C3A39665   5.869   9.701   7.950
 6298POPC   C4A39666   5.900   9.783   7.650
 6298POPC   C1B39667   6.132   9.665   8.550
 6298POPC   C2B39668   6.127   9.684   8.250
 6298POPC   C3B39669   6.132   9.689   7.950
 6298POPC   C4B39670   6.147   9.699   7.650
 6299POPC   NC339671  36.131  23.679   9.450
 6299POPC   PO439672  36.084  23.733   9.150
 6299POPC   GL139673  36.136  23.700   8.850
 6299POPC   GL239674  36.021  23.630   8.850
 6299POPC   C1A39675  36.131  23.706   8.550
 6299POPC   D2A39676  36.094  23.683   8.250
 6299POPC   C3A39677  36.103  23.752   7.950
 6299POPC   C4A39678  36.172  23.666   7.650
 6299POPC   C1B39679  35.854  23.667   8.550
 6299POPC   C2B39680  35.845  23.605   8.250
 6299POPC   C3B39681  35.861  23.610   7.950
 6299POPC   C4B39682  35.921  23.674   7.650
 6300POPC   NC339683   1.244  15.206   9.450
 6300POPC   PO439684   1.174  15.177   9.150
 6300POPC   GL139685   1.223  15.228   8.850
 6300POPC   GL239686   1.209  15.264   8.850
 6300POPC   C1A39687   1.172  15.169   8.550
 6300POPC   D2A39688   1.214  15.177   8.250
 6300POPC   C3A39689   1.213  15.178   7.950
 6300POPC   C4A39690   1.244  15.188   7.650
 6300POPC   C1B39691   1.147  15.439   8.550
 6300POPC   C2B39692   1.182  15.423   8.250
 6300POPC   C3B39693   1.143  15.384   7.950
 6300POPC   C4B39694   1.165  15.409   7.650
 6301POPC   NC339695  29.949  22.174   9.450
 6301POPC   PO439696  29.946  22.189   9.150
 6301POPC   GL139697  29.913  22.113   8.850
 6301POPC   GL239698  30.041  22.178   8.850
 6301POPC   C1A39699  29.931  22.151   8.550
 6301POPC   D2A39700  29.910  22.139   8.250
 6301POPC   C3A39701  29.896  22.189   7.950
 6301POPC   C4A39702  29.903  22.206   7.650
 6301POPC   C1B39703  30.125  22.106   8.550
 6301POPC   C2B39704  30.178  22.136   8.250
 6301POPC   C3B39705  30.194  22.173   7.950
 6301POPC   C4B39706  30.195  22.196   7.650
 6302POPC   NC339707  10.551  18.251   9.450
 6302POPC   PO439708  10.486  18.326   9.150
 6302POPC   GL139709  10.520  18.278   8.850
 6302POPC   GL239710  10.605  18.180   8.850
 6302POPC   C1A39711  10.511  18.313   8.550
 6302POPC   D2A39712  10.525  18.239   8.250
 6302POPC   C3A39713  10.511  18.332   7.950
 6302POPC   C4A39714  10.535  18.298   7.650
 6302POPC   C1B39715  10.561  18.086   8.550
 6302POPC   C2B39716  10.630  18.021   8.250
 6302POPC   C3B39717  10.575  18.059   7.950
 6302POPC   C4B39718  10.582  18.046   7.650
 6303POPC   NC339719   9.765  39.972   9.450
 6303POPC   PO439720   9.735  40.045   9.150
 6303POPC   GL139721   9.711  39.999   8.850
 6303POPC   GL239722   9.812  40.065   8.850
 6303POPC   C1A39723   9.736  40.018   8.550
 6303POPC   D2A39724   9.743  39.987   8.250
 6303POPC   C3A39725   9.721  40.052   7.950
 6303POPC   C4A39726   9.726  39.994   7.650
 6303POPC   C1B39727   9.895  40.142   8.550
 6303POPC   C2B39728   9.985  40.169   8.250
 6303POPC   C3B39729   9.970  40.118   7.950
 6303POPC   C4B39730   9.909  40.146   7.650
 6304POPC   NC339731  18.253  37.671   9.450
 6304POPC   PO439732  18.270  37.690   9.150
 6304POPC   GL139733  18.317  37.663   8.850
 6304POPC   GL239734  18.156  37.662   8.850
 6304POPC   C1A39735  18.277  37.708   8.550
 6304POPC   D2A39736  18.246  37.650   8.250
 6304POPC   C3A39737  18.321  37.691   7.950
 6304POPC   C4A39738  18.251  37.719   7.650
 6304POPC   C1B39739  18.039  37.548   8.550
 6304POPC   C2B39740  18.089  37.567   8.250
 6304POPC   C3B39741  18.029  37.567   7.950
 6304POPC   C4B39742  18.034  37.558   7.650
 6305POPC   NC339743  37.698  37.695   9.450
 6305POPC   PO439744  37.643  37.673   9.150
 6305POPC   GL139745  37.714  37.714   8.850
 6305POPC   GL239746  37.589  37.648   8.850
 6305POPC   C1A39747  37.648  37.639   8.550
 6305POPC   D2A39748  37.660  37.726   8.250
 6305POPC   C3A39749  37.664  37.697   7.950
 6305POPC   C4A39750  37.630  37.711   7.650
 6305POPC   C1B39751  37.417  37.598   8.550
 6305POPC   C2B39752  37.485  37.593   8.250
 6305POPC   C3B39753  37.492  37.518   7.950
 6305POPC   C4B39754  37.438  37.574   7.650
 6306POPC   NC339755  32.217  15.982   9.450
 6306POPC   PO439756  32.233  15.998   9.150
 6306POPC   GL139757  32.231  15.996   8.850
 6306POPC   GL239758  32.187  15.854   8.850
 6306POPC   C1A39759  32.281  15.976   8.550
 6306POPC   D2A39760  32.241  15.994   8.250
 6306POPC   C3A39761  32.206  15.970   7.950
 6306POPC   C4A39762  32.297  15.984   7.650
 6306POPC   C1B39763  32.021  15.766   8.550
 6306POPC   C2B39764  32.085  15.815   8.250
 6306POPC   C3B39765  32.065  15.841   7.950
 6306POPC   C4B39766  32.096  15.793   7.650
 6307POPC   NC339767   5.834  19.057   9.450
 6307POPC   PO439768   5.840  19.029   9.150
 6307POPC   GL139769   5.885  19.085   8.850
 6307POPC   GL239770   5.832  18.958   8.850
 6307POPC   C1A39771   5.862  19.103   8.550
 6307POPC   D2A39772   5.819  19.024   8.250
 6307POPC   C3A39773   5.864  19.088   7.950
 6307POPC   C4A39774   5.829  19.077   7.650
 6307POPC   C1B39775   5.864  18.768   8.550
 6307POPC   C2B39776   5.874  18.763   8.250
 6307POPC   C3B39777   5.885  18.781   7.950
 6307POPC   C4B39778   5.844  18.804   7.650
 6308POPC   NC339779  19.101   0.400   9.450
 6308POPC   PO439780  19.039   0.459   9.150
 6308POPC   GL139781  19.011   0.418   8.850
 6308POPC   GL239782  18.933   0.473   8.850
 6308POPC   C1A39783  19.030   0.390   8.550
 6308POPC   D2A39784  19.048   0.484   8.250
 6308POPC   C3A39785  19.068   0.410   7.950
 6308POPC   C4A39786  19.093   0.473   7.650
 6308POPC   C1B39787  18.854   0.648   8.550
 6308POPC   C2B39788  18.908   0.641   8.250
 6308POPC   C3B39789  18.875   0.597   7.950
 6308POPC   C4B39790  18.880   0.596   7.650
 6309POPC   NC339791  33.067   6.644   9.450
 6309POPC   PO439792  32.979   6.609   9.150
 6309POPC   GL139793  33.049   6.645   8.850
 6309POPC   GL239794  32.939   6.722   8.850
 6309POPC   C1A39795  33.044   6.656   8.550
 6309POPC   D2A39796  33.039   6.667   8.250
 6309POPC   C3A39797  33.070   6.649   7.950
 6309POPC   C4A39798  33.047   6.663   7.650
 6309POPC   C1B39799  32.818   6.805   8.550
 6309POPC   C2B39800  32.765   6.817   8.250
 6309POPC   C3B39801  32.777   6.775   7.950
 6309POPC   C4B39802  32.818   6.730   7.650
 6310POPC   NC339803  29.129  40.778   9.450
 6310POPC   PO439804  29.175  40.773   9.150
 6310POPC   GL139805  29.154  40.740   8.850
 6310POPC   GL239806  29.112  40.721   8.850
 6310POPC   C1A39807  29.144  40.830   8.550
 6310POPC   D2A39808  29.176  40.785   8.250
 6310POPC   C3A39809  29.135  40.741   7.950
 6310POPC   C4A39810  29.103  40.799   7.650
 6310POPC   C1B39811  29.030  40.539   8.550
 6310POPC   C2B39812  28.996  40.600   8.250
 6310POPC   C3B39813  29.045  40.560   7.950
 6310POPC   C4B39814  29.044  40.558   7.650
 6311POPC   NC339815  19.834   4.316   9.450
 6311POPC   PO439816  19.838   4.296   9.150
 6311POPC   GL139817  19.839   4.273   8.850
 6311POPC   GL239818  19.743   4.285   8.850
 6311POPC   C1A39819  19.855   4.347   8.550
 6311POPC   D2A39820  19.853   4.320   8.250
 6311POPC   C3A39821  19.860   4.290   7.950
 6311POPC   C4A39822  19.843   4.317   7.650
 6311POPC   C1B39823  19.579   4.252   8.550
 6311POPC   C2B39824  19.649   4.197   8.250
 6311POPC   C3B39825  19.612   4.249   7.950
 6311POPC   C4B39826  19.564   4.178   7.650
 6312POPC   NC339827  34.546  18.243   9.450
 6312POPC   PO439828  34.597  18.250   9.150
 6312POPC   GL139829  34.556  18.249   8.850
 6312POPC   GL239830  34.571  18.407   8.850
 6312POPC   C1A39831  34.595  18.329   8.550
 6312POPC   D2A39832  34.605  18.282   8.250
 6312POPC   C3A39833  34.554  18.272   7.950
 6312POPC   C4A39834  34.611  18.248   7.650
 6312POPC   C1B39835  34.575  18.554   8.550
 6312POPC   C2B39836  34.577  18.510   8.250
 6312POPC   C3B39837  34.569  18.546   7.950
 6312POPC   C4B39838  34.541  18.532   7.650
 6313POPC   NC339839  36.150  17.500   9.450
 6313POPC   PO439840  36.133  17.543   9.150
 6313POPC   GL139841  36.121  17.539   8.850
 6313POPC   GL239842  36.271  17.539   8.850
 6313POPC   C1A39843  36.149  17.537   8.550
 6313POPC   D2A39844  36.166  17.457   8.250
 6313POPC   C3A39845  36.080  17.511   7.950
 6313POPC   C4A39846  36.085  17.457   7.650
 6313POPC   C1B39847  36.319  17.607   8.550
 6313POPC   C2B39848  36.367  17.607   8.250
 6313POPC   C3B39849  36.355  17.609   7.950
 6313POPC   C4B39850  36.296  17.630   7.650
 6314POPC   NC339851   5.052   9.722   9.450
 6314POPC   PO439852   5.106   9.763   9.150
 6314POPC   GL139853   5.070   9.715   8.850
 6314POPC   GL239854   5.261   9.771   8.850
 6314POPC   C1A39855   5.115   9.783   8.550
 6314POPC   D2A39856   5.067   9.733   8.250
 6314POPC   C3A39857   5.112   9.720   7.950
 6314POPC   C4A39858   5.083   9.773   7.650
 6314POPC   C1B39859   5.346   9.727   8.550
 6314POPC   C2B39860   5.365   9.697   8.250
 6314POPC   C3B39861   5.336   9.727   7.950
 6314POPC   C4B39862   5.359   9.682   7.650
 6315POPC   NC339863  44.670  37.729   9.450
 6315POPC   PO439864  44.661  37.719   9.150
 6315POPC   GL139865  44.690  37.662   8.850
 6315POPC   GL239866  44.733  37.584   8.850
 6315POPC   C1A39867  44.614  37.711   8.550
 6315POPC   D2A39868  44.637  37.727   8.250
 6315POPC   C3A39869  44.649  37.642   7.950
 6315POPC   C4A39870  44.660  37.711   7.650
 6315POPC   C1B39871  44.770  37.427   8.550
 6315POPC   C2B39872  44.747  37.442   8.250
 6315POPC   C3B39873  44.698  37.482   7.950
 6315POPC   C4B39874  44.755  37.388   7.650
 6316POPC   NC339875  42.374  44.686   9.450
 6316POPC   PO439876  42.335  44.673   9.150
 6316POPC   GL139877  42.332  44.659   8.850
 6316POPC   GL239878  42.399  44.500   8.850
 6316POPC   C1A39879  42.292  44.678   8.550
 6316POPC   D2A39880  42.293  44.637   8.250
 6316POPC   C3A39881  42.353  44.644   7.950
 6316POPC   C4A39882  42.325  44.689   7.650
 6316POPC   C1B39883  42.367  44.445   8.550
 6316POPC   C2B39884  42.403  44.370   8.250
 6316POPC   C3B39885  42.442  44.392   7.950
 6316POPC   C4B39886  42.382  44.459   7.650
 6317POPC   NC339887   4.313   8.176   9.450
 6317POPC   PO439888   4.301   8.231   9.150
 6317POPC   GL139889   4.280   8.159   8.850
 6317POPC   GL239890   4.404   8.116   8.850
 6317POPC   C1A39891   4.275   8.147   8.550
 6317POPC   D2A39892   4.323   8.232   8.250
 6317POPC   C3A39893   4.288   8.227   7.950
 6317POPC   C4A39894   4.337   8.204   7.650
 6317POPC   C1B39895   4.501   8.036   8.550
 6317POPC   C2B39896   4.478   8.058   8.250
 6317POPC   C3B39897   4.504   8.025   7.950
 6317POPC   C4B39898   4.503   8.012   7.650
 6318POPC   NC339899  24.471  43.114   9.450
 6318POPC   PO439900  24.452  43.152   9.150
 6318POPC   GL139901  24.453  43.144   8.850
 6318POPC   GL239902  24.426  43.044   8.850
 6318POPC   C1A39903  24.520  43.157   8.550
 6318POPC   D2A39904  24.527  43.063   8.250
 6318POPC   C3A39905  24.456  43.062   7.950
 6318POPC   C4A39906  24.450  43.075   7.650
 6318POPC   C1B39907  24.305  42.963   8.550
 6318POPC   C2B39908  24.319  42.927   8.250
 6318POPC   C3B39909  24.271  42.997   7.950
 6318POPC   C4B39910  24.241  42.989   7.650
 6319POPC   NC339911  40.810  28.385   9.450
 6319POPC   PO439912  40.799  28.401   9.150
 6319POPC   GL139913  40.829  28.362   8.850
 6319POPC   GL239914  40.655  28.332   8.850
 6319POPC   C1A39915  40.770  28.388   8.550
 6319POPC   D2A39916  40.742  28.409   8.250
 6319POPC   C3A39917  40.791  28.363   7.950
 6319POPC   C4A39918  40.795  28.379   7.650
 6319POPC   C1B39919  40.585  28.233   8.550
 6319POPC   C2B39920  40.546  28.198   8.250
 6319POPC   C3B39921  40.548  28.213   7.950
 6319POPC   C4B39922  40.624  28.194   7.650
 6320POPC   NC339923  36.136  26.052   9.450
 6320POPC   PO439924  36.095  26.048   9.150
 6320POPC   GL139925  36.126  26.053   8.850
 6320POPC   GL239926  36.156  25.966   8.850
 6320POPC   C1A39927  36.113  26.002   8.550
 6320POPC   D2A39928  36.093  26.073   8.250
 6320POPC   C3A39929  36.105  26.061   7.950
 6320POPC   C4A39930  36.162  26.054   7.650
 6320POPC   C1B39931  36.173  25.761   8.550
 6320POPC   C2B39932  36.218  25.759   8.250
 6320POPC   C3B39933  36.166  25.813   7.950
 6320POPC   C4B39934  36.136  25.749   7.650
 6321POPC   NC339935  38.502  15.989   9.450
 6321POPC   PO439936  38.477  15.955   9.150
 6321POPC   GL139937  38.434  15.989   8.850
 6321POPC   GL239938  38.383  16.071   8.850
 6321POPC   C1A39939  38.442  15.907   8.550
 6321POPC   D2A39940  38.500  15.947   8.250
 6321POPC   C3A39941  38.458  15.968   7.950
 6321POPC   C4A39942  38.421  15.922   7.650
 6321POPC   C1B39943  38.399  16.163   8.550
 6321POPC   C2B39944  38.373  16.210   8.250
 6321POPC   C3B39945  38.348  16.166   7.950
 6321POPC   C4B39946  38.426  16.215   7.650
 6322POPC   NC339947  13.645   7.434   9.450
 6322POPC   PO439948  13.588   7.432   9.150
 6322POPC   GL139949  13.609   7.401   8.850
 6322POPC   GL239950  13.698   7.291   8.850
 6322POPC   C1A39951  13.603   7.427   8.550
 6322POPC   D2A39952  13.630   7.395   8.250
 6322POPC   C3A39953  13.633   7.379   7.950
 6322POPC   C4A39954  13.603   7.399   7.650
 6322POPC   C1B39955  13.759   7.205   8.550
 6322POPC   C2B39956  13.811   7.212   8.250
 6322POPC   C3B39957  13.798   7.250   7.950
 6322POPC   C4B39958  13.834   7.227   7.650
 6323POPC   NC339959  33.010  19.787   9.450
 6323POPC   PO439960  33.038  19.798   9.150
 6323POPC   GL139961  32.992  19.820   8.850
 6323POPC   GL239962  33.071  19.693   8.850
 6323POPC   C1A39963  33.005  19.878   8.550
 6323POPC   D2A39964  32.980  19.814   8.250
 6323POPC   C3A39965  33.049  19.844   7.950
 6323POPC   C4A39966  32.993  19.878   7.650
 6323POPC   C1B39967  33.176  19.647   8.550
 6323POPC   C2B39968  33.161  19.636   8.250
 6323POPC   C3B39969  33.194  19.612   7.950
 6323POPC   C4B39970  33.188  19.624   7.650
 6324POPC   NC339971  42.313   6.621   9.450
 6324POPC   PO439972  42.350   6.612   9.150
 6324POPC   GL139973  42.368   6.666   8.850
 6324POPC   GL239974  42.255   6.561   8.850
 6324POPC   C1A39975  42.298   6.613   8.550
 6324POPC   D2A39976  42.313   6.671   8.250
 6324POPC   C3A39977  42.304   6.622   7.950
 6324POPC   C4A39978  42.367   6.645   7.650
 6324POPC   C1B39979  42.235   6.356   8.550
 6324POPC   C2B39980  42.307   6.357   8.250
 6324POPC   C3B39981  42.277   6.367   7.950
 6324POPC   C4B39982  42.294   6.380   7.650
 6325POPC   NC339983  29.101  22.130   9.450
 6325POPC   PO439984  29.121  22.131   9.150
 6325POPC   GL139985  29.154  22.141   8.850
 6325POPC   GL239986  29.177  22.023   8.850
 6325POPC   C1A39987  29.181  22.212   8.550
 6325POPC   D2A39988  29.154  22.141   8.250
 6325POPC   C3A39989  29.177  22.126   7.950
 6325POPC   C4A39990  29.177  22.186   7.650
 6325POPC   C1B39991  29.249  21.978   8.550
 6325POPC   C2B39992  29.285  21.988   8.250
 6325POPC   C3B39993  29.297  21.941   7.950
 6325POPC   C4B39994  29.227  21.956   7.650
 6326POPC   NC339995  32.990  27.589   9.450
 6326POPC   PO439996  33.041  27.631   9.150
 6326POPC   GL139997  33.050  27.549   8.850
 6326POPC   GL239998  33.070  27.450   8.850
 6326POPC   C1A39999  33.016  27.627   8.550
 6326POPC   D2A40000  33.031  27.577   8.250
 6326POPC   C3A40001  32.995  27.552   7.950
 6326POPC   C4A40002  32.993  27.558   7.650
 6326POPC   C1B40003  33.093  27.340   8.550
 6326POPC   C2B40004  33.092  27.354   8.250
 6326POPC   C3B40005  33.089  27.375   7.950
 6326POPC   C4B40006  33.092  27.390   7.650
 6327POPC   NC340007  42.383   2.772   9.450
 6327POPC   PO440008  42.316   2.802   9.150
 6327POPC   GL140009  42.286   2.719   8.850
 6327POPC   GL240010  42.247   2.807   8.850
 6327POPC   C1A40011  42.381   2.756   8.550
 6327POPC   D2A40012  42.373   2.815   8.250
 6327POPC   C3A40013  42.304   2.792   7.950
 6327POPC   C4A40014  42.304   2.733   7.650
 6327POPC   C1B40015  42.074   2.807   8.550
 6327POPC   C2B40016  42.060   2.747   8.250
 6327POPC   C3B40017  42.106   2.807   7.950
 6327POPC   C4B40018  42.053   2.777   7.650
 6328POPC   NC340019  27.548  33.074   9.450
 6328POPC   PO440020  27.562  33.020   9.150
 6328POPC   GL140021  27.618  32.998   8.850
 6328POPC   GL240022  27.520  32.971   8.850
 6328POPC   C1A40023  27.635  33.020   8.550
 6328POPC   D2A40024  27.591  33.074   8.250
 6328POPC   C3A40025  27.552  33.042   7.950
 6328POPC   C4A40026  27.576  33.057   7.650
 6328POPC   C1B40027  27.376  32.857   8.550
 6328POPC   C2B40028  27.345  32.903   8.250
 6328POPC   C3B40029  27.407  32.874   7.950
 6328POPC   C4B40030  27.422  32.876   7.650
 6329POPC   NC340031  12.105   9.720   9.450
 6329POPC   PO440032  12.113   9.718   9.150
 6329POPC   GL140033  12.105   9.762   8.850
 6329POPC   GL240034  11.967   9.861   8.850
 6329POPC   C1A40035  12.051   9.739   8.550
 6329POPC   D2A40036  12.095   9.778   8.250
 6329POPC   C3A40037  12.050   9.740   7.950
 6329POPC   C4A40038  12.091   9.763   7.650
 6329POPC   C1B40039  11.873   9.908   8.550
 6329POPC   C2B40040  11.901   9.891   8.250
 6329POPC   C3B40041  11.851   9.859   7.950
 6329POPC   C4B40042  11.841   9.898   7.650
 6330POPC   NC340043  26.825  19.037   9.450
 6330POPC   PO440044  26.842  19.049   9.150
 6330POPC   GL140045  26.797  19.055   8.850
 6330POPC   GL240046  26.712  19.025   8.850
 6330POPC   C1A40047  26.804  19.018   8.550
 6330POPC   D2A40048  26.774  19.073   8.250
 6330POPC   C3A40049  26.835  19.013   7.950
 6330POPC   C4A40050  26.841  19.064   7.650
 6330POPC   C1B40051  26.597  18.891   8.550
 6330POPC   C2B40052  26.629  18.894   8.250
 6330POPC   C3B40053  26.575  18.940   7.950
 6330POPC   C4B40054  26.660  18.881   7.650
 6331POPC   NC340055  24.534   3.587   9.450
 6331POPC   PO440056  24.536   3.581   9.150
 6331POPC   GL140057  24.460   3.511   8.850
 6331POPC   GL240058  24.615   3.465   8.850
 6331POPC   C1A40059  24.448   3.543   8.550
 6331POPC   D2A40060  24.482   3.530   8.250
 6331POPC   C3A40061  24.522   3.522   7.950
 6331POPC   C4A40062  24.507   3.558   7.650
 6331POPC   C1B40063  24.647   3.324   8.550
 6331POPC   C2B40064  24.641   3.395   8.250
 6331POPC   C3B40065  24.667   3.374   7.950
 6331POPC   C4B40066  24.695   3.399   7.650
 6332POPC   NC340067   6.634  16.702   9.450
 6332POPC   PO440068   6.615  16.727   9.150
 6332POPC   GL140069   6.610  16.723   8.850
 6332POPC   GL240070   6.552  16.676   8.850
 6332POPC   C1A40071   6.680  16.747   8.550
 6332POPC   D2A40072   6.595  16.771   8.250
 6332POPC   C3A40073   6.607  16.708   7.950
 6332POPC   C4A40074   6.636  16.759   7.650
 6332POPC   C1B40075   6.476  16.539   8.550
 6332POPC   C2B40076   6.469  16.574   8.250
 6332POPC   C3B40077   6.455  16.517   7.950
 6332POPC   C4B40078   6.503  16.568   7.650
 6333POPC   NC340079  19.836  12.898   9.450
 6333POPC   PO440080  19.800  12.869   9.150
 6333POPC   GL140081  19.871  12.867   8.850
 6333POPC   GL240082  19.882  12.772   8.850
 6333POPC   C1A40083  19.860  12.852   8.550
 6333POPC   D2A40084  19.790  12.819   8.250
 6333POPC   C3A40085  19.788  12.864   7.950
 6333POPC   C4A40086  19.839  12.889   7.650
 6333POPC   C1B40087  19.870  12.614   8.550
 6333POPC   C2B40088  19.884  12.649   8.250
 6333POPC   C3B40089  19.866  12.658   7.950
 6333POPC   C4B40090  19.880  12.658   7.650
 6334POPC   NC340091  32.287  13.627   9.450
 6334POPC   PO440092  32.228  13.605   9.150
 6334POPC   GL140093  32.245  13.633   8.850
 6334POPC   GL240094  32.164  13.710   8.850
 6334POPC   C1A40095  32.275  13.660   8.550
 6334POPC   D2A40096  32.224  13.673   8.250
 6334POPC   C3A40097  32.254  13.646   7.950
 6334POPC   C4A40098  32.274  13.579   7.650
 6334POPC   C1B40099  32.154  13.816   8.550
 6334POPC   C2B40100  32.155  13.887   8.250
 6334POPC   C3B40101  32.147  13.882   7.950
 6334POPC   C4B40102  32.135  13.806   7.650
 6335POPC   NC340103  43.916   4.282   9.450
 6335POPC   PO440104  43.884   4.271   9.150
 6335POPC   GL140105  43.877   4.323   8.850
 6335POPC   GL240106  43.921   4.159   8.850
 6335POPC   C1A40107  43.922   4.308   8.550
 6335POPC   D2A40108  43.844   4.276   8.250
 6335POPC   C3A40109  43.882   4.340   7.950
 6335POPC   C4A40110  43.857   4.286   7.650
 6335POPC   C1B40111  44.014   4.101   8.550
 6335POPC   C2B40112  43.932   4.080   8.250
 6335POPC   C3B40113  43.920   4.128   7.950
 6335POPC   C4B40114  43.946   4.041   7.650
 6336POPC   NC340115  20.582   9.011   9.450
 6336POPC   PO440116  20.646   8.944   9.150
 6336POPC   GL140117  20.616   8.925   8.850
 6336POPC   GL240118  20.495   8.954   8.850
 6336POPC   C1A40119  20.578   8.935   8.550
 6336POPC   D2A40120  20.626   8.949   8.250
 6336POPC   C3A40121  20.650   8.984   7.950
 6336POPC   C4A40122  20.638   8.997   7.650
 6336POPC   C1B40123  20.415   8.925   8.550
 6336POPC   C2B40124  20.339   8.870   8.250
 6336POPC   C3B40125  20.339   8.922   7.950
 6336POPC   C4B40126  20.344   8.909   7.650
 6337POPC   NC340127  44.631  15.139   9.450
 6337POPC   PO440128  44.691  15.207   9.150
 6337POPC   GL140129  44.701  15.154   8.850
 6337POPC   GL240130  44.711  15.290   8.850
 6337POPC   C1A40131  44.629  15.202   8.550
 6337POPC   D2A40132  44.620  15.206   8.250
 6337POPC   C3A40133  44.708  15.180   7.950
 6337POPC   C4A40134  44.664  15.176   7.650
 6337POPC   C1B40135  44.750  15.427   8.550
 6337POPC   C2B40136  44.758  15.418   8.250
 6337POPC   C3B40137  44.744  15.455   7.950
 6337POPC   C4B40138  44.717  15.404   7.650
 6338POPC   NC340139   8.987  12.880   9.450
 6338POPC   PO440140   8.928  12.816   9.150
 6338POPC   GL140141   8.923  12.837   8.850
 6338POPC   GL240142   9.052  12.729   8.850
 6338POPC   C1A40143   9.016  12.849   8.550
 6338POPC   D2A40144   8.941  12.872   8.250
 6338POPC   C3A40145   8.926  12.818   7.950
 6338POPC   C4A40146   8.936  12.812   7.650
 6338POPC   C1B40147   9.007  12.621   8.550
 6338POPC   C2B40148   9.046  12.658   8.250
 6338POPC   C3B40149   9.072  12.584   7.950
 6338POPC   C4B40150   9.054  12.595   7.650
 6339POPC   NC340151  41.589  40.044   9.450
 6339POPC   PO440152  41.534  40.046   9.150
 6339POPC   GL140153  41.557  39.968   8.850
 6339POPC   GL240154  41.718  40.089   8.850
 6339POPC   C1A40155  41.603  40.029   8.550
 6339POPC   D2A40156  41.579  39.972   8.250
 6339POPC   C3A40157  41.562  40.041   7.950
 6339POPC   C4A40158  41.574  40.053   7.650
 6339POPC   C1B40159  41.827  40.067   8.550
 6339POPC   C2B40160  41.764  40.083   8.250
 6339POPC   C3B40161  41.835  40.044   7.950
 6339POPC   C4B40162  41.764  40.107   7.650
 6340POPC   NC340163  18.241  29.134   9.450
 6340POPC   PO440164  18.288  29.127   9.150
 6340POPC   GL140165  18.270  29.176   8.850
 6340POPC   GL240166  18.371  29.125   8.850
 6340POPC   C1A40167  18.278  29.179   8.550
 6340POPC   D2A40168  18.326  29.194   8.250
 6340POPC   C3A40169  18.325  29.136   7.950
 6340POPC   C4A40170  18.302  29.160   7.650
 6340POPC   C1B40171  18.540  29.198   8.550
 6340POPC   C2B40172  18.532  29.127   8.250
 6340POPC   C3B40173  18.552  29.153   7.950
 6340POPC   C4B40174  18.560  29.211   7.650
 6341POPC   NC340175  37.719  29.954   9.450
 6341POPC   PO440176  37.641  29.960   9.150
 6341POPC   GL140177  37.658  29.873   8.850
 6341POPC   GL240178  37.609  29.844   8.850
 6341POPC   C1A40179  37.673  29.913   8.550
 6341POPC   D2A40180  37.698  29.915   8.250
 6341POPC   C3A40181  37.722  29.881   7.950
 6341POPC   C4A40182  37.685  29.884   7.650
 6341POPC   C1B40183  37.533  29.768   8.550
 6341POPC   C2B40184  37.478  29.738   8.250
 6341POPC   C3B40185  37.510  29.742   7.950
 6341POPC   C4B40186  37.547  29.712   7.650
 6342POPC   NC340187   2.745  21.384   9.450
 6342POPC   PO440188   2.772  21.362   9.150
 6342POPC   GL140189   2.734  21.338   8.850
 6342POPC   GL240190   2.681  21.409   8.850
 6342POPC   C1A40191   2.791  21.376   8.550
 6342POPC   D2A40192   2.716  21.337   8.250
 6342POPC   C3A40193   2.733  21.389   7.950
 6342POPC   C4A40194   2.790  21.414   7.650
 6342POPC   C1B40195   2.537  21.331   8.550
 6342POPC   C2B40196   2.502  21.328   8.250
 6342POPC   C3B40197   2.553  21.294   7.950
 6342POPC   C4B40198   2.564  21.322   7.650
 6343POPC   NC340199  26.028   7.433   9.450
 6343POPC   PO440200  26.089   7.403   9.150
 6343POPC   GL140201  26.069   7.448   8.850
 6343POPC   GL240202  25.945   7.338   8.850
 6343POPC   C1A40203  26.085   7.412   8.550
 6343POPC   D2A40204  26.021   7.373   8.250
 6343POPC   C3A40205  26.083   7.385   7.950
 6343POPC   C4A40206  26.073   7.390   7.650
 6343POPC   C1B40207  25.830   7.344   8.550
 6343POPC   C2B40208  25.808   7.310   8.250
 6343POPC   C3B40209  25.809   7.352   7.950
 6343POPC   C4B40210  25.786   7.284   7.650
 6344POPC   NC340211  33.041  22.945   9.450
 6344POPC   PO440212  33.004  22.985   9.150
 6344POPC   GL140213  33.030  22.952   8.850
 6344POPC   GL240214  33.156  22.917   8.850
 6344POPC   C1A40215  33.031  22.901   8.550
 6344POPC   D2A40216  32.974  22.930   8.250
 6344POPC   C3A40217  32.982  22.976   7.950
 6344POPC   C4A40218  32.990  22.901   7.650
 6344POPC   C1B40219  33.286  22.935   8.550
 6344POPC   C2B40220  33.269  22.978   8.250
 6344POPC   C3B40221  33.223  23.009   7.950
 6344POPC   C4B40222  33.229  23.017   7.650
 6345POPC   NC340223  26.029   8.149   9.450
 6345POPC   PO440224  26.038   8.213   9.150
 6345POPC   GL140225  26.082   8.170   8.850
 6345POPC   GL240226  25.995   8.292   8.850
 6345POPC   C1A40227  26.077   8.191   8.550
 6345POPC   D2A40228  26.018   8.184   8.250
 6345POPC   C3A40229  26.070   8.229   7.950
 6345POPC   C4A40230  26.089   8.217   7.650
 6345POPC   C1B40231  25.878   8.401   8.550
 6345POPC   C2B40232  25.849   8.347   8.250
 6345POPC   C3B40233  25.886   8.369   7.950
 6345POPC   C4B40234  25.853   8.439   7.650
 6346POPC   NC340235  42.293  27.575   9.450
 6346POPC   PO440236  42.378  27.543   9.150
 6346POPC   GL140237  42.352  27.595   8.850
 6346POPC   GL240238  42.390  27.699   8.850
 6346POPC   C1A40239  42.291  27.545   8.550
 6346POPC   D2A40240  42.349  27.623   8.250
 6346POPC   C3A40241  42.289  27.627   7.950
 6346POPC   C4A40242  42.335  27.582   7.650
 6346POPC   C1B40243  42.413  27.868   8.550
 6346POPC   C2B40244  42.408  27.850   8.250
 6346POPC   C3B40245  42.431  27.800   7.950
 6346POPC   C4B40246  42.378  27.862   7.650
 6347POPC   NC340247  36.904  31.517   9.450
 6347POPC   PO440248  36.931  31.439   9.150
 6347POPC   GL140249  36.936  31.490   8.850
 6347POPC   GL240250  36.951  31.420   8.850
 6347POPC   C1A40251  36.865  31.476   8.550
 6347POPC   D2A40252  36.945  31.479   8.250
 6347POPC   C3A40253  36.941  31.475   7.950
 6347POPC   C4A40254  36.915  31.466   7.650
 6347POPC   C1B40255  37.068  31.251   8.550
 6347POPC   C2B40256  37.035  31.256   8.250
 6347POPC   C3B40257  37.032  31.295   7.950
 6347POPC   C4B40258  37.062  31.264   7.650
 6348POPC   NC340259   9.718  17.466   9.450
 6348POPC   PO440260   9.731  17.505   9.150
 6348POPC   GL140261   9.742  17.547   8.850
 6348POPC   GL240262   9.858  17.554   8.850
 6348POPC   C1A40263   9.707  17.482   8.550
 6348POPC   D2A40264   9.744  17.519   8.250
 6348POPC   C3A40265   9.754  17.540   7.950
 6348POPC   C4A40266   9.746  17.550   7.650
 6348POPC   C1B40267  10.020  17.537   8.550
 6348POPC   C2B40268   9.954  17.543   8.250
 6348POPC   C3B40269   9.947  17.547   7.950
 6348POPC   C4B40270   9.957  17.557   7.650
 6349POPC   NC340271   8.239  28.413   9.450
 6349POPC   PO440272   8.201  28.381   9.150
 6349POPC   GL140273   8.215  28.406   8.850
 6349POPC   GL240274   8.254  28.203   8.850
 6349POPC   C1A40275   8.193  28.389   8.550
 6349POPC   D2A40276   8.152  28.342   8.250
 6349POPC   C3A40277   8.167  28.391   7.950
 6349POPC   C4A40278   8.202  28.413   7.650
 6349POPC   C1B40279   8.228  28.148   8.550
 6349POPC   C2B40280   8.176  28.132   8.250
 6349POPC   C3B40281   8.221  28.160   7.950
 6349POPC   C4B40282   8.195  28.102   7.650
 6350POPC   NC340283  37.675  30.659   9.450
 6350POPC   PO440284  37.676  30.707   9.150
 6350POPC   GL140285  37.673  30.659   8.850
 6350POPC   GL240286  37.670  30.564   8.850
 6350POPC   C1A40287  37.706  30.716   8.550
 6350POPC   D2A40288  37.638  30.691   8.250
 6350POPC   C3A40289  37.707  30.696   7.950
 6350POPC   C4A40290  37.634  30.666   7.650
 6350POPC   C1B40291  37.712  30.455   8.550
 6350POPC   C2B40292  37.737  30.458   8.250
 6350POPC   C3B40293  37.729  30.478   7.950
 6350POPC   C4B40294  37.743  30.479   7.650
 6351POPC   NC340295   1.253   1.180   9.450
 6351POPC   PO440296   1.174   1.182   9.150
 6351POPC   GL140297   1.211   1.185   8.850
 6351POPC   GL240298   1.067   1.185   8.850
 6351POPC   C1A40299   1.214   1.258   8.550
 6351POPC   D2A40300   1.255   1.180   8.250
 6351POPC   C3A40301   1.233   1.215   7.950
 6351POPC   C4A40302   1.204   1.213   7.650
 6351POPC   C1B40303   0.984   1.107   8.550
 6351POPC   C2B40304   1.020   1.147   8.250
 6351POPC   C3B40305   0.974   1.159   7.950
 6351POPC   C4B40306   0.947   1.147   7.650
 6352POPC   NC340307  36.103  27.564   9.450
 6352POPC   PO440308  36.097  27.598   9.150
 6352POPC   GL140309  36.159  27.598   8.850
 6352POPC   GL240310  36.129  27.438   8.850
 6352POPC   C1A40311  36.164  27.570   8.550
 6352POPC   D2A40312  36.101  27.574   8.250
 6352POPC   C3A40313  36.110  27.611   7.950
 6352POPC   C4A40314  36.143  27.576   7.650
 6352POPC   C1B40315  36.191  27.397   8.550
 6352POPC   C2B40316  36.166  27.324   8.250
 6352POPC   C3B40317  36.153  27.370   7.950
 6352POPC   C4B40318  36.219  27.395   7.650
 6353POPC   NC340319  19.032  36.870   9.450
 6353POPC   PO440320  19.048  36.918   9.150
 6353POPC   GL140321  19.073  36.868   8.850
 6353POPC   GL240322  18.960  36.777   8.850
 6353POPC   C1A40323  19.035  36.897   8.550
 6353POPC   D2A40324  19.035  36.864   8.250
 6353POPC   C3A40325  19.032  36.913   7.950
 6353POPC   C4A40326  19.068  36.882   7.650
 6353POPC   C1B40327  18.920  36.719   8.550
 6353POPC   C2B40328  18.856  36.768   8.250
 6353POPC   C3B40329  18.859  36.730   7.950
 6353POPC   C4B40330  18.927  36.763   7.650
 6354POPC   NC340331  32.985  11.279   9.450
 6354POPC   PO440332  33.041  11.273   9.150
 6354POPC   GL140333  32.988  11.268   8.850
 6354POPC   GL240334  32.965  11.169   8.850
 6354POPC   C1A40335  33.067  11.304   8.550
 6354POPC   D2A40336  33.012  11.291   8.250
 6354POPC   C3A40337  33.056  11.281   7.950
 6354POPC   C4A40338  33.018  11.316   7.650
 6354POPC   C1B40339  32.906  11.071   8.550
 6354POPC   C2B40340  32.966  11.058   8.250
 6354POPC   C3B40341  32.925  11.029   7.950
 6354POPC   C4B40342  32.938  11.013   7.650
 6355POPC   NC340343  29.917  26.839   9.450
 6355POPC   PO440344  29.912  26.821   9.150
 6355POPC   GL140345  29.912  26.862   8.850
 6355POPC   GL240346  29.838  26.885   8.850
 6355POPC   C1A40347  29.890  26.839   8.550
 6355POPC   D2A40348  29.949  26.863   8.250
 6355POPC   C3A40349  29.912  26.773   7.950
 6355POPC   C4A40350  29.926  26.771   7.650
 6355POPC   C1B40351  29.678  26.862   8.550
 6355POPC   C2B40352  29.691  26.867   8.250
 6355POPC   C3B40353  29.641  26.872   7.950
 6355POPC   C4B40354  29.699  26.900   7.650
 6356POPC   NC340355   8.183  32.998   9.450
 6356POPC   PO440356   8.188  33.058   9.150
 6356POPC   GL140357   8.151  32.994   8.850
 6356POPC   GL240358   8.216  33.086   8.850
 6356POPC   C1A40359   8.172  32.996   8.550
 6356POPC   D2A40360   8.148  33.011   8.250
 6356POPC   C3A40361   8.148  33.004   7.950
 6356POPC   C4A40362   8.232  33.063   7.650
 6356POPC   C1B40363   8.347  33.261   8.550
 6356POPC   C2B40364   8.330  33.260   8.250
 6356POPC   C3B40365   8.341  33.281   7.950
 6356POPC   C4B40366   8.346  33.208   7.650
 6357POPC   NC340367   8.223  31.487   9.450
 6357POPC   PO440368   8.176  31.522   9.150
 6357POPC   GL140369   8.231  31.467   8.850
 6357POPC   GL240370   8.293  31.513   8.850
 6357POPC   C1A40371   8.222  31.453   8.550
 6357POPC   D2A40372   8.227  31.467   8.250
 6357POPC   C3A40373   8.207  31.437   7.950
 6357POPC   C4A40374   8.187  31.467   7.650
 6357POPC   C1B40375   8.458  31.524   8.550
 6357POPC   C2B40376   8.440  31.568   8.250
 6357POPC   C3B40377   8.391  31.539   7.950
 6357POPC   C4B40378   8.418  31.554   7.650
 6358POPC   NC340379   3.576   9.759   9.450
 6358POPC   PO440380   3.514   9.740   9.150
 6358POPC   GL140381   3.561   9.727   8.850
 6358POPC   GL240382   3.635   9.895   8.850
 6358POPC   C1A40383   3.493   9.721   8.550
 6358POPC   D2A40384   3.541   9.717   8.250
 6358POPC   C3A40385   3.584   9.742   7.950
 6358POPC   C4A40386   3.565   9.728   7.650
 6358POPC   C1B40387   3.598   9.971   8.550
 6358POPC   C2B40388   3.604   9.998   8.250
 6358POPC   C3B40389   3.610   9.947   7.950
 6358POPC   C4B40390   3.654  10.015   7.650
 6359POPC   NC340391   8.939  17.525   9.450
 6359POPC   PO440392   8.931  17.551   9.150
 6359POPC   GL140393   9.019  17.489   8.850
 6359POPC   GL240394   8.952  17.421   8.850
 6359POPC   C1A40395   8.962  17.458   8.550
 6359POPC   D2A40396   8.955  17.530   8.250
 6359POPC   C3A40397   8.969  17.549   7.950
 6359POPC   C4A40398   8.927  17.528   7.650
 6359POPC   C1B40399   8.984  17.301   8.550
 6359POPC   C2B40400   9.003  17.302   8.250
 6359POPC   C3B40401   9.033  17.277   7.950
 6359POPC   C4B40402   8.967  17.267   7.650
 6360POPC   NC340403  26.769  17.544   9.450
 6360POPC   PO440404  26.831  17.489   9.150
 6360POPC   GL140405  26.811  17.465   8.850
 6360POPC   GL240406  26.881  17.434   8.850
 6360POPC   C1A40407  26.832  17.544   8.550
 6360POPC   D2A40408  26.798  17.544   8.250
 6360POPC   C3A40409  26.842  17.491   7.950
 6360POPC   C4A40410  26.792  17.484   7.650
 6360POPC   C1B40411  27.022  17.369   8.550
 6360POPC   C2B40412  27.058  17.336   8.250
 6360POPC   C3B40413  27.048  17.408   7.950
 6360POPC   C4B40414  27.044  17.383   7.650
 6361POPC   NC340415  28.341  31.474   9.450
 6361POPC   PO440416  28.349  31.486   9.150
 6361POPC   GL140417  28.373  31.498   8.850
 6361POPC   GL240418  28.287  31.368   8.850
 6361POPC   C1A40419  28.320  31.469   8.550
 6361POPC   D2A40420  28.396  31.424   8.250
 6361POPC   C3A40421  28.355  31.518   7.950
 6361POPC   C4A40422  28.351  31.462   7.650
 6361POPC   C1B40423  28.148  31.278   8.550
 6361POPC   C2B40424  28.186  31.310   8.250
 6361POPC   C3B40425  28.171  31.302   7.950
 6361POPC   C4B40426  28.240  31.319   7.650
 6362POPC   NC340427  23.707  30.702   9.450
 6362POPC   PO440428  23.757  30.715   9.150
 6362POPC   GL140429  23.699  30.737   8.850
 6362POPC   GL240430  23.633  30.627   8.850
 6362POPC   C1A40431  23.718  30.698   8.550
 6362POPC   D2A40432  23.679  30.683   8.250
 6362POPC   C3A40433  23.680  30.733   7.950
 6362POPC   C4A40434  23.719  30.670   7.650
 6362POPC   C1B40435  23.507  30.550   8.550
 6362POPC   C2B40436  23.534  30.538   8.250
 6362POPC   C3B40437  23.573  30.556   7.950
 6362POPC   C4B40438  23.577  30.520   7.650
 6363POPC   NC340439  14.376   4.325   9.450
 6363POPC   PO440440  14.372   4.280   9.150
 6363POPC   GL140441  14.391   4.314   8.850
 6363POPC   GL240442  14.539   4.383   8.850
 6363POPC   C1A40443  14.406   4.318   8.550
 6363POPC   D2A40444  14.412   4.365   8.250
 6363POPC   C3A40445  14.427   4.283   7.950
 6363POPC   C4A40446  14.432   4.311   7.650
 6363POPC   C1B40447  14.615   4.422   8.550
 6363POPC   C2B40448  14.658   4.433   8.250
 6363POPC   C3B40449  14.650   4.460   7.950
 6363POPC   C4B40450  14.656   4.471   7.650
 6364POPC   NC340451   9.789   7.394   9.450
 6364POPC   PO440452   9.740   7.393   9.150
 6364POPC   GL140453   9.797   7.383   8.850
 6364POPC   GL240454   9.605   7.377   8.850
 6364POPC   C1A40455   9.771   7.436   8.550
 6364POPC   D2A40456   9.708   7.442   8.250
 6364POPC   C3A40457   9.775   7.455   7.950
 6364POPC   C4A40458   9.764   7.445   7.650
 6364POPC   C1B40459   9.508   7.390   8.550
 6364POPC   C2B40460   9.510   7.386   8.250
 6364POPC   C3B40461   9.454   7.460   7.950
 6364POPC   C4B40462   9.528   7.441   7.650
 6365POPC   NC340463   8.179  26.826   9.450
 6365POPC   PO440464   8.153  26.857   9.150
 6365POPC   GL140465   8.197  26.808   8.850
 6365POPC   GL240466   8.222  26.666   8.850
 6365POPC   C1A40467   8.172  26.866   8.550
 6365POPC   D2A40468   8.211  26.846   8.250
 6365POPC   C3A40469   8.163  26.775   7.950
 6365POPC   C4A40470   8.162  26.791   7.650
 6365POPC   C1B40471   8.150  26.598   8.550
 6365POPC   C2B40472   8.205  26.601   8.250
 6365POPC   C3B40473   8.191  26.552   7.950
 6365POPC   C4B40474   8.179  26.530   7.650
 6366POPC   NC340475  30.697  32.296   9.450
 6366POPC   PO440476  30.698  32.293   9.150
 6366POPC   GL140477  30.676  32.239   8.850
 6366POPC   GL240478  30.640  32.155   8.850
 6366POPC   C1A40479  30.730  32.217   8.550
 6366POPC   D2A40480  30.685  32.281   8.250
 6366POPC   C3A40481  30.664  32.297   7.950
 6366POPC   C4A40482  30.713  32.252   7.650
 6366POPC   C1B40483  30.515  32.012   8.550
 6366POPC   C2B40484  30.522  32.016   8.250
 6366POPC   C3B40485  30.512  32.082   7.950
 6366POPC   C4B40486  30.545  32.087   7.650
 6367POPC   NC340487  31.492  14.390   9.450
 6367POPC   PO440488  31.469  14.417   9.150
 6367POPC   GL140489  31.423  14.412   8.850
 6367POPC   GL240490  31.350  14.515   8.850
 6367POPC   C1A40491  31.480  14.381   8.550
 6367POPC   D2A40492  31.506  14.451   8.250
 6367POPC   C3A40493  31.518  14.378   7.950
 6367POPC   C4A40494  31.509  14.390   7.650
 6367POPC   C1B40495  31.270  14.592   8.550
 6367POPC   C2B40496  31.286  14.542   8.250
 6367POPC   C3B40497  31.251  14.500   7.950
 6367POPC   C4B40498  31.266  14.568   7.650
 6368POPC   NC340499  31.519  16.684   9.450
 6368POPC   PO440500  31.488  16.711   9.150
 6368POPC   GL140501  31.440  16.689   8.850
 6368POPC   GL240502  31.328  16.785   8.850
 6368POPC   C1A40503  31.486  16.700   8.550
 6368POPC   D2A40504  31.483  16.686   8.250
 6368POPC   C3A40505  31.498  16.755   7.950
 6368POPC   C4A40506  31.458  16.697   7.650
 6368POPC   C1B40507  31.252  16.821   8.550
 6368POPC   C2B40508  31.279  16.799   8.250
 6368POPC   C3B40509  31.216  16.873   7.950
 6368POPC   C4B40510  31.257  16.804   7.650
 6369POPC   NC340511   9.701  21.379   9.450
 6369POPC   PO440512   9.717  21.380   9.150
 6369POPC   GL140513   9.782  21.421   8.850
 6369POPC   GL240514   9.601  21.384   8.850
 6369POPC   C1A40515   9.786  21.346   8.550
 6369POPC   D2A40516   9.746  21.338   8.250
 6369POPC   C3A40517   9.747  21.388   7.950
 6369POPC   C4A40518   9.723  21.354   7.650
 6369POPC   C1B40519   9.455  21.412   8.550
 6369POPC   C2B40520   9.527  21.355   8.250
 6369POPC   C3B40521   9.534  21.399   7.950
 6369POPC   C4B40522   9.452  21.358   7.650
 6370POPC   NC340523  25.298  10.550   9.450
 6370POPC   PO440524  25.307  10.502   9.150
 6370POPC   GL140525  25.253  10.520   8.850
 6370POPC   GL240526  25.314  10.671   8.850
 6370POPC   C1A40527  25.273  10.574   8.550
 6370POPC   D2A40528  25.296  10.561   8.250
 6370POPC   C3A40529  25.247  10.482   7.950
 6370POPC   C4A40530  25.290  10.549   7.650
 6370POPC   C1B40531  25.305  10.736   8.550
 6370POPC   C2B40532  25.253  10.799   8.250
 6370POPC   C3B40533  25.254  10.786   7.950
 6370POPC   C4B40534  25.266  10.767   7.650
 6371POPC   NC340535  26.028  31.435   9.450
 6371POPC   PO440536  26.058  31.479   9.150
 6371POPC   GL140537  26.040  31.447   8.850
 6371POPC   GL240538  25.946  31.507   8.850
 6371POPC   C1A40539  26.015  31.471   8.550
 6371POPC   D2A40540  26.015  31.439   8.250
 6371POPC   C3A40541  25.993  31.475   7.950
 6371POPC   C4A40542  25.992  31.428   7.650
 6371POPC   C1B40543  25.775  31.449   8.550
 6371POPC   C2B40544  25.756  31.434   8.250
 6371POPC   C3B40545  25.801  31.419   7.950
 6371POPC   C4B40546  25.836  31.496   7.650
 6372POPC   NC340547  36.101  41.568   9.450
 6372POPC   PO440548  36.109  41.575   9.150
 6372POPC   GL140549  36.133  41.567   8.850
 6372POPC   GL240550  35.981  41.523   8.850
 6372POPC   C1A40551  36.094  41.550   8.550
 6372POPC   D2A40552  36.104  41.519   8.250
 6372POPC   C3A40553  36.114  41.598   7.950
 6372POPC   C4A40554  36.144  41.545   7.650
 6372POPC   C1B40555  35.911  41.453   8.550
 6372POPC   C2B40556  35.922  41.470   8.250
 6372POPC   C3B40557  35.899  41.431   7.950
 6372POPC   C4B40558  35.916  41.465   7.650
 6373POPC   NC340559  24.457  31.481   9.450
 6373POPC   PO440560  24.503  31.519   9.150
 6373POPC   GL140561  24.499  31.436   8.850
 6373POPC   GL240562  24.646  31.459   8.850
 6373POPC   C1A40563  24.520  31.435   8.550
 6373POPC   D2A40564  24.440  31.448   8.250
 6373POPC   C3A40565  24.509  31.444   7.950
 6373POPC   C4A40566  24.449  31.514   7.650
 6373POPC   C1B40567  24.729  31.543   8.550
 6373POPC   C2B40568  24.756  31.513   8.250
 6373POPC   C3B40569  24.774  31.556   7.950
 6373POPC   C4B40570  24.772  31.544   7.650
 6374POPC   NC340571   8.186  11.349   9.450
 6374POPC   PO440572   8.202  11.336   9.150
 6374POPC   GL140573   8.197  11.328   8.850
 6374POPC   GL240574   8.330  11.247   8.850
 6374POPC   C1A40575   8.184  11.259   8.550
 6374POPC   D2A40576   8.147  11.265   8.250
 6374POPC   C3A40577   8.203  11.267   7.950
 6374POPC   C4A40578   8.174  11.320   7.650
 6374POPC   C1B40579   8.399  11.103   8.550
 6374POPC   C2B40580   8.357  11.143   8.250
 6374POPC   C3B40581   8.418  11.126   7.950
 6374POPC   C4B40582   8.374  11.167   7.650
 6375POPC   NC340583  11.272  26.020   9.450
 6375POPC   PO440584  11.301  25.998   9.150
 6375POPC   GL140585  11.281  26.000   8.850
 6375POPC   GL240586  11.383  25.936   8.850
 6375POPC   C1A40587  11.269  26.004   8.550
 6375POPC   D2A40588  11.289  26.086   8.250
 6375POPC   C3A40589  11.326  26.035   7.950
 6375POPC   C4A40590  11.274  26.012   7.650
 6375POPC   C1B40591  11.406  25.829   8.550
 6375POPC   C2B40592  11.377  25.790   8.250
 6375POPC   C3B40593  11.423  25.766   7.950
 6375POPC   C4B40594  11.360  25.815   7.650
 6376POPC   NC340595  19.818   1.221   9.450
 6376POPC   PO440596  19.843   1.195   9.150
 6376POPC   GL140597  19.875   1.229   8.850
 6376POPC   GL240598  19.704   1.158   8.850
 6376POPC   C1A40599  19.874   1.193   8.550
 6376POPC   D2A40600  19.821   1.234   8.250
 6376POPC   C3A40601  19.849   1.260   7.950
 6376POPC   C4A40602  19.869   1.213   7.650
 6376POPC   C1B40603  19.685   1.011   8.550
 6376POPC   C2B40604  19.603   1.042   8.250
 6376POPC   C3B40605  19.682   0.998   7.950
 6376POPC   C4B40606  19.619   1.033   7.650
 6377POPC   NC340607  23.666   5.888   9.450
 6377POPC   PO440608  23.727   5.846   9.150
 6377POPC   GL140609  23.674   5.825   8.850
 6377POPC   GL240610  23.845   5.912   8.850
 6377POPC   C1A40611  23.673   5.868   8.550
 6377POPC   D2A40612  23.687   5.908   8.250
 6377POPC   C3A40613  23.698   5.914   7.950
 6377POPC   C4A40614  23.695   5.864   7.650
 6377POPC   C1B40615  23.923   5.931   8.550
 6377POPC   C2B40616  23.974   5.918   8.250
 6377POPC   C3B40617  24.011   5.905   7.950
 6377POPC   C4B40618  23.991   5.869   7.650
 6378POPC   NC340619  40.768  43.096   9.450
 6378POPC   PO440620  40.767  43.066   9.150
 6378POPC   GL140621  40.768  43.094   8.850
 6378POPC   GL240622  40.706  42.993   8.850
 6378POPC   C1A40623  40.820  43.069   8.550
 6378POPC   D2A40624  40.747  43.062   8.250
 6378POPC   C3A40625  40.788  43.115   7.950
 6378POPC   C4A40626  40.831  43.160   7.650
 6378POPC   C1B40627  40.562  42.944   8.550
 6378POPC   C2B40628  40.554  42.992   8.250
 6378POPC   C3B40629  40.564  42.988   7.950
 6378POPC   C4B40630  40.583  42.967   7.650
 6379POPC   NC340631  37.713  32.987   9.450
 6379POPC   PO440632  37.727  33.071   9.150
 6379POPC   GL140633  37.714  32.984   8.850
 6379POPC   GL240634  37.587  32.977   8.850
 6379POPC   C1A40635  37.723  33.063   8.550
 6379POPC   D2A40636  37.675  33.066   8.250
 6379POPC   C3A40637  37.668  32.996   7.950
 6379POPC   C4A40638  37.633  32.980   7.650
 6379POPC   C1B40639  37.526  32.850   8.550
 6379POPC   C2B40640  37.472  32.831   8.250
 6379POPC   C3B40641  37.531  32.918   7.950
 6379POPC   C4B40642  37.452  32.868   7.650
 6380POPC   NC340643   2.731  29.180   9.450
 6380POPC   PO440644   2.737  29.188   9.150
 6380POPC   GL140645   2.800  29.135   8.850
 6380POPC   GL240646   2.902  29.223   8.850
 6380POPC   C1A40647   2.762  29.128   8.550
 6380POPC   D2A40648   2.777  29.162   8.250
 6380POPC   C3A40649   2.806  29.146   7.950
 6380POPC   C4A40650   2.811  29.124   7.650
 6380POPC   C1B40651   3.014  29.266   8.550
 6380POPC   C2B40652   3.034  29.223   8.250
 6380POPC   C3B40653   3.033  29.230   7.950
 6380POPC   C4B40654   3.032  29.235   7.650
 6381POPC   NC340655  26.829  25.298   9.450
 6381POPC   PO440656  26.807  25.268   9.150
 6381POPC   GL140657  26.843  25.225   8.850
 6381POPC   GL240658  26.905  25.232   8.850
 6381POPC   C1A40659  26.768  25.236   8.550
 6381POPC   D2A40660  26.866  25.292   8.250
 6381POPC   C3A40661  26.791  25.304   7.950
 6381POPC   C4A40662  26.860  25.226   7.650
 6381POPC   C1B40663  27.057  25.190   8.550
 6381POPC   C2B40664  27.033  25.194   8.250
 6381POPC   C3B40665  27.065  25.243   7.950
 6381POPC   C4B40666  27.114  25.209   7.650
 6382POPC   NC340667  41.509   8.963   9.450
 6382POPC   PO440668  41.599   8.962   9.150
 6382POPC   GL140669  41.587   9.003   8.850
 6382POPC   GL240670  41.658   8.974   8.850
 6382POPC   C1A40671  41.544   8.977   8.550
 6382POPC   D2A40672  41.536   8.967   8.250
 6382POPC   C3A40673  41.517   9.012   7.950
 6382POPC   C4A40674  41.551   8.976   7.650
 6382POPC   C1B40675  41.841   9.006   8.550
 6382POPC   C2B40676  41.820   8.994   8.250
 6382POPC   C3B40677  41.789   8.986   7.950
 6382POPC   C4B40678  41.833   8.967   7.650
 6383POPC   NC340679  36.857  39.265   9.450
 6383POPC   PO440680  36.870  39.240   9.150
 6383POPC   GL140681  36.888  39.261   8.850
 6383POPC   GL240682  37.019  39.140   8.850
 6383POPC   C1A40683  36.920  39.218   8.550
 6383POPC   D2A40684  36.923  39.271   8.250
 6383POPC   C3A40685  36.917  39.212   7.950
 6383POPC   C4A40686  36.861  39.237   7.650
 6383POPC   C1B40687  36.999  39.058   8.550
 6383POPC   C2B40688  37.001  39.035   8.250
 6383POPC   C3B40689  37.063  39.025   7.950
 6383POPC   C4B40690  37.034  39.030   7.650
 6384POPC   NC340691   5.822  44.676   5.550
 6384POPC   PO440692   5.881  44.704   5.850
 6384POPC   GL140693   5.899  44.698   6.150
 6384POPC   GL240694   5.760  44.598   6.150
 6384POPC   C1A40695   5.861  44.696   6.450
 6384POPC   D2A40696   5.905  44.668   6.750
 6384POPC   C3A40697   5.871  44.620   7.050
 6384POPC   C4A40698   5.870  44.641   7.350
 6384POPC   C1B40699   5.675  44.544   6.450
 6384POPC   C2B40700   5.619  44.518   6.750
 6384POPC   C3B40701   5.672  44.525   7.050
 6384POPC   C4B40702   5.670  44.544   7.350
 6385POPC   NC340703  26.086  37.707   5.550
 6385POPC   PO440704  26.037  37.687   5.850
 6385POPC   GL140705  26.056  37.650   6.150
 6385POPC   GL240706  26.085  37.571   6.150
 6385POPC   C1A40707  26.029  37.668   6.450
 6385POPC   D2A40708  26.042  37.675   6.750
 6385POPC   C3A40709  26.027  37.637   7.050
 6385POPC   C4A40710  25.996  37.635   7.350
 6385POPC   C1B40711  26.079  37.431   6.450
 6385POPC   C2B40712  26.054  37.405   6.750
 6385POPC   C3B40713  26.031  37.458   7.050
 6385POPC   C4B40714  26.069  37.407   7.350
 6386POPC   NC340715  41.571  35.318   5.550
 6386POPC   PO440716  41.584  35.390   5.850
 6386POPC   GL140717  41.538  35.364   6.150
 6386POPC   GL240718  41.680  35.307   6.150
 6386POPC   C1A40719  41.575  35.380   6.450
 6386POPC   D2A40720  41.540  35.399   6.750
 6386POPC   C3A40721  41.523  35.338   7.050
 6386POPC   C4A40722  41.569  35.320   7.350
 6386POPC   C1B40723  41.822  35.223   6.450
 6386POPC   C2B40724  41.772  35.304   6.750
 6386POPC   C3B40725  41.797  35.278   7.050
 6386POPC   C4B40726  41.780  35.234   7.350
 6387POPC   NC340727  15.164  16.740   5.550
 6387POPC   PO440728  15.153  16.706   5.850
 6387POPC   GL140729  15.130  16.720   6.150
 6387POPC   GL240730  15.100  16.686   6.150
 6387POPC   C1A40731  15.206  16.757   6.450
 6387POPC   D2A40732  15.190  16.723   6.750
 6387POPC   C3A40733  15.157  16.722   7.050
 6387POPC   C4A40734  15.195  16.701   7.350
 6387POPC   C1B40735  14.971  16.548   6.450
 6387POPC   C2B40736  15.034  16.563   6.750
 6387POPC   C3B40737  15.002  16.587   7.050
 6387POPC   C4B40738  14.985  16.523   7.350
 6388POPC   NC340739  19.871  22.946   5.550
 6388POPC   PO440740  19.814  22.908   5.850
 6388POPC   GL140741  19.868  22.959   6.150
 6388POPC   GL240742  19.904  22.875   6.150
 6388POPC   C1A40743  19.864  22.983   6.450
 6388POPC   D2A40744  19.795  22.889   6.750
 6388POPC   C3A40745  19.840  22.897   7.050
 6388POPC   C4A40746  19.836  22.919   7.350
 6388POPC   C1B40747  20.113  22.853   6.450
 6388POPC   C2B40748  20.117  22.846   6.750
 6388POPC   C3B40749  20.110  22.851   7.050
 6388POPC   C4B40750  20.048  22.838   7.350
 6389POPC   NC340751  14.408  15.160   5.550
 6389POPC   PO440752  14.452  15.216   5.850
 6389POPC   GL140753  14.442  15.183   6.150
 6389POPC   GL240754  14.310  15.259   6.150
 6389POPC   C1A40755  14.396  15.202   6.450
 6389POPC   D2A40756  14.420  15.182   6.750
 6389POPC   C3A40757  14.366  15.133   7.050
 6389POPC   C4A40758  14.386  15.209   7.350
 6389POPC   C1B40759  14.145  15.268   6.450
 6389POPC   C2B40760  14.173  15.279   6.750
 6389POPC   C3B40761  14.161  15.225   7.050
 6389POPC   C4B40762  14.120  15.244   7.350
 6390POPC   NC340763  26.867   5.858   5.550
 6390POPC   PO440764  26.837   5.867   5.850
 6390POPC   GL140765  26.851   5.848   6.150
 6390POPC   GL240766  26.715   5.801   6.150
 6390POPC   C1A40767  26.853   5.848   6.450
 6390POPC   D2A40768  26.830   5.879   6.750
 6390POPC   C3A40769  26.776   5.829   7.050
 6390POPC   C4A40770  26.854   5.883   7.350
 6390POPC   C1B40771  26.557   5.723   6.450
 6390POPC   C2B40772  26.599   5.762   6.750
 6390POPC   C3B40773  26.586   5.724   7.050
 6390POPC   C4B40774  26.555   5.739   7.350
 6391POPC   NC340775  20.574   6.680   5.550
 6391POPC   PO440776  20.578   6.679   5.850
 6391POPC   GL140777  20.657   6.600   6.150
 6391POPC   GL240778  20.546   6.695   6.150
 6391POPC   C1A40779  20.654   6.604   6.450
 6391POPC   D2A40780  20.634   6.667   6.750
 6391POPC   C3A40781  20.643   6.687   7.050
 6391POPC   C4A40782  20.654   6.677   7.350
 6391POPC   C1B40783  20.341   6.738   6.450
 6391POPC   C2B40784  20.366   6.755   6.750
 6391POPC   C3B40785  20.365   6.788   7.050
 6391POPC   C4B40786  20.405   6.742   7.350
 6392POPC   NC340787  34.555  12.051   5.550
 6392POPC   PO440788  34.608  12.116   5.850
 6392POPC   GL140789  34.590  12.085   6.150
 6392POPC   GL240790  34.588  12.223   6.150
 6392POPC   C1A40791  34.602  12.056   6.450
 6392POPC   D2A40792  34.548  12.083   6.750
 6392POPC   C3A40793  34.557  12.080   7.050
 6392POPC   C4A40794  34.592  12.089   7.350
 6392POPC   C1B40795  34.558  12.322   6.450
 6392POPC   C2B40796  34.525  12.313   6.750
 6392POPC   C3B40797  34.550  12.351   7.050
 6392POPC   C4B40798  34.542  12.330   7.350
 6393POPC   NC340799  12.070  16.699   5.550
 6393POPC   PO440800  12.044  16.707   5.850
 6393POPC   GL140801  12.040  16.685   6.150
 6393POPC   GL240802  12.144  16.843   6.150
 6393POPC   C1A40803  12.074  16.752   6.450
 6393POPC   D2A40804  12.075  16.693   6.750
 6393POPC   C3A40805  12.092  16.716   7.050
 6393POPC   C4A40806  12.052  16.709   7.350
 6393POPC   C1B40807  12.177  17.006   6.450
 6393POPC   C2B40808  12.228  16.945   6.750
 6393POPC   C3B40809  12.189  16.965   7.050
 6393POPC   C4B40810  12.135  16.979   7.350
 6394POPC   NC340811  36.887  43.862   5.550
 6394POPC   PO440812  36.867  43.935   5.850
 6394POPC   GL140813  36.854  43.891   6.150
 6394POPC   GL240814  36.737  43.900   6.150
 6394POPC   C1A40815  36.899  43.864   6.450
 6394POPC   D2A40816  36.947  43.858   6.750
 6394POPC   C3A40817  36.941  43.864   7.050
 6394POPC   C4A40818  36.911  43.898   7.350
 6394POPC   C1B40819  36.640  43.905   6.450
 6394POPC   C2B40820  36.700  43.955   6.750
 6394POPC   C3B40821  36.660  43.868   7.050
 6394POPC   C4B40822  36.657  43.883   7.350
 6395POPC   NC340823  43.869  42.321   5.550
 6395POPC   PO440824  43.845  42.368   5.850
 6395POPC   GL140825  43.876  42.348   6.150
 6395POPC   GL240826  43.855  42.489   6.150
 6395POPC   C1A40827  43.860  42.285   6.450
 6395POPC   D2A40828  43.871  42.309   6.750
 6395POPC   C3A40829  43.842  42.376   7.050
 6395POPC   C4A40830  43.893  42.319   7.350
 6395POPC   C1B40831  43.830  42.613   6.450
 6395POPC   C2B40832  43.801  42.596   6.750
 6395POPC   C3B40833  43.796  42.556   7.050
 6395POPC   C4B40834  43.792  42.558   7.350
 6396POPC   NC340835  12.826  16.736   5.550
 6396POPC   PO440836  12.834  16.687   5.850
 6396POPC   GL140837  12.839  16.708   6.150
 6396POPC   GL240838  12.858  16.581   6.150
 6396POPC   C1A40839  12.873  16.719   6.450
 6396POPC   D2A40840  12.816  16.689   6.750
 6396POPC   C3A40841  12.862  16.754   7.050
 6396POPC   C4A40842  12.808  16.715   7.350
 6396POPC   C1B40843  12.770  16.490   6.450
 6396POPC   C2B40844  12.827  16.441   6.750
 6396POPC   C3B40845  12.840  16.475   7.050
 6396POPC   C4B40846  12.849  16.499   7.350
 6397POPC   NC340847  24.467   7.457   5.550
 6397POPC   PO440848  24.498   7.427   5.850
 6397POPC   GL140849  24.518   7.374   6.150
 6397POPC   GL240850  24.459   7.260   6.150
 6397POPC   C1A40851  24.530   7.410   6.450
 6397POPC   D2A40852  24.538   7.409   6.750
 6397POPC   C3A40853  24.518   7.446   7.050
 6397POPC   C4A40854  24.462   7.406   7.350
 6397POPC   C1B40855  24.451   7.197   6.450
 6397POPC   C2B40856  24.407   7.212   6.750
 6397POPC   C3B40857  24.392   7.205   7.050
 6397POPC   C4B40858  24.379   7.219   7.350
 6398POPC   NC340859   4.352  43.876   5.550
 6398POPC   PO440860   4.271  43.902   5.850
 6398POPC   GL140861   4.312  43.843   6.150
 6398POPC   GL240862   4.413  43.822   6.150
 6398POPC   C1A40863   4.334  43.904   6.450
 6398POPC   D2A40864   4.329  43.892   6.750
 6398POPC   C3A40865   4.273  43.910   7.050
 6398POPC   C4A40866   4.336  43.924   7.350
 6398POPC   C1B40867   4.443  43.659   6.450
 6398POPC   C2B40868   4.452  43.663   6.750
 6398POPC   C3B40869   4.436  43.706   7.050
 6398POPC   C4B40870   4.433  43.737   7.350
 6399POPC   NC340871  15.906  28.325   5.550
 6399POPC   PO440872  15.925  28.334   5.850
 6399POPC   GL140873  15.940  28.324   6.150
 6399POPC   GL240874  15.930  28.521   6.150
 6399POPC   C1A40875  15.977  28.412   6.450
 6399POPC   D2A40876  15.919  28.352   6.750
 6399POPC   C3A40877  15.991  28.338   7.050
 6399POPC   C4A40878  15.990  28.398   7.350
 6399POPC   C1B40879  15.942  28.592   6.450
 6399POPC   C2B40880  15.971  28.583   6.750
 6399POPC   C3B40881  15.995  28.594   7.050
 6399POPC   C4B40882  15.988  28.623   7.350
 6400POPC   NC340883  33.063  17.541   5.550
 6400POPC   PO440884  33.022  17.474   5.850
 6400POPC   GL140885  33.045  17.551   6.150
 6400POPC   GL240886  33.153  17.540   6.150
 6400POPC   C1A40887  33.032  17.555   6.450
 6400POPC   D2A40888  32.992  17.476   6.750
 6400POPC   C3A40889  32.986  17.511   7.050
 6400POPC   C4A40890  33.066  17.553   7.350
 6400POPC   C1B40891  33.228  17.608   6.450
 6400POPC   C2B40892  33.273  17.631   6.750
 6400POPC   C3B40893  33.202  17.603   7.050
 6400POPC   C4B40894  33.204  17.660   7.350
 6401POPC   NC340895  28.361  24.494   5.550
 6401POPC   PO440896  28.388  24.440   5.850
 6401POPC   GL140897  28.403  24.470   6.150
 6401POPC   GL240898  28.441  24.423   6.150
 6401POPC   C1A40899  28.368  24.530   6.450
 6401POPC   D2A40900  28.368  24.517   6.750
 6401POPC   C3A40901  28.377  24.443   7.050
 6401POPC   C4A40902  28.418  24.537   7.350
 6401POPC   C1B40903  28.565  24.345   6.450
 6401POPC   C2B40904  28.580  24.370   6.750
 6401POPC   C3B40905  28.590  24.397   7.050
 6401POPC   C4B40906  28.556  24.400   7.350
 6402POPC   NC340907  22.971  10.508   5.550
 6402POPC   PO440908  22.981  10.507   5.850
 6402POPC   GL140909  22.899  10.545   6.150
 6402POPC   GL240910  23.074  10.556   6.150
 6402POPC   C1A40911  22.919  10.522   6.450
 6402POPC   D2A40912  22.908  10.568   6.750
 6402POPC   C3A40913  22.902  10.497   7.050
 6402POPC   C4A40914  22.896  10.479   7.350
 6402POPC   C1B40915  23.193  10.487   6.450
 6402POPC   C2B40916  23.165  10.470   6.750
 6402POPC   C3B40917  23.192  10.532   7.050
 6402POPC   C4B40918  23.194  10.455   7.350
 6403POPC   NC340919  25.311  15.133   5.550
 6403POPC   PO440920  25.216  15.138   5.850
 6403POPC   GL140921  25.256  15.197   6.150
 6403POPC   GL240922  25.161  15.244   6.150
 6403POPC   C1A40923  25.222  15.216   6.450
 6403POPC   D2A40924  25.303  15.167   6.750
 6403POPC   C3A40925  25.281  15.186   7.050
 6403POPC   C4A40926  25.310  15.138   7.350
 6403POPC   C1B40927  25.117  15.362   6.450
 6403POPC   C2B40928  25.072  15.367   6.750
 6403POPC   C3B40929  25.120  15.354   7.050
 6403POPC   C4B40930  25.104  15.402   7.350
 6404POPC   NC340931   3.566   5.834   5.550
 6404POPC   PO440932   3.502   5.847   5.850
 6404POPC   GL140933   3.550   5.839   6.150
 6404POPC   GL240934   3.553   5.712   6.150
 6404POPC   C1A40935   3.525   5.874   6.450
 6404POPC   D2A40936   3.501   5.833   6.750
 6404POPC   C3A40937   3.516   5.916   7.050
 6404POPC   C4A40938   3.580   5.915   7.350
 6404POPC   C1B40939   3.607   5.639   6.450
 6404POPC   C2B40940   3.523   5.654   6.750
 6404POPC   C3B40941   3.575   5.637   7.050
 6404POPC   C4B40942   3.558   5.665   7.350
 6405POPC   NC340943  18.321  36.123   5.550
 6405POPC   PO440944  18.297  36.136   5.850
 6405POPC   GL140945  18.263  36.166   6.150
 6405POPC   GL240946  18.196  36.178   6.150
 6405POPC   C1A40947  18.271  36.078   6.450
 6405POPC   D2A40948  18.266  36.079   6.750
 6405POPC   C3A40949  18.290  36.091   7.050
 6405POPC   C4A40950  18.237  36.155   7.350
 6405POPC   C1B40951  18.000  36.194   6.450
 6405POPC   C2B40952  18.018  36.238   6.750
 6405POPC   C3B40953  18.034  36.200   7.050
 6405POPC   C4B40954  18.046  36.170   7.350
 6406POPC   NC340955  21.381  34.561   5.550
 6406POPC   PO440956  21.431  34.532   5.850
 6406POPC   GL140957  21.356  34.615   6.150
 6406POPC   GL240958  21.520  34.508   6.150
 6406POPC   C1A40959  21.396  34.588   6.450
 6406POPC   D2A40960  21.395  34.569   6.750
 6406POPC   C3A40961  21.435  34.536   7.050
 6406POPC   C4A40962  21.363  34.624   7.350
 6406POPC   C1B40963  21.643  34.560   6.450
 6406POPC   C2B40964  21.608  34.528   6.750
 6406POPC   C3B40965  21.586  34.507   7.050
 6406POPC   C4B40966  21.659  34.548   7.350
 6407POPC   NC340967   2.760   1.263   5.550
 6407POPC   PO440968   2.758   1.180   5.850
 6407POPC   GL140969   2.752   1.238   6.150
 6407POPC   GL240970   2.668   1.247   6.150
 6407POPC   C1A40971   2.727   1.188   6.450
 6407POPC   D2A40972   2.810   1.247   6.750
 6407POPC   C3A40973   2.806   1.223   7.050
 6407POPC   C4A40974   2.750   1.183   7.350
 6407POPC   C1B40975   2.468   1.212   6.450
 6407POPC   C2B40976   2.512   1.235   6.750
 6407POPC   C3B40977   2.503   1.185   7.050
 6407POPC   C4B40978   2.509   1.250   7.350
 6408POPC   NC340979  12.041  26.852   5.550
 6408POPC   PO440980  12.120  26.827   5.850
 6408POPC   GL140981  12.096  26.859   6.150
 6408POPC   GL240982  12.112  26.707   6.150
 6408POPC   C1A40983  12.057  26.844   6.450
 6408POPC   D2A40984  12.077  26.775   6.750
 6408POPC   C3A40985  12.096  26.794   7.050
 6408POPC   C4A40986  12.126  26.857   7.350
 6408POPC   C1B40987  12.233  26.608   6.450
 6408POPC   C2B40988  12.218  26.616   6.750
 6408POPC   C3B40989  12.286  26.633   7.050
 6408POPC   C4B40990  12.247  26.625   7.350
 6409POPC   NC340991  31.503  29.192   5.550
 6409POPC   PO440992  31.423  29.126   5.850
 6409POPC   GL140993  31.437  29.108   6.150
 6409POPC   GL240994  31.318  29.126   6.150
 6409POPC   C1A40995  31.427  29.146   6.450
 6409POPC   D2A40996  31.465  29.160   6.750
 6409POPC   C3A40997  31.514  29.132   7.050
 6409POPC   C4A40998  31.487  29.098   7.350
 6409POPC   C1B40999  31.272  29.051   6.450
 6409POPC   C2B41000  31.183  29.151   6.750
 6409POPC   C3B41001  31.241  29.141   7.050
 6409POPC   C4B41002  31.204  29.096   7.350
 6410POPC   NC341003  33.777  33.791   5.550
 6410POPC   PO441004  33.838  33.787   5.850
 6410POPC   GL141005  33.805  33.807   6.150
 6410POPC   GL241006  33.832  33.633   6.150
 6410POPC   C1A41007  33.809  33.838   6.450
 6410POPC   D2A41008  33.831  33.772   6.750
 6410POPC   C3A41009  33.822  33.816   7.050
 6410POPC   C4A41010  33.826  33.783   7.350
 6410POPC   C1B41011  33.915  33.541   6.450
 6410POPC   C2B41012  33.885  33.553   6.750
 6410POPC   C3B41013  33.918  33.605   7.050
 6410POPC   C4B41014  33.860  33.536   7.350
 6411POPC   NC341015   8.172  20.658   5.550
 6411POPC   PO441016   8.167  20.590   5.850
 6411POPC   GL141017   8.196  20.602   6.150
 6411POPC   GL241018   8.277  20.553   6.150
 6411POPC   C1A41019   8.174  20.581   6.450
 6411POPC   D2A41020   8.236  20.630   6.750
 6411POPC   C3A41021   8.192  20.573   7.050
 6411POPC   C4A41022   8.168  20.602   7.350
 6411POPC   C1B41023   8.458  20.562   6.450
 6411POPC   C2B41024   8.417  20.530   6.750
 6411POPC   C3B41025   8.407  20.552   7.050
 6411POPC   C4B41026   8.460  20.579   7.350
 6412POPC   NC341027  28.399  43.085   5.550
 6412POPC   PO441028  28.357  43.102   5.850
 6412POPC   GL141029  28.341  43.072   6.150
 6412POPC   GL241030  28.417  43.234   6.150
 6412POPC   C1A41031  28.398  43.095   6.450
 6412POPC   D2A41032  28.408  43.084   6.750
 6412POPC   C3A41033  28.398  43.127   7.050
 6412POPC   C4A41034  28.377  43.140   7.350
 6412POPC   C1B41035  28.489  43.322   6.450
 6412POPC   C2B41036  28.480  43.306   6.750
 6412POPC   C3B41037  28.502  43.350   7.050
 6412POPC   C4B41038  28.488  43.319   7.350
 6413POPC   NC341039  33.030  36.083   5.550
 6413POPC   PO441040  32.985  36.109   5.850
 6413POPC   GL141041  32.979  36.081   6.150
 6413POPC   GL241042  32.906  36.174   6.150
 6413POPC   C1A41043  33.069  36.086   6.450
 6413POPC   D2A41044  33.014  36.150   6.750
 6413POPC   C3A41045  33.062  36.131   7.050
 6413POPC   C4A41046  33.063  36.159   7.350
 6413POPC   C1B41047  32.827  36.206   6.450
 6413POPC   C2B41048  32.761  36.231   6.750
 6413POPC   C3B41049  32.775  36.239   7.050
 6413POPC   C4B41050  32.798  36.225   7.350
 6414POPC   NC341051   7.416   2.736   5.550
 6414POPC   PO441052   7.391   2.750   5.850
 6414POPC   GL141053   7.421   2.778   6.150
 6414POPC   GL241054   7.326   2.753   6.150
 6414POPC   C1A41055   7.443   2.789   6.450
 6414POPC   D2A41056   7.452   2.743   6.750
 6414POPC   C3A41057   7.382   2.814   7.050
 6414POPC   C4A41058   7.405   2.764   7.350
 6414POPC   C1B41059   7.217   2.739   6.450
 6414POPC   C2B41060   7.160   2.737   6.750
 6414POPC   C3B41061   7.130   2.783   7.050
 6414POPC   C4B41062   7.130   2.789   7.350
 6415POPC   NC341063  28.409  17.530   5.550
 6415POPC   PO441064  28.341  17.501   5.850
 6415POPC   GL141065  28.404  17.485   6.150
 6415POPC   GL241066  28.380  17.603   6.150
 6415POPC   C1A41067  28.356  17.496   6.450
 6415POPC   D2A41068  28.348  17.513   6.750
 6415POPC   C3A41069  28.374  17.553   7.050
 6415POPC   C4A41070  28.383  17.503   7.350
 6415POPC   C1B41071  28.326  17.709   6.450
 6415POPC   C2B41072  28.364  17.749   6.750
 6415POPC   C3B41073  28.360  17.714   7.050
 6415POPC   C4B41074  28.365  17.708   7.350
 6416POPC   NC341075  33.822  17.552   5.550
 6416POPC   PO441076  33.757  17.466   5.850
 6416POPC   GL141077  33.794  17.464   6.150
 6416POPC   GL241078  33.884  17.594   6.150
 6416POPC   C1A41079  33.804  17.548   6.450
 6416POPC   D2A41080  33.766  17.464   6.750
 6416POPC   C3A41081  33.765  17.464   7.050
 6416POPC   C4A41082  33.819  17.523   7.350
 6416POPC   C1B41083  33.979  17.712   6.450
 6416POPC   C2B41084  33.992  17.702   6.750
 6416POPC   C3B41085  33.941  17.692   7.050
 6416POPC   C4B41086  34.022  17.694   7.350
 6417POPC   NC341087  12.049  35.393   5.550
 6417POPC   PO441088  12.068  35.329   5.850
 6417POPC   GL141089  12.027  35.363   6.150
 6417POPC   GL241090  12.013  35.295   6.150
 6417POPC   C1A41091  12.051  35.303   6.450
 6417POPC   D2A41092  12.103  35.400   6.750
 6417POPC   C3A41093  12.068  35.311   7.050
 6417POPC   C4A41094  12.071  35.324   7.350
 6417POPC   C1B41095  11.886  35.202   6.450
 6417POPC   C2B41096  11.833  35.231   6.750
 6417POPC   C3B41097  11.852  35.240   7.050
 6417POPC   C4B41098  11.906  35.254   7.350
 6418POPC   NC341099  26.853  29.123   5.550
 6418POPC   PO441100  26.804  29.160   5.850
 6418POPC   GL141101  26.837  29.136   6.150
 6418POPC   GL241102  26.856  29.236   6.150
 6418POPC   C1A41103  26.853  29.144   6.450
 6418POPC   D2A41104  26.862  29.109   6.750
 6418POPC   C3A41105  26.853  29.125   7.050
 6418POPC   C4A41106  26.861  29.186   7.350
 6418POPC   C1B41107  26.933  29.343   6.450
 6418POPC   C2B41108  26.894  29.390   6.750
 6418POPC   C3B41109  26.866  29.353   7.050
 6418POPC   C4B41110  26.940  29.329   7.350
 6419POPC   NC341111  14.452  35.348   5.550
 6419POPC   PO441112  14.392  35.320   5.850
 6419POPC   GL141113  14.438  35.360   6.150
 6419POPC   GL241114  14.264  35.233   6.150
 6419POPC   C1A41115  14.446  35.322   6.450
 6419POPC   D2A41116  14.360  35.398   6.750
 6419POPC   C3A41117  14.405  35.357   7.050
 6419POPC   C4A41118  14.375  35.355   7.350
 6419POPC   C1B41119  14.238  35.152   6.450
 6419POPC   C2B41120  14.257  35.225   6.750
 6419POPC   C3B41121  14.244  35.230   7.050
 6419POPC   C4B41122  14.260  35.160   7.350
 6420POPC   NC341123  17.543  15.977   5.550
 6420POPC   PO441124  17.473  15.916   5.850
 6420POPC   GL141125  17.466  15.972   6.150
 6420POPC   GL241126  17.478  15.823   6.150
 6420POPC   C1A41127  17.496  15.980   6.450
 6420POPC   D2A41128  17.514  15.916   6.750
 6420POPC   C3A41129  17.478  15.975   7.050
 6420POPC   C4A41130  17.554  15.909   7.350
 6420POPC   C1B41131  17.467  15.716   6.450
 6420POPC   C2B41132  17.496  15.730   6.750
 6420POPC   C3B41133  17.546  15.684   7.050
 6420POPC   C4B41134  17.543  15.734   7.350
 6421POPC   NC341135  26.842  19.794   5.550
 6421POPC   PO441136  26.830  19.807   5.850
 6421POPC   GL141137  26.865  19.837   6.150
 6421POPC   GL241138  26.655  19.770   6.150
 6421POPC   C1A41139  26.788  19.818   6.450
 6421POPC   D2A41140  26.776  19.868   6.750
 6421POPC   C3A41141  26.778  19.816   7.050
 6421POPC   C4A41142  26.830  19.799   7.350
 6421POPC   C1B41143  26.597  19.810   6.450
 6421POPC   C2B41144  26.566  19.746   6.750
 6421POPC   C3B41145  26.585  19.787   7.050
 6421POPC   C4B41146  26.561  19.834   7.350
 6422POPC   NC341147  27.586  33.058   5.550
 6422POPC   PO441148  27.590  32.975   5.850
 6422POPC   GL141149  27.554  33.005   6.150
 6422POPC   GL241150  27.486  32.954   6.150
 6422POPC   C1A41151  27.566  32.976   6.450
 6422POPC   D2A41152  27.597  32.975   6.750
 6422POPC   C3A41153  27.576  32.991   7.050
 6422POPC   C4A41154  27.606  32.980   7.350
 6422POPC   C1B41155  27.368  32.927   6.450
 6422POPC   C2B41156  27.398  32.905   6.750
 6422POPC   C3B41157  27.353  32.925   7.050
 6422POPC   C4B41158  27.357  32.884   7.350
 6423POPC   NC341159  22.194  34.605   5.550
 6423POPC   PO441160  22.146  34.596   5.850
 6423POPC   GL141161  22.132  34.590   6.150
 6423POPC   GL241162  22.278  34.521   6.150
 6423POPC   C1A41163  22.171  34.575   6.450
 6423POPC   D2A41164  22.177  34.543   6.750
 6423POPC   C3A41165  22.207  34.537   7.050
 6423POPC   C4A41166  22.204  34.608   7.350
 6423POPC   C1B41167  22.304  34.374   6.450
 6423POPC   C2B41168  22.343  34.395   6.750
 6423POPC   C3B41169  22.361  34.384   7.050
 6423POPC   C4B41170  22.312  34.430   7.350
 6424POPC   NC341171  12.100   2.774   5.550
 6424POPC   PO441172  12.113   2.788   5.850
 6424POPC   GL141173  12.059   2.779   6.150
 6424POPC   GL241174  12.001   2.711   6.150
 6424POPC   C1A41175  12.057   2.797   6.450
 6424POPC   D2A41176  12.063   2.777   6.750
 6424POPC   C3A41177  12.116   2.796   7.050
 6424POPC   C4A41178  12.063   2.779   7.350
 6424POPC   C1B41179  11.964   2.584   6.450
 6424POPC   C2B41180  11.891   2.571   6.750
 6424POPC   C3B41181  11.945   2.594   7.050
 6424POPC   C4B41182  11.889   2.601   7.350
 6425POPC   NC341183  15.930   1.973   5.550
 6425POPC   PO441184  15.981   1.960   5.850
 6425POPC   GL141185  15.988   2.023   6.150
 6425POPC   GL241186  15.942   1.912   6.150
 6425POPC   C1A41187  15.972   1.999   6.450
 6425POPC   D2A41188  15.954   1.971   6.750
 6425POPC   C3A41189  15.992   2.000   7.050
 6425POPC   C4A41190  15.923   1.943   7.350
 6425POPC   C1B41191  15.871   1.771   6.450
 6425POPC   C2B41192  15.875   1.770   6.750
 6425POPC   C3B41193  15.902   1.766   7.050
 6425POPC   C4B41194  15.879   1.735   7.350
 6426POPC   NC341195  43.857  18.281   5.550
 6426POPC   PO441196  43.854  18.271   5.850
 6426POPC   GL141197  43.860  18.300   6.150
 6426POPC   GL241198  43.983  18.288   6.150
 6426POPC   C1A41199  43.897  18.242   6.450
 6426POPC   D2A41200  43.889  18.309   6.750
 6426POPC   C3A41201  43.910  18.300   7.050
 6426POPC   C4A41202  43.882  18.265   7.350
 6426POPC   C1B41203  44.084  18.308   6.450
 6426POPC   C2B41204  44.173  18.353   6.750
 6426POPC   C3B41205  44.153  18.312   7.050
 6426POPC   C4B41206  44.114  18.379   7.350
 6427POPC   NC341207  31.501  31.496   5.550
 6427POPC   PO441208  31.461  31.455   5.850
 6427POPC   GL141209  31.432  31.520   6.150
 6427POPC   GL241210  31.343  31.565   6.150
 6427POPC   C1A41211  31.447  31.448   6.450
 6427POPC   D2A41212  31.494  31.434   6.750
 6427POPC   C3A41213  31.469  31.449   7.050
 6427POPC   C4A41214  31.509  31.452   7.350
 6427POPC   C1B41215  31.254  31.623   6.450
 6427POPC   C2B41216  31.236  31.561   6.750
 6427POPC   C3B41217  31.257  31.571   7.050
 6427POPC   C4B41218  31.282  31.615   7.350
 6428POPC   NC341219  10.495  39.223   5.550
 6428POPC   PO441220  10.523  39.275   5.850
 6428POPC   GL141221  10.493  39.231   6.150
 6428POPC   GL241222  10.437  39.269   6.150
 6428POPC   C1A41223  10.571  39.239   6.450
 6428POPC   D2A41224  10.529  39.214   6.750
 6428POPC   C3A41225  10.526  39.222   7.050
 6428POPC   C4A41226  10.505  39.229   7.350
 6428POPC   C1B41227  10.320  39.403   6.450
 6428POPC   C2B41228  10.313  39.385   6.750
 6428POPC   C3B41229  10.358  39.374   7.050
 6428POPC   C4B41230  10.321  39.391   7.350
 6429POPC   NC341231  19.848  40.012   5.550
 6429POPC   PO441232  19.817  39.989   5.850
 6429POPC   GL141233  19.816  40.026   6.150
 6429POPC   GL241234  19.723  39.889   6.150
 6429POPC   C1A41235  19.810  39.972   6.450
 6429POPC   D2A41236  19.857  39.984   6.750
 6429POPC   C3A41237  19.846  39.976   7.050
 6429POPC   C4A41238  19.808  39.979   7.350
 6429POPC   C1B41239  19.688  39.750   6.450
 6429POPC   C2B41240  19.703  39.808   6.750
 6429POPC   C3B41241  19.663  39.774   7.050
 6429POPC   C4B41242  19.656  39.791   7.350
 6430POPC   NC341243  27.612   2.024   5.550
 6430POPC   PO441244  27.591   1.975   5.850
 6430POPC   GL141245  27.588   2.031   6.150
 6430POPC   GL241246  27.710   2.088   6.150
 6430POPC   C1A41247  27.643   1.956   6.450
 6430POPC   D2A41248  27.641   1.991   6.750
 6430POPC   C3A41249  27.565   1.958   7.050
 6430POPC   C4A41250  27.633   1.968   7.350
 6430POPC   C1B41251  27.726   2.158   6.450
 6430POPC   C2B41252  27.755   2.170   6.750
 6430POPC   C3B41253  27.754   2.191   7.050
 6430POPC   C4B41254  27.741   2.155   7.350
 6431POPC   NC341255   2.808  14.413   5.550
 6431POPC   PO441256   2.790  14.355   5.850
 6431POPC   GL141257   2.749  14.421   6.150
 6431POPC   GL241258   2.701  14.448   6.150
 6431POPC   C1A41259   2.723  14.364   6.450
 6431POPC   D2A41260   2.746  14.442   6.750
 6431POPC   C3A41261   2.761  14.426   7.050
 6431POPC   C4A41262   2.762  14.453   7.350
 6431POPC   C1B41263   2.620  14.542   6.450
 6431POPC   C2B41264   2.581  14.607   6.750
 6431POPC   C3B41265   2.588  14.603   7.050
 6431POPC   C4B41266   2.553  14.545   7.350
 6432POPC   NC341267  29.905  22.196   5.550
 6432POPC   PO441268  29.969  22.139   5.850
 6432POPC   GL141269  29.876  22.144   6.150
 6432POPC   GL241270  30.033  22.128   6.150
 6432POPC   C1A41271  29.924  22.172   6.450
 6432POPC   D2A41272  29.908  22.202   6.750
 6432POPC   C3A41273  29.893  22.202   7.050
 6432POPC   C4A41274  29.924  22.120   7.350
 6432POPC   C1B41275  30.198  22.030   6.450
 6432POPC   C2B41276  30.170  22.099   6.750
 6432POPC   C3B41277  30.157  22.031   7.050
 6432POPC   C4B41278  30.180  22.018   7.350
 6433POPC   NC341279   8.979  19.105   5.550
 6433POPC   PO441280   8.969  19.091   5.850
 6433POPC   GL141281   8.970  19.024   6.150
 6433POPC   GL241282   8.999  18.919   6.150
 6433POPC   C1A41283   8.967  19.089   6.450
 6433POPC   D2A41284   8.996  19.035   6.750
 6433POPC   C3A41285   9.012  19.082   7.050
 6433POPC   C4A41286   8.975  19.091   7.350
 6433POPC   C1B41287   9.022  18.760   6.450
 6433POPC   C2B41288   9.028  18.768   6.750
 6433POPC   C3B41289   8.952  18.768   7.050
 6433POPC   C4B41290   8.980  18.797   7.350
 6434POPC   NC341291  30.734  15.209   5.550
 6434POPC   PO441292  30.684  15.200   5.850
 6434POPC   GL141293  30.698  15.161   6.150
 6434POPC   GL241294  30.786  15.115   6.150
 6434POPC   C1A41295  30.673  15.147   6.450
 6434POPC   D2A41296  30.734  15.214   6.750
 6434POPC   C3A41297  30.666  15.174   7.050
 6434POPC   C4A41298  30.743  15.181   7.350
 6434POPC   C1B41299  30.798  14.966   6.450
 6434POPC   C2B41300  30.818  14.974   6.750
 6434POPC   C3B41301  30.794  14.995   7.050
 6434POPC   C4B41302  30.793  14.990   7.350
 6435POPC   NC341303  29.122  34.624   5.550
 6435POPC   PO441304  29.144  34.587   5.850
 6435POPC   GL141305  29.152  34.529   6.150
 6435POPC   GL241306  29.171  34.486   6.150
 6435POPC   C1A41307  29.140  34.587   6.450
 6435POPC   D2A41308  29.128  34.590   6.750
 6435POPC   C3A41309  29.129  34.532   7.050
 6435POPC   C4A41310  29.104  34.574   7.350
 6435POPC   C1B41311  29.062  34.330   6.450
 6435POPC   C2B41312  29.144  34.304   6.750
 6435POPC   C3B41313  29.123  34.363   7.050
 6435POPC   C4B41314  29.153  34.359   7.350
 6436POPC   NC341315  28.388  30.683   5.550
 6436POPC   PO441316  28.403  30.659   5.850
 6436POPC   GL141317  28.388  30.666   6.150
 6436POPC   GL241318  28.421  30.611   6.150
 6436POPC   C1A41319  28.394  30.688   6.450
 6436POPC   D2A41320  28.362  30.665   6.750
 6436POPC   C3A41321  28.360  30.696   7.050
 6436POPC   C4A41322  28.344  30.732   7.350
 6436POPC   C1B41323  28.338  30.426   6.450
 6436POPC   C2B41324  28.416  30.463   6.750
 6436POPC   C3B41325  28.394  30.471   7.050
 6436POPC   C4B41326  28.362  30.468   7.350
 6437POPC   NC341327  15.220  44.686   5.550
 6437POPC   PO441328  15.226  44.665   5.850
 6437POPC   GL141329  15.136  44.709   6.150
 6437POPC   GL241330  15.179  44.574   6.150
 6437POPC   C1A41331  15.159  44.634   6.450
 6437POPC   D2A41332  15.185  44.657   6.750
 6437POPC   C3A41333  15.137  44.621   7.050
 6437POPC   C4A41334  15.189  44.626   7.350
 6437POPC   C1B41335  15.085  44.437   6.450
 6437POPC   C2B41336  15.109  44.440   6.750
 6437POPC   C3B41337  15.048  44.436   7.050
 6437POPC   C4B41338  15.085  44.464   7.350
 6438POPC   NC341339   1.184  25.258   5.550
 6438POPC   PO441340   1.229  25.241   5.850
 6438POPC   GL141341   1.246  25.311   6.150
 6438POPC   GL241342   1.133  25.292   6.150
 6438POPC   C1A41343   1.164  25.272   6.450
 6438POPC   D2A41344   1.167  25.265   6.750
 6438POPC   C3A41345   1.232  25.251   7.050
 6438POPC   C4A41346   1.259  25.284   7.350
 6438POPC   C1B41347   0.981  25.411   6.450
 6438POPC   C2B41348   0.960  25.352   6.750
 6438POPC   C3B41349   0.975  25.439   7.050
 6438POPC   C4B41350   1.048  25.447   7.350
 6439POPC   NC341351  22.927   5.057   5.550
 6439POPC   PO441352  22.910   5.059   5.850
 6439POPC   GL141353  22.965   5.115   6.150
 6439POPC   GL241354  22.997   5.019   6.150
 6439POPC   C1A41355  22.900   5.088   6.450
 6439POPC   D2A41356  22.975   5.084   6.750
 6439POPC   C3A41357  22.961   5.101   7.050
 6439POPC   C4A41358  22.964   5.087   7.350
 6439POPC   C1B41359  23.058   4.866   6.450
 6439POPC   C2B41360  23.028   4.838   6.750
 6439POPC   C3B41361  23.035   4.838   7.050
 6439POPC   C4B41362  23.012   4.872   7.350
 6440POPC   NC341363  15.207   4.361   5.550
 6440POPC   PO441364  15.140   4.295   5.850
 6440POPC   GL141365  15.202   4.313   6.150
 6440POPC   GL241366  15.047   4.270   6.150
 6440POPC   C1A41367  15.161   4.282   6.450
 6440POPC   D2A41368  15.208   4.271   6.750
 6440POPC   C3A41369  15.184   4.331   7.050
 6440POPC   C4A41370  15.137   4.298   7.350
 6440POPC   C1B41371  14.939   4.365   6.450
 6440POPC   C2B41372  14.897   4.366   6.750
 6440POPC   C3B41373  14.950   4.360   7.050
 6440POPC   C4B41374  14.966   4.333   7.350
 6441POPC   NC341375  15.992  22.140   5.550
 6441POPC   PO441376  15.918  22.131   5.850
 6441POPC   GL141377  15.990  22.130   6.150
 6441POPC   GL241378  15.865  22.264   6.150
 6441POPC   C1A41379  16.000  22.116   6.450
 6441POPC   D2A41380  15.944  22.178   6.750
 6441POPC   C3A41381  15.912  22.209   7.050
 6441POPC   C4A41382  15.997  22.169   7.350
 6441POPC   C1B41383  15.863  22.363   6.450
 6441POPC   C2B41384  15.905  22.442   6.750
 6441POPC   C3B41385  15.824  22.413   7.050
 6441POPC   C4B41386  15.835  22.392   7.350
 6442POPC   NC341387  13.597  19.849   5.550
 6442POPC   PO441388  13.608  19.857   5.850
 6442POPC   GL141389  13.621  19.849   6.150
 6442POPC   GL241390  13.727  19.754   6.150
 6442POPC   C1A41391  13.596  19.878   6.450
 6442POPC   D2A41392  13.617  19.842   6.750
 6442POPC   C3A41393  13.601  19.844   7.050
 6442POPC   C4A41394  13.651  19.794   7.350
 6442POPC   C1B41395  13.781  19.625   6.450
 6442POPC   C2B41396  13.780  19.578   6.750
 6442POPC   C3B41397  13.755  19.669   7.050
 6442POPC   C4B41398  13.793  19.656   7.350
 6443POPC   NC341399  43.148   2.766   5.550
 6443POPC   PO441400  43.093   2.804   5.850
 6443POPC   GL141401  43.129   2.778   6.150
 6443POPC   GL241402  43.092   2.882   6.150
 6443POPC   C1A41403  43.063   2.788   6.450
 6443POPC   D2A41404  43.131   2.802   6.750
 6443POPC   C3A41405  43.112   2.720   7.050
 6443POPC   C4A41406  43.114   2.759   7.350
 6443POPC   C1B41407  43.056   3.031   6.450
 6443POPC   C2B41408  43.012   3.020   6.750
 6443POPC   C3B41409  43.064   3.043   7.050
 6443POPC   C4B41410  43.062   3.009   7.350
 6444POPC   NC341411  40.815  18.249   5.550
 6444POPC   PO441412  40.823  18.267   5.850
 6444POPC   GL141413  40.818  18.320   6.150
 6444POPC   GL241414  40.871  18.323   6.150
 6444POPC   C1A41415  40.750  18.320   6.450
 6444POPC   D2A41416  40.801  18.295   6.750
 6444POPC   C3A41417  40.740  18.277   7.050
 6444POPC   C4A41418  40.752  18.323   7.350
 6444POPC   C1B41419  40.957  18.434   6.450
 6444POPC   C2B41420  41.003  18.398   6.750
 6444POPC   C3B41421  40.992  18.416   7.050
 6444POPC   C4B41422  40.941  18.469   7.350
 6445POPC   NC341423  35.399  41.567   5.550
 6445POPC   PO441424  35.346  41.541   5.850
 6445POPC   GL141425  35.344  41.578   6.150
 6445POPC   GL241426  35.258  41.632   6.150
 6445POPC   C1A41427  35.341  41.575   6.450
 6445POPC   D2A41428  35.373  41.549   6.750
 6445POPC   C3A41429  35.304  41.549   7.050
 6445POPC   C4A41430  35.343  41.546   7.350
 6445POPC   C1B41431  35.289  41.747   6.450
 6445POPC   C2B41432  35.268  41.816   6.750
 6445POPC   C3B41433  35.292  41.807   7.050
 6445POPC   C4B41434  35.221  41.761   7.350
 6446POPC   NC341435  41.568  13.669   5.550
 6446POPC   PO441436  41.530  13.645   5.850
 6446POPC   GL141437  41.543  13.665   6.150
 6446POPC   GL241438  41.474  13.633   6.150
 6446POPC   C1A41439  41.597  13.663   6.450
 6446POPC   D2A41440  41.601  13.667   6.750
 6446POPC   C3A41441  41.593  13.666   7.050
 6446POPC   C4A41442  41.605  13.670   7.350
 6446POPC   C1B41443  41.300  13.761   6.450
 6446POPC   C2B41444  41.373  13.765   6.750
 6446POPC   C3B41445  41.311  13.677   7.050
 6446POPC   C4B41446  41.284  13.759   7.350
 6447POPC   NC341447  40.748  22.961   5.550
 6447POPC   PO441448  40.773  22.901   5.850
 6447POPC   GL141449  40.809  22.915   6.150
 6447POPC   GL241450  40.931  22.865   6.150
 6447POPC   C1A41451  40.766  22.906   6.450
 6447POPC   D2A41452  40.776  22.919   6.750
 6447POPC   C3A41453  40.822  22.959   7.050
 6447POPC   C4A41454  40.802  22.910   7.350
 6447POPC   C1B41455  41.071  22.848   6.450
 6447POPC   C2B41456  40.982  22.907   6.750
 6447POPC   C3B41457  41.021  22.909   7.050
 6447POPC   C4B41458  41.015  22.860   7.350
 6448POPC   NC341459  10.484  31.424   5.550
 6448POPC   PO441460  10.549  31.495   5.850
 6448POPC   GL141461  10.512  31.487   6.150
 6448POPC   GL241462  10.597  31.362   6.150
 6448POPC   C1A41463  10.528  31.474   6.450
 6448POPC   D2A41464  10.523  31.502   6.750
 6448POPC   C3A41465  10.571  31.429   7.050
 6448POPC   C4A41466  10.507  31.516   7.350
 6448POPC   C1B41467  10.676  31.267   6.450
 6448POPC   C2B41468  10.663  31.224   6.750
 6448POPC   C3B41469  10.646  31.226   7.050
 6448POPC   C4B41470  10.696  31.241   7.350
 6449POPC   NC341471  28.343  39.223   5.550
 6449POPC   PO441472  28.390  39.265   5.850
 6449POPC   GL141473  28.358  39.223   6.150
 6449POPC   GL241474  28.481  39.194   6.150
 6449POPC   C1A41475  28.353  39.184   6.450
 6449POPC   D2A41476  28.407  39.213   6.750
 6449POPC   C3A41477  28.415  39.231   7.050
 6449POPC   C4A41478  28.327  39.230   7.350
 6449POPC   C1B41479  28.587  39.203   6.450
 6449POPC   C2B41480  28.616  39.199   6.750
 6449POPC   C3B41481  28.591  39.247   7.050
 6449POPC   C4B41482  28.589  39.205   7.350
 6450POPC   NC341483  43.130  10.530   5.550
 6450POPC   PO441484  43.069  10.527   5.850
 6450POPC   GL141485  43.117  10.476   6.150
 6450POPC   GL241486  43.023  10.446   6.150
 6450POPC   C1A41487  43.151  10.500   6.450
 6450POPC   D2A41488  43.125  10.569   6.750
 6450POPC   C3A41489  43.157  10.569   7.050
 6450POPC   C4A41490  43.124  10.571   7.350
 6450POPC   C1B41491  42.892  10.364   6.450
 6450POPC   C2B41492  42.843  10.446   6.750
 6450POPC   C3B41493  42.942  10.411   7.050
 6450POPC   C4B41494  42.854  10.413   7.350
 6451POPC   NC341495  11.260   8.968   5.550
 6451POPC   PO441496  11.294   8.967   5.850
 6451POPC   GL141497  11.305   8.963   6.150
 6451POPC   GL241498  11.312   9.093   6.150
 6451POPC   C1A41499  11.299   8.924   6.450
 6451POPC   D2A41500  11.268   9.022   6.750
 6451POPC   C3A41501  11.321   8.938   7.050
 6451POPC   C4A41502  11.293   8.933   7.350
 6451POPC   C1B41503  11.413   9.207   6.450
 6451POPC   C2B41504  11.387   9.207   6.750
 6451POPC   C3B41505  11.377   9.200   7.050
 6451POPC   C4B41506  11.357   9.204   7.350
 6452POPC   NC341507  39.205  14.394   5.550
 6452POPC   PO441508  39.190  14.380   5.850
 6452POPC   GL141509  39.229  14.383   6.150
 6452POPC   GL241510  39.362  14.369   6.150
 6452POPC   C1A41511  39.268  14.398   6.450
 6452POPC   D2A41512  39.184  14.408   6.750
 6452POPC   C3A41513  39.241  14.449   7.050
 6452POPC   C4A41514  39.244  14.401   7.350
 6452POPC   C1B41515  39.398  14.273   6.450
 6452POPC   C2B41516  39.453  14.221   6.750
 6452POPC   C3B41517  39.411  14.301   7.050
 6452POPC   C4B41518  39.475  14.285   7.350
 6453POPC   NC341519   5.849  31.469   5.550
 6453POPC   PO441520   5.849  31.493   5.850
 6453POPC   GL141521   5.847  31.463   6.150
 6453POPC   GL241522   5.712  31.469   6.150
 6453POPC   C1A41523   5.841  31.484   6.450
 6453POPC   D2A41524   5.892  31.485   6.750
 6453POPC   C3A41525   5.854  31.522   7.050
 6453POPC   C4A41526   5.860  31.486   7.350
 6453POPC   C1B41527   5.592  31.589   6.450
 6453POPC   C2B41528   5.637  31.505   6.750
 6453POPC   C3B41529   5.637  31.561   7.050
 6453POPC   C4B41530   5.677  31.553   7.350
 6454POPC   NC341531  39.196  12.088   5.550
 6454POPC   PO441532  39.239  12.122   5.850
 6454POPC   GL141533  39.220  12.118   6.150
 6454POPC   GL241534  39.346  12.021   6.150
 6454POPC   C1A41535  39.211  12.100   6.450
 6454POPC   D2A41536  39.208  12.032   6.750
 6454POPC   C3A41537  39.241  12.108   7.050
 6454POPC   C4A41538  39.242  12.052   7.350
 6454POPC   C1B41539  39.482  11.997   6.450
 6454POPC   C2B41540  39.445  11.972   6.750
 6454POPC   C3B41541  39.466  12.037   7.050
 6454POPC   C4B41542  39.486  12.051   7.350
 6455POPC   NC341543   2.731  10.478   5.550
 6455POPC   PO441544   2.805  10.539   5.850
 6455POPC   GL141545   2.775  10.505   6.150
 6455POPC   GL241546   2.856  10.457   6.150
 6455POPC   C1A41547   2.730  10.484   6.450
 6455POPC   D2A41548   2.716  10.507   6.750
 6455POPC   C3A41549   2.745  10.553   7.050
 6455POPC   C4A41550   2.770  10.481   7.350
 6455POPC   C1B41551   2.876  10.317   6.450
 6455POPC   C2B41552   2.844  10.300   6.750
 6455POPC   C3B41553   2.898  10.249   7.050
 6455POPC   C4B41554   2.899  10.305   7.350
 6456POPC   NC341555   5.875  19.108   5.550
 6456POPC   PO441556   5.858  19.088   5.850
 6456POPC   GL141557   5.897  19.086   6.150
 6456POPC   GL241558   5.930  18.919   6.150
 6456POPC   C1A41559   5.895  19.087   6.450
 6456POPC   D2A41560   5.907  19.091   6.750
 6456POPC   C3A41561   5.834  19.016   7.050
 6456POPC   C4A41562   5.871  19.101   7.350
 6456POPC   C1B41563   5.931  18.791   6.450
 6456POPC   C2B41564   5.936  18.841   6.750
 6456POPC   C3B41565   5.925  18.814   7.050
 6456POPC   C4B41566   5.917  18.856   7.350
 6457POPC   NC341567  32.237   8.999   5.550
 6457POPC   PO441568  32.201   8.962   5.850
 6457POPC   GL141569  32.290   8.923   6.150
 6457POPC   GL241570  32.355   8.983   6.150
 6457POPC   C1A41571  32.272   8.997   6.450
 6457POPC   D2A41572  32.202   9.015   6.750
 6457POPC   C3A41573  32.220   8.976   7.050
 6457POPC   C4A41574  32.265   8.982   7.350
 6457POPC   C1B41575  32.526   8.984   6.450
 6457POPC   C2B41576  32.445   9.010   6.750
 6457POPC   C3B41577  32.465   9.030   7.050
 6457POPC   C4B41578  32.485   8.966   7.350
 6458POPC   NC341579  18.281  17.550   5.550
 6458POPC   PO441580  18.239  17.483   5.850
 6458POPC   GL141581  18.309  17.465   6.150
 6458POPC   GL241582  18.250  17.426   6.150
 6458POPC   C1A41583  18.265  17.480   6.450
 6458POPC   D2A41584  18.271  17.511   6.750
 6458POPC   C3A41585  18.267  17.544   7.050
 6458POPC   C4A41586  18.316  17.531   7.350
 6458POPC   C1B41587  18.156  17.273   6.450
 6458POPC   C2B41588  18.178  17.281   6.750
 6458POPC   C3B41589  18.203  17.268   7.050
 6458POPC   C4B41590  18.170  17.280   7.350
 6459POPC   NC341591   3.588  21.374   5.550
 6459POPC   PO441592   3.551  21.413   5.850
 6459POPC   GL141593   3.545  21.399   6.150
 6459POPC   GL241594   3.469  21.295   6.150
 6459POPC   C1A41595   3.584  21.417   6.450
 6459POPC   D2A41596   3.556  21.352   6.750
 6459POPC   C3A41597   3.568  21.350   7.050
 6459POPC   C4A41598   3.576  21.349   7.350
 6459POPC   C1B41599   3.347  21.255   6.450
 6459POPC   C2B41600   3.381  21.189   6.750
 6459POPC   C3B41601   3.385  21.166   7.050
 6459POPC   C4B41602   3.404  21.219   7.350
 6460POPC   NC341603  39.968  31.492   5.550
 6460POPC   PO441604  40.015  31.468   5.850
 6460POPC   GL141605  39.960  31.490   6.150
 6460POPC   GL241606  40.044  31.563   6.150
 6460POPC   C1A41607  40.001  31.487   6.450
 6460POPC   D2A41608  40.054  31.476   6.750
 6460POPC   C3A41609  40.031  31.447   7.050
 6460POPC   C4A41610  40.056  31.511   7.350
 6460POPC   C1B41611  40.126  31.726   6.450
 6460POPC   C2B41612  40.078  31.707   6.750
 6460POPC   C3B41613  40.104  31.704   7.050
 6460POPC   C4B41614  40.068  31.666   7.350
 6461POPC   NC341615  32.232  33.007   5.550
 6461POPC   PO441616  32.275  33.041   5.850
 6461POPC   GL141617  32.273  33.000   6.150
 6461POPC   GL241618  32.374  32.967   6.150
 6461POPC   C1A41619  32.210  32.995   6.450
 6461POPC   D2A41620  32.263  32.990   6.750
 6461POPC   C3A41621  32.286  32.990   7.050
 6461POPC   C4A41622  32.208  32.991   7.350
 6461POPC   C1B41623  32.464  32.834   6.450
 6461POPC   C2B41624  32.410  32.834   6.750
 6461POPC   C3B41625  32.466  32.832   7.050
 6461POPC   C4B41626  32.428  32.860   7.350
 6462POPC   NC341627   9.774   2.721   5.550
 6462POPC   PO441628   9.793   2.799   5.850
 6462POPC   GL141629   9.734   2.778   6.150
 6462POPC   GL241630   9.820   2.935   6.150
 6462POPC   C1A41631   9.767   2.759   6.450
 6462POPC   D2A41632   9.699   2.755   6.750
 6462POPC   C3A41633   9.741   2.723   7.050
 6462POPC   C4A41634   9.774   2.811   7.350
 6462POPC   C1B41635   9.761   3.057   6.450
 6462POPC   C2B41636   9.840   2.991   6.750
 6462POPC   C3B41637   9.843   2.988   7.050
 6462POPC   C4B41638   9.779   2.963   7.350
 6463POPC   NC341639  19.057  33.825   5.550
 6463POPC   PO441640  19.104  33.849   5.850
 6463POPC   GL141641  19.026  33.782   6.150
 6463POPC   GL241642  18.939  33.675   6.150
 6463POPC   C1A41643  19.098  33.766   6.450
 6463POPC   D2A41644  19.046  33.799   6.750
 6463POPC   C3A41645  19.082  33.757   7.050
 6463POPC   C4A41646  19.026  33.771   7.350
 6463POPC   C1B41647  18.909  33.587   6.450
 6463POPC   C2B41648  18.918  33.585   6.750
 6463POPC   C3B41649  18.930  33.595   7.050
 6463POPC   C4B41650  18.931  33.591   7.350
 6464POPC   NC341651  41.513  23.681   5.550
 6464POPC   PO441652  41.567  23.680   5.850
 6464POPC   GL141653  41.531  23.687   6.150
 6464POPC   GL241654  41.399  23.720   6.150
 6464POPC   C1A41655  41.556  23.683   6.450
 6464POPC   D2A41656  41.560  23.684   6.750
 6464POPC   C3A41657  41.603  23.728   7.050
 6464POPC   C4A41658  41.564  23.746   7.350
 6464POPC   C1B41659  41.367  23.832   6.450
 6464POPC   C2B41660  41.293  23.774   6.750
 6464POPC   C3B41661  41.372  23.825   7.050
 6464POPC   C4B41662  41.305  23.775   7.350
 6465POPC   NC341663  32.206  34.604   5.550
 6465POPC   PO441664  32.251  34.546   5.850
 6465POPC   GL141665  32.213  34.600   6.150
 6465POPC   GL241666  32.206  34.695   6.150
 6465POPC   C1A41667  32.225  34.551   6.450
 6465POPC   D2A41668  32.281  34.617   6.750
 6465POPC   C3A41669  32.238  34.567   7.050
 6465POPC   C4A41670  32.260  34.538   7.350
 6465POPC   C1B41671  32.145  34.840   6.450
 6465POPC   C2B41672  32.198  34.863   6.750
 6465POPC   C3B41673  32.179  34.831   7.050
 6465POPC   C4B41674  32.142  34.799   7.350
 6466POPC   NC341675  26.769  23.698   5.550
 6466POPC   PO441676  26.799  23.682   5.850
 6466POPC   GL141677  26.805  23.667   6.150
 6466POPC   GL241678  26.882  23.748   6.150
 6466POPC   C1A41679  26.853  23.732   6.450
 6466POPC   D2A41680  26.855  23.703   6.750
 6466POPC   C3A41681  26.843  23.735   7.050
 6466POPC   C4A41682  26.799  23.760   7.350
 6466POPC   C1B41683  27.084  23.813   6.450
 6466POPC   C2B41684  27.003  23.801   6.750
 6466POPC   C3B41685  27.075  23.800   7.050
 6466POPC   C4B41686  27.071  23.866   7.350
 6467POPC   NC341687  36.881  44.706   5.550
 6467POPC   PO441688  36.869  44.671   5.850
 6467POPC   GL141689  36.873  44.684   6.150
 6467POPC   GL241690  36.823  44.540   6.150
 6467POPC   C1A41691  36.856  44.701   6.450
 6467POPC   D2A41692  36.860  44.639   6.750
 6467POPC   C3A41693  36.875  44.638   7.050
 6467POPC   C4A41694  36.867  44.661   7.350
 6467POPC   C1B41695  36.809  44.406   6.450
 6467POPC   C2B41696  36.790  44.439   6.750
 6467POPC   C3B41697  36.796  44.384   7.050
 6467POPC   C4B41698  36.765  44.408   7.350
 6468POPC   NC341699  28.394  18.261   5.550
 6468POPC   PO441700  28.363  18.234   5.850
 6468POPC   GL141701  28.395  18.245   6.150
 6468POPC   GL241702  28.257  18.411   6.150
 6468POPC   C1A41703  28.417  18.254   6.450
 6468POPC   D2A41704  28.399  18.290   6.750
 6468POPC   C3A41705  28.324  18.280   7.050
 6468POPC   C4A41706  28.355  18.316   7.350
 6468POPC   C1B41707  28.249  18.445   6.450
 6468POPC   C2B41708  28.246  18.475   6.750
 6468POPC   C3B41709  28.205  18.526   7.050
 6468POPC   C4B41710  28.205  18.463   7.350
 6469POPC   NC341711  15.182  24.486   5.550
 6469POPC   PO441712  15.155  24.510   5.850
 6469POPC   GL141713  15.175  24.510   6.150
 6469POPC   GL241714  15.100  24.531   6.150
 6469POPC   C1A41715  15.156  24.466   6.450
 6469POPC   D2A41716  15.185  24.440   6.750
 6469POPC   C3A41717  15.217  24.464   7.050
 6469POPC   C4A41718  15.131  24.457   7.350
 6469POPC   C1B41719  14.960  24.478   6.450
 6469POPC   C2B41720  14.898  24.503   6.750
 6469POPC   C3B41721  14.929  24.495   7.050
 6469POPC   C4B41722  14.897  24.456   7.350
 6470POPC   NC341723  17.494  32.204   5.550
 6470POPC   PO441724  17.543  32.204   5.850
 6470POPC   GL141725  17.515  32.212   6.150
 6470POPC   GL241726  17.637  32.190   6.150
 6470POPC   C1A41727  17.473  32.275   6.450
 6470POPC   D2A41728  17.495  32.212   6.750
 6470POPC   C3A41729  17.537  32.259   7.050
 6470POPC   C4A41730  17.469  32.276   7.350
 6470POPC   C1B41731  17.737  32.031   6.450
 6470POPC   C2B41732  17.642  32.072   6.750
 6470POPC   C3B41733  17.649  32.107   7.050
 6470POPC   C4B41734  17.664  32.040   7.350
 6471POPC   NC341735  27.572  15.991   5.550
 6471POPC   PO441736  27.565  15.971   5.850
 6471POPC   GL141737  27.636  15.943   6.150
 6471POPC   GL241738  27.740  15.938   6.150
 6471POPC   C1A41739  27.578  15.944   6.450
 6471POPC   D2A41740  27.623  15.957   6.750
 6471POPC   C3A41741  27.590  15.916   7.050
 6471POPC   C4A41742  27.600  15.993   7.350
 6471POPC   C1B41743  27.833  15.879   6.450
 6471POPC   C2B41744  27.819  15.912   6.750
 6471POPC   C3B41745  27.861  15.932   7.050
 6471POPC   C4B41746  27.853  15.915   7.350
 6472POPC   NC341747  43.846  24.445   5.550
 6472POPC   PO441748  43.899  24.496   5.850
 6472POPC   GL141749  43.867  24.450   6.150
 6472POPC   GL241750  43.806  24.503   6.150
 6472POPC   C1A41751  43.862  24.519   6.450
 6472POPC   D2A41752  43.933  24.474   6.750
 6472POPC   C3A41753  43.848  24.531   7.050
 6472POPC   C4A41754  43.905  24.503   7.350
 6472POPC   C1B41755  43.663  24.612   6.450
 6472POPC   C2B41756  43.673  24.567   6.750
 6472POPC   C3B41757  43.617  24.604   7.050
 6472POPC   C4B41758  43.631  24.610   7.350
 6473POPC   NC341759  19.817   9.732   5.550
 6473POPC   PO441760  19.805   9.780   5.850
 6473POPC   GL141761  19.800   9.792   6.150
 6473POPC   GL241762  19.854   9.842   6.150
 6473POPC   C1A41763  19.850   9.705   6.450
 6473POPC   D2A41764  19.849   9.720   6.750
 6473POPC   C3A41765  19.819   9.739   7.050
 6473POPC   C4A41766  19.864   9.731   7.350
 6473POPC   C1B41767  19.768   9.953   6.450
 6473POPC   C2B41768  19.798   9.971   6.750
 6473POPC   C3B41769  19.754   9.967   7.050
 6473POPC   C4B41770  19.815   9.997   7.350
 6474POPC   NC341771  28.373  36.126   5.550
 6474POPC   PO441772  28.365  36.107   5.850
 6474POPC   GL141773  28.412  36.090   6.150
 6474POPC   GL241774  28.527  36.099   6.150
 6474POPC   C1A41775  28.371  36.104   6.450
 6474POPC   D2A41776  28.396  36.080   6.750
 6474POPC   C3A41777  28.331  36.170   7.050
 6474POPC   C4A41778  28.341  36.139   7.350
 6474POPC   C1B41779  28.655  36.188   6.450
 6474POPC   C2B41780  28.600  36.191   6.750
 6474POPC   C3B41781  28.604  36.185   7.050
 6474POPC   C4B41782  28.651  36.192   7.350
 6475POPC   NC341783  38.420   3.528   5.550
 6475POPC   PO441784  38.490   3.563   5.850
 6475POPC   GL141785  38.412   3.545   6.150
 6475POPC   GL241786  38.293   3.523   6.150
 6475POPC   C1A41787  38.472   3.495   6.450
 6475POPC   D2A41788  38.496   3.582   6.750
 6475POPC   C3A41789  38.463   3.504   7.050
 6475POPC   C4A41790  38.437   3.499   7.350
 6475POPC   C1B41791  38.233   3.490   6.450
 6475POPC   C2B41792  38.258   3.474   6.750
 6475POPC   C3B41793  38.208   3.478   7.050
 6475POPC   C4B41794  38.209   3.491   7.350
 6476POPC   NC341795  22.184   5.106   5.550
 6476POPC   PO441796  22.195   5.047   5.850
 6476POPC   GL141797  22.174   5.087   6.150
 6476POPC   GL241798  22.188   5.195   6.150
 6476POPC   C1A41799  22.184   5.097   6.450
 6476POPC   D2A41800  22.127   5.119   6.750
 6476POPC   C3A41801  22.159   5.056   7.050
 6476POPC   C4A41802  22.209   5.065   7.350
 6476POPC   C1B41803  22.140   5.300   6.450
 6476POPC   C2B41804  22.137   5.388   6.750
 6476POPC   C3B41805  22.159   5.302   7.050
 6476POPC   C4B41806  22.194   5.302   7.350
 6477POPC   NC341807  13.659   2.773   5.550
 6477POPC   PO441808  13.654   2.731   5.850
 6477POPC   GL141809  13.642   2.756   6.150
 6477POPC   GL241810  13.545   2.814   6.150
 6477POPC   C1A41811  13.675   2.777   6.450
 6477POPC   D2A41812  13.603   2.749   6.750
 6477POPC   C3A41813  13.603   2.775   7.050
 6477POPC   C4A41814  13.614   2.751   7.350
 6477POPC   C1B41815  13.447   2.919   6.450
 6477POPC   C2B41816  13.417   2.914   6.750
 6477POPC   C3B41817  13.420   2.934   7.050
 6477POPC   C4B41818  13.421   2.900   7.350
 6478POPC   NC341819  34.622  29.130   5.550
 6478POPC   PO441820  34.527  29.162   5.850
 6478POPC   GL141821  34.600  29.143   6.150
 6478POPC   GL241822  34.646  29.272   6.150
 6478POPC   C1A41823  34.610  29.133   6.450
 6478POPC   D2A41824  34.553  29.163   6.750
 6478POPC   C3A41825  34.619  29.169   7.050
 6478POPC   C4A41826  34.611  29.153   7.350
 6478POPC   C1B41827  34.630  29.383   6.450
 6478POPC   C2B41828  34.680  29.366   6.750
 6478POPC   C3B41829  34.663  29.404   7.050
 6478POPC   C4B41830  34.646  29.377   7.350
 6479POPC   NC341831  12.038  25.309   5.550
 6479POPC   PO441832  12.114  25.258   5.850
 6479POPC   GL141833  12.106  25.282   6.150
 6479POPC   GL241834  12.051  25.336   6.150
 6479POPC   C1A41835  12.042  25.266   6.450
 6479POPC   D2A41836  12.092  25.216   6.750
 6479POPC   C3A41837  12.057  25.250   7.050
 6479POPC   C4A41838  12.076  25.248   7.350
 6479POPC   C1B41839  11.991  25.500   6.450
 6479POPC   C2B41840  12.009  25.531   6.750
 6479POPC   C3B41841  11.986  25.514   7.050
 6479POPC   C4B41842  11.994  25.518   7.350
 6480POPC   NC341843  37.674  15.178   5.550
 6480POPC   PO441844  37.694  15.201   5.850
 6480POPC   GL141845  37.721  15.164   6.150
 6480POPC   GL241846  37.755  15.250   6.150
 6480POPC   C1A41847  37.641  15.138   6.450
 6480POPC   D2A41848  37.727  15.130   6.750
 6480POPC   C3A41849  37.657  15.201   7.050
 6480POPC   C4A41850  37.689  15.145   7.350
 6480POPC   C1B41851  37.803  15.381   6.450
 6480POPC   C2B41852  37.789  15.410   6.750
 6480POPC   C3B41853  37.852  15.404   7.050
 6480POPC   C4B41854  37.826  15.402   7.350
 6481POPC   NC341855  26.024  33.754   5.550
 6481POPC   PO441856  26.023  33.811   5.850
 6481POPC   GL141857  26.082  33.764   6.150
 6481POPC   GL241858  25.950  33.698   6.150
 6481POPC   C1A41859  26.091  33.756   6.450
 6481POPC   D2A41860  26.064  33.762   6.750
 6481POPC   C3A41861  26.015  33.781   7.050
 6481POPC   C4A41862  26.076  33.756   7.350
 6481POPC   C1B41863  25.921  33.620   6.450
 6481POPC   C2B41864  25.893  33.583   6.750
 6481POPC   C3B41865  25.874  33.566   7.050
 6481POPC   C4B41866  25.916  33.552   7.350
 6482POPC   NC341867   1.966  28.372   5.550
 6482POPC   PO441868   2.013  28.359   5.850
 6482POPC   GL141869   1.982  28.347   6.150
 6482POPC   GL241870   1.939  28.275   6.150
 6482POPC   C1A41871   1.949  28.320   6.450
 6482POPC   D2A41872   1.975  28.417   6.750
 6482POPC   C3A41873   1.993  28.359   7.050
 6482POPC   C4A41874   2.010  28.399   7.350
 6482POPC   C1B41875   1.938  28.125   6.450
 6482POPC   C2B41876   1.898  28.110   6.750
 6482POPC   C3B41877   1.906  28.188   7.050
 6482POPC   C4B41878   1.873  28.156   7.350
 6483POPC   NC341879  32.991  12.821   5.550
 6483POPC   PO441880  33.032  12.887   5.850
 6483POPC   GL141881  32.993  12.850   6.150
 6483POPC   GL241882  32.970  12.900   6.150
 6483POPC   C1A41883  33.037  12.811   6.450
 6483POPC   D2A41884  33.005  12.826   6.750
 6483POPC   C3A41885  33.067  12.866   7.050
 6483POPC   C4A41886  33.012  12.830   7.350
 6483POPC   C1B41887  32.830  13.015   6.450
 6483POPC   C2B41888  32.831  13.042   6.750
 6483POPC   C3B41889  32.823  12.966   7.050
 6483POPC   C4B41890  32.807  13.024   7.350
 6484POPC   NC341891   0.412   1.210   5.550
 6484POPC   PO441892   0.404   1.183   5.850
 6484POPC   GL141893   0.458   1.253   6.150
 6484POPC   GL241894   0.411   1.324   6.150
 6484POPC   C1A41895   0.434   1.247   6.450
 6484POPC   D2A41896   0.412   1.220   6.750
 6484POPC   C3A41897   0.408   1.234   7.050
 6484POPC   C4A41898   0.413   1.238   7.350
 6484POPC   C1B41899   0.321   1.404   6.450
 6484POPC   C2B41900   0.382   1.437   6.750
 6484POPC   C3B41901   0.381   1.417   7.050
 6484POPC   C4B41902   0.329   1.451   7.350
 6485POPC   NC341903  15.205  13.611   5.550
 6485POPC   PO441904  15.174  13.668   5.850
 6485POPC   GL141905  15.159  13.632   6.150
 6485POPC   GL241906  15.032  13.554   6.150
 6485POPC   C1A41907  15.194  13.616   6.450
 6485POPC   D2A41908  15.218  13.662   6.750
 6485POPC   C3A41909  15.185  13.620   7.050
 6485POPC   C4A41910  15.221  13.634   7.350
 6485POPC   C1B41911  14.964  13.516   6.450
 6485POPC   C2B41912  14.984  13.549   6.750
 6485POPC   C3B41913  14.931  13.558   7.050
 6485POPC   C4B41914  14.923  13.548   7.350
 6486POPC   NC341915   5.069  17.550   5.550
 6486POPC   PO441916   5.081  17.533   5.850
 6486POPC   GL141917   5.131  17.554   6.150
 6486POPC   GL241918   5.101  17.635   6.150
 6486POPC   C1A41919   5.119  17.505   6.450
 6486POPC   D2A41920   5.134  17.469   6.750
 6486POPC   C3A41921   5.124  17.479   7.050
 6486POPC   C4A41922   5.074  17.498   7.350
 6486POPC   C1B41923   5.100  17.761   6.450
 6486POPC   C2B41924   5.125  17.730   6.750
 6486POPC   C3B41925   5.027  17.757   7.050
 6486POPC   C4B41926   5.038  17.715   7.350
 6487POPC   NC341927  24.475  21.429   5.550
 6487POPC   PO441928  24.511  21.424   5.850
 6487POPC   GL141929  24.470  21.384   6.150
 6487POPC   GL241930  24.640  21.468   6.150
 6487POPC   C1A41931  24.440  21.337   6.450
 6487POPC   D2A41932  24.509  21.410   6.750
 6487POPC   C3A41933  24.533  21.419   7.050
 6487POPC   C4A41934  24.464  21.356   7.350
 6487POPC   C1B41935  24.684  21.556   6.450
 6487POPC   C2B41936  24.675  21.548   6.750
 6487POPC   C3B41937  24.718  21.506   7.050
 6487POPC   C4B41938  24.740  21.525   7.350
 6488POPC   NC341939   1.188  36.132   5.550
 6488POPC   PO441940   1.176  36.137   5.850
 6488POPC   GL141941   1.231  36.086   6.150
 6488POPC   GL241942   1.137  36.041   6.150
 6488POPC   C1A41943   1.242  36.164   6.450
 6488POPC   D2A41944   1.165  36.087   6.750
 6488POPC   C3A41945   1.219  36.103   7.050
 6488POPC   C4A41946   1.228  36.080   7.350
 6488POPC   C1B41947   1.182  35.841   6.450
 6488POPC   C2B41948   1.139  35.841   6.750
 6488POPC   C3B41949   1.143  35.855   7.050
 6488POPC   C4B41950   1.186  35.900   7.350
 6489POPC   NC341951   8.151  21.386   5.550
 6489POPC   PO441952   8.218  21.398   5.850
 6489POPC   GL141953   8.243  21.357   6.150
 6489POPC   GL241954   8.219  21.288   6.150
 6489POPC   C1A41955   8.190  21.382   6.450
 6489POPC   D2A41956   8.193  21.415   6.750
 6489POPC   C3A41957   8.210  21.417   7.050
 6489POPC   C4A41958   8.178  21.429   7.350
 6489POPC   C1B41959   8.180  21.103   6.450
 6489POPC   C2B41960   8.152  21.172   6.750
 6489POPC   C3B41961   8.159  21.181   7.050
 6489POPC   C4B41962   8.125  21.121   7.350
 6490POPC   NC341963  36.872  22.930   5.550
 6490POPC   PO441964  36.924  22.977   5.850
 6490POPC   GL141965  36.879  22.982   6.150
 6490POPC   GL241966  36.794  22.937   6.150
 6490POPC   C1A41967  36.908  22.892   6.450
 6490POPC   D2A41968  36.894  22.959   6.750
 6490POPC   C3A41969  36.877  22.975   7.050
 6490POPC   C4A41970  36.906  22.942   7.350
 6490POPC   C1B41971  36.624  22.827   6.450
 6490POPC   C2B41972  36.629  22.866   6.750
 6490POPC   C3B41973  36.637  22.860   7.050
 6490POPC   C4B41974  36.645  22.845   7.350
 6491POPC   NC341975  34.617  14.367   5.550
 6491POPC   PO441976  34.550  14.367   5.850
 6491POPC   GL141977  34.575  14.420   6.150
 6491POPC   GL241978  34.685  14.385   6.150
 6491POPC   C1A41979  34.592  14.443   6.450
 6491POPC   D2A41980  34.582  14.403   6.750
 6491POPC   C3A41981  34.542  14.356   7.050
 6491POPC   C4A41982  34.612  14.451   7.350
 6491POPC   C1B41983  34.790  14.381   6.450
 6491POPC   C2B41984  34.822  14.325   6.750
 6491POPC   C3B41985  34.828  14.321   7.050
 6491POPC   C4B41986  34.858  14.404   7.350
 6492POPC   NC341987  38.472  18.302   5.550
 6492POPC   PO441988  38.417  18.317   5.850
 6492POPC   GL141989  38.408  18.310   6.150
 6492POPC   GL241990  38.418  18.196   6.150
 6492POPC   C1A41991  38.460  18.310   6.450
 6492POPC   D2A41992  38.447  18.262   6.750
 6492POPC   C3A41993  38.503  18.325   7.050
 6492POPC   C4A41994  38.475  18.267   7.350
 6492POPC   C1B41995  38.458  18.002   6.450
 6492POPC   C2B41996  38.395  17.991   6.750
 6492POPC   C3B41997  38.454  18.066   7.050
 6492POPC   C4B41998  38.444  17.990   7.350
 6493POPC   NC341999  22.161   7.381   5.550
 6493POPC   PO442000  22.153   7.414   5.850
 6493POPC   GL142001  22.185   7.463   6.150
 6493POPC   GL242002  22.271   7.539   6.150
 6493POPC   C1A42003  22.207   7.439   6.450
 6493POPC   D2A42004  22.151   7.427   6.750
 6493POPC   C3A42005  22.144   7.456   7.050
 6493POPC   C4A42006  22.136   7.386   7.350
 6493POPC   C1B42007  22.298   7.658   6.450
 6493POPC   C2B42008  22.248   7.641   6.750
 6493POPC   C3B42009  22.318   7.671   7.050
 6493POPC   C4B42010  22.289   7.665   7.350
 6494POPC   NC342011  19.798  17.547   5.550
 6494POPC   PO442012  19.811  17.491   5.850
 6494POPC   GL142013  19.862  17.535   6.150
 6494POPC   GL242014  19.734  17.470   6.150
 6494POPC   C1A42015  19.856  17.515   6.450
 6494POPC   D2A42016  19.855  17.528   6.750
 6494POPC   C3A42017  19.795  17.477   7.050
 6494POPC   C4A42018  19.816  17.543   7.350
 6494POPC   C1B42019  19.543  17.398   6.450
 6494POPC   C2B42020  19.569  17.472   6.750
 6494POPC   C3B42021  19.610  17.463   7.050
 6494POPC   C4B42022  19.595  17.446   7.350
 6495POPC   NC342023  24.440  27.613   5.550
 6495POPC   PO442024  24.527  27.625   5.850
 6495POPC   GL142025  24.525  27.612   6.150
 6495POPC   GL242026  24.644  27.571   6.150
 6495POPC   C1A42027  24.479  27.639   6.450
 6495POPC   D2A42028  24.496  27.552   6.750
 6495POPC   C3A42029  24.462  27.558   7.050
 6495POPC   C4A42030  24.461  27.626   7.350
 6495POPC   C1B42031  24.663  27.473   6.450
 6495POPC   C2B42032  24.742  27.498   6.750
 6495POPC   C3B42033  24.745  27.436   7.050
 6495POPC   C4B42034  24.701  27.506   7.350
 6496POPC   NC342035   8.977  29.135   5.550
 6496POPC   PO442036   9.013  29.117   5.850
 6496POPC   GL142037   8.954  29.098   6.150
 6496POPC   GL242038   8.890  29.117   6.150
 6496POPC   C1A42039   8.990  29.128   6.450
 6496POPC   D2A42040   9.021  29.183   6.750
 6496POPC   C3A42041   9.014  29.118   7.050
 6496POPC   C4A42042   9.014  29.177   7.350
 6496POPC   C1B42043   8.683  29.102   6.450
 6496POPC   C2B42044   8.764  29.186   6.750
 6496POPC   C3B42045   8.766  29.141   7.050
 6496POPC   C4B42046   8.725  29.109   7.350
 6497POPC   NC342047  36.126  30.697   5.550
 6497POPC   PO442048  36.139  30.669   5.850
 6497POPC   GL142049  36.102  30.730   6.150
 6497POPC   GL242050  36.295  30.716   6.150
 6497POPC   C1A42051  36.108  30.723   6.450
 6497POPC   D2A42052  36.122  30.667   6.750
 6497POPC   C3A42053  36.129  30.650   7.050
 6497POPC   C4A42054  36.094  30.674   7.350
 6497POPC   C1B42055  36.364  30.741   6.450
 6497POPC   C2B42056  36.403  30.798   6.750
 6497POPC   C3B42057  36.387  30.735   7.050
 6497POPC   C4B42058  36.331  30.734   7.350
 6498POPC   NC342059  32.993  15.945   5.550
 6498POPC   PO442060  32.982  15.929   5.850
 6498POPC   GL142061  33.056  15.921   6.150
 6498POPC   GL242062  32.986  16.039   6.150
 6498POPC   C1A42063  33.063  15.939   6.450
 6498POPC   D2A42064  33.016  15.939   6.750
 6498POPC   C3A42065  33.074  15.905   7.050
 6498POPC   C4A42066  33.030  15.969   7.350
 6498POPC   C1B42067  33.019  16.186   6.450
 6498POPC   C2B42068  33.034  16.236   6.750
 6498POPC   C3B42069  32.968  16.247   7.050
 6498POPC   C4B42070  32.984  16.167   7.350
 6499POPC   NC342071  30.671   6.663   5.550
 6499POPC   PO442072  30.656   6.613   5.850
 6499POPC   GL142073  30.678   6.629   6.150
 6499POPC   GL242074  30.688   6.772   6.150
 6499POPC   C1A42075  30.650   6.672   6.450
 6499POPC   D2A42076  30.685   6.684   6.750
 6499POPC   C3A42077  30.650   6.684   7.050
 6499POPC   C4A42078  30.735   6.636   7.350
 6499POPC   C1B42079  30.653   6.935   6.450
 6499POPC   C2B42080  30.673   6.915   6.750
 6499POPC   C3B42081  30.733   6.942   7.050
 6499POPC   C4B42082  30.694   6.866   7.350
 6500POPC   NC342083   1.224  35.304   5.550
 6500POPC   PO442084   1.231  35.331   5.850
 6500POPC   GL142085   1.166  35.400   6.150
 6500POPC   GL242086   1.313  35.420   6.150
 6500POPC   C1A42087   1.224  35.317   6.450
 6500POPC   D2A42088   1.166  35.323   6.750
 6500POPC   C3A42089   1.171  35.337   7.050
 6500POPC   C4A42090   1.168  35.371   7.350
 6500POPC   C1B42091   1.443  35.486   6.450
 6500POPC   C2B42092   1.402  35.519   6.750
 6500POPC   C3B42093   1.441  35.491   7.050
 6500POPC   C4B42094   1.446  35.538   7.350
 6501POPC   NC342095  21.377   5.838   5.550
 6501POPC   PO442096  21.400   5.905   5.850
 6501POPC   GL142097  21.346   5.886   6.150
 6501POPC   GL242098  21.471   5.879   6.150
 6501POPC   C1A42099  21.436   5.878   6.450
 6501POPC   D2A42100  21.392   5.842   6.750
 6501POPC   C3A42101  21.374   5.835   7.050
 6501POPC   C4A42102  21.435   5.898   7.350
 6501POPC   C1B42103  21.670   5.862   6.450
 6501POPC   C2B42104  21.683   5.828   6.750
 6501POPC   C3B42105  21.586   5.820   7.050
 6501POPC   C4B42106  21.587   5.868   7.350
 6502POPC   NC342107   8.227  16.767   5.550
 6502POPC   PO442108   8.201  16.682   5.850
 6502POPC   GL142109   8.222  16.701   6.150
 6502POPC   GL242110   8.287  16.776   6.150
 6502POPC   C1A42111   8.225  16.767   6.450
 6502POPC   D2A42112   8.218  16.741   6.750
 6502POPC   C3A42113   8.200  16.736   7.050
 6502POPC   C4A42114   8.184  16.687   7.350
 6502POPC   C1B42115   8.481  16.722   6.450
 6502POPC   C2B42116   8.445  16.776   6.750
 6502POPC   C3B42117   8.493  16.770   7.050
 6502POPC   C4B42118   8.485  16.792   7.350
 6503POPC   NC342119  43.107  35.335   5.550
 6503POPC   PO442120  43.152  35.337   5.850
 6503POPC   GL142121  43.106  35.329   6.150
 6503POPC   GL242122  43.017  35.407   6.150
 6503POPC   C1A42123  43.103  35.344   6.450
 6503POPC   D2A42124  43.082  35.340   6.750
 6503POPC   C3A42125  43.077  35.344   7.050
 6503POPC   C4A42126  43.105  35.347   7.350
 6503POPC   C1B42127  42.866  35.476   6.450
 6503POPC   C2B42128  42.921  35.481   6.750
 6503POPC   C3B42129  42.957  35.511   7.050
 6503POPC   C4B42130  42.896  35.517   7.350
 6504POPC   NC342131  26.017  19.824   5.550
 6504POPC   PO442132  26.008  19.827   5.850
 6504POPC   GL142133  26.030  19.816   6.150
 6504POPC   GL242134  25.990  20.005   6.150
 6504POPC   C1A42135  26.036  19.807   6.450
 6504POPC   D2A42136  26.031  19.794   6.750
 6504POPC   C3A42137  26.055  19.869   7.050
 6504POPC   C4A42138  26.071  19.808   7.350
 6504POPC   C1B42139  26.036  20.051   6.450
 6504POPC   C2B42140  26.037  20.078   6.750
 6504POPC   C3B42141  25.987  20.121   7.050
 6504POPC   C4B42142  26.039  20.062   7.350
 6505POPC   NC342143   0.485  22.968   5.550
 6505POPC   PO442144   0.454  22.949   5.850
 6505POPC   GL142145   0.453  22.968   6.150
 6505POPC   GL242146   0.566  22.808   6.150
 6505POPC   C1A42147   0.441  22.943   6.450
 6505POPC   D2A42148   0.390  22.896   6.750
 6505POPC   C3A42149   0.407  22.930   7.050
 6505POPC   C4A42150   0.461  22.918   7.350
 6505POPC   C1B42151   0.594  22.763   6.450
 6505POPC   C2B42152   0.590  22.795   6.750
 6505POPC   C3B42153   0.607  22.793   7.050
 6505POPC   C4B42154   0.637  22.722   7.350
 6506POPC   NC342155   6.647  36.927   5.550
 6506POPC   PO442156   6.661  36.918   5.850
 6506POPC   GL142157   6.648  36.876   6.150
 6506POPC   GL242158   6.556  37.026   6.150
 6506POPC   C1A42159   6.607  36.881   6.450
 6506POPC   D2A42160   6.634  36.913   6.750
 6506POPC   C3A42161   6.676  36.917   7.050
 6506POPC   C4A42162   6.677  36.910   7.350
 6506POPC   C1B42163   6.502  37.091   6.450
 6506POPC   C2B42164   6.585  37.126   6.750
 6506POPC   C3B42165   6.517  37.113   7.050
 6506POPC   C4B42166   6.547  37.170   7.350
 6507POPC   NC342167  29.888  14.394   5.550
 6507POPC   PO442168  29.956  14.438   5.850
 6507POPC   GL142169  29.875  14.443   6.150
 6507POPC   GL242170  29.821  14.495   6.150
 6507POPC   C1A42171  29.930  14.434   6.450
 6507POPC   D2A42172  29.964  14.409   6.750
 6507POPC   C3A42173  29.886  14.366   7.050
 6507POPC   C4A42174  29.905  14.420   7.350
 6507POPC   C1B42175  29.800  14.649   6.450
 6507POPC   C2B42176  29.805  14.598   6.750
 6507POPC   C3B42177  29.776  14.585   7.050
 6507POPC   C4B42178  29.743  14.636   7.350
 6508POPC   NC342179  26.786  14.374   5.550
 6508POPC   PO442180  26.816  14.385   5.850
 6508POPC   GL142181  26.827  14.400   6.150
 6508POPC   GL242182  26.835  14.541   6.150
 6508POPC   C1A42183  26.801  14.368   6.450
 6508POPC   D2A42184  26.793  14.405   6.750
 6508POPC   C3A42185  26.780  14.400   7.050
 6508POPC   C4A42186  26.795  14.386   7.350
 6508POPC   C1B42187  26.798  14.643   6.450
 6508POPC   C2B42188  26.867  14.654   6.750
 6508POPC   C3B42189  26.805  14.611   7.050
 6508POPC   C4B42190  26.819  14.648   7.350
 6509POPC   NC342191  13.586  21.413   5.550
 6509POPC   PO442192  13.678  21.390   5.850
 6509POPC   GL142193  13.621  21.382   6.150
 6509POPC   GL242194  13.724  21.352   6.150
 6509POPC   C1A42195  13.589  21.430   6.450
 6509POPC   D2A42196  13.664  21.388   6.750
 6509POPC   C3A42197  13.613  21.391   7.050
 6509POPC   C4A42198  13.599  21.421   7.350
 6509POPC   C1B42199  13.904  21.306   6.450
 6509POPC   C2B42200  13.901  21.277   6.750
 6509POPC   C3B42201  13.825  21.254   7.050
 6509POPC   C4B42202  13.898  21.335   7.350
 6510POPC   NC342203  18.317  22.151   5.550
 6510POPC   PO442204  18.263  22.122   5.850
 6510POPC   GL142205  18.245  22.185   6.150
 6510POPC   GL242206  18.122  22.076   6.150
 6510POPC   C1A42207  18.252  22.167   6.450
 6510POPC   D2A42208  18.319  22.148   6.750
 6510POPC   C3A42209  18.257  22.118   7.050
 6510POPC   C4A42210  18.244  22.126   7.350
 6510POPC   C1B42211  18.075  22.040   6.450
 6510POPC   C2B42212  18.070  22.097   6.750
 6510POPC   C3B42213  18.023  22.044   7.050
 6510POPC   C4B42214  18.086  22.091   7.350
 6511POPC   NC342215  14.369  32.228   5.550
 6511POPC   PO442216  14.362  32.235   5.850
 6511POPC   GL142217  14.364  32.235   6.150
 6511POPC   GL242218  14.390  32.173   6.150
 6511POPC   C1A42219  14.440  32.242   6.450
 6511POPC   D2A42220  14.357  32.235   6.750
 6511POPC   C3A42221  14.447  32.211   7.050
 6511POPC   C4A42222  14.394  32.245   7.350
 6511POPC   C1B42223  14.389  32.008   6.450
 6511POPC   C2B42224  14.441  32.003   6.750
 6511POPC   C3B42225  14.375  32.038   7.050
 6511POPC   C4B42226  14.399  31.966   7.350
 6512POPC   NC342227  41.569   9.778   5.550
 6512POPC   PO442228  41.577   9.791   5.850
 6512POPC   GL142229  41.520   9.749   6.150
 6512POPC   GL242230  41.482   9.759   6.150
 6512POPC   C1A42231  41.530   9.737   6.450
 6512POPC   D2A42232  41.537   9.747   6.750
 6512POPC   C3A42233  41.566   9.726   7.050
 6512POPC   C4A42234  41.582   9.749   7.350
 6512POPC   C1B42235  41.327   9.810   6.450
 6512POPC   C2B42236  41.369   9.785   6.750
 6512POPC   C3B42237  41.367   9.865   7.050
 6512POPC   C4B42238  41.284   9.859   7.350
 6513POPC   NC342239  12.053  36.111   5.550
 6513POPC   PO442240  12.090  36.130   5.850
 6513POPC   GL142241  12.032  36.114   6.150
 6513POPC   GL242242  12.018  36.050   6.150
 6513POPC   C1A42243  12.107  36.092   6.450
 6513POPC   D2A42244  12.095  36.147   6.750
 6513POPC   C3A42245  12.091  36.085   7.050
 6513POPC   C4A42246  12.106  36.167   7.350
 6513POPC   C1B42247  11.935  35.959   6.450
 6513POPC   C2B42248  11.870  35.960   6.750
 6513POPC   C3B42249  11.866  35.896   7.050
 6513POPC   C4B42250  11.929  35.971   7.350
 6514POPC   NC342251  43.892  34.560   5.550
 6514POPC   PO442252  43.883  34.557   5.850
 6514POPC   GL142253  43.866  34.551   6.150
 6514POPC   GL242254  43.850  34.653   6.150
 6514POPC   C1A42255  43.896  34.596   6.450
 6514POPC   D2A42256  43.852  34.546   6.750
 6514POPC   C3A42257  43.919  34.561   7.050
 6514POPC   C4A42258  43.922  34.593   7.350
 6514POPC   C1B42259  43.750  34.832   6.450
 6514POPC   C2B42260  43.749  34.799   6.750
 6514POPC   C3B42261  43.750  34.850   7.050
 6514POPC   C4B42262  43.822  34.831   7.350
 6515POPC   NC342263   8.150  37.699   5.550
 6515POPC   PO442264   8.194  37.636   5.850
 6515POPC   GL142265   8.159  37.710   6.150
 6515POPC   GL242266   8.134  37.825   6.150
 6515POPC   C1A42267   8.235  37.718   6.450
 6515POPC   D2A42268   8.211  37.663   6.750
 6515POPC   C3A42269   8.229  37.710   7.050
 6515POPC   C4A42270   8.199  37.711   7.350
 6515POPC   C1B42271   8.095  37.914   6.450
 6515POPC   C2B42272   8.140  37.928   6.750
 6515POPC   C3B42273   8.109  37.916   7.050
 6515POPC   C4B42274   8.149  37.949   7.350
 6516POPC   NC342275  36.096  21.431   5.550
 6516POPC   PO442276  36.124  21.431   5.850
 6516POPC   GL142277  36.160  21.433   6.150
 6516POPC   GL242278  36.134  21.529   6.150
 6516POPC   C1A42279  36.177  21.387   6.450
 6516POPC   D2A42280  36.101  21.418   6.750
 6516POPC   C3A42281  36.148  21.433   7.050
 6516POPC   C4A42282  36.078  21.396   7.350
 6516POPC   C1B42283  36.079  21.605   6.450
 6516POPC   C2B42284  36.128  21.588   6.750
 6516POPC   C3B42285  36.116  21.660   7.050
 6516POPC   C4B42286  36.108  21.609   7.350
 6517POPC   NC342287  39.966   9.722   5.550
 6517POPC   PO442288  40.018   9.763   5.850
 6517POPC   GL142289  40.001   9.764   6.150
 6517POPC   GL242290  39.983   9.903   6.150
 6517POPC   C1A42291  39.998   9.705   6.450
 6517POPC   D2A42292  40.018   9.737   6.750
 6517POPC   C3A42293  39.968   9.744   7.050
 6517POPC   C4A42294  40.015   9.699   7.350
 6517POPC   C1B42295  39.981  10.029   6.450
 6517POPC   C2B42296  39.985  10.018   6.750
 6517POPC   C3B42297  39.911   9.984   7.050
 6517POPC   C4B42298  39.904   9.975   7.350
 6518POPC   NC342299  19.838  12.841   5.550
 6518POPC   PO442300  19.876  12.850   5.850
 6518POPC   GL142301  19.796  12.869   6.150
 6518POPC   GL242302  19.815  12.734   6.150
 6518POPC   C1A42303  19.868  12.845   6.450
 6518POPC   D2A42304  19.838  12.822   6.750
 6518POPC   C3A42305  19.843  12.844   7.050
 6518POPC   C4A42306  19.838  12.846   7.350
 6518POPC   C1B42307  19.764  12.645   6.450
 6518POPC   C2B42308  19.761  12.567   6.750
 6518POPC   C3B42309  19.753  12.624   7.050
 6518POPC   C4B42310  19.799  12.642   7.350
 6519POPC   NC342311  26.788  13.597   5.550
 6519POPC   PO442312  26.847  13.635   5.850
 6519POPC   GL142313  26.812  13.669   6.150
 6519POPC   GL242314  26.715  13.676   6.150
 6519POPC   C1A42315  26.821  13.608   6.450
 6519POPC   D2A42316  26.825  13.610   6.750
 6519POPC   C3A42317  26.820  13.666   7.050
 6519POPC   C4A42318  26.808  13.636   7.350
 6519POPC   C1B42319  26.588  13.739   6.450
 6519POPC   C2B42320  26.569  13.728   6.750
 6519POPC   C3B42321  26.560  13.697   7.050
 6519POPC   C4B42322  26.620  13.738   7.350
 6520POPC   NC342323  12.112  17.470   5.550
 6520POPC   PO442324  12.037  17.527   5.850
 6520POPC   GL142325  12.034  17.493   6.150
 6520POPC   GL242326  12.116  17.425   6.150
 6520POPC   C1A42327  12.108  17.480   6.450
 6520POPC   D2A42328  12.119  17.532   6.750
 6520POPC   C3A42329  12.042  17.541   7.050
 6520POPC   C4A42330  12.117  17.461   7.350
 6520POPC   C1B42331  12.125  17.280   6.450
 6520POPC   C2B42332  12.079  17.250   6.750
 6520POPC   C3B42333  12.048  17.241   7.050
 6520POPC   C4B42334  12.051  17.293   7.350
 6521POPC   NC342335  18.302  12.070   5.550
 6521POPC   PO442336  18.292  12.114   5.850
 6521POPC   GL142337  18.301  12.109   6.150
 6521POPC   GL242338  18.295  12.227   6.150
 6521POPC   C1A42339  18.283  12.060   6.450
 6521POPC   D2A42340  18.322  12.092   6.750
 6521POPC   C3A42341  18.307  12.094   7.050
 6521POPC   C4A42342  18.275  12.046   7.350
 6521POPC   C1B42343  18.346  12.332   6.450
 6521POPC   C2B42344  18.319  12.351   6.750
 6521POPC   C3B42345  18.302  12.351   7.050
 6521POPC   C4B42346  18.377  12.321   7.350
 6522POPC   NC342347  22.118  29.098   5.550
 6522POPC   PO442348  22.198  29.127   5.850
 6522POPC   GL142349  22.192  29.098   6.150
 6522POPC   GL242350  22.225  29.193   6.150
 6522POPC   C1A42351  22.160  29.149   6.450
 6522POPC   D2A42352  22.148  29.132   6.750
 6522POPC   C3A42353  22.206  29.122   7.050
 6522POPC   C4A42354  22.199  29.182   7.350
 6522POPC   C1B42355  22.337  29.272   6.450
 6522POPC   C2B42356  22.362  29.299   6.750
 6522POPC   C3B42357  22.363  29.329   7.050
 6522POPC   C4B42358  22.389  29.332   7.350
 6523POPC   NC342359  19.090   7.463   5.550
 6523POPC   PO442360  19.081   7.371   5.850
 6523POPC   GL142361  19.056   7.433   6.150
 6523POPC   GL242362  19.044   7.276   6.150
 6523POPC   C1A42363  19.017   7.460   6.450
 6523POPC   D2A42364  19.046   7.463   6.750
 6523POPC   C3A42365  19.072   7.404   7.050
 6523POPC   C4A42366  19.064   7.381   7.350
 6523POPC   C1B42367  19.015   7.204   6.450
 6523POPC   C2B42368  19.098   7.192   6.750
 6523POPC   C3B42369  19.047   7.122   7.050
 6523POPC   C4B42370  19.055   7.128   7.350
 6524POPC   NC342371  10.542  40.822   5.550
 6524POPC   PO442372  10.477  40.784   5.850
 6524POPC   GL142373  10.526  40.811   6.150
 6524POPC   GL242374  10.643  40.818   6.150
 6524POPC   C1A42375  10.560  40.781   6.450
 6524POPC   D2A42376  10.550  40.814   6.750
 6524POPC   C3A42377  10.487  40.794   7.050
 6524POPC   C4A42378  10.484  40.795   7.350
 6524POPC   C1B42379  10.802  40.751   6.450
 6524POPC   C2B42380  10.816  40.831   6.750
 6524POPC   C3B42381  10.753  40.835   7.050
 6524POPC   C4B42382  10.781  40.768   7.350
 6525POPC   NC342383  36.942  10.526   5.550
 6525POPC   PO442384  36.914  10.553   5.850
 6525POPC   GL142385  36.865  10.521   6.150
 6525POPC   GL242386  37.006  10.479   6.150
 6525POPC   C1A42387  36.907  10.505   6.450
 6525POPC   D2A42388  36.900  10.525   6.750
 6525POPC   C3A42389  36.884  10.509   7.050
 6525POPC   C4A42390  36.901  10.489   7.350
 6525POPC   C1B42391  37.082  10.364   6.450
 6525POPC   C2B42392  37.083  10.359   6.750
 6525POPC   C3B42393  37.103  10.335   7.050
 6525POPC   C4B42394  37.078  10.344   7.350
 6526POPC   NC342395  12.070  37.678   5.550
 6526POPC   PO442396  12.065  37.729   5.850
 6526POPC   GL142397  12.089  37.646   6.150
 6526POPC   GL242398  12.011  37.713   6.150
 6526POPC   C1A42399  12.077  37.726   6.450
 6526POPC   D2A42400  12.087  37.638   6.750
 6526POPC   C3A42401  12.050  37.673   7.050
 6526POPC   C4A42402  12.057  37.676   7.350
 6526POPC   C1B42403  11.871  37.833   6.450
 6526POPC   C2B42404  11.902  37.782   6.750
 6526POPC   C3B42405  11.871  37.809   7.050
 6526POPC   C4B42406  11.841  37.779   7.350
 6527POPC   NC342407  14.376  33.016   5.550
 6527POPC   PO442408  14.432  32.983   5.850
 6527POPC   GL142409  14.364  33.046   6.150
 6527POPC   GL242410  14.343  32.930   6.150
 6527POPC   C1A42411  14.418  33.051   6.450
 6527POPC   D2A42412  14.404  33.039   6.750
 6527POPC   C3A42413  14.411  33.038   7.050
 6527POPC   C4A42414  14.401  32.990   7.350
 6527POPC   C1B42415  14.185  32.880   6.450
 6527POPC   C2B42416  14.211  32.837   6.750
 6527POPC   C3B42417  14.270  32.837   7.050
 6527POPC   C4B42418  14.220  32.883   7.350
 6528POPC   NC342419  18.294  39.272   5.550
 6528POPC   PO442420  18.284  39.279   5.850
 6528POPC   GL142421  18.274  39.251   6.150
 6528POPC   GL242422  18.283  39.357   6.150
 6528POPC   C1A42423  18.277  39.192   6.450
 6528POPC   D2A42424  18.274  39.232   6.750
 6528POPC   C3A42425  18.288  39.214   7.050
 6528POPC   C4A42426  18.238  39.209   7.350
 6528POPC   C1B42427  18.365  39.432   6.450
 6528POPC   C2B42428  18.340  39.520   6.750
 6528POPC   C3B42429  18.346  39.456   7.050
 6528POPC   C4B42430  18.272  39.500   7.350
 6529POPC   NC342431   8.176  43.866   5.550
 6529POPC   PO442432   8.181  43.849   5.850
 6529POPC   GL142433   8.225  43.913   6.150
 6529POPC   GL242434   8.214  43.825   6.150
 6529POPC   C1A42435   8.177  43.894   6.450
 6529POPC   D2A42436   8.194  43.931   6.750
 6529POPC   C3A42437   8.219  43.887   7.050
 6529POPC   C4A42438   8.221  43.870   7.350
 6529POPC   C1B42439   8.352  43.688   6.450
 6529POPC   C2B42440   8.279  43.716   6.750
 6529POPC   C3B42441   8.352  43.651   7.050
 6529POPC   C4B42442   8.330  43.699   7.350
 6530POPC   NC342443  15.992  43.885   5.550
 6530POPC   PO442444  15.964  43.843   5.850
 6530POPC   GL142445  15.923  43.867   6.150
 6530POPC   GL242446  16.101  43.835   6.150
 6530POPC   C1A42447  15.941  43.884   6.450
 6530POPC   D2A42448  15.924  43.881   6.750
 6530POPC   C3A42449  15.993  43.924   7.050
 6530POPC   C4A42450  15.960  43.885   7.350
 6530POPC   C1B42451  16.151  43.843   6.450
 6530POPC   C2B42452  16.221  43.800   6.750
 6530POPC   C3B42453  16.187  43.823   7.050
 6530POPC   C4B42454  16.236  43.782   7.350
 6531POPC   NC342455   0.458  15.925   5.550
 6531POPC   PO442456   0.448  15.937   5.850
 6531POPC   GL142457   0.461  15.969   6.150
 6531POPC   GL242458   0.578  15.917   6.150
 6531POPC   C1A42459   0.488  15.964   6.450
 6531POPC   D2A42460   0.441  15.963   6.750
 6531POPC   C3A42461   0.441  15.986   7.050
 6531POPC   C4A42462   0.427  16.004   7.350
 6531POPC   C1B42463   0.706  15.886   6.450
 6531POPC   C2B42464   0.702  15.862   6.750
 6531POPC   C3B42465   0.687  15.908   7.050
 6531POPC   C4B42466   0.688  15.836   7.350
 6532POPC   NC342467   5.138  36.114   5.550
 6532POPC   PO442468   5.102  36.150   5.850
 6532POPC   GL142469   5.102  36.126   6.150
 6532POPC   GL242470   4.935  36.090   6.150
 6532POPC   C1A42471   5.061  36.087   6.450
 6532POPC   D2A42472   5.077  36.084   6.750
 6532POPC   C3A42473   5.104  36.128   7.050
 6532POPC   C4A42474   5.119  36.092   7.350
 6532POPC   C1B42475   4.872  36.011   6.450
 6532POPC   C2B42476   4.888  36.051   6.750
 6532POPC   C3B42477   4.865  36.003   7.050
 6532POPC   C4B42478   4.880  36.032   7.350
 6533POPC   NC342479  40.772  24.484   5.550
 6533POPC   PO442480  40.828  24.480   5.850
 6533POPC   GL142481  40.814  24.530   6.150
 6533POPC   GL242482  40.824  24.409   6.150
 6533POPC   C1A42483  40.833  24.522   6.450
 6533POPC   D2A42484  40.795  24.474   6.750
 6533POPC   C3A42485  40.779  24.506   7.050
 6533POPC   C4A42486  40.763  24.451   7.350
 6533POPC   C1B42487  40.833  24.261   6.450
 6533POPC   C2B42488  40.862  24.295   6.750
 6533POPC   C3B42489  40.859  24.265   7.050
 6533POPC   C4B42490  40.856  24.291   7.350
 6534POPC   NC342491   3.511  30.671   5.550
 6534POPC   PO442492   3.570  30.648   5.850
 6534POPC   GL142493   3.506  30.742   6.150
 6534POPC   GL242494   3.577  30.620   6.150
 6534POPC   C1A42495   3.520  30.731   6.450
 6534POPC   D2A42496   3.564  30.729   6.750
 6534POPC   C3A42497   3.567  30.734   7.050
 6534POPC   C4A42498   3.529  30.737   7.350
 6534POPC   C1B42499   3.632  30.507   6.450
 6534POPC   C2B42500   3.664  30.503   6.750
 6534POPC   C3B42501   3.691  30.482   7.050
 6534POPC   C4B42502   3.710  30.491   7.350
 6535POPC   NC342503  40.774  26.014   5.550
 6535POPC   PO442504  40.783  26.005   5.850
 6535POPC   GL142505  40.788  26.016   6.150
 6535POPC   GL242506  40.871  26.166   6.150
 6535POPC   C1A42507  40.817  26.027   6.450
 6535POPC   D2A42508  40.819  26.024   6.750
 6535POPC   C3A42509  40.769  26.077   7.050
 6535POPC   C4A42510  40.806  26.063   7.350
 6535POPC   C1B42511  40.918  26.192   6.450
 6535POPC   C2B42512  40.912  26.213   6.750
 6535POPC   C3B42513  40.905  26.201   7.050
 6535POPC   C4B42514  40.955  26.262   7.350
 6536POPC   NC342515   9.704   7.463   5.550
 6536POPC   PO442516   9.757   7.468   5.850
 6536POPC   GL142517   9.756   7.440   6.150
 6536POPC   GL242518   9.696   7.549   6.150
 6536POPC   C1A42519   9.742   7.399   6.450
 6536POPC   D2A42520   9.781   7.432   6.750
 6536POPC   C3A42521   9.702   7.421   7.050
 6536POPC   C4A42522   9.726   7.449   7.350
 6536POPC   C1B42523   9.699   7.633   6.450
 6536POPC   C2B42524   9.693   7.651   6.750
 6536POPC   C3B42525   9.755   7.681   7.050
 6536POPC   C4B42526   9.761   7.673   7.350
 6537POPC   NC342527   3.503  26.856   5.550
 6537POPC   PO442528   3.503  26.806   5.850
 6537POPC   GL142529   3.571  26.826   6.150
 6537POPC   GL242530   3.570  26.736   6.150
 6537POPC   C1A42531   3.518  26.846   6.450
 6537POPC   D2A42532   3.530  26.781   6.750
 6537POPC   C3A42533   3.501  26.810   7.050
 6537POPC   C4A42534   3.559  26.830   7.350
 6537POPC   C1B42535   3.614  26.598   6.450
 6537POPC   C2B42536   3.596  26.615   6.750
 6537POPC   C3B42537   3.639  26.557   7.050
 6537POPC   C4B42538   3.686  26.593   7.350
 6538POPC   NC342539   1.169   5.087   5.550
 6538POPC   PO442540   1.202   5.093   5.850
 6538POPC   GL142541   1.173   5.090   6.150
 6538POPC   GL242542   1.278   5.112   6.150
 6538POPC   C1A42543   1.182   5.044   6.450
 6538POPC   D2A42544   1.234   5.054   6.750
 6538POPC   C3A42545   1.196   5.126   7.050
 6538POPC   C4A42546   1.210   5.141   7.350
 6538POPC   C1B42547   1.402   5.220   6.450
 6538POPC   C2B42548   1.395   5.231   6.750
 6538POPC   C3B42549   1.403   5.195   7.050
 6538POPC   C4B42550   1.383   5.174   7.350
 6539POPC   NC342551  43.911  17.553   5.550
 6539POPC   PO442552  43.929  17.522   5.850
 6539POPC   GL142553  43.890  17.520   6.150
 6539POPC   GL242554  43.841  17.382   6.150
 6539POPC   C1A42555  43.895  17.493   6.450
 6539POPC   D2A42556  43.855  17.505   6.750
 6539POPC   C3A42557  43.895  17.548   7.050
 6539POPC   C4A42558  43.907  17.497   7.350
 6539POPC   C1B42559  43.753  17.251   6.450
 6539POPC   C2B42560  43.762  17.305   6.750
 6539POPC   C3B42561  43.783  17.266   7.050
 6539POPC   C4B42562  43.730  17.269   7.350
 6540POPC   NC342563  12.881  36.167   5.550
 6540POPC   PO442564  12.823  36.175   5.850
 6540POPC   GL142565  12.853  36.166   6.150
 6540POPC   GL242566  12.790  36.202   6.150
 6540POPC   C1A42567  12.885  36.121   6.450
 6540POPC   D2A42568  12.822  36.079   6.750
 6540POPC   C3A42569  12.822  36.129   7.050
 6540POPC   C4A42570  12.901  36.121   7.350
 6540POPC   C1B42571  12.705  36.333   6.450
 6540POPC   C2B42572  12.718  36.392   6.750
 6540POPC   C3B42573  12.761  36.378   7.050
 6540POPC   C4B42574  12.732  36.352   7.350
 6541POPC   NC342575  36.097  33.836   5.550
 6541POPC   PO442576  36.143  33.825   5.850
 6541POPC   GL142577  36.080  33.764   6.150
 6541POPC   GL242578  36.013  33.903   6.150
 6541POPC   C1A42579  36.177  33.767   6.450
 6541POPC   D2A42580  36.178  33.816   6.750
 6541POPC   C3A42581  36.146  33.753   7.050
 6541POPC   C4A42582  36.127  33.755   7.350
 6541POPC   C1B42583  35.929  33.875   6.450
 6541POPC   C2B42584  35.939  33.894   6.750
 6541POPC   C3B42585  35.943  33.935   7.050
 6541POPC   C4B42586  35.935  33.941   7.350
 6542POPC   NC342587  24.508   3.524   5.550
 6542POPC   PO442588  24.501   3.557   5.850
 6542POPC   GL142589  24.511   3.494   6.150
 6542POPC   GL242590  24.628   3.558   6.150
 6542POPC   C1A42591  24.454   3.577   6.450
 6542POPC   D2A42592  24.477   3.508   6.750
 6542POPC   C3A42593  24.481   3.493   7.050
 6542POPC   C4A42594  24.498   3.502   7.350
 6542POPC   C1B42595  24.739   3.494   6.450
 6542POPC   C2B42596  24.704   3.536   6.750
 6542POPC   C3B42597  24.768   3.530   7.050
 6542POPC   C4B42598  24.751   3.457   7.350
 6543POPC   NC342599  33.059  38.489   5.550
 6543POPC   PO442600  33.029  38.473   5.850
 6543POPC   GL142601  33.019  38.462   6.150
 6543POPC   GL242602  32.947  38.451   6.150
 6543POPC   C1A42603  33.046  38.434   6.450
 6543POPC   D2A42604  32.981  38.503   6.750
 6543POPC   C3A42605  32.997  38.417   7.050
 6543POPC   C4A42606  33.037  38.431   7.350
 6543POPC   C1B42607  32.735  38.419   6.450
 6543POPC   C2B42608  32.809  38.447   6.750
 6543POPC   C3B42609  32.774  38.350   7.050
 6543POPC   C4B42610  32.733  38.446   7.350
 6544POPC   NC342611  20.628  13.654   5.550
 6544POPC   PO442612  20.658  13.621   5.850
 6544POPC   GL142613  20.627  13.664   6.150
 6544POPC   GL242614  20.545  13.689   6.150
 6544POPC   C1A42615  20.640  13.631   6.450
 6544POPC   D2A42616  20.615  13.657   6.750
 6544POPC   C3A42617  20.578  13.664   7.050
 6544POPC   C4A42618  20.619  13.648   7.350
 6544POPC   C1B42619  20.540  13.827   6.450
 6544POPC   C2B42620  20.490  13.884   6.750
 6544POPC   C3B42621  20.463  13.872   7.050
 6544POPC   C4B42622  20.468  13.888   7.350
 6545POPC   NC342623  42.359   1.261   5.550
 6545POPC   PO442624  42.353   1.245   5.850
 6545POPC   GL142625  42.326   1.222   6.150
 6545POPC   GL242626  42.419   1.066   6.150
 6545POPC   C1A42627  42.293   1.247   6.450
 6545POPC   D2A42628  42.315   1.196   6.750
 6545POPC   C3A42629  42.364   1.186   7.050
 6545POPC   C4A42630  42.359   1.166   7.350
 6545POPC   C1B42631  42.486   0.998   6.450
 6545POPC   C2B42632  42.433   1.010   6.750
 6545POPC   C3B42633  42.429   1.020   7.050
 6545POPC   C4B42634  42.461   0.947   7.350
 6546POPC   NC342635   5.820  27.596   5.550
 6546POPC   PO442636   5.871  27.633   5.850
 6546POPC   GL142637   5.836  27.582   6.150
 6546POPC   GL242638   5.758  27.625   6.150
 6546POPC   C1A42639   5.837  27.587   6.450
 6546POPC   D2A42640   5.854  27.553   6.750
 6546POPC   C3A42641   5.851  27.621   7.050
 6546POPC   C4A42642   5.903  27.566   7.350
 6546POPC   C1B42643   5.669  27.681   6.450
 6546POPC   C2B42644   5.640  27.660   6.750
 6546POPC   C3B42645   5.662  27.658   7.050
 6546POPC   C4B42646   5.688  27.739   7.350
 6547POPC   NC342647  19.043  39.240   5.550
 6547POPC   PO442648  19.076  39.194   5.850
 6547POPC   GL142649  19.052  39.241   6.150
 6547POPC   GL242650  19.091  39.109   6.150
 6547POPC   C1A42651  19.065  39.242   6.450
 6547POPC   D2A42652  19.035  39.251   6.750
 6547POPC   C3A42653  19.105  39.205   7.050
 6547POPC   C4A42654  19.016  39.250   7.350
 6547POPC   C1B42655  19.118  38.973   6.450
 6547POPC   C2B42656  19.139  39.020   6.750
 6547POPC   C3B42657  19.111  39.034   7.050
 6547POPC   C4B42658  19.123  38.988   7.350
 6548POPC   NC342659  15.196  23.723   5.550
 6548POPC   PO442660  15.191  23.682   5.850
 6548POPC   GL142661  15.154  23.748   6.150
 6548POPC   GL242662  15.135  23.605   6.150
 6548POPC   C1A42663  15.169  23.669   6.450
 6548POPC   D2A42664  15.131  23.682   6.750
 6548POPC   C3A42665  15.195  23.671   7.050
 6548POPC   C4A42666  15.145  23.684   7.350
 6548POPC   C1B42667  15.062  23.471   6.450
 6548POPC   C2B42668  15.114  23.499   6.750
 6548POPC   C3B42669  15.132  23.507   7.050
 6548POPC   C4B42670  15.052  23.470   7.350
 6549POPC   NC342671   6.649  40.813   5.550
 6549POPC   PO442672   6.614  40.757   5.850
 6549POPC   GL142673   6.670  40.770   6.150
 6549POPC   GL242674   6.551  40.628   6.150
 6549POPC   C1A42675   6.691  40.761   6.450
 6549POPC   D2A42676   6.622  40.786   6.750
 6549POPC   C3A42677   6.657  40.795   7.050
 6549POPC   C4A42678   6.676  40.824   7.350
 6549POPC   C1B42679   6.544  40.559   6.450
 6549POPC   C2B42680   6.577  40.557   6.750
 6549POPC   C3B42681   6.509  40.506   7.050
 6549POPC   C4B42682   6.577  40.520   7.350
 6550POPC   NC342683  24.533  38.432   5.550
 6550POPC   PO442684  24.522  38.489   5.850
 6550POPC   GL142685  24.469  38.420   6.150
 6550POPC   GL242686  24.329  38.470   6.150
 6550POPC   C1A42687  24.493  38.419   6.450
 6550POPC   D2A42688  24.533  38.429   6.750
 6550POPC   C3A42689  24.472  38.437   7.050
 6550POPC   C4A42690  24.503  38.456   7.350
 6550POPC   C1B42691  24.245  38.539   6.450
 6550POPC   C2B42692  24.232  38.499   6.750
 6550POPC   C3B42693  24.274  38.570   7.050
 6550POPC   C4B42694  24.217  38.567   7.350
 6551POPC   NC342695  42.309  37.683   5.550
 6551POPC   PO442696  42.351  37.633   5.850
 6551POPC   GL142697  42.286  37.647   6.150
 6551POPC   GL242698  42.270  37.835   6.150
 6551POPC   C1A42699  42.321  37.725   6.450
 6551POPC   D2A42700  42.345  37.642   6.750
 6551POPC   C3A42701  42.342  37.729   7.050
 6551POPC   C4A42702  42.376  37.716   7.350
 6551POPC   C1B42703  42.305  37.960   6.450
 6551POPC   C2B42704  42.274  37.876   6.750
 6551POPC   C3B42705  42.298  37.881   7.050
 6551POPC   C4B42706  42.310  37.958   7.350
 6552POPC   NC342707   7.373  29.111   5.550
 6552POPC   PO442708   7.440  29.175   5.850
 6552POPC   GL142709   7.436  29.190   6.150
 6552POPC   GL242710   7.274  29.108   6.150
 6552POPC   C1A42711   7.394  29.158   6.450
 6552POPC   D2A42712   7.418  29.160   6.750
 6552POPC   C3A42713   7.438  29.163   7.050
 6552POPC   C4A42714   7.426  29.126   7.350
 6552POPC   C1B42715   7.191  28.955   6.450
 6552POPC   C2B42716   7.234  28.953   6.750
 6552POPC   C3B42717   7.179  28.988   7.050
 6552POPC   C4B42718   7.215  29.013   7.350
 6553POPC   NC342719  16.775  33.754   5.550
 6553POPC   PO442720  16.756  33.806   5.850
 6553POPC   GL142721  16.749  33.750   6.150
 6553POPC   GL242722  16.891  33.764   6.150
 6553POPC   C1A42723  16.733  33.812   6.450
 6553POPC   D2A42724  16.691  33.820   6.750
 6553POPC   C3A42725  16.735  33.841   7.050
 6553POPC   C4A42726  16.698  33.754   7.350
 6553POPC   C1B42727  16.976  33.826   6.450
 6553POPC   C2B42728  16.986  33.744   6.750
 6553POPC   C3B42729  16.947  33.739   7.050
 6553POPC   C4B42730  17.023  33.824   7.350
 6554POPC   NC342731   3.568   3.509   5.550
 6554POPC   PO442732   3.564   3.518   5.850
 6554POPC   GL142733   3.576   3.572   6.150
 6554POPC   GL242734   3.585   3.672   6.150
 6554POPC   C1A42735   3.525   3.552   6.450
 6554POPC   D2A42736   3.500   3.569   6.750
 6554POPC   C3A42737   3.506   3.558   7.050
 6554POPC   C4A42738   3.501   3.567   7.350
 6554POPC   C1B42739   3.662   3.809   6.450
 6554POPC   C2B42740   3.634   3.756   6.750
 6554POPC   C3B42741   3.669   3.758   7.050
 6554POPC   C4B42742   3.626   3.798   7.350
 6555POPC   NC342743  18.289   8.947   5.550
 6555POPC   PO442744  18.298   8.935   5.850
 6555POPC   GL142745  18.303   9.013   6.150
 6555POPC   GL242746  18.219   9.056   6.150
 6555POPC   C1A42747  18.264   8.926   6.450
 6555POPC   D2A42748  18.318   8.940   6.750
 6555POPC   C3A42749  18.316   8.991   7.050
 6555POPC   C4A42750  18.276   8.976   7.350
 6555POPC   C1B42751  18.218   9.223   6.450
 6555POPC   C2B42752  18.237   9.173   6.750
 6555POPC   C3B42753  18.259   9.222   7.050
 6555POPC   C4B42754  18.200   9.184   7.350
 6556POPC   NC342755  21.391  20.623   5.550
 6556POPC   PO442756  21.403  20.599   5.850
 6556POPC   GL142757  21.425  20.569   6.150
 6556POPC   GL242758  21.378  20.713   6.150
 6556POPC   C1A42759  21.366  20.658   6.450
 6556POPC   D2A42760  21.342  20.652   6.750
 6556POPC   C3A42761  21.416  20.563   7.050
 6556POPC   C4A42762  21.351  20.587   7.350
 6556POPC   C1B42763  21.467  20.889   6.450
 6556POPC   C2B42764  21.424  20.859   6.750
 6556POPC   C3B42765  21.473  20.827   7.050
 6556POPC   C4B42766  21.445  20.887   7.350
 6557POPC   NC342767   1.948  37.701   5.550
 6557POPC   PO442768   1.984  37.634   5.850
 6557POPC   GL142769   1.956  37.713   6.150
 6557POPC   GL242770   1.825  37.691   6.150
 6557POPC   C1A42771   2.004  37.707   6.450
 6557POPC   D2A42772   2.007  37.649   6.750
 6557POPC   C3A42773   2.025  37.640   7.050
 6557POPC   C4A42774   2.026  37.637   7.350
 6557POPC   C1B42775   1.784  37.729   6.450
 6557POPC   C2B42776   1.713  37.763   6.750
 6557POPC   C3B42777   1.763  37.753   7.050
 6557POPC   C4B42778   1.727  37.726   7.350
 6558POPC   NC342779  25.294  38.431   5.550
 6558POPC   PO442780  25.301  38.420   5.850
 6558POPC   GL142781  25.235  38.440   6.150
 6558POPC   GL242782  25.288  38.553   6.150
 6558POPC   C1A42783  25.217  38.410   6.450
 6558POPC   D2A42784  25.222  38.449   6.750
 6558POPC   C3A42785  25.307  38.425   7.050
 6558POPC   C4A42786  25.253  38.450   7.350
 6558POPC   C1B42787  25.408  38.637   6.450
 6558POPC   C2B42788  25.388  38.688   6.750
 6558POPC   C3B42789  25.353  38.689   7.050
 6558POPC   C4B42790  25.415  38.686   7.350
 6559POPC   NC342791  16.753  44.659   5.550
 6559POPC   PO442792  16.752  44.708   5.850
 6559POPC   GL142793  16.686  44.651   6.150
 6559POPC   GL242794  16.809  44.748   6.150
 6559POPC   C1A42795  16.772  44.654   6.450
 6559POPC   D2A42796  16.765  44.701   6.750
 6559POPC   C3A42797  16.755  44.638   7.050
 6559POPC   C4A42798  16.713  44.651   7.350
 6559POPC   C1B42799  16.843  44.853   6.450
 6559POPC   C2B42800  16.869  44.866   6.750
 6559POPC   C3B42801  16.905  44.861   7.050
 6559POPC   C4B42802  16.908  44.822   7.350
 6560POPC   NC342803   4.312   2.718   5.550
 6560POPC   PO442804   4.367   2.786   5.850
 6560POPC   GL142805   4.303   2.773   6.150
 6560POPC   GL242806   4.243   2.736   6.150
 6560POPC   C1A42807   4.355   2.764   6.450
 6560POPC   D2A42808   4.315   2.796   6.750
 6560POPC   C3A42809   4.290   2.766   7.050
 6560POPC   C4A42810   4.312   2.738   7.350
 6560POPC   C1B42811   4.081   2.613   6.450
 6560POPC   C2B42812   4.121   2.565   6.750
 6560POPC   C3B42813   4.087   2.641   7.050
 6560POPC   C4B42814   4.137   2.632   7.350
 6561POPC   NC342815   8.947   4.303   5.550
 6561POPC   PO442816   8.964   4.336   5.850
 6561POPC   GL142817   9.018   4.351   6.150
 6561POPC   GL242818   9.115   4.259   6.150
 6561POPC   C1A42819   8.995   4.307   6.450
 6561POPC   D2A42820   8.984   4.320   6.750
 6561POPC   C3A42821   8.989   4.346   7.050
 6561POPC   C4A42822   8.958   4.343   7.350
 6561POPC   C1B42823   9.167   4.250   6.450
 6561POPC   C2B42824   9.191   4.173   6.750
 6561POPC   C3B42825   9.178   4.177   7.050
 6561POPC   C4B42826   9.195   4.173   7.350
 6562POPC   NC342827  20.641   8.231   5.550
 6562POPC   PO442828  20.607   8.206   5.850
 6562POPC   GL142829  20.573   8.208   6.150
 6562POPC   GL242830  20.580   8.066   6.150
 6562POPC   C1A42831  20.563   8.188   6.450
 6562POPC   D2A42832  20.646   8.179   6.750
 6562POPC   C3A42833  20.639   8.217   7.050
 6562POPC   C4A42834  20.609   8.215   7.350
 6562POPC   C1B42835  20.535   8.008   6.450
 6562POPC   C2B42836  20.489   7.989   6.750
 6562POPC   C3B42837  20.462   8.013   7.050
 6562POPC   C4B42838  20.466   8.027   7.350
 6563POPC   NC342839  26.002   3.566   5.550
 6563POPC   PO442840  25.994   3.547   5.850
 6563POPC   GL142841  26.001   3.542   6.150
 6563POPC   GL242842  26.133   3.653   6.150
 6563POPC   C1A42843  26.090   3.588   6.450
 6563POPC   D2A42844  26.051   3.537   6.750
 6563POPC   C3A42845  26.077   3.539   7.050
 6563POPC   C4A42846  26.029   3.588   7.350
 6563POPC   C1B42847  26.214   3.724   6.450
 6563POPC   C2B42848  26.222   3.739   6.750
 6563POPC   C3B42849  26.168   3.704   7.050
 6563POPC   C4B42850  26.178   3.711   7.350
 6564POPC   NC342851   2.723  16.698   5.550
 6564POPC   PO442852   2.733  16.710   5.850
 6564POPC   GL142853   2.761  16.702   6.150
 6564POPC   GL242854   2.640  16.696   6.150
 6564POPC   C1A42855   2.796  16.763   6.450
 6564POPC   D2A42856   2.765  16.749   6.750
 6564POPC   C3A42857   2.722  16.699   7.050
 6564POPC   C4A42858   2.778  16.727   7.350
 6564POPC   C1B42859   2.541  16.753   6.450
 6564POPC   C2B42860   2.565  16.734   6.750
 6564POPC   C3B42861   2.501  16.773   7.050
 6564POPC   C4B42862   2.526  16.789   7.350
 6565POPC   NC342863  12.881  28.379   5.550
 6565POPC   PO442864  12.810  28.378   5.850
 6565POPC   GL142865  12.856  28.378   6.150
 6565POPC   GL242866  12.963  28.358   6.150
 6565POPC   C1A42867  12.852  28.379   6.450
 6565POPC   D2A42868  12.843  28.325   6.750
 6565POPC   C3A42869  12.828  28.372   7.050
 6565POPC   C4A42870  12.887  28.383   7.350
 6565POPC   C1B42871  13.105  28.282   6.450
 6565POPC   C2B42872  13.077  28.325   6.750
 6565POPC   C3B42873  13.058  28.328   7.050
 6565POPC   C4B42874  13.053  28.346   7.350
 6566POPC   NC342875  22.181  40.012   5.550
 6566POPC   PO442876  22.137  40.049   5.850
 6566POPC   GL142877  22.212  40.034   6.150
 6566POPC   GL242878  22.085  40.022   6.150
 6566POPC   C1A42879  22.161  40.014   6.450
 6566POPC   D2A42880  22.195  39.989   6.750
 6566POPC   C3A42881  22.176  40.000   7.050
 6566POPC   C4A42882  22.141  39.962   7.350
 6566POPC   C1B42883  21.882  40.065   6.450
 6566POPC   C2B42884  21.933  40.086   6.750
 6566POPC   C3B42885  21.914  40.118   7.050
 6566POPC   C4B42886  21.898  40.051   7.350
 6567POPC   NC342887  24.537  43.129   5.550
 6567POPC   PO442888  24.495  43.101   5.850
 6567POPC   GL142889  24.453  43.072   6.150
 6567POPC   GL242890  24.525  43.207   6.150
 6567POPC   C1A42891  24.487  43.104   6.450
 6567POPC   D2A42892  24.457  43.092   6.750
 6567POPC   C3A42893  24.470  43.086   7.050
 6567POPC   C4A42894  24.521  43.067   7.350
 6567POPC   C1B42895  24.505  43.382   6.450
 6567POPC   C2B42896  24.456  43.388   6.750
 6567POPC   C3B42897  24.493  43.350   7.050
 6567POPC   C4B42898  24.521  43.317   7.350
 6568POPC   NC342899   0.408   5.136   5.550
 6568POPC   PO442900   0.408   5.065   5.850
 6568POPC   GL142901   0.389   5.058   6.150
 6568POPC   GL242902   0.328   5.026   6.150
 6568POPC   C1A42903   0.391   5.082   6.450
 6568POPC   D2A42904   0.411   5.111   6.750
 6568POPC   C3A42905   0.449   5.086   7.050
 6568POPC   C4A42906   0.412   5.086   7.350
 6568POPC   C1B42907   0.256   4.895   6.450
 6568POPC   C2B42908   0.268   4.912   6.750
 6568POPC   C3B42909   0.317   4.913   7.050
 6568POPC   C4B42910   0.277   4.841   7.350
 6569POPC   NC342911  16.714  23.756   5.550
 6569POPC   PO442912  16.718  23.726   5.850
 6569POPC   GL142913  16.731  23.699   6.150
 6569POPC   GL242914  16.580  23.722   6.150
 6569POPC   C1A42915  16.723  23.752   6.450
 6569POPC   D2A42916  16.773  23.679   6.750
 6569POPC   C3A42917  16.687  23.720   7.050
 6569POPC   C4A42918  16.730  23.718   7.350
 6569POPC   C1B42919  16.499  23.670   6.450
 6569POPC   C2B42920  16.527  23.694   6.750
 6569POPC   C3B42921  16.498  23.614   7.050
 6569POPC   C4B42922  16.452  23.692   7.350
 6570POPC   NC342923  39.279   1.969   5.550
 6570POPC   PO442924  39.276   2.023   5.850
 6570POPC   GL142925  39.187   1.969   6.150
 6570POPC   GL242926  39.105   1.924   6.150
 6570POPC   C1A42927  39.187   1.942   6.450
 6570POPC   D2A42928  39.200   1.946   6.750
 6570POPC   C3A42929  39.223   1.956   7.050
 6570POPC   C4A42930  39.276   1.965   7.350
 6570POPC   C1B42931  39.015   1.897   6.450
 6570POPC   C2B42932  38.996   1.831   6.750
 6570POPC   C3B42933  39.044   1.880   7.050
 6570POPC   C4B42934  39.019   1.901   7.350
 6571POPC   NC342935  26.837  11.262   5.550
 6571POPC   PO442936  26.797  11.277   5.850
 6571POPC   GL142937  26.831  11.324   6.150
 6571POPC   GL242938  26.650  11.358   6.150
 6571POPC   C1A42939  26.799  11.284   6.450
 6571POPC   D2A42940  26.824  11.283   6.750
 6571POPC   C3A42941  26.855  11.282   7.050
 6571POPC   C4A42942  26.773  11.253   7.350
 6571POPC   C1B42943  26.557  11.371   6.450
 6571POPC   C2B42944  26.620  11.349   6.750
 6571POPC   C3B42945  26.521  11.370   7.050
 6571POPC   C4B42946  26.577  11.315   7.350
 6572POPC   NC342947   1.225  38.411   5.550
 6572POPC   PO442948   1.224  38.429   5.850
 6572POPC   GL142949   1.223  38.488   6.150
 6572POPC   GL242950   1.364  38.445   6.150
 6572POPC   C1A42951   1.191  38.454   6.450
 6572POPC   D2A42952   1.197  38.454   6.750
 6572POPC   C3A42953   1.227  38.409   7.050
 6572POPC   C4A42954   1.221  38.484   7.350
 6572POPC   C1B42955   1.476  38.414   6.450
 6572POPC   C2B42956   1.427  38.380   6.750
 6572POPC   C3B42957   1.444  38.379   7.050
 6572POPC   C4B42958   1.421  38.442   7.350
 6573POPC   NC342959  39.992  25.217   5.550
 6573POPC   PO442960  40.056  25.267   5.850
 6573POPC   GL142961  40.016  25.276   6.150
 6573POPC   GL242962  40.044  25.157   6.150
 6573POPC   C1A42963  39.986  25.232   6.450
 6573POPC   D2A42964  39.974  25.293   6.750
 6573POPC   C3A42965  40.045  25.287   7.050
 6573POPC   C4A42966  39.972  25.257   7.350
 6573POPC   C1B42967  40.172  25.065   6.450
 6573POPC   C2B42968  40.132  25.014   6.750
 6573POPC   C3B42969  40.153  25.075   7.050
 6573POPC   C4B42970  40.132  25.077   7.350
 6574POPC   NC342971  36.913   3.565   5.550
 6574POPC   PO442972  36.873   3.573   5.850
 6574POPC   GL142973  36.917   3.526   6.150
 6574POPC   GL242974  37.029   3.597   6.150
 6574POPC   C1A42975  36.886   3.586   6.450
 6574POPC   D2A42976  36.930   3.591   6.750
 6574POPC   C3A42977  36.883   3.508   7.050
 6574POPC   C4A42978  36.903   3.544   7.350
 6574POPC   C1B42979  37.133   3.719   6.450
 6574POPC   C2B42980  37.142   3.644   6.750
 6574POPC   C3B42981  37.128   3.691   7.050
 6574POPC   C4B42982  37.091   3.646   7.350
 6575POPC   NC342983   4.311  20.565   5.550
 6575POPC   PO442984   4.322  20.638   5.850
 6575POPC   GL142985   4.341  20.598   6.150
 6575POPC   GL242986   4.226  20.718   6.150
 6575POPC   C1A42987   4.314  20.594   6.450
 6575POPC   D2A42988   4.282  20.572   6.750
 6575POPC   C3A42989   4.320  20.654   7.050
 6575POPC   C4A42990   4.285  20.633   7.350
 6575POPC   C1B42991   4.200  20.858   6.450
 6575POPC   C2B42992   4.142  20.842   6.750
 6575POPC   C3B42993   4.187  20.812   7.050
 6575POPC   C4B42994   4.126  20.796   7.350
 6576POPC   NC342995   5.119  34.539   5.550
 6576POPC   PO442996   5.090  34.538   5.850
 6576POPC   GL142997   5.097  34.537   6.150
 6576POPC   GL242998   5.258  34.514   6.150
 6576POPC   C1A42999   5.090  34.565   6.450
 6576POPC   D2A43000   5.100  34.584   6.750
 6576POPC   C3A43001   5.098  34.607   7.050
 6576POPC   C4A43002   5.140  34.623   7.350
 6576POPC   C1B43003   5.321  34.476   6.450
 6576POPC   C2B43004   5.349  34.483   6.750
 6576POPC   C3B43005   5.353  34.460   7.050
 6576POPC   C4B43006   5.345  34.516   7.350
 6577POPC   NC343007  20.622  33.785   5.550
 6577POPC   PO443008  20.610  33.795   5.850
 6577POPC   GL143009  20.572  33.791   6.150
 6577POPC   GL243010  20.708  33.751   6.150
 6577POPC   C1A43011  20.621  33.787   6.450
 6577POPC   D2A43012  20.578  33.774   6.750
 6577POPC   C3A43013  20.626  33.754   7.050
 6577POPC   C4A43014  20.632  33.764   7.350
 6577POPC   C1B43015  20.805  33.756   6.450
 6577POPC   C2B43016  20.839  33.742   6.750
 6577POPC   C3B43017  20.867  33.683   7.050
 6577POPC   C4B43018  20.849  33.691   7.350
 6578POPC   NC343019  23.754   5.869   5.550
 6578POPC   PO443020  23.745   5.890   5.850
 6578POPC   GL143021  23.691   5.865   6.150
 6578POPC   GL243022  23.611   5.777   6.150
 6578POPC   C1A43023  23.677   5.901   6.450
 6578POPC   D2A43024  23.750   5.905   6.750
 6578POPC   C3A43025  23.667   5.892   7.050
 6578POPC   C4A43026  23.705   5.916   7.350
 6578POPC   C1B43027  23.499   5.782   6.450
 6578POPC   C2B43028  23.479   5.779   6.750
 6578POPC   C3B43029  23.518   5.792   7.050
 6578POPC   C4B43030  23.438   5.743   7.350
 6579POPC   NC343031  22.159  42.310   5.550
 6579POPC   PO443032  22.155  42.333   5.850
 6579POPC   GL143033  22.122  42.383   6.150
 6579POPC   GL243034  22.276  42.379   6.150
 6579POPC   C1A43035  22.120  42.292   6.450
 6579POPC   D2A43036  22.149  42.363   6.750
 6579POPC   C3A43037  22.147  42.347   7.050
 6579POPC   C4A43038  22.146  42.342   7.350
 6579POPC   C1B43039  22.363  42.463   6.450
 6579POPC   C2B43040  22.325  42.444   6.750
 6579POPC   C3B43041  22.333  42.459   7.050
 6579POPC   C4B43042  22.347  42.492   7.350
 6580POPC   NC343043   5.087  29.958   5.550
 6580POPC   PO443044   5.117  29.893   5.850
 6580POPC   GL143045   5.065  29.879   6.150
 6580POPC   GL243046   4.982  29.936   6.150
 6580POPC   C1A43047   5.072  29.955   6.450
 6580POPC   D2A43048   5.046  29.928   6.750
 6580POPC   C3A43049   5.137  29.887   7.050
 6580POPC   C4A43050   5.143  29.941   7.350
 6580POPC   C1B43051   4.881  29.978   6.450
 6580POPC   C2B43052   4.867  29.918   6.750
 6580POPC   C3B43053   4.820  29.950   7.050
 6580POPC   C4B43054   4.868  29.936   7.350
 6581POPC   NC343055  43.153  43.156   5.550
 6581POPC   PO443056  43.152  43.100   5.850
 6581POPC   GL143057  43.092  43.105   6.150
 6581POPC   GL243058  43.192  43.081   6.150
 6581POPC   C1A43059  43.121  43.111   6.450
 6581POPC   D2A43060  43.120  43.061   6.750
 6581POPC   C3A43061  43.061  43.081   7.050
 6581POPC   C4A43062  43.103  43.105   7.350
 6581POPC   C1B43063  43.341  43.049   6.450
 6581POPC   C2B43064  43.294  42.995   6.750
 6581POPC   C3B43065  43.388  42.998   7.050
 6581POPC   C4B43066  43.318  43.030   7.350
 6582POPC   NC343067  28.412   8.960   5.550
 6582POPC   PO443068  28.378   8.976   5.850
 6582POPC   GL143069  28.344   8.937   6.150
 6582POPC   GL243070  28.454   8.921   6.150
 6582POPC   C1A43071  28.326   9.011   6.450
 6582POPC   D2A43072  28.418   8.945   6.750
 6582POPC   C3A43073  28.332   8.977   7.050
 6582POPC   C4A43074  28.409   8.942   7.350
 6582POPC   C1B43075  28.654   8.900   6.450
 6582POPC   C2B43076  28.624   8.875   6.750
 6582POPC   C3B43077  28.567   8.912   7.050
 6582POPC   C4B43078  28.588   8.870   7.350
 6583POPC   NC343079  43.909  20.588   5.550
 6583POPC   PO443080  43.889  20.565   5.850
 6583POPC   GL143081  43.916  20.656   6.150
 6583POPC   GL243082  43.886  20.697   6.150
 6583POPC   C1A43083  43.843  20.618   6.450
 6583POPC   D2A43084  43.846  20.621   6.750
 6583POPC   C3A43085  43.866  20.604   7.050
 6583POPC   C4A43086  43.912  20.611   7.350
 6583POPC   C1B43087  43.880  20.835   6.450
 6583POPC   C2B43088  43.867  20.849   6.750
 6583POPC   C3B43089  43.866  20.886   7.050
 6583POPC   C4B43090  43.915  20.832   7.350
 6584POPC   NC343091   3.579  28.361   5.550
 6584POPC   PO443092   3.542  28.355   5.850
 6584POPC   GL143093   3.539  28.341   6.150
 6584POPC   GL243094   3.700  28.323   6.150
 6584POPC   C1A43095   3.567  28.359   6.450
 6584POPC   D2A43096   3.579  28.330   6.750
 6584POPC   C3A43097   3.542  28.362   7.050
 6584POPC   C4A43098   3.549  28.335   7.350
 6584POPC   C1B43099   3.760  28.347   6.450
 6584POPC   C2B43100   3.807  28.338   6.750
 6584POPC   C3B43101   3.772  28.362   7.050
 6584POPC   C4B43102   3.769  28.273   7.350
 6585POPC   NC343103  21.397  42.363   5.550
 6585POPC   PO443104  21.367  42.352   5.850
 6585POPC   GL143105  21.417  42.317   6.150
 6585POPC   GL243106  21.249  42.213   6.150
 6585POPC   C1A43107  21.427  42.354   6.450
 6585POPC   D2A43108  21.386  42.299   6.750
 6585POPC   C3A43109  21.348  42.335   7.050
 6585POPC   C4A43110  21.370  42.348   7.350
 6585POPC   C1B43111  21.236  42.168   6.450
 6585POPC   C2B43112  21.204  42.159   6.750
 6585POPC   C3B43113  21.201  42.119   7.050
 6585POPC   C4B43114  21.169  42.143   7.350
 6586POPC   NC343115   6.611  30.714   5.550
 6586POPC   PO443116   6.630  30.717   5.850
 6586POPC   GL143117   6.613  30.685   6.150
 6586POPC   GL243118   6.539  30.656   6.150
 6586POPC   C1A43119   6.645  30.656   6.450
 6586POPC   D2A43120   6.614  30.654   6.750
 6586POPC   C3A43121   6.625  30.697   7.050
 6586POPC   C4A43122   6.638  30.742   7.350
 6586POPC   C1B43123   6.377  30.631   6.450
 6586POPC   C2B43124   6.385  30.565   6.750
 6586POPC   C3B43125   6.371  30.605   7.050
 6586POPC   C4B43126   6.393  30.632   7.350
 6587POPC   NC343127   7.442  17.529   5.550
 6587POPC   PO443128   7.435  17.512   5.850
 6587POPC   GL143129   7.398  17.554   6.150
 6587POPC   GL243130   7.542  17.526   6.150
 6587POPC   C1A43131   7.458  17.484   6.450
 6587POPC   D2A43132   7.383  17.555   6.750
 6587POPC   C3A43133   7.392  17.531   7.050
 6587POPC   C4A43134   7.414  17.459   7.350
 6587POPC   C1B43135   7.688  17.614   6.450
 6587POPC   C2B43136   7.669  17.604   6.750
 6587POPC   C3B43137   7.647  17.585   7.050
 6587POPC   C4B43138   7.656  17.645   7.350
 6588POPC   NC343139  17.555   2.805   5.550
 6588POPC   PO443140  17.555   2.766   5.850
 6588POPC   GL143141  17.557   2.766   6.150
 6588POPC   GL243142  17.412   2.813   6.150
 6588POPC   C1A43143  17.550   2.809   6.450
 6588POPC   D2A43144  17.549   2.739   6.750
 6588POPC   C3A43145  17.534   2.771   7.050
 6588POPC   C4A43146  17.478   2.760   7.350
 6588POPC   C1B43147  17.308   2.862   6.450
 6588POPC   C2B43148  17.316   2.881   6.750
 6588POPC   C3B43149  17.258   2.944   7.050
 6588POPC   C4B43150  17.268   2.880   7.350
 6589POPC   NC343151   5.825  33.066   5.550
 6589POPC   PO443152   5.907  33.061   5.850
 6589POPC   GL143153   5.832  33.047   6.150
 6589POPC   GL243154   5.994  32.915   6.150
 6589POPC   C1A43155   5.856  33.009   6.450
 6589POPC   D2A43156   5.853  33.068   6.750
 6589POPC   C3A43157   5.824  33.033   7.050
 6589POPC   C4A43158   5.881  33.021   7.350
 6589POPC   C1B43159   6.115  32.872   6.450
 6589POPC   C2B43160   6.076  32.921   6.750
 6589POPC   C3B43161   6.076  32.834   7.050
 6589POPC   C4B43162   6.030  32.870   7.350
 6590POPC   NC343163  16.703  20.562   5.550
 6590POPC   PO443164  16.762  20.651   5.850
 6590POPC   GL143165  16.700  20.583   6.150
 6590POPC   GL243166  16.736  20.489   6.150
 6590POPC   C1A43167  16.681  20.659   6.450
 6590POPC   D2A43168  16.691  20.577   6.750
 6590POPC   C3A43169  16.749  20.561   7.050
 6590POPC   C4A43170  16.694  20.569   7.350
 6590POPC   C1B43171  16.808  20.375   6.450
 6590POPC   C2B43172  16.762  20.335   6.750
 6590POPC   C3B43173  16.740  20.382   7.050
 6590POPC   C4B43174  16.765  20.347   7.350
 6591POPC   NC343175  36.859  36.932   5.550
 6591POPC   PO443176  36.884  36.876   5.850
 6591POPC   GL143177  36.931  36.868   6.150
 6591POPC   GL243178  36.956  36.762   6.150
 6591POPC   C1A43179  36.875  36.944   6.450
 6591POPC   D2A43180  36.927  36.945   6.750
 6591POPC   C3A43181  36.862  36.934   7.050
 6591POPC   C4A43182  36.873  36.952   7.350
 6591POPC   C1B43183  36.932  36.629   6.450
 6591POPC   C2B43184  37.002  36.643   6.750
 6591POPC   C3B43185  37.001  36.639   7.050
 6591POPC   C4B43186  37.018  36.636   7.350
 6592POPC   NC343187  39.279   2.747   5.550
 6592POPC   PO443188  39.255   2.801   5.850
 6592POPC   GL143189  39.205   2.759   6.150
 6592POPC   GL243190  39.184   2.665   6.150
 6592POPC   C1A43191  39.279   2.731   6.450
 6592POPC   D2A43192  39.259   2.726   6.750
 6592POPC   C3A43193  39.193   2.757   7.050
 6592POPC   C4A43194  39.207   2.756   7.350
 6592POPC   C1B43195  39.205   2.531   6.450
 6592POPC   C2B43196  39.178   2.503   6.750
 6592POPC   C3B43197  39.170   2.537   7.050
 6592POPC   C4B43198  39.182   2.506   7.350
 6593POPC   NC343199  10.483  42.342   5.550
 6593POPC   PO443200  10.572  42.329   5.850
 6593POPC   GL143201  10.501  42.365   6.150
 6593POPC   GL243202  10.400  42.304   6.150
 6593POPC   C1A43203  10.514  42.300   6.450
 6593POPC   D2A43204  10.497  42.341   6.750
 6593POPC   C3A43205  10.500  42.336   7.050
 6593POPC   C4A43206  10.572  42.309   7.350
 6593POPC   C1B43207  10.302  42.385   6.450
 6593POPC   C2B43208  10.300  42.319   6.750
 6593POPC   C3B43209  10.264  42.363   7.050
 6593POPC   C4B43210  10.254  42.341   7.350
 6594POPC   NC343211  34.587  32.234   5.550
 6594POPC   PO443212  34.583  32.281   5.850
 6594POPC   GL143213  34.607  32.222   6.150
 6594POPC   GL243214  34.554  32.077   6.150
 6594POPC   C1A43215  34.567  32.205   6.450
 6594POPC   D2A43216  34.619  32.209   6.750
 6594POPC   C3A43217  34.563  32.204   7.050
 6594POPC   C4A43218  34.607  32.278   7.350
 6594POPC   C1B43219  34.564  31.982   6.450
 6594POPC   C2B43220  34.548  32.026   6.750
 6594POPC   C3B43221  34.544  31.981   7.050
 6594POPC   C4B43222  34.593  32.020   7.350
 6595POPC   NC343223   3.588  32.248   5.550
 6595POPC   PO443224   3.584  32.239   5.850
 6595POPC   GL143225   3.563  32.277   6.150
 6595POPC   GL243226   3.636  32.152   6.150
 6595POPC   C1A43227   3.557  32.252   6.450
 6595POPC   D2A43228   3.552  32.230   6.750
 6595POPC   C3A43229   3.543  32.276   7.050
 6595POPC   C4A43230   3.508  32.230   7.350
 6595POPC   C1B43231   3.752  32.130   6.450
 6595POPC   C2B43232   3.706  32.088   6.750
 6595POPC   C3B43233   3.775  32.092   7.050
 6595POPC   C4B43234   3.766  32.106   7.350
 6596POPC   NC343235   4.317  41.602   5.550
 6596POPC   PO443236   4.357  41.581   5.850
 6596POPC   GL143237   4.365  41.512   6.150
 6596POPC   GL243238   4.185  41.488   6.150
 6596POPC   C1A43239   4.270  41.603   6.450
 6596POPC   D2A43240   4.284  41.562   6.750
 6596POPC   C3A43241   4.283  41.545   7.050
 6596POPC   C4A43242   4.284  41.544   7.350
 6596POPC   C1B43243   4.101  41.382   6.450
 6596POPC   C2B43244   4.115  41.366   6.750
 6596POPC   C3B43245   4.105  41.435   7.050
 6596POPC   C4B43246   4.078  41.395   7.350
 6597POPC   NC343247   3.577   5.110   5.550
 6597POPC   PO443248   3.535   5.054   5.850
 6597POPC   GL143249   3.506   5.078   6.150
 6597POPC   GL243250   3.451   5.065   6.150
 6597POPC   C1A43251   3.568   5.112   6.450
 6597POPC   D2A43252   3.577   5.060   6.750
 6597POPC   C3A43253   3.558   5.101   7.050
 6597POPC   C4A43254   3.534   5.045   7.350
 6597POPC   C1B43255   3.288   5.175   6.450
 6597POPC   C2B43256   3.287   5.105   6.750
 6597POPC   C3B43257   3.286   5.177   7.050
 6597POPC   C4B43258   3.259   5.180   7.350
 6598POPC   NC343259  10.570  29.158   5.550
 6598POPC   PO443260  10.519  29.146   5.850
 6598POPC   GL143261  10.560  29.101   6.150
 6598POPC   GL243262  10.475  29.039   6.150
 6598POPC   C1A43263  10.488  29.149   6.450
 6598POPC   D2A43264  10.474  29.097   6.750
 6598POPC   C3A43265  10.492  29.124   7.050
 6598POPC   C4A43266  10.557  29.116   7.350
 6598POPC   C1B43267  10.457  28.933   6.450
 6598POPC   C2B43268  10.456  28.900   6.750
 6598POPC   C3B43269  10.490  28.908   7.050
 6598POPC   C4B43270  10.425  28.892   7.350
 6599POPC   NC343271  36.912   1.197   5.550
 6599POPC   PO443272  36.903   1.179   5.850
 6599POPC   GL143273  36.870   1.225   6.150
 6599POPC   GL243274  36.797   1.275   6.150
 6599POPC   C1A43275  36.880   1.222   6.450
 6599POPC   D2A43276  36.912   1.215   6.750
 6599POPC   C3A43277  36.907   1.218   7.050
 6599POPC   C4A43278  36.914   1.241   7.350
 6599POPC   C1B43279  36.760   1.396   6.450
 6599POPC   C2B43280  36.693   1.420   6.750
 6599POPC   C3B43281  36.742   1.426   7.050
 6599POPC   C4B43282  36.715   1.372   7.350
 6600POPC   NC343283   3.549  33.833   5.550
 6600POPC   PO443284   3.534  33.819   5.850
 6600POPC   GL143285   3.567  33.779   6.150
 6600POPC   GL243286   3.411  33.863   6.150
 6600POPC   C1A43287   3.546  33.826   6.450
 6600POPC   D2A43288   3.568  33.754   6.750
 6600POPC   C3A43289   3.540  33.827   7.050
 6600POPC   C4A43290   3.533  33.776   7.350
 6600POPC   C1B43291   3.336  33.856   6.450
 6600POPC   C2B43292   3.266  33.852   6.750
 6600POPC   C3B43293   3.283  33.859   7.050
 6600POPC   C4B43294   3.254  33.817   7.350
 6601POPC   NC343295  32.243   3.512   5.550
 6601POPC   PO443296  32.289   3.514   5.850
 6601POPC   GL143297  32.231   3.515   6.150
 6601POPC   GL243298  32.305   3.592   6.150
 6601POPC   C1A43299  32.247   3.556   6.450
 6601POPC   D2A43300  32.212   3.590   6.750
 6601POPC   C3A43301  32.198   3.494   7.050
 6601POPC   C4A43302  32.253   3.564   7.350
 6601POPC   C1B43303  32.406   3.668   6.450
 6601POPC   C2B43304  32.403   3.692   6.750
 6601POPC   C3B43305  32.481   3.652   7.050
 6601POPC   C4B43306  32.489   3.673   7.350
 6602POPC   NC343307  44.685   0.445   5.550
 6602POPC   PO443308  44.649   0.464   5.850
 6602POPC   GL143309  44.645   0.465   6.150
 6602POPC   GL243310  44.611   0.356   6.150
 6602POPC   C1A43311  44.696   0.437   6.450
 6602POPC   D2A43312  44.663   0.443   6.750
 6602POPC   C3A43313  44.656   0.420   7.050
 6602POPC   C4A43314  44.701   0.449   7.350
 6602POPC   C1B43315  44.511   0.274   6.450
 6602POPC   C2B43316  44.497   0.266   6.750
 6602POPC   C3B43317  44.550   0.192   7.050
 6602POPC   C4B43318  44.552   0.247   7.350
 6603POPC   NC343319  33.808  36.922   5.550
 6603POPC   PO443320  33.762  36.904   5.850
 6603POPC   GL143321  33.790  36.943   6.150
 6603POPC   GL243322  33.724  36.884   6.150
 6603POPC   C1A43323  33.808  36.938   6.450
 6603POPC   D2A43324  33.755  36.929   6.750
 6603POPC   C3A43325  33.762  36.885   7.050
 6603POPC   C4A43326  33.849  36.900   7.350
 6603POPC   C1B43327  33.587  36.970   6.450
 6603POPC   C2B43328  33.585  36.931   6.750
 6603POPC   C3B43329  33.564  36.911   7.050
 6603POPC   C4B43330  33.576  36.906   7.350
 6604POPC   NC343331  40.795   4.313   5.550
 6604POPC   PO443332  40.828   4.342   5.850
 6604POPC   GL143333  40.824   4.348   6.150
 6604POPC   GL243334  40.845   4.192   6.150
 6604POPC   C1A43335  40.779   4.302   6.450
 6604POPC   D2A43336  40.781   4.283   6.750
 6604POPC   C3A43337  40.766   4.278   7.050
 6604POPC   C4A43338  40.737   4.283   7.350
 6604POPC   C1B43339  40.912   4.064   6.450
 6604POPC   C2B43340  40.876   4.118   6.750
 6604POPC   C3B43341  40.832   4.092   7.050
 6604POPC   C4B43342  40.858   4.125   7.350
 6605POPC   NC343343  25.288   4.352   5.550
 6605POPC   PO443344  25.228   4.356   5.850
 6605POPC   GL143345  25.314   4.278   6.150
 6605POPC   GL243346  25.220   4.246   6.150
 6605POPC   C1A43347  25.295   4.310   6.450
 6605POPC   D2A43348  25.237   4.273   6.750
 6605POPC   C3A43349  25.278   4.356   7.050
 6605POPC   C4A43350  25.281   4.350   7.350
 6605POPC   C1B43351  25.074   4.124   6.450
 6605POPC   C2B43352  25.066   4.172   6.750
 6605POPC   C3B43353  25.134   4.078   7.050
 6605POPC   C4B43354  25.140   4.077   7.350
 6606POPC   NC343355  43.088  25.294   5.550
 6606POPC   PO443356  43.067  25.305   5.850
 6606POPC   GL143357  43.094  25.293   6.150
 6606POPC   GL243358  43.155  25.203   6.150
 6606POPC   C1A43359  43.103  25.273   6.450
 6606POPC   D2A43360  43.091  25.297   6.750
 6606POPC   C3A43361  43.152  25.280   7.050
 6606POPC   C4A43362  43.127  25.236   7.350
 6606POPC   C1B43363  43.218  25.035   6.450
 6606POPC   C2B43364  43.277  25.026   6.750
 6606POPC   C3B43365  43.263  25.064   7.050
 6606POPC   C4B43366  43.278  25.064   7.350
 6607POPC   NC343367  19.835  14.384   5.550
 6607POPC   PO443368  19.819  14.422   5.850
 6607POPC   GL143369  19.796  14.393   6.150
 6607POPC   GL243370  19.772  14.471   6.150
 6607POPC   C1A43371  19.811  14.367   6.450
 6607POPC   D2A43372  19.839  14.420   6.750
 6607POPC   C3A43373  19.869  14.410   7.050
 6607POPC   C4A43374  19.841  14.422   7.350
 6607POPC   C1B43375  19.655  14.495   6.450
 6607POPC   C2B43376  19.654  14.492   6.750
 6607POPC   C3B43377  19.607  14.554   7.050
 6607POPC   C4B43378  19.599  14.522   7.350
 6608POPC   NC343379  33.843  26.050   5.550
 6608POPC   PO443380  33.781  26.081   5.850
 6608POPC   GL143381  33.833  26.075   6.150
 6608POPC   GL243382  33.733  26.172   6.150
 6608POPC   C1A43383  33.792  26.082   6.450
 6608POPC   D2A43384  33.819  26.046   6.750
 6608POPC   C3A43385  33.762  26.060   7.050
 6608POPC   C4A43386  33.763  26.077   7.350
 6608POPC   C1B43387  33.610  26.211   6.450
 6608POPC   C2B43388  33.658  26.274   6.750
 6608POPC   C3B43389  33.656  26.279   7.050
 6608POPC   C4B43390  33.602  26.211   7.350
 6609POPC   NC343391  39.215  29.952   5.550
 6609POPC   PO443392  39.236  29.887   5.850
 6609POPC   GL143393  39.231  29.962   6.150
 6609POPC   GL243394  39.236  30.093   6.150
 6609POPC   C1A43395  39.207  29.968   6.450
 6609POPC   D2A43396  39.260  29.878   6.750
 6609POPC   C3A43397  39.267  29.912   7.050
 6609POPC   C4A43398  39.204  29.929   7.350
 6609POPC   C1B43399  39.237  30.176   6.450
 6609POPC   C2B43400  39.267  30.162   6.750
 6609POPC   C3B43401  39.289  30.130   7.050
 6609POPC   C4B43402  39.248  30.168   7.350
 6610POPC   NC343403  29.169  11.285   5.550
 6610POPC   PO443404  29.191  11.253   5.850
 6610POPC   GL143405  29.138  11.301   6.150
 6610POPC   GL243406  29.184  11.402   6.150
 6610POPC   C1A43407  29.163  11.269   6.450
 6610POPC   D2A43408  29.160  11.298   6.750
 6610POPC   C3A43409  29.146  11.327   7.050
 6610POPC   C4A43410  29.118  11.286   7.350
 6610POPC   C1B43411  29.143  11.594   6.450
 6610POPC   C2B43412  29.135  11.522   6.750
 6610POPC   C3B43413  29.178  11.594   7.050
 6610POPC   C4B43414  29.148  11.558   7.350
 6611POPC   NC343415  40.781   6.624   5.550
 6611POPC   PO443416  40.777   6.628   5.850
 6611POPC   GL143417  40.750   6.620   6.150
 6611POPC   GL243418  40.671   6.723   6.150
 6611POPC   C1A43419  40.741   6.648   6.450
 6611POPC   D2A43420  40.816   6.655   6.750
 6611POPC   C3A43421  40.735   6.638   7.050
 6611POPC   C4A43422  40.810   6.645   7.350
 6611POPC   C1B43423  40.508   6.755   6.450
 6611POPC   C2B43424  40.540   6.701   6.750
 6611POPC   C3B43425  40.575   6.711   7.050
 6611POPC   C4B43426  40.500   6.720   7.350
 6612POPC   NC343427  39.986  26.052   5.550
 6612POPC   PO443428  40.044  26.072   5.850
 6612POPC   GL143429  40.010  26.006   6.150
 6612POPC   GL243430  40.060  25.985   6.150
 6612POPC   C1A43431  40.054  26.047   6.450
 6612POPC   D2A43432  40.016  26.038   6.750
 6612POPC   C3A43433  40.028  26.074   7.050
 6612POPC   C4A43434  39.974  26.040   7.350
 6612POPC   C1B43435  40.190  25.845   6.450
 6612POPC   C2B43436  40.176  25.899   6.750
 6612POPC   C3B43437  40.165  25.847   7.050
 6612POPC   C4B43438  40.161  25.908   7.350
 6613POPC   NC343439  26.826   3.542   5.550
 6613POPC   PO443440  26.780   3.570   5.850
 6613POPC   GL143441  26.821   3.535   6.150
 6613POPC   GL243442  26.724   3.629   6.150
 6613POPC   C1A43443  26.851   3.542   6.450
 6613POPC   D2A43444  26.830   3.540   6.750
 6613POPC   C3A43445  26.799   3.579   7.050
 6613POPC   C4A43446  26.860   3.497   7.350
 6613POPC   C1B43447  26.599   3.739   6.450
 6613POPC   C2B43448  26.650   3.733   6.750
 6613POPC   C3B43449  26.589   3.653   7.050
 6613POPC   C4B43450  26.600   3.726   7.350
 6614POPC   NC343451   2.028  44.703   5.550
 6614POPC   PO443452   2.008  44.638   5.850
 6614POPC   GL143453   2.018  44.644   6.150
 6614POPC   GL243454   2.072  44.542   6.150
 6614POPC   C1A43455   2.010  44.652   6.450
 6614POPC   D2A43456   1.961  44.661   6.750
 6614POPC   C3A43457   2.009  44.636   7.050
 6614POPC   C4A43458   1.949  44.710   7.350
 6614POPC   C1B43459   2.176  44.501   6.450
 6614POPC   C2B43460   2.195  44.485   6.750
 6614POPC   C3B43461   2.160  44.499   7.050
 6614POPC   C4B43462   2.125  44.486   7.350
 6615POPC   NC343463  14.446   8.929   5.550
 6615POPC   PO443464  14.399   8.950   5.850
 6615POPC   GL143465  14.450   8.943   6.150
 6615POPC   GL243466  14.524   8.914   6.150
 6615POPC   C1A43467  14.433   8.924   6.450
 6615POPC   D2A43468  14.358   8.987   6.750
 6615POPC   C3A43469  14.355   8.980   7.050
 6615POPC   C4A43470  14.365   8.944   7.350
 6615POPC   C1B43471  14.521   8.748   6.450
 6615POPC   C2B43472  14.577   8.743   6.750
 6615POPC   C3B43473  14.563   8.766   7.050
 6615POPC   C4B43474  14.597   8.807   7.350
 6616POPC   NC343475  18.290  33.792   5.550
 6616POPC   PO443476  18.260  33.784   5.850
 6616POPC   GL143477  18.309  33.835   6.150
 6616POPC   GL243478  18.391  33.756   6.150
 6616POPC   C1A43479  18.261  33.797   6.450
 6616POPC   D2A43480  18.321  33.818   6.750
 6616POPC   C3A43481  18.246  33.782   7.050
 6616POPC   C4A43482  18.309  33.759   7.350
 6616POPC   C1B43483  18.509  33.655   6.450
 6616POPC   C2B43484  18.483  33.721   6.750
 6616POPC   C3B43485  18.493  33.657   7.050
 6616POPC   C4B43486  18.453  33.698   7.350
 6617POPC   NC343487  19.854  37.675   5.550
 6617POPC   PO443488  19.882  37.675   5.850
 6617POPC   GL143489  19.803  37.669   6.150
 6617POPC   GL243490  19.852  37.586   6.150
 6617POPC   C1A43491  19.811  37.688   6.450
 6617POPC   D2A43492  19.788  37.646   6.750
 6617POPC   C3A43493  19.832  37.643   7.050
 6617POPC   C4A43494  19.844  37.722   7.350
 6617POPC   C1B43495  19.751  37.387   6.450
 6617POPC   C2B43496  19.735  37.435   6.750
 6617POPC   C3B43497  19.742  37.470   7.050
 6617POPC   C4B43498  19.746  37.410   7.350
 6618POPC   NC343499  39.276  27.623   5.550
 6618POPC   PO443500  39.222  27.599   5.850
 6618POPC   GL143501  39.181  27.633   6.150
 6618POPC   GL243502  39.386  27.597   6.150
 6618POPC   C1A43503  39.203  27.631   6.450
 6618POPC   D2A43504  39.187  27.577   6.750
 6618POPC   C3A43505  39.254  27.557   7.050
 6618POPC   C4A43506  39.280  27.612   7.350
 6618POPC   C1B43507  39.499  27.562   6.450
 6618POPC   C2B43508  39.439  27.582   6.750
 6618POPC   C3B43509  39.479  27.654   7.050
 6618POPC   C4B43510  39.446  27.637   7.350
 6619POPC   NC343511   2.732  13.633   5.550
 6619POPC   PO443512   2.791  13.632   5.850
 6619POPC   GL143513   2.721  13.647   6.150
 6619POPC   GL243514   2.813  13.743   6.150
 6619POPC   C1A43515   2.747  13.614   6.450
 6619POPC   D2A43516   2.732  13.582   6.750
 6619POPC   C3A43517   2.814  13.592   7.050
 6619POPC   C4A43518   2.813  13.653   7.350
 6619POPC   C1B43519   2.933  13.834   6.450
 6619POPC   C2B43520   2.980  13.794   6.750
 6619POPC   C3B43521   2.930  13.843   7.050
 6619POPC   C4B43522   2.914  13.834   7.350
 6620POPC   NC343523  37.664  13.614   5.550
 6620POPC   PO443524  37.679  13.652   5.850
 6620POPC   GL143525  37.675  13.631   6.150
 6620POPC   GL243526  37.622  13.492   6.150
 6620POPC   C1A43527  37.672  13.646   6.450
 6620POPC   D2A43528  37.692  13.585   6.750
 6620POPC   C3A43529  37.652  13.658   7.050
 6620POPC   C4A43530  37.726  13.595   7.350
 6620POPC   C1B43531  37.527  13.419   6.450
 6620POPC   C2B43532  37.590  13.370   6.750
 6620POPC   C3B43533  37.521  13.421   7.050
 6620POPC   C4B43534  37.560  13.364   7.350
 6621POPC   NC343535  19.787  30.666   5.550
 6621POPC   PO443536  19.815  30.736   5.850
 6621POPC   GL143537  19.785  30.701   6.150
 6621POPC   GL243538  19.935  30.617   6.150
 6621POPC   C1A43539  19.812  30.724   6.450
 6621POPC   D2A43540  19.839  30.714   6.750
 6621POPC   C3A43541  19.863  30.744   7.050
 6621POPC   C4A43542  19.812  30.665   7.350
 6621POPC   C1B43543  19.916  30.521   6.450
 6621POPC   C2B43544  19.931  30.449   6.750
 6621POPC   C3B43545  19.975  30.441   7.050
 6621POPC   C4B43546  19.911  30.512   7.350
 6622POPC   NC343547  22.933   8.948   5.550
 6622POPC   PO443548  22.950   9.014   5.850
 6622POPC   GL143549  22.917   8.982   6.150
 6622POPC   GL243550  23.040   8.968   6.150
 6622POPC   C1A43551  22.908   8.928   6.450
 6622POPC   D2A43552  22.918   8.962   6.750
 6622POPC   C3A43553  22.955   8.938   7.050
 6622POPC   C4A43554  22.975   8.969   7.350
 6622POPC   C1B43555  23.202   9.046   6.450
 6622POPC   C2B43556  23.217   9.083   6.750
 6622POPC   C3B43557  23.204   9.096   7.050
 6622POPC   C4B43558  23.205   9.100   7.350
 6623POPC   NC343559  10.552  41.513   5.550
 6623POPC   PO443560  10.563  41.604   5.850
 6623POPC   GL143561  10.511  41.599   6.150
 6623POPC   GL243562  10.414  41.526   6.150
 6623POPC   C1A43563  10.524  41.603   6.450
 6623POPC   D2A43564  10.517  41.520   6.750
 6623POPC   C3A43565  10.523  41.525   7.050
 6623POPC   C4A43566  10.492  41.524   7.350
 6623POPC   C1B43567  10.297  41.562   6.450
 6623POPC   C2B43568  10.273  41.535   6.750
 6623POPC   C3B43569  10.287  41.527   7.050
 6623POPC   C4B43570  10.254  41.510   7.350
 6624POPC   NC343571  30.660  21.429   5.550
 6624POPC   PO443572  30.709  21.343   5.850
 6624POPC   GL143573  30.665  21.415   6.150
 6624POPC   GL243574  30.767  21.479   6.150
 6624POPC   C1A43575  30.685  21.339   6.450
 6624POPC   D2A43576  30.653  21.345   6.750
 6624POPC   C3A43577  30.725  21.420   7.050
 6624POPC   C4A43578  30.677  21.339   7.350
 6624POPC   C1B43579  30.930  21.550   6.450
 6624POPC   C2B43580  30.906  21.522   6.750
 6624POPC   C3B43581  30.877  21.528   7.050
 6624POPC   C4B43582  30.914  21.498   7.350
 6625POPC   NC343583   0.404  39.225   5.550
 6625POPC   PO443584   0.419  39.246   5.850
 6625POPC   GL143585   0.437  39.274   6.150
 6625POPC   GL243586   0.606  39.202   6.150
 6625POPC   C1A43587   0.409  39.207   6.450
 6625POPC   D2A43588   0.439  39.232   6.750
 6625POPC   C3A43589   0.468  39.183   7.050
 6625POPC   C4A43590   0.464  39.202   7.350
 6625POPC   C1B43591   0.713  39.266   6.450
 6625POPC   C2B43592   0.642  39.277   6.750
 6625POPC   C3B43593   0.721  39.234   7.050
 6625POPC   C4B43594   0.691  39.234   7.350
 6626POPC   NC343595  19.841  42.350   5.550
 6626POPC   PO443596  19.822  42.301   5.850
 6626POPC   GL143597  19.858  42.340   6.150
 6626POPC   GL243598  19.763  42.402   6.150
 6626POPC   C1A43599  19.815  42.373   6.450
 6626POPC   D2A43600  19.843  42.361   6.750
 6626POPC   C3A43601  19.843  42.336   7.050
 6626POPC   C4A43602  19.818  42.322   7.350
 6626POPC   C1B43603  19.635  42.491   6.450
 6626POPC   C2B43604  19.666  42.478   6.750
 6626POPC   C3B43605  19.622  42.449   7.050
 6626POPC   C4B43606  19.650  42.480   7.350
 6627POPC   NC343607  12.810  15.921   5.550
 6627POPC   PO443608  12.859  15.925   5.850
 6627POPC   GL143609  12.899  15.928   6.150
 6627POPC   GL243610  12.978  15.907   6.150
 6627POPC   C1A43611  12.808  15.971   6.450
 6627POPC   D2A43612  12.874  15.951   6.750
 6627POPC   C3A43613  12.809  15.992   7.050
 6627POPC   C4A43614  12.828  15.913   7.350
 6627POPC   C1B43615  13.144  15.987   6.450
 6627POPC   C2B43616  13.141  15.971   6.750
 6627POPC   C3B43617  13.099  15.959   7.050
 6627POPC   C4B43618  13.090  15.918   7.350
 6628POPC   NC343619   2.029   2.794   5.550
 6628POPC   PO443620   2.007   2.718   5.850
 6628POPC   GL143621   1.957   2.796   6.150
 6628POPC   GL243622   2.005   2.874   6.150
 6628POPC   C1A43623   2.011   2.735   6.450
 6628POPC   D2A43624   2.028   2.787   6.750
 6628POPC   C3A43625   2.037   2.788   7.050
 6628POPC   C4A43626   1.948   2.750   7.350
 6628POPC   C1B43627   2.101   2.970   6.450
 6628POPC   C2B43628   2.056   2.976   6.750
 6628POPC   C3B43629   2.124   3.006   7.050
 6628POPC   C4B43630   2.035   3.045   7.350
 6629POPC   NC343631  33.008  22.929   5.550
 6629POPC   PO443632  33.050  22.903   5.850
 6629POPC   GL143633  32.993  22.895   6.150
 6629POPC   GL243634  33.081  22.821   6.150
 6629POPC   C1A43635  32.976  22.987   6.450
 6629POPC   D2A43636  33.009  22.925   6.750
 6629POPC   C3A43637  32.996  22.926   7.050
 6629POPC   C4A43638  33.058  22.956   7.350
 6629POPC   C1B43639  33.093  22.731   6.450
 6629POPC   C2B43640  33.100  22.682   6.750
 6629POPC   C3B43641  33.120  22.713   7.050
 6629POPC   C4B43642  33.116  22.720   7.350
 6630POPC   NC343643  36.118   1.164   5.550
 6630POPC   PO443644  36.109   1.218   5.850
 6630POPC   GL143645  36.153   1.187   6.150
 6630POPC   GL243646  36.107   1.342   6.150
 6630POPC   C1A43647  36.093   1.228   6.450
 6630POPC   D2A43648  36.139   1.187   6.750
 6630POPC   C3A43649  36.143   1.176   7.050
 6630POPC   C4A43650  36.142   1.260   7.350
 6630POPC   C1B43651  36.085   1.404   6.450
 6630POPC   C2B43652  36.062   1.437   6.750
 6630POPC   C3B43653  36.080   1.413   7.050
 6630POPC   C4B43654  36.103   1.405   7.350
 6631POPC   NC343655  19.795  26.791   5.550
 6631POPC   PO443656  19.793  26.783   5.850
 6631POPC   GL143657  19.821  26.826   6.150
 6631POPC   GL243658  19.992  26.837   6.150
 6631POPC   C1A43659  19.815  26.836   6.450
 6631POPC   D2A43660  19.875  26.833   6.750
 6631POPC   C3A43661  19.859  26.819   7.050
 6631POPC   C4A43662  19.851  26.774   7.350
 6631POPC   C1B43663  20.114  26.781   6.450
 6631POPC   C2B43664  20.103  26.789   6.750
 6631POPC   C3B43665  20.090  26.782   7.050
 6631POPC   C4B43666  20.084  26.836   7.350
 6632POPC   NC343667  39.238  13.599   5.550
 6632POPC   PO443668  39.237  13.658   5.850
 6632POPC   GL143669  39.250  13.650   6.150
 6632POPC   GL243670  39.209  13.727   6.150
 6632POPC   C1A43671  39.276  13.627   6.450
 6632POPC   D2A43672  39.237  13.580   6.750
 6632POPC   C3A43673  39.195  13.636   7.050
 6632POPC   C4A43674  39.249  13.669   7.350
 6632POPC   C1B43675  39.197  13.890   6.450
 6632POPC   C2B43676  39.207  13.897   6.750
 6632POPC   C3B43677  39.228  13.873   7.050
 6632POPC   C4B43678  39.245  13.875   7.350
 6633POPC   NC343679  20.579  22.915   5.550
 6633POPC   PO443680  20.621  22.912   5.850
 6633POPC   GL143681  20.620  22.942   6.150
 6633POPC   GL243682  20.739  22.936   6.150
 6633POPC   C1A43683  20.640  22.923   6.450
 6633POPC   D2A43684  20.642  22.943   6.750
 6633POPC   C3A43685  20.591  22.959   7.050
 6633POPC   C4A43686  20.650  22.978   7.350
 6633POPC   C1B43687  20.841  22.881   6.450
 6633POPC   C2B43688  20.866  22.856   6.750
 6633POPC   C3B43689  20.874  22.884   7.050
 6633POPC   C4B43690  20.869  22.857   7.350
 6634POPC   NC343691  26.842  16.689   5.550
 6634POPC   PO443692  26.816  16.717   5.850
 6634POPC   GL143693  26.837  16.699   6.150
 6634POPC   GL243694  26.840  16.823   6.150
 6634POPC   C1A43695  26.776  16.769   6.450
 6634POPC   D2A43696  26.858  16.713   6.750
 6634POPC   C3A43697  26.825  16.719   7.050
 6634POPC   C4A43698  26.787  16.774   7.350
 6634POPC   C1B43699  26.915  16.987   6.450
 6634POPC   C2B43700  26.866  16.956   6.750
 6634POPC   C3B43701  26.923  16.930   7.050
 6634POPC   C4B43702  26.924  16.936   7.350
 6635POPC   NC343703  27.610  20.589   5.550
 6635POPC   PO443704  27.618  20.578   5.850
 6635POPC   GL143705  27.566  20.634   6.150
 6635POPC   GL243706  27.447  20.612   6.150
 6635POPC   C1A43707  27.603  20.599   6.450
 6635POPC   D2A43708  27.544  20.598   6.750
 6635POPC   C3A43709  27.594  20.615   7.050
 6635POPC   C4A43710  27.588  20.613   7.350
 6635POPC   C1B43711  27.377  20.635   6.450
 6635POPC   C2B43712  27.347  20.614   6.750
 6635POPC   C3B43713  27.358  20.600   7.050
 6635POPC   C4B43714  27.317  20.546   7.350
 6636POPC   NC343715  38.491   6.664   5.550
 6636POPC   PO443716  38.417   6.632   5.850
 6636POPC   GL143717  38.466   6.681   6.150
 6636POPC   GL243718  38.353   6.758   6.150
 6636POPC   C1A43719  38.414   6.653   6.450
 6636POPC   D2A43720  38.443   6.623   6.750
 6636POPC   C3A43721  38.486   6.672   7.050
 6636POPC   C4A43722  38.441   6.649   7.350
 6636POPC   C1B43723  38.202   6.831   6.450
 6636POPC   C2B43724  38.293   6.828   6.750
 6636POPC   C3B43725  38.216   6.778   7.050
 6636POPC   C4B43726  38.197   6.774   7.350
 6637POPC   NC343727  25.310   5.093   5.550
 6637POPC   PO443728  25.272   5.137   5.850
 6637POPC   GL143729  25.255   5.070   6.150
 6637POPC   GL243730  25.391   5.050   6.150
 6637POPC   C1A43731  25.283   5.048   6.450
 6637POPC   D2A43732  25.267   5.139   6.750
 6637POPC   C3A43733  25.218   5.045   7.050
 6637POPC   C4A43734  25.250   5.072   7.350
 6637POPC   C1B43735  25.525   5.003   6.450
 6637POPC   C2B43736  25.444   5.017   6.750
 6637POPC   C3B43737  25.519   4.973   7.050
 6637POPC   C4B43738  25.508   4.967   7.350
 6638POPC   NC343739  38.474   8.987   5.550
 6638POPC   PO443740  38.450   8.972   5.850
 6638POPC   GL143741  38.446   8.983   6.150
 6638POPC   GL243742  38.469   9.127   6.150
 6638POPC   C1A43743  38.485   8.938   6.450
 6638POPC   D2A43744  38.468   9.012   6.750
 6638POPC   C3A43745  38.409   8.931   7.050
 6638POPC   C4A43746  38.429   9.019   7.350
 6638POPC   C1B43747  38.548   9.216   6.450
 6638POPC   C2B43748  38.581   9.200   6.750
 6638POPC   C3B43749  38.563   9.214   7.050
 6638POPC   C4B43750  38.560   9.209   7.350
 6639POPC   NC343751  33.047   5.858   5.550
 6639POPC   PO443752  33.024   5.840   5.850
 6639POPC   GL143753  33.038   5.900   6.150
 6639POPC   GL243754  33.157   5.839   6.150
 6639POPC   C1A43755  33.045   5.912   6.450
 6639POPC   D2A43756  32.987   5.887   6.750
 6639POPC   C3A43757  32.976   5.875   7.050
 6639POPC   C4A43758  33.013   5.833   7.350
 6639POPC   C1B43759  33.257   5.692   6.450
 6639POPC   C2B43760  33.275   5.716   6.750
 6639POPC   C3B43761  33.269   5.675   7.050
 6639POPC   C4B43762  33.207   5.767   7.350
 6640POPC   NC343763  27.638  32.199   5.550
 6640POPC   PO443764  27.608  32.276   5.850
 6640POPC   GL143765  27.594  32.265   6.150
 6640POPC   GL243766  27.676  32.285   6.150
 6640POPC   C1A43767  27.576  32.240   6.450
 6640POPC   D2A43768  27.620  32.259   6.750
 6640POPC   C3A43769  27.589  32.229   7.050
 6640POPC   C4A43770  27.599  32.286   7.350
 6640POPC   C1B43771  27.808  32.263   6.450
 6640POPC   C2B43772  27.822  32.252   6.750
 6640POPC   C3B43773  27.820  32.250   7.050
 6640POPC   C4B43774  27.840  32.270   7.350
 6641POPC   NC343775  29.156   9.724   5.550
 6641POPC   PO443776  29.132   9.721   5.850
 6641POPC   GL143777  29.103   9.777   6.150
 6641POPC   GL243778  29.157   9.916   6.150
 6641POPC   C1A43779  29.150   9.729   6.450
 6641POPC   D2A43780  29.175   9.737   6.750
 6641POPC   C3A43781  29.123   9.784   7.050
 6641POPC   C4A43782  29.185   9.704   7.350
 6641POPC   C1B43783  29.200   9.978   6.450
 6641POPC   C2B43784  29.193   9.994   6.750
 6641POPC   C3B43785  29.167   9.989   7.050
 6641POPC   C4B43786  29.204   9.993   7.350
 6642POPC   NC343787  14.402  18.306   5.550
 6642POPC   PO443788  14.405  18.306   5.850
 6642POPC   GL143789  14.450  18.258   6.150
 6642POPC   GL243790  14.348  18.143   6.150
 6642POPC   C1A43791  14.398  18.299   6.450
 6642POPC   D2A43792  14.435  18.305   6.750
 6642POPC   C3A43793  14.401  18.256   7.050
 6642POPC   C4A43794  14.403  18.287   7.350
 6642POPC   C1B43795  14.258  18.085   6.450
 6642POPC   C2B43796  14.221  18.089   6.750
 6642POPC   C3B43797  14.287  18.053   7.050
 6642POPC   C4B43798  14.264  18.051   7.350
 6643POPC   NC343799  19.037  13.596   5.550
 6643POPC   PO443800  19.032  13.650   5.850
 6643POPC   GL143801  19.048  13.668   6.150
 6643POPC   GL243802  19.200  13.598   6.150
 6643POPC   C1A43803  19.046  13.633   6.450
 6643POPC   D2A43804  19.073  13.608   6.750
 6643POPC   C3A43805  19.060  13.617   7.050
 6643POPC   C4A43806  19.082  13.677   7.350
 6643POPC   C1B43807  19.243  13.484   6.450
 6643POPC   C2B43808  19.259  13.483   6.750
 6643POPC   C3B43809  19.296  13.496   7.050
 6643POPC   C4B43810  19.291  13.536   7.350
 6644POPC   NC343811  36.112   2.787   5.550
 6644POPC   PO443812  36.090   2.734   5.850
 6644POPC   GL143813  36.124   2.740   6.150
 6644POPC   GL243814  36.026   2.731   6.150
 6644POPC   C1A43815  36.120   2.812   6.450
 6644POPC   D2A43816  36.124   2.718   6.750
 6644POPC   C3A43817  36.126   2.784   7.050
 6644POPC   C4A43818  36.088   2.800   7.350
 6644POPC   C1B43819  35.914   2.577   6.450
 6644POPC   C2B43820  35.944   2.593   6.750
 6644POPC   C3B43821  35.963   2.571   7.050
 6644POPC   C4B43822  35.886   2.614   7.350
 6645POPC   NC343823  12.097   3.573   5.550
 6645POPC   PO443824  12.036   3.572   5.850
 6645POPC   GL143825  12.115   3.554   6.150
 6645POPC   GL243826  12.135   3.434   6.150
 6645POPC   C1A43827  12.028   3.504   6.450
 6645POPC   D2A43828  12.074   3.571   6.750
 6645POPC   C3A43829  12.099   3.588   7.050
 6645POPC   C4A43830  12.115   3.522   7.350
 6645POPC   C1B43831  12.259   3.331   6.450
 6645POPC   C2B43832  12.237   3.361   6.750
 6645POPC   C3B43833  12.282   3.379   7.050
 6645POPC   C4B43834  12.216   3.403   7.350
 6646POPC   NC343835  12.859  21.397   5.550
 6646POPC   PO443836  12.879  21.359   5.850
 6646POPC   GL143837  12.898  21.368   6.150
 6646POPC   GL243838  12.797  21.253   6.150
 6646POPC   C1A43839  12.860  21.381   6.450
 6646POPC   D2A43840  12.855  21.343   6.750
 6646POPC   C3A43841  12.879  21.423   7.050
 6646POPC   C4A43842  12.840  21.370   7.350
 6646POPC   C1B43843  12.749  21.149   6.450
 6646POPC   C2B43844  12.656  21.186   6.750
 6646POPC   C3B43845  12.714  21.210   7.050
 6646POPC   C4B43846  12.736  21.216   7.350
 6647POPC   NC343847  11.260   9.785   5.550
 6647POPC   PO443848  11.338   9.699   5.850
 6647POPC   GL143849  11.281   9.738   6.150
 6647POPC   GL243850  11.373   9.632   6.150
 6647POPC   C1A43851  11.302   9.781   6.450
 6647POPC   D2A43852  11.338   9.784   6.750
 6647POPC   C3A43853  11.265   9.769   7.050
 6647POPC   C4A43854  11.277   9.780   7.350
 6647POPC   C1B43855  11.424   9.512   6.450
 6647POPC   C2B43856  11.392   9.485   6.750
 6647POPC   C3B43857  11.366   9.500   7.050
 6647POPC   C4B43858  11.420   9.543   7.350
 6648POPC   NC343859  28.407   6.622   5.550
 6648POPC   PO443860  28.355   6.630   5.850
 6648POPC   GL143861  28.400   6.635   6.150
 6648POPC   GL243862  28.417   6.747   6.150
 6648POPC   C1A43863  28.394   6.610   6.450
 6648POPC   D2A43864  28.401   6.654   6.750
 6648POPC   C3A43865  28.401   6.605   7.050
 6648POPC   C4A43866  28.416   6.635   7.350
 6648POPC   C1B43867  28.596   6.834   6.450
 6648POPC   C2B43868  28.576   6.807   6.750
 6648POPC   C3B43869  28.578   6.765   7.050
 6648POPC   C4B43870  28.507   6.860   7.350
 6649POPC   NC343871  18.244  19.082   5.550
 6649POPC   PO443872  18.294  19.043   5.850
 6649POPC   GL143873  18.317  19.019   6.150
 6649POPC   GL243874  18.344  19.152   6.150
 6649POPC   C1A43875  18.311  19.060   6.450
 6649POPC   D2A43876  18.246  19.030   6.750
 6649POPC   C3A43877  18.244  19.079   7.050
 6649POPC   C4A43878  18.323  19.107   7.350
 6649POPC   C1B43879  18.514  19.227   6.450
 6649POPC   C2B43880  18.531  19.214   6.750
 6649POPC   C3B43881  18.539  19.206   7.050
 6649POPC   C4B43882  18.491  19.204   7.350
 6650POPC   NC343883   9.010  19.843   5.550
 6650POPC   PO443884   8.993  19.831   5.850
 6650POPC   GL143885   8.980  19.836   6.150
 6650POPC   GL243886   9.144  19.832   6.150
 6650POPC   C1A43887   8.983  19.838   6.450
 6650POPC   D2A43888   8.965  19.801   6.750
 6650POPC   C3A43889   9.010  19.847   7.050
 6650POPC   C4A43890   8.971  19.860   7.350
 6650POPC   C1B43891   9.219  19.740   6.450
 6650POPC   C2B43892   9.256  19.753   6.750
 6650POPC   C3B43893   9.191  19.749   7.050
 6650POPC   C4B43894   9.196  19.794   7.350
 6651POPC   NC343895  19.876   8.211   5.550
 6651POPC   PO443896  19.833   8.205   5.850
 6651POPC   GL143897  19.842   8.200   6.150
 6651POPC   GL243898  19.978   8.151   6.150
 6651POPC   C1A43899  19.787   8.153   6.450
 6651POPC   D2A43900  19.843   8.158   6.750
 6651POPC   C3A43901  19.866   8.152   7.050
 6651POPC   C4A43902  19.835   8.226   7.350
 6651POPC   C1B43903  20.055   8.062   6.450
 6651POPC   C2B43904  20.103   8.137   6.750
 6651POPC   C3B43905  20.097   8.105   7.050
 6651POPC   C4B43906  20.104   8.067   7.350
 6652POPC   NC343907   7.407  25.999   5.550
 6652POPC   PO443908   7.469  26.023   5.850
 6652POPC   GL143909   7.426  26.006   6.150
 6652POPC   GL243910   7.484  25.964   6.150
 6652POPC   C1A43911   7.460  26.048   6.450
 6652POPC   D2A43912   7.446  26.047   6.750
 6652POPC   C3A43913   7.372  26.075   7.050
 6652POPC   C4A43914   7.461  26.017   7.350
 6652POPC   C1B43915   7.597  25.894   6.450
 6652POPC   C2B43916   7.590  25.840   6.750
 6652POPC   C3B43917   7.659  25.898   7.050
 6652POPC   C4B43918   7.647  25.869   7.350
 6653POPC   NC343919  28.399  10.508   5.550
 6653POPC   PO443920  28.336  10.554   5.850
 6653POPC   GL143921  28.330  10.548   6.150
 6653POPC   GL243922  28.501  10.490   6.150
 6653POPC   C1A43923  28.347  10.539   6.450
 6653POPC   D2A43924  28.328  10.535   6.750
 6653POPC   C3A43925  28.329  10.560   7.050
 6653POPC   C4A43926  28.400  10.496   7.350
 6653POPC   C1B43927  28.588  10.501   6.450
 6653POPC   C2B43928  28.665  10.557   6.750
 6653POPC   C3B43929  28.622  10.530   7.050
 6653POPC   C4B43930  28.572  10.490   7.350
 6654POPC   NC343931  34.584  15.943   5.550
 6654POPC   PO443932  34.574  15.936   5.850
 6654POPC   GL143933  34.576  15.972   6.150
 6654POPC   GL243934  34.713  15.920   6.150
 6654POPC   C1A43935  34.556  15.946   6.450
 6654POPC   D2A43936  34.596  15.987   6.750
 6654POPC   C3A43937  34.609  15.920   7.050
 6654POPC   C4A43938  34.622  15.940   7.350
 6654POPC   C1B43939  34.763  15.789   6.450
 6654POPC   C2B43940  34.761  15.818   6.750
 6654POPC   C3B43941  34.776  15.834   7.050
 6654POPC   C4B43942  34.743  15.858   7.350
 6655POPC   NC343943  16.689   8.992   5.550
 6655POPC   PO443944  16.756   9.006   5.850
 6655POPC   GL143945  16.765   8.991   6.150
 6655POPC   GL243946  16.799   8.897   6.150
 6655POPC   C1A43947  16.738   8.978   6.450
 6655POPC   D2A43948  16.734   8.989   6.750
 6655POPC   C3A43949  16.752   8.995   7.050
 6655POPC   C4A43950  16.714   8.987   7.350
 6655POPC   C1B43951  16.809   8.745   6.450
 6655POPC   C2B43952  16.878   8.800   6.750
 6655POPC   C3B43953  16.861   8.787   7.050
 6655POPC   C4B43954  16.850   8.732   7.350
 6656POPC   NC343955  40.006  17.504   5.550
 6656POPC   PO443956  40.049  17.535   5.850
 6656POPC   GL143957  40.035  17.528   6.150
 6656POPC   GL243958  39.976  17.580   6.150
 6656POPC   C1A43959  40.054  17.473   6.450
 6656POPC   D2A43960  40.006  17.487   6.750
 6656POPC   C3A43961  39.969  17.554   7.050
 6656POPC   C4A43962  39.994  17.458   7.350
 6656POPC   C1B43963  39.890  17.731   6.450
 6656POPC   C2B43964  39.911  17.773   6.750
 6656POPC   C3B43965  39.978  17.719   7.050
 6656POPC   C4B43966  39.944  17.777   7.350
 6657POPC   NC343967  14.453   2.719   5.550
 6657POPC   PO443968  14.399   2.732   5.850
 6657POPC   GL143969  14.360   2.774   6.150
 6657POPC   GL243970  14.308   2.690   6.150
 6657POPC   C1A43971  14.395   2.764   6.450
 6657POPC   D2A43972  14.408   2.734   6.750
 6657POPC   C3A43973  14.369   2.784   7.050
 6657POPC   C4A43974  14.399   2.723   7.350
 6657POPC   C1B43975  14.272   2.557   6.450
 6657POPC   C2B43976  14.282   2.526   6.750
 6657POPC   C3B43977  14.313   2.565   7.050
 6657POPC   C4B43978  14.235   2.510   7.350
 6658POPC   NC343979   9.701  20.617   5.550
 6658POPC   PO443980   9.708  20.657   5.850
 6658POPC   GL143981   9.755  20.613   6.150
 6658POPC   GL243982   9.825  20.606   6.150
 6658POPC   C1A43983   9.789  20.657   6.450
 6658POPC   D2A43984   9.750  20.631   6.750
 6658POPC   C3A43985   9.735  20.648   7.050
 6658POPC   C4A43986   9.704  20.645   7.350
 6658POPC   C1B43987  10.044  20.572   6.450
 6658POPC   C2B43988   9.956  20.607   6.750
 6658POPC   C3B43989  10.042  20.624   7.050
 6658POPC   C4B43990  10.046  20.560   7.350
 6659POPC   NC343991  18.272  30.680   5.550
 6659POPC   PO443992  18.272  30.726   5.850
 6659POPC   GL143993  18.267  30.649   6.150
 6659POPC   GL243994  18.344  30.802   6.150
 6659POPC   C1A43995  18.321  30.671   6.450
 6659POPC   D2A43996  18.303  30.719   6.750
 6659POPC   C3A43997  18.237  30.656   7.050
 6659POPC   C4A43998  18.307  30.743   7.350
 6659POPC   C1B43999  18.451  30.812   6.450
 6659POPC   C2B44000  18.464  30.853   6.750
 6659POPC   C3B44001  18.488  30.797   7.050
 6659POPC   C4B44002  18.451  30.806   7.350
 6660POPC   NC344003   8.237  44.639   5.550
 6660POPC   PO444004   8.205  44.704   5.850
 6660POPC   GL144005   8.196  44.667   6.150
 6660POPC   GL244006   8.195  44.788   6.150
 6660POPC   C1A44007   8.194  44.660   6.450
 6660POPC   D2A44008   8.220  44.668   6.750
 6660POPC   C3A44009   8.198  44.651   7.050
 6660POPC   C4A44010   8.149  44.684   7.350
 6660POPC   C1B44011   8.228  44.912   6.450
 6660POPC   C2B44012   8.245  44.906   6.750
 6660POPC   C3B44013   8.213  44.889   7.050
 6660POPC   C4B44014   8.167  44.922   7.350
 6661POPC   NC344015  29.191  41.540   5.550
 6661POPC   PO444016  29.192  41.535   5.850
 6661POPC   GL144017  29.175  41.570   6.150
 6661POPC   GL244018  29.246  41.606   6.150
 6661POPC   C1A44019  29.137  41.585   6.450
 6661POPC   D2A44020  29.178  41.512   6.750
 6661POPC   C3A44021  29.189  41.515   7.050
 6661POPC   C4A44022  29.107  41.606   7.350
 6661POPC   C1B44023  29.345  41.730   6.450
 6661POPC   C2B44024  29.317  41.686   6.750
 6661POPC   C3B44025  29.339  41.741   7.050
 6661POPC   C4B44026  29.340  41.702   7.350
 6662POPC   NC344027   9.766   4.336   5.550
 6662POPC   PO444028   9.713   4.364   5.850
 6662POPC   GL144029   9.777   4.350   6.150
 6662POPC   GL244030   9.601   4.312   6.150
 6662POPC   C1A44031   9.798   4.309   6.450
 6662POPC   D2A44032   9.784   4.325   6.750
 6662POPC   C3A44033   9.784   4.272   7.050
 6662POPC   C4A44034   9.781   4.353   7.350
 6662POPC   C1B44035   9.540   4.265   6.450
 6662POPC   C2B44036   9.491   4.276   6.750
 6662POPC   C3B44037   9.519   4.273   7.050
 6662POPC   C4B44038   9.472   4.355   7.350
 6663POPC   NC344039   4.347  36.164   5.550
 6663POPC   PO444040   4.359  36.160   5.850
 6663POPC   GL144041   4.341  36.157   6.150
 6663POPC   GL244042   4.174  36.229   6.150
 6663POPC   C1A44043   4.269  36.169   6.450
 6663POPC   D2A44044   4.282  36.178   6.750
 6663POPC   C3A44045   4.269  36.169   7.050
 6663POPC   C4A44046   4.332  36.169   7.350
 6663POPC   C1B44047   4.162  36.319   6.450
 6663POPC   C2B44048   4.086  36.300   6.750
 6663POPC   C3B44049   4.105  36.268   7.050
 6663POPC   C4B44050   4.096  36.297   7.350
 6664POPC   NC344051  19.107   6.692   5.550
 6664POPC   PO444052  19.074   6.679   5.850
 6664POPC   GL144053  19.024   6.601   6.150
 6664POPC   GL244054  18.999   6.736   6.150
 6664POPC   C1A44055  19.058   6.683   6.450
 6664POPC   D2A44056  19.105   6.603   6.750
 6664POPC   C3A44057  19.087   6.662   7.050
 6664POPC   C4A44058  19.073   6.650   7.350
 6664POPC   C1B44059  18.793   6.738   6.450
 6664POPC   C2B44060  18.793   6.808   6.750
 6664POPC   C3B44061  18.853   6.796   7.050
 6664POPC   C4B44062  18.871   6.772   7.350
 6665POPC   NC344063  13.583  35.326   5.550
 6665POPC   PO444064  13.674  35.356   5.850
 6665POPC   GL144065  13.627  35.371   6.150
 6665POPC   GL244066  13.477  35.391   6.150
 6665POPC   C1A44067  13.578  35.324   6.450
 6665POPC   D2A44068  13.607  35.307   6.750
 6665POPC   C3A44069  13.646  35.386   7.050
 6665POPC   C4A44070  13.584  35.366   7.350
 6665POPC   C1B44071  13.429  35.414   6.450
 6665POPC   C2B44072  13.414  35.409   6.750
 6665POPC   C3B44073  13.350  35.415   7.050
 6665POPC   C4B44074  13.368  35.391   7.350
 6666POPC   NC344075  25.216  22.116   5.550
 6666POPC   PO444076  25.255  22.191   5.850
 6666POPC   GL144077  25.253  22.211   6.150
 6666POPC   GL244078  25.317  22.066   6.150
 6666POPC   C1A44079  25.254  22.189   6.450
 6666POPC   D2A44080  25.300  22.134   6.750
 6666POPC   C3A44081  25.239  22.137   7.050
 6666POPC   C4A44082  25.270  22.185   7.350
 6666POPC   C1B44083  25.272  21.951   6.450
 6666POPC   C2B44084  25.241  21.870   6.750
 6666POPC   C3B44085  25.261  21.872   7.050
 6666POPC   C4B44086  25.296  21.909   7.350
 6667POPC   NC344087  29.889  36.895   5.550
 6667POPC   PO444088  29.966  36.908   5.850
 6667POPC   GL144089  29.912  36.943   6.150
 6667POPC   GL244090  29.835  36.863   6.150
 6667POPC   C1A44091  29.942  36.881   6.450
 6667POPC   D2A44092  29.873  36.899   6.750
 6667POPC   C3A44093  29.893  36.921   7.050
 6667POPC   C4A44094  29.941  36.918   7.350
 6667POPC   C1B44095  29.730  36.822   6.450
 6667POPC   C2B44096  29.650  36.751   6.750
 6667POPC   C3B44097  29.720  36.760   7.050
 6667POPC   C4B44098  29.746  36.829   7.350
 6668POPC   NC344099  23.752   3.540   5.550
 6668POPC   PO444100  23.681   3.500   5.850
 6668POPC   GL144101  23.702   3.588   6.150
 6668POPC   GL244102  23.625   3.653   6.150
 6668POPC   C1A44103  23.762   3.573   6.450
 6668POPC   D2A44104  23.699   3.507   6.750
 6668POPC   C3A44105  23.703   3.511   7.050
 6668POPC   C4A44106  23.702   3.575   7.350
 6668POPC   C1B44107  23.548   3.770   6.450
 6668POPC   C2B44108  23.590   3.743   6.750
 6668POPC   C3B44109  23.611   3.715   7.050
 6668POPC   C4B44110  23.615   3.724   7.350
 6669POPC   NC344111   2.797  34.552   5.550
 6669POPC   PO444112   2.799  34.593   5.850
 6669POPC   GL144113   2.738  34.528   6.150
 6669POPC   GL244114   2.863  34.545   6.150
 6669POPC   C1A44115   2.752  34.583   6.450
 6669POPC   D2A44116   2.765  34.586   6.750
 6669POPC   C3A44117   2.744  34.555   7.050
 6669POPC   C4A44118   2.813  34.578   7.350
 6669POPC   C1B44119   2.941  34.484   6.450
 6669POPC   C2B44120   3.005  34.414   6.750
 6669POPC   C3B44121   2.970  34.492   7.050
 6669POPC   C4B44122   2.999  34.464   7.350
 6670POPC   NC344123   8.197  40.030   5.550
 6670POPC   PO444124   8.154  40.031   5.850
 6670POPC   GL144125   8.240  40.007   6.150
 6670POPC   GL244126   8.092  40.115   6.150
 6670POPC   C1A44127   8.185  40.020   6.450
 6670POPC   D2A44128   8.215  40.024   6.750
 6670POPC   C3A44129   8.159  39.977   7.050
 6670POPC   C4A44130   8.198  40.006   7.350
 6670POPC   C1B44131   7.992  40.176   6.450
 6670POPC   C2B44132   7.997  40.142   6.750
 6670POPC   C3B44133   8.040  40.171   7.050
 6670POPC   C4B44134   7.994  40.149   7.350
 6671POPC   NC344135  33.066  31.521   5.550
 6671POPC   PO444136  33.013  31.438   5.850
 6671POPC   GL144137  33.008  31.499   6.150
 6671POPC   GL244138  33.142  31.468   6.150
 6671POPC   C1A44139  32.984  31.473   6.450
 6671POPC   D2A44140  33.012  31.465   6.750
 6671POPC   C3A44141  32.982  31.475   7.050
 6671POPC   C4A44142  33.063  31.482   7.350
 6671POPC   C1B44143  33.244  31.567   6.450
 6671POPC   C2B44144  33.234  31.534   6.750
 6671POPC   C3B44145  33.261  31.552   7.050
 6671POPC   C4B44146  33.304  31.584   7.350
 6672POPC   NC344147  36.136  43.101   5.550
 6672POPC   PO444148  36.089  43.130   5.850
 6672POPC   GL144149  36.167  43.094   6.150
 6672POPC   GL244150  36.026  43.232   6.150
 6672POPC   C1A44151  36.080  43.144   6.450
 6672POPC   D2A44152  36.106  43.155   6.750
 6672POPC   C3A44153  36.106  43.078   7.050
 6672POPC   C4A44154  36.127  43.086   7.350
 6672POPC   C1B44155  35.987  43.319   6.450
 6672POPC   C2B44156  36.019  43.316   6.750
 6672POPC   C3B44157  35.946  43.297   7.050
 6672POPC   C4B44158  35.975  43.308   7.350
 6673POPC   NC344159  39.218  26.083   5.550
 6673POPC   PO444160  39.216  26.057   5.850
 6673POPC   GL144161  39.216  26.029   6.150
 6673POPC   GL244162  39.327  26.170   6.150
 6673POPC   C1A44163  39.188  26.004   6.450
 6673POPC   D2A44164  39.198  26.055   6.750
 6673POPC   C3A44165  39.255  26.085   7.050
 6673POPC   C4A44166  39.252  26.039   7.350
 6673POPC   C1B44167  39.381  26.165   6.450
 6673POPC   C2B44168  39.381  26.190   6.750
 6673POPC   C3B44169  39.376  26.250   7.050
 6673POPC   C4B44170  39.429  26.233   7.350
 6674POPC   NC344171  20.625  15.203   5.550
 6674POPC   PO444172  20.611  15.173   5.850
 6674POPC   GL144173  20.648  15.155   6.150
 6674POPC   GL244174  20.504  15.306   6.150
 6674POPC   C1A44175  20.612  15.140   6.450
 6674POPC   D2A44176  20.655  15.156   6.750
 6674POPC   C3A44177  20.623  15.160   7.050
 6674POPC   C4A44178  20.571  15.138   7.350
 6674POPC   C1B44179  20.528  15.362   6.450
 6674POPC   C2B44180  20.532  15.356   6.750
 6674POPC   C3B44181  20.447  15.385   7.050
 6674POPC   C4B44182  20.529  15.392   7.350
 6675POPC   NC344183   1.238  43.843   5.550
 6675POPC   PO444184   1.254  43.904   5.850
 6675POPC   GL144185   1.202  43.867   6.150
 6675POPC   GL244186   1.208  43.987   6.150
 6675POPC   C1A44187   1.236  43.894   6.450
 6675POPC   D2A44188   1.181  43.890   6.750
 6675POPC   C3A44189   1.164  43.912   7.050
 6675POPC   C4A44190   1.175  43.841   7.350
 6675POPC   C1B44191   1.265  44.169   6.450
 6675POPC   C2B44192   1.208  44.116   6.750
 6675POPC   C3B44193   1.276  44.091   7.050
 6675POPC   C4B44194   1.286  44.128   7.350
 6676POPC   NC344195   0.444  34.624   5.550
 6676POPC   PO444196   0.476  34.608   5.850
 6676POPC   GL144197   0.451  34.602   6.150
 6676POPC   GL244198   0.413  34.484   6.150
 6676POPC   C1A44199   0.390  34.592   6.450
 6676POPC   D2A44200   0.390  34.568   6.750
 6676POPC   C3A44201   0.460  34.623   7.050
 6676POPC   C4A44202   0.451  34.529   7.350
 6676POPC   C1B44203   0.344  34.362   6.450
 6676POPC   C2B44204   0.293  34.361   6.750
 6676POPC   C3B44205   0.293  34.359   7.050
 6676POPC   C4B44206   0.378  34.330   7.350
 6677POPC   NC344207   7.465  19.871   5.550
 6677POPC   PO444208   7.406  19.832   5.850
 6677POPC   GL144209   7.396  19.854   6.150
 6677POPC   GL244210   7.415  19.689   6.150
 6677POPC   C1A44211   7.379  19.804   6.450
 6677POPC   D2A44212   7.384  19.838   6.750
 6677POPC   C3A44213   7.411  19.796   7.050
 6677POPC   C4A44214   7.402  19.811   7.350
 6677POPC   C1B44215   7.421  19.588   6.450
 6677POPC   C2B44216   7.433  19.568   6.750
 6677POPC   C3B44217   7.427  19.547   7.050
 6677POPC   C4B44218   7.422  19.537   7.350
 6678POPC   NC344219   7.378  39.218   5.550
 6678POPC   PO444220   7.397  39.189   5.850
 6678POPC   GL144221   7.463  39.228   6.150
 6678POPC   GL244222   7.420  39.390   6.150
 6678POPC   C1A44223   7.385  39.181   6.450
 6678POPC   D2A44224   7.468  39.238   6.750
 6678POPC   C3A44225   7.419  39.203   7.050
 6678POPC   C4A44226   7.429  39.210   7.350
 6678POPC   C1B44227   7.300  39.421   6.450
 6678POPC   C2B44228   7.342  39.471   6.750
 6678POPC   C3B44229   7.362  39.469   7.050
 6678POPC   C4B44230   7.352  39.519   7.350
 6679POPC   NC344231   6.663  23.723   5.550
 6679POPC   PO444232   6.661  23.679   5.850
 6679POPC   GL144233   6.610  23.760   6.150
 6679POPC   GL244234   6.687  23.560   6.150
 6679POPC   C1A44235   6.658  23.715   6.450
 6679POPC   D2A44236   6.662  23.741   6.750
 6679POPC   C3A44237   6.617  23.675   7.050
 6679POPC   C4A44238   6.658  23.673   7.350
 6679POPC   C1B44239   6.729  23.482   6.450
 6679POPC   C2B44240   6.784  23.453   6.750
 6679POPC   C3B44241   6.820  23.544   7.050
 6679POPC   C4B44242   6.780  23.549   7.350
 6680POPC   NC344243   5.897  43.899   5.550
 6680POPC   PO444244   5.820  43.863   5.850
 6680POPC   GL144245   5.894  43.913   6.150
 6680POPC   GL244246   5.784  43.793   6.150
 6680POPC   C1A44247   5.862  43.839   6.450
 6680POPC   D2A44248   5.900  43.896   6.750
 6680POPC   C3A44249   5.900  43.897   7.050
 6680POPC   C4A44250   5.917  43.889   7.350
 6680POPC   C1B44251   5.767  43.699   6.450
 6680POPC   C2B44252   5.761  43.673   6.750
 6680POPC   C3B44253   5.794  43.687   7.050
 6680POPC   C4B44254   5.750  43.618   7.350
 6681POPC   NC344255  16.690  22.137   5.550
 6681POPC   PO444256  16.696  22.143   5.850
 6681POPC   GL144257  16.758  22.148   6.150
 6681POPC   GL244258  16.774  22.323   6.150
 6681POPC   C1A44259  16.760  22.151   6.450
 6681POPC   D2A44260  16.723  22.116   6.750
 6681POPC   C3A44261  16.778  22.169   7.050
 6681POPC   C4A44262  16.690  22.174   7.350
 6681POPC   C1B44263  16.721  22.440   6.450
 6681POPC   C2B44264  16.787  22.422   6.750
 6681POPC   C3B44265  16.703  22.408   7.050
 6681POPC   C4B44266  16.798  22.422   7.350
 6682POPC   NC344267  30.701  30.670   5.550
 6682POPC   PO444268  30.706  30.722   5.850
 6682POPC   GL144269  30.719  30.665   6.150
 6682POPC   GL244270  30.657  30.557   6.150
 6682POPC   C1A44271  30.693  30.714   6.450
 6682POPC   D2A44272  30.648  30.706   6.750
 6682POPC   C3A44273  30.655  30.689   7.050
 6682POPC   C4A44274  30.713  30.729   7.350
 6682POPC   C1B44275  30.684  30.422   6.450
 6682POPC   C2B44276  30.615  30.469   6.750
 6682POPC   C3B44277  30.679  30.499   7.050
 6682POPC   C4B44278  30.692  30.494   7.350
 6683POPC   NC344279   8.224  28.390   5.550
 6683POPC   PO444280   8.208  28.414   5.850
 6683POPC   GL144281   8.200  28.379   6.150
 6683POPC   GL244282   8.258  28.261   6.150
 6683POPC   C1A44283   8.208  28.401   6.450
 6683POPC   D2A44284   8.197  28.361   6.750
 6683POPC   C3A44285   8.218  28.412   7.050
 6683POPC   C4A44286   8.245  28.360   7.350
 6683POPC   C1B44287   8.399  28.238   6.450
 6683POPC   C2B44288   8.389  28.243   6.750
 6683POPC   C3B44289   8.357  28.183   7.050
 6683POPC   C4B44290   8.422  28.205   7.350
 6684POPC   NC344291  25.292  40.043   5.550
 6684POPC   PO444292  25.216  40.054   5.850
 6684POPC   GL144293  25.231  39.987   6.150
 6684POPC   GL244294  25.373  40.001   6.150
 6684POPC   C1A44295  25.263  40.014   6.450
 6684POPC   D2A44296  25.245  40.038   6.750
 6684POPC   C3A44297  25.229  40.015   7.050
 6684POPC   C4A44298  25.266  39.964   7.350
 6684POPC   C1B44299  25.538  39.928   6.450
 6684POPC   C2B44300  25.471  39.931   6.750
 6684POPC   C3B44301  25.547  39.982   7.050
 6684POPC   C4B44302  25.458  39.975   7.350
 6685POPC   NC344303   6.623  12.083   5.550
 6685POPC   PO444304   6.670  12.055   5.850
 6685POPC   GL144305   6.615  12.030   6.150
 6685POPC   GL244306   6.525  12.098   6.150
 6685POPC   C1A44307   6.612  12.085   6.450
 6685POPC   D2A44308   6.674  12.112   6.750
 6685POPC   C3A44309   6.643  12.095   7.050
 6685POPC   C4A44310   6.653  12.063   7.350
 6685POPC   C1B44311   6.436  11.986   6.450
 6685POPC   C2B44312   6.380  12.027   6.750
 6685POPC   C3B44313   6.420  12.024   7.050
 6685POPC   C4B44314   6.374  12.070   7.350
 6686POPC   NC344315  19.798  29.879   5.550
 6686POPC   PO444316  19.846  29.884   5.850
 6686POPC   GL144317  19.806  29.875   6.150
 6686POPC   GL244318  19.740  29.998   6.150
 6686POPC   C1A44319  19.832  29.950   6.450
 6686POPC   D2A44320  19.811  29.877   6.750
 6686POPC   C3A44321  19.838  29.961   7.050
 6686POPC   C4A44322  19.830  29.966   7.350
 6686POPC   C1B44323  19.678  30.039   6.450
 6686POPC   C2B44324  19.684  30.100   6.750
 6686POPC   C3B44325  19.668  30.055   7.050
 6686POPC   C4B44326  19.596  30.107   7.350
 6687POPC   NC344327  13.636  28.390   5.550
 6687POPC   PO444328  13.670  28.356   5.850
 6687POPC   GL144329  13.614  28.341   6.150
 6687POPC   GL244330  13.601  28.517   6.150
 6687POPC   C1A44331  13.600  28.332   6.450
 6687POPC   D2A44332  13.598  28.415   6.750
 6687POPC   C3A44333  13.599  28.362   7.050
 6687POPC   C4A44334  13.636  28.352   7.350
 6687POPC   C1B44335  13.450  28.581   6.450
 6687POPC   C2B44336  13.473  28.597   6.750
 6687POPC   C3B44337  13.500  28.569   7.050
 6687POPC   C4B44338  13.457  28.575   7.350
 6688POPC   NC344339  22.927  41.587   5.550
 6688POPC   PO444340  22.965  41.532   5.850
 6688POPC   GL144341  22.971  41.539   6.150
 6688POPC   GL244342  22.796  41.541   6.150
 6688POPC   C1A44343  22.953  41.551   6.450
 6688POPC   D2A44344  22.935  41.534   6.750
 6688POPC   C3A44345  22.972  41.571   7.050
 6688POPC   C4A44346  22.959  41.544   7.350
 6688POPC   C1B44347  22.693  41.465   6.450
 6688POPC   C2B44348  22.747  41.470   6.750
 6688POPC   C3B44349  22.707  41.390   7.050
 6688POPC   C4B44350  22.721  41.392   7.350
 6689POPC   NC344351  36.860  30.679   5.550
 6689POPC   PO444352  36.890  30.708   5.850
 6689POPC   GL144353  36.953  30.667   6.150
 6689POPC   GL244354  37.035  30.649   6.150
 6689POPC   C1A44355  36.879  30.721   6.450
 6689POPC   D2A44356  36.946  30.726   6.750
 6689POPC   C3A44357  36.951  30.684   7.050
 6689POPC   C4A44358  36.859  30.666   7.350
 6689POPC   C1B44359  37.189  30.652   6.450
 6689POPC   C2B44360  37.098  30.661   6.750
 6689POPC   C3B44361  37.144  30.648   7.050
 6689POPC   C4B44362  37.133  30.575   7.350
 6690POPC   NC344363  43.910  37.684   5.550
 6690POPC   PO444364  43.896  37.644   5.850
 6690POPC   GL144365  43.878  37.677   6.150
 6690POPC   GL244366  43.966  37.527   6.150
 6690POPC   C1A44367  43.885  37.665   6.450
 6690POPC   D2A44368  43.915  37.719   6.750
 6690POPC   C3A44369  43.864  37.703   7.050
 6690POPC   C4A44370  43.931  37.638   7.350
 6690POPC   C1B44371  43.980  37.473   6.450
 6690POPC   C2B44372  44.047  37.474   6.750
 6690POPC   C3B44373  44.040  37.436   7.050
 6690POPC   C4B44374  44.004  37.483   7.350
 6691POPC   NC344375   8.947   6.678   5.550
 6691POPC   PO444376   8.991   6.666   5.850
 6691POPC   GL144377   8.943   6.638   6.150
 6691POPC   GL244378   8.882   6.648   6.150
 6691POPC   C1A44379   8.985   6.659   6.450
 6691POPC   D2A44380   8.993   6.648   6.750
 6691POPC   C3A44381   8.939   6.639   7.050
 6691POPC   C4A44382   8.984   6.669   7.350
 6691POPC   C1B44383   8.750   6.623   6.450
 6691POPC   C2B44384   8.721   6.664   6.750
 6691POPC   C3B44385   8.756   6.659   7.050
 6691POPC   C4B44386   8.742   6.630   7.350
 6692POPC   NC344387  14.387  13.641   5.550
 6692POPC   PO444388  14.394  13.630   5.850
 6692POPC   GL144389  14.418  13.603   6.150
 6692POPC   GL244390  14.320  13.487   6.150
 6692POPC   C1A44391  14.434  13.634   6.450
 6692POPC   D2A44392  14.390  13.583   6.750
 6692POPC   C3A44393  14.452  13.603   7.050
 6692POPC   C4A44394  14.405  13.627   7.350
 6692POPC   C1B44395  14.310  13.377   6.450
 6692POPC   C2B44396  14.260  13.355   6.750
 6692POPC   C3B44397  14.262  13.432   7.050
 6692POPC   C4B44398  14.280  13.367   7.350
 6693POPC   NC344399  42.349  13.616   5.550
 6693POPC   PO444400  42.350  13.589   5.850
 6693POPC   GL144401  42.356  13.584   6.150
 6693POPC   GL244402  42.499  13.649   6.150
 6693POPC   C1A44403  42.383  13.596   6.450
 6693POPC   D2A44404  42.323  13.587   6.750
 6693POPC   C3A44405  42.376  13.659   7.050
 6693POPC   C4A44406  42.308  13.631   7.350
 6693POPC   C1B44407  42.621  13.591   6.450
 6693POPC   C2B44408  42.536  13.557   6.750
 6693POPC   C3B44409  42.593  13.535   7.050
 6693POPC   C4B44410  42.552  13.610   7.350
 6694POPC   NC344411  38.499  24.528   5.550
 6694POPC   PO444412  38.453  24.443   5.850
 6694POPC   GL144413  38.476  24.457   6.150
 6694POPC   GL244414  38.370  24.415   6.150
 6694POPC   C1A44415  38.503  24.515   6.450
 6694POPC   D2A44416  38.408  24.499   6.750
 6694POPC   C3A44417  38.474  24.507   7.050
 6694POPC   C4A44418  38.415  24.488   7.350
 6694POPC   C1B44419  38.363  24.298   6.450
 6694POPC   C2B44420  38.414  24.287   6.750
 6694POPC   C3B44421  38.404  24.296   7.050
 6694POPC   C4B44422  38.369  24.210   7.350
 6695POPC   NC344423  38.435   9.795   5.550
 6695POPC   PO444424  38.494   9.775   5.850
 6695POPC   GL144425  38.485   9.743   6.150
 6695POPC   GL244426  38.337   9.776   6.150
 6695POPC   C1A44427  38.454   9.746   6.450
 6695POPC   D2A44428  38.496   9.759   6.750
 6695POPC   C3A44429  38.440   9.765   7.050
 6695POPC   C4A44430  38.428   9.780   7.350
 6695POPC   C1B44431  38.200   9.810   6.450
 6695POPC   C2B44432  38.260   9.854   6.750
 6695POPC   C3B44433  38.178   9.870   7.050
 6695POPC   C4B44434  38.188   9.882   7.350
 6696POPC   NC344435  20.644  43.086   5.550
 6696POPC   PO444436  20.642  43.148   5.850
 6696POPC   GL144437  20.659  43.064   6.150
 6696POPC   GL244438  20.606  43.188   6.150
 6696POPC   C1A44439  20.610  43.064   6.450
 6696POPC   D2A44440  20.637  43.107   6.750
 6696POPC   C3A44441  20.628  43.150   7.050
 6696POPC   C4A44442  20.578  43.123   7.350
 6696POPC   C1B44443  20.503  43.308   6.450
 6696POPC   C2B44444  20.511  43.332   6.750
 6696POPC   C3B44445  20.551  43.391   7.050
 6696POPC   C4B44446  20.519  43.320   7.350
 6697POPC   NC344447  34.566  33.774   5.550
 6697POPC   PO444448  34.554  33.838   5.850
 6697POPC   GL144449  34.538  33.814   6.150
 6697POPC   GL244450  34.458  33.875   6.150
 6697POPC   C1A44451  34.528  33.794   6.450
 6697POPC   D2A44452  34.602  33.816   6.750
 6697POPC   C3A44453  34.610  33.839   7.050
 6697POPC   C4A44454  34.585  33.845   7.350
 6697POPC   C1B44455  34.335  33.878   6.450
 6697POPC   C2B44456  34.385  33.915   6.750
 6697POPC   C3B44457  34.349  33.927   7.050
 6697POPC   C4B44458  34.358  33.847   7.350
 6698POPC   NC344459  36.854  25.259   5.550
 6698POPC   PO444460  36.926  25.282   5.850
 6698POPC   GL144461  36.932  25.309   6.150
 6698POPC   GL244462  37.030  25.145   6.150
 6698POPC   C1A44463  36.873  25.274   6.450
 6698POPC   D2A44464  36.930  25.297   6.750
 6698POPC   C3A44465  36.926  25.286   7.050
 6698POPC   C4A44466  36.916  25.293   7.350
 6698POPC   C1B44467  37.148  25.063   6.450
 6698POPC   C2B44468  37.106  25.106   6.750
 6698POPC   C3B44469  37.066  25.156   7.050
 6698POPC   C4B44470  37.050  25.061   7.350
 6699POPC   NC344471  39.261  12.838   5.550
 6699POPC   PO444472  39.196  12.823   5.850
 6699POPC   GL144473  39.244  12.849   6.150
 6699POPC   GL244474  39.302  12.704   6.150
 6699POPC   C1A44475  39.271  12.860   6.450
 6699POPC   D2A44476  39.193  12.888   6.750
 6699POPC   C3A44477  39.204  12.880   7.050
 6699POPC   C4A44478  39.218  12.819   7.350
 6699POPC   C1B44479  39.333  12.605   6.450
 6699POPC   C2B44480  39.367  12.658   6.750
 6699POPC   C3B44481  39.355  12.651   7.050
 6699POPC   C4B44482  39.339  12.620   7.350
 6700POPC   NC344483   8.153  18.288   5.550
 6700POPC   PO444484   8.189  18.308   5.850
 6700POPC   GL144485   8.235  18.247   6.150
 6700POPC   GL244486   8.215  18.432   6.150
 6700POPC   C1A44487   8.210  18.262   6.450
 6700POPC   D2A44488   8.190  18.288   6.750
 6700POPC   C3A44489   8.173  18.247   7.050
 6700POPC   C4A44490   8.180  18.250   7.350
 6700POPC   C1B44491   8.169  18.498   6.450
 6700POPC   C2B44492   8.174  18.560   6.750
 6700POPC   C3B44493   8.222  18.491   7.050
 6700POPC   C4B44494   8.162  18.556   7.350
 6701POPC   NC344495   4.271  11.276   5.550
 6701POPC   PO444496   4.299  11.256   5.850
 6701POPC   GL144497   4.304  11.324   6.150
 6701POPC   GL244498   4.250  11.199   6.150
 6701POPC   C1A44499   4.291  11.293   6.450
 6701POPC   D2A44500   4.269  11.253   6.750
 6701POPC   C3A44501   4.359  11.286   7.050
 6701POPC   C4A44502   4.281  11.286   7.350
 6701POPC   C1B44503   4.083  11.141   6.450
 6701POPC   C2B44504   4.072  11.140   6.750
 6701POPC   C3B44505   4.069  11.170   7.050
 6701POPC   C4B44506   4.064  11.142   7.350
 6702POPC   NC344507  25.255  34.610   5.550
 6702POPC   PO444508  25.219  34.536   5.850
 6702POPC   GL144509  25.271  34.610   6.150
 6702POPC   GL244510  25.440  34.566   6.150
 6702POPC   C1A44511  25.281  34.568   6.450
 6702POPC   D2A44512  25.300  34.624   6.750
 6702POPC   C3A44513  25.266  34.605   7.050
 6702POPC   C4A44514  25.291  34.591   7.350
 6702POPC   C1B44515  25.519  34.586   6.450
 6702POPC   C2B44516  25.552  34.591   6.750
 6702POPC   C3B44517  25.499  34.605   7.050
 6702POPC   C4B44518  25.483  34.572   7.350
 6703POPC   NC344519  22.904  33.043   5.550
 6703POPC   PO444520  22.963  32.978   5.850
 6703POPC   GL144521  22.916  32.974   6.150
 6703POPC   GL244522  22.860  33.056   6.150
 6703POPC   C1A44523  22.928  33.009   6.450
 6703POPC   D2A44524  22.889  32.996   6.750
 6703POPC   C3A44525  22.904  32.995   7.050
 6703POPC   C4A44526  22.894  33.008   7.350
 6703POPC   C1B44527  22.727  33.103   6.450
 6703POPC   C2B44528  22.661  33.091   6.750
 6703POPC   C3B44529  22.683  33.126   7.050
 6703POPC   C4B44530  22.730  33.101   7.350
 6704POPC   NC344531  43.876  36.951   5.550
 6704POPC   PO444532  43.875  36.919   5.850
 6704POPC   GL144533  43.871  36.950   6.150
 6704POPC   GL244534  43.768  36.874   6.150
 6704POPC   C1A44535  43.882  36.951   6.450
 6704POPC   D2A44536  43.919  36.857   6.750
 6704POPC   C3A44537  43.904  36.899   7.050
 6704POPC   C4A44538  43.854  36.860   7.350
 6704POPC   C1B44539  43.595  36.903   6.450
 6704POPC   C2B44540  43.675  36.959   6.750
 6704POPC   C3B44541  43.617  36.939   7.050
 6704POPC   C4B44542  43.643  36.929   7.350
 6705POPC   NC344543   2.035   8.223   5.550
 6705POPC   PO444544   1.962   8.223   5.850
 6705POPC   GL144545   1.971   8.165   6.150
 6705POPC   GL244546   1.965   8.293   6.150
 6705POPC   C1A44547   1.968   8.232   6.450
 6705POPC   D2A44548   1.955   8.209   6.750
 6705POPC   C3A44549   2.003   8.187   7.050
 6705POPC   C4A44550   1.968   8.204   7.350
 6705POPC   C1B44551   1.920   8.394   6.450
 6705POPC   C2B44552   1.938   8.437   6.750
 6705POPC   C3B44553   1.890   8.423   7.050
 6705POPC   C4B44554   1.905   8.405   7.350
 6706POPC   NC344555   6.625  28.389   5.550
 6706POPC   PO444556   6.658  28.412   5.850
 6706POPC   GL144557   6.622  28.362   6.150
 6706POPC   GL244558   6.726  28.496   6.150
 6706POPC   C1A44559   6.690  28.322   6.450
 6706POPC   D2A44560   6.634  28.323   6.750
 6706POPC   C3A44561   6.687  28.330   7.050
 6706POPC   C4A44562   6.659  28.340   7.350
 6706POPC   C1B44563   6.794  28.600   6.450
 6706POPC   C2B44564   6.765  28.563   6.750
 6706POPC   C3B44565   6.819  28.580   7.050
 6706POPC   C4B44566   6.797  28.588   7.350
 6707POPC   NC344567  38.407  17.464   5.550
 6707POPC   PO444568  38.412  17.464   5.850
 6707POPC   GL144569  38.452  17.536   6.150
 6707POPC   GL244570  38.438  17.366   6.150
 6707POPC   C1A44571  38.499  17.502   6.450
 6707POPC   D2A44572  38.476  17.497   6.750
 6707POPC   C3A44573  38.504  17.492   7.050
 6707POPC   C4A44574  38.436  17.546   7.350
 6707POPC   C1B44575  38.375  17.315   6.450
 6707POPC   C2B44576  38.319  17.292   6.750
 6707POPC   C3B44577  38.370  17.249   7.050
 6707POPC   C4B44578  38.302  17.273   7.350
 6708POPC   NC344579  19.796  16.000   5.550
 6708POPC   PO444580  19.866  15.933   5.850
 6708POPC   GL144581  19.882  15.926   6.150
 6708POPC   GL244582  19.988  15.926   6.150
 6708POPC   C1A44583  19.806  15.960   6.450
 6708POPC   D2A44584  19.863  15.957   6.750
 6708POPC   C3A44585  19.856  15.955   7.050
 6708POPC   C4A44586  19.863  15.973   7.350
 6708POPC   C1B44587  20.089  15.982   6.450
 6708POPC   C2B44588  20.042  15.985   6.750
 6708POPC   C3B44589  20.082  15.985   7.050
 6708POPC   C4B44590  20.068  15.977   7.350
 6709POPC   NC344591  22.969  34.596   5.550
 6709POPC   PO444592  22.983  34.614   5.850
 6709POPC   GL144593  22.949  34.579   6.150
 6709POPC   GL244594  23.083  34.628   6.150
 6709POPC   C1A44595  22.905  34.599   6.450
 6709POPC   D2A44596  22.894  34.608   6.750
 6709POPC   C3A44597  22.986  34.587   7.050
 6709POPC   C4A44598  22.943  34.571   7.350
 6709POPC   C1B44599  23.193  34.678   6.450
 6709POPC   C2B44600  23.201  34.721   6.750
 6709POPC   C3B44601  23.177  34.698   7.050
 6709POPC   C4B44602  23.178  34.697   7.350
 6710POPC   NC344603  19.814  22.159   5.550
 6710POPC   PO444604  19.868  22.157   5.850
 6710POPC   GL144605  19.824  22.167   6.150
 6710POPC   GL244606  19.823  22.322   6.150
 6710POPC   C1A44607  19.820  22.135   6.450
 6710POPC   D2A44608  19.809  22.122   6.750
 6710POPC   C3A44609  19.875  22.179   7.050
 6710POPC   C4A44610  19.812  22.191   7.350
 6710POPC   C1B44611  19.782  22.454   6.450
 6710POPC   C2B44612  19.805  22.413   6.750
 6710POPC   C3B44613  19.799  22.449   7.050
 6710POPC   C4B44614  19.774  22.454   7.350
 6711POPC   NC344615  40.004  33.775   5.550
 6711POPC   PO444616  39.997  33.823   5.850
 6711POPC   GL144617  39.967  33.791   6.150
 6711POPC   GL244618  40.057  33.935   6.150
 6711POPC   C1A44619  39.974  33.807   6.450
 6711POPC   D2A44620  40.030  33.755   6.750
 6711POPC   C3A44621  39.970  33.819   7.050
 6711POPC   C4A44622  39.997  33.787   7.350
 6711POPC   C1B44623  40.055  34.068   6.450
 6711POPC   C2B44624  40.113  33.983   6.750
 6711POPC   C3B44625  40.114  34.054   7.050
 6711POPC   C4B44626  40.073  34.065   7.350
 6712POPC   NC344627   9.706  28.356   5.550
 6712POPC   PO444628   9.722  28.343   5.850
 6712POPC   GL144629   9.727  28.413   6.150
 6712POPC   GL244630   9.618  28.266   6.150
 6712POPC   C1A44631   9.735  28.390   6.450
 6712POPC   D2A44632   9.782  28.326   6.750
 6712POPC   C3A44633   9.767  28.356   7.050
 6712POPC   C4A44634   9.783  28.366   7.350
 6712POPC   C1B44635   9.615  28.221   6.450
 6712POPC   C2B44636   9.582  28.216   6.750
 6712POPC   C3B44637   9.538  28.213   7.050
 6712POPC   C4B44638   9.616  28.190   7.350
 6713POPC   NC344639  30.664  40.046   5.550
 6713POPC   PO444640  30.649  40.050   5.850
 6713POPC   GL144641  30.681  40.000   6.150
 6713POPC   GL244642  30.726  39.890   6.150
 6713POPC   C1A44643  30.649  40.035   6.450
 6713POPC   D2A44644  30.681  40.013   6.750
 6713POPC   C3A44645  30.740  39.968   7.050
 6713POPC   C4A44646  30.671  40.032   7.350
 6713POPC   C1B44647  30.784  39.764   6.450
 6713POPC   C2B44648  30.802  39.735   6.750
 6713POPC   C3B44649  30.762  39.783   7.050
 6713POPC   C4B44650  30.763  39.796   7.350
 6714POPC   NC344651  12.065   5.842   5.550
 6714POPC   PO444652  12.037   5.819   5.850
 6714POPC   GL144653  12.079   5.829   6.150
 6714POPC   GL244654  12.207   5.827   6.150
 6714POPC   C1A44655  12.097   5.872   6.450
 6714POPC   D2A44656  12.096   5.906   6.750
 6714POPC   C3A44657  12.081   5.844   7.050
 6714POPC   C4A44658  12.074   5.869   7.350
 6714POPC   C1B44659  12.237   5.668   6.450
 6714POPC   C2B44660  12.242   5.712   6.750
 6714POPC   C3B44661  12.279   5.709   7.050
 6714POPC   C4B44662  12.294   5.715   7.350
 6715POPC   NC344663  30.711  19.785   5.550
 6715POPC   PO444664  30.660  19.880   5.850
 6715POPC   GL144665  30.711  19.829   6.150
 6715POPC   GL244666  30.584  19.788   6.150
 6715POPC   C1A44667  30.649  19.867   6.450
 6715POPC   D2A44668  30.696  19.866   6.750
 6715POPC   C3A44669  30.650  19.825   7.050
 6715POPC   C4A44670  30.694  19.845   7.350
 6715POPC   C1B44671  30.521  19.710   6.450
 6715POPC   C2B44672  30.496  19.681   6.750
 6715POPC   C3B44673  30.515  19.705   7.050
 6715POPC   C4B44674  30.456  19.758   7.350
 6716POPC   NC344675  43.074  11.290   5.550
 6716POPC   PO444676  43.138  11.314   5.850
 6716POPC   GL144677  43.084  11.338   6.150
 6716POPC   GL244678  43.135  11.187   6.150
 6716POPC   C1A44679  43.097  11.324   6.450
 6716POPC   D2A44680  43.160  11.311   6.750
 6716POPC   C3A44681  43.150  11.262   7.050
 6716POPC   C4A44682  43.135  11.319   7.350
 6716POPC   C1B44683  43.037  11.070   6.450
 6716POPC   C2B44684  43.037  11.005   6.750
 6716POPC   C3B44685  43.127  11.076   7.050
 6716POPC   C4B44686  43.072  11.064   7.350
 6717POPC   NC344687  12.846   5.136   5.550
 6717POPC   PO444688  12.899   5.097   5.850
 6717POPC   GL144689  12.803   5.124   6.150
 6717POPC   GL244690  12.778   5.160   6.150
 6717POPC   C1A44691  12.865   5.069   6.450
 6717POPC   D2A44692  12.899   5.053   6.750
 6717POPC   C3A44693  12.888   5.086   7.050
 6717POPC   C4A44694  12.900   5.120   7.350
 6717POPC   C1B44695  12.718   5.261   6.450
 6717POPC   C2B44696  12.721   5.265   6.750
 6717POPC   C3B44697  12.726   5.231   7.050
 6717POPC   C4B44698  12.638   5.296   7.350
 6718POPC   NC344699  35.323  23.732   5.550
 6718POPC   PO444700  35.382  23.675   5.850
 6718POPC   GL144701  35.387  23.735   6.150
 6718POPC   GL244702  35.287  23.746   6.150
 6718POPC   C1A44703  35.395  23.760   6.450
 6718POPC   D2A44704  35.335  23.675   6.750
 6718POPC   C3A44705  35.400  23.709   7.050
 6718POPC   C4A44706  35.381  23.664   7.350
 6718POPC   C1B44707  35.160  23.841   6.450
 6718POPC   C2B44708  35.090  23.835   6.750
 6718POPC   C3B44709  35.088  23.839   7.050
 6718POPC   C4B44710  35.172  23.817   7.350
 6719POPC   NC344711  39.281  25.240   5.550
 6719POPC   PO444712  39.241  25.288   5.850
 6719POPC   GL144713  39.258  25.273   6.150
 6719POPC   GL244714  39.136  25.312   6.150
 6719POPC   C1A44715  39.198  25.224   6.450
 6719POPC   D2A44716  39.263  25.233   6.750
 6719POPC   C3A44717  39.213  25.216   7.050
 6719POPC   C4A44718  39.208  25.307   7.350
 6719POPC   C1B44719  39.002  25.360   6.450
 6719POPC   C2B44720  38.984  25.373   6.750
 6719POPC   C3B44721  39.025  25.429   7.050
 6719POPC   C4B44722  39.058  25.417   7.350
 6720POPC   NC344723  43.888  29.142   5.550
 6720POPC   PO444724  43.885  29.161   5.850
 6720POPC   GL144725  43.889  29.175   6.150
 6720POPC   GL244726  43.940  29.226   6.150
 6720POPC   C1A44727  43.837  29.168   6.450
 6720POPC   D2A44728  43.853  29.162   6.750
 6720POPC   C3A44729  43.898  29.132   7.050
 6720POPC   C4A44730  43.905  29.120   7.350
 6720POPC   C1B44731  43.971  29.357   6.450
 6720POPC   C2B44732  43.916  29.343   6.750
 6720POPC   C3B44733  43.901  29.364   7.050
 6720POPC   C4B44734  43.933  29.347   7.350
 6721POPC   NC344735  25.235  18.255   5.550
 6721POPC   PO444736  25.222  18.332   5.850
 6721POPC   GL144737  25.242  18.330   6.150
 6721POPC   GL244738  25.171  18.357   6.150
 6721POPC   C1A44739  25.314  18.242   6.450
 6721POPC   D2A44740  25.233  18.259   6.750
 6721POPC   C3A44741  25.282  18.330   7.050
 6721POPC   C4A44742  25.220  18.320   7.350
 6721POPC   C1B44743  25.087  18.404   6.450
 6721POPC   C2B44744  25.088  18.418   6.750
 6721POPC   C3B44745  25.100  18.380   7.050
 6721POPC   C4B44746  25.009  18.440   7.350
 6722POPC   NC344747  18.323  42.329   5.550
 6722POPC   PO444748  18.258  42.295   5.850
 6722POPC   GL144749  18.293  42.366   6.150
 6722POPC   GL244750  18.273  42.426   6.150
 6722POPC   C1A44751  18.262  42.320   6.450
 6722POPC   D2A44752  18.288  42.366   6.750
 6722POPC   C3A44753  18.271  42.330   7.050
 6722POPC   C4A44754  18.302  42.319   7.350
 6722POPC   C1B44755  18.339  42.573   6.450
 6722POPC   C2B44756  18.305  42.571   6.750
 6722POPC   C3B44757  18.303  42.597   7.050
 6722POPC   C4B44758  18.327  42.557   7.350
 6723POPC   NC344759  33.023  40.806   5.550
 6723POPC   PO444760  32.994  40.817   5.850
 6723POPC   GL144761  32.987  40.791   6.150
 6723POPC   GL244762  32.989  40.850   6.150
 6723POPC   C1A44763  33.026  40.746   6.450
 6723POPC   D2A44764  33.066  40.806   6.750
 6723POPC   C3A44765  33.025  40.816   7.050
 6723POPC   C4A44766  32.997  40.740   7.350
 6723POPC   C1B44767  32.901  40.995   6.450
 6723POPC   C2B44768  32.831  40.960   6.750
 6723POPC   C3B44769  32.896  41.013   7.050
 6723POPC   C4B44770  32.838  40.930   7.350
 6724POPC   NC344771   0.407   6.628   5.550
 6724POPC   PO444772   0.413   6.617   5.850
 6724POPC   GL144773   0.445   6.687   6.150
 6724POPC   GL244774   0.407   6.532   6.150
 6724POPC   C1A44775   0.437   6.646   6.450
 6724POPC   D2A44776   0.488   6.668   6.750
 6724POPC   C3A44777   0.432   6.607   7.050
 6724POPC   C4A44778   0.438   6.681   7.350
 6724POPC   C1B44779   0.351   6.447   6.450
 6724POPC   C2B44780   0.329   6.422   6.750
 6724POPC   C3B44781   0.337   6.447   7.050
 6724POPC   C4B44782   0.362   6.369   7.350
 6725POPC   NC344783  25.279  29.957   5.550
 6725POPC   PO444784  25.220  29.969   5.850
 6725POPC   GL144785  25.254  29.960   6.150
 6725POPC   GL244786  25.381  29.819   6.150
 6725POPC   C1A44787  25.233  29.955   6.450
 6725POPC   D2A44788  25.274  29.937   6.750
 6725POPC   C3A44789  25.281  29.957   7.050
 6725POPC   C4A44790  25.264  29.936   7.350
 6725POPC   C1B44791  25.532  29.772   6.450
 6725POPC   C2B44792  25.524  29.815   6.750
 6725POPC   C3B44793  25.451  29.807   7.050
 6725POPC   C4B44794  25.446  29.796   7.350
 6726POPC   NC344795  32.248  36.127   5.550
 6726POPC   PO444796  32.264  36.155   5.850
 6726POPC   GL144797  32.205  36.118   6.150
 6726POPC   GL244798  32.233  36.239   6.150
 6726POPC   C1A44799  32.243  36.103   6.450
 6726POPC   D2A44800  32.293  36.127   6.750
 6726POPC   C3A44801  32.280  36.103   7.050
 6726POPC   C4A44802  32.233  36.155   7.350
 6726POPC   C1B44803  32.261  36.341   6.450
 6726POPC   C2B44804  32.261  36.352   6.750
 6726POPC   C3B44805  32.273  36.405   7.050
 6726POPC   C4B44806  32.259  36.355   7.350
 6727POPC   NC344807  42.353  34.578   5.550
 6727POPC   PO444808  42.368  34.528   5.850
 6727POPC   GL144809  42.296  34.599   6.150
 6727POPC   GL244810  42.455  34.563   6.150
 6727POPC   C1A44811  42.362  34.546   6.450
 6727POPC   D2A44812  42.349  34.529   6.750
 6727POPC   C3A44813  42.373  34.560   7.050
 6727POPC   C4A44814  42.334  34.567   7.350
 6727POPC   C1B44815  42.564  34.416   6.450
 6727POPC   C2B44816  42.543  34.481   6.750
 6727POPC   C3B44817  42.526  34.487   7.050
 6727POPC   C4B44818  42.535  34.464   7.350
 6728POPC   NC344819  14.409   4.328   5.550
 6728POPC   PO444820  14.390   4.284   5.850
 6728POPC   GL144821  14.356   4.361   6.150
 6728POPC   GL244822  14.350   4.451   6.150
 6728POPC   C1A44823  14.432   4.364   6.450
 6728POPC   D2A44824  14.426   4.334   6.750
 6728POPC   C3A44825  14.404   4.349   7.050
 6728POPC   C4A44826  14.417   4.329   7.350
 6728POPC   C1B44827  14.262   4.497   6.450
 6728POPC   C2B44828  14.204   4.527   6.750
 6728POPC   C3B44829  14.253   4.496   7.050
 6728POPC   C4B44830  14.188   4.536   7.350
 6729POPC   NC344831  38.413  15.975   5.550
 6729POPC   PO444832  38.447  15.932   5.850
 6729POPC   GL144833  38.433  15.909   6.150
 6729POPC   GL244834  38.595  15.835   6.150
 6729POPC   C1A44835  38.415  15.910   6.450
 6729POPC   D2A44836  38.424  15.950   6.750
 6729POPC   C3A44837  38.471  15.953   7.050
 6729POPC   C4A44838  38.413  15.941   7.350
 6729POPC   C1B44839  38.618  15.806   6.450
 6729POPC   C2B44840  38.672  15.760   6.750
 6729POPC   C3B44841  38.688  15.782   7.050
 6729POPC   C4B44842  38.624  15.779   7.350
 6730POPC   NC344843   9.755  26.852   5.550
 6730POPC   PO444844   9.768  26.838   5.850
 6730POPC   GL144845   9.710  26.781   6.150
 6730POPC   GL244846   9.677  26.815   6.150
 6730POPC   C1A44847   9.720  26.837   6.450
 6730POPC   D2A44848   9.740  26.778   6.750
 6730POPC   C3A44849   9.732  26.820   7.050
 6730POPC   C4A44850   9.773  26.812   7.350
 6730POPC   C1B44851   9.559  26.940   6.450
 6730POPC   C2B44852   9.538  26.924   6.750
 6730POPC   C3B44853   9.502  26.894   7.050
 6730POPC   C4B44854   9.526  26.864   7.350
 6731POPC   NC344855  16.700  10.550   5.550
 6731POPC   PO444856  16.772  10.486   5.850
 6731POPC   GL144857  16.687  10.492   6.150
 6731POPC   GL244858  16.857  10.522   6.150
 6731POPC   C1A44859  16.720  10.552   6.450
 6731POPC   D2A44860  16.766  10.481   6.750
 6731POPC   C3A44861  16.744  10.474   7.050
 6731POPC   C4A44862  16.731  10.532   7.350
 6731POPC   C1B44863  16.929  10.598   6.450
 6731POPC   C2B44864  16.916  10.627   6.750
 6731POPC   C3B44865  16.996  10.583   7.050
 6731POPC   C4B44866  16.942  10.585   7.350
 6732POPC   NC344867  40.789  28.330   5.550
 6732POPC   PO444868  40.799  28.330   5.850
 6732POPC   GL144869  40.744  28.352   6.150
 6732POPC   GL244870  40.876  28.360   6.150
 6732POPC   C1A44871  40.830  28.374   6.450
 6732POPC   D2A44872  40.796  28.388   6.750
 6732POPC   C3A44873  40.765  28.358   7.050
 6732POPC   C4A44874  40.739  28.397   7.350
 6732POPC   C1B44875  41.054  28.251   6.450
 6732POPC   C2B44876  41.041  28.273   6.750
 6732POPC   C3B44877  40.979  28.275   7.050
 6732POPC   C4B44878  40.960  28.215   7.350
 6733POPC   NC344879  34.624  38.480   5.550
 6733POPC   PO444880  34.536  38.411   5.850
 6733POPC   GL144881  34.620  38.476   6.150
 6733POPC   GL244882  34.423  38.548   6.150
 6733POPC   C1A44883  34.593  38.443   6.450
 6733POPC   D2A44884  34.617  38.413   6.750
 6733POPC   C3A44885  34.526  38.448   7.050
 6733POPC   C4A44886  34.539  38.449   7.350
 6733POPC   C1B44887  34.398  38.547   6.450
 6733POPC   C2B44888  34.374  38.605   6.750
 6733POPC   C3B44889  34.397  38.608   7.050
 6733POPC   C4B44890  34.350  38.568   7.350
 6734POPC   NC344891  26.834  43.148   5.550
 6734POPC   PO444892  26.845  43.096   5.850
 6734POPC   GL144893  26.767  43.112   6.150
 6734POPC   GL244894  26.875  43.264   6.150
 6734POPC   C1A44895  26.785  43.087   6.450
 6734POPC   D2A44896  26.784  43.095   6.750
 6734POPC   C3A44897  26.838  43.105   7.050
 6734POPC   C4A44898  26.864  43.135   7.350
 6734POPC   C1B44899  26.969  43.302   6.450
 6734POPC   C2B44900  26.885  43.334   6.750
 6734POPC   C3B44901  26.893  43.372   7.050
 6734POPC   C4B44902  26.946  43.382   7.350
 6735POPC   NC344903  29.970  16.766   5.550
 6735POPC   PO444904  29.924  16.761   5.850
 6735POPC   GL144905  29.877  16.772   6.150
 6735POPC   GL244906  29.905  16.629   6.150
 6735POPC   C1A44907  29.882  16.759   6.450
 6735POPC   D2A44908  29.894  16.685   6.750
 6735POPC   C3A44909  29.961  16.748   7.050
 6735POPC   C4A44910  29.889  16.722   7.350
 6735POPC   C1B44911  29.934  16.475   6.450
 6735POPC   C2B44912  29.967  16.461   6.750
 6735POPC   C3B44913  29.930  16.501   7.050
 6735POPC   C4B44914  29.924  16.436   7.350
 6736POPC   NC344915  37.690  36.163   5.550
 6736POPC   PO444916  37.647  36.159   5.850
 6736POPC   GL144917  37.728  36.139   6.150
 6736POPC   GL244918  37.606  36.201   6.150
 6736POPC   C1A44919  37.631  36.146   6.450
 6736POPC   D2A44920  37.722  36.103   6.750
 6736POPC   C3A44921  37.669  36.145   7.050
 6736POPC   C4A44922  37.680  36.158   7.350
 6736POPC   C1B44923  37.497  36.257   6.450
 6736POPC   C2B44924  37.449  36.226   6.750
 6736POPC   C3B44925  37.455  36.224   7.050
 6736POPC   C4B44926  37.444  36.312   7.350
 6737POPC   NC344927  38.474  27.544   5.550
 6737POPC   PO444928  38.434  27.623   5.850
 6737POPC   GL144929  38.450  27.635   6.150
 6737POPC   GL244930  38.343  27.714   6.150
 6737POPC   C1A44931  38.470  27.595   6.450
 6737POPC   D2A44932  38.410  27.625   6.750
 6737POPC   C3A44933  38.445  27.574   7.050
 6737POPC   C4A44934  38.409  27.629   7.350
 6737POPC   C1B44935  38.266  27.714   6.450
 6737POPC   C2B44936  38.204  27.780   6.750
 6737POPC   C3B44937  38.236  27.782   7.050
 6737POPC   C4B44938  38.263  27.706   7.350
 6738POPC   NC344939  43.068   4.299   5.550
 6738POPC   PO444940  43.087   4.316   5.850
 6738POPC   GL144941  43.147   4.288   6.150
 6738POPC   GL244942  43.119   4.407   6.150
 6738POPC   C1A44943  43.119   4.277   6.450
 6738POPC   D2A44944  43.064   4.351   6.750
 6738POPC   C3A44945  43.113   4.361   7.050
 6738POPC   C4A44946  43.080   4.306   7.350
 6738POPC   C1B44947  43.117   4.601   6.450
 6738POPC   C2B44948  43.066   4.554   6.750
 6738POPC   C3B44949  43.132   4.553   7.050
 6738POPC   C4B44950  43.046   4.588   7.350
 6739POPC   NC344951   5.141  33.752   5.550
 6739POPC   PO444952   5.069  33.761   5.850
 6739POPC   GL144953   5.081  33.811   6.150
 6739POPC   GL244954   5.237  33.686   6.150
 6739POPC   C1A44955   5.080  33.819   6.450
 6739POPC   D2A44956   5.046  33.840   6.750
 6739POPC   C3A44957   5.112  33.814   7.050
 6739POPC   C4A44958   5.104  33.802   7.350
 6739POPC   C1B44959   5.300  33.648   6.450
 6739POPC   C2B44960   5.317  33.613   6.750
 6739POPC   C3B44961   5.328  33.630   7.050
 6739POPC   C4B44962   5.296  33.638   7.350
 6740POPC   NC344963  11.301  19.803   5.550
 6740POPC   PO444964  11.335  19.863   5.850
 6740POPC   GL144965  11.289  19.833   6.150
 6740POPC   GL244966  11.353  19.714   6.150
 6740POPC   C1A44967  11.260  19.823   6.450
 6740POPC   D2A44968  11.296  19.785   6.750
 6740POPC   C3A44969  11.339  19.798   7.050
 6740POPC   C4A44970  11.341  19.840   7.350
 6740POPC   C1B44971  11.445  19.710   6.450
 6740POPC   C2B44972  11.535  19.637   6.750
 6740POPC   C3B44973  11.461  19.634   7.050
 6740POPC   C4B44974  11.509  19.633   7.350
 6741POPC   NC344975   9.764  21.400   5.550
 6741POPC   PO444976   9.750  21.387   5.850
 6741POPC   GL144977   9.719  21.345   6.150
 6741POPC   GL244978   9.786  21.512   6.150
 6741POPC   C1A44979   9.703  21.406   6.450
 6741POPC   D2A44980   9.714  21.406   6.750
 6741POPC   C3A44981   9.766  21.392   7.050
 6741POPC   C4A44982   9.795  21.420   7.350
 6741POPC   C1B44983   9.791  21.639   6.450
 6741POPC   C2B44984   9.855  21.607   6.750
 6741POPC   C3B44985   9.793  21.584   7.050
 6741POPC   C4B44986   9.768  21.603   7.350
 6742POPC   NC344987   8.147   1.946   5.550
 6742POPC   PO444988   8.174   1.962   5.850
 6742POPC   GL144989   8.196   2.017   6.150
 6742POPC   GL244990   8.344   1.929   6.150
 6742POPC   C1A44991   8.183   2.024   6.450
 6742POPC   D2A44992   8.198   1.986   6.750
 6742POPC   C3A44993   8.209   1.987   7.050
 6742POPC   C4A44994   8.246   1.952   7.350
 6742POPC   C1B44995   8.441   1.877   6.450
 6742POPC   C2B44996   8.462   1.896   6.750
 6742POPC   C3B44997   8.430   1.857   7.050
 6742POPC   C4B44998   8.444   1.887   7.350
 6743POPC   NC344999   4.359  40.788   5.550
 6743POPC   PO445000   4.299  40.831   5.850
 6743POPC   GL145001   4.321  40.741   6.150
 6743POPC   GL245002   4.487  40.761   6.150
 6743POPC   C1A45003   4.329  40.790   6.450
 6743POPC   D2A45004   4.293  40.818   6.750
 6743POPC   C3A45005   4.318  40.779   7.050
 6743POPC   C4A45006   4.335  40.740   7.350
 6743POPC   C1B45007   4.585  40.780   6.450
 6743POPC   C2B45008   4.548  40.798   6.750
 6743POPC   C3B45009   4.538  40.766   7.050
 6743POPC   C4B45010   4.577  40.737   7.350
 6744POPC   NC345011  15.229  15.173   5.550
 6744POPC   PO445012  15.145  15.130   5.850
 6744POPC   GL145013  15.196  15.193   6.150
 6744POPC   GL245014  15.202  15.088   6.150
 6744POPC   C1A45015  15.192  15.140   6.450
 6744POPC   D2A45016  15.214  15.190   6.750
 6744POPC   C3A45017  15.158  15.186   7.050
 6744POPC   C4A45018  15.142  15.209   7.350
 6744POPC   C1B45019  15.308  14.997   6.450
 6744POPC   C2B45020  15.294  14.933   6.750
 6744POPC   C3B45021  15.294  14.933   7.050
 6744POPC   C4B45022  15.307  14.925   7.350
 6745POPC   NC345023  25.284   3.519   5.550
 6745POPC   PO445024  25.293   3.546   5.850
 6745POPC   GL145025  25.300   3.547   6.150
 6745POPC   GL245026  25.134   3.614   6.150
 6745POPC   C1A45027  25.239   3.580   6.450
 6745POPC   D2A45028  25.237   3.557   6.750
 6745POPC   C3A45029  25.292   3.569   7.050
 6745POPC   C4A45030  25.234   3.556   7.350
 6745POPC   C1B45031  25.044   3.698   6.450
 6745POPC   C2B45032  25.116   3.724   6.750
 6745POPC   C3B45033  25.063   3.695   7.050
 6745POPC   C4B45034  25.106   3.738   7.350
 6746POPC   NC345035   2.027   0.452   5.550
 6746POPC   PO445036   2.033   0.406   5.850
 6746POPC   GL145037   1.958   0.437   6.150
 6746POPC   GL245038   1.861   0.470   6.150
 6746POPC   C1A45039   1.944   0.466   6.450
 6746POPC   D2A45040   1.943   0.443   6.750
 6746POPC   C3A45041   1.995   0.478   7.050
 6746POPC   C4A45042   2.038   0.463   7.350
 6746POPC   C1B45043   1.692   0.449   6.450
 6746POPC   C2B45044   1.696   0.448   6.750
 6746POPC   C3B45045   1.761   0.373   7.050
 6746POPC   C4B45046   1.724   0.374   7.350
 6747POPC   NC345047  29.883  20.590   5.550
 6747POPC   PO445048  29.927  20.578   5.850
 6747POPC   GL145049  29.890  20.605   6.150
 6747POPC   GL245050  29.819  20.550   6.150
 6747POPC   C1A45051  29.885  20.620   6.450
 6747POPC   D2A45052  29.888  20.611   6.750
 6747POPC   C3A45053  29.927  20.644   7.050
 6747POPC   C4A45054  29.886  20.624   7.350
 6747POPC   C1B45055  29.785  20.397   6.450
 6747POPC   C2B45056  29.710  20.388   6.750
 6747POPC   C3B45057  29.778  20.435   7.050
 6747POPC   C4B45058  29.753  20.369   7.350
 6748POPC   NC345059  11.299  11.317   5.550
 6748POPC   PO445060  11.307  11.270   5.850
 6748POPC   GL145061  11.303  11.260   6.150
 6748POPC   GL245062  11.338  11.466   6.150
 6748POPC   C1A45063  11.288  11.292   6.450
 6748POPC   D2A45064  11.261  11.339   6.750
 6748POPC   C3A45065  11.293  11.258   7.050
 6748POPC   C4A45066  11.284  11.333   7.350
 6748POPC   C1B45067  11.333  11.569   6.450
 6748POPC   C2B45068  11.306  11.576   6.750
 6748POPC   C3B45069  11.338  11.515   7.050
 6748POPC   C4B45070  11.326  11.548   7.350
 6749POPC   NC345071  20.642  12.062   5.550
 6749POPC   PO445072  20.630  12.118   5.850
 6749POPC   GL145073  20.587  12.091   6.150
 6749POPC   GL245074  20.484  12.072   6.150
 6749POPC   C1A45075  20.593  12.046   6.450
 6749POPC   D2A45076  20.572  12.088   6.750
 6749POPC   C3A45077  20.657  12.064   7.050
 6749POPC   C4A45078  20.660  12.115   7.350
 6749POPC   C1B45079  20.336  12.067   6.450
 6749POPC   C2B45080  20.349  12.136   6.750
 6749POPC   C3B45081  20.401  12.082   7.050
 6749POPC   C4B45082  20.396  12.125   7.350
 6750POPC   NC345083   4.296  33.035   5.550
 6750POPC   PO445084   4.348  33.021   5.850
 6750POPC   GL145085   4.362  33.033   6.150
 6750POPC   GL245086   4.412  32.952   6.150
 6750POPC   C1A45087   4.284  33.071   6.450
 6750POPC   D2A45088   4.331  33.059   6.750
 6750POPC   C3A45089   4.351  32.984   7.050
 6750POPC   C4A45090   4.345  33.060   7.350
 6750POPC   C1B45091   4.499  32.862   6.450
 6750POPC   C2B45092   4.451  32.775   6.750
 6750POPC   C3B45093   4.418  32.772   7.050
 6750POPC   C4B45094   4.468  32.849   7.350
 6751POPC   NC345095  27.594   9.740   5.550
 6751POPC   PO445096  27.564   9.729   5.850
 6751POPC   GL145097  27.616   9.755   6.150
 6751POPC   GL245098  27.463   9.873   6.150
 6751POPC   C1A45099  27.593   9.733   6.450
 6751POPC   D2A45100  27.631   9.745   6.750
 6751POPC   C3A45101  27.543   9.726   7.050
 6751POPC   C4A45102  27.615   9.779   7.350
 6751POPC   C1B45103  27.449   9.954   6.450
 6751POPC   C2B45104  27.392   9.943   6.750
 6751POPC   C3B45105  27.420   9.880   7.050
 6751POPC   C4B45106  27.392   9.968   7.350
 6752POPC   NC345107  39.210   1.179   5.550
 6752POPC   PO445108  39.204   1.253   5.850
 6752POPC   GL145109  39.234   1.190   6.150
 6752POPC   GL245110  39.356   1.111   6.150
 6752POPC   C1A45111  39.214   1.171   6.450
 6752POPC   D2A45112  39.266   1.204   6.750
 6752POPC   C3A45113  39.218   1.244   7.050
 6752POPC   C4A45114  39.238   1.216   7.350
 6752POPC   C1B45115  39.406   1.003   6.450
 6752POPC   C2B45116  39.376   1.055   6.750
 6752POPC   C3B45117  39.343   1.030   7.050
 6752POPC   C4B45118  39.386   1.023   7.350
 6753POPC   NC345119   5.843   2.737   5.550
 6753POPC   PO445120   5.904   2.770   5.850
 6753POPC   GL145121   5.895   2.720   6.150
 6753POPC   GL245122   5.965   2.709   6.150
 6753POPC   C1A45123   5.892   2.720   6.450
 6753POPC   D2A45124   5.834   2.800   6.750
 6753POPC   C3A45125   5.840   2.755   7.050
 6753POPC   C4A45126   5.916   2.752   7.350
 6753POPC   C1B45127   6.124   2.730   6.450
 6753POPC   C2B45128   6.088   2.651   6.750
 6753POPC   C3B45129   6.111   2.664   7.050
 6753POPC   C4B45130   6.158   2.682   7.350
 6754POPC   NC345131  41.551  14.371   5.550
 6754POPC   PO445132  41.514  14.431   5.850
 6754POPC   GL145133  41.509  14.436   6.150
 6754POPC   GL245134  41.608  14.268   6.150
 6754POPC   C1A45135  41.566  14.355   6.450
 6754POPC   D2A45136  41.584  14.446   6.750
 6754POPC   C3A45137  41.515  14.378   7.050
 6754POPC   C4A45138  41.520  14.425   7.350
 6754POPC   C1B45139  41.525  14.150   6.450
 6754POPC   C2B45140  41.566  14.168   6.750
 6754POPC   C3B45141  41.540  14.152   7.050
 6754POPC   C4B45142  41.525  14.156   7.350
 6755POPC   NC345143  19.079  26.797   5.550
 6755POPC   PO445144  19.040  26.834   5.850
 6755POPC   GL145145  19.042  26.827   6.150
 6755POPC   GL245146  19.104  26.705   6.150
 6755POPC   C1A45147  19.070  26.861   6.450
 6755POPC   D2A45148  19.094  26.791   6.750
 6755POPC   C3A45149  19.098  26.770   7.050
 6755POPC   C4A45150  19.070  26.799   7.350
 6755POPC   C1B45151  19.114  26.612   6.450
 6755POPC   C2B45152  19.128  26.569   6.750
 6755POPC   C3B45153  19.102  26.534   7.050
 6755POPC   C4B45154  19.127  26.604   7.350
 6756POPC   NC345155  10.500  22.134   5.550
 6756POPC   PO445156  10.488  22.195   5.850
 6756POPC   GL145157  10.556  22.151   6.150
 6756POPC   GL245158  10.440  22.066   6.150
 6756POPC   C1A45159  10.529  22.133   6.450
 6756POPC   D2A45160  10.491  22.119   6.750
 6756POPC   C3A45161  10.571  22.127   7.050
 6756POPC   C4A45162  10.547  22.166   7.350
 6756POPC   C1B45163  10.255  22.021   6.450
 6756POPC   C2B45164  10.322  22.089   6.750
 6756POPC   C3B45165  10.309  22.048   7.050
 6756POPC   C4B45166  10.324  22.042   7.350
 6757POPC   NC345167  37.635  32.210   5.550
 6757POPC   PO445168  37.722  32.288   5.850
 6757POPC   GL145169  37.708  32.272   6.150
 6757POPC   GL245170  37.788  32.244   6.150
 6757POPC   C1A45171  37.669  32.269   6.450
 6757POPC   D2A45172  37.677  32.296   6.750
 6757POPC   C3A45173  37.708  32.253   7.050
 6757POPC   C4A45174  37.699  32.212   7.350
 6757POPC   C1B45175  37.880  32.249   6.450
 6757POPC   C2B45176  37.916  32.242   6.750
 6757POPC   C3B45177  37.902  32.212   7.050
 6757POPC   C4B45178  37.905  32.246   7.350
 6758POPC   NC345179  38.467  43.885   5.550
 6758POPC   PO445180  38.504  43.923   5.850
 6758POPC   GL145181  38.464  43.846   6.150
 6758POPC   GL245182  38.457  43.807   6.150
 6758POPC   C1A45183  38.501  43.848   6.450
 6758POPC   D2A45184  38.457  43.881   6.750
 6758POPC   C3A45185  38.444  43.893   7.050
 6758POPC   C4A45186  38.416  43.838   7.350
 6758POPC   C1B45187  38.432  43.669   6.450
 6758POPC   C2B45188  38.384  43.620   6.750
 6758POPC   C3B45189  38.371  43.623   7.050
 6758POPC   C4B45190  38.455  43.669   7.350
 6759POPC   NC345191  38.468  11.295   5.550
 6759POPC   PO445192  38.449  11.282   5.850
 6759POPC   GL145193  38.436  11.319   6.150
 6759POPC   GL245194  38.393  11.182   6.150
 6759POPC   C1A45195  38.455  11.329   6.450
 6759POPC   D2A45196  38.498  11.269   6.750
 6759POPC   C3A45197  38.480  11.260   7.050
 6759POPC   C4A45198  38.436  11.255   7.350
 6759POPC   C1B45199  38.333  11.094   6.450
 6759POPC   C2B45200  38.333  11.138   6.750
 6759POPC   C3B45201  38.333  11.139   7.050
 6759POPC   C4B45202  38.290  11.150   7.350
 6760POPC   NC345203  22.921  22.172   5.550
 6760POPC   PO445204  22.964  22.166   5.850
 6760POPC   GL145205  22.981  22.197   6.150
 6760POPC   GL245206  22.849  22.212   6.150
 6760POPC   C1A45207  22.917  22.205   6.450
 6760POPC   D2A45208  22.984  22.190   6.750
 6760POPC   C3A45209  22.908  22.134   7.050
 6760POPC   C4A45210  22.914  22.188   7.350
 6760POPC   C1B45211  22.718  22.380   6.450
 6760POPC   C2B45212  22.719  22.385   6.750
 6760POPC   C3B45213  22.712  22.308   7.050
 6760POPC   C4B45214  22.796  22.319   7.350
 6761POPC   NC345215   7.454  21.415   5.550
 6761POPC   PO445216   7.397  21.418   5.850
 6761POPC   GL145217   7.440  21.404   6.150
 6761POPC   GL245218   7.397  21.509   6.150
 6761POPC   C1A45219   7.393  21.420   6.450
 6761POPC   D2A45220   7.380  21.401   6.750
 6761POPC   C3A45221   7.441  21.430   7.050
 6761POPC   C4A45222   7.375  21.358   7.350
 6761POPC   C1B45223   7.289  21.554   6.450
 6761POPC   C2B45224   7.289  21.572   6.750
 6761POPC   C3B45225   7.271  21.616   7.050
 6761POPC   C4B45226   7.306  21.592   7.350
 6762POPC   NC345227  24.516  10.479   5.550
 6762POPC   PO445228  24.507  10.509   5.850
 6762POPC   GL145229  24.471  10.505   6.150
 6762POPC   GL245230  24.441  10.648   6.150
 6762POPC   C1A45231  24.464  10.566   6.450
 6762POPC   D2A45232  24.500  10.543   6.750
 6762POPC   C3A45233  24.519  10.526   7.050
 6762POPC   C4A45234  24.463  10.477   7.350
 6762POPC   C1B45235  24.482  10.774   6.450
 6762POPC   C2B45236  24.508  10.733   6.750
 6762POPC   C3B45237  24.521  10.796   7.050
 6762POPC   C4B45238  24.487  10.743   7.350
 6763POPC   NC345239   3.565   1.261   5.550
 6763POPC   PO445240   3.541   1.195   5.850
 6763POPC   GL145241   3.543   1.179   6.150
 6763POPC   GL245242   3.615   1.354   6.150
 6763POPC   C1A45243   3.553   1.179   6.450
 6763POPC   D2A45244   3.523   1.231   6.750
 6763POPC   C3A45245   3.563   1.232   7.050
 6763POPC   C4A45246   3.558   1.195   7.350
 6763POPC   C1B45247   3.555   1.480   6.450
 6763POPC   C2B45248   3.578   1.436   6.750
 6763POPC   C3B45249   3.599   1.429   7.050
 6763POPC   C4B45250   3.555   1.438   7.350
 6764POPC   NC345251  29.165   1.961   5.550
 6764POPC   PO445252  29.120   2.007   5.850
 6764POPC   GL145253  29.125   1.942   6.150
 6764POPC   GL245254  29.235   2.090   6.150
 6764POPC   C1A45255  29.140   1.973   6.450
 6764POPC   D2A45256  29.128   1.945   6.750
 6764POPC   C3A45257  29.099   1.987   7.050
 6764POPC   C4A45258  29.164   2.015   7.350
 6764POPC   C1B45259  29.355   2.181   6.450
 6764POPC   C2B45260  29.302   2.133   6.750
 6764POPC   C3B45261  29.270   2.155   7.050
 6764POPC   C4B45262  29.282   2.217   7.350
 6765POPC   NC345263   6.662  16.694   5.550
 6765POPC   PO445264   6.599  16.700   5.850
 6765POPC   GL145265   6.660  16.754   6.150
 6765POPC   GL245266   6.524  16.626   6.150
 6765POPC   C1A45267   6.659  16.714   6.450
 6765POPC   D2A45268   6.615  16.702   6.750
 6765POPC   C3A45269   6.633  16.779   7.050
 6765POPC   C4A45270   6.608  16.759   7.350
 6765POPC   C1B45271   6.462  16.623   6.450
 6765POPC   C2B45272   6.482  16.604   6.750
 6765POPC   C3B45273   6.491  16.563   7.050
 6765POPC   C4B45274   6.456  16.586   7.350
 6766POPC   NC345275  23.711  43.839   5.550
 6766POPC   PO445276  23.740  43.856   5.850
 6766POPC   GL145277  23.683  43.934   6.150
 6766POPC   GL245278  23.639  43.954   6.150
 6766POPC   C1A45279  23.679  43.859   6.450
 6766POPC   D2A45280  23.680  43.860   6.750
 6766POPC   C3A45281  23.732  43.859   7.050
 6766POPC   C4A45282  23.712  43.873   7.350
 6766POPC   C1B45283  23.570  44.149   6.450
 6766POPC   C2B45284  23.570  44.161   6.750
 6766POPC   C3B45285  23.632  44.114   7.050
 6766POPC   C4B45286  23.574  44.075   7.350
 6767POPC   NC345287  33.764  22.208   5.550
 6767POPC   PO445288  33.778  22.183   5.850
 6767POPC   GL145289  33.819  22.149   6.150
 6767POPC   GL245290  33.886  22.202   6.150
 6767POPC   C1A45291  33.810  22.192   6.450
 6767POPC   D2A45292  33.799  22.161   6.750
 6767POPC   C3A45293  33.762  22.185   7.050
 6767POPC   C4A45294  33.798  22.129   7.350
 6767POPC   C1B45295  34.088  22.187   6.450
 6767POPC   C2B45296  33.994  22.224   6.750
 6767POPC   C3B45297  34.079  22.278   7.050
 6767POPC   C4B45298  34.011  22.200   7.350
 6768POPC   NC345299  41.552  17.466   5.550
 6768POPC   PO445300  41.555  17.481   5.850
 6768POPC   GL145301  41.510  17.469   6.150
 6768POPC   GL245302  41.673  17.532   6.150
 6768POPC   C1A45303  41.599  17.479   6.450
 6768POPC   D2A45304  41.596  17.555   6.750
 6768POPC   C3A45305  41.515  17.524   7.050
 6768POPC   C4A45306  41.569  17.484   7.350
 6768POPC   C1B45307  41.824  17.517   6.450
 6768POPC   C2B45308  41.800  17.497   6.750
 6768POPC   C3B45309  41.847  17.522   7.050
 6768POPC   C4B45310  41.813  17.590   7.350
 6769POPC   NC345311  28.337  43.872   5.550
 6769POPC   PO445312  28.418  43.902   5.850
 6769POPC   GL145313  28.322  43.846   6.150
 6769POPC   GL245314  28.252  43.891   6.150
 6769POPC   C1A45315  28.340  43.854   6.450
 6769POPC   D2A45316  28.414  43.885   6.750
 6769POPC   C3A45317  28.416  43.928   7.050
 6769POPC   C4A45318  28.417  43.844   7.350
 6769POPC   C1B45319  28.139  43.778   6.450
 6769POPC   C2B45320  28.179  43.784   6.750
 6769POPC   C3B45321  28.118  43.775   7.050
 6769POPC   C4B45322  28.135  43.845   7.350
 6770POPC   NC345323  38.410   5.918   5.550
 6770POPC   PO445324  38.470   5.855   5.850
 6770POPC   GL145325  38.472   5.847   6.150
 6770POPC   GL245326  38.529   5.751   6.150
 6770POPC   C1A45327  38.484   5.877   6.450
 6770POPC   D2A45328  38.437   5.883   6.750
 6770POPC   C3A45329  38.440   5.906   7.050
 6770POPC   C4A45330  38.455   5.831   7.350
 6770POPC   C1B45331  38.595   5.680   6.450
 6770POPC   C2B45332  38.524   5.635   6.750
 6770POPC   C3B45333  38.544   5.637   7.050
 6770POPC   C4B45334  38.596   5.642   7.350
 6771POPC   NC345335  17.544  19.807   5.550
 6771POPC   PO445336  17.541  19.828   5.850
 6771POPC   GL145337  17.537  19.806   6.150
 6771POPC   GL245338  17.531  19.961   6.150
 6771POPC   C1A45339  17.549  19.883   6.450
 6771POPC   D2A45340  17.545  19.838   6.750
 6771POPC   C3A45341  17.481  19.828   7.050
 6771POPC   C4A45342  17.487  19.837   7.350
 6771POPC   C1B45343  17.604  20.037   6.450
 6771POPC   C2B45344  17.573  20.067   6.750
 6771POPC   C3B45345  17.619  20.061   7.050
 6771POPC   C4B45346  17.535  20.108   7.350
 6772POPC   NC345347   5.861  19.795   5.550
 6772POPC   PO445348   5.910  19.866   5.850
 6772POPC   GL145349   5.842  19.821   6.150
 6772POPC   GL245350   5.888  19.913   6.150
 6772POPC   C1A45351   5.878  19.831   6.450
 6772POPC   D2A45352   5.899  19.865   6.750
 6772POPC   C3A45353   5.917  19.789   7.050
 6772POPC   C4A45354   5.826  19.874   7.350
 6772POPC   C1B45355   5.875  20.102   6.450
 6772POPC   C2B45356   5.846  20.055   6.750
 6772POPC   C3B45357   5.883  20.052   7.050
 6772POPC   C4B45358   5.871  20.105   7.350
 6773POPC   NC345359  17.473  12.084   5.550
 6773POPC   PO445360  17.457  12.046   5.850
 6773POPC   GL145361  17.553  12.030   6.150
 6773POPC   GL245362  17.353  12.046   6.150
 6773POPC   C1A45363  17.504  12.062   6.450
 6773POPC   D2A45364  17.545  12.063   6.750
 6773POPC   C3A45365  17.506  12.048   7.050
 6773POPC   C4A45366  17.537  12.042   7.350
 6773POPC   C1B45367  17.212  12.076   6.450
 6773POPC   C2B45368  17.276  12.061   6.750
 6773POPC   C3B45369  17.263  12.027   7.050
 6773POPC   C4B45370  17.255  12.101   7.350
 6774POPC   NC345371  43.922  43.106   5.550
 6774POPC   PO445372  43.899  43.096   5.850
 6774POPC   GL145373  43.934  43.082   6.150
 6774POPC   GL245374  43.866  43.276   6.150
 6774POPC   C1A45375  43.850  43.111   6.450
 6774POPC   D2A45376  43.846  43.065   6.750
 6774POPC   C3A45377  43.893  43.073   7.050
 6774POPC   C4A45378  43.906  43.064   7.350
 6774POPC   C1B45379  43.940  43.311   6.450
 6774POPC   C2B45380  43.935  43.398   6.750
 6774POPC   C3B45381  43.926  43.363   7.050
 6774POPC   C4B45382  43.944  43.386   7.350
 6775POPC   NC345383  14.379  31.423   5.550
 6775POPC   PO445384  14.430  31.504   5.850
 6775POPC   GL145385  14.365  31.506   6.150
 6775POPC   GL245386  14.407  31.577   6.150
 6775POPC   C1A45387  14.365  31.452   6.450
 6775POPC   D2A45388  14.388  31.446   6.750
 6775POPC   C3A45389  14.374  31.424   7.050
 6775POPC   C4A45390  14.400  31.429   7.350
 6775POPC   C1B45391  14.272  31.718   6.450
 6775POPC   C2B45392  14.300  31.740   6.750
 6775POPC   C3B45393  14.351  31.745   7.050
 6775POPC   C4B45394  14.332  31.664   7.350
 6776POPC   NC345395  22.923   7.432   5.550
 6776POPC   PO445396  22.952   7.442   5.850
 6776POPC   GL145397  22.895   7.437   6.150
 6776POPC   GL245398  22.852   7.375   6.150
 6776POPC   C1A45399  22.930   7.456   6.450
 6776POPC   D2A45400  22.902   7.388   6.750
 6776POPC   C3A45401  22.920   7.380   7.050
 6776POPC   C4A45402  22.949   7.403   7.350
 6776POPC   C1B45403  22.772   7.296   6.450
 6776POPC   C2B45404  22.764   7.208   6.750
 6776POPC   C3B45405  22.717   7.256   7.050
 6776POPC   C4B45406  22.751   7.296   7.350
 6777POPC   NC345407  34.571   5.068   5.550
 6777POPC   PO445408  34.528   5.057   5.850
 6777POPC   GL145409  34.552   5.099   6.150
 6777POPC   GL245410  34.648   5.127   6.150
 6777POPC   C1A45411  34.540   5.133   6.450
 6777POPC   D2A45412  34.598   5.110   6.750
 6777POPC   C3A45413  34.536   5.126   7.050
 6777POPC   C4A45414  34.551   5.107   7.350
 6777POPC   C1B45415  34.761   5.177   6.450
 6777POPC   C2B45416  34.763   5.158   6.750
 6777POPC   C3B45417  34.755   5.199   7.050
 6777POPC   C4B45418  34.811   5.234   7.350
 6778POPC   NC345419  20.628  29.111   5.550
 6778POPC   PO445420  20.645  29.160   5.850
 6778POPC   GL145421  20.660  29.107   6.150
 6778POPC   GL245422  20.492  29.214   6.150
 6778POPC   C1A45423  20.611  29.113   6.450
 6778POPC   D2A45424  20.580  29.120   6.750
 6778POPC   C3A45425  20.572  29.134   7.050
 6778POPC   C4A45426  20.561  29.138   7.350
 6778POPC   C1B45427  20.334  29.233   6.450
 6778POPC   C2B45428  20.336  29.231   6.750
 6778POPC   C3B45429  20.373  29.258   7.050
 6778POPC   C4B45430  20.335  29.222   7.350
 6779POPC   NC345431  40.043  41.575   5.550
 6779POPC   PO445432  40.053  41.564   5.850
 6779POPC   GL145433  39.998  41.513   6.150
 6779POPC   GL245434  40.106  41.553   6.150
 6779POPC   C1A45435  40.050  41.568   6.450
 6779POPC   D2A45436  39.981  41.552   6.750
 6779POPC   C3A45437  40.024  41.598   7.050
 6779POPC   C4A45438  40.002  41.585   7.350
 6779POPC   C1B45439  40.210  41.523   6.450
 6779POPC   C2B45440  40.275  41.523   6.750
 6779POPC   C3B45441  40.260  41.526   7.050
 6779POPC   C4B45442  40.220  41.519   7.350
 6780POPC   NC345443   4.339  33.820   5.550
 6780POPC   PO445444   4.315  33.834   5.850
 6780POPC   GL145445   4.295  33.777   6.150
 6780POPC   GL245446   4.154  33.729   6.150
 6780POPC   C1A45447   4.297  33.831   6.450
 6780POPC   D2A45448   4.291  33.755   6.750
 6780POPC   C3A45449   4.310  33.755   7.050
 6780POPC   C4A45450   4.282  33.778   7.350
 6780POPC   C1B45451   4.093  33.743   6.450
 6780POPC   C2B45452   4.067  33.724   6.750
 6780POPC   C3B45453   4.088  33.750   7.050
 6780POPC   C4B45454   4.036  33.710   7.350
 6781POPC   NC345455  25.239  14.439   5.550
 6781POPC   PO445456  25.303  14.377   5.850
 6781POPC   GL145457  25.310  14.405   6.150
 6781POPC   GL245458  25.131  14.326   6.150
 6781POPC   C1A45459  25.285  14.359   6.450
 6781POPC   D2A45460  25.263  14.357   6.750
 6781POPC   C3A45461  25.292  14.396   7.050
 6781POPC   C4A45462  25.241  14.383   7.350
 6781POPC   C1B45463  25.022  14.326   6.450
 6781POPC   C2B45464  25.039  14.335   6.750
 6781POPC   C3B45465  25.032  14.297   7.050
 6781POPC   C4B45466  25.018  14.355   7.350
 6782POPC   NC345467  31.507  21.357   5.550
 6782POPC   PO445468  31.455  21.389   5.850
 6782POPC   GL145469  31.437  21.404   6.150
 6782POPC   GL245470  31.345  21.455   6.150
 6782POPC   C1A45471  31.511  21.363   6.450
 6782POPC   D2A45472  31.466  21.346   6.750
 6782POPC   C3A45473  31.437  21.346   7.050
 6782POPC   C4A45474  31.492  21.344   7.350
 6782POPC   C1B45475  31.258  21.445   6.450
 6782POPC   C2B45476  31.221  21.512   6.750
 6782POPC   C3B45477  31.253  21.523   7.050
 6782POPC   C4B45478  31.283  21.497   7.350
 6783POPC   NC345479  27.547  29.127   5.550
 6783POPC   PO445480  27.590  29.154   5.850
 6783POPC   GL145481  27.639  29.156   6.150
 6783POPC   GL245482  27.572  28.982   6.150
 6783POPC   C1A45483  27.602  29.150   6.450
 6783POPC   D2A45484  27.548  29.149   6.750
 6783POPC   C3A45485  27.613  29.137   7.050
 6783POPC   C4A45486  27.634  29.192   7.350
 6783POPC   C1B45487  27.581  28.912   6.450
 6783POPC   C2B45488  27.519  28.852   6.750
 6783POPC   C3B45489  27.515  28.867   7.050
 6783POPC   C4B45490  27.578  28.928   7.350
 6784POPC   NC345491   0.425  39.961   5.550
 6784POPC   PO445492   0.404  40.010   5.850
 6784POPC   GL145493   0.440  39.979   6.150
 6784POPC   GL245494   0.319  40.055   6.150
 6784POPC   C1A45495   0.428  40.025   6.450
 6784POPC   D2A45496   0.431  40.056   6.750
 6784POPC   C3A45497   0.450  40.054   7.050
 6784POPC   C4A45498   0.427  39.968   7.350
 6784POPC   C1B45499   0.264  40.170   6.450
 6784POPC   C2B45500   0.211  40.198   6.750
 6784POPC   C3B45501   0.228  40.209   7.050
 6784POPC   C4B45502   0.223  40.198   7.350
 6785POPC   NC345503   8.967   9.790   5.550
 6785POPC   PO445504   8.976   9.796   5.850
 6785POPC   GL145505   8.977   9.748   6.150
 6785POPC   GL245506   8.809   9.678   6.150
 6785POPC   C1A45507   8.989   9.786   6.450
 6785POPC   D2A45508   8.966   9.764   6.750
 6785POPC   C3A45509   8.964   9.755   7.050
 6785POPC   C4A45510   8.963   9.726   7.350
 6785POPC   C1B45511   8.697   9.738   6.450
 6785POPC   C2B45512   8.729   9.703   6.750
 6785POPC   C3B45513   8.746   9.742   7.050
 6785POPC   C4B45514   8.696   9.740   7.350
 6786POPC   NC345515  33.018  28.410   5.550
 6786POPC   PO445516  33.074  28.390   5.850
 6786POPC   GL145517  33.048  28.399   6.150
 6786POPC   GL245518  33.141  28.352   6.150
 6786POPC   C1A45519  33.049  28.348   6.450
 6786POPC   D2A45520  33.053  28.370   6.750
 6786POPC   C3A45521  33.064  28.375   7.050
 6786POPC   C4A45522  33.068  28.328   7.350
 6786POPC   C1B45523  33.268  28.418   6.450
 6786POPC   C2B45524  33.281  28.352   6.750
 6786POPC   C3B45525  33.223  28.367   7.050
 6786POPC   C4B45526  33.301  28.445   7.350
 6787POPC   NC345527  29.177   7.449   5.550
 6787POPC   PO445528  29.096   7.419   5.850
 6787POPC   GL145529  29.161   7.382   6.150
 6787POPC   GL245530  29.191   7.526   6.150
 6787POPC   C1A45531  29.161   7.446   6.450
 6787POPC   D2A45532  29.099   7.381   6.750
 6787POPC   C3A45533  29.128   7.451   7.050
 6787POPC   C4A45534  29.166   7.457   7.350
 6787POPC   C1B45535  29.274   7.622   6.450
 6787POPC   C2B45536  29.229   7.651   6.750
 6787POPC   C3B45537  29.262   7.682   7.050
 6787POPC   C4B45538  29.234   7.634   7.350
 6788POPC   NC345539   2.767  37.728   5.550
 6788POPC   PO445540   2.777  37.714   5.850
 6788POPC   GL145541   2.809  37.690   6.150
 6788POPC   GL245542   2.643  37.713   6.150
 6788POPC   C1A45543   2.797  37.663   6.450
 6788POPC   D2A45544   2.786  37.649   6.750
 6788POPC   C3A45545   2.815  37.706   7.050
 6788POPC   C4A45546   2.716  37.676   7.350
 6788POPC   C1B45547   2.563  37.721   6.450
 6788POPC   C2B45548   2.537  37.700   6.750
 6788POPC   C3B45549   2.476  37.718   7.050
 6788POPC   C4B45550   2.548  37.757   7.350
 6789POPC   NC345551  29.192  44.683   5.550
 6789POPC   PO445552  29.132  44.677   5.850
 6789POPC   GL145553  29.119  44.710   6.150
 6789POPC   GL245554  29.056  44.695   6.150
 6789POPC   C1A45555  29.139  44.627   6.450
 6789POPC   D2A45556  29.149  44.705   6.750
 6789POPC   C3A45557  29.115  44.617   7.050
 6789POPC   C4A45558  29.129  44.672   7.350
 6789POPC   C1B45559  28.967  44.792   6.450
 6789POPC   C2B45560  28.975  44.871   6.750
 6789POPC   C3B45561  28.948  44.858   7.050
 6789POPC   C4B45562  28.973  44.864   7.350
 6790POPC   NC345563  22.978  19.103   5.550
 6790POPC   PO445564  22.932  19.025   5.850
 6790POPC   GL145565  22.943  19.073   6.150
 6790POPC   GL245566  22.814  19.006   6.150
 6790POPC   C1A45567  22.915  19.101   6.450
 6790POPC   D2A45568  22.936  19.099   6.750
 6790POPC   C3A45569  22.973  19.017   7.050
 6790POPC   C4A45570  22.915  19.016   7.350
 6790POPC   C1B45571  22.658  19.024   6.450
 6790POPC   C2B45572  22.704  18.996   6.750
 6790POPC   C3B45573  22.717  19.021   7.050
 6790POPC   C4B45574  22.683  19.064   7.350
 6791POPC   NC345575  29.962  28.330   5.550
 6791POPC   PO445576  29.922  28.407   5.850
 6791POPC   GL145577  29.908  28.340   6.150
 6791POPC   GL245578  29.835  28.446   6.150
 6791POPC   C1A45579  29.969  28.328   6.450
 6791POPC   D2A45580  29.880  28.399   6.750
 6791POPC   C3A45581  29.951  28.332   7.050
 6791POPC   C4A45582  29.875  28.346   7.350
 6791POPC   C1B45583  29.811  28.584   6.450
 6791POPC   C2B45584  29.792  28.552   6.750
 6791POPC   C3B45585  29.818  28.558   7.050
 6791POPC   C4B45586  29.863  28.633   7.350
 6792POPC   NC345587  44.627  41.578   5.550
 6792POPC   PO445588  44.701  41.588   5.850
 6792POPC   GL145589  44.642  41.513   6.150
 6792POPC   GL245590  44.559  41.659   6.150
 6792POPC   C1A45591  44.676  41.529   6.450
 6792POPC   D2A45592  44.684  41.569   6.750
 6792POPC   C3A45593  44.709  41.583   7.050
 6792POPC   C4A45594  44.640  41.561   7.350
 6792POPC   C1B45595  44.505  41.790   6.450
 6792POPC   C2B45596  44.581  41.772   6.750
 6792POPC   C3B45597  44.499  41.766   7.050
 6792POPC   C4B45598  44.509  41.768   7.350
 6793POPC   NC345599  32.212  33.800   5.550
 6793POPC   PO445600  32.253  33.784   5.850
 6793POPC   GL145601  32.279  33.763   6.150
 6793POPC   GL245602  32.226  33.896   6.150
 6793POPC   C1A45603  32.280  33.836   6.450
 6793POPC   D2A45604  32.249  33.799   6.750
 6793POPC   C3A45605  32.209  33.824   7.050
 6793POPC   C4A45606  32.298  33.803   7.350
 6793POPC   C1B45607  32.223  34.081   6.450
 6793POPC   C2B45608  32.191  34.058   6.750
 6793POPC   C3B45609  32.205  34.042   7.050
 6793POPC   C4B45610  32.238  34.049   7.350
 6794POPC   NC345611  24.479  22.162   5.550
 6794POPC   PO445612  24.462  22.139   5.850
 6794POPC   GL145613  24.471  22.165   6.150
 6794POPC   GL245614  24.582  22.243   6.150
 6794POPC   C1A45615  24.494  22.182   6.450
 6794POPC   D2A45616  24.491  22.182   6.750
 6794POPC   C3A45617  24.516  22.152   7.050
 6794POPC   C4A45618  24.484  22.133   7.350
 6794POPC   C1B45619  24.681  22.269   6.450
 6794POPC   C2B45620  24.740  22.343   6.750
 6794POPC   C3B45621  24.741  22.319   7.050
 6794POPC   C4B45622  24.662  22.335   7.350
 6795POPC   NC345623  19.022  30.704   5.550
 6795POPC   PO445624  19.026  30.675   5.850
 6795POPC   GL145625  19.061  30.746   6.150
 6795POPC   GL245626  18.890  30.737   6.150
 6795POPC   C1A45627  19.068  30.648   6.450
 6795POPC   D2A45628  19.076  30.733   6.750
 6795POPC   C3A45629  19.009  30.662   7.050
 6795POPC   C4A45630  19.095  30.682   7.350
 6795POPC   C1B45631  18.772  30.660   6.450
 6795POPC   C2B45632  18.834  30.691   6.750
 6795POPC   C3B45633  18.776  30.735   7.050
 6795POPC   C4B45634  18.759  30.721   7.350
 6796POPC   NC345635   1.969  42.320   5.550
 6796POPC   PO445636   2.029  42.379   5.850
 6796POPC   GL145637   1.966  42.311   6.150
 6796POPC   GL245638   2.021  42.199   6.150
 6796POPC   C1A45639   2.014  42.350   6.450
 6796POPC   D2A45640   1.985  42.328   6.750
 6796POPC   C3A45641   2.031  42.368   7.050
 6796POPC   C4A45642   2.029  42.305   7.350
 6796POPC   C1B45643   1.956  42.116   6.450
 6796POPC   C2B45644   1.981  42.045   6.750
 6796POPC   C3B45645   1.919  42.128   7.050
 6796POPC   C4B45646   1.930  42.132   7.350
 6797POPC   NC345647  39.192  37.662   5.550
 6797POPC   PO445648  39.204  37.703   5.850
 6797POPC   GL145649  39.187  37.653   6.150
 6797POPC   GL245650  39.301  37.602   6.150
 6797POPC   C1A45651  39.266  37.707   6.450
 6797POPC   D2A45652  39.280  37.633   6.750
 6797POPC   C3A45653  39.252  37.669   7.050
 6797POPC   C4A45654  39.245  37.713   7.350
 6797POPC   C1B45655  39.477  37.550   6.450
 6797POPC   C2B45656  39.489  37.523   6.750
 6797POPC   C3B45657  39.408  37.504   7.050
 6797POPC   C4B45658  39.473  37.553   7.350
 6798POPC   NC345659  15.200  22.911   5.550
 6798POPC   PO445660  15.130  22.918   5.850
 6798POPC   GL145661  15.221  22.970   6.150
 6798POPC   GL245662  15.027  22.912   6.150
 6798POPC   C1A45663  15.215  22.927   6.450
 6798POPC   D2A45664  15.184  22.916   6.750
 6798POPC   C3A45665  15.211  22.970   7.050
 6798POPC   C4A45666  15.202  22.906   7.350
 6798POPC   C1B45667  14.918  22.986   6.450
 6798POPC   C2B45668  14.927  22.936   6.750
 6798POPC   C3B45669  14.898  22.953   7.050
 6798POPC   C4B45670  14.928  23.003   7.350
 6799POPC   NC345671  38.441  33.839   5.550
 6799POPC   PO445672  38.406  33.827   5.850
 6799POPC   GL145673  38.479  33.830   6.150
 6799POPC   GL245674  38.355  33.867   6.150
 6799POPC   C1A45675  38.417  33.829   6.450
 6799POPC   D2A45676  38.464  33.750   6.750
 6799POPC   C3A45677  38.485  33.835   7.050
 6799POPC   C4A45678  38.411  33.830   7.350
 6799POPC   C1B45679  38.230  33.898   6.450
 6799POPC   C2B45680  38.216  33.896   6.750
 6799POPC   C3B45681  38.259  33.937   7.050
 6799POPC   C4B45682  38.240  33.883   7.350
 6800POPC   NC345683  31.474  15.204   5.550
 6800POPC   PO445684  31.447  15.134   5.850
 6800POPC   GL145685  31.509  15.129   6.150
 6800POPC   GL245686  31.573  15.182   6.150
 6800POPC   C1A45687  31.481  15.202   6.450
 6800POPC   D2A45688  31.486  15.156   6.750
 6800POPC   C3A45689  31.505  15.140   7.050
 6800POPC   C4A45690  31.478  15.144   7.350
 6800POPC   C1B45691  31.693  15.141   6.450
 6800POPC   C2B45692  31.693  15.133   6.750
 6800POPC   C3B45693  31.730  15.194   7.050
 6800POPC   C4B45694  31.732  15.177   7.350
 6801POPC   NC345695   2.815  12.856   5.550
 6801POPC   PO445696   2.750  12.863   5.850
 6801POPC   GL145697   2.727  12.884   6.150
 6801POPC   GL245698   2.924  12.857   6.150
 6801POPC   C1A45699   2.746  12.837   6.450
 6801POPC   D2A45700   2.768  12.864   6.750
 6801POPC   C3A45701   2.718  12.842   7.050
 6801POPC   C4A45702   2.721  12.834   7.350
 6801POPC   C1B45703   3.049  12.914   6.450
 6801POPC   C2B45704   2.973  12.878   6.750
 6801POPC   C3B45705   3.048  12.940   7.050
 6801POPC   C4B45706   3.018  12.891   7.350
 6802POPC   NC345707  12.121  40.826   5.550
 6802POPC   PO445708  12.072  40.768   5.850
 6802POPC   GL145709  12.049  40.826   6.150
 6802POPC   GL245710  12.026  40.679   6.150
 6802POPC   C1A45711  12.030  40.821   6.450
 6802POPC   D2A45712  12.113  40.734   6.750
 6802POPC   C3A45713  12.048  40.745   7.050
 6802POPC   C4A45714  12.103  40.820   7.350
 6802POPC   C1B45715  11.886  40.611   6.450
 6802POPC   C2B45716  11.927  40.602   6.750
 6802POPC   C3B45717  11.852  40.622   7.050
 6802POPC   C4B45718  11.929  40.644   7.350
 6803POPC   NC345719  43.085  30.653   5.550
 6803POPC   PO445720  43.157  30.727   5.850
 6803POPC   GL145721  43.133  30.654   6.150
 6803POPC   GL245722  43.133  30.767   6.150
 6803POPC   C1A45723  43.151  30.675   6.450
 6803POPC   D2A45724  43.098  30.726   6.750
 6803POPC   C3A45725  43.072  30.680   7.050
 6803POPC   C4A45726  43.136  30.730   7.350
 6803POPC   C1B45727  43.195  30.936   6.450
 6803POPC   C2B45728  43.211  30.943   6.750
 6803POPC   C3B45729  43.188  30.938   7.050
 6803POPC   C4B45730  43.245  30.873   7.350
 6804POPC   NC345731  29.919  37.681   5.550
 6804POPC   PO445732  29.888  37.633   5.850
 6804POPC   GL145733  29.933  37.689   6.150
 6804POPC   GL245734  29.798  37.763   6.150
 6804POPC   C1A45735  29.904  37.670   6.450
 6804POPC   D2A45736  29.951  37.659   6.750
 6804POPC   C3A45737  29.949  37.679   7.050
 6804POPC   C4A45738  29.886  37.687   7.350
 6804POPC   C1B45739  29.740  37.874   6.450
 6804POPC   C2B45740  29.737  37.821   6.750
 6804POPC   C3B45741  29.709  37.840   7.050
 6804POPC   C4B45742  29.699  37.820   7.350
 6805POPC   NC345743  35.381  29.894   5.550
 6805POPC   PO445744  35.328  29.936   5.850
 6805POPC   GL145745  35.366  29.959   6.150
 6805POPC   GL245746  35.425  30.045   6.150
 6805POPC   C1A45747  35.385  29.947   6.450
 6805POPC   D2A45748  35.305  29.961   6.750
 6805POPC   C3A45749  35.338  29.889   7.050
 6805POPC   C4A45750  35.400  29.968   7.350
 6805POPC   C1B45751  35.491  30.102   6.450
 6805POPC   C2B45752  35.439  30.177   6.750
 6805POPC   C3B45753  35.460  30.145   7.050
 6805POPC   C4B45754  35.441  30.126   7.350
 6806POPC   NC345755  34.541   8.199   5.550
 6806POPC   PO445756  34.557   8.210   5.850
 6806POPC   GL145757  34.596   8.175   6.150
 6806POPC   GL245758  34.591   8.054   6.150
 6806POPC   C1A45759  34.590   8.224   6.450
 6806POPC   D2A45760  34.541   8.149   6.750
 6806POPC   C3A45761  34.542   8.190   7.050
 6806POPC   C4A45762  34.610   8.246   7.350
 6806POPC   C1B45763  34.635   7.912   6.450
 6806POPC   C2B45764  34.678   7.946   6.750
 6806POPC   C3B45765  34.620   7.955   7.050
 6806POPC   C4B45766  34.693   7.918   7.350
 6807POPC   NC345767  16.743  24.496   5.550
 6807POPC   PO445768  16.756  24.460   5.850
 6807POPC   GL145769  16.770  24.451   6.150
 6807POPC   GL245770  16.645  24.594   6.150
 6807POPC   C1A45771  16.706  24.494   6.450
 6807POPC   D2A45772  16.730  24.497   6.750
 6807POPC   C3A45773  16.756  24.484   7.050
 6807POPC   C4A45774  16.718  24.507   7.350
 6807POPC   C1B45775  16.577  24.647   6.450
 6807POPC   C2B45776  16.566  24.629   6.750
 6807POPC   C3B45777  16.530  24.632   7.050
 6807POPC   C4B45778  16.503  24.640   7.350
 6808POPC   NC345779  34.570  42.326   5.550
 6808POPC   PO445780  34.612  42.362   5.850
 6808POPC   GL145781  34.625  42.327   6.150
 6808POPC   GL245782  34.694  42.297   6.150
 6808POPC   C1A45783  34.543  42.348   6.450
 6808POPC   D2A45784  34.587  42.365   6.750
 6808POPC   C3A45785  34.546  42.316   7.050
 6808POPC   C4A45786  34.592  42.290   7.350
 6808POPC   C1B45787  34.799  42.324   6.450
 6808POPC   C2B45788  34.783  42.365   6.750
 6808POPC   C3B45789  34.858  42.347   7.050
 6808POPC   C4B45790  34.822  42.396   7.350
 6809POPC   NC345791  15.142  43.089   5.550
 6809POPC   PO445792  15.159  43.094   5.850
 6809POPC   GL145793  15.188  43.149   6.150
 6809POPC   GL245794  15.273  43.012   6.150
 6809POPC   C1A45795  15.204  43.095   6.450
 6809POPC   D2A45796  15.186  43.154   6.750
 6809POPC   C3A45797  15.224  43.156   7.050
 6809POPC   C4A45798  15.143  43.074   7.350
 6809POPC   C1B45799  15.416  42.950   6.450
 6809POPC   C2B45800  15.422  42.997   6.750
 6809POPC   C3B45801  15.359  43.018   7.050
 6809POPC   C4B45802  15.444  43.033   7.350
 6810POPC   NC345803  33.824  15.906   5.550
 6810POPC   PO445804  33.772  15.932   5.850
 6810POPC   GL145805  33.763  15.988   6.150
 6810POPC   GL245806  33.920  16.071   6.150
 6810POPC   C1A45807  33.838  15.945   6.450
 6810POPC   D2A45808  33.790  15.936   6.750
 6810POPC   C3A45809  33.757  15.971   7.050
 6810POPC   C4A45810  33.754  15.949   7.350
 6810POPC   C1B45811  33.964  16.155   6.450
 6810POPC   C2B45812  33.996  16.169   6.750
 6810POPC   C3B45813  33.982  16.168   7.050
 6810POPC   C4B45814  33.948  16.100   7.350
 6811POPC   NC345815  12.047   6.682   5.550
 6811POPC   PO445816  12.089   6.655   5.850
 6811POPC   GL145817  12.079   6.655   6.150
 6811POPC   GL245818  12.087   6.791   6.150
 6811POPC   C1A45819  12.120   6.660   6.450
 6811POPC   D2A45820  12.121   6.672   6.750
 6811POPC   C3A45821  12.091   6.689   7.050
 6811POPC   C4A45822  12.095   6.613   7.350
 6811POPC   C1B45823  12.069   6.927   6.450
 6811POPC   C2B45824  12.078   6.862   6.750
 6811POPC   C3B45825  12.164   6.892   7.050
 6811POPC   C4B45826  12.138   6.869   7.350
 6812POPC   NC345827   7.384   1.185   5.550
 6812POPC   PO445828   7.380   1.215   5.850
 6812POPC   GL145829   7.390   1.194   6.150
 6812POPC   GL245830   7.583   1.274   6.150
 6812POPC   C1A45831   7.381   1.218   6.450
 6812POPC   D2A45832   7.417   1.212   6.750
 6812POPC   C3A45833   7.440   1.206   7.050
 6812POPC   C4A45834   7.382   1.254   7.350
 6812POPC   C1B45835   7.627   1.235   6.450
 6812POPC   C2B45836   7.631   1.275   6.750
 6812POPC   C3B45837   7.703   1.210   7.050
 6812POPC   C4B45838   7.626   1.272   7.350
 6813POPC   NC345839  15.169  19.852   5.550
 6813POPC   PO445840  15.220  19.808   5.850
 6813POPC   GL145841  15.175  19.811   6.150
 6813POPC   GL245842  15.118  19.712   6.150
 6813POPC   C1A45843  15.170  19.883   6.450
 6813POPC   D2A45844  15.184  19.884   6.750
 6813POPC   C3A45845  15.143  19.872   7.050
 6813POPC   C4A45846  15.200  19.833   7.350
 6813POPC   C1B45847  15.157  19.584   6.450
 6813POPC   C2B45848  15.094  19.550   6.750
 6813POPC   C3B45849  15.120  19.593   7.050
 6813POPC   C4B45850  15.130  19.610   7.350
 6814POPC   NC345851   1.253  31.516   5.550
 6814POPC   PO445852   1.242  31.504   5.850
 6814POPC   GL145853   1.217  31.437   6.150
 6814POPC   GL245854   1.293  31.578   6.150
 6814POPC   C1A45855   1.167  31.493   6.450
 6814POPC   D2A45856   1.263  31.452   6.750
 6814POPC   C3A45857   1.240  31.474   7.050
 6814POPC   C4A45858   1.201  31.431   7.350
 6814POPC   C1B45859   1.257  31.684   6.450
 6814POPC   C2B45860   1.315  31.659   6.750
 6814POPC   C3B45861   1.277  31.688   7.050
 6814POPC   C4B45862   1.316  31.730   7.350
 6815POPC   NC345863   5.902  23.716   5.550
 6815POPC   PO445864   5.862  23.730   5.850
 6815POPC   GL145865   5.899  23.747   6.150
 6815POPC   GL245866   6.012  23.744   6.150
 6815POPC   C1A45867   5.840  23.759   6.450
 6815POPC   D2A45868   5.888  23.707   6.750
 6815POPC   C3A45869   5.905  23.747   7.050
 6815POPC   C4A45870   5.877  23.715   7.350
 6815POPC   C1B45871   6.129  23.776   6.450
 6815POPC   C2B45872   6.141  23.805   6.750
 6815POPC   C3B45873   6.118  23.815   7.050
 6815POPC   C4B45874   6.151  23.738   7.350
 6816POPC   NC345875  15.209  12.856   5.550
 6816POPC   PO445876  15.218  12.856   5.850
 6816POPC   GL145877  15.191  12.861   6.150
 6816POPC   GL245878  15.038  12.752   6.150
 6816POPC   C1A45879  15.155  12.891   6.450
 6816POPC   D2A45880  15.131  12.864   6.750
 6816POPC   C3A45881  15.153  12.820   7.050
 6816POPC   C4A45882  15.228  12.857   7.350
 6816POPC   C1B45883  14.964  12.668   6.450
 6816POPC   C2B45884  14.951  12.707   6.750
 6816POPC   C3B45885  15.008  12.754   7.050
 6816POPC   C4B45886  14.940  12.729   7.350
 6817POPC   NC345887   9.776  29.915   5.550
 6817POPC   PO445888   9.764  29.898   5.850
 6817POPC   GL145889   9.798  29.873   6.150
 6817POPC   GL245890   9.911  29.979   6.150
 6817POPC   C1A45891   9.738  29.915   6.450
 6817POPC   D2A45892   9.774  29.888   6.750
 6817POPC   C3A45893   9.764  29.893   7.050
 6817POPC   C4A45894   9.727  29.908   7.350
 6817POPC   C1B45895   9.956  30.023   6.450
 6817POPC   C2B45896  10.027  30.014   6.750
 6817POPC   C3B45897  10.015  30.062   7.050
 6817POPC   C4B45898   9.937  30.029   7.350
 6818POPC   NC345899   5.100  10.572   5.550
 6818POPC   PO445900   5.080  10.548   5.850
 6818POPC   GL145901   5.047  10.501   6.150
 6818POPC   GL245902   5.046  10.683   6.150
 6818POPC   C1A45903   5.101  10.503   6.450
 6818POPC   D2A45904   5.103  10.523   6.750
 6818POPC   C3A45905   5.108  10.569   7.050
 6818POPC   C4A45906   5.086  10.523   7.350
 6818POPC   C1B45907   5.083  10.723   6.450
 6818POPC   C2B45908   4.989  10.725   6.750
 6818POPC   C3B45909   5.037  10.738   7.050
 6818POPC   C4B45910   5.037  10.745   7.350
 6819POPC   NC345911   7.377  30.667   5.550
 6819POPC   PO445912   7.446  30.683   5.850
 6819POPC   GL145913   7.372  30.689   6.150
 6819POPC   GL245914   7.263  30.694   6.150
 6819POPC   C1A45915   7.456  30.702   6.450
 6819POPC   D2A45916   7.404  30.700   6.750
 6819POPC   C3A45917   7.390  30.708   7.050
 6819POPC   C4A45918   7.385  30.674   7.350
 6819POPC   C1B45919   7.205  30.631   6.450
 6819POPC   C2B45920   7.212  30.669   6.750
 6819POPC   C3B45921   7.134  30.677   7.050
 6819POPC   C4B45922   7.223  30.660   7.350
 6820POPC   NC345923  30.653  29.106   5.550
 6820POPC   PO445924  30.735  29.123   5.850
 6820POPC   GL145925  30.714  29.132   6.150
 6820POPC   GL245926  30.796  29.067   6.150
 6820POPC   C1A45927  30.722  29.151   6.450
 6820POPC   D2A45928  30.728  29.176   6.750
 6820POPC   C3A45929  30.734  29.135   7.050
 6820POPC   C4A45930  30.698  29.118   7.350
 6820POPC   C1B45931  30.869  28.969   6.450
 6820POPC   C2B45932  30.893  28.911   6.750
 6820POPC   C3B45933  30.822  28.960   7.050
 6820POPC   C4B45934  30.823  28.948   7.350
 6821POPC   NC345935  43.876  31.437   5.550
 6821POPC   PO445936  43.877  31.490   5.850
 6821POPC   GL145937  43.891  31.502   6.150
 6821POPC   GL245938  43.803  31.452   6.150
 6821POPC   C1A45939  43.909  31.460   6.450
 6821POPC   D2A45940  43.849  31.503   6.750
 6821POPC   C3A45941  43.900  31.452   7.050
 6821POPC   C4A45942  43.864  31.470   7.350
 6821POPC   C1B45943  43.649  31.381   6.450
 6821POPC   C2B45944  43.648  31.389   6.750
 6821POPC   C3B45945  43.648  31.448   7.050
 6821POPC   C4B45946  43.673  31.419   7.350
 6822POPC   NC345947  38.482   5.093   5.550
 6822POPC   PO445948  38.467   5.078   5.850
 6822POPC   GL145949  38.411   5.085   6.150
 6822POPC   GL245950  38.393   5.207   6.150
 6822POPC   C1A45951  38.447   5.100   6.450
 6822POPC   D2A45952  38.441   5.142   6.750
 6822POPC   C3A45953  38.465   5.133   7.050
 6822POPC   C4A45954  38.483   5.082   7.350
 6822POPC   C1B45955  38.251   5.210   6.450
 6822POPC   C2B45956  38.267   5.211   6.750
 6822POPC   C3B45957  38.208   5.193   7.050
 6822POPC   C4B45958  38.273   5.245   7.350
 6823POPC   NC345959   5.903  43.097   5.550
 6823POPC   PO445960   5.885  43.100   5.850
 6823POPC   GL145961   5.836  43.153   6.150
 6823POPC   GL245962   5.759  43.042   6.150
 6823POPC   C1A45963   5.850  43.084   6.450
 6823POPC   D2A45964   5.839  43.081   6.750
 6823POPC   C3A45965   5.911  43.131   7.050
 6823POPC   C4A45966   5.887  43.118   7.350
 6823POPC   C1B45967   5.686  42.949   6.450
 6823POPC   C2B45968   5.709  42.928   6.750
 6823POPC   C3B45969   5.773  42.856   7.050
 6823POPC   C4B45970   5.735  42.893   7.350
 6824POPC   NC345971  40.049   6.635   5.550
 6824POPC   PO445972  39.991   6.644   5.850
 6824POPC   GL145973  40.024   6.691   6.150
 6824POPC   GL245974  40.001   6.773   6.150
 6824POPC   C1A45975  40.040   6.642   6.450
 6824POPC   D2A45976  39.967   6.683   6.750
 6824POPC   C3A45977  40.011   6.668   7.050
 6824POPC   C4A45978  39.988   6.611   7.350
 6824POPC   C1B45979  39.915   6.931   6.450
 6824POPC   C2B45980  39.928   6.841   6.750
 6824POPC   C3B45981  39.924   6.865   7.050
 6824POPC   C4B45982  39.985   6.925   7.350
 6825POPC   NC345983  31.440  37.650   5.550
 6825POPC   PO445984  31.497  37.641   5.850
 6825POPC   GL145985  31.438  37.651   6.150
 6825POPC   GL245986  31.574  37.768   6.150
 6825POPC   C1A45987  31.510  37.726   6.450
 6825POPC   D2A45988  31.438  37.686   6.750
 6825POPC   C3A45989  31.447  37.653   7.050
 6825POPC   C4A45990  31.500  37.635   7.350
 6825POPC   C1B45991  31.724  37.784   6.450
 6825POPC   C2B45992  31.741  37.751   6.750
 6825POPC   C3B45993  31.703  37.735   7.050
 6825POPC   C4B45994  31.697  37.775   7.350
 6826POPC   NC345995  13.588   6.658   5.550
 6826POPC   PO445996  13.629   6.673   5.850
 6826POPC   GL145997  13.616   6.643   6.150
 6826POPC   GL245998  13.706   6.587   6.150
 6826POPC   C1A45999  13.593   6.633   6.450
 6826POPC   D2A46000  13.589   6.639   6.750
 6826POPC   C3A46001  13.637   6.662   7.050
 6826POPC   C4A46002  13.580   6.690   7.350
 6826POPC   C1B46003  13.831   6.461   6.450
 6826POPC   C2B46004  13.744   6.470   6.750
 6826POPC   C3B46005  13.765   6.472   7.050
 6826POPC   C4B46006  13.796   6.418   7.350
 6827POPC   NC346007  34.558   3.545   5.550
 6827POPC   PO446008  34.602   3.539   5.850
 6827POPC   GL146009  34.566   3.559   6.150
 6827POPC   GL246010  34.431   3.636   6.150
 6827POPC   C1A46011  34.542   3.504   6.450
 6827POPC   D2A46012  34.536   3.545   6.750
 6827POPC   C3A46013  34.555   3.511   7.050
 6827POPC   C4A46014  34.551   3.577   7.350
 6827POPC   C1B46015  34.361   3.628   6.450
 6827POPC   C2B46016  34.314   3.630   6.750
 6827POPC   C3B46017  34.306   3.665   7.050
 6827POPC   C4B46018  34.330   3.663   7.350
 6828POPC   NC346019  20.611  36.914   5.550
 6828POPC   PO446020  20.583  36.922   5.850
 6828POPC   GL146021  20.588  36.936   6.150
 6828POPC   GL246022  20.475  36.850   6.150
 6828POPC   C1A46023  20.630  36.945   6.450
 6828POPC   D2A46024  20.601  36.871   6.750
 6828POPC   C3A46025  20.593  36.941   7.050
 6828POPC   C4A46026  20.608  36.948   7.350
 6828POPC   C1B46027  20.393  36.694   6.450
 6828POPC   C2B46028  20.403  36.737   6.750
 6828POPC   C3B46029  20.406  36.743   7.050
 6828POPC   C4B46030  20.390  36.749   7.350
 6829POPC   NC346031  18.321  16.745   5.550
 6829POPC   PO446032  18.271  16.764   5.850
 6829POPC   GL146033  18.233  16.706   6.150
 6829POPC   GL246034  18.149  16.763   6.150
 6829POPC   C1A46035  18.244  16.684   6.450
 6829POPC   D2A46036  18.329  16.762   6.750
 6829POPC   C3A46037  18.234  16.688   7.050
 6829POPC   C4A46038  18.292  16.734   7.350
 6829POPC   C1B46039  18.062  16.876   6.450
 6829POPC   C2B46040  18.025  16.827   6.750
 6829POPC   C3B46041  18.050  16.793   7.050
 6829POPC   C4B46042  18.060  16.863   7.350
 6830POPC   NC346043  36.082  19.097   5.550
 6830POPC   PO446044  36.153  19.101   5.850
 6830POPC   GL146045  36.131  19.068   6.150
 6830POPC   GL246046  36.037  18.991   6.150
 6830POPC   C1A46047  36.150  19.041   6.450
 6830POPC   D2A46048  36.166  19.090   6.750
 6830POPC   C3A46049  36.131  19.041   7.050
 6830POPC   C4A46050  36.144  19.071   7.350
 6830POPC   C1B46051  35.940  18.932   6.450
 6830POPC   C2B46052  35.866  18.991   6.750
 6830POPC   C3B46053  35.892  18.954   7.050
 6830POPC   C4B46054  35.937  18.953   7.350
 6831POPC   NC346055  27.544  36.950   5.550
 6831POPC   PO446056  27.548  36.946   5.850
 6831POPC   GL146057  27.630  36.924   6.150
 6831POPC   GL246058  27.620  36.972   6.150
 6831POPC   C1A46059  27.623  36.894   6.450
 6831POPC   D2A46060  27.558  36.900   6.750
 6831POPC   C3A46061  27.627  36.926   7.050
 6831POPC   C4A46062  27.603  36.931   7.350
 6831POPC   C1B46063  27.651  37.165   6.450
 6831POPC   C2B46064  27.658  37.096   6.750
 6831POPC   C3B46065  27.704  37.166   7.050
 6831POPC   C4B46066  27.738  37.179   7.350
 6832POPC   NC346067  36.158   4.274   5.550
 6832POPC   PO446068  36.123   4.366   5.850
 6832POPC   GL146069  36.177   4.299   6.150
 6832POPC   GL246070  36.214   4.343   6.150
 6832POPC   C1A46071  36.119   4.281   6.450
 6832POPC   D2A46072  36.126   4.284   6.750
 6832POPC   C3A46073  36.136   4.355   7.050
 6832POPC   C4A46074  36.137   4.282   7.350
 6832POPC   C1B46075  36.380   4.363   6.450
 6832POPC   C2B46076  36.331   4.406   6.750
 6832POPC   C3B46077  36.388   4.390   7.050
 6832POPC   C4B46078  36.373   4.362   7.350
 6833POPC   NC346079  16.738   2.750   5.550
 6833POPC   PO446080  16.721   2.771   5.850
 6833POPC   GL146081  16.706   2.789   6.150
 6833POPC   GL246082  16.844   2.679   6.150
 6833POPC   C1A46083  16.735   2.806   6.450
 6833POPC   D2A46084  16.727   2.717   6.750
 6833POPC   C3A46085  16.693   2.768   7.050
 6833POPC   C4A46086  16.779   2.755   7.350
 6833POPC   C1B46087  16.942   2.632   6.450
 6833POPC   C2B46088  16.986   2.597   6.750
 6833POPC   C3B46089  16.980   2.632   7.050
 6833POPC   C4B46090  16.988   2.618   7.350
 6834POPC   NC346091  17.554   1.188   5.550
 6834POPC   PO446092  17.468   1.256   5.850
 6834POPC   GL146093  17.549   1.189   6.150
 6834POPC   GL246094  17.509   1.046   6.150
 6834POPC   C1A46095  17.482   1.219   6.450
 6834POPC   D2A46096  17.463   1.213   6.750
 6834POPC   C3A46097  17.458   1.184   7.050
 6834POPC   C4A46098  17.523   1.207   7.350
 6834POPC   C1B46099  17.459   1.018   6.450
 6834POPC   C2B46100  17.385   0.929   6.750
 6834POPC   C3B46101  17.482   0.987   7.050
 6834POPC   C4B46102  17.451   1.005   7.350
 6835POPC   NC346103  17.459   4.336   5.550
 6835POPC   PO446104  17.490   4.270   5.850
 6835POPC   GL146105  17.540   4.321   6.150
 6835POPC   GL246106  17.389   4.257   6.150
 6835POPC   C1A46107  17.550   4.325   6.450
 6835POPC   D2A46108  17.459   4.352   6.750
 6835POPC   C3A46109  17.473   4.365   7.050
 6835POPC   C4A46110  17.490   4.327   7.350
 6835POPC   C1B46111  17.342   4.178   6.450
 6835POPC   C2B46112  17.377   4.130   6.750
 6835POPC   C3B46113  17.296   4.130   7.050
 6835POPC   C4B46114  17.293   4.167   7.350
 6836POPC   NC346115  15.985  29.146   5.550
 6836POPC   PO446116  15.939  29.112   5.850
 6836POPC   GL146117  15.959  29.113   6.150
 6836POPC   GL246118  15.853  29.045   6.150
 6836POPC   C1A46119  16.003  29.131   6.450
 6836POPC   D2A46120  15.990  29.133   6.750
 6836POPC   C3A46121  15.969  29.126   7.050
 6836POPC   C4A46122  15.957  29.161   7.350
 6836POPC   C1B46123  15.883  28.891   6.450
 6836POPC   C2B46124  15.813  28.896   6.750
 6836POPC   C3B46125  15.829  28.886   7.050
 6836POPC   C4B46126  15.888  28.937   7.350
 6837POPC   NC346127   5.898   0.396   5.550
 6837POPC   PO446128   5.878   0.475   5.850
 6837POPC   GL146129   5.876   0.441   6.150
 6837POPC   GL246130   5.912   0.507   6.150
 6837POPC   C1A46131   5.840   0.484   6.450
 6837POPC   D2A46132   5.876   0.401   6.750
 6837POPC   C3A46133   5.826   0.397   7.050
 6837POPC   C4A46134   5.829   0.395   7.350
 6837POPC   C1B46135   6.058   0.665   6.450
 6837POPC   C2B46136   5.976   0.695   6.750
 6837POPC   C3B46137   6.002   0.631   7.050
 6837POPC   C4B46138   6.012   0.614   7.350
 6838POPC   NC346139   3.545  24.463   5.550
 6838POPC   PO446140   3.499  24.490   5.850
 6838POPC   GL146141   3.507  24.507   6.150
 6838POPC   GL246142   3.562  24.556   6.150
 6838POPC   C1A46143   3.510  24.470   6.450
 6838POPC   D2A46144   3.587  24.477   6.750
 6838POPC   C3A46145   3.532  24.484   7.050
 6838POPC   C4A46146   3.493  24.470   7.350
 6838POPC   C1B46147   3.662  24.752   6.450
 6838POPC   C2B46148   3.690  24.730   6.750
 6838POPC   C3B46149   3.687  24.734   7.050
 6838POPC   C4B46150   3.676  24.673   7.350
 6839POPC   NC346151  36.907  22.113   5.550
 6839POPC   PO446152  36.948  22.178   5.850
 6839POPC   GL146153  36.919  22.128   6.150
 6839POPC   GL246154  37.013  22.079   6.150
 6839POPC   C1A46155  36.888  22.136   6.450
 6839POPC   D2A46156  36.901  22.177   6.750
 6839POPC   C3A46157  36.953  22.202   7.050
 6839POPC   C4A46158  36.884  22.157   7.350
 6839POPC   C1B46159  37.150  22.014   6.450
 6839POPC   C2B46160  37.155  22.061   6.750
 6839POPC   C3B46161  37.147  22.102   7.050
 6839POPC   C4B46162  37.159  22.047   7.350
 6840POPC   NC346163  18.281  35.316   5.550
 6840POPC   PO446164  18.287  35.368   5.850
 6840POPC   GL146165  18.317  35.354   6.150
 6840POPC   GL246166  18.262  35.263   6.150
 6840POPC   C1A46167  18.287  35.335   6.450
 6840POPC   D2A46168  18.267  35.370   6.750
 6840POPC   C3A46169  18.269  35.356   7.050
 6840POPC   C4A46170  18.261  35.384   7.350
 6840POPC   C1B46171  18.206  35.133   6.450
 6840POPC   C2B46172  18.183  35.082   6.750
 6840POPC   C3B46173  18.195  35.073   7.050
 6840POPC   C4B46174  18.183  35.087   7.350
 6841POPC   NC346175  35.385  15.202   5.550
 6841POPC   PO446176  35.387  15.156   5.850
 6841POPC   GL146177  35.317  15.156   6.150
 6841POPC   GL246178  35.179  15.204   6.150
 6841POPC   C1A46179  35.377  15.174   6.450
 6841POPC   D2A46180  35.353  15.142   6.750
 6841POPC   C3A46181  35.339  15.180   7.050
 6841POPC   C4A46182  35.377  15.219   7.350
 6841POPC   C1B46183  35.120  15.175   6.450
 6841POPC   C2B46184  35.088  15.136   6.750
 6841POPC   C3B46185  35.145  15.170   7.050
 6841POPC   C4B46186  35.151  15.156   7.350
 6842POPC   NC346187  11.326   7.371   5.550
 6842POPC   PO446188  11.329   7.420   5.850
 6842POPC   GL146189  11.284   7.371   6.150
 6842POPC   GL246190  11.241   7.277   6.150
 6842POPC   C1A46191  11.343   7.420   6.450
 6842POPC   D2A46192  11.296   7.420   6.750
 6842POPC   C3A46193  11.333   7.411   7.050
 6842POPC   C4A46194  11.257   7.423   7.350
 6842POPC   C1B46195  11.140   7.172   6.450
 6842POPC   C2B46196  11.173   7.221   6.750
 6842POPC   C3B46197  11.179   7.239   7.050
 6842POPC   C4B46198  11.140   7.249   7.350
 6843POPC   NC346199  12.091  38.436   5.550
 6843POPC   PO446200  12.096  38.479   5.850
 6843POPC   GL146201  12.061  38.496   6.150
 6843POPC   GL246202  12.112  38.565   6.150
 6843POPC   C1A46203  12.047  38.455   6.450
 6843POPC   D2A46204  12.031  38.447   6.750
 6843POPC   C3A46205  12.031  38.469   7.050
 6843POPC   C4A46206  12.093  38.452   7.350
 6843POPC   C1B46207  12.145  38.721   6.450
 6843POPC   C2B46208  12.075  38.670   6.750
 6843POPC   C3B46209  12.156  38.712   7.050
 6843POPC   C4B46210  12.131  38.707   7.350
 6844POPC   NC346211  28.321  29.917   5.550
 6844POPC   PO446212  28.414  29.932   5.850
 6844POPC   GL146213  28.393  29.899   6.150
 6844POPC   GL246214  28.445  29.938   6.150
 6844POPC   C1A46215  28.321  29.899   6.450
 6844POPC   D2A46216  28.396  29.904   6.750
 6844POPC   C3A46217  28.411  29.903   7.050
 6844POPC   C4A46218  28.326  29.892   7.350
 6844POPC   C1B46219  28.568  29.873   6.450
 6844POPC   C2B46220  28.644  29.832   6.750
 6844POPC   C3B46221  28.640  29.872   7.050
 6844POPC   C4B46222  28.594  29.869   7.350
 6845POPC   NC346223   0.448   3.579   5.550
 6845POPC   PO446224   0.398   3.550   5.850
 6845POPC   GL146225   0.428   3.511   6.150
 6845POPC   GL246226   0.325   3.582   6.150
 6845POPC   C1A46227   0.467   3.506   6.450
 6845POPC   D2A46228   0.483   3.498   6.750
 6845POPC   C3A46229   0.456   3.579   7.050
 6845POPC   C4A46230   0.462   3.506   7.350
 6845POPC   C1B46231   0.211   3.720   6.450
 6845POPC   C2B46232   0.180   3.722   6.750
 6845POPC   C3B46233   0.267   3.716   7.050
 6845POPC   C4B46234   0.241   3.705   7.350
 6846POPC   NC346235  21.388  30.656   5.550
 6846POPC   PO446236  21.424  30.658   5.850
 6846POPC   GL146237  21.381  30.725   6.150
 6846POPC   GL246238  21.334  30.795   6.150
 6846POPC   C1A46239  21.393  30.708   6.450
 6846POPC   D2A46240  21.426  30.742   6.750
 6846POPC   C3A46241  21.421  30.729   7.050
 6846POPC   C4A46242  21.385  30.711   7.350
 6846POPC   C1B46243  21.269  30.956   6.450
 6846POPC   C2B46244  21.331  30.901   6.750
 6846POPC   C3B46245  21.268  30.884   7.050
 6846POPC   C4B46246  21.297  30.959   7.350
 6847POPC   NC346247  28.341  19.095   5.550
 6847POPC   PO446248  28.346  19.089   5.850
 6847POPC   GL146249  28.355  19.099   6.150
 6847POPC   GL246250  28.439  18.995   6.150
 6847POPC   C1A46251  28.418  19.071   6.450
 6847POPC   D2A46252  28.396  19.009   6.750
 6847POPC   C3A46253  28.419  19.065   7.050
 6847POPC   C4A46254  28.328  19.091   7.350
 6847POPC   C1B46255  28.510  18.914   6.450
 6847POPC   C2B46256  28.522  18.890   6.750
 6847POPC   C3B46257  28.590  18.880   7.050
 6847POPC   C4B46258  28.563  18.845   7.350
 6848POPC   NC346259  28.340  28.367   5.550
 6848POPC   PO446260  28.416  28.418   5.850
 6848POPC   GL146261  28.395  28.331   6.150
 6848POPC   GL246262  28.228  28.473   6.150
 6848POPC   C1A46263  28.351  28.405   6.450
 6848POPC   D2A46264  28.351  28.403   6.750
 6848POPC   C3A46265  28.376  28.395   7.050
 6848POPC   C4A46266  28.409  28.364   7.350
 6848POPC   C1B46267  28.146  28.494   6.450
 6848POPC   C2B46268  28.137  28.464   6.750
 6848POPC   C3B46269  28.135  28.460   7.050
 6848POPC   C4B46270  28.117  28.502   7.350
 6849POPC   NC346271  43.125   7.386   5.550
 6849POPC   PO446272  43.133   7.386   5.850
 6849POPC   GL146273  43.080   7.433   6.150
 6849POPC   GL246274  43.092   7.308   6.150
 6849POPC   C1A46275  43.125   7.440   6.450
 6849POPC   D2A46276  43.157   7.429   6.750
 6849POPC   C3A46277  43.111   7.406   7.050
 6849POPC   C4A46278  43.117   7.386   7.350
 6849POPC   C1B46279  43.208   7.134   6.450
 6849POPC   C2B46280  43.169   7.148   6.750
 6849POPC   C3B46281  43.166   7.171   7.050
 6849POPC   C4B46282  43.210   7.179   7.350
 6850POPC   NC346283  13.651  29.142   5.550
 6850POPC   PO446284  13.636  29.189   5.850
 6850POPC   GL146285  13.653  29.155   6.150
 6850POPC   GL246286  13.718  29.155   6.150
 6850POPC   C1A46287  13.666  29.160   6.450
 6850POPC   D2A46288  13.646  29.133   6.750
 6850POPC   C3A46289  13.609  29.106   7.050
 6850POPC   C4A46290  13.583  29.113   7.350
 6850POPC   C1B46291  13.853  29.220   6.450
 6850POPC   C2B46292  13.872  29.246   6.750
 6850POPC   C3B46293  13.843  29.269   7.050
 6850POPC   C4B46294  13.826  29.243   7.350
 6851POPC   NC346295   5.896  36.938   5.550
 6851POPC   PO446296   5.905  36.890   5.850
 6851POPC   GL146297   5.899  36.927   6.150
 6851POPC   GL246298   5.825  37.051   6.150
 6851POPC   C1A46299   5.884  36.873   6.450
 6851POPC   D2A46300   5.877  36.902   6.750
 6851POPC   C3A46301   5.896  36.869   7.050
 6851POPC   C4A46302   5.882  36.953   7.350
 6851POPC   C1B46303   5.787  37.134   6.450
 6851POPC   C2B46304   5.787  37.161   6.750
 6851POPC   C3B46305   5.790  37.190   7.050
 6851POPC   C4B46306   5.831  37.115   7.350
 6852POPC   NC346307  19.088  40.827   5.550
 6852POPC   PO446308  19.049  40.777   5.850
 6852POPC   GL146309  19.039  40.811   6.150
 6852POPC   GL246310  19.002  40.870   6.150
 6852POPC   C1A46311  19.101  40.788   6.450
 6852POPC   D2A46312  19.064  40.734   6.750
 6852POPC   C3A46313  19.035  40.744   7.050
 6852POPC   C4A46314  19.059  40.808   7.350
 6852POPC   C1B46315  19.046  41.018   6.450
 6852POPC   C2B46316  19.039  41.004   6.750
 6852POPC   C3B46317  19.051  41.073   7.050
 6852POPC   C4B46318  18.988  41.016   7.350
 6853POPC   NC346319  14.374  14.368   5.550
 6853POPC   PO446320  14.437  14.367   5.850
 6853POPC   GL146321  14.378  14.424   6.150
 6853POPC   GL246322  14.324  14.354   6.150
 6853POPC   C1A46323  14.419  14.401   6.450
 6853POPC   D2A46324  14.448  14.402   6.750
 6853POPC   C3A46325  14.411  14.356   7.050
 6853POPC   C4A46326  14.415  14.358   7.350
 6853POPC   C1B46327  14.255  14.180   6.450
 6853POPC   C2B46328  14.231  14.233   6.750
 6853POPC   C3B46329  14.197  14.259   7.050
 6853POPC   C4B46330  14.252  14.164   7.350
 6854POPC   NC346331  31.457   2.789   5.550
 6854POPC   PO446332  31.472   2.789   5.850
 6854POPC   GL146333  31.504   2.788   6.150
 6854POPC   GL246334  31.387   2.757   6.150
 6854POPC   C1A46335  31.472   2.783   6.450
 6854POPC   D2A46336  31.449   2.734   6.750
 6854POPC   C3A46337  31.495   2.767   7.050
 6854POPC   C4A46338  31.486   2.787   7.350
 6854POPC   C1B46339  31.269   2.635   6.450
 6854POPC   C2B46340  31.251   2.639   6.750
 6854POPC   C3B46341  31.245   2.709   7.050
 6854POPC   C4B46342  31.286   2.684   7.350
 6855POPC   NC346343  23.710  24.501   5.550
 6855POPC   PO446344  23.701  24.501   5.850
 6855POPC   GL146345  23.704  24.504   6.150
 6855POPC   GL246346  23.591  24.580   6.150
 6855POPC   C1A46347  23.733  24.455   6.450
 6855POPC   D2A46348  23.736  24.524   6.750
 6855POPC   C3A46349  23.702  24.450   7.050
 6855POPC   C4A46350  23.762  24.462   7.350
 6855POPC   C1B46351  23.454  24.633   6.450
 6855POPC   C2B46352  23.533  24.570   6.750
 6855POPC   C3B46353  23.511  24.638   7.050
 6855POPC   C4B46354  23.518  24.587   7.350
 6856POPC   NC346355  16.775   0.470   5.550
 6856POPC   PO446356  16.713   0.487   5.850
 6856POPC   GL146357  16.695   0.469   6.150
 6856POPC   GL246358  16.814   0.509   6.150
 6856POPC   C1A46359  16.776   0.470   6.450
 6856POPC   D2A46360  16.689   0.393   6.750
 6856POPC   C3A46361  16.716   0.462   7.050
 6856POPC   C4A46362  16.751   0.435   7.350
 6856POPC   C1B46363  16.972   0.529   6.450
 6856POPC   C2B46364  16.979   0.495   6.750
 6856POPC   C3B46365  16.945   0.555   7.050
 6856POPC   C4B46366  16.917   0.524   7.350
 6857POPC   NC346367  39.989  23.718   5.550
 6857POPC   PO446368  40.048  23.673   5.850
 6857POPC   GL146369  40.029  23.665   6.150
 6857POPC   GL246370  39.938  23.597   6.150
 6857POPC   C1A46371  40.019  23.719   6.450
 6857POPC   D2A46372  40.041  23.727   6.750
 6857POPC   C3A46373  40.050  23.721   7.050
 6857POPC   C4A46374  40.008  23.728   7.350
 6857POPC   C1B46375  39.846  23.498   6.450
 6857POPC   C2B46376  39.904  23.466   6.750
 6857POPC   C3B46377  39.843  23.552   7.050
 6857POPC   C4B46378  39.829  23.553   7.350
 6858POPC   NC346379  35.346  33.847   5.550
 6858POPC   PO446380  35.316  33.757   5.850
 6858POPC   GL146381  35.344  33.833   6.150
 6858POPC   GL246382  35.438  33.885   6.150
 6858POPC   C1A46383  35.332  33.767   6.450
 6858POPC   D2A46384  35.369  33.792   6.750
 6858POPC   C3A46385  35.321  33.764   7.050
 6858POPC   C4A46386  35.339  33.773   7.350
 6858POPC   C1B46387  35.464  34.040   6.450
 6858POPC   C2B46388  35.440  33.986   6.750
 6858POPC   C3B46389  35.490  34.025   7.050
 6858POPC   C4B46390  35.430  33.998   7.350
 6859POPC   NC346391  21.416  21.415   5.550
 6859POPC   PO446392  21.338  21.346   5.850
 6859POPC   GL146393  21.385  21.346   6.150
 6859POPC   GL246394  21.361  21.554   6.150
 6859POPC   C1A46395  21.406  21.393   6.450
 6859POPC   D2A46396  21.343  21.423   6.750
 6859POPC   C3A46397  21.373  21.422   7.050
 6859POPC   C4A46398  21.395  21.433   7.350
 6859POPC   C1B46399  21.406  21.659   6.450
 6859POPC   C2B46400  21.428  21.613   6.750
 6859POPC   C3B46401  21.402  21.682   7.050
 6859POPC   C4B46402  21.379  21.679   7.350
 6860POPC   NC346403  38.411  30.672   5.550
 6860POPC   PO446404  38.424  30.715   5.850
 6860POPC   GL146405  38.447  30.735   6.150
 6860POPC   GL246406  38.497  30.643   6.150
 6860POPC   C1A46407  38.416  30.656   6.450
 6860POPC   D2A46408  38.449  30.745   6.750
 6860POPC   C3A46409  38.484  30.681   7.050
 6860POPC   C4A46410  38.424  30.714   7.350
 6860POPC   C1B46411  38.668  30.497   6.450
 6860POPC   C2B46412  38.641  30.465   6.750
 6860POPC   C3B46413  38.666  30.518   7.050
 6860POPC   C4B46414  38.655  30.548   7.350
 6861POPC   NC346415   5.882   8.171   5.550
 6861POPC   PO446416   5.852   8.171   5.850
 6861POPC   GL146417   5.859   8.235   6.150
 6861POPC   GL246418   5.778   8.111   6.150
 6861POPC   C1A46419   5.893   8.203   6.450
 6861POPC   D2A46420   5.833   8.205   6.750
 6861POPC   C3A46421   5.902   8.218   7.050
 6861POPC   C4A46422   5.882   8.200   7.350
 6861POPC   C1B46423   5.620   8.129   6.450
 6861POPC   C2B46424   5.591   8.086   6.750
 6861POPC   C3B46425   5.652   8.106   7.050
 6861POPC   C4B46426   5.647   8.121   7.350
 6862POPC   NC346427  12.121   4.277   5.550
 6862POPC   PO446428  12.038   4.305   5.850
 6862POPC   GL146429  12.040   4.340   6.150
 6862POPC   GL246430  12.035   4.405   6.150
 6862POPC   C1A46431  12.115   4.361   6.450
 6862POPC   D2A46432  12.076   4.338   6.750
 6862POPC   C3A46433  12.062   4.336   7.050
 6862POPC   C4A46434  12.071   4.282   7.350
 6862POPC   C1B46435  11.924   4.515   6.450
 6862POPC   C2B46436  11.968   4.532   6.750
 6862POPC   C3B46437  11.920   4.553   7.050
 6862POPC   C4B46438  11.913   4.486   7.350
 6863POPC   NC346439  19.082  25.219   5.550
 6863POPC   PO446440  19.102  25.304   5.850
 6863POPC   GL146441  19.082  25.283   6.150
 6863POPC   GL246442  18.938  25.209   6.150
 6863POPC   C1A46443  19.038  25.252   6.450
 6863POPC   D2A46444  19.040  25.239   6.750
 6863POPC   C3A46445  19.073  25.253   7.050
 6863POPC   C4A46446  19.046  25.296   7.350
 6863POPC   C1B46447  18.936  25.078   6.450
 6863POPC   C2B46448  18.930  25.045   6.750
 6863POPC   C3B46449  18.905  25.082   7.050
 6863POPC   C4B46450  18.876  25.044   7.350
 6864POPC   NC346451  10.511   1.993   5.550
 6864POPC   PO446452  10.483   2.005   5.850
 6864POPC   GL146453  10.535   1.964   6.150
 6864POPC   GL246454  10.620   2.131   6.150
 6864POPC   C1A46455  10.560   2.023   6.450
 6864POPC   D2A46456  10.512   1.972   6.750
 6864POPC   C3A46457  10.554   1.973   7.050
 6864POPC   C4A46458  10.514   1.948   7.350
 6864POPC   C1B46459  10.592   2.172   6.450
 6864POPC   C2B46460  10.609   2.185   6.750
 6864POPC   C3B46461  10.620   2.239   7.050
 6864POPC   C4B46462  10.612   2.184   7.350
 6865POPC   NC346463  22.158   6.628   5.550
 6865POPC   PO446464  22.189   6.691   5.850
 6865POPC   GL146465  22.139   6.637   6.150
 6865POPC   GL246466  22.026   6.703   6.150
 6865POPC   C1A46467  22.136   6.685   6.450
 6865POPC   D2A46468  22.171   6.647   6.750
 6865POPC   C3A46469  22.182   6.676   7.050
 6865POPC   C4A46470  22.124   6.652   7.350
 6865POPC   C1B46471  21.972   6.733   6.450
 6865POPC   C2B46472  21.905   6.723   6.750
 6865POPC   C3B46473  21.896   6.767   7.050
 6865POPC   C4B46474  21.916   6.738   7.350
 6866POPC   NC346475  44.682  18.243   5.550
 6866POPC   PO446476  44.651  18.288   5.850
 6866POPC   GL146477  44.645  18.246   6.150
 6866POPC   GL246478  44.560  18.327   6.150
 6866POPC   C1A46479  44.702  18.251   6.450
 6866POPC   D2A46480  44.641  18.320   6.750
 6866POPC   C3A46481  44.667  18.276   7.050
 6866POPC   C4A46482  44.619  18.300   7.350
 6866POPC   C1B46483  44.433  18.336   6.450
 6866POPC   C2B46484  44.456  18.300   6.750
 6866POPC   C3B46485  44.399  18.266   7.050
 6866POPC   C4B46486  44.406  18.347   7.350
 6867POPC   NC346487  41.564  26.865   5.550
 6867POPC   PO446488  41.542  26.826   5.850
 6867POPC   GL146489  41.536  26.828   6.150
 6867POPC   GL246490  41.643  26.741   6.150
 6867POPC   C1A46491  41.607  26.836   6.450
 6867POPC   D2A46492  41.516  26.867   6.750
 6867POPC   C3A46493  41.565  26.770   7.050
 6867POPC   C4A46494  41.589  26.858   7.350
 6867POPC   C1B46495  41.701  26.651   6.450
 6867POPC   C2B46496  41.770  26.585   6.750
 6867POPC   C3B46497  41.732  26.616   7.050
 6867POPC   C4B46498  41.694  26.590   7.350
 6868POPC   NC346499  33.030  18.323   5.550
 6868POPC   PO446500  33.054  18.241   5.850
 6868POPC   GL146501  33.021  18.240   6.150
 6868POPC   GL246502  32.993  18.439   6.150
 6868POPC   C1A46503  33.051  18.276   6.450
 6868POPC   D2A46504  33.055  18.277   6.750
 6868POPC   C3A46505  33.035  18.323   7.050
 6868POPC   C4A46506  33.066  18.302   7.350
 6868POPC   C1B46507  33.027  18.502   6.450
 6868POPC   C2B46508  33.007  18.562   6.750
 6868POPC   C3B46509  32.981  18.581   7.050
 6868POPC   C4B46510  33.008  18.506   7.350
 6869POPC   NC346511  36.083  27.557   5.550
 6869POPC   PO446512  36.153  27.549   5.850
 6869POPC   GL146513  36.110  27.627   6.150
 6869POPC   GL246514  36.217  27.557   6.150
 6869POPC   C1A46515  36.174  27.627   6.450
 6869POPC   D2A46516  36.138  27.601   6.750
 6869POPC   C3A46517  36.146  27.624   7.050
 6869POPC   C4A46518  36.169  27.564   7.350
 6869POPC   C1B46519  36.421  27.511   6.450
 6869POPC   C2B46520  36.344  27.584   6.750
 6869POPC   C3B46521  36.367  27.508   7.050
 6869POPC   C4B46522  36.417  27.511   7.350
 6870POPC   NC346523  12.811  23.676   5.550
 6870POPC   PO446524  12.833  23.697   5.850
 6870POPC   GL146525  12.848  23.727   6.150
 6870POPC   GL246526  12.886  23.640   6.150
 6870POPC   C1A46527  12.902  23.735   6.450
 6870POPC   D2A46528  12.832  23.739   6.750
 6870POPC   C3A46529  12.813  23.729   7.050
 6870POPC   C4A46530  12.870  23.696   7.350
 6870POPC   C1B46531  12.962  23.454   6.450
 6870POPC   C2B46532  13.018  23.519   6.750
 6870POPC   C3B46533  12.981  23.449   7.050
 6870POPC   C4B46534  12.985  23.506   7.350
 6871POPC   NC346535  43.920   8.953   5.550
 6871POPC   PO446536  43.867   8.948   5.850
 6871POPC   GL146537  43.909   8.961   6.150
 6871POPC   GL246538  44.050   8.912   6.150
 6871POPC   C1A46539  43.871   9.020   6.450
 6871POPC   D2A46540  43.854   8.971   6.750
 6871POPC   C3A46541  43.871   8.998   7.050
 6871POPC   C4A46542  43.921   9.002   7.350
 6871POPC   C1B46543  44.088   8.865   6.450
 6871POPC   C2B46544  44.106   8.893   6.750
 6871POPC   C3B46545  44.079   8.857   7.050
 6871POPC   C4B46546  44.088   8.907   7.350
 6872POPC   NC346547  19.033   8.943   5.550
 6872POPC   PO446548  19.077   8.955   5.850
 6872POPC   GL146549  19.070   9.012   6.150
 6872POPC   GL246550  19.085   8.862   6.150
 6872POPC   C1A46551  19.019   8.983   6.450
 6872POPC   D2A46552  19.078   8.956   6.750
 6872POPC   C3A46553  19.014   8.924   7.050
 6872POPC   C4A46554  19.095   8.994   7.350
 6872POPC   C1B46555  19.166   8.790   6.450
 6872POPC   C2B46556  19.198   8.777   6.750
 6872POPC   C3B46557  19.175   8.708   7.050
 6872POPC   C4B46558  19.110   8.738   7.350
 6873POPC   NC346559  33.791  20.603   5.550
 6873POPC   PO446560  33.837  20.651   5.850
 6873POPC   GL146561  33.752  20.573   6.150
 6873POPC   GL246562  33.854  20.748   6.150
 6873POPC   C1A46563  33.774  20.586   6.450
 6873POPC   D2A46564  33.784  20.579   6.750
 6873POPC   C3A46565  33.756  20.626   7.050
 6873POPC   C4A46566  33.805  20.574   7.350
 6873POPC   C1B46567  33.913  20.818   6.450
 6873POPC   C2B46568  33.916  20.766   6.750
 6873POPC   C3B46569  33.950  20.796   7.050
 6873POPC   C4B46570  33.969  20.826   7.350
 6874POPC   NC346571  19.802  43.848   5.550
 6874POPC   PO446572  19.822  43.906   5.850
 6874POPC   GL146573  19.850  43.916   6.150
 6874POPC   GL246574  19.750  43.930   6.150
 6874POPC   C1A46575  19.856  43.836   6.450
 6874POPC   D2A46576  19.799  43.920   6.750
 6874POPC   C3A46577  19.865  43.891   7.050
 6874POPC   C4A46578  19.791  43.897   7.350
 6874POPC   C1B46579  19.544  43.950   6.450
 6874POPC   C2B46580  19.629  43.893   6.750
 6874POPC   C3B46581  19.612  43.951   7.050
 6874POPC   C4B46582  19.634  43.936   7.350
 6875POPC   NC346583   8.981  38.458   5.550
 6875POPC   PO446584   8.944  38.411   5.850
 6875POPC   GL146585   8.940  38.431   6.150
 6875POPC   GL246586   9.113  38.400   6.150
 6875POPC   C1A46587   9.013  38.470   6.450
 6875POPC   D2A46588   8.972  38.413   6.750
 6875POPC   C3A46589   9.009  38.503   7.050
 6875POPC   C4A46590   8.993  38.448   7.350
 6875POPC   C1B46591   9.197  38.386   6.450
 6875POPC   C2B46592   9.205  38.445   6.750
 6875POPC   C3B46593   9.247  38.393   7.050
 6875POPC   C4B46594   9.263  38.417   7.350
 6876POPC   NC346595  22.142  38.453   5.550
 6876POPC   PO446596  22.138  38.481   5.850
 6876POPC   GL146597  22.188  38.496   6.150
 6876POPC   GL246598  22.202  38.369   6.150
 6876POPC   C1A46599  22.160  38.412   6.450
 6876POPC   D2A46600  22.156  38.436   6.750
 6876POPC   C3A46601  22.193  38.471   7.050
 6876POPC   C4A46602  22.153  38.504   7.350
 6876POPC   C1B46603  22.126  38.243   6.450
 6876POPC   C2B46604  22.148  38.202   6.750
 6876POPC   C3B46605  22.194  38.249   7.050
 6876POPC   C4B46606  22.121  38.253   7.350
 6877POPC   NC346607  20.577   2.738   5.550
 6877POPC   PO446608  20.587   2.754   5.850
 6877POPC   GL146609  20.610   2.791   6.150
 6877POPC   GL246610  20.497   2.667   6.150
 6877POPC   C1A46611  20.577   2.757   6.450
 6877POPC   D2A46612  20.571   2.777   6.750
 6877POPC   C3A46613  20.574   2.742   7.050
 6877POPC   C4A46614  20.587   2.742   7.350
 6877POPC   C1B46615  20.336   2.695   6.450
 6877POPC   C2B46616  20.421   2.657   6.750
 6877POPC   C3B46617  20.355   2.631   7.050
 6877POPC   C4B46618  20.364   2.648   7.350
 6878POPC   NC346619  26.077  14.433   5.550
 6878POPC   PO446620  26.026  14.440   5.850
 6878POPC   GL146621  26.017  14.363   6.150
 6878POPC   GL246622  25.972  14.554   6.150
 6878POPC   C1A46623  26.063  14.420   6.450
 6878POPC   D2A46624  26.079  14.438   6.750
 6878POPC   C3A46625  26.043  14.452   7.050
 6878POPC   C4A46626  26.074  14.430   7.350
 6878POPC   C1B46627  25.933  14.597   6.450
 6878POPC   C2B46628  25.924  14.610   6.750
 6878POPC   C3B46629  25.943  14.603   7.050
 6878POPC   C4B46630  25.882  14.559   7.350
 6879POPC   NC346631  28.412  36.932   5.550
 6879POPC   PO446632  28.358  36.874   5.850
 6879POPC   GL146633  28.327  36.891   6.150
 6879POPC   GL246634  28.403  37.004   6.150
 6879POPC   C1A46635  28.368  36.869   6.450
 6879POPC   D2A46636  28.407  36.931   6.750
 6879POPC   C3A46637  28.399  36.892   7.050
 6879POPC   C4A46638  28.376  36.859   7.350
 6879POPC   C1B46639  28.498  37.172   6.450
 6879POPC   C2B46640  28.504  37.153   6.750
 6879POPC   C3B46641  28.493  37.177   7.050
 6879POPC   C4B46642  28.499  37.137   7.350
 6880POPC   NC346643  44.698  15.176   5.550
 6880POPC   PO446644  44.676  15.166   5.850
 6880POPC   GL146645  44.639  15.132   6.150
 6880POPC   GL246646  44.537  15.194   6.150
 6880POPC   C1A46647  44.617  15.131   6.450
 6880POPC   D2A46648  44.700  15.134   6.750
 6880POPC   C3A46649  44.699  15.226   7.050
 6880POPC   C4A46650  44.638  15.210   7.350
 6880POPC   C1B46651  44.367  15.182   6.450
 6880POPC   C2B46652  44.374  15.187   6.750
 6880POPC   C3B46653  44.442  15.139   7.050
 6880POPC   C4B46654  44.429  15.110   7.350
 6881POPC   NC346655  22.139   3.540   5.550
 6881POPC   PO446656  22.140   3.554   5.850
 6881POPC   GL146657  22.165   3.575   6.150
 6881POPC   GL246658  22.139   3.630   6.150
 6881POPC   C1A46659  22.119   3.493   6.450
 6881POPC   D2A46660  22.177   3.589   6.750
 6881POPC   C3A46661  22.188   3.585   7.050
 6881POPC   C4A46662  22.113   3.583   7.350
 6881POPC   C1B46663  22.173   3.824   6.450
 6881POPC   C2B46664  22.217   3.797   6.750
 6881POPC   C3B46665  22.163   3.782   7.050
 6881POPC   C4B46666  22.171   3.812   7.350
 6882POPC   NC346667  18.263  26.796   5.550
 6882POPC   PO446668  18.251  26.808   5.850
 6882POPC   GL146669  18.237  26.809   6.150
 6882POPC   GL246670  18.336  26.665   6.150
 6882POPC   C1A46671  18.234  26.825   6.450
 6882POPC   D2A46672  18.254  26.794   6.750
 6882POPC   C3A46673  18.327  26.861   7.050
 6882POPC   C4A46674  18.322  26.836   7.350
 6882POPC   C1B46675  18.265  26.542   6.450
 6882POPC   C2B46676  18.294  26.604   6.750
 6882POPC   C3B46677  18.262  26.616   7.050
 6882POPC   C4B46678  18.318  26.533   7.350
 6883POPC   NC346679  40.741  27.574   5.550
 6883POPC   PO446680  40.791  27.570   5.850
 6883POPC   GL146681  40.767  27.551   6.150
 6883POPC   GL246682  40.878  27.645   6.150
 6883POPC   C1A46683  40.826  27.575   6.450
 6883POPC   D2A46684  40.770  27.583   6.750
 6883POPC   C3A46685  40.778  27.631   7.050
 6883POPC   C4A46686  40.780  27.552   7.350
 6883POPC   C1B46687  40.961  27.706   6.450
 6883POPC   C2B46688  40.940  27.757   6.750
 6883POPC   C3B46689  40.933  27.789   7.050
 6883POPC   C4B46690  40.975  27.712   7.350
 6884POPC   NC346691  17.526  15.194   5.550
 6884POPC   PO446692  17.485  15.216   5.850
 6884POPC   GL146693  17.536  15.200   6.150
 6884POPC   GL246694  17.621  15.197   6.150
 6884POPC   C1A46695  17.501  15.178   6.450
 6884POPC   D2A46696  17.501  15.215   6.750
 6884POPC   C3A46697  17.534  15.148   7.050
 6884POPC   C4A46698  17.547  15.202   7.350
 6884POPC   C1B46699  17.731  15.272   6.450
 6884POPC   C2B46700  17.725  15.300   6.750
 6884POPC   C3B46701  17.730  15.246   7.050
 6884POPC   C4B46702  17.770  15.262   7.350
 6885POPC   NC346703  40.759  26.786   5.550
 6885POPC   PO446704  40.750  26.793   5.850
 6885POPC   GL146705  40.801  26.831   6.150
 6885POPC   GL246706  40.708  26.982   6.150
 6885POPC   C1A46707  40.746  26.853   6.450
 6885POPC   D2A46708  40.751  26.851   6.750
 6885POPC   C3A46709  40.797  26.821   7.050
 6885POPC   C4A46710  40.791  26.812   7.350
 6885POPC   C1B46711  40.660  27.072   6.450
 6885POPC   C2B46712  40.682  27.001   6.750
 6885POPC   C3B46713  40.673  27.089   7.050
 6885POPC   C4B46714  40.693  27.070   7.350
 6886POPC   NC346715  29.107  40.763   5.550
 6886POPC   PO446716  29.133  40.764   5.850
 6886POPC   GL146717  29.193  40.820   6.150
 6886POPC   GL246718  29.230  40.691   6.150
 6886POPC   C1A46719  29.147  40.811   6.450
 6886POPC   D2A46720  29.136  40.754   6.750
 6886POPC   C3A46721  29.148  40.774   7.050
 6886POPC   C4A46722  29.114  40.754   7.350
 6886POPC   C1B46723  29.330  40.596   6.450
 6886POPC   C2B46724  29.336  40.595   6.750
 6886POPC   C3B46725  29.314  40.639   7.050
 6886POPC   C4B46726  29.337  40.643   7.350
 6887POPC   NC346727  19.085  26.043   5.550
 6887POPC   PO446728  19.041  26.090   5.850
 6887POPC   GL146729  19.010  25.997   6.150
 6887POPC   GL246730  19.007  25.900   6.150
 6887POPC   C1A46731  19.093  26.059   6.450
 6887POPC   D2A46732  19.037  26.014   6.750
 6887POPC   C3A46733  19.020  26.034   7.050
 6887POPC   C4A46734  19.062  26.087   7.350
 6887POPC   C1B46735  18.957  25.826   6.450
 6887POPC   C2B46736  18.940  25.865   6.750
 6887POPC   C3B46737  18.928  25.806   7.050
 6887POPC   C4B46738  18.945  25.820   7.350
 6888POPC   NC346739  26.052  41.540   5.550
 6888POPC   PO446740  26.028  41.608   5.850
 6888POPC   GL146741  26.028  41.511   6.150
 6888POPC   GL246742  26.090  41.447   6.150
 6888POPC   C1A46743  26.027  41.533   6.450
 6888POPC   D2A46744  26.009  41.556   6.750
 6888POPC   C3A46745  25.998  41.552   7.050
 6888POPC   C4A46746  26.049  41.572   7.350
 6888POPC   C1B46747  26.066  41.294   6.450
 6888POPC   C2B46748  26.070  41.329   6.750
 6888POPC   C3B46749  26.036  41.272   7.050
 6888POPC   C4B46750  26.090  41.344   7.350
 6889POPC   NC346751  24.491   8.938   5.550
 6889POPC   PO446752  24.521   8.970   5.850
 6889POPC   GL146753  24.464   8.986   6.150
 6889POPC   GL246754  24.445   9.050   6.150
 6889POPC   C1A46755  24.537   8.931   6.450
 6889POPC   D2A46756  24.516   9.010   6.750
 6889POPC   C3A46757  24.499   8.965   7.050
 6889POPC   C4A46758  24.460   8.952   7.350
 6889POPC   C1B46759  24.415   9.175   6.450
 6889POPC   C2B46760  24.465   9.252   6.750
 6889POPC   C3B46761  24.440   9.178   7.050
 6889POPC   C4B46762  24.484   9.249   7.350
 6890POPC   NC346763  22.142  43.895   5.550
 6890POPC   PO446764  22.150  43.905   5.850
 6890POPC   GL146765  22.141  43.855   6.150
 6890POPC   GL246766  22.023  43.847   6.150
 6890POPC   C1A46767  22.199  43.896   6.450
 6890POPC   D2A46768  22.182  43.868   6.750
 6890POPC   C3A46769  22.196  43.911   7.050
 6890POPC   C4A46770  22.162  43.928   7.350
 6890POPC   C1B46771  21.960  43.850   6.450
 6890POPC   C2B46772  21.936  43.944   6.750
 6890POPC   C3B46773  21.897  43.916   7.050
 6890POPC   C4B46774  21.934  43.893   7.350
 6891POPC   NC346775  19.873   6.604   5.550
 6891POPC   PO446776  19.791   6.605   5.850
 6891POPC   GL146777  19.816   6.658   6.150
 6891POPC   GL246778  19.986   6.666   6.150
 6891POPC   C1A46779  19.805   6.616   6.450
 6891POPC   D2A46780  19.858   6.609   6.750
 6891POPC   C3A46781  19.813   6.634   7.050
 6891POPC   C4A46782  19.859   6.636   7.350
 6891POPC   C1B46783  20.036   6.649   6.450
 6891POPC   C2B46784  20.117   6.695   6.750
 6891POPC   C3B46785  20.118   6.653   7.050
 6891POPC   C4B46786  20.112   6.718   7.350
 6892POPC   NC346787  15.205   3.500   5.550
 6892POPC   PO446788  15.165   3.568   5.850
 6892POPC   GL146789  15.154   3.562   6.150
 6892POPC   GL246790  15.170   3.626   6.150
 6892POPC   C1A46791  15.202   3.551   6.450
 6892POPC   D2A46792  15.162   3.506   6.750
 6892POPC   C3A46793  15.203   3.505   7.050
 6892POPC   C4A46794  15.182   3.506   7.350
 6892POPC   C1B46795  15.212   3.775   6.450
 6892POPC   C2B46796  15.207   3.765   6.750
 6892POPC   C3B46797  15.133   3.768   7.050
 6892POPC   C4B46798  15.215   3.775   7.350
 6893POPC   NC346799  19.021  24.458   5.550
 6893POPC   PO446800  19.094  24.443   5.850
 6893POPC   GL146801  19.018  24.469   6.150
 6893POPC   GL246802  18.967  24.394   6.150
 6893POPC   C1A46803  19.029  24.476   6.450
 6893POPC   D2A46804  19.078  24.441   6.750
 6893POPC   C3A46805  19.100  24.441   7.050
 6893POPC   C4A46806  19.067  24.462   7.350
 6893POPC   C1B46807  18.846  24.337   6.450
 6893POPC   C2B46808  18.824  24.385   6.750
 6893POPC   C3B46809  18.870  24.338   7.050
 6893POPC   C4B46810  18.826  24.314   7.350
 6894POPC   NC346811  13.654  24.501   5.550
 6894POPC   PO446812  13.672  24.524   5.850
 6894POPC   GL146813  13.591  24.448   6.150
 6894POPC   GL246814  13.568  24.353   6.150
 6894POPC   C1A46815  13.606  24.524   6.450
 6894POPC   D2A46816  13.610  24.452   6.750
 6894POPC   C3A46817  13.585  24.459   7.050
 6894POPC   C4A46818  13.632  24.473   7.350
 6894POPC   C1B46819  13.480  24.280   6.450
 6894POPC   C2B46820  13.502  24.257   6.750
 6894POPC   C3B46821  13.431  24.285   7.050
 6894POPC   C4B46822  13.490  24.314   7.350
 6895POPC   NC346823  30.711  37.701   5.550
 6895POPC   PO446824  30.665  37.641   5.850
 6895POPC   GL146825  30.647  37.714   6.150
 6895POPC   GL246826  30.779  37.809   6.150
 6895POPC   C1A46827  30.678  37.636   6.450
 6895POPC   D2A46828  30.726  37.724   6.750
 6895POPC   C3A46829  30.714  37.697   7.050
 6895POPC   C4A46830  30.665  37.698   7.350
 6895POPC   C1B46831  30.815  37.841   6.450
 6895POPC   C2B46832  30.822  37.922   6.750
 6895POPC   C3B46833  30.839  37.901   7.050
 6895POPC   C4B46834  30.856  37.893   7.350
 6896POPC   NC346835   7.460  12.868   5.550
 6896POPC   PO446836   7.447  12.816   5.850
 6896POPC   GL146837   7.464  12.876   6.150
 6896POPC   GL246838   7.258  12.891   6.150
 6896POPC   C1A46839   7.402  12.852   6.450
 6896POPC   D2A46840   7.409  12.876   6.750
 6896POPC   C3A46841   7.429  12.847   7.050
 6896POPC   C4A46842   7.438  12.869   7.350
 6896POPC   C1B46843   7.194  12.832   6.450
 6896POPC   C2B46844   7.220  12.811   6.750
 6896POPC   C3B46845   7.144  12.848   7.050
 6896POPC   C4B46846   7.161  12.885   7.350
 6897POPC   NC346847  28.379  33.808   5.550
 6897POPC   PO446848  28.399  33.759   5.850
 6897POPC   GL146849  28.344  33.840   6.150
 6897POPC   GL246850  28.389  33.921   6.150
 6897POPC   C1A46851  28.352  33.811   6.450
 6897POPC   D2A46852  28.362  33.767   6.750
 6897POPC   C3A46853  28.416  33.824   7.050
 6897POPC   C4A46854  28.352  33.785   7.350
 6897POPC   C1B46855  28.469  34.062   6.450
 6897POPC   C2B46856  28.491  33.995   6.750
 6897POPC   C3B46857  28.484  33.991   7.050
 6897POPC   C4B46858  28.395  33.994   7.350
 6898POPC   NC346859  34.535  40.758   5.550
 6898POPC   PO446860  34.586  40.750   5.850
 6898POPC   GL146861  34.551  40.749   6.150
 6898POPC   GL246862  34.710  40.753   6.150
 6898POPC   C1A46863  34.569  40.816   6.450
 6898POPC   D2A46864  34.567  40.766   6.750
 6898POPC   C3A46865  34.569  40.816   7.050
 6898POPC   C4A46866  34.570  40.739   7.350
 6898POPC   C1B46867  34.773  40.616   6.450
 6898POPC   C2B46868  34.742  40.654   6.750
 6898POPC   C3B46869  34.758  40.663   7.050
 6898POPC   C4B46870  34.737  40.662   7.350
 6899POPC   NC346871  15.187  35.352   5.550
 6899POPC   PO446872  15.191  35.393   5.850
 6899POPC   GL146873  15.214  35.310   6.150
 6899POPC   GL246874  15.185  35.276   6.150
 6899POPC   C1A46875  15.224  35.379   6.450
 6899POPC   D2A46876  15.171  35.333   6.750
 6899POPC   C3A46877  15.210  35.317   7.050
 6899POPC   C4A46878  15.147  35.387   7.350
 6899POPC   C1B46879  15.196  35.097   6.450
 6899POPC   C2B46880  15.202  35.073   6.750
 6899POPC   C3B46881  15.196  35.131   7.050
 6899POPC   C4B46882  15.124  35.074   7.350
 6900POPC   NC346883  22.892  18.314   5.550
 6900POPC   PO446884  22.929  18.318   5.850
 6900POPC   GL146885  22.950  18.304   6.150
 6900POPC   GL246886  23.025  18.220   6.150
 6900POPC   C1A46887  22.898  18.291   6.450
 6900POPC   D2A46888  22.897  18.239   6.750
 6900POPC   C3A46889  22.888  18.255   7.050
 6900POPC   C4A46890  22.951  18.246   7.350
 6900POPC   C1B46891  23.037  18.122   6.450
 6900POPC   C2B46892  23.027  18.085   6.750
 6900POPC   C3B46893  23.058  18.065   7.050
 6900POPC   C4B46894  23.098  18.093   7.350
 6901POPC   NC346895  22.191  40.735   5.550
 6901POPC   PO446896  22.115  40.829   5.850
 6901POPC   GL146897  22.113  40.801   6.150
 6901POPC   GL246898  22.153  40.645   6.150
 6901POPC   C1A46899  22.137  40.805   6.450
 6901POPC   D2A46900  22.162  40.814   6.750
 6901POPC   C3A46901  22.145  40.762   7.050
 6901POPC   C4A46902  22.145  40.776   7.350
 6901POPC   C1B46903  22.065  40.525   6.450
 6901POPC   C2B46904  22.010  40.554   6.750
 6901POPC   C3B46905  22.027  40.553   7.050
 6901POPC   C4B46906  22.033  40.552   7.350
 6902POPC   NC346907  43.076  41.594   5.550
 6902POPC   PO446908  43.084  41.535   5.850
 6902POPC   GL146909  43.140  41.561   6.150
 6902POPC   GL246910  43.039  41.611   6.150
 6902POPC   C1A46911  43.144  41.583   6.450
 6902POPC   D2A46912  43.109  41.542   6.750
 6902POPC   C3A46913  43.135  41.588   7.050
 6902POPC   C4A46914  43.085  41.598   7.350
 6902POPC   C1B46915  42.922  41.717   6.450
 6902POPC   C2B46916  42.886  41.719   6.750
 6902POPC   C3B46917  42.938  41.742   7.050
 6902POPC   C4B46918  42.953  41.689   7.350
 6903POPC   NC346919  20.585  40.021   5.550
 6903POPC   PO446920  20.571  39.970   5.850
 6903POPC   GL146921  20.568  40.010   6.150
 6903POPC   GL246922  20.475  40.085   6.150
 6903POPC   C1A46923  20.649  39.974   6.450
 6903POPC   D2A46924  20.657  40.040   6.750
 6903POPC   C3A46925  20.646  39.973   7.050
 6903POPC   C4A46926  20.598  40.055   7.350
 6903POPC   C1B46927  20.389  40.046   6.450
 6903POPC   C2B46928  20.323  40.074   6.750
 6903POPC   C3B46929  20.372  40.125   7.050
 6903POPC   C4B46930  20.358  40.032   7.350
 6904POPC   NC346931  26.004  38.456   5.550
 6904POPC   PO446932  26.048  38.461   5.850
 6904POPC   GL146933  26.015  38.416   6.150
 6904POPC   GL246934  25.991  38.593   6.150
 6904POPC   C1A46935  26.024  38.433   6.450
 6904POPC   D2A46936  26.055  38.438   6.750
 6904POPC   C3A46937  26.064  38.461   7.050
 6904POPC   C4A46938  26.086  38.424   7.350
 6904POPC   C1B46939  25.913  38.697   6.450
 6904POPC   C2B46940  25.905  38.646   6.750
 6904POPC   C3B46941  25.849  38.627   7.050
 6904POPC   C4B46942  25.864  38.646   7.350
 6905POPC   NC346943  29.914  12.897   5.550
 6905POPC   PO446944  29.893  12.878   5.850
 6905POPC   GL146945  29.935  12.895   6.150
 6905POPC   GL246946  30.029  12.927   6.150
 6905POPC   C1A46947  29.882  12.872   6.450
 6905POPC   D2A46948  29.963  12.901   6.750
 6905POPC   C3A46949  29.887  12.872   7.050
 6905POPC   C4A46950  29.940  12.881   7.350
 6905POPC   C1B46951  30.118  12.973   6.450
 6905POPC   C2B46952  30.146  13.054   6.750
 6905POPC   C3B46953  30.113  13.015   7.050
 6905POPC   C4B46954  30.109  12.984   7.350
 6906POPC   NC346955  44.686  44.640   5.550
 6906POPC   PO446956  44.677  44.703   5.850
 6906POPC   GL146957  44.688  44.673   6.150
 6906POPC   GL246958  44.701  44.542   6.150
 6906POPC   C1A46959  44.653  44.701   6.450
 6906POPC   D2A46960  44.613  44.636   6.750
 6906POPC   C3A46961  44.621  44.641   7.050
 6906POPC   C4A46962  44.644  44.617   7.350
 6906POPC   C1B46963  44.667  44.417   6.450
 6906POPC   C2B46964  44.649  44.411   6.750
 6906POPC   C3B46965  44.708  44.462   7.050
 6906POPC   C4B46966  44.731  44.422   7.350
 6907POPC   NC346967   3.559  34.550   5.550
 6907POPC   PO446968   3.548  34.619   5.850
 6907POPC   GL146969   3.577  34.592   6.150
 6907POPC   GL246970   3.567  34.467   6.150
 6907POPC   C1A46971   3.584  34.546   6.450
 6907POPC   D2A46972   3.578  34.612   6.750
 6907POPC   C3A46973   3.563  34.570   7.050
 6907POPC   C4A46974   3.552  34.591   7.350
 6907POPC   C1B46975   3.596  34.353   6.450
 6907POPC   C2B46976   3.638  34.305   6.750
 6907POPC   C3B46977   3.604  34.375   7.050
 6907POPC   C4B46978   3.664  34.381   7.350
 6908POPC   NC346979  19.810   8.942   5.550
 6908POPC   PO446980  19.865   9.014   5.850
 6908POPC   GL146981  19.805   8.959   6.150
 6908POPC   GL246982  19.699   8.923   6.150
 6908POPC   C1A46983  19.843   9.018   6.450
 6908POPC   D2A46984  19.789   9.008   6.750
 6908POPC   C3A46985  19.833   8.963   7.050
 6908POPC   C4A46986  19.804   9.009   7.350
 6908POPC   C1B46987  19.619   8.837   6.450
 6908POPC   C2B46988  19.651   8.865   6.750
 6908POPC   C3B46989  19.668   8.785   7.050
 6908POPC   C4B46990  19.679   8.794   7.350
 6909POPC   NC346991  40.015  42.381   5.550
 6909POPC   PO446992  39.983  42.351   5.850
 6909POPC   GL146993  39.959  42.288   6.150
 6909POPC   GL246994  40.108  42.304   6.150
 6909POPC   C1A46995  39.971  42.309   6.450
 6909POPC   D2A46996  39.981  42.299   6.750
 6909POPC   C3A46997  40.032  42.340   7.050
 6909POPC   C4A46998  39.992  42.312   7.350
 6909POPC   C1B46999  40.255  42.220   6.450
 6909POPC   C2B47000  40.247  42.217   6.750
 6909POPC   C3B47001  40.188  42.152   7.050
 6909POPC   C4B47002  40.195  42.228   7.350
 6910POPC   NC347003  32.207  15.160   5.550
 6910POPC   PO447004  32.224  15.198   5.850
 6910POPC   GL147005  32.226  15.141   6.150
 6910POPC   GL247006  32.163  15.258   6.150
 6910POPC   C1A47007  32.222  15.182   6.450
 6910POPC   D2A47008  32.245  15.134   6.750
 6910POPC   C3A47009  32.203  15.207   7.050
 6910POPC   C4A47010  32.206  15.214   7.350
 6910POPC   C1B47011  32.095  15.394   6.450
 6910POPC   C2B47012  32.049  15.387   6.750
 6910POPC   C3B47013  32.058  15.332   7.050
 6910POPC   C4B47014  32.108  15.389   7.350
 6911POPC   NC347015  16.768  36.880   5.550
 6911POPC   PO447016  16.684  36.916   5.850
 6911POPC   GL147017  16.681  36.880   6.150
 6911POPC   GL247018  16.688  37.047   6.150
 6911POPC   C1A47019  16.682  36.913   6.450
 6911POPC   D2A47020  16.704  36.897   6.750
 6911POPC   C3A47021  16.755  36.929   7.050
 6911POPC   C4A47022  16.757  36.880   7.350
 6911POPC   C1B47023  16.617  37.075   6.450
 6911POPC   C2B47024  16.572  37.170   6.750
 6911POPC   C3B47025  16.645  37.119   7.050
 6911POPC   C4B47026  16.608  37.077   7.350
 6912POPC   NC347027  20.602  39.199   5.550
 6912POPC   PO447028  20.606  39.193   5.850
 6912POPC   GL147029  20.629  39.202   6.150
 6912POPC   GL247030  20.735  39.331   6.150
 6912POPC   C1A47031  20.565  39.257   6.450
 6912POPC   D2A47032  20.564  39.186   6.750
 6912POPC   C3A47033  20.566  39.183   7.050
 6912POPC   C4A47034  20.653  39.211   7.350
 6912POPC   C1B47035  20.799  39.294   6.450
 6912POPC   C2B47036  20.867  39.294   6.750
 6912POPC   C3B47037  20.825  39.389   7.050
 6912POPC   C4B47038  20.820  39.300   7.350
 6913POPC   NC347039  26.087  27.576   5.550
 6913POPC   PO447040  26.019  27.618   5.850
 6913POPC   GL147041  26.059  27.624   6.150
 6913POPC   GL247042  25.980  27.690   6.150
 6913POPC   C1A47043  26.088  27.578   6.450
 6913POPC   D2A47044  26.086  27.547   6.750
 6913POPC   C3A47045  26.054  27.553   7.050
 6913POPC   C4A47046  26.042  27.604   7.350
 6913POPC   C1B47047  25.997  27.795   6.450
 6913POPC   C2B47048  26.013  27.831   6.750
 6913POPC   C3B47049  26.030  27.864   7.050
 6913POPC   C4B47050  26.033  27.810   7.350
 6914POPC   NC347051   4.300  42.289   5.550
 6914POPC   PO447052   4.311  42.312   5.850
 6914POPC   GL147053   4.317  42.346   6.150
 6914POPC   GL247054   4.365  42.412   6.150
 6914POPC   C1A47055   4.307  42.330   6.450
 6914POPC   D2A47056   4.324  42.366   6.750
 6914POPC   C3A47057   4.360  42.364   7.050
 6914POPC   C4A47058   4.283  42.350   7.350
 6914POPC   C1B47059   4.342  42.621   6.450
 6914POPC   C2B47060   4.361  42.603   6.750
 6914POPC   C3B47061   4.395  42.541   7.050
 6914POPC   C4B47062   4.365  42.565   7.350
 6915POPC   NC347063  26.808   4.320   5.550
 6915POPC   PO447064  26.775   4.337   5.850
 6915POPC   GL147065  26.838   4.336   6.150
 6915POPC   GL247066  26.825   4.247   6.150
 6915POPC   C1A47067  26.779   4.301   6.450
 6915POPC   D2A47068  26.775   4.327   6.750
 6915POPC   C3A47069  26.796   4.322   7.050
 6915POPC   C4A47070  26.801   4.328   7.350
 6915POPC   C1B47071  26.854   4.093   6.450
 6915POPC   C2B47072  26.877   4.088   6.750
 6915POPC   C3B47073  26.867   4.090   7.050
 6915POPC   C4B47074  26.904   4.099   7.350
 6916POPC   NC347075  34.603  39.247   5.550
 6916POPC   PO447076  34.620  39.219   5.850
 6916POPC   GL147077  34.590  39.247   6.150
 6916POPC   GL247078  34.467  39.248   6.150
 6916POPC   C1A47079  34.589  39.198   6.450
 6916POPC   D2A47080  34.592  39.270   6.750
 6916POPC   C3A47081  34.529  39.271   7.050
 6916POPC   C4A47082  34.610  39.223   7.350
 6916POPC   C1B47083  34.319  39.282   6.450
 6916POPC   C2B47084  34.325  39.287   6.750
 6916POPC   C3B47085  34.381  39.330   7.050
 6916POPC   C4B47086  34.384  39.279   7.350
 6917POPC   NC347087  34.619  30.732   5.550
 6917POPC   PO447088  34.552  30.686   5.850
 6917POPC   GL147089  34.547  30.656   6.150
 6917POPC   GL247090  34.663  30.773   6.150
 6917POPC   C1A47091  34.533  30.721   6.450
 6917POPC   D2A47092  34.587  30.729   6.750
 6917POPC   C3A47093  34.559  30.696   7.050
 6917POPC   C4A47094  34.530  30.730   7.350
 6917POPC   C1B47095  34.803  30.816   6.450
 6917POPC   C2B47096  34.746  30.882   6.750
 6917POPC   C3B47097  34.722  30.905   7.050
 6917POPC   C4B47098  34.725  30.901   7.350
 6918POPC   NC347099  40.827  44.658   5.550
 6918POPC   PO447100  40.800  44.670   5.850
 6918POPC   GL147101  40.819  44.616   6.150
 6918POPC   GL247102  40.843  44.526   6.150
 6918POPC   C1A47103  40.799  44.666   6.450
 6918POPC   D2A47104  40.827  44.657   6.750
 6918POPC   C3A47105  40.818  44.697   7.050
 6918POPC   C4A47106  40.802  44.708   7.350
 6918POPC   C1B47107  40.928  44.463   6.450
 6918POPC   C2B47108  40.969  44.451   6.750
 6918POPC   C3B47109  40.924  44.434   7.050
 6918POPC   C4B47110  40.946  44.432   7.350
 6919POPC   NC347111  10.523  12.040   5.550
 6919POPC   PO447112  10.493  12.091   5.850
 6919POPC   GL147113  10.506  12.120   6.150
 6919POPC   GL247114  10.420  11.945   6.150
 6919POPC   C1A47115  10.496  12.070   6.450
 6919POPC   D2A47116  10.557  12.122   6.750
 6919POPC   C3A47117  10.505  12.075   7.050
 6919POPC   C4A47118  10.532  12.107   7.350
 6919POPC   C1B47119  10.381  11.860   6.450
 6919POPC   C2B47120  10.332  11.943   6.750
 6919POPC   C3B47121  10.376  11.908   7.050
 6919POPC   C4B47122  10.305  11.898   7.350
 6920POPC   NC347123  22.894  29.188   5.550
 6920POPC   PO447124  22.922  29.133   5.850
 6920POPC   GL147125  22.918  29.185   6.150
 6920POPC   GL247126  22.859  29.205   6.150
 6920POPC   C1A47127  22.924  29.114   6.450
 6920POPC   D2A47128  22.902  29.120   6.750
 6920POPC   C3A47129  22.956  29.152   7.050
 6920POPC   C4A47130  22.982  29.145   7.350
 6920POPC   C1B47131  22.710  29.208   6.450
 6920POPC   C2B47132  22.699  29.199   6.750
 6920POPC   C3B47133  22.704  29.241   7.050
 6920POPC   C4B47134  22.716  29.211   7.350
 6921POPC   NC347135  42.354  32.244   5.550
 6921POPC   PO447136  42.369  32.281   5.850
 6921POPC   GL147137  42.300  32.249   6.150
 6921POPC   GL247138  42.427  32.293   6.150
 6921POPC   C1A47139  42.382  32.281   6.450
 6921POPC   D2A47140  42.311  32.244   6.750
 6921POPC   C3A47141  42.287  32.199   7.050
 6921POPC   C4A47142  42.320  32.210   7.350
 6921POPC   C1B47143  42.609  32.221   6.450
 6921POPC   C2B47144  42.568  32.247   6.750
 6921POPC   C3B47145  42.551  32.298   7.050
 6921POPC   C4B47146  42.598  32.282   7.350
 6922POPC   NC347147   5.065  35.356   5.550
 6922POPC   PO447148   5.045  35.365   5.850
 6922POPC   GL147149   5.109  35.308   6.150
 6922POPC   GL247150   5.051  35.277   6.150
 6922POPC   C1A47151   5.082  35.368   6.450
 6922POPC   D2A47152   5.116  35.388   6.750
 6922POPC   C3A47153   5.102  35.308   7.050
 6922POPC   C4A47154   5.141  35.318   7.350
 6922POPC   C1B47155   4.952  35.123   6.450
 6922POPC   C2B47156   4.950  35.128   6.750
 6922POPC   C3B47157   4.957  35.130   7.050
 6922POPC   C4B47158   4.918  35.168   7.350
 6923POPC   NC347159  29.191   3.568   5.550
 6923POPC   PO447160  29.105   3.503   5.850
 6923POPC   GL147161  29.115   3.554   6.150
 6923POPC   GL247162  29.176   3.462   6.150
 6923POPC   C1A47163  29.178   3.528   6.450
 6923POPC   D2A47164  29.170   3.544   6.750
 6923POPC   C3A47165  29.101   3.564   7.050
 6923POPC   C4A47166  29.098   3.512   7.350
 6923POPC   C1B47167  29.263   3.362   6.450
 6923POPC   C2B47168  29.307   3.351   6.750
 6923POPC   C3B47169  29.300   3.361   7.050
 6923POPC   C4B47170  29.234   3.357   7.350
 6924POPC   NC347171  11.257  42.384   5.550
 6924POPC   PO447172  11.319  42.328   5.850
 6924POPC   GL147173  11.252  42.315   6.150
 6924POPC   GL247174  11.464  42.353   6.150
 6924POPC   C1A47175  11.305  42.362   6.450
 6924POPC   D2A47176  11.297  42.347   6.750
 6924POPC   C3A47177  11.348  42.357   7.050
 6924POPC   C4A47178  11.266  42.303   7.350
 6924POPC   C1B47179  11.503  42.379   6.450
 6924POPC   C2B47180  11.545  42.322   6.750
 6924POPC   C3B47181  11.528  42.305   7.050
 6924POPC   C4B47182  11.513  42.393   7.350
 6925POPC   NC347183  26.013  40.759   5.550
 6925POPC   PO447184  26.042  40.749   5.850
 6925POPC   GL147185  26.053  40.783   6.150
 6925POPC   GL247186  26.015  40.910   6.150
 6925POPC   C1A47187  26.018  40.776   6.450
 6925POPC   D2A47188  25.997  40.811   6.750
 6925POPC   C3A47189  26.050  40.789   7.050
 6925POPC   C4A47190  26.008  40.817   7.350
 6925POPC   C1B47191  26.085  41.050   6.450
 6925POPC   C2B47192  26.083  40.989   6.750
 6925POPC   C3B47193  26.017  40.992   7.050
 6925POPC   C4B47194  26.053  41.055   7.350
 6926POPC   NC347195   0.416  12.832   5.550
 6926POPC   PO447196   0.391  12.878   5.850
 6926POPC   GL147197   0.485  12.867   6.150
 6926POPC   GL247198   0.461  12.744   6.150
 6926POPC   C1A47199   0.404  12.864   6.450
 6926POPC   D2A47200   0.457  12.877   6.750
 6926POPC   C3A47201   0.474  12.842   7.050
 6926POPC   C4A47202   0.484  12.855   7.350
 6926POPC   C1B47203   0.459  12.609   6.450
 6926POPC   C2B47204   0.392  12.602   6.750
 6926POPC   C3B47205   0.430  12.589   7.050
 6926POPC   C4B47206   0.429  12.608   7.350
 6927POPC   NC347207   5.884  38.463   5.550
 6927POPC   PO447208   5.851  38.468   5.850
 6927POPC   GL147209   5.863  38.408   6.150
 6927POPC   GL247210   5.769  38.481   6.150
 6927POPC   C1A47211   5.869  38.424   6.450
 6927POPC   D2A47212   5.904  38.436   6.750
 6927POPC   C3A47213   5.888  38.468   7.050
 6927POPC   C4A47214   5.829  38.453   7.350
 6927POPC   C1B47215   5.638  38.559   6.450
 6927POPC   C2B47216   5.675  38.475   6.750
 6927POPC   C3B47217   5.579  38.558   7.050
 6927POPC   C4B47218   5.608  38.470   7.350
 6928POPC   NC347219  37.642  40.021   5.550
 6928POPC   PO447220  37.725  39.979   5.850
 6928POPC   GL147221  37.682  39.985   6.150
 6928POPC   GL247222  37.601  40.034   6.150
 6928POPC   C1A47223  37.646  40.015   6.450
 6928POPC   D2A47224  37.673  39.994   6.750
 6928POPC   C3A47225  37.684  39.990   7.050
 6928POPC   C4A47226  37.693  40.001   7.350
 6928POPC   C1B47227  37.432  40.180   6.450
 6928POPC   C2B47228  37.473  40.124   6.750
 6928POPC   C3B47229  37.476  40.182   7.050
 6928POPC   C4B47230  37.521  40.110   7.350
 6929POPC   NC347231   3.515  29.912   5.550
 6929POPC   PO447232   3.532  29.969   5.850
 6929POPC   GL147233   3.577  29.932   6.150
 6929POPC   GL247234   3.418  29.968   6.150
 6929POPC   C1A47235   3.575  29.954   6.450
 6929POPC   D2A47236   3.522  29.904   6.750
 6929POPC   C3A47237   3.516  29.888   7.050
 6929POPC   C4A47238   3.559  29.872   7.350
 6929POPC   C1B47239   3.339  29.986   6.450
 6929POPC   C2B47240   3.279  30.049   6.750
 6929POPC   C3B47241   3.306  30.034   7.050
 6929POPC   C4B47242   3.353  30.006   7.350
 6930POPC   NC347243   1.230  43.076   5.550
 6930POPC   PO447244   1.205  43.152   5.850
 6930POPC   GL147245   1.215  43.077   6.150
 6930POPC   GL247246   1.275  43.235   6.150
 6930POPC   C1A47247   1.172  43.129   6.450
 6930POPC   D2A47248   1.165  43.153   6.750
 6930POPC   C3A47249   1.226  43.087   7.050
 6930POPC   C4A47250   1.251  43.097   7.350
 6930POPC   C1B47251   1.315  43.372   6.450
 6930POPC   C2B47252   1.283  43.301   6.750
 6930POPC   C3B47253   1.316  43.290   7.050
 6930POPC   C4B47254   1.284  43.307   7.350
 6931POPC   NC347255  23.677  32.250   5.550
 6931POPC   PO447256  23.676  32.245   5.850
 6931POPC   GL147257  23.683  32.274   6.150
 6931POPC   GL247258  23.602  32.224   6.150
 6931POPC   C1A47259  23.690  32.291   6.450
 6931POPC   D2A47260  23.743  32.216   6.750
 6931POPC   C3A47261  23.671  32.207   7.050
 6931POPC   C4A47262  23.738  32.279   7.350
 6931POPC   C1B47263  23.442  32.245   6.450
 6931POPC   C2B47264  23.504  32.269   6.750
 6931POPC   C3B47265  23.472  32.238   7.050
 6931POPC   C4B47266  23.508  32.287   7.350
 6932POPC   NC347267  39.986  32.280   5.550
 6932POPC   PO447268  39.965  32.282   5.850
 6932POPC   GL147269  39.965  32.276   6.150
 6932POPC   GL247270  40.134  32.321   6.150
 6932POPC   C1A47271  40.024  32.202   6.450
 6932POPC   D2A47272  39.959  32.263   6.750
 6932POPC   C3A47273  40.006  32.223   7.050
 6932POPC   C4A47274  40.043  32.287   7.350
 6932POPC   C1B47275  40.155  32.413   6.450
 6932POPC   C2B47276  40.217  32.472   6.750
 6932POPC   C3B47277  40.172  32.395   7.050
 6932POPC   C4B47278  40.124  32.430   7.350
 6933POPC   NC347279  16.001  15.907   5.550
 6933POPC   PO447280  15.981  15.969   5.850
 6933POPC   GL147281  15.961  15.954   6.150
 6933POPC   GL247282  16.113  15.997   6.150
 6933POPC   C1A47283  15.929  15.909   6.450
 6933POPC   D2A47284  15.920  15.917   6.750
 6933POPC   C3A47285  15.997  15.930   7.050
 6933POPC   C4A47286  15.951  15.982   7.350
 6933POPC   C1B47287  16.171  15.968   6.450
 6933POPC   C2B47288  16.238  15.993   6.750
 6933POPC   C3B47289  16.219  16.035   7.050
 6933POPC   C4B47290  16.237  15.982   7.350
 6934POPC   NC347291  33.782  21.409   5.550
 6934POPC   PO447292  33.766  21.341   5.850
 6934POPC   GL147293  33.766  21.397   6.150
 6934POPC   GL247294  33.926  21.407   6.150
 6934POPC   C1A47295  33.800  21.337   6.450
 6934POPC   D2A47296  33.841  21.390   6.750
 6934POPC   C3A47297  33.800  21.385   7.050
 6934POPC   C4A47298  33.766  21.366   7.350
 6934POPC   C1B47299  34.019  21.324   6.450
 6934POPC   C2B47300  34.009  21.333   6.750
 6934POPC   C3B47301  34.082  21.298   7.050
 6934POPC   C4B47302  34.079  21.328   7.350
 6935POPC   NC347303  44.707  15.907   5.550
 6935POPC   PO447304  44.623  15.966   5.850
 6935POPC   GL147305  44.648  15.928   6.150
 6935POPC   GL247306  44.734  15.897   6.150
 6935POPC   C1A47307  44.696  15.970   6.450
 6935POPC   D2A47308  44.680  15.993   6.750
 6935POPC   C3A47309  44.638  15.963   7.050
 6935POPC   C4A47310  44.681  15.974   7.350
 6935POPC   C1B47311  44.879  15.800   6.450
 6935POPC   C2B47312  44.840  15.770   6.750
 6935POPC   C3B47313  44.807  15.788   7.050
 6935POPC   C4B47314  44.889  15.834   7.350
 6936POPC   NC347315  43.067  39.986   5.550
 6936POPC   PO447316  43.111  39.979   5.850
 6936POPC   GL147317  43.070  40.010   6.150
 6936POPC   GL247318  43.167  39.910   6.150
 6936POPC   C1A47319  43.104  39.993   6.450
 6936POPC   D2A47320  43.144  40.005   6.750
 6936POPC   C3A47321  43.103  40.027   7.050
 6936POPC   C4A47322  43.082  40.040   7.350
 6936POPC   C1B47323  43.246  39.799   6.450
 6936POPC   C2B47324  43.315  39.791   6.750
 6936POPC   C3B47325  43.258  39.844   7.050
 6936POPC   C4B47326  43.242  39.771   7.350
 6937POPC   NC347327  43.127   5.108   5.550
 6937POPC   PO447328  43.145   5.061   5.850
 6937POPC   GL147329  43.079   5.063   6.150
 6937POPC   GL247330  43.244   5.067   6.150
 6937POPC   C1A47331  43.095   5.089   6.450
 6937POPC   D2A47332  43.087   5.093   6.750
 6937POPC   C3A47333  43.152   5.112   7.050
 6937POPC   C4A47334  43.069   5.100   7.350
 6937POPC   C1B47335  43.396   5.073   6.450
 6937POPC   C2B47336  43.391   5.098   6.750
 6937POPC   C3B47337  43.369   5.079   7.050
 6937POPC   C4B47338  43.329   5.053   7.350
 6938POPC   NC347339   5.871  41.596   5.550
 6938POPC   PO447340   5.885  41.602   5.850
 6938POPC   GL147341   5.887  41.570   6.150
 6938POPC   GL247342   5.815  41.665   6.150
 6938POPC   C1A47343   5.851  41.570   6.450
 6938POPC   D2A47344   5.852  41.561   6.750
 6938POPC   C3A47345   5.882  41.574   7.050
 6938POPC   C4A47346   5.895  41.535   7.350
 6938POPC   C1B47347   5.833  41.756   6.450
 6938POPC   C2B47348   5.785  41.797   6.750
 6938POPC   C3B47349   5.820  41.850   7.050
 6938POPC   C4B47350   5.810  41.772   7.350
 6939POPC   NC347351  28.418  13.643   5.550
 6939POPC   PO447352  28.368  13.596   5.850
 6939POPC   GL147353  28.411  13.662   6.150
 6939POPC   GL247354  28.334  13.721   6.150
 6939POPC   C1A47355  28.407  13.634   6.450
 6939POPC   D2A47356  28.404  13.655   6.750
 6939POPC   C3A47357  28.406  13.652   7.050
 6939POPC   C4A47358  28.407  13.619   7.350
 6939POPC   C1B47359  28.408  13.874   6.450
 6939POPC   C2B47360  28.376  13.922   6.750
 6939POPC   C3B47361  28.397  13.867   7.050
 6939POPC   C4B47362  28.415  13.900   7.350
 6940POPC   NC347363  32.236  31.459   5.550
 6940POPC   PO447364  32.244  31.496   5.850
 6940POPC   GL147365  32.268  31.423   6.150
 6940POPC   GL247366  32.119  31.472   6.150
 6940POPC   C1A47367  32.274  31.479   6.450
 6940POPC   D2A47368  32.273  31.431   6.750
 6940POPC   C3A47369  32.221  31.477   7.050
 6940POPC   C4A47370  32.253  31.484   7.350
 6940POPC   C1B47371  31.986  31.514   6.450
 6940POPC   C2B47372  32.014  31.543   6.750
 6940POPC   C3B47373  31.998  31.511   7.050
 6940POPC   C4B47374  32.043  31.521   7.350
 6941POPC   NC347375  42.291  14.380   5.550
 6941POPC   PO447376  42.317  14.441   5.850
 6941POPC   GL147377  42.335  14.393   6.150
 6941POPC   GL247378  42.347  14.494   6.150
 6941POPC   C1A47379  42.306  14.405   6.450
 6941POPC   D2A47380  42.352  14.405   6.750
 6941POPC   C3A47381  42.366  14.427   7.050
 6941POPC   C4A47382  42.355  14.417   7.350
 6941POPC   C1B47383  42.406  14.688   6.450
 6941POPC   C2B47384  42.380  14.664   6.750
 6941POPC   C3B47385  42.356  14.660   7.050
 6941POPC   C4B47386  42.377  14.629   7.350
 6942POPC   NC347387  26.770  15.142   5.550
 6942POPC   PO447388  26.866  15.154   5.850
 6942POPC   GL147389  26.771  15.148   6.150
 6942POPC   GL247390  26.949  15.219   6.150
 6942POPC   C1A47391  26.824  15.187   6.450
 6942POPC   D2A47392  26.857  15.212   6.750
 6942POPC   C3A47393  26.795  15.178   7.050
 6942POPC   C4A47394  26.852  15.135   7.350
 6942POPC   C1B47395  27.080  15.255   6.450
 6942POPC   C2B47396  27.079  15.242   6.750
 6942POPC   C3B47397  27.010  15.242   7.050
 6942POPC   C4B47398  27.075  15.228   7.350
 6943POPC   NC347399  40.785  39.238   5.550
 6943POPC   PO447400  40.762  39.264   5.850
 6943POPC   GL147401  40.747  39.271   6.150
 6943POPC   GL247402  40.720  39.203   6.150
 6943POPC   C1A47403  40.737  39.225   6.450
 6943POPC   D2A47404  40.827  39.227   6.750
 6943POPC   C3A47405  40.764  39.235   7.050
 6943POPC   C4A47406  40.802  39.271   7.350
 6943POPC   C1B47407  40.526  39.083   6.450
 6943POPC   C2B47408  40.605  39.119   6.750
 6943POPC   C3B47409  40.567  39.086   7.050
 6943POPC   C4B47410  40.591  39.080   7.350
 6944POPC   NC347411   1.990  33.831   5.550
 6944POPC   PO447412   1.997  33.817   5.850
 6944POPC   GL147413   1.986  33.768   6.150
 6944POPC   GL247414   2.100  33.667   6.150
 6944POPC   C1A47415   2.039  33.821   6.450
 6944POPC   D2A47416   1.940  33.798   6.750
 6944POPC   C3A47417   1.990  33.824   7.050
 6944POPC   C4A47418   2.022  33.774   7.350
 6944POPC   C1B47419   2.115  33.565   6.450
 6944POPC   C2B47420   2.167  33.589   6.750
 6944POPC   C3B47421   2.130  33.656   7.050
 6944POPC   C4B47422   2.153  33.618   7.350
 6945POPC   NC347423  19.043  12.877   5.550
 6945POPC   PO447424  19.040  12.893   5.850
 6945POPC   GL147425  19.021  12.829   6.150
 6945POPC   GL247426  19.166  12.825   6.150
 6945POPC   C1A47427  19.037  12.872   6.450
 6945POPC   D2A47428  19.051  12.820   6.750
 6945POPC   C3A47429  19.056  12.887   7.050
 6945POPC   C4A47430  19.013  12.821   7.350
 6945POPC   C1B47431  19.288  12.752   6.450
 6945POPC   C2B47432  19.269  12.705   6.750
 6945POPC   C3B47433  19.293  12.699   7.050
 6945POPC   C4B47434  19.261  12.719   7.350
 6946POPC   NC347435   6.624  26.022   5.550
 6946POPC   PO447436   6.655  26.072   5.850
 6946POPC   GL147437   6.602  26.061   6.150
 6946POPC   GL247438   6.528  26.139   6.150
 6946POPC   C1A47439   6.639  26.081   6.450
 6946POPC   D2A47440   6.657  26.080   6.750
 6946POPC   C3A47441   6.630  25.996   7.050
 6946POPC   C4A47442   6.694  26.038   7.350
 6946POPC   C1B47443   6.513  26.262   6.450
 6946POPC   C2B47444   6.497  26.173   6.750
 6946POPC   C3B47445   6.461  26.226   7.050
 6946POPC   C4B47446   6.454  26.270   7.350
 6947POPC   NC347447   1.980  12.893   5.550
 6947POPC   PO447448   1.968  12.882   5.850
 6947POPC   GL147449   2.008  12.857   6.150
 6947POPC   GL247450   2.096  12.892   6.150
 6947POPC   C1A47451   1.953  12.803   6.450
 6947POPC   D2A47452   1.989  12.888   6.750
 6947POPC   C3A47453   1.961  12.898   7.050
 6947POPC   C4A47454   2.003  12.832   7.350
 6947POPC   C1B47455   2.211  12.969   6.450
 6947POPC   C2B47456   2.268  12.973   6.750
 6947POPC   C3B47457   2.251  12.933   7.050
 6947POPC   C4B47458   2.237  12.961   7.350
 6948POPC   NC347459  24.453  28.352   5.550
 6948POPC   PO447460  24.528  28.379   5.850
 6948POPC   GL147461  24.450  28.345   6.150
 6948POPC   GL247462  24.373  28.343   6.150
 6948POPC   C1A47463  24.521  28.419   6.450
 6948POPC   D2A47464  24.509  28.394   6.750
 6948POPC   C3A47465  24.505  28.417   7.050
 6948POPC   C4A47466  24.487  28.325   7.350
 6948POPC   C1B47467  24.252  28.257   6.450
 6948POPC   C2B47468  24.305  28.236   6.750
 6948POPC   C3B47469  24.291  28.290   7.050
 6948POPC   C4B47470  24.300  28.273   7.350
 6949POPC   NC347471  39.977   5.839   5.550
 6949POPC   PO447472  39.985   5.896   5.850
 6949POPC   GL147473  40.033   5.889   6.150
 6949POPC   GL247474  39.879   5.927   6.150
 6949POPC   C1A47475  39.975   5.820   6.450
 6949POPC   D2A47476  40.045   5.890   6.750
 6949POPC   C3A47477  40.053   5.905   7.050
 6949POPC   C4A47478  40.032   5.901   7.350
 6949POPC   C1B47479  39.739   5.915   6.450
 6949POPC   C2B47480  39.810   5.917   6.750
 6949POPC   C3B47481  39.811   5.971   7.050
 6949POPC   C4B47482  39.760   5.984   7.350
 6950POPC   NC347483  36.167  11.313   5.550
 6950POPC   PO447484  36.112  11.345   5.850
 6950POPC   GL147485  36.099  11.270   6.150
 6950POPC   GL247486  36.170  11.146   6.150
 6950POPC   C1A47487  36.080  11.299   6.450
 6950POPC   D2A47488  36.148  11.278   6.750
 6950POPC   C3A47489  36.090  11.336   7.050
 6950POPC   C4A47490  36.100  11.281   7.350
 6950POPC   C1B47491  36.148  11.074   6.450
 6950POPC   C2B47492  36.171  11.039   6.750
 6950POPC   C3B47493  36.199  11.091   7.050
 6950POPC   C4B47494  36.146  11.030   7.350
 6951POPC   NC347495  24.496  39.995   5.550
 6951POPC   PO447496  24.513  39.962   5.850
 6951POPC   GL147497  24.515  40.026   6.150
 6951POPC   GL247498  24.507  39.860   6.150
 6951POPC   C1A47499  24.489  40.048   6.450
 6951POPC   D2A47500  24.452  39.986   6.750
 6951POPC   C3A47501  24.502  40.036   7.050
 6951POPC   C4A47502  24.448  39.969   7.350
 6951POPC   C1B47503  24.566  39.724   6.450
 6951POPC   C2B47504  24.525  39.793   6.750
 6951POPC   C3B47505  24.547  39.784   7.050
 6951POPC   C4B47506  24.571  39.805   7.350
 6952POPC   NC347507   5.060  22.145   5.550
 6952POPC   PO447508   5.073  22.130   5.850
 6952POPC   GL147509   5.055  22.132   6.150
 6952POPC   GL247510   5.238  22.194   6.150
 6952POPC   C1A47511   5.109  22.154   6.450
 6952POPC   D2A47512   5.068  22.138   6.750
 6952POPC   C3A47513   5.083  22.142   7.050
 6952POPC   C4A47514   5.079  22.202   7.350
 6952POPC   C1B47515   5.377  22.163   6.450
 6952POPC   C2B47516   5.370  22.176   6.750
 6952POPC   C3B47517   5.369  22.226   7.050
 6952POPC   C4B47518   5.308  22.209   7.350
 6953POPC   NC347519  37.634  28.379   5.550
 6953POPC   PO447520  37.695  28.414   5.850
 6953POPC   GL147521  37.668  28.371   6.150
 6953POPC   GL247522  37.661  28.443   6.150
 6953POPC   C1A47523  37.670  28.386   6.450
 6953POPC   D2A47524  37.713  28.383   6.750
 6953POPC   C3A47525  37.659  28.341   7.050
 6953POPC   C4A47526  37.658  28.385   7.350
 6953POPC   C1B47527  37.588  28.644   6.450
 6953POPC   C2B47528  37.657  28.569   6.750
 6953POPC   C3B47529  37.658  28.599   7.050
 6953POPC   C4B47530  37.619  28.649   7.350
 6954POPC   NC347531  19.079  12.089   5.550
 6954POPC   PO447532  19.051  12.040   5.850
 6954POPC   GL147533  19.067  12.029   6.150
 6954POPC   GL247534  18.978  12.006   6.150
 6954POPC   C1A47535  19.059  12.076   6.450
 6954POPC   D2A47536  19.056  12.122   6.750
 6954POPC   C3A47537  19.075  12.091   7.050
 6954POPC   C4A47538  19.070  12.101   7.350
 6954POPC   C1B47539  18.948  11.899   6.450
 6954POPC   C2B47540  18.938  11.811   6.750
 6954POPC   C3B47541  18.955  11.890   7.050
 6954POPC   C4B47542  18.945  11.886   7.350
 6955POPC   NC347543  34.620   1.987   5.550
 6955POPC   PO447544  34.602   1.985   5.850
 6955POPC   GL147545  34.536   1.956   6.150
 6955POPC   GL247546  34.535   1.861   6.150
 6955POPC   C1A47547  34.554   2.039   6.450
 6955POPC   D2A47548  34.540   1.991   6.750
 6955POPC   C3A47549  34.603   1.955   7.050
 6955POPC   C4A47550  34.590   2.034   7.350
 6955POPC   C1B47551  34.507   1.799   6.450
 6955POPC   C2B47552  34.501   1.738   6.750
 6955POPC   C3B47553  34.447   1.735   7.050
 6955POPC   C4B47554  34.428   1.776   7.350
 6956POPC   NC347555  33.787  11.278   5.550
 6956POPC   PO447556  33.815  11.325   5.850
 6956POPC   GL147557  33.847  11.319   6.150
 6956POPC   GL247558  33.875  11.315   6.150
 6956POPC   C1A47559  33.805  11.314   6.450
 6956POPC   D2A47560  33.841  11.268   6.750
 6956POPC   C3A47561  33.836  11.264   7.050
 6956POPC   C4A47562  33.831  11.267   7.350
 6956POPC   C1B47563  34.079  11.405   6.450
 6956POPC   C2B47564  34.083  11.381   6.750
 6956POPC   C3B47565  34.067  11.315   7.050
 6956POPC   C4B47566  34.033  11.378   7.350
 6957POPC   NC347567  38.458  22.950   5.550
 6957POPC   PO447568  38.457  22.934   5.850
 6957POPC   GL147569  38.416  22.894   6.150
 6957POPC   GL247570  38.543  22.822   6.150
 6957POPC   C1A47571  38.503  22.956   6.450
 6957POPC   D2A47572  38.504  22.923   6.750
 6957POPC   C3A47573  38.492  22.946   7.050
 6957POPC   C4A47574  38.463  22.946   7.350
 6957POPC   C1B47575  38.581  22.701   6.450
 6957POPC   C2B47576  38.588  22.781   6.750
 6957POPC   C3B47577  38.614  22.741   7.050
 6957POPC   C4B47578  38.582  22.763   7.350
 6958POPC   NC347579  37.652  40.779   5.550
 6958POPC   PO447580  37.710  40.833   5.850
 6958POPC   GL147581  37.700  40.819   6.150
 6958POPC   GL247582  37.789  40.842   6.150
 6958POPC   C1A47583  37.709  40.798   6.450
 6958POPC   D2A47584  37.636  40.786   6.750
 6958POPC   C3A47585  37.669  40.784   7.050
 6958POPC   C4A47586  37.649  40.759   7.350
 6958POPC   C1B47587  37.898  40.971   6.450
 6958POPC   C2B47588  37.856  40.964   6.750
 6958POPC   C3B47589  37.913  40.907   7.050
 6958POPC   C4B47590  37.861  40.938   7.350
 6959POPC   NC347591  21.368  39.264   5.550
 6959POPC   PO447592  21.423  39.207   5.850
 6959POPC   GL147593  21.349  39.186   6.150
 6959POPC   GL247594  21.352  39.103   6.150
 6959POPC   C1A47595  21.409  39.200   6.450
 6959POPC   D2A47596  21.384  39.253   6.750
 6959POPC   C3A47597  21.410  39.191   7.050
 6959POPC   C4A47598  21.420  39.196   7.350
 6959POPC   C1B47599  21.194  39.052   6.450
 6959POPC   C2B47600  21.274  39.004   6.750
 6959POPC   C3B47601  21.220  39.013   7.050
 6959POPC   C4B47602  21.233  39.069   7.350
 6960POPC   NC347603  40.055  10.559   5.550
 6960POPC   PO447604  39.982  10.508   5.850
 6960POPC   GL147605  39.964  10.527   6.150
 6960POPC   GL247606  39.954  10.611   6.150
 6960POPC   C1A47607  40.040  10.554   6.450
 6960POPC   D2A47608  39.966  10.554   6.750
 6960POPC   C3A47609  40.036  10.572   7.050
 6960POPC   C4A47610  39.975  10.541   7.350
 6960POPC   C1B47611  39.931  10.749   6.450
 6960POPC   C2B47612  39.928  10.734   6.750
 6960POPC   C3B47613  39.910  10.777   7.050
 6960POPC   C4B47614  39.946  10.726   7.350
 6961POPC   NC347615   5.893  29.879   5.550
 6961POPC   PO447616   5.911  29.912   5.850
 6961POPC   GL147617   5.864  29.924   6.150
 6961POPC   GL247618   5.991  29.862   6.150
 6961POPC   C1A47619   5.902  29.958   6.450
 6961POPC   D2A47620   5.835  29.912   6.750
 6961POPC   C3A47621   5.887  29.891   7.050
 6961POPC   C4A47622   5.846  29.964   7.350
 6961POPC   C1B47623   6.045  29.809   6.450
 6961POPC   C2B47624   6.078  29.801   6.750
 6961POPC   C3B47625   6.052  29.781   7.050
 6961POPC   C4B47626   6.117  29.813   7.350
 6962POPC   NC347627   8.984  36.872   5.550
 6962POPC   PO447628   8.928  36.924   5.850
 6962POPC   GL147629   8.980  36.934   6.150
 6962POPC   GL247630   9.084  36.838   6.150
 6962POPC   C1A47631   8.976  36.871   6.450
 6962POPC   D2A47632   8.950  36.933   6.750
 6962POPC   C3A47633   8.951  36.868   7.050
 6962POPC   C4A47634   8.945  36.863   7.350
 6962POPC   C1B47635   9.102  36.716   6.450
 6962POPC   C2B47636   9.128  36.739   6.750
 6962POPC   C3B47637   9.108  36.680   7.050
 6962POPC   C4B47638   9.074  36.732   7.350
 6963POPC   NC347639  39.187  43.074   5.550
 6963POPC   PO447640  39.244  43.107   5.850
 6963POPC   GL147641  39.209  43.084   6.150
 6963POPC   GL247642  39.385  43.123   6.150
 6963POPC   C1A47643  39.240  43.088   6.450
 6963POPC   D2A47644  39.266  43.087   6.750
 6963POPC   C3A47645  39.198  43.066   7.050
 6963POPC   C4A47646  39.214  43.117   7.350
 6963POPC   C1B47647  39.511  43.129   6.450
 6963POPC   C2B47648  39.489  43.187   6.750
 6963POPC   C3B47649  39.495  43.143   7.050
 6963POPC   C4B47650  39.482  43.218   7.350
 6964POPC   NC347651  12.026  43.920   5.550
 6964POPC   PO447652  12.096  43.930   5.850
 6964POPC   GL147653  12.108  43.870   6.150
 6964POPC   GL247654  12.192  43.830   6.150
 6964POPC   C1A47655  12.063  43.890   6.450
 6964POPC   D2A47656  12.052  43.925   6.750
 6964POPC   C3A47657  12.079  43.910   7.050
 6964POPC   C4A47658  12.089  43.931   7.350
 6964POPC   C1B47659  12.285  43.758   6.450
 6964POPC   C2B47660  12.275  43.704   6.750
 6964POPC   C3B47661  12.314  43.765   7.050
 6964POPC   C4B47662  12.220  43.677   7.350
 6965POPC   NC347663   7.445  40.752   5.550
 6965POPC   PO447664   7.450  40.827   5.850
 6965POPC   GL147665   7.397  40.821   6.150
 6965POPC   GL247666   7.496  40.774   6.150
 6965POPC   C1A47667   7.374  40.816   6.450
 6965POPC   D2A47668   7.372  40.814   6.750
 6965POPC   C3A47669   7.451  40.775   7.050
 6965POPC   C4A47670   7.393  40.808   7.350
 6965POPC   C1B47671   7.713  40.728   6.450
 6965POPC   C2B47672   7.638  40.734   6.750
 6965POPC   C3B47673   7.681  40.773   7.050
 6965POPC   C4B47674   7.616  40.732   7.350
 6966POPC   NC347675  15.935   2.746   5.550
 6966POPC   PO447676  15.989   2.718   5.850
 6966POPC   GL147677  15.925   2.722   6.150
 6966POPC   GL247678  16.040   2.851   6.150
 6966POPC   C1A47679  15.970   2.718   6.450
 6966POPC   D2A47680  15.973   2.775   6.750
 6966POPC   C3A47681  15.986   2.758   7.050
 6966POPC   C4A47682  15.924   2.806   7.350
 6966POPC   C1B47683  16.108   2.909   6.450
 6966POPC   C2B47684  16.122   2.890   6.750
 6966POPC   C3B47685  16.109   2.969   7.050
 6966POPC   C4B47686  16.163   2.976   7.350
 6967POPC   NC347687  33.823  18.328   5.550
 6967POPC   PO447688  33.773  18.239   5.850
 6967POPC   GL147689  33.752  18.294   6.150
 6967POPC   GL247690  33.923  18.203   6.150
 6967POPC   C1A47691  33.844  18.300   6.450
 6967POPC   D2A47692  33.830  18.317   6.750
 6967POPC   C3A47693  33.824  18.265   7.050
 6967POPC   C4A47694  33.805  18.252   7.350
 6967POPC   C1B47695  33.950  18.097   6.450
 6967POPC   C2B47696  33.947  18.104   6.750
 6967POPC   C3B47697  33.990  18.086   7.050
 6967POPC   C4B47698  34.015  18.123   7.350
 6968POPC   NC347699  29.965  15.959   5.550
 6968POPC   PO447700  29.879  15.921   5.850
 6968POPC   GL147701  29.968  15.993   6.150
 6968POPC   GL247702  29.855  15.891   6.150
 6968POPC   C1A47703  29.875  15.924   6.450
 6968POPC   D2A47704  29.913  15.932   6.750
 6968POPC   C3A47705  29.924  15.988   7.050
 6968POPC   C4A47706  29.969  15.947   7.350
 6968POPC   C1B47707  29.712  15.805   6.450
 6968POPC   C2B47708  29.775  15.768   6.750
 6968POPC   C3B47709  29.769  15.832   7.050
 6968POPC   C4B47710  29.736  15.795   7.350
 6969POPC   NC347711  26.021   6.600   5.550
 6969POPC   PO447712  26.087   6.633   5.850
 6969POPC   GL147713  26.089   6.599   6.150
 6969POPC   GL247714  26.068   6.494   6.150
 6969POPC   C1A47715  26.046   6.687   6.450
 6969POPC   D2A47716  26.013   6.661   6.750
 6969POPC   C3A47717  26.071   6.688   7.050
 6969POPC   C4A47718  26.002   6.632   7.350
 6969POPC   C1B47719  26.167   6.460   6.450
 6969POPC   C2B47720  26.164   6.464   6.750
 6969POPC   C3B47721  26.159   6.452   7.050
 6969POPC   C4B47722  26.192   6.483   7.350
 6970POPC   NC347723  12.851  44.687   5.550
 6970POPC   PO447724  12.834  44.663   5.850
 6970POPC   GL147725  12.888  44.644   6.150
 6970POPC   GL247726  12.785  44.760   6.150
 6970POPC   C1A47727  12.838  44.691   6.450
 6970POPC   D2A47728  12.851  44.643   6.750
 6970POPC   C3A47729  12.870  44.692   7.050
 6970POPC   C4A47730  12.863  44.679   7.350
 6970POPC   C1B47731  12.719  44.842   6.450
 6970POPC   C2B47732  12.642  44.877   6.750
 6970POPC   C3B47733  12.636  44.843   7.050
 6970POPC   C4B47734  12.638  44.890   7.350
 6971POPC   NC347735  39.259  41.572   5.550
 6971POPC   PO447736  39.199  41.588   5.850
 6971POPC   GL147737  39.239  41.572   6.150
 6971POPC   GL247738  39.101  41.501   6.150
 6971POPC   C1A47739  39.220  41.597   6.450
 6971POPC   D2A47740  39.191  41.530   6.750
 6971POPC   C3A47741  39.212  41.586   7.050
 6971POPC   C4A47742  39.190  41.575   7.350
 6971POPC   C1B47743  39.016  41.469   6.450
 6971POPC   C2B47744  38.997  41.402   6.750
 6971POPC   C3B47745  39.001  41.453   7.050
 6971POPC   C4B47746  39.037  41.389   7.350
 6972POPC   NC347747   1.208   8.193   5.550
 6972POPC   PO447748   1.258   8.235   5.850
 6972POPC   GL147749   1.238   8.195   6.150
 6972POPC   GL247750   1.385   8.199   6.150
 6972POPC   C1A47751   1.241   8.190   6.450
 6972POPC   D2A47752   1.195   8.223   6.750
 6972POPC   C3A47753   1.245   8.163   7.050
 6972POPC   C4A47754   1.226   8.155   7.350
 6972POPC   C1B47755   1.486   8.178   6.450
 6972POPC   C2B47756   1.500   8.174   6.750
 6972POPC   C3B47757   1.445   8.188   7.050
 6972POPC   C4B47758   1.425   8.180   7.350
 6973POPC   NC347759  10.501  11.308   5.550
 6973POPC   PO447760  10.475  11.304   5.850
 6973POPC   GL147761  10.565  11.312   6.150
 6973POPC   GL247762  10.629  11.331   6.150
 6973POPC   C1A47763  10.495  11.333   6.450
 6973POPC   D2A47764  10.520  11.301   6.750
 6973POPC   C3A47765  10.494  11.262   7.050
 6973POPC   C4A47766  10.486  11.325   7.350
 6973POPC   C1B47767  10.741  11.314   6.450
 6973POPC   C2B47768  10.733  11.254   6.750
 6973POPC   C3B47769  10.759  11.257   7.050
 6973POPC   C4B47770  10.785  11.313   7.350
 6974POPC   NC347771  37.711  30.712   5.550
 6974POPC   PO447772  37.687  30.667   5.850
 6974POPC   GL147773  37.699  30.654   6.150
 6974POPC   GL247774  37.571  30.657   6.150
 6974POPC   C1A47775  37.659  30.676   6.450
 6974POPC   D2A47776  37.715  30.663   6.750
 6974POPC   C3A47777  37.696  30.714   7.050
 6974POPC   C4A47778  37.648  30.695   7.350
 6974POPC   C1B47779  37.502  30.580   6.450
 6974POPC   C2B47780  37.502  30.577   6.750
 6974POPC   C3B47781  37.440  30.523   7.050
 6974POPC   C4B47782  37.440  30.554   7.350
 6975POPC   NC347783  26.799  18.313   5.550
 6975POPC   PO447784  26.802  18.256   5.850
 6975POPC   GL147785  26.794  18.305   6.150
 6975POPC   GL247786  26.706  18.206   6.150
 6975POPC   C1A47787  26.819  18.271   6.450
 6975POPC   D2A47788  26.825  18.308   6.750
 6975POPC   C3A47789  26.776  18.298   7.050
 6975POPC   C4A47790  26.840  18.322   7.350
 6975POPC   C1B47791  26.541  18.232   6.450
 6975POPC   C2B47792  26.621  18.164   6.750
 6975POPC   C3B47793  26.617  18.175   7.050
 6975POPC   C4B47794  26.577  18.220   7.350
 6976POPC   NC347795   2.795  27.600   5.550
 6976POPC   PO447796   2.722  27.550   5.850
 6976POPC   GL147797   2.750  27.545   6.150
 6976POPC   GL247798   2.743  27.733   6.150
 6976POPC   C1A47799   2.788  27.586   6.450
 6976POPC   D2A47800   2.794  27.597   6.750
 6976POPC   C3A47801   2.792  27.618   7.050
 6976POPC   C4A47802   2.735  27.573   7.350
 6976POPC   C1B47803   2.668  27.816   6.450
 6976POPC   C2B47804   2.619  27.807   6.750
 6976POPC   C3B47805   2.650  27.859   7.050
 6976POPC   C4B47806   2.697  27.841   7.350
 6977POPC   NC347807  15.132   2.785   5.550
 6977POPC   PO447808  15.134   2.779   5.850
 6977POPC   GL147809  15.139   2.809   6.150
 6977POPC   GL247810  15.161   2.668   6.150
 6977POPC   C1A47811  15.153   2.775   6.450
 6977POPC   D2A47812  15.153   2.797   6.750
 6977POPC   C3A47813  15.209   2.743   7.050
 6977POPC   C4A47814  15.205   2.788   7.350
 6977POPC   C1B47815  15.173   2.475   6.450
 6977POPC   C2B47816  15.213   2.501   6.750
 6977POPC   C3B47817  15.192   2.540   7.050
 6977POPC   C4B47818  15.173   2.538   7.350
 6978POPC   NC347819   5.121  42.350   5.550
 6978POPC   PO447820   5.131  42.302   5.850
 6978POPC   GL147821   5.079  42.293   6.150
 6978POPC   GL247822   4.985  42.321   6.150
 6978POPC   C1A47823   5.122  42.323   6.450
 6978POPC   D2A47824   5.102  42.305   6.750
 6978POPC   C3A47825   5.085  42.324   7.050
 6978POPC   C4A47826   5.123  42.336   7.350
 6978POPC   C1B47827   4.907  42.271   6.450
 6978POPC   C2B47828   4.820  42.234   6.750
 6978POPC   C3B47829   4.865  42.213   7.050
 6978POPC   C4B47830   4.844  42.186   7.350
 6979POPC   NC347831  25.306  15.995   5.550
 6979POPC   PO447832  25.233  15.987   5.850
 6979POPC   GL147833  25.276  15.907   6.150
 6979POPC   GL247834  25.364  15.807   6.150
 6979POPC   C1A47835  25.277  15.977   6.450
 6979POPC   D2A47836  25.314  15.960   6.750
 6979POPC   C3A47837  25.274  15.917   7.050
 6979POPC   C4A47838  25.277  15.923   7.350
 6979POPC   C1B47839  25.408  15.691   6.450
 6979POPC   C2B47840  25.431  15.697   6.750
 6979POPC   C3B47841  25.341  15.721   7.050
 6979POPC   C4B47842  25.386  15.751   7.350
 6980POPC   NC347843   3.530  38.443   5.550
 6980POPC   PO447844   3.539  38.458   5.850
 6980POPC   GL147845   3.576  38.451   6.150
 6980POPC   GL247846   3.626  38.435   6.150
 6980POPC   C1A47847   3.513  38.478   6.450
 6980POPC   D2A47848   3.544  38.445   6.750
 6980POPC   C3A47849   3.580  38.471   7.050
 6980POPC   C4A47850   3.529  38.496   7.350
 6980POPC   C1B47851   3.784  38.418   6.450
 6980POPC   C2B47852   3.785  38.372   6.750
 6980POPC   C3B47853   3.801  38.423   7.050
 6980POPC   C4B47854   3.791  38.393   7.350
 6981POPC   NC347855  14.383  42.321   5.550
 6981POPC   PO447856  14.357  42.353   5.850
 6981POPC   GL147857  14.453  42.318   6.150
 6981POPC   GL247858  14.230  42.357   6.150
 6981POPC   C1A47859  14.409  42.334   6.450
 6981POPC   D2A47860  14.434  42.299   6.750
 6981POPC   C3A47861  14.397  42.338   7.050
 6981POPC   C4A47862  14.355  42.327   7.350
 6981POPC   C1B47863  14.203  42.322   6.450
 6981POPC   C2B47864  14.145  42.313   6.750
 6981POPC   C3B47865  14.122  42.317   7.050
 6981POPC   C4B47866  14.167  42.310   7.350
 6982POPC   NC347867  11.285  14.378   5.550
 6982POPC   PO447868  11.282  14.434   5.850
 6982POPC   GL147869  11.291  14.384   6.150
 6982POPC   GL247870  11.360  14.444   6.150
 6982POPC   C1A47871  11.345  14.399   6.450
 6982POPC   D2A47872  11.283  14.404   6.750
 6982POPC   C3A47873  11.293  14.405   7.050
 6982POPC   C4A47874  11.340  14.414   7.350
 6982POPC   C1B47875  11.523  14.557   6.450
 6982POPC   C2B47876  11.492  14.555   6.750
 6982POPC   C3B47877  11.529  14.558   7.050
 6982POPC   C4B47878  11.446  14.598   7.350
 6983POPC   NC347879  15.929  26.002   5.550
 6983POPC   PO447880  15.929  26.017   5.850
 6983POPC   GL147881  15.987  26.062   6.150
 6983POPC   GL247882  16.024  25.968   6.150
 6983POPC   C1A47883  15.909  26.026   6.450
 6983POPC   D2A47884  15.982  26.061   6.750
 6983POPC   C3A47885  16.001  26.044   7.050
 6983POPC   C4A47886  15.928  26.011   7.350
 6983POPC   C1B47887  16.186  25.918   6.450
 6983POPC   C2B47888  16.118  25.923   6.750
 6983POPC   C3B47889  16.121  25.915   7.050
 6983POPC   C4B47890  16.176  25.845   7.350
 6984POPC   NC347891  32.989  35.336   5.550
 6984POPC   PO447892  33.037  35.378   5.850
 6984POPC   GL147893  33.066  35.363   6.150
 6984POPC   GL247894  33.006  35.230   6.150
 6984POPC   C1A47895  32.978  35.366   6.450
 6984POPC   D2A47896  33.021  35.361   6.750
 6984POPC   C3A47897  33.003  35.377   7.050
 6984POPC   C4A47898  32.993  35.398   7.350
 6984POPC   C1B47899  32.986  35.077   6.450
 6984POPC   C2B47900  33.004  35.064   6.750
 6984POPC   C3B47901  32.953  35.084   7.050
 6984POPC   C4B47902  33.013  35.077   7.350
 6985POPC   NC347903  44.628   8.194   5.550
 6985POPC   PO447904  44.655   8.174   5.850
 6985POPC   GL147905  44.654   8.155   6.150
 6985POPC   GL247906  44.660   8.084   6.150
 6985POPC   C1A47907  44.673   8.194   6.450
 6985POPC   D2A47908  44.636   8.206   6.750
 6985POPC   C3A47909  44.666   8.236   7.050
 6985POPC   C4A47910  44.671   8.203   7.350
 6985POPC   C1B47911  44.645   7.986   6.450
 6985POPC   C2B47912  44.670   7.977   6.750
 6985POPC   C3B47913  44.667   7.981   7.050
 6985POPC   C4B47914  44.679   7.959   7.350
 6986POPC   NC347915   9.015  28.381   5.550
 6986POPC   PO447916   8.994  28.412   5.850
 6986POPC   GL147917   8.978  28.333   6.150
 6986POPC   GL247918   8.897  28.439   6.150
 6986POPC   C1A47919   8.966  28.418   6.450
 6986POPC   D2A47920   8.953  28.400   6.750
 6986POPC   C3A47921   9.019  28.341   7.050
 6986POPC   C4A47922   8.977  28.342   7.350
 6986POPC   C1B47923   8.853  28.571   6.450
 6986POPC   C2B47924   8.852  28.653   6.750
 6986POPC   C3B47925   8.917  28.610   7.050
 6986POPC   C4B47926   8.899  28.566   7.350
 6987POPC   NC347927  16.738  30.735   5.550
 6987POPC   PO447928  16.753  30.730   5.850
 6987POPC   GL147929  16.686  30.703   6.150
 6987POPC   GL247930  16.831  30.714   6.150
 6987POPC   C1A47931  16.691  30.746   6.450
 6987POPC   D2A47932  16.695  30.677   6.750
 6987POPC   C3A47933  16.779  30.735   7.050
 6987POPC   C4A47934  16.779  30.651   7.350
 6987POPC   C1B47935  16.930  30.687   6.450
 6987POPC   C2B47936  17.010  30.716   6.750
 6987POPC   C3B47937  16.987  30.736   7.050
 6987POPC   C4B47938  16.939  30.698   7.350
 6988POPC   NC347939  33.782  29.176   5.550
 6988POPC   PO447940  33.791  29.140   5.850
 6988POPC   GL147941  33.839  29.181   6.150
 6988POPC   GL247942  33.858  29.288   6.150
 6988POPC   C1A47943  33.767  29.126   6.450
 6988POPC   D2A47944  33.773  29.161   6.750
 6988POPC   C3A47945  33.776  29.142   7.050
 6988POPC   C4A47946  33.839  29.170   7.350
 6988POPC   C1B47947  33.811  29.380   6.450
 6988POPC   C2B47948  33.846  29.416   6.750
 6988POPC   C3B47949  33.875  29.392   7.050
 6988POPC   C4B47950  33.846  29.435   7.350
 6989POPC   NC347951  10.558  12.898   5.550
 6989POPC   PO447952  10.547  12.881   5.850
 6989POPC   GL147953  10.475  12.825   6.150
 6989POPC   GL247954  10.610  12.927   6.150
 6989POPC   C1A47955  10.557  12.813   6.450
 6989POPC   D2A47956  10.543  12.831   6.750
 6989POPC   C3A47957  10.516  12.880   7.050
 6989POPC   C4A47958  10.571  12.889   7.350
 6989POPC   C1B47959  10.808  12.944   6.450
 6989POPC   C2B47960  10.813  12.898   6.750
 6989POPC   C3B47961  10.817  12.894   7.050
 6989POPC   C4B47962  10.761  12.875   7.350
 6990POPC   NC347963  31.464   4.272   5.550
 6990POPC   PO447964  31.471   4.339   5.850
 6990POPC   GL147965  31.450   4.307   6.150
 6990POPC   GL247966  31.632   4.315   6.150
 6990POPC   C1A47967  31.499   4.366   6.450
 6990POPC   D2A47968  31.472   4.322   6.750
 6990POPC   C3A47969  31.510   4.283   7.050
 6990POPC   C4A47970  31.431   4.337   7.350
 6990POPC   C1B47971  31.716   4.374   6.450
 6990POPC   C2B47972  31.672   4.389   6.750
 6990POPC   C3B47973  31.677   4.345   7.050
 6990POPC   C4B47974  31.764   4.350   7.350
 6991POPC   NC347975  36.090  16.690   5.550
 6991POPC   PO447976  36.163  16.694   5.850
 6991POPC   GL147977  36.127  16.762   6.150
 6991POPC   GL247978  36.282  16.793   6.150
 6991POPC   C1A47979  36.137  16.768   6.450
 6991POPC   D2A47980  36.114  16.734   6.750
 6991POPC   C3A47981  36.124  16.727   7.050
 6991POPC   C4A47982  36.118  16.761   7.350
 6991POPC   C1B47983  36.413  16.818   6.450
 6991POPC   C2B47984  36.327  16.802   6.750
 6991POPC   C3B47985  36.409  16.784   7.050
 6991POPC   C4B47986  36.361  16.822   7.350
 6992POPC   NC347987  27.605  40.055   5.550
 6992POPC   PO447988  27.599  39.978   5.850
 6992POPC   GL147989  27.621  40.030   6.150
 6992POPC   GL247990  27.539  40.114   6.150
 6992POPC   C1A47991  27.619  40.048   6.450
 6992POPC   D2A47992  27.607  39.976   6.750
 6992POPC   C3A47993  27.642  39.957   7.050
 6992POPC   C4A47994  27.635  40.004   7.350
 6992POPC   C1B47995  27.465  40.232   6.450
 6992POPC   C2B47996  27.475  40.208   6.750
 6992POPC   C3B47997  27.427  40.231   7.050
 6992POPC   C4B47998  27.453  40.223   7.350
 6993POPC   NC347999  18.278  29.901   5.550
 6993POPC   PO448000  18.330  29.929   5.850
 6993POPC   GL148001  18.251  29.902   6.150
 6993POPC   GL248002  18.337  30.043   6.150
 6993POPC   C1A48003  18.234  29.890   6.450
 6993POPC   D2A48004  18.264  29.881   6.750
 6993POPC   C3A48005  18.321  29.911   7.050
 6993POPC   C4A48006  18.259  29.953   7.350
 6993POPC   C1B48007  18.461  30.099   6.450
 6993POPC   C2B48008  18.416  30.175   6.750
 6993POPC   C3B48009  18.399  30.154   7.050
 6993POPC   C4B48010  18.381  30.148   7.350
 6994POPC   NC348011   8.241  10.526   5.550
 6994POPC   PO448012   8.244  10.541   5.850
 6994POPC   GL148013   8.191  10.477   6.150
 6994POPC   GL248014   8.108  10.413   6.150
 6994POPC   C1A48015   8.151  10.481   6.450
 6994POPC   D2A48016   8.163  10.570   6.750
 6994POPC   C3A48017   8.204  10.483   7.050
 6994POPC   C4A48018   8.182  10.487   7.350
 6994POPC   C1B48019   8.045  10.342   6.450
 6994POPC   C2B48020   8.058  10.337   6.750
 6994POPC   C3B48021   8.020  10.376   7.050
 6994POPC   C4B48022   8.054  10.322   7.350
 6995POPC   NC348023  12.814  41.533   5.550
 6995POPC   PO448024  12.807  41.605   5.850
 6995POPC   GL148025  12.819  41.600   6.150
 6995POPC   GL248026  12.969  41.487   6.150
 6995POPC   C1A48027  12.814  41.577   6.450
 6995POPC   D2A48028  12.838  41.536   6.750
 6995POPC   C3A48029  12.821  41.559   7.050
 6995POPC   C4A48030  12.841  41.595   7.350
 6995POPC   C1B48031  12.953  41.394   6.450
 6995POPC   C2B48032  12.953  41.349   6.750
 6995POPC   C3B48033  13.009  41.352   7.050
 6995POPC   C4B48034  13.019  41.350   7.350
 6996POPC   NC348035  26.785   7.388   5.550
 6996POPC   PO448036  26.776   7.441   5.850
 6996POPC   GL148037  26.779   7.456   6.150
 6996POPC   GL248038  26.933   7.418   6.150
 6996POPC   C1A48039  26.842   7.387   6.450
 6996POPC   D2A48040  26.803   7.448   6.750
 6996POPC   C3A48041  26.825   7.456   7.050
 6996POPC   C4A48042  26.773   7.400   7.350
 6996POPC   C1B48043  27.033   7.367   6.450
 6996POPC   C2B48044  27.066   7.421   6.750
 6996POPC   C3B48045  27.057   7.443   7.050
 6996POPC   C4B48046  27.045   7.444   7.350
 6997POPC   NC348047  43.916   2.800   5.550
 6997POPC   PO448048  43.869   2.773   5.850
 6997POPC   GL148049  43.879   2.793   6.150
 6997POPC   GL248050  43.784   2.697   6.150
 6997POPC   C1A48051  43.837   2.748   6.450
 6997POPC   D2A48052  43.878   2.756   6.750
 6997POPC   C3A48053  43.880   2.772   7.050
 6997POPC   C4A48054  43.904   2.749   7.350
 6997POPC   C1B48055  43.694   2.746   6.450
 6997POPC   C2B48056  43.621   2.689   6.750
 6997POPC   C3B48057  43.608   2.742   7.050
 6997POPC   C4B48058  43.678   2.688   7.350
 6998POPC   NC348059  40.789   7.431   5.550
 6998POPC   PO448060  40.778   7.397   5.850
 6998POPC   GL148061  40.740   7.410   6.150
 6998POPC   GL248062  40.671   7.457   6.150
 6998POPC   C1A48063  40.821   7.440   6.450
 6998POPC   D2A48064  40.767   7.426   6.750
 6998POPC   C3A48065  40.824   7.397   7.050
 6998POPC   C4A48066  40.749   7.449   7.350
 6998POPC   C1B48067  40.493   7.458   6.450
 6998POPC   C2B48068  40.534   7.486   6.750
 6998POPC   C3B48069  40.533   7.436   7.050
 6998POPC   C4B48070  40.579   7.488   7.350
 6999POPC   NC348071   1.993  43.853   5.550
 6999POPC   PO448072   2.028  43.885   5.850
 6999POPC   GL148073   1.958  43.920   6.150
 6999POPC   GL248074   1.876  43.885   6.150
 6999POPC   C1A48075   1.978  43.869   6.450
 6999POPC   D2A48076   1.944  43.872   6.750
 6999POPC   C3A48077   1.995  43.895   7.050
 6999POPC   C4A48078   2.037  43.850   7.350
 6999POPC   C1B48079   1.750  43.776   6.450
 6999POPC   C2B48080   1.782  43.809   6.750
 6999POPC   C3B48081   1.793  43.844   7.050
 6999POPC   C4B48082   1.749  43.827   7.350
 7000POPC   NC348083  36.882  38.429   5.550
 7000POPC   PO448084  36.883  38.483   5.850
 7000POPC   GL148085  36.931  38.472   6.150
 7000POPC   GL248086  36.965  38.327   6.150
 7000POPC   C1A48087  36.950  38.457   6.450
 7000POPC   D2A48088  36.941  38.421   6.750
 7000POPC   C3A48089  36.902  38.449   7.050
 7000POPC   C4A48090  36.898  38.478   7.350
 7000POPC   C1B48091  37.098  38.240   6.450
 7000POPC   C2B48092  37.042  38.239   6.750
 7000POPC   C3B48093  37.056  38.322   7.050
 7000POPC   C4B48094  37.093  38.277   7.350
 7001POPC   NC348095  34.604  20.649   5.550
 7001POPC   PO448096  34.592  20.643   5.850
 7001POPC   GL148097  34.544  20.601   6.150
 7001POPC   GL248098  34.648  20.775   6.150
 7001POPC   C1A48099  34.567  20.648   6.450
 7001POPC   D2A48100  34.557  20.600   6.750
 7001POPC   C3A48101  34.574  20.577   7.050
 7001POPC   C4A48102  34.544  20.581   7.350
 7001POPC   C1B48103  34.620  20.866   6.450
 7001POPC   C2B48104  34.662  20.825   6.750
 7001POPC   C3B48105  34.694  20.813   7.050
 7001POPC   C4B48106  34.634  20.820   7.350
 7002POPC   NC348107  16.695  15.913   5.550
 7002POPC   PO448108  16.684  15.942   5.850
 7002POPC   GL148109  16.723  15.994   6.150
 7002POPC   GL248110  16.697  15.829   6.150
 7002POPC   C1A48111  16.748  15.976   6.450
 7002POPC   D2A48112  16.754  15.933   6.750
 7002POPC   C3A48113  16.761  15.968   7.050
 7002POPC   C4A48114  16.767  15.952   7.350
 7002POPC   C1B48115  16.604  15.733   6.450
 7002POPC   C2B48116  16.636  15.779   6.750
 7002POPC   C3B48117  16.653  15.691   7.050
 7002POPC   C4B48118  16.634  15.763   7.350
 7003POPC   NC348119  26.815   2.002   5.550
 7003POPC   PO448120  26.828   2.011   5.850
 7003POPC   GL148121  26.832   2.034   6.150
 7003POPC   GL248122  26.874   2.074   6.150
 7003POPC   C1A48123  26.768   1.982   6.450
 7003POPC   D2A48124  26.847   1.951   6.750
 7003POPC   C3A48125  26.851   1.967   7.050
 7003POPC   C4A48126  26.836   1.942   7.350
 7003POPC   C1B48127  26.950   2.142   6.450
 7003POPC   C2B48128  26.961   2.200   6.750
 7003POPC   C3B48129  27.031   2.164   7.050
 7003POPC   C4B48130  26.973   2.209   7.350
 7004POPC   NC348131  29.896  44.621   5.550
 7004POPC   PO448132  29.940  44.631   5.850
 7004POPC   GL148133  29.901  44.666   6.150
 7004POPC   GL248134  29.997  44.620   6.150
 7004POPC   C1A48135  29.949  44.629   6.450
 7004POPC   D2A48136  29.876  44.683   6.750
 7004POPC   C3A48137  29.913  44.663   7.050
 7004POPC   C4A48138  29.935  44.657   7.350
 7004POPC   C1B48139  30.194  44.589   6.450
 7004POPC   C2B48140  30.121  44.587   6.750
 7004POPC   C3B48141  30.150  44.549   7.050
 7004POPC   C4B48142  30.127  44.511   7.350
 7005POPC   NC348143   4.291  29.902   5.550
 7005POPC   PO448144   4.274  29.901   5.850
 7005POPC   GL148145   4.268  29.902   6.150
 7005POPC   GL248146   4.219  29.955   6.150
 7005POPC   C1A48147   4.299  29.935   6.450
 7005POPC   D2A48148   4.310  29.918   6.750
 7005POPC   C3A48149   4.291  29.952   7.050
 7005POPC   C4A48150   4.350  29.898   7.350
 7005POPC   C1B48151   4.124  30.048   6.450
 7005POPC   C2B48152   4.076  30.053   6.750
 7005POPC   C3B48153   4.098  29.989   7.050
 7005POPC   C4B48154   4.086  29.991   7.350
 7006POPC   NC348155  16.731  26.063   5.550
 7006POPC   PO448156  16.758  26.031   5.850
 7006POPC   GL148157  16.753  26.011   6.150
 7006POPC   GL248158  16.684  25.949   6.150
 7006POPC   C1A48159  16.735  26.049   6.450
 7006POPC   D2A48160  16.756  26.019   6.750
 7006POPC   C3A48161  16.714  26.076   7.050
 7006POPC   C4A48162  16.747  26.017   7.350
 7006POPC   C1B48163  16.672  25.784   6.450
 7006POPC   C2B48164  16.595  25.817   6.750
 7006POPC   C3B48165  16.657  25.782   7.050
 7006POPC   C4B48166  16.599  25.833   7.350
 7007POPC   NC348167  24.479  16.765   5.550
 7007POPC   PO448168  24.484  16.682   5.850
 7007POPC   GL148169  24.449  16.687   6.150
 7007POPC   GL248170  24.352  16.760   6.150
 7007POPC   C1A48171  24.516  16.755   6.450
 7007POPC   D2A48172  24.499  16.764   6.750
 7007POPC   C3A48173  24.443  16.695   7.050
 7007POPC   C4A48174  24.456  16.736   7.350
 7007POPC   C1B48175  24.287  16.746   6.450
 7007POPC   C2B48176  24.198  16.794   6.750
 7007POPC   C3B48177  24.273  16.717   7.050
 7007POPC   C4B48178  24.256  16.750   7.350
 7008POPC   NC348179   6.693  18.235   5.550
 7008POPC   PO448180   6.602  18.238   5.850
 7008POPC   GL148181   6.631  18.316   6.150
 7008POPC   GL248182   6.742  18.178   6.150
 7008POPC   C1A48183   6.646  18.286   6.450
 7008POPC   D2A48184   6.616  18.248   6.750
 7008POPC   C3A48185   6.598  18.300   7.050
 7008POPC   C4A48186   6.635  18.309   7.350
 7008POPC   C1B48187   6.846  18.158   6.450
 7008POPC   C2B48188   6.868  18.158   6.750
 7008POPC   C3B48189   6.798  18.175   7.050
 7008POPC   C4B48190   6.868  18.146   7.350
 7009POPC   NC348191  22.938  16.740   5.550
 7009POPC   PO448192  22.908  16.710   5.850
 7009POPC   GL148193  22.969  16.710   6.150
 7009POPC   GL248194  22.955  16.635   6.150
 7009POPC   C1A48195  22.951  16.769   6.450
 7009POPC   D2A48196  22.923  16.704   6.750
 7009POPC   C3A48197  22.907  16.734   7.050
 7009POPC   C4A48198  22.948  16.775   7.350
 7009POPC   C1B48199  22.868  16.509   6.450
 7009POPC   C2B48200  22.897  16.469   6.750
 7009POPC   C3B48201  22.889  16.457   7.050
 7009POPC   C4B48202  22.916  16.522   7.350
 7010POPC   NC348203  43.159  12.838   5.550
 7010POPC   PO448204  43.145  12.876   5.850
 7010POPC   GL148205  43.071  12.834   6.150
 7010POPC   GL248206  43.214  12.788   6.150
 7010POPC   C1A48207  43.120  12.839   6.450
 7010POPC   D2A48208  43.151  12.831   6.750
 7010POPC   C3A48209  43.127  12.869   7.050
 7010POPC   C4A48210  43.069  12.825   7.350
 7010POPC   C1B48211  43.307  12.697   6.450
 7010POPC   C2B48212  43.270  12.673   6.750
 7010POPC   C3B48213  43.313  12.657   7.050
 7010POPC   C4B48214  43.252  12.645   7.350
 7011POPC   NC348215  12.032  18.303   5.550
 7011POPC   PO448216  12.087  18.315   5.850
 7011POPC   GL148217  12.056  18.233   6.150
 7011POPC   GL248218  12.159  18.302   6.150
 7011POPC   C1A48219  12.085  18.253   6.450
 7011POPC   D2A48220  12.118  18.320   6.750
 7011POPC   C3A48221  12.107  18.240   7.050
 7011POPC   C4A48222  12.028  18.318   7.350
 7011POPC   C1B48223  12.304  18.442   6.450
 7011POPC   C2B48224  12.255  18.381   6.750
 7011POPC   C3B48225  12.332  18.370   7.050
 7011POPC   C4B48226  12.324  18.413   7.350
 7012POPC   NC348227  28.328  37.671   5.550
 7012POPC   PO448228  28.406  37.674   5.850
 7012POPC   GL148229  28.320  37.702   6.150
 7012POPC   GL248230  28.285  37.727   6.150
 7012POPC   C1A48231  28.358  37.709   6.450
 7012POPC   D2A48232  28.402  37.670   6.750
 7012POPC   C3A48233  28.359  37.670   7.050
 7012POPC   C4A48234  28.340  37.720   7.350
 7012POPC   C1B48235  28.215  37.829   6.450
 7012POPC   C2B48236  28.184  37.874   6.750
 7012POPC   C3B48237  28.183  37.826   7.050
 7012POPC   C4B48238  28.204  37.882   7.350
 7013POPC   NC348239  21.376  23.725   5.550
 7013POPC   PO448240  21.349  23.714   5.850
 7013POPC   GL148241  21.344  23.756   6.150
 7013POPC   GL248242  21.308  23.777   6.150
 7013POPC   C1A48243  21.358  23.733   6.450
 7013POPC   D2A48244  21.407  23.681   6.750
 7013POPC   C3A48245  21.382  23.675   7.050
 7013POPC   C4A48246  21.382  23.683   7.350
 7013POPC   C1B48247  21.242  23.925   6.450
 7013POPC   C2B48248  21.227  23.852   6.750
 7013POPC   C3B48249  21.184  23.919   7.050
 7013POPC   C4B48250  21.259  23.913   7.350
 7014POPC   NC348251  36.953  21.345   5.550
 7014POPC   PO448252  36.906  21.346   5.850
 7014POPC   GL148253  36.923  21.396   6.150
 7014POPC   GL248254  36.926  21.308   6.150
 7014POPC   C1A48255  36.893  21.405   6.450
 7014POPC   D2A48256  36.904  21.436   6.750
 7014POPC   C3A48257  36.857  21.421   7.050
 7014POPC   C4A48258  36.907  21.410   7.350
 7014POPC   C1B48259  36.968  21.188   6.450
 7014POPC   C2B48260  37.043  21.205   6.750
 7014POPC   C3B48261  36.969  21.152   7.050
 7014POPC   C4B48262  36.967  21.116   7.350
 7015POPC   NC348263  24.448  24.508   5.550
 7015POPC   PO448264  24.526  24.482   5.850
 7015POPC   GL148265  24.539  24.531   6.150
 7015POPC   GL248266  24.597  24.383   6.150
 7015POPC   C1A48267  24.444  24.450   6.450
 7015POPC   D2A48268  24.445  24.475   6.750
 7015POPC   C3A48269  24.470  24.461   7.050
 7015POPC   C4A48270  24.512  24.529   7.350
 7015POPC   C1B48271  24.738  24.343   6.450
 7015POPC   C2B48272  24.672  24.370   6.750
 7015POPC   C3B48273  24.669  24.297   7.050
 7015POPC   C4B48274  24.686  24.313   7.350
 7016POPC   NC348275  15.223  33.758   5.550
 7016POPC   PO448276  15.161  33.823   5.850
 7016POPC   GL148277  15.149  33.774   6.150
 7016POPC   GL248278  15.117  33.757   6.150
 7016POPC   C1A48279  15.176  33.766   6.450
 7016POPC   D2A48280  15.218  33.781   6.750
 7016POPC   C3A48281  15.203  33.780   7.050
 7016POPC   C4A48282  15.199  33.828   7.350
 7016POPC   C1B48283  14.987  33.666   6.450
 7016POPC   C2B48284  14.960  33.663   6.750
 7016POPC   C3B48285  14.960  33.732   7.050
 7016POPC   C4B48286  14.930  33.697   7.350
 7017POPC   NC348287   3.519  20.634   5.550
 7017POPC   PO448288   3.585  20.612   5.850
 7017POPC   GL148289   3.549  20.658   6.150
 7017POPC   GL248290   3.579  20.732   6.150
 7017POPC   C1A48291   3.502  20.616   6.450
 7017POPC   D2A48292   3.548  20.613   6.750
 7017POPC   C3A48293   3.553  20.613   7.050
 7017POPC   C4A48294   3.560  20.654   7.350
 7017POPC   C1B48295   3.579  20.820   6.450
 7017POPC   C2B48296   3.531  20.868   6.750
 7017POPC   C3B48297   3.527  20.856   7.050
 7017POPC   C4B48298   3.577  20.896   7.350
 7018POPC   NC348299  22.913  17.531   5.550
 7018POPC   PO448300  22.972  17.474   5.850
 7018POPC   GL148301  22.942  17.508   6.150
 7018POPC   GL248302  22.828  17.595   6.150
 7018POPC   C1A48303  22.982  17.461   6.450
 7018POPC   D2A48304  22.923  17.483   6.750
 7018POPC   C3A48305  22.945  17.528   7.050
 7018POPC   C4A48306  22.970  17.488   7.350
 7018POPC   C1B48307  22.769  17.715   6.450
 7018POPC   C2B48308  22.826  17.702   6.750
 7018POPC   C3B48309  22.809  17.697   7.050
 7018POPC   C4B48310  22.802  17.749   7.350
 7019POPC   NC348311  42.382  31.448   5.550
 7019POPC   PO448312  42.290  31.463   5.850
 7019POPC   GL148313  42.368  31.498   6.150
 7019POPC   GL248314  42.186  31.519   6.150
 7019POPC   C1A48315  42.300  31.495   6.450
 7019POPC   D2A48316  42.379  31.441   6.750
 7019POPC   C3A48317  42.362  31.438   7.050
 7019POPC   C4A48318  42.372  31.500   7.350
 7019POPC   C1B48319  42.133  31.565   6.450
 7019POPC   C2B48320  42.098  31.516   6.750
 7019POPC   C3B48321  42.094  31.562   7.050
 7019POPC   C4B48322  42.110  31.592   7.350
 7020POPC   NC348323   2.786  21.431   5.550
 7020POPC   PO448324   2.771  21.433   5.850
 7020POPC   GL148325   2.747  21.338   6.150
 7020POPC   GL248326   2.630  21.386   6.150
 7020POPC   C1A48327   2.747  21.352   6.450
 7020POPC   D2A48328   2.805  21.393   6.750
 7020POPC   C3A48329   2.809  21.360   7.050
 7020POPC   C4A48330   2.760  21.375   7.350
 7020POPC   C1B48331   2.479  21.457   6.450
 7020POPC   C2B48332   2.485  21.460   6.750
 7020POPC   C3B48333   2.474  21.390   7.050
 7020POPC   C4B48334   2.534  21.470   7.350
 7021POPC   NC348335  39.989   8.931   5.550
 7021POPC   PO448336  40.010   8.926   5.850
 7021POPC   GL148337  40.055   8.981   6.150
 7021POPC   GL248338  39.921   9.089   6.150
 7021POPC   C1A48339  40.035   8.957   6.450
 7021POPC   D2A48340  40.054   8.935   6.750
 7021POPC   C3A48341  39.992   9.004   7.050
 7021POPC   C4A48342  40.013   8.937   7.350
 7021POPC   C1B48343  39.889   9.242   6.450
 7021POPC   C2B48344  39.914   9.157   6.750
 7021POPC   C3B48345  39.867   9.224   7.050
 7021POPC   C4B48346  39.930   9.164   7.350
 7022POPC   NC348347  13.585  18.278   5.550
 7022POPC   PO448348  13.664  18.240   5.850
 7022POPC   GL148349  13.643  18.330   6.150
 7022POPC   GL248350  13.640  18.413   6.150
 7022POPC   C1A48351  13.611  18.262   6.450
 7022POPC   D2A48352  13.670  18.246   6.750
 7022POPC   C3A48353  13.642  18.257   7.050
 7022POPC   C4A48354  13.588  18.321   7.350
 7022POPC   C1B48355  13.754  18.514   6.450
 7022POPC   C2B48356  13.759  18.481   6.750
 7022POPC   C3B48357  13.727  18.528   7.050
 7022POPC   C4B48358  13.784  18.508   7.350
 7023POPC   NC348359   1.166  24.500   5.550
 7023POPC   PO448360   1.175  24.498   5.850
 7023POPC   GL148361   1.205  24.508   6.150
 7023POPC   GL248362   1.098  24.381   6.150
 7023POPC   C1A48363   1.183  24.533   6.450
 7023POPC   D2A48364   1.219  24.539   6.750
 7023POPC   C3A48365   1.209  24.524   7.050
 7023POPC   C4A48366   1.190  24.476   7.350
 7023POPC   C1B48367   0.952  24.330   6.450
 7023POPC   C2B48368   0.955  24.355   6.750
 7023POPC   C3B48369   0.968  24.398   7.050
 7023POPC   C4B48370   1.008  24.334   7.350
 7024POPC   NC348371  38.446  32.224   5.550
 7024POPC   PO448372  38.457  32.252   5.850
 7024POPC   GL148373  38.440  32.285   6.150
 7024POPC   GL248374  38.528  32.207   6.150
 7024POPC   C1A48375  38.446  32.216   6.450
 7024POPC   D2A48376  38.441  32.230   6.750
 7024POPC   C3A48377  38.418  32.288   7.050
 7024POPC   C4A48378  38.440  32.270   7.350
 7024POPC   C1B48379  38.732  32.174   6.450
 7024POPC   C2B48380  38.730  32.195   6.750
 7024POPC   C3B48381  38.692  32.160   7.050
 7024POPC   C4B48382  38.719  32.142   7.350
 7025POPC   NC348383  14.372  10.489   5.550
 7025POPC   PO448384  14.355  10.495   5.850
 7025POPC   GL148385  14.380  10.557   6.150
 7025POPC   GL248386  14.452  10.443   6.150
 7025POPC   C1A48387  14.379  10.534   6.450
 7025POPC   D2A48388  14.437  10.553   6.750
 7025POPC   C3A48389  14.445  10.560   7.050
 7025POPC   C4A48390  14.387  10.546   7.350
 7025POPC   C1B48391  14.558  10.345   6.450
 7025POPC   C2B48392  14.525  10.325   6.750
 7025POPC   C3B48393  14.495  10.283   7.050
 7025POPC   C4B48394  14.536  10.275   7.350
 7026POPC   NC348395  33.819   2.742   5.550
 7026POPC   PO448396  33.800   2.802   5.850
 7026POPC   GL148397  33.814   2.809   6.150
 7026POPC   GL248398  33.911   2.775   6.150
 7026POPC   C1A48399  33.768   2.719   6.450
 7026POPC   D2A48400  33.785   2.775   6.750
 7026POPC   C3A48401  33.777   2.717   7.050
 7026POPC   C4A48402  33.803   2.813   7.350
 7026POPC   C1B48403  34.086   2.796   6.450
 7026POPC   C2B48404  34.091   2.777   6.750
 7026POPC   C3B48405  34.063   2.772   7.050
 7026POPC   C4B48406  34.035   2.806   7.350
 7027POPC   NC348407  12.086  31.473   5.550
 7027POPC   PO448408  12.104  31.486   5.850
 7027POPC   GL148409  12.077  31.503   6.150
 7027POPC   GL248410  12.229  31.493   6.150
 7027POPC   C1A48411  12.036  31.504   6.450
 7027POPC   D2A48412  12.042  31.447   6.750
 7027POPC   C3A48413  12.064  31.515   7.050
 7027POPC   C4A48414  12.077  31.501   7.350
 7027POPC   C1B48415  12.362  31.456   6.450
 7027POPC   C2B48416  12.313  31.480   6.750
 7027POPC   C3B48417  12.329  31.464   7.050
 7027POPC   C4B48418  12.367  31.518   7.350
 7028POPC   NC348419   9.790   6.630   5.550
 7028POPC   PO448420   9.732   6.673   5.850
 7028POPC   GL148421   9.724   6.677   6.150
 7028POPC   GL248422   9.824   6.595   6.150
 7028POPC   C1A48423   9.699   6.641   6.450
 7028POPC   D2A48424   9.718   6.641   6.750
 7028POPC   C3A48425   9.726   6.621   7.050
 7028POPC   C4A48426   9.711   6.695   7.350
 7028POPC   C1B48427   9.945   6.493   6.450
 7028POPC   C2B48428   9.904   6.431   6.750
 7028POPC   C3B48429   9.897   6.415   7.050
 7028POPC   C4B48430   9.884   6.412   7.350
 7029POPC   NC348431  27.573  19.057   5.550
 7029POPC   PO448432  27.592  19.090   5.850
 7029POPC   GL148433  27.574  19.082   6.150
 7029POPC   GL248434  27.656  18.985   6.150
 7029POPC   C1A48435  27.574  19.055   6.450
 7029POPC   D2A48436  27.619  19.085   6.750
 7029POPC   C3A48437  27.545  19.019   7.050
 7029POPC   C4A48438  27.562  19.066   7.350
 7029POPC   C1B48439  27.686  18.845   6.450
 7029POPC   C2B48440  27.670  18.815   6.750
 7029POPC   C3B48441  27.663  18.826   7.050
 7029POPC   C4B48442  27.628  18.813   7.350
 7030POPC   NC348443  28.358  12.029   5.550
 7030POPC   PO448444  28.385  12.071   5.850
 7030POPC   GL148445  28.403  12.120   6.150
 7030POPC   GL248446  28.365  12.190   6.150
 7030POPC   C1A48447  28.378  12.124   6.450
 7030POPC   D2A48448  28.346  12.101   6.750
 7030POPC   C3A48449  28.408  12.117   7.050
 7030POPC   C4A48450  28.387  12.029   7.350
 7030POPC   C1B48451  28.282  12.277   6.450
 7030POPC   C2B48452  28.286  12.324   6.750
 7030POPC   C3B48453  28.265  12.299   7.050
 7030POPC   C4B48454  28.300  12.367   7.350
 7031POPC   NC348455  39.999  43.152   5.550
 7031POPC   PO448456  39.989  43.118   5.850
 7031POPC   GL148457  40.021  43.126   6.150
 7031POPC   GL248458  39.901  43.179   6.150
 7031POPC   C1A48459  40.047  43.119   6.450
 7031POPC   D2A48460  40.019  43.108   6.750
 7031POPC   C3A48461  40.026  43.144   7.050
 7031POPC   C4A48462  40.054  43.068   7.350
 7031POPC   C1B48463  39.838  43.294   6.450
 7031POPC   C2B48464  39.790  43.289   6.750
 7031POPC   C3B48465  39.840  43.251   7.050
 7031POPC   C4B48466  39.800  43.241   7.350
 7032POPC   NC348467  33.024  19.012   5.550
 7032POPC   PO448468  33.021  19.089   5.850
 7032POPC   GL148469  33.041  19.107   6.150
 7032POPC   GL248470  33.130  18.986   6.150
 7032POPC   C1A48471  33.040  19.057   6.450
 7032POPC   D2A48472  33.072  19.042   6.750
 7032POPC   C3A48473  33.051  19.107   7.050
 7032POPC   C4A48474  33.061  19.079   7.350
 7032POPC   C1B48475  33.269  18.991   6.450
 7032POPC   C2B48476  33.272  18.943   6.750
 7032POPC   C3B48477  33.266  18.962   7.050
 7032POPC   C4B48478  33.281  18.921   7.350
 7033POPC   NC348479  10.539  37.702   5.550
 7033POPC   PO448480  10.560  37.677   5.850
 7033POPC   GL148481  10.563  37.694   6.150
 7033POPC   GL248482  10.409  37.636   6.150
 7033POPC   C1A48483  10.536  37.719   6.450
 7033POPC   D2A48484  10.513  37.679   6.750
 7033POPC   C3A48485  10.529  37.645   7.050
 7033POPC   C4A48486  10.559  37.642   7.350
 7033POPC   C1B48487  10.305  37.570   6.450
 7033POPC   C2B48488  10.330  37.590   6.750
 7033POPC   C3B48489  10.345  37.550   7.050
 7033POPC   C4B48490  10.333  37.530   7.350
 7034POPC   NC348491  12.103  41.554   5.550
 7034POPC   PO448492  12.026  41.589   5.850
 7034POPC   GL148493  12.063  41.524   6.150
 7034POPC   GL248494  12.187  41.525   6.150
 7034POPC   C1A48495  12.113  41.593   6.450
 7034POPC   D2A48496  12.108  41.592   6.750
 7034POPC   C3A48497  12.062  41.511   7.050
 7034POPC   C4A48498  12.100  41.532   7.350
 7034POPC   C1B48499  12.291  41.398   6.450
 7034POPC   C2B48500  12.285  41.412   6.750
 7034POPC   C3B48501  12.262  41.445   7.050
 7034POPC   C4B48502  12.255  41.472   7.350
 7035POPC   NC348503  41.515  12.898   5.550
 7035POPC   PO448504  41.526  12.888   5.850
 7035POPC   GL148505  41.600  12.855   6.150
 7035POPC   GL248506  41.498  12.716   6.150
 7035POPC   C1A48507  41.562  12.817   6.450
 7035POPC   D2A48508  41.526  12.853   6.750
 7035POPC   C3A48509  41.555  12.876   7.050
 7035POPC   C4A48510  41.526  12.900   7.350
 7035POPC   C1B48511  41.449  12.663   6.450
 7035POPC   C2B48512  41.492  12.609   6.750
 7035POPC   C3B48513  41.470  12.632   7.050
 7035POPC   C4B48514  41.482  12.650   7.350
 7036POPC   NC348515  22.936  21.415   5.550
 7036POPC   PO448516  22.975  21.399   5.850
 7036POPC   GL148517  22.923  21.347   6.150
 7036POPC   GL248518  22.985  21.275   6.150
 7036POPC   C1A48519  22.985  21.381   6.450
 7036POPC   D2A48520  22.978  21.351   6.750
 7036POPC   C3A48521  22.914  21.419   7.050
 7036POPC   C4A48522  22.918  21.426   7.350
 7036POPC   C1B48523  22.952  21.166   6.450
 7036POPC   C2B48524  22.906  21.118   6.750
 7036POPC   C3B48525  22.958  21.153   7.050
 7036POPC   C4B48526  22.912  21.182   7.350
 7037POPC   NC348527   5.048  19.086   5.550
 7037POPC   PO448528   5.057  19.105   5.850
 7037POPC   GL148529   5.062  19.037   6.150
 7037POPC   GL248530   5.179  18.940   6.150
 7037POPC   C1A48531   5.124  19.107   6.450
 7037POPC   D2A48532   5.110  19.056   6.750
 7037POPC   C3A48533   5.067  19.047   7.050
 7037POPC   C4A48534   5.109  19.102   7.350
 7037POPC   C1B48535   5.246  18.863   6.450
 7037POPC   C2B48536   5.274  18.874   6.750
 7037POPC   C3B48537   5.335  18.930   7.050
 7037POPC   C4B48538   5.308  18.899   7.350
 7038POPC   NC348539  38.421  15.218   5.550
 7038POPC   PO448540  38.488  15.194   5.850
 7038POPC   GL148541  38.480  15.213   6.150
 7038POPC   GL248542  38.578  15.074   6.150
 7038POPC   C1A48543  38.435  15.175   6.450
 7038POPC   D2A48544  38.431  15.191   6.750
 7038POPC   C3A48545  38.417  15.159   7.050
 7038POPC   C4A48546  38.464  15.152   7.350
 7038POPC   C1B48547  38.602  14.961   6.450
 7038POPC   C2B48548  38.591  14.968   6.750
 7038POPC   C3B48549  38.628  14.980   7.050
 7038POPC   C4B48550  38.675  14.976   7.350
 7039POPC   NC348551  18.328  41.589   5.550
 7039POPC   PO448552  18.273  41.608   5.850
 7039POPC   GL148553  18.280  41.558   6.150
 7039POPC   GL248554  18.278  41.662   6.150
 7039POPC   C1A48555  18.311  41.531   6.450
 7039POPC   D2A48556  18.295  41.550   6.750
 7039POPC   C3A48557  18.261  41.603   7.050
 7039POPC   C4A48558  18.316  41.561   7.350
 7039POPC   C1B48559  18.333  41.815   6.450
 7039POPC   C2B48560  18.362  41.807   6.750
 7039POPC   C3B48561  18.336  41.796   7.050
 7039POPC   C4B48562  18.360  41.762   7.350
 7040POPC   NC348563  29.933  18.277   5.550
 7040POPC   PO448564  29.935  18.242   5.850
 7040POPC   GL148565  29.930  18.264   6.150
 7040POPC   GL248566  29.975  18.383   6.150
 7040POPC   C1A48567  29.885  18.306   6.450
 7040POPC   D2A48568  29.906  18.261   6.750
 7040POPC   C3A48569  29.928  18.267   7.050
 7040POPC   C4A48570  29.873  18.280   7.350
 7040POPC   C1B48571  30.122  18.488   6.450
 7040POPC   C2B48572  30.089  18.499   6.750
 7040POPC   C3B48573  30.130  18.455   7.050
 7040POPC   C4B48574  30.125  18.413   7.350
 7041POPC   NC348575  27.579  26.816   5.550
 7041POPC   PO448576  27.554  26.816   5.850
 7041POPC   GL148577  27.596  26.801   6.150
 7041POPC   GL248578  27.732  26.864   6.150
 7041POPC   C1A48579  27.633  26.794   6.450
 7041POPC   D2A48580  27.635  26.863   6.750
 7041POPC   C3A48581  27.560  26.862   7.050
 7041POPC   C4A48582  27.609  26.783   7.350
 7041POPC   C1B48583  27.852  26.918   6.450
 7041POPC   C2B48584  27.805  26.928   6.750
 7041POPC   C3B48585  27.827  26.978   7.050
 7041POPC   C4B48586  27.812  26.931   7.350
 7042POPC   NC348587  42.323  38.497   5.550
 7042POPC   PO448588  42.314  38.465   5.850
 7042POPC   GL148589  42.285  38.433   6.150
 7042POPC   GL248590  42.417  38.438   6.150
 7042POPC   C1A48591  42.346  38.427   6.450
 7042POPC   D2A48592  42.340  38.484   6.750
 7042POPC   C3A48593  42.377  38.438   7.050
 7042POPC   C4A48594  42.338  38.447   7.350
 7042POPC   C1B48595  42.578  38.377   6.450
 7042POPC   C2B48596  42.549  38.347   6.750
 7042POPC   C3B48597  42.602  38.441   7.050
 7042POPC   C4B48598  42.572  38.369   7.350
 7043POPC   NC348599  22.149  10.526   5.550
 7043POPC   PO448600  22.160  10.506   5.850
 7043POPC   GL148601  22.141  10.516   6.150
 7043POPC   GL248602  22.032  10.458   6.150
 7043POPC   C1A48603  22.184  10.478   6.450
 7043POPC   D2A48604  22.176  10.539   6.750
 7043POPC   C3A48605  22.134  10.501   7.050
 7043POPC   C4A48606  22.204  10.481   7.350
 7043POPC   C1B48607  21.933  10.347   6.450
 7043POPC   C2B48608  21.990  10.317   6.750
 7043POPC   C3B48609  21.928  10.325   7.050
 7043POPC   C4B48610  21.945  10.312   7.350
 7044POPC   NC348611  14.386  41.594   5.550
 7044POPC   PO448612  14.366  41.584   5.850
 7044POPC   GL148613  14.374  41.543   6.150
 7044POPC   GL248614  14.476  41.688   6.150
 7044POPC   C1A48615  14.394  41.521   6.450
 7044POPC   D2A48616  14.392  41.553   6.750
 7044POPC   C3A48617  14.426  41.607   7.050
 7044POPC   C4A48618  14.354  41.583   7.350
 7044POPC   C1B48619  14.435  41.802   6.450
 7044POPC   C2B48620  14.491  41.772   6.750
 7044POPC   C3B48621  14.462  41.809   7.050
 7044POPC   C4B48622  14.459  41.828   7.350
 7045POPC   NC348623  15.923  12.900   5.550
 7045POPC   PO448624  15.942  12.824   5.850
 7045POPC   GL148625  15.921  12.896   6.150
 7045POPC   GL248626  16.087  12.880   6.150
 7045POPC   C1A48627  15.983  12.826   6.450
 7045POPC   D2A48628  15.944  12.850   6.750
 7045POPC   C3A48629  15.971  12.835   7.050
 7045POPC   C4A48630  15.963  12.825   7.350
 7045POPC   C1B48631  16.146  12.941   6.450
 7045POPC   C2B48632  16.181  12.931   6.750
 7045POPC   C3B48633  16.158  12.935   7.050
 7045POPC   C4B48634  16.196  12.957   7.350
 7046POPC   NC348635  36.944  27.613   5.550
 7046POPC   PO448636  36.878  27.566   5.850
 7046POPC   GL148637  36.895  27.628   6.150
 7046POPC   GL248638  36.873  27.478   6.150
 7046POPC   C1A48639  36.905  27.599   6.450
 7046POPC   D2A48640  36.872  27.595   6.750
 7046POPC   C3A48641  36.858  27.570   7.050
 7046POPC   C4A48642  36.892  27.632   7.350
 7046POPC   C1B48643  36.872  27.362   6.450
 7046POPC   C2B48644  36.877  27.337   6.750
 7046POPC   C3B48645  36.838  27.387   7.050
 7046POPC   C4B48646  36.839  27.381   7.350
 7047POPC   NC348647  33.047   3.583   5.550
 7047POPC   PO448648  33.043   3.536   5.850
 7047POPC   GL148649  33.004   3.544   6.150
 7047POPC   GL248650  33.027   3.708   6.150
 7047POPC   C1A48651  33.043   3.526   6.450
 7047POPC   D2A48652  33.046   3.557   6.750
 7047POPC   C3A48653  33.074   3.575   7.050
 7047POPC   C4A48654  33.051   3.579   7.350
 7047POPC   C1B48655  33.003   3.820   6.450
 7047POPC   C2B48656  33.017   3.750   6.750
 7047POPC   C3B48657  32.987   3.741   7.050
 7047POPC   C4B48658  32.949   3.755   7.350
 7048POPC   NC348659   1.185  29.156   5.550
 7048POPC   PO448660   1.229  29.119   5.850
 7048POPC   GL148661   1.220  29.189   6.150
 7048POPC   GL248662   1.106  29.142   6.150
 7048POPC   C1A48663   1.261  29.156   6.450
 7048POPC   D2A48664   1.172  29.126   6.750
 7048POPC   C3A48665   1.250  29.187   7.050
 7048POPC   C4A48666   1.206  29.096   7.350
 7048POPC   C1B48667   0.989  29.165   6.450
 7048POPC   C2B48668   0.995  29.196   6.750
 7048POPC   C3B48669   0.995  29.240   7.050
 7048POPC   C4B48670   0.988  29.238   7.350
 7049POPC   NC348671  16.725  35.388   5.550
 7049POPC   PO448672  16.739  35.352   5.850
 7049POPC   GL148673  16.719  35.322   6.150
 7049POPC   GL248674  16.898  35.436   6.150
 7049POPC   C1A48675  16.715  35.359   6.450
 7049POPC   D2A48676  16.743  35.335   6.750
 7049POPC   C3A48677  16.758  35.391   7.050
 7049POPC   C4A48678  16.727  35.328   7.350
 7049POPC   C1B48679  16.982  35.405   6.450
 7049POPC   C2B48680  17.003  35.449   6.750
 7049POPC   C3B48681  17.011  35.466   7.050
 7049POPC   C4B48682  16.922  35.433   7.350
 7050POPC   NC348683  35.346  16.748   5.550
 7050POPC   PO448684  35.371  16.730   5.850
 7050POPC   GL148685  35.311  16.765   6.150
 7050POPC   GL248686  35.241  16.660   6.150
 7050POPC   C1A48687  35.355  16.728   6.450
 7050POPC   D2A48688  35.326  16.735   6.750
 7050POPC   C3A48689  35.353  16.701   7.050
 7050POPC   C4A48690  35.374  16.768   7.350
 7050POPC   C1B48691  35.126  16.587   6.450
 7050POPC   C2B48692  35.136  16.561   6.750
 7050POPC   C3B48693  35.184  16.601   7.050
 7050POPC   C4B48694  35.149  16.603   7.350
 7051POPC   NC348695  21.404  43.122   5.550
 7051POPC   PO448696  21.341  43.152   5.850
 7051POPC   GL148697  21.425  43.114   6.150
 7051POPC   GL248698  21.307  43.083   6.150
 7051POPC   C1A48699  21.383  43.104   6.450
 7051POPC   D2A48700  21.424  43.145   6.750
 7051POPC   C3A48701  21.389  43.095   7.050
 7051POPC   C4A48702  21.347  43.068   7.350
 7051POPC   C1B48703  21.178  43.122   6.450
 7051POPC   C2B48704  21.140  43.134   6.750
 7051POPC   C3B48705  21.176  43.161   7.050
 7051POPC   C4B48706  21.154  43.144   7.350
 7052POPC   NC348707  43.842  19.816   5.550
 7052POPC   PO448708  43.853  19.862   5.850
 7052POPC   GL148709  43.934  19.811   6.150
 7052POPC   GL248710  43.745  19.818   6.150
 7052POPC   C1A48711  43.917  19.831   6.450
 7052POPC   D2A48712  43.926  19.801   6.750
 7052POPC   C3A48713  43.931  19.814   7.050
 7052POPC   C4A48714  43.875  19.831   7.350
 7052POPC   C1B48715  43.618  19.823   6.450
 7052POPC   C2B48716  43.669  19.805   6.750
 7052POPC   C3B48717  43.607  19.751   7.050
 7052POPC   C4B48718  43.660  19.815   7.350
 7053POPC   NC348719  36.146   8.231   5.550
 7053POPC   PO448720  36.086   8.228   5.850
 7053POPC   GL148721  36.128   8.243   6.150
 7053POPC   GL248722  36.241   8.259   6.150
 7053POPC   C1A48723  36.129   8.171   6.450
 7053POPC   D2A48724  36.172   8.153   6.750
 7053POPC   C3A48725  36.121   8.217   7.050
 7053POPC   C4A48726  36.172   8.169   7.350
 7053POPC   C1B48727  36.272   8.381   6.450
 7053POPC   C2B48728  36.319   8.409   6.750
 7053POPC   C3B48729  36.307   8.339   7.050
 7053POPC   C4B48730  36.266   8.356   7.350
 7054POPC   NC348731  30.687  29.890   5.550
 7054POPC   PO448732  30.746  29.905   5.850
 7054POPC   GL148733  30.666  29.933   6.150
 7054POPC   GL248734  30.769  29.932   6.150
 7054POPC   C1A48735  30.687  29.932   6.450
 7054POPC   D2A48736  30.738  29.931   6.750
 7054POPC   C3A48737  30.671  29.968   7.050
 7054POPC   C4A48738  30.720  29.902   7.350
 7054POPC   C1B48739  30.957  30.029   6.450
 7054POPC   C2B48740  30.908  29.963   6.750
 7054POPC   C3B48741  30.976  30.022   7.050
 7054POPC   C4B48742  30.901  30.008   7.350
 7055POPC   NC348743  22.950  23.690   5.550
 7055POPC   PO448744  22.967  23.671   5.850
 7055POPC   GL148745  22.975  23.702   6.150
 7055POPC   GL248746  22.885  23.611   6.150
 7055POPC   C1A48747  22.947  23.682   6.450
 7055POPC   D2A48748  22.948  23.731   6.750
 7055POPC   C3A48749  22.921  23.675   7.050
 7055POPC   C4A48750  22.931  23.685   7.350
 7055POPC   C1B48751  22.958  23.456   6.450
 7055POPC   C2B48752  22.909  23.442   6.750
 7055POPC   C3B48753  22.898  23.437   7.050
 7055POPC   C4B48754  22.874  23.455   7.350
 7056POPC   NC348755   0.458   7.421   5.550
 7056POPC   PO448756   0.477   7.446   5.850
 7056POPC   GL148757   0.400   7.445   6.150
 7056POPC   GL248758   0.327   7.426   6.150
 7056POPC   C1A48759   0.428   7.444   6.450
 7056POPC   D2A48760   0.441   7.402   6.750
 7056POPC   C3A48761   0.481   7.413   7.050
 7056POPC   C4A48762   0.466   7.420   7.350
 7056POPC   C1B48763   0.149   7.393   6.450
 7056POPC   C2B48764   0.163   7.402   6.750
 7056POPC   C3B48765   0.153   7.349   7.050
 7056POPC   C4B48766   0.206   7.433   7.350
 7057POPC   NC348767  16.708   4.292   5.550
 7057POPC   PO448768  16.702   4.330   5.850
 7057POPC   GL148769  16.703   4.287   6.150
 7057POPC   GL248770  16.665   4.246   6.150
 7057POPC   C1A48771  16.729   4.277   6.450
 7057POPC   D2A48772  16.756   4.292   6.750
 7057POPC   C3A48773  16.757   4.335   7.050
 7057POPC   C4A48774  16.720   4.345   7.350
 7057POPC   C1B48775  16.693   4.099   6.450
 7057POPC   C2B48776  16.713   4.127   6.750
 7057POPC   C3B48777  16.660   4.056   7.050
 7057POPC   C4B48778  16.614   4.027   7.350
 7058POPC   NC348779   0.429  33.773   5.550
 7058POPC   PO448780   0.454  33.835   5.850
 7058POPC   GL148781   0.412  33.768   6.150
 7058POPC   GL248782   0.324  33.952   6.150
 7058POPC   C1A48783   0.406  33.815   6.450
 7058POPC   D2A48784   0.397  33.800   6.750
 7058POPC   C3A48785   0.414  33.751   7.050
 7058POPC   C4A48786   0.415  33.799   7.350
 7058POPC   C1B48787   0.352  33.966   6.450
 7058POPC   C2B48788   0.326  33.975   6.750
 7058POPC   C3B48789   0.346  34.057   7.050
 7058POPC   C4B48790   0.316  33.994   7.350
 7059POPC   NC348791   2.799  20.622   5.550
 7059POPC   PO448792   2.735  20.581   5.850
 7059POPC   GL148793   2.765  20.648   6.150
 7059POPC   GL248794   2.686  20.731   6.150
 7059POPC   C1A48795   2.803  20.638   6.450
 7059POPC   D2A48796   2.768  20.594   6.750
 7059POPC   C3A48797   2.778  20.660   7.050
 7059POPC   C4A48798   2.794  20.592   7.350
 7059POPC   C1B48799   2.618  20.839   6.450
 7059POPC   C2B48800   2.625  20.850   6.750
 7059POPC   C3B48801   2.627  20.837   7.050
 7059POPC   C4B48802   2.652  20.813   7.350
 7060POPC   NC348803  29.921   8.218   5.550
 7060POPC   PO448804  29.964   8.207   5.850
 7060POPC   GL148805  29.918   8.177   6.150
 7060POPC   GL248806  29.842   8.158   6.150
 7060POPC   C1A48807  29.957   8.200   6.450
 7060POPC   D2A48808  29.922   8.212   6.750
 7060POPC   C3A48809  29.885   8.182   7.050
 7060POPC   C4A48810  29.960   8.151   7.350
 7060POPC   C1B48811  29.659   8.062   6.450
 7060POPC   C2B48812  29.699   8.119   6.750
 7060POPC   C3B48813  29.708   8.070   7.050
 7060POPC   C4B48814  29.695   8.026   7.350
 7061POPC   NC348815  38.412   2.028   5.550
 7061POPC   PO448816  38.501   2.029   5.850
 7061POPC   GL148817  38.422   1.991   6.150
 7061POPC   GL248818  38.328   2.055   6.150
 7061POPC   C1A48819  38.429   1.959   6.450
 7061POPC   D2A48820  38.427   1.962   6.750
 7061POPC   C3A48821  38.426   2.037   7.050
 7061POPC   C4A48822  38.408   2.031   7.350
 7061POPC   C1B48823  38.324   2.210   6.450
 7061POPC   C2B48824  38.302   2.223   6.750
 7061POPC   C3B48825  38.277   2.177   7.050
 7061POPC   C4B48826  38.338   2.166   7.350
 7062POPC   NC348827  34.541  22.204   5.550
 7062POPC   PO448828  34.570  22.120   5.850
 7062POPC   GL148829  34.608  22.168   6.150
 7062POPC   GL248830  34.551  22.292   6.150
 7062POPC   C1A48831  34.560  22.166   6.450
 7062POPC   D2A48832  34.555  22.178   6.750
 7062POPC   C3A48833  34.575  22.130   7.050
 7062POPC   C4A48834  34.608  22.120   7.350
 7062POPC   C1B48835  34.464  22.375   6.450
 7062POPC   C2B48836  34.457  22.380   6.750
 7062POPC   C3B48837  34.407  22.386   7.050
 7062POPC   C4B48838  34.430  22.383   7.350
 7063POPC   NC348839  37.644  24.475   5.550
 7063POPC   PO448840  37.678  24.520   5.850
 7063POPC   GL148841  37.690  24.448   6.150
 7063POPC   GL248842  37.542  24.433   6.150
 7063POPC   C1A48843  37.712  24.456   6.450
 7063POPC   D2A48844  37.723  24.483   6.750
 7063POPC   C3A48845  37.694  24.488   7.050
 7063POPC   C4A48846  37.640  24.525   7.350
 7063POPC   C1B48847  37.411  24.388   6.450
 7063POPC   C2B48848  37.482  24.391   6.750
 7063POPC   C3B48849  37.422  24.406   7.050
 7063POPC   C4B48850  37.400  24.360   7.350
 7064POPC   NC348851  39.233   5.849   5.550
 7064POPC   PO448852  39.188   5.882   5.850
 7064POPC   GL148853  39.217   5.859   6.150
 7064POPC   GL248854  39.229   5.949   6.150
 7064POPC   C1A48855  39.240   5.852   6.450
 7064POPC   D2A48856  39.239   5.846   6.750
 7064POPC   C3A48857  39.209   5.829   7.050
 7064POPC   C4A48858  39.239   5.898   7.350
 7064POPC   C1B48859  39.155   6.105   6.450
 7064POPC   C2B48860  39.143   6.093   6.750
 7064POPC   C3B48861  39.122   6.070   7.050
 7064POPC   C4B48862  39.107   6.127   7.350
 7065POPC   NC348863  44.619  34.605   5.550
 7065POPC   PO448864  44.668  34.585   5.850
 7065POPC   GL148865  44.617  34.577   6.150
 7065POPC   GL248866  44.748  34.692   6.150
 7065POPC   C1A48867  44.655  34.615   6.450
 7065POPC   D2A48868  44.621  34.615   6.750
 7065POPC   C3A48869  44.642  34.554   7.050
 7065POPC   C4A48870  44.653  34.574   7.350
 7065POPC   C1B48871  44.887  34.753   6.450
 7065POPC   C2B48872  44.877  34.755   6.750
 7065POPC   C3B48873  44.806  34.713   7.050
 7065POPC   C4B48874  44.824  34.731   7.350
 7066POPC   NC348875  35.313   5.141   5.550
 7066POPC   PO448876  35.339   5.048   5.850
 7066POPC   GL148877  35.349   5.137   6.150
 7066POPC   GL248878  35.359   4.964   6.150
 7066POPC   C1A48879  35.308   5.064   6.450
 7066POPC   D2A48880  35.325   5.056   6.750
 7066POPC   C3A48881  35.350   5.103   7.050
 7066POPC   C4A48882  35.333   5.078   7.350
 7066POPC   C1B48883  35.374   4.877   6.450
 7066POPC   C2B48884  35.438   4.807   6.750
 7066POPC   C3B48885  35.411   4.832   7.050
 7066POPC   C4B48886  35.434   4.889   7.350
 7067POPC   NC348887  20.594  20.643   5.550
 7067POPC   PO448888  20.613  20.634   5.850
 7067POPC   GL148889  20.615  20.598   6.150
 7067POPC   GL248890  20.489  20.595   6.150
 7067POPC   C1A48891  20.647  20.609   6.450
 7067POPC   D2A48892  20.595  20.636   6.750
 7067POPC   C3A48893  20.618  20.580   7.050
 7067POPC   C4A48894  20.566  20.600   7.350
 7067POPC   C1B48895  20.413  20.601   6.450
 7067POPC   C2B48896  20.392  20.536   6.750
 7067POPC   C3B48897  20.354  20.555   7.050
 7067POPC   C4B48898  20.336  20.612   7.350
 7068POPC   NC348899   6.687   2.791   5.550
 7068POPC   PO448900   6.597   2.735   5.850
 7068POPC   GL148901   6.667   2.784   6.150
 7068POPC   GL248902   6.712   2.846   6.150
 7068POPC   C1A48903   6.629   2.784   6.450
 7068POPC   D2A48904   6.673   2.742   6.750
 7068POPC   C3A48905   6.681   2.798   7.050
 7068POPC   C4A48906   6.633   2.739   7.350
 7068POPC   C1B48907   6.800   2.879   6.450
 7068POPC   C2B48908   6.849   2.875   6.750
 7068POPC   C3B48909   6.853   2.875   7.050
 7068POPC   C4B48910   6.835   2.882   7.350
 7069POPC   NC348911   7.457  28.321   5.550
 7069POPC   PO448912   7.468  28.332   5.850
 7069POPC   GL148913   7.464  28.325   6.150
 7069POPC   GL248914   7.484  28.503   6.150
 7069POPC   C1A48915   7.422  28.332   6.450
 7069POPC   D2A48916   7.450  28.389   6.750
 7069POPC   C3A48917   7.381  28.357   7.050
 7069POPC   C4A48918   7.417  28.345   7.350
 7069POPC   C1B48919   7.587  28.601   6.450
 7069POPC   C2B48920   7.532  28.612   6.750
 7069POPC   C3B48921   7.540  28.590   7.050
 7069POPC   C4B48922   7.549  28.516   7.350
 7070POPC   NC348923  13.585  36.139   5.550
 7070POPC   PO448924  13.622  36.131   5.850
 7070POPC   GL148925  13.673  36.125   6.150
 7070POPC   GL248926  13.512  36.067   6.150
 7070POPC   C1A48927  13.647  36.128   6.450
 7070POPC   D2A48928  13.591  36.165   6.750
 7070POPC   C3A48929  13.645  36.148   7.050
 7070POPC   C4A48930  13.598  36.160   7.350
 7070POPC   C1B48931  13.357  36.016   6.450
 7070POPC   C2B48932  13.387  35.988   6.750
 7070POPC   C3B48933  13.355  36.062   7.050
 7070POPC   C4B48934  13.421  36.027   7.350
 7071POPC   NC348935  15.149   1.169   5.550
 7071POPC   PO448936  15.134   1.195   5.850
 7071POPC   GL148937  15.167   1.192   6.150
 7071POPC   GL248938  15.104   1.314   6.150
 7071POPC   C1A48939  15.195   1.240   6.450
 7071POPC   D2A48940  15.168   1.228   6.750
 7071POPC   C3A48941  15.133   1.217   7.050
 7071POPC   C4A48942  15.157   1.227   7.350
 7071POPC   C1B48943  15.015   1.396   6.450
 7071POPC   C2B48944  15.021   1.399   6.750
 7071POPC   C3B48945  14.971   1.405   7.050
 7071POPC   C4B48946  14.984   1.394   7.350
 7072POPC   NC348947  19.081   2.772   5.550
 7072POPC   PO448948  19.094   2.780   5.850
 7072POPC   GL148949  19.092   2.771   6.150
 7072POPC   GL248950  19.227   2.755   6.150
 7072POPC   C1A48951  19.029   2.732   6.450
 7072POPC   D2A48952  19.059   2.718   6.750
 7072POPC   C3A48953  19.080   2.754   7.050
 7072POPC   C4A48954  19.075   2.741   7.350
 7072POPC   C1B48955  19.280   2.657   6.450
 7072POPC   C2B48956  19.336   2.642   6.750
 7072POPC   C3B48957  19.319   2.661   7.050
 7072POPC   C4B48958  19.270   2.648   7.350
 7073POPC   NC348959  44.650   3.568   5.550
 7073POPC   PO448960  44.666   3.567   5.850
 7073POPC   GL148961  44.634   3.550   6.150
 7073POPC   GL248962  44.788   3.586   6.150
 7073POPC   C1A48963  44.707   3.582   6.450
 7073POPC   D2A48964  44.659   3.497   6.750
 7073POPC   C3A48965  44.697   3.585   7.050
 7073POPC   C4A48966  44.689   3.522   7.350
 7073POPC   C1B48967  44.866   3.689   6.450
 7073POPC   C2B48968  44.825   3.693   6.750
 7073POPC   C3B48969  44.830   3.719   7.050
 7073POPC   C4B48970  44.828   3.689   7.350
 7074POPC   NC348971   3.586  43.875   5.550
 7074POPC   PO448972   3.537  43.849   5.850
 7074POPC   GL148973   3.521  43.847   6.150
 7074POPC   GL248974   3.609  43.739   6.150
 7074POPC   C1A48975   3.514  43.871   6.450
 7074POPC   D2A48976   3.502  43.844   6.750
 7074POPC   C3A48977   3.558  43.893   7.050
 7074POPC   C4A48978   3.565  43.886   7.350
 7074POPC   C1B48979   3.617  43.631   6.450
 7074POPC   C2B48980   3.657  43.652   6.750
 7074POPC   C3B48981   3.584  43.693   7.050
 7074POPC   C4B48982   3.593  43.618   7.350
 7075POPC   NC348983  10.524  19.033   5.550
 7075POPC   PO448984  10.569  19.105   5.850
 7075POPC   GL148985  10.573  19.010   6.150
 7075POPC   GL248986  10.676  19.049   6.150
 7075POPC   C1A48987  10.522  19.033   6.450
 7075POPC   D2A48988  10.495  19.045   6.750
 7075POPC   C3A48989  10.551  19.075   7.050
 7075POPC   C4A48990  10.491  19.013   7.350
 7075POPC   C1B48991  10.732  19.127   6.450
 7075POPC   C2B48992  10.776  19.121   6.750
 7075POPC   C3B48993  10.724  19.083   7.050
 7075POPC   C4B48994  10.768  19.086   7.350
 7076POPC   NC348995  25.291  11.347   5.550
 7076POPC   PO448996  25.234  11.330   5.850
 7076POPC   GL148997  25.303  11.251   6.150
 7076POPC   GL248998  25.134  11.266   6.150
 7076POPC   C1A48999  25.236  11.305   6.450
 7076POPC   D2A49000  25.279  11.345   6.750
 7076POPC   C3A49001  25.308  11.293   7.050
 7076POPC   C4A49002  25.300  11.253   7.350
 7076POPC   C1B49003  24.993  11.271   6.450
 7076POPC   C2B49004  25.023  11.206   6.750
 7076POPC   C3B49005  25.072  11.276   7.050
 7076POPC   C4B49006  25.067  11.197   7.350
 7077POPC   NC349007  29.183  27.595   5.550
 7077POPC   PO449008  29.176  27.546   5.850
 7077POPC   GL149009  29.118  27.572   6.150
 7077POPC   GL249010  29.080  27.677   6.150
 7077POPC   C1A49011  29.144  27.545   6.450
 7077POPC   D2A49012  29.167  27.585   6.750
 7077POPC   C3A49013  29.133  27.585   7.050
 7077POPC   C4A49014  29.124  27.581   7.350
 7077POPC   C1B49015  28.974  27.827   6.450
 7077POPC   C2B49016  29.021  27.797   6.750
 7077POPC   C3B49017  28.986  27.770   7.050
 7077POPC   C4B49018  28.988  27.803   7.350
 7078POPC   NC349019  14.407  12.826   5.550
 7078POPC   PO449020  14.409  12.900   5.850
 7078POPC   GL149021  14.447  12.858   6.150
 7078POPC   GL249022  14.541  12.896   6.150
 7078POPC   C1A49023  14.391  12.829   6.450
 7078POPC   D2A49024  14.391  12.812   6.750
 7078POPC   C3A49025  14.404  12.875   7.050
 7078POPC   C4A49026  14.388  12.898   7.350
 7078POPC   C1B49027  14.669  13.018   6.450
 7078POPC   C2B49028  14.628  12.987   6.750
 7078POPC   C3B49029  14.634  12.949   7.050
 7078POPC   C4B49030  14.570  12.941   7.350
 7079POPC   NC349031  26.828   5.105   5.550
 7079POPC   PO449032  26.789   5.119   5.850
 7079POPC   GL149033  26.801   5.045   6.150
 7079POPC   GL249034  26.941   5.004   6.150
 7079POPC   C1A49035  26.783   5.114   6.450
 7079POPC   D2A49036  26.799   5.082   6.750
 7079POPC   C3A49037  26.831   5.066   7.050
 7079POPC   C4A49038  26.803   5.097   7.350
 7079POPC   C1B49039  27.043   4.974   6.450
 7079POPC   C2B49040  27.068   5.018   6.750
 7079POPC   C3B49041  27.078   5.033   7.050
 7079POPC   C4B49042  27.004   4.978   7.350
 7080POPC   NC349043  12.865  20.633   5.550
 7080POPC   PO449044  12.804  20.581   5.850
 7080POPC   GL149045  12.828  20.599   6.150
 7080POPC   GL249046  12.809  20.507   6.150
 7080POPC   C1A49047  12.897  20.625   6.450
 7080POPC   D2A49048  12.857  20.603   6.750
 7080POPC   C3A49049  12.816  20.572   7.050
 7080POPC   C4A49050  12.823  20.597   7.350
 7080POPC   C1B49051  12.868  20.330   6.450
 7080POPC   C2B49052  12.781  20.406   6.750
 7080POPC   C3B49053  12.871  20.380   7.050
 7080POPC   C4B49054  12.820  20.318   7.350
 7081POPC   NC349055  44.669  39.185   5.550
 7081POPC   PO449056  44.662  39.273   5.850
 7081POPC   GL149057  44.661  39.251   6.150
 7081POPC   GL249058  44.700  39.301   6.150
 7081POPC   C1A49059  44.683  39.267   6.450
 7081POPC   D2A49060  44.641  39.259   6.750
 7081POPC   C3A49061  44.700  39.226   7.050
 7081POPC   C4A49062  44.698  39.245   7.350
 7081POPC   C1B49063  44.779  39.381   6.450
 7081POPC   C2B49064  44.870  39.457   6.750
 7081POPC   C3B49065  44.823  39.414   7.050
 7081POPC   C4B49066  44.826  39.430   7.350
 7082POPC   NC349067  44.637   5.854   5.550
 7082POPC   PO449068  44.697   5.827   5.850
 7082POPC   GL149069  44.614   5.899   6.150
 7082POPC   GL249070  44.675   5.763   6.150
 7082POPC   C1A49071  44.624   5.904   6.450
 7082POPC   D2A49072  44.674   5.865   6.750
 7082POPC   C3A49073  44.627   5.883   7.050
 7082POPC   C4A49074  44.624   5.898   7.350
 7082POPC   C1B49075  44.801   5.629   6.450
 7082POPC   C2B49076  44.787   5.610   6.750
 7082POPC   C3B49077  44.762   5.669   7.050
 7082POPC   C4B49078  44.772   5.659   7.350
 7083POPC   NC349079  17.496  23.679   5.550
 7083POPC   PO449080  17.545  23.707   5.850
 7083POPC   GL149081  17.491  23.675   6.150
 7083POPC   GL249082  17.368  23.787   6.150
 7083POPC   C1A49083  17.514  23.670   6.450
 7083POPC   D2A49084  17.503  23.730   6.750
 7083POPC   C3A49085  17.478  23.680   7.050
 7083POPC   C4A49086  17.459  23.671   7.350
 7083POPC   C1B49087  17.245  23.765   6.450
 7083POPC   C2B49088  17.235  23.755   6.750
 7083POPC   C3B49089  17.253  23.775   7.050
 7083POPC   C4B49090  17.258  23.747   7.350
 7084POPC   NC349091  36.855  12.031   5.550
 7084POPC   PO449092  36.870  12.051   5.850
 7084POPC   GL149093  36.945  12.070   6.150
 7084POPC   GL249094  37.001  12.133   6.150
 7084POPC   C1A49095  36.919  12.057   6.450
 7084POPC   D2A49096  36.936  12.037   6.750
 7084POPC   C3A49097  36.926  12.093   7.050
 7084POPC   C4A49098  36.923  12.049   7.350
 7084POPC   C1B49099  37.108  12.289   6.450
 7084POPC   C2B49100  37.080  12.221   6.750
 7084POPC   C3B49101  37.095  12.287   7.050
 7084POPC   C4B49102  37.064  12.220   7.350
 7085POPC   NC349103  36.942  15.207   5.550
 7085POPC   PO449104  36.860  15.209   5.850
 7085POPC   GL149105  36.861  15.194   6.150
 7085POPC   GL249106  36.802  15.119   6.150
 7085POPC   C1A49107  36.856  15.225   6.450
 7085POPC   D2A49108  36.884  15.182   6.750
 7085POPC   C3A49109  36.917  15.130   7.050
 7085POPC   C4A49110  36.856  15.217   7.350
 7085POPC   C1B49111  36.781  15.015   6.450
 7085POPC   C2B49112  36.754  14.945   6.750
 7085POPC   C3B49113  36.735  15.019   7.050
 7085POPC   C4B49114  36.744  14.988   7.350
 7086POPC   NC349115  41.543  38.448   5.550
 7086POPC   PO449116  41.550  38.439   5.850
 7086POPC   GL149117  41.542  38.441   6.150
 7086POPC   GL249118  41.630  38.351   6.150
 7086POPC   C1A49119  41.559  38.439   6.450
 7086POPC   D2A49120  41.517  38.477   6.750
 7086POPC   C3A49121  41.584  38.453   7.050
 7086POPC   C4A49122  41.533  38.457   7.350
 7086POPC   C1B49123  41.596  38.250   6.450
 7086POPC   C2B49124  41.656  38.191   6.750
 7086POPC   C3B49125  41.672  38.255   7.050
 7086POPC   C4B49126  41.588  38.185   7.350
 7087POPC   NC349127  38.407   7.387   5.550
 7087POPC   PO449128  38.436   7.408   5.850
 7087POPC   GL149129  38.495   7.433   6.150
 7087POPC   GL249130  38.517   7.544   6.150
 7087POPC   C1A49131  38.459   7.441   6.450
 7087POPC   D2A49132  38.504   7.416   6.750
 7087POPC   C3A49133  38.408   7.468   7.050
 7087POPC   C4A49134  38.501   7.397   7.350
 7087POPC   C1B49135  38.468   7.702   6.450
 7087POPC   C2B49136  38.448   7.690   6.750
 7087POPC   C3B49137  38.457   7.637   7.050
 7087POPC   C4B49138  38.490   7.688   7.350
 7088POPC   NC349139   9.017  30.720   5.550
 7088POPC   PO449140   8.982  30.674   5.850
 7088POPC   GL149141   8.976  30.724   6.150
 7088POPC   GL249142   9.045  30.770   6.150
 7088POPC   C1A49143   8.938  30.725   6.450
 7088POPC   D2A49144   8.971  30.737   6.750
 7088POPC   C3A49145   8.990  30.672   7.050
 7088POPC   C4A49146   8.945  30.703   7.350
 7088POPC   C1B49147   9.132  30.904   6.450
 7088POPC   C2B49148   9.109  30.897   6.750
 7088POPC   C3B49149   9.175  30.836   7.050
 7088POPC   C4B49150   9.158  30.848   7.350
 7089POPC   NC349151   0.400  23.681   5.550
 7089POPC   PO449152   0.471  23.722   5.850
 7089POPC   GL149153   0.445  23.729   6.150
 7089POPC   GL249154   0.352  23.826   6.150
 7089POPC   C1A49155   0.468  23.675   6.450
 7089POPC   D2A49156   0.480  23.738   6.750
 7089POPC   C3A49157   0.411  23.747   7.050
 7089POPC   C4A49158   0.441  23.743   7.350
 7089POPC   C1B49159   0.231  23.947   6.450
 7089POPC   C2B49160   0.294  23.861   6.750
 7089POPC   C3B49161   0.315  23.883   7.050
 7089POPC   C4B49162   0.243  23.900   7.350
 7090POPC   NC349163  12.855  39.238   5.550
 7090POPC   PO449164  12.874  39.183   5.850
 7090POPC   GL149165  12.829  39.224   6.150
 7090POPC   GL249166  12.714  39.299   6.150
 7090POPC   C1A49167  12.820  39.215   6.450
 7090POPC   D2A49168  12.818  39.269   6.750
 7090POPC   C3A49169  12.815  39.274   7.050
 7090POPC   C4A49170  12.806  39.278   7.350
 7090POPC   C1B49171  12.636  39.321   6.450
 7090POPC   C2B49172  12.657  39.321   6.750
 7090POPC   C3B49173  12.664  39.290   7.050
 7090POPC   C4B49174  12.647  39.370   7.350
 7091POPC   NC349175  36.945   8.977   5.550
 7091POPC   PO449176  36.901   8.976   5.850
 7091POPC   GL149177  36.870   8.928   6.150
 7091POPC   GL249178  36.902   9.143   6.150
 7091POPC   C1A49179  36.903   8.993   6.450
 7091POPC   D2A49180  36.916   8.983   6.750
 7091POPC   C3A49181  36.900   8.929   7.050
 7091POPC   C4A49182  36.917   8.978   7.350
 7091POPC   C1B49183  36.896   9.200   6.450
 7091POPC   C2B49184  36.955   9.181   6.750
 7091POPC   C3B49185  36.976   9.175   7.050
 7091POPC   C4B49186  36.936   9.213   7.350
 7092POPC   NC349187  12.063  39.991   5.550
 7092POPC   PO449188  12.053  39.975   5.850
 7092POPC   GL149189  12.121  40.027   6.150
 7092POPC   GL249190  12.005  39.893   6.150
 7092POPC   C1A49191  12.061  40.034   6.450
 7092POPC   D2A49192  12.028  39.974   6.750
 7092POPC   C3A49193  12.080  39.980   7.050
 7092POPC   C4A49194  12.111  40.025   7.350
 7092POPC   C1B49195  11.891  39.829   6.450
 7092POPC   C2B49196  11.924  39.880   6.750
 7092POPC   C3B49197  11.856  39.832   7.050
 7092POPC   C4B49198  11.930  39.801   7.350
 7093POPC   NC349199  31.423  19.077   5.550
 7093POPC   PO449200  31.516  19.084   5.850
 7093POPC   GL149201  31.491  19.047   6.150
 7093POPC   GL249202  31.523  18.915   6.150
 7093POPC   C1A49203  31.486  19.056   6.450
 7093POPC   D2A49204  31.459  19.058   6.750
 7093POPC   C3A49205  31.425  19.029   7.050
 7093POPC   C4A49206  31.442  19.096   7.350
 7093POPC   C1B49207  31.526  18.820   6.450
 7093POPC   C2B49208  31.578  18.795   6.750
 7093POPC   C3B49209  31.518  18.821   7.050
 7093POPC   C4B49210  31.512  18.850   7.350
 7094POPC   NC349211   3.537  18.319   5.550
 7094POPC   PO449212   3.576  18.270   5.850
 7094POPC   GL149213   3.555  18.249   6.150
 7094POPC   GL249214   3.430  18.312   6.150
 7094POPC   C1A49215   3.565  18.258   6.450
 7094POPC   D2A49216   3.509  18.325   6.750
 7094POPC   C3A49217   3.557  18.282   7.050
 7094POPC   C4A49218   3.558  18.269   7.350
 7094POPC   C1B49219   3.311  18.386   6.450
 7094POPC   C2B49220   3.355  18.429   6.750
 7094POPC   C3B49221   3.386  18.396   7.050
 7094POPC   C4B49222   3.391  18.420   7.350
 7095POPC   NC349223  36.881  31.480   5.550
 7095POPC   PO449224  36.921  31.452   5.850
 7095POPC   GL149225  36.877  31.488   6.150
 7095POPC   GL249226  36.883  31.621   6.150
 7095POPC   C1A49227  36.902  31.491   6.450
 7095POPC   D2A49228  36.920  31.494   6.750
 7095POPC   C3A49229  36.920  31.427   7.050
 7095POPC   C4A49230  36.891  31.502   7.350
 7095POPC   C1B49231  36.753  31.687   6.450
 7095POPC   C2B49232  36.735  31.686   6.750
 7095POPC   C3B49233  36.793  31.681   7.050
 7095POPC   C4B49234  36.779  31.733   7.350
 7096POPC   NC349235  16.767  43.901   5.550
 7096POPC   PO449236  16.725  43.929   5.850
 7096POPC   GL149237  16.705  43.873   6.150
 7096POPC   GL249238  16.669  43.969   6.150
 7096POPC   C1A49239  16.699  43.864   6.450
 7096POPC   D2A49240  16.748  43.921   6.750
 7096POPC   C3A49241  16.683  43.918   7.050
 7096POPC   C4A49242  16.709  43.854   7.350
 7096POPC   C1B49243  16.655  44.159   6.450
 7096POPC   C2B49244  16.679  44.142   6.750
 7096POPC   C3B49245  16.662  44.122   7.050
 7096POPC   C4B49246  16.707  44.148   7.350
 7097POPC   NC349247  43.929  21.413   5.550
 7097POPC   PO449248  43.924  21.363   5.850
 7097POPC   GL149249  43.919  21.384   6.150
 7097POPC   GL249250  43.877  21.490   6.150
 7097POPC   C1A49251  43.912  21.342   6.450
 7097POPC   D2A49252  43.844  21.339   6.750
 7097POPC   C3A49253  43.911  21.389   7.050
 7097POPC   C4A49254  43.865  21.423   7.350
 7097POPC   C1B49255  43.742  21.602   6.450
 7097POPC   C2B49256  43.808  21.576   6.750
 7097POPC   C3B49257  43.816  21.587   7.050
 7097POPC   C4B49258  43.736  21.613   7.350
 7098POPC   NC349259  43.078  28.344   5.550
 7098POPC   PO449260  43.065  28.359   5.850
 7098POPC   GL149261  43.122  28.371   6.150
 7098POPC   GL249262  43.057  28.437   6.150
 7098POPC   C1A49263  43.134  28.344   6.450
 7098POPC   D2A49264  43.096  28.405   6.750
 7098POPC   C3A49265  43.107  28.414   7.050
 7098POPC   C4A49266  43.113  28.364   7.350
 7098POPC   C1B49267  42.981  28.531   6.450
 7098POPC   C2B49268  42.919  28.573   6.750
 7098POPC   C3B49269  42.985  28.553   7.050
 7098POPC   C4B49270  42.907  28.520   7.350
 7099POPC   NC349271   5.068  41.555   5.550
 7099POPC   PO449272   5.111  41.600   5.850
 7099POPC   GL149273   5.098  41.552   6.150
 7099POPC   GL249274   5.160  41.608   6.150
 7099POPC   C1A49275   5.055  41.542   6.450
 7099POPC   D2A49276   5.095  41.537   6.750
 7099POPC   C3A49277   5.080  41.562   7.050
 7099POPC   C4A49278   5.131  41.518   7.350
 7099POPC   C1B49279   5.214  41.725   6.450
 7099POPC   C2B49280   5.244  41.756   6.750
 7099POPC   C3B49281   5.270  41.779   7.050
 7099POPC   C4B49282   5.304  41.776   7.350
 7100POPC   NC349283  32.242  16.727   5.550
 7100POPC   PO449284  32.266  16.714   5.850
 7100POPC   GL149285  32.296  16.763   6.150
 7100POPC   GL249286  32.138  16.661   6.150
 7100POPC   C1A49287  32.223  16.742   6.450
 7100POPC   D2A49288  32.277  16.695   6.750
 7100POPC   C3A49289  32.248  16.780   7.050
 7100POPC   C4A49290  32.282  16.702   7.350
 7100POPC   C1B49291  32.133  16.485   6.450
 7100POPC   C2B49292  32.085  16.553   6.750
 7100POPC   C3B49293  32.067  16.488   7.050
 7100POPC   C4B49294  32.132  16.532   7.350
 7101POPC   NC349295   5.054  26.810   5.550
 7101POPC   PO449296   5.043  26.843   5.850
 7101POPC   GL149297   5.126  26.841   6.150
 7101POPC   GL249298   5.052  26.902   6.150
 7101POPC   C1A49299   5.101  26.773   6.450
 7101POPC   D2A49300   5.140  26.843   6.750
 7101POPC   C3A49301   5.072  26.852   7.050
 7101POPC   C4A49302   5.062  26.865   7.350
 7101POPC   C1B49303   4.898  26.997   6.450
 7101POPC   C2B49304   4.867  26.940   6.750
 7101POPC   C3B49305   4.953  27.018   7.050
 7101POPC   C4B49306   4.926  26.981   7.350
 7102POPC   NC349307  30.723  36.173   5.550
 7102POPC   PO449308  30.724  36.106   5.850
 7102POPC   GL149309  30.719  36.175   6.150
 7102POPC   GL249310  30.594  36.192   6.150
 7102POPC   C1A49311  30.669  36.102   6.450
 7102POPC   D2A49312  30.685  36.121   6.750
 7102POPC   C3A49313  30.742  36.130   7.050
 7102POPC   C4A49314  30.726  36.112   7.350
 7102POPC   C1B49315  30.510  36.300   6.450
 7102POPC   C2B49316  30.584  36.319   6.750
 7102POPC   C3B49317  30.576  36.378   7.050
 7102POPC   C4B49318  30.544  36.343   7.350
 7103POPC   NC349319  44.667  19.830   5.550
 7103POPC   PO449320  44.682  19.819   5.850
 7103POPC   GL149321  44.666  19.825   6.150
 7103POPC   GL249322  44.705  19.703   6.150
 7103POPC   C1A49323  44.651  19.813   6.450
 7103POPC   D2A49324  44.710  19.884   6.750
 7103POPC   C3A49325  44.693  19.854   7.050
 7103POPC   C4A49326  44.709  19.789   7.350
 7103POPC   C1B49327  44.723  19.564   6.450
 7103POPC   C2B49328  44.694  19.561   6.750
 7103POPC   C3B49329  44.747  19.590   7.050
 7103POPC   C4B49330  44.716  19.577   7.350
 7104POPC   NC349331  10.563  18.258   5.550
 7104POPC   PO449332  10.554  18.264   5.850
 7104POPC   GL149333  10.480  18.242   6.150
 7104POPC   GL249334  10.497  18.210   6.150
 7104POPC   C1A49335  10.552  18.304   6.450
 7104POPC   D2A49336  10.488  18.325   6.750
 7104POPC   C3A49337  10.566  18.313   7.050
 7104POPC   C4A49338  10.490  18.270   7.350
 7104POPC   C1B49339  10.420  18.044   6.450
 7104POPC   C2B49340  10.389  18.067   6.750
 7104POPC   C3B49341  10.394  18.103   7.050
 7104POPC   C4B49342  10.406  18.039   7.350
 7105POPC   NC349343  19.825  34.618   5.550
 7105POPC   PO449344  19.850  34.580   5.850
 7105POPC   GL149345  19.850  34.528   6.150
 7105POPC   GL249346  19.772  34.493   6.150
 7105POPC   C1A49347  19.832  34.536   6.450
 7105POPC   D2A49348  19.788  34.592   6.750
 7105POPC   C3A49349  19.803  34.566   7.050
 7105POPC   C4A49350  19.832  34.621   7.350
 7105POPC   C1B49351  19.720  34.399   6.450
 7105POPC   C2B49352  19.683  34.325   6.750
 7105POPC   C3B49353  19.763  34.349   7.050
 7105POPC   C4B49354  19.761  34.363   7.350
 7106POPC   NC349355  26.030   8.197   5.550
 7106POPC   PO449356  26.018   8.192   5.850
 7106POPC   GL149357  25.996   8.238   6.150
 7106POPC   GL249358  26.179   8.242   6.150
 7106POPC   C1A49359  26.038   8.180   6.450
 7106POPC   D2A49360  26.002   8.156   6.750
 7106POPC   C3A49361  26.050   8.216   7.050
 7106POPC   C4A49362  26.077   8.220   7.350
 7106POPC   C1B49363  26.293   8.221   6.450
 7106POPC   C2B49364  26.338   8.262   6.750
 7106POPC   C3B49365  26.318   8.178   7.050
 7106POPC   C4B49366  26.291   8.213   7.350
 7107POPC   NC349367  44.656  35.374   5.550
 7107POPC   PO449368  44.660  35.358   5.850
 7107POPC   GL149369  44.710  35.325   6.150
 7107POPC   GL249370  44.773  35.489   6.150
 7107POPC   C1A49371  44.622  35.326   6.450
 7107POPC   D2A49372  44.683  35.318   6.750
 7107POPC   C3A49373  44.653  35.319   7.050
 7107POPC   C4A49374  44.635  35.358   7.350
 7107POPC   C1B49375  44.858  35.512   6.450
 7107POPC   C2B49376  44.792  35.523   6.750
 7107POPC   C3B49377  44.784  35.542   7.050
 7107POPC   C4B49378  44.852  35.558   7.350
 7108POPC   NC349379   5.123  43.914   5.550
 7108POPC   PO449380   5.093  43.935   5.850
 7108POPC   GL149381   5.140  43.917   6.150
 7108POPC   GL249382   5.260  43.880   6.150
 7108POPC   C1A49383   5.131  43.860   6.450
 7108POPC   D2A49384   5.138  43.856   6.750
 7108POPC   C3A49385   5.074  43.906   7.050
 7108POPC   C4A49386   5.062  43.841   7.350
 7108POPC   C1B49387   5.385  43.937   6.450
 7108POPC   C2B49388   5.357  43.931   6.750
 7108POPC   C3B49389   5.304  43.903   7.050
 7108POPC   C4B49390   5.320  43.867   7.350
 7109POPC   NC349391  26.833  15.945   5.550
 7109POPC   PO449392  26.836  15.998   5.850
 7109POPC   GL149393  26.805  15.932   6.150
 7109POPC   GL249394  26.876  16.018   6.150
 7109POPC   C1A49395  26.799  15.992   6.450
 7109POPC   D2A49396  26.781  15.939   6.750
 7109POPC   C3A49397  26.867  15.961   7.050
 7109POPC   C4A49398  26.849  15.909   7.350
 7109POPC   C1B49399  26.915  16.148   6.450
 7109POPC   C2B49400  26.977  16.217   6.750
 7109POPC   C3B49401  26.982  16.215   7.050
 7109POPC   C4B49402  26.990  16.157   7.350
 7110POPC   NC349403  23.763  19.829   5.550
 7110POPC   PO449404  23.763  19.809   5.850
 7110POPC   GL149405  23.704  19.822   6.150
 7110POPC   GL249406  23.780  19.928   6.150
 7110POPC   C1A49407  23.710  19.813   6.450
 7110POPC   D2A49408  23.753  19.846   6.750
 7110POPC   C3A49409  23.730  19.834   7.050
 7110POPC   C4A49410  23.714  19.821   7.350
 7110POPC   C1B49411  23.814  19.996   6.450
 7110POPC   C2B49412  23.817  20.046   6.750
 7110POPC   C3B49413  23.882  19.988   7.050
 7110POPC   C4B49414  23.893  20.072   7.350
 7111POPC   NC349415  31.478  12.066   5.550
 7111POPC   PO449416  31.500  12.063   5.850
 7111POPC   GL149417  31.500  12.067   6.150
 7111POPC   GL249418  31.545  12.016   6.150
 7111POPC   C1A49419  31.441  12.065   6.450
 7111POPC   D2A49420  31.457  12.036   6.750
 7111POPC   C3A49421  31.484  12.116   7.050
 7111POPC   C4A49422  31.472  12.048   7.350
 7111POPC   C1B49423  31.679  12.038   6.450
 7111POPC   C2B49424  31.663  12.050   6.750
 7111POPC   C3B49425  31.752  11.991   7.050
 7111POPC   C4B49426  31.756  12.007   7.350
 7112POPC   NC349427  26.016   1.976   5.550
 7112POPC   PO449428  26.080   2.026   5.850
 7112POPC   GL149429  26.075   1.987   6.150
 7112POPC   GL249430  26.073   1.874   6.150
 7112POPC   C1A49431  26.062   1.994   6.450
 7112POPC   D2A49432  26.083   1.978   6.750
 7112POPC   C3A49433  26.076   1.975   7.050
 7112POPC   C4A49434  26.063   1.942   7.350
 7112POPC   C1B49435  26.127   1.794   6.450
 7112POPC   C2B49436  26.172   1.793   6.750
 7112POPC   C3B49437  26.107   1.772   7.050
 7112POPC   C4B49438  26.191   1.771   7.350
 7113POPC   NC349439  26.849  39.977   5.550
 7113POPC   PO449440  26.796  40.033   5.850
 7113POPC   GL149441  26.855  40.035   6.150
 7113POPC   GL249442  26.716  40.074   6.150
 7113POPC   C1A49443  26.810  40.042   6.450
 7113POPC   D2A49444  26.786  39.990   6.750
 7113POPC   C3A49445  26.816  39.960   7.050
 7113POPC   C4A49446  26.827  40.054   7.350
 7113POPC   C1B49447  26.648  40.183   6.450
 7113POPC   C2B49448  26.678  40.180   6.750
 7113POPC   C3B49449  26.690  40.219   7.050
 7113POPC   C4B49450  26.681  40.173   7.350
 7114POPC   NC349451   2.795  12.110   5.550
 7114POPC   PO449452   2.732  12.076   5.850
 7114POPC   GL149453   2.769  12.116   6.150
 7114POPC   GL249454   2.927  12.047   6.150
 7114POPC   C1A49455   2.747  12.081   6.450
 7114POPC   D2A49456   2.760  12.109   6.750
 7114POPC   C3A49457   2.812  12.104   7.050
 7114POPC   C4A49458   2.788  12.065   7.350
 7114POPC   C1B49459   2.999  12.029   6.450
 7114POPC   C2B49460   3.059  12.040   6.750
 7114POPC   C3B49461   3.027  12.026   7.050
 7114POPC   C4B49462   2.998  12.003   7.350
 7115POPC   NC349463  36.946  29.913   5.550
 7115POPC   PO449464  36.859  29.891   5.850
 7115POPC   GL149465  36.895  29.966   6.150
 7115POPC   GL249466  36.935  30.009   6.150
 7115POPC   C1A49467  36.867  29.871   6.450
 7115POPC   D2A49468  36.900  29.907   6.750
 7115POPC   C3A49469  36.951  29.928   7.050
 7115POPC   C4A49470  36.876  29.938   7.350
 7115POPC   C1B49471  36.995  30.158   6.450
 7115POPC   C2B49472  37.044  30.111   6.750
 7115POPC   C3B49473  37.059  30.098   7.050
 7115POPC   C4B49474  37.001  30.113   7.350
 7116POPC   NC349475  11.269   6.596   5.550
 7116POPC   PO449476  11.328   6.604   5.850
 7116POPC   GL149477  11.305   6.668   6.150
 7116POPC   GL249478  11.241   6.533   6.150
 7116POPC   C1A49479  11.293   6.636   6.450
 7116POPC   D2A49480  11.312   6.687   6.750
 7116POPC   C3A49481  11.302   6.661   7.050
 7116POPC   C4A49482  11.337   6.621   7.350
 7116POPC   C1B49483  11.290   6.358   6.450
 7116POPC   C2B49484  11.245   6.360   6.750
 7116POPC   C3B49485  11.226   6.347   7.050
 7116POPC   C4B49486  11.308   6.396   7.350
 7117POPC   NC349487  30.670  11.292   5.550
 7117POPC   PO449488  30.746  11.284   5.850
 7117POPC   GL149489  30.712  11.307   6.150
 7117POPC   GL249490  30.742  11.421   6.150
 7117POPC   C1A49491  30.727  11.271   6.450
 7117POPC   D2A49492  30.729  11.256   6.750
 7117POPC   C3A49493  30.653  11.306   7.050
 7117POPC   C4A49494  30.673  11.285   7.350
 7117POPC   C1B49495  30.839  11.523   6.450
 7117POPC   C2B49496  30.812  11.469   6.750
 7117POPC   C3B49497  30.859  11.473   7.050
 7117POPC   C4B49498  30.886  11.532   7.350
 7118POPC   NC349499  17.481  36.937   5.550
 7118POPC   PO449500  17.459  36.854   5.850
 7118POPC   GL149501  17.509  36.936   6.150
 7118POPC   GL249502  17.606  36.803   6.150
 7118POPC   C1A49503  17.541  36.862   6.450
 7118POPC   D2A49504  17.532  36.907   6.750
 7118POPC   C3A49505  17.555  36.863   7.050
 7118POPC   C4A49506  17.498  36.921   7.350
 7118POPC   C1B49507  17.607  36.682   6.450
 7118POPC   C2B49508  17.652  36.681   6.750
 7118POPC   C3B49509  17.604  36.701   7.050
 7118POPC   C4B49510  17.634  36.679   7.350
 7119POPC   NC349511   0.478  43.094   5.550
 7119POPC   PO449512   0.455  43.099   5.850
 7119POPC   GL149513   0.471  43.113   6.150
 7119POPC   GL249514   0.345  43.012   6.150
 7119POPC   C1A49515   0.409  43.083   6.450
 7119POPC   D2A49516   0.415  43.148   6.750
 7119POPC   C3A49517   0.451  43.090   7.050
 7119POPC   C4A49518   0.456  43.106   7.350
 7119POPC   C1B49519   0.247  42.995   6.450
 7119POPC   C2B49520   0.256  42.945   6.750
 7119POPC   C3B49521   0.223  43.002   7.050
 7119POPC   C4B49522   0.241  43.005   7.350
 7120POPC   NC349523  35.325  35.381   5.550
 7120POPC   PO449524  35.322  35.318   5.850
 7120POPC   GL149525  35.325  35.312   6.150
 7120POPC   GL249526  35.338  35.485   6.150
 7120POPC   C1A49527  35.335  35.358   6.450
 7120POPC   D2A49528  35.342  35.346   6.750
 7120POPC   C3A49529  35.398  35.321   7.050
 7120POPC   C4A49530  35.373  35.331   7.350
 7120POPC   C1B49531  35.339  35.631   6.450
 7120POPC   C2B49532  35.264  35.578   6.750
 7120POPC   C3B49533  35.309  35.633   7.050
 7120POPC   C4B49534  35.324  35.576   7.350
 7121POPC   NC349535  13.618  22.115   5.550
 7121POPC   PO449536  13.645  22.177   5.850
 7121POPC   GL149537  13.591  22.148   6.150
 7121POPC   GL249538  13.780  22.116   6.150
 7121POPC   C1A49539  13.645  22.169   6.450
 7121POPC   D2A49540  13.617  22.137   6.750
 7121POPC   C3A49541  13.604  22.135   7.050
 7121POPC   C4A49542  13.617  22.129   7.350
 7121POPC   C1B49543  13.903  22.090   6.450
 7121POPC   C2B49544  13.841  22.104   6.750
 7121POPC   C3B49545  13.881  22.079   7.050
 7121POPC   C4B49546  13.882  22.093   7.350
 7122POPC   NC349547  15.139  20.657   5.550
 7122POPC   PO449548  15.182  20.587   5.850
 7122POPC   GL149549  15.139  20.618   6.150
 7122POPC   GL249550  15.312  20.651   6.150
 7122POPC   C1A49551  15.196  20.659   6.450
 7122POPC   D2A49552  15.133  20.580   6.750
 7122POPC   C3A49553  15.145  20.630   7.050
 7122POPC   C4A49554  15.157  20.621   7.350
 7122POPC   C1B49555  15.365  20.778   6.450
 7122POPC   C2B49556  15.403  20.823   6.750
 7122POPC   C3B49557  15.380  20.750   7.050
 7122POPC   C4B49558  15.373  20.790   7.350
 7123POPC   NC349559  29.097  26.033   5.550
 7123POPC   PO449560  29.141  26.037   5.850
 7123POPC   GL149561  29.142  26.020   6.150
 7123POPC   GL249562  29.187  25.968   6.150
 7123POPC   C1A49563  29.114  25.995   6.450
 7123POPC   D2A49564  29.109  26.090   6.750
 7123POPC   C3A49565  29.172  26.008   7.050
 7123POPC   C4A49566  29.114  26.036   7.350
 7123POPC   C1B49567  29.221  25.811   6.450
 7123POPC   C2B49568  29.280  25.792   6.750
 7123POPC   C3B49569  29.218  25.819   7.050
 7123POPC   C4B49570  29.197  25.848   7.350
 7124POPC   NC349571  35.335   2.028   5.550
 7124POPC   PO449572  35.337   2.027   5.850
 7124POPC   GL149573  35.349   2.006   6.150
 7124POPC   GL249574  35.372   2.079   6.150
 7124POPC   C1A49575  35.325   1.973   6.450
 7124POPC   D2A49576  35.381   1.970   6.750
 7124POPC   C3A49577  35.356   1.945   7.050
 7124POPC   C4A49578  35.346   2.037   7.350
 7124POPC   C1B49579  35.281   2.211   6.450
 7124POPC   C2B49580  35.265   2.239   6.750
 7124POPC   C3B49581  35.281   2.200   7.050
 7124POPC   C4B49582  35.268   2.193   7.350
 7125POPC   NC349583   6.686  22.942   5.550
 7125POPC   PO449584   6.625  22.982   5.850
 7125POPC   GL149585   6.604  22.968   6.150
 7125POPC   GL249586   6.806  22.903   6.150
 7125POPC   C1A49587   6.661  22.986   6.450
 7125POPC   D2A49588   6.618  22.961   6.750
 7125POPC   C3A49589   6.646  22.948   7.050
 7125POPC   C4A49590   6.689  22.893   7.350
 7125POPC   C1B49591   6.920  22.882   6.450
 7125POPC   C2B49592   6.897  22.870   6.750
 7125POPC   C3B49593   6.842  22.841   7.050
 7125POPC   C4B49594   6.880  22.848   7.350
 7126POPC   NC349595  43.098  42.317   5.550
 7126POPC   PO449596  43.083  42.334   5.850
 7126POPC   GL149597  43.112  42.339   6.150
 7126POPC   GL249598  43.098  42.255   6.150
 7126POPC   C1A49599  43.094  42.292   6.450
 7126POPC   D2A49600  43.078  42.299   6.750
 7126POPC   C3A49601  43.061  42.355   7.050
 7126POPC   C4A49602  43.131  42.324   7.350
 7126POPC   C1B49603  43.078  42.124   6.450
 7126POPC   C2B49604  43.149  42.039   6.750
 7126POPC   C3B49605  43.114  42.125   7.050
 7126POPC   C4B49606  43.073  42.129   7.350
 7127POPC   NC349607   2.814  44.653   5.550
 7127POPC   PO449608   2.776  44.686   5.850
 7127POPC   GL149609   2.775  44.620   6.150
 7127POPC   GL249610   2.719  44.776   6.150
 7127POPC   C1A49611   2.749  44.674   6.450
 7127POPC   D2A49612   2.753  44.676   6.750
 7127POPC   C3A49613   2.741  44.649   7.050
 7127POPC   C4A49614   2.793  44.662   7.350
 7127POPC   C1B49615   2.735  44.957   6.450
 7127POPC   C2B49616   2.796  44.944   6.750
 7127POPC   C3B49617   2.803  44.901   7.050
 7127POPC   C4B49618   2.737  44.919   7.350
 7128POPC   NC349619  28.348  16.696   5.550
 7128POPC   PO449620  28.380  16.705   5.850
 7128POPC   GL149621  28.358  16.743   6.150
 7128POPC   GL249622  28.352  16.635   6.150
 7128POPC   C1A49623  28.373  16.727   6.450
 7128POPC   D2A49624  28.345  16.758   6.750
 7128POPC   C3A49625  28.391  16.746   7.050
 7128POPC   C4A49626  28.406  16.773   7.350
 7128POPC   C1B49627  28.341  16.485   6.450
 7128POPC   C2B49628  28.298  16.484   6.750
 7128POPC   C3B49629  28.300  16.504   7.050
 7128POPC   C4B49630  28.262  16.540   7.350
 7129POPC   NC349631  40.824  12.099   5.550
 7129POPC   PO449632  40.781  12.034   5.850
 7129POPC   GL149633  40.777  12.075   6.150
 7129POPC   GL249634  40.663  12.142   6.150
 7129POPC   C1A49635  40.828  12.045   6.450
 7129POPC   D2A49636  40.792  12.029   6.750
 7129POPC   C3A49637  40.830  12.121   7.050
 7129POPC   C4A49638  40.793  12.097   7.350
 7129POPC   C1B49639  40.580  12.133   6.450
 7129POPC   C2B49640  40.542  12.082   6.750
 7129POPC   C3B49641  40.550  12.161   7.050
 7129POPC   C4B49642  40.508  12.139   7.350
 7130POPC   NC349643  21.388  29.121   5.550
 7130POPC   PO449644  21.422  29.187   5.850
 7130POPC   GL149645  21.409  29.193   6.150
 7130POPC   GL249646  21.364  29.208   6.150
 7130POPC   C1A49647  21.392  29.142   6.450
 7130POPC   D2A49648  21.389  29.160   6.750
 7130POPC   C3A49649  21.406  29.144   7.050
 7130POPC   C4A49650  21.432  29.144   7.350
 7130POPC   C1B49651  21.220  29.402   6.450
 7130POPC   C2B49652  21.268  29.351   6.750
 7130POPC   C3B49653  21.286  29.392   7.050
 7130POPC   C4B49654  21.311  29.352   7.350
 7131POPC   NC349655   8.154  41.576   5.550
 7131POPC   PO449656   8.217  41.566   5.850
 7131POPC   GL149657   8.180  41.606   6.150
 7131POPC   GL249658   8.070  41.432   6.150
 7131POPC   C1A49659   8.180  41.561   6.450
 7131POPC   D2A49660   8.170  41.586   6.750
 7131POPC   C3A49661   8.185  41.591   7.050
 7131POPC   C4A49662   8.167  41.539   7.350
 7131POPC   C1B49663   7.975  41.349   6.450
 7131POPC   C2B49664   8.024  41.419   6.750
 7131POPC   C3B49665   8.062  41.418   7.050
 7131POPC   C4B49666   8.000  41.415   7.350
 7132POPC   NC349667  11.316  33.040   5.550
 7132POPC   PO449668  11.294  33.002   5.850
 7132POPC   GL149669  11.286  33.002   6.150
 7132POPC   GL249670  11.302  32.854   6.150
 7132POPC   C1A49671  11.290  33.027   6.450
 7132POPC   D2A49672  11.348  32.979   6.750
 7132POPC   C3A49673  11.269  32.999   7.050
 7132POPC   C4A49674  11.302  33.039   7.350
 7132POPC   C1B49675  11.258  32.787   6.450
 7132POPC   C2B49676  11.236  32.831   6.750
 7132POPC   C3B49677  11.255  32.776   7.050
 7132POPC   C4B49678  11.187  32.826   7.350
 7133POPC   NC349679   5.122  23.711   5.550
 7133POPC   PO449680   5.134  23.679   5.850
 7133POPC   GL149681   5.048  23.717   6.150
 7133POPC   GL249682   5.179  23.659   6.150
 7133POPC   C1A49683   5.085  23.715   6.450
 7133POPC   D2A49684   5.045  23.751   6.750
 7133POPC   C3A49685   5.053  23.756   7.050
 7133POPC   C4A49686   5.052  23.743   7.350
 7133POPC   C1B49687   5.292  23.540   6.450
 7133POPC   C2B49688   5.295  23.506   6.750
 7133POPC   C3B49689   5.260  23.493   7.050
 7133POPC   C4B49690   5.275  23.550   7.350
 7134POPC   NC349691  22.169  41.529   5.550
 7134POPC   PO449692  22.134  41.576   5.850
 7134POPC   GL149693  22.121  41.519   6.150
 7134POPC   GL249694  22.333  41.599   6.150
 7134POPC   C1A49695  22.123  41.603   6.450
 7134POPC   D2A49696  22.158  41.605   6.750
 7134POPC   C3A49697  22.144  41.584   7.050
 7134POPC   C4A49698  22.170  41.538   7.350
 7134POPC   C1B49699  22.429  41.586   6.450
 7134POPC   C2B49700  22.423  41.600   6.750
 7134POPC   C3B49701  22.373  41.618   7.050
 7134POPC   C4B49702  22.455  41.588   7.350
 7135POPC   NC349703  40.014  29.188   5.550
 7135POPC   PO449704  40.008  29.095   5.850
 7135POPC   GL149705  40.039  29.136   6.150
 7135POPC   GL249706  39.977  29.258   6.150
 7135POPC   C1A49707  40.016  29.128   6.450
 7135POPC   D2A49708  39.964  29.144   6.750
 7135POPC   C3A49709  40.031  29.163   7.050
 7135POPC   C4A49710  39.972  29.139   7.350
 7135POPC   C1B49711  40.025  29.433   6.450
 7135POPC   C2B49712  39.966  29.422   6.750
 7135POPC   C3B49713  40.009  29.442   7.050
 7135POPC   C4B49714  40.002  29.408   7.350
 7136POPC   NC349715  13.670   3.527   5.550
 7136POPC   PO449716  13.627   3.540   5.850
 7136POPC   GL149717  13.594   3.553   6.150
 7136POPC   GL249718  13.681   3.386   6.150
 7136POPC   C1A49719  13.644   3.535   6.450
 7136POPC   D2A49720  13.581   3.586   6.750
 7136POPC   C3A49721  13.642   3.505   7.050
 7136POPC   C4A49722  13.633   3.556   7.350
 7136POPC   C1B49723  13.736   3.364   6.450
 7136POPC   C2B49724  13.761   3.316   6.750
 7136POPC   C3B49725  13.695   3.313   7.050
 7136POPC   C4B49726  13.755   3.278   7.350
 7137POPC   NC349727  37.644  44.696   5.550
 7137POPC   PO449728  37.675  44.643   5.850
 7137POPC   GL149729  37.726  44.697   6.150
 7137POPC   GL249730  37.598  44.821   6.150
 7137POPC   C1A49731  37.681  44.712   6.450
 7137POPC   D2A49732  37.700  44.637   6.750
 7137POPC   C3A49733  37.729  44.673   7.050
 7137POPC   C4A49734  37.725  44.662   7.350
 7137POPC   C1B49735  37.596  44.905   6.450
 7137POPC   C2B49736  37.621  44.862   6.750
 7137POPC   C3B49737  37.571  44.853   7.050
 7137POPC   C4B49738  37.602  44.902   7.350
 7138POPC   NC349739  36.105  29.149   5.550
 7138POPC   PO449740  36.149  29.180   5.850
 7138POPC   GL149741  36.138  29.150   6.150
 7138POPC   GL249742  36.262  29.174   6.150
 7138POPC   C1A49743  36.165  29.191   6.450
 7138POPC   D2A49744  36.135  29.161   6.750
 7138POPC   C3A49745  36.119  29.133   7.050
 7138POPC   C4A49746  36.172  29.099   7.350
 7138POPC   C1B49747  36.397  29.273   6.450
 7138POPC   C2B49748  36.335  29.185   6.750
 7138POPC   C3B49749  36.411  29.205   7.050
 7138POPC   C4B49750  36.360  29.184   7.350
 7139POPC   NC349751  43.868  13.596   5.550
 7139POPC   PO449752  43.929  13.615   5.850
 7139POPC   GL149753  43.866  13.588   6.150
 7139POPC   GL249754  43.970  13.752   6.150
 7139POPC   C1A49755  43.844  13.597   6.450
 7139POPC   D2A49756  43.844  13.641   6.750
 7139POPC   C3A49757  43.883  13.631   7.050
 7139POPC   C4A49758  43.878  13.656   7.350
 7139POPC   C1B49759  44.083  13.814   6.450
 7139POPC   C2B49760  44.066  13.841   6.750
 7139POPC   C3B49761  44.089  13.847   7.050
 7139POPC   C4B49762  44.053  13.794   7.350
 7140POPC   NC349763  26.770  20.602   5.550
 7140POPC   PO449764  26.793  20.629   5.850
 7140POPC   GL149765  26.770  20.587   6.150
 7140POPC   GL249766  26.866  20.521   6.150
 7140POPC   C1A49767  26.792  20.642   6.450
 7140POPC   D2A49768  26.816  20.616   6.750
 7140POPC   C3A49769  26.783  20.591   7.050
 7140POPC   C4A49770  26.865  20.639   7.350
 7140POPC   C1B49771  26.941  20.384   6.450
 7140POPC   C2B49772  26.942  20.419   6.750
 7140POPC   C3B49773  26.886  20.412   7.050
 7140POPC   C4B49774  26.956  20.353   7.350
 7141POPC   NC349775  18.327   5.133   5.550
 7141POPC   PO449776  18.324   5.067   5.850
 7141POPC   GL149777  18.271   5.134   6.150
 7141POPC   GL249778  18.393   5.130   6.150
 7141POPC   C1A49779  18.281   5.077   6.450
 7141POPC   D2A49780  18.323   5.127   6.750
 7141POPC   C3A49781  18.329   5.080   7.050
 7141POPC   C4A49782  18.322   5.143   7.350
 7141POPC   C1B49783  18.572   5.075   6.450
 7141POPC   C2B49784  18.551   5.142   6.750
 7141POPC   C3B49785  18.499   5.121   7.050
 7141POPC   C4B49786  18.534   5.069   7.350
 7142POPC   NC349787  41.601  36.855   5.550
 7142POPC   PO449788  41.559  36.912   5.850
 7142POPC   GL149789  41.605  36.878   6.150
 7142POPC   GL249790  41.400  36.941   6.150
 7142POPC   C1A49791  41.579  36.953   6.450
 7142POPC   D2A49792  41.529  36.884   6.750
 7142POPC   C3A49793  41.522  36.946   7.050
 7142POPC   C4A49794  41.550  36.876   7.350
 7142POPC   C1B49795  41.345  36.927   6.450
 7142POPC   C2B49796  41.287  36.908   6.750
 7142POPC   C3B49797  41.319  36.875   7.050
 7142POPC   C4B49798  41.325  36.922   7.350
 7143POPC   NC349799   5.907  21.422   5.550
 7143POPC   PO449800   5.869  21.375   5.850
 7143POPC   GL149801   5.881  21.383   6.150
 7143POPC   GL249802   5.886  21.284   6.150
 7143POPC   C1A49803   5.910  21.346   6.450
 7143POPC   D2A49804   5.886  21.392   6.750
 7143POPC   C3A49805   5.876  21.398   7.050
 7143POPC   C4A49806   5.896  21.345   7.350
 7143POPC   C1B49807   5.879  21.127   6.450
 7143POPC   C2B49808   5.891  21.098   6.750
 7143POPC   C3B49809   5.844  21.149   7.050
 7143POPC   C4B49810   5.876  21.128   7.350
 7144POPC   NC349811   3.502   6.645   5.550
 7144POPC   PO449812   3.555   6.616   5.850
 7144POPC   GL149813   3.532   6.632   6.150
 7144POPC   GL249814   3.680   6.740   6.150
 7144POPC   C1A49815   3.536   6.626   6.450
 7144POPC   D2A49816   3.492   6.648   6.750
 7144POPC   C3A49817   3.503   6.668   7.050
 7144POPC   C4A49818   3.554   6.649   7.350
 7144POPC   C1B49819   3.683   6.793   6.450
 7144POPC   C2B49820   3.735   6.840   6.750
 7144POPC   C3B49821   3.771   6.810   7.050
 7144POPC   C4B49822   3.680   6.806   7.350
 7145POPC   NC349823  21.369  43.926   5.550
 7145POPC   PO449824  21.407  43.897   5.850
 7145POPC   GL149825  21.355  43.919   6.150
 7145POPC   GL249826  21.342  43.953   6.150
 7145POPC   C1A49827  21.375  43.906   6.450
 7145POPC   D2A49828  21.361  43.931   6.750
 7145POPC   C3A49829  21.410  43.917   7.050
 7145POPC   C4A49830  21.412  43.876   7.350
 7145POPC   C1B49831  21.188  44.072   6.450
 7145POPC   C2B49832  21.196  44.103   6.750
 7145POPC   C3B49833  21.262  44.122   7.050
 7145POPC   C4B49834  21.247  44.082   7.350
 7146POPC   NC349835  32.975  15.224   5.550
 7146POPC   PO449836  33.048  15.137   5.850
 7146POPC   GL149837  33.054  15.157   6.150
 7146POPC   GL249838  33.038  15.078   6.150
 7146POPC   C1A49839  33.003  15.213   6.450
 7146POPC   D2A49840  33.011  15.193   6.750
 7146POPC   C3A49841  33.019  15.131   7.050
 7146POPC   C4A49842  33.052  15.168   7.350
 7146POPC   C1B49843  32.927  14.972   6.450
 7146POPC   C2B49844  32.934  14.969   6.750
 7146POPC   C3B49845  32.941  14.981   7.050
 7146POPC   C4B49846  33.017  14.913   7.350
 7147POPC   NC349847  37.656  41.574   5.550
 7147POPC   PO449848  37.724  41.524   5.850
 7147POPC   GL149849  37.641  41.543   6.150
 7147POPC   GL249850  37.743  41.718   6.150
 7147POPC   C1A49851  37.637  41.543   6.450
 7147POPC   D2A49852  37.713  41.546   6.750
 7147POPC   C3A49853  37.722  41.543   7.050
 7147POPC   C4A49854  37.648  41.580   7.350
 7147POPC   C1B49855  37.790  41.818   6.450
 7147POPC   C2B49856  37.749  41.790   6.750
 7147POPC   C3B49857  37.769  41.810   7.050
 7147POPC   C4B49858  37.772  41.812   7.350
 7148POPC   NC349859  27.560  10.574   5.550
 7148POPC   PO449860  27.567  10.493   5.850
 7148POPC   GL149861  27.634  10.565   6.150
 7148POPC   GL249862  27.646  10.397   6.150
 7148POPC   C1A49863  27.559  10.543   6.450
 7148POPC   D2A49864  27.590  10.561   6.750
 7148POPC   C3A49865  27.610  10.508   7.050
 7148POPC   C4A49866  27.549  10.502   7.350
 7148POPC   C1B49867  27.729  10.335   6.450
 7148POPC   C2B49868  27.747  10.305   6.750
 7148POPC   C3B49869  27.789  10.342   7.050
 7148POPC   C4B49870  27.721  10.316   7.350
 7149POPC   NC349871  23.755  33.841   5.550
 7149POPC   PO449872  23.756  33.794   5.850
 7149POPC   GL149873  23.762  33.807   6.150
 7149POPC   GL249874  23.575  33.730   6.150
 7149POPC   C1A49875  23.679  33.752   6.450
 7149POPC   D2A49876  23.756  33.802   6.750
 7149POPC   C3A49877  23.682  33.818   7.050
 7149POPC   C4A49878  23.681  33.830   7.350
 7149POPC   C1B49879  23.574  33.642   6.450
 7149POPC   C2B49880  23.485  33.599   6.750
 7149POPC   C3B49881  23.579  33.636   7.050
 7149POPC   C4B49882  23.539  33.619   7.350
 7150POPC   NC349883  39.210  10.542   5.550
 7150POPC   PO449884  39.203  10.518   5.850
 7150POPC   GL149885  39.243  10.496   6.150
 7150POPC   GL249886  39.223  10.373   6.150
 7150POPC   C1A49887  39.266  10.567   6.450
 7150POPC   D2A49888  39.189  10.531   6.750
 7150POPC   C3A49889  39.249  10.555   7.050
 7150POPC   C4A49890  39.221  10.507   7.350
 7150POPC   C1B49891  39.168  10.267   6.450
 7150POPC   C2B49892  39.187  10.238   6.750
 7150POPC   C3B49893  39.260  10.232   7.050
 7150POPC   C4B49894  39.219  10.229   7.350
 7151POPC   NC349895  39.992  37.722   5.550
 7151POPC   PO449896  40.027  37.712   5.850
 7151POPC   GL149897  39.994  37.676   6.150
 7151POPC   GL249898  39.984  37.564   6.150
 7151POPC   C1A49899  40.016  37.655   6.450
 7151POPC   D2A49900  39.995  37.649   6.750
 7151POPC   C3A49901  39.991  37.710   7.050
 7151POPC   C4A49902  39.982  37.712   7.350
 7151POPC   C1B49903  39.918  37.433   6.450
 7151POPC   C2B49904  39.957  37.436   6.750
 7151POPC   C3B49905  39.968  37.432   7.050
 7151POPC   C4B49906  39.970  37.433   7.350
 7152POPC   NC349907  12.824  30.666   5.550
 7152POPC   PO449908  12.820  30.746   5.850
 7152POPC   GL149909  12.820  30.744   6.150
 7152POPC   GL249910  12.721  30.596   6.150
 7152POPC   C1A49911  12.825  30.722   6.450
 7152POPC   D2A49912  12.846  30.670   6.750
 7152POPC   C3A49913  12.826  30.664   7.050
 7152POPC   C4A49914  12.870  30.649   7.350
 7152POPC   C1B49915  12.660  30.567   6.450
 7152POPC   C2B49916  12.692  30.520   6.750
 7152POPC   C3B49917  12.627  30.513   7.050
 7152POPC   C4B49918  12.683  30.530   7.350
 7153POPC   NC349919  36.132  25.314   5.550
 7153POPC   PO449920  36.090  25.285   5.850
 7153POPC   GL149921  36.156  25.281   6.150
 7153POPC   GL249922  36.285  25.187   6.150
 7153POPC   C1A49923  36.158  25.269   6.450
 7153POPC   D2A49924  36.158  25.265   6.750
 7153POPC   C3A49925  36.168  25.249   7.050
 7153POPC   C4A49926  36.148  25.243   7.350
 7153POPC   C1B49927  36.397  25.181   6.450
 7153POPC   C2B49928  36.324  25.111   6.750
 7153POPC   C3B49929  36.365  25.149   7.050
 7153POPC   C4B49930  36.335  25.161   7.350
 7154POPC   NC349931  14.426  36.859   5.550
 7154POPC   PO449932  14.442  36.879   5.850
 7154POPC   GL149933  14.422  36.865   6.150
 7154POPC   GL249934  14.370  37.059   6.150
 7154POPC   C1A49935  14.354  36.864   6.450
 7154POPC   D2A49936  14.380  36.936   6.750
 7154POPC   C3A49937  14.403  36.912   7.050
 7154POPC   C4A49938  14.392  36.911   7.350
 7154POPC   C1B49939  14.419  37.189   6.450
 7154POPC   C2B49940  14.427  37.153   6.750
 7154POPC   C3B49941  14.464  37.189   7.050
 7154POPC   C4B49942  14.472  37.115   7.350
 7155POPC   NC349943  22.166   9.011   5.550
 7155POPC   PO449944  22.212   8.995   5.850
 7155POPC   GL149945  22.135   9.013   6.150
 7155POPC   GL249946  22.256   8.818   6.150
 7155POPC   C1A49947  22.139   8.970   6.450
 7155POPC   D2A49948  22.182   8.939   6.750
 7155POPC   C3A49949  22.130   8.942   7.050
 7155POPC   C4A49950  22.151   9.004   7.350
 7155POPC   C1B49951  22.228   8.787   6.450
 7155POPC   C2B49952  22.274   8.714   6.750
 7155POPC   C3B49953  22.246   8.762   7.050
 7155POPC   C4B49954  22.282   8.752   7.350
 7156POPC   NC349955  28.415  40.817   5.550
 7156POPC   PO449956  28.325  40.801   5.850
 7156POPC   GL149957  28.337  40.758   6.150
 7156POPC   GL249958  28.258  40.654   6.150
 7156POPC   C1A49959  28.356  40.782   6.450
 7156POPC   D2A49960  28.386  40.818   6.750
 7156POPC   C3A49961  28.346  40.768   7.050
 7156POPC   C4A49962  28.358  40.741   7.350
 7156POPC   C1B49963  28.210  40.603   6.450
 7156POPC   C2B49964  28.184  40.648   6.750
 7156POPC   C3B49965  28.235  40.572   7.050
 7156POPC   C4B49966  28.244  40.572   7.350
 7157POPC   NC349967  18.236  39.974   5.550
 7157POPC   PO449968  18.323  40.032   5.850
 7157POPC   GL149969  18.233  40.039   6.150
 7157POPC   GL249970  18.194  39.993   6.150
 7157POPC   C1A49971  18.297  39.998   6.450
 7157POPC   D2A49972  18.285  40.051   6.750
 7157POPC   C3A49973  18.279  39.963   7.050
 7157POPC   C4A49974  18.289  39.976   7.350
 7157POPC   C1B49975  18.022  39.901   6.450
 7157POPC   C2B49976  18.030  39.864   6.750
 7157POPC   C3B49977  18.016  39.895   7.050
 7157POPC   C4B49978  18.029  39.928   7.350
 7158POPC   NC349979  43.089  22.162   5.550
 7158POPC   PO449980  43.102  22.190   5.850
 7158POPC   GL149981  43.083  22.151   6.150
 7158POPC   GL249982  43.130  22.035   6.150
 7158POPC   C1A49983  43.146  22.187   6.450
 7158POPC   D2A49984  43.103  22.188   6.750
 7158POPC   C3A49985  43.131  22.118   7.050
 7158POPC   C4A49986  43.099  22.205   7.350
 7158POPC   C1B49987  43.168  21.948   6.450
 7158POPC   C2B49988  43.173  21.909   6.750
 7158POPC   C3B49989  43.166  21.887   7.050
 7158POPC   C4B49990  43.157  21.905   7.350
 7159POPC   NC349991  15.931  21.380   5.550
 7159POPC   PO449992  15.981  21.436   5.850
 7159POPC   GL149993  15.996  21.435   6.150
 7159POPC   GL249994  15.954  21.244   6.150
 7159POPC   C1A49995  15.961  21.345   6.450
 7159POPC   D2A49996  15.939  21.425   6.750
 7159POPC   C3A49997  15.956  21.431   7.050
 7159POPC   C4A49998  15.951  21.387   7.350
 7159POPC   C1B49999  15.911  21.089   6.450
 7159POPC   C2B50000  15.944  21.101   6.750
 7159POPC   C3B50001  15.964  21.122   7.050
 7159POPC   C4B50002  15.949  21.153   7.350
 7160POPC   NC350003   1.199   1.208   5.550
 7160POPC   PO450004   1.197   1.245   5.850
 7160POPC   GL150005   1.234   1.191   6.150
 7160POPC   GL250006   1.125   1.283   6.150
 7160POPC   C1A50007   1.203   1.208   6.450
 7160POPC   D2A50008   1.235   1.190   6.750
 7160POPC   C3A50009   1.248   1.260   7.050
 7160POPC   C4A50010   1.236   1.172   7.350
 7160POPC   C1B50011   1.072   1.434   6.450
 7160POPC   C2B50012   1.114   1.443   6.750
 7160POPC   C3B50013   1.153   1.395   7.050
 7160POPC   C4B50014   1.078   1.438   7.350
 7161POPC   NC350015  22.196   2.774   5.550
 7161POPC   PO450016  22.196   2.810   5.850
 7161POPC   GL150017  22.141   2.767   6.150
 7161POPC   GL250018  22.298   2.855   6.150
 7161POPC   C1A50019  22.129   2.727   6.450
 7161POPC   D2A50020  22.135   2.728   6.750
 7161POPC   C3A50021  22.185   2.728   7.050
 7161POPC   C4A50022  22.127   2.788   7.350
 7161POPC   C1B50023  22.382   2.928   6.450
 7161POPC   C2B50024  22.354   2.929   6.750
 7161POPC   C3B50025  22.304   2.894   7.050
 7161POPC   C4B50026  22.393   2.929   7.350
 7162POPC   NC350027  12.032  28.336   5.550
 7162POPC   PO450028  12.051  28.394   5.850
 7162POPC   GL150029  12.094  28.363   6.150
 7162POPC   GL250030  12.153  28.267   6.150
 7162POPC   C1A50031  12.066  28.372   6.450
 7162POPC   D2A50032  12.119  28.369   6.750
 7162POPC   C3A50033  12.053  28.359   7.050
 7162POPC   C4A50034  12.052  28.390   7.350
 7162POPC   C1B50035  12.254  28.181   6.450
 7162POPC   C2B50036  12.273  28.167   6.750
 7162POPC   C3B50037  12.305  28.185   7.050
 7162POPC   C4B50038  12.275  28.179   7.350
 7163POPC   NC350039  36.078  22.195   5.550
 7163POPC   PO450040  36.145  22.119   5.850
 7163POPC   GL150041  36.160  22.187   6.150
 7163POPC   GL250042  36.220  22.021   6.150
 7163POPC   C1A50043  36.178  22.200   6.450
 7163POPC   D2A50044  36.110  22.193   6.750
 7163POPC   C3A50045  36.095  22.185   7.050
 7163POPC   C4A50046  36.084  22.118   7.350
 7163POPC   C1B50047  36.291  21.940   6.450
 7163POPC   C2B50048  36.275  22.015   6.750
 7163POPC   C3B50049  36.247  21.929   7.050
 7163POPC   C4B50050  36.276  22.020   7.350
 7164POPC   NC350051  26.045  17.514   5.550
 7164POPC   PO450052  26.075  17.512   5.850
 7164POPC   GL150053  26.084  17.548   6.150
 7164POPC   GL250054  25.930  17.406   6.150
 7164POPC   C1A50055  26.056  17.476   6.450
 7164POPC   D2A50056  26.015  17.466   6.750
 7164POPC   C3A50057  26.032  17.536   7.050
 7164POPC   C4A50058  26.027  17.528   7.350
 7164POPC   C1B50059  25.806  17.352   6.450
 7164POPC   C2B50060  25.872  17.358   6.750
 7164POPC   C3B50061  25.873  17.338   7.050
 7164POPC   C4B50062  25.821  17.325   7.350
 7165POPC   NC350063   3.579   2.766   5.550
 7165POPC   PO450064   3.506   2.758   5.850
 7165POPC   GL150065   3.534   2.803   6.150
 7165POPC   GL250066   3.400   2.676   6.150
 7165POPC   C1A50067   3.510   2.753   6.450
 7165POPC   D2A50068   3.544   2.748   6.750
 7165POPC   C3A50069   3.500   2.738   7.050
 7165POPC   C4A50070   3.588   2.777   7.350
 7165POPC   C1B50071   3.284   2.686   6.450
 7165POPC   C2B50072   3.278   2.678   6.750
 7165POPC   C3B50073   3.279   2.629   7.050
 7165POPC   C4B50074   3.322   2.665   7.350
 7166POPC   NC350075  38.416  10.506   5.550
 7166POPC   PO450076  38.422  10.493   5.850
 7166POPC   GL150077  38.412  10.540   6.150
 7166POPC   GL250078  38.308  10.647   6.150
 7166POPC   C1A50079  38.436  10.513   6.450
 7166POPC   D2A50080  38.473  10.500   6.750
 7166POPC   C3A50081  38.497  10.553   7.050
 7166POPC   C4A50082  38.459  10.552   7.350
 7166POPC   C1B50083  38.237  10.680   6.450
 7166POPC   C2B50084  38.245  10.711   6.750
 7166POPC   C3B50085  38.298  10.689   7.050
 7166POPC   C4B50086  38.268  10.655   7.350
 7167POPC   NC350087   4.291  16.730   5.550
 7167POPC   PO450088   4.361  16.758   5.850
 7167POPC   GL150089   4.270  16.743   6.150
 7167POPC   GL250090   4.229  16.653   6.150
 7167POPC   C1A50091   4.366  16.750   6.450
 7167POPC   D2A50092   4.365  16.713   6.750
 7167POPC   C3A50093   4.293  16.776   7.050
 7167POPC   C4A50094   4.340  16.694   7.350
 7167POPC   C1B50095   4.257  16.452   6.450
 7167POPC   C2B50096   4.263  16.501   6.750
 7167POPC   C3B50097   4.252  16.519   7.050
 7167POPC   C4B50098   4.209  16.501   7.350
 7168POPC   NC350099  25.301   9.010   5.550
 7168POPC   PO450100  25.298   8.937   5.850
 7168POPC   GL150101  25.304   9.010   6.150
 7168POPC   GL250102  25.360   8.992   6.150
 7168POPC   C1A50103  25.288   8.940   6.450
 7168POPC   D2A50104  25.295   9.004   6.750
 7168POPC   C3A50105  25.290   8.933   7.050
 7168POPC   C4A50106  25.281   8.951   7.350
 7168POPC   C1B50107  25.483   8.953   6.450
 7168POPC   C2B50108  25.527   8.947   6.750
 7168POPC   C3B50109  25.493   8.943   7.050
 7168POPC   C4B50110  25.536   8.865   7.350
 7169POPC   NC350111  17.553  43.119   5.550
 7169POPC   PO450112  17.540  43.146   5.850
 7169POPC   GL150113  17.462  43.096   6.150
 7169POPC   GL250114  17.618  43.207   6.150
 7169POPC   C1A50115  17.507  43.123   6.450
 7169POPC   D2A50116  17.490  43.116   6.750
 7169POPC   C3A50117  17.533  43.105   7.050
 7169POPC   C4A50118  17.493  43.080   7.350
 7169POPC   C1B50119  17.681  43.288   6.450
 7169POPC   C2B50120  17.702  43.250   6.750
 7169POPC   C3B50121  17.654  43.288   7.050
 7169POPC   C4B50122  17.696  43.275   7.350
 7170POPC   NC350123  44.646  26.022   5.550
 7170POPC   PO450124  44.670  26.056   5.850
 7170POPC   GL150125  44.650  26.081   6.150
 7170POPC   GL250126  44.791  26.065   6.150
 7170POPC   C1A50127  44.613  26.002   6.450
 7170POPC   D2A50128  44.687  26.025   6.750
 7170POPC   C3A50129  44.695  25.998   7.050
 7170POPC   C4A50130  44.618  26.021   7.350
 7170POPC   C1B50131  44.915  26.184   6.450
 7170POPC   C2B50132  44.940  26.137   6.750
 7170POPC   C3B50133  44.869  26.183   7.050
 7170POPC   C4B50134  44.876  26.181   7.350
 7171POPC   NC350135  34.554  19.038   5.550
 7171POPC   PO450136  34.555  19.041   5.850
 7171POPC   GL150137  34.544  19.105   6.150
 7171POPC   GL250138  34.564  19.197   6.150
 7171POPC   C1A50139  34.618  19.107   6.450
 7171POPC   D2A50140  34.599  19.068   6.750
 7171POPC   C3A50141  34.608  19.068   7.050
 7171POPC   C4A50142  34.556  19.011   7.350
 7171POPC   C1B50143  34.596  19.316   6.450
 7171POPC   C2B50144  34.672  19.303   6.750
 7171POPC   C3B50145  34.671  19.269   7.050
 7171POPC   C4B50146  34.666  19.297   7.350
 7172POPC   NC350147   9.010  41.523   5.550
 7172POPC   PO450148   8.967  41.584   5.850
 7172POPC   GL150149   8.993  41.583   6.150
 7172POPC   GL250150   9.076  41.634   6.150
 7172POPC   C1A50151   8.927  41.549   6.450
 7172POPC   D2A50152   8.967  41.515   6.750
 7172POPC   C3A50153   9.012  41.590   7.050
 7172POPC   C4A50154   8.926  41.521   7.350
 7172POPC   C1B50155   9.181  41.647   6.450
 7172POPC   C2B50156   9.261  41.633   6.750
 7172POPC   C3B50157   9.207  41.674   7.050
 7172POPC   C4B50158   9.198  41.639   7.350
 7173POPC   NC350159  33.778  13.629   5.550
 7173POPC   PO450160  33.777  13.629   5.850
 7173POPC   GL150161  33.814  13.651   6.150
 7173POPC   GL250162  33.887  13.701   6.150
 7173POPC   C1A50163  33.760  13.644   6.450
 7173POPC   D2A50164  33.783  13.624   6.750
 7173POPC   C3A50165  33.793  13.673   7.050
 7173POPC   C4A50166  33.782  13.600   7.350
 7173POPC   C1B50167  33.941  13.859   6.450
 7173POPC   C2B50168  34.001  13.824   6.750
 7173POPC   C3B50169  33.970  13.771   7.050
 7173POPC   C4B50170  34.000  13.856   7.350
 7174POPC   NC350171  13.673   7.430   5.550
 7174POPC   PO450172  13.650   7.457   5.850
 7174POPC   GL150173  13.589   7.411   6.150
 7174POPC   GL250174  13.742   7.553   6.150
 7174POPC   C1A50175  13.672   7.468   6.450
 7174POPC   D2A50176  13.638   7.373   6.750
 7174POPC   C3A50177  13.659   7.396   7.050
 7174POPC   C4A50178  13.588   7.407   7.350
 7174POPC   C1B50179  13.829   7.594   6.450
 7174POPC   C2B50180  13.757   7.648   6.750
 7174POPC   C3B50181  13.766   7.576   7.050
 7174POPC   C4B50182  13.748   7.651   7.350
 7175POPC   NC350183   6.645  21.350   5.550
 7175POPC   PO450184   6.663  21.398   5.850
 7175POPC   GL150185   6.694  21.388   6.150
 7175POPC   GL250186   6.533  21.396   6.150
 7175POPC   C1A50187   6.606  21.356   6.450
 7175POPC   D2A50188   6.680  21.429   6.750
 7175POPC   C3A50189   6.627  21.379   7.050
 7175POPC   C4A50190   6.615  21.369   7.350
 7175POPC   C1B50191   6.378  21.503   6.450
 7175POPC   C2B50192   6.398  21.534   6.750
 7175POPC   C3B50193   6.469  21.453   7.050
 7175POPC   C4B50194   6.424  21.480   7.350
 7176POPC   NC350195  40.761  25.259   5.550
 7176POPC   PO450196  40.800  25.233   5.850
 7176POPC   GL150197  40.762  25.232   6.150
 7176POPC   GL250198  40.724  25.343   6.150
 7176POPC   C1A50199  40.742  25.247   6.450
 7176POPC   D2A50200  40.774  25.280   6.750
 7176POPC   C3A50201  40.797  25.239   7.050
 7176POPC   C4A50202  40.738  25.299   7.350
 7176POPC   C1B50203  40.664  25.509   6.450
 7176POPC   C2B50204  40.596  25.505   6.750
 7176POPC   C3B50205  40.598  25.523   7.050
 7176POPC   C4B50206  40.650  25.522   7.350
 7177POPC   NC350207  18.305  25.998   5.550
 7177POPC   PO450208  18.238  26.047   5.850
 7177POPC   GL150209  18.268  26.014   6.150
 7177POPC   GL250210  18.199  26.171   6.150
 7177POPC   C1A50211  18.290  26.045   6.450
 7177POPC   D2A50212  18.290  26.020   6.750
 7177POPC   C3A50213  18.290  26.080   7.050
 7177POPC   C4A50214  18.266  26.006   7.350
 7177POPC   C1B50215  18.070  26.224   6.450
 7177POPC   C2B50216  18.134  26.248   6.750
 7177POPC   C3B50217  18.106  26.246   7.050
 7177POPC   C4B50218  18.147  26.188   7.350
 7178POPC   NC350219   4.273   0.427   5.550
 7178POPC   PO450220   4.292   0.431   5.850
 7178POPC   GL150221   4.349   0.483   6.150
 7178POPC   GL250222   4.305   0.304   6.150
 7178POPC   C1A50223   4.281   0.477   6.450
 7178POPC   D2A50224   4.309   0.473   6.750
 7178POPC   C3A50225   4.354   0.430   7.050
 7178POPC   C4A50226   4.348   0.419   7.350
 7178POPC   C1B50227   4.371   0.173   6.450
 7178POPC   C2B50228   4.390   0.242   6.750
 7178POPC   C3B50229   4.399   0.190   7.050
 7178POPC   C4B50230   4.404   0.167   7.350
 7179POPC   NC350231  15.920  32.272   5.550
 7179POPC   PO450232  15.909  32.206   5.850
 7179POPC   GL150233  15.913  32.209   6.150
 7179POPC   GL250234  15.931  32.137   6.150
 7179POPC   C1A50235  15.970  32.289   6.450
 7179POPC   D2A50236  15.917  32.238   6.750
 7179POPC   C3A50237  15.979  32.247   7.050
 7179POPC   C4A50238  15.940  32.231   7.350
 7179POPC   C1B50239  15.863  32.013   6.450
 7179POPC   C2B50240  15.832  32.063   6.750
 7179POPC   C3B50241  15.839  32.027   7.050
 7179POPC   C4B50242  15.885  31.967   7.350
 7180POPC   NC350243  42.309   5.065   5.550
 7180POPC   PO450244  42.384   5.134   5.850
 7180POPC   GL150245  42.297   5.136   6.150
 7180POPC   GL250246  42.296   4.939   6.150
 7180POPC   C1A50247  42.301   5.090   6.450
 7180POPC   D2A50248  42.377   5.077   6.750
 7180POPC   C3A50249  42.337   5.084   7.050
 7180POPC   C4A50250  42.375   5.062   7.350
 7180POPC   C1B50251  42.228   4.843   6.450
 7180POPC   C2B50252  42.275   4.823   6.750
 7180POPC   C3B50253  42.227   4.829   7.050
 7180POPC   C4B50254  42.205   4.831   7.350
 7181POPC   NC350255  40.765  15.142   5.550
 7181POPC   PO450256  40.733  15.166   5.850
 7181POPC   GL150257  40.760  15.165   6.150
 7181POPC   GL250258  40.670  15.092   6.150
 7181POPC   C1A50259  40.734  15.148   6.450
 7181POPC   D2A50260  40.799  15.148   6.750
 7181POPC   C3A50261  40.819  15.176   7.050
 7181POPC   C4A50262  40.823  15.158   7.350
 7181POPC   C1B50263  40.522  15.099   6.450
 7181POPC   C2B50264  40.549  15.108   6.750
 7181POPC   C3B50265  40.511  15.075   7.050
 7181POPC   C4B50266  40.552  15.026   7.350
 7182POPC   NC350267  37.675  22.922   5.550
 7182POPC   PO450268  37.706  22.894   5.850
 7182POPC   GL150269  37.638  22.986   6.150
 7182POPC   GL250270  37.721  23.061   6.150
 7182POPC   C1A50271  37.650  22.889   6.450
 7182POPC   D2A50272  37.708  22.946   6.750
 7182POPC   C3A50273  37.709  22.944   7.050
 7182POPC   C4A50274  37.671  22.967   7.350
 7182POPC   C1B50275  37.704  23.205   6.450
 7182POPC   C2B50276  37.712  23.202   6.750
 7182POPC   C3B50277  37.653  23.202   7.050
 7182POPC   C4B50278  37.731  23.194   7.350
 7183POPC   NC350279  22.144  31.448   5.550
 7183POPC   PO450280  22.124  31.431   5.850
 7183POPC   GL150281  22.190  31.435   6.150
 7183POPC   GL250282  22.105  31.558   6.150
 7183POPC   C1A50283  22.186  31.470   6.450
 7183POPC   D2A50284  22.181  31.459   6.750
 7183POPC   C3A50285  22.115  31.473   7.050
 7183POPC   C4A50286  22.203  31.426   7.350
 7183POPC   C1B50287  21.995  31.658   6.450
 7183POPC   C2B50288  22.012  31.697   6.750
 7183POPC   C3B50289  21.991  31.707   7.050
 7183POPC   C4B50290  22.069  31.723   7.350
 7184POPC   NC350291  31.489  28.387   5.550
 7184POPC   PO450292  31.501  28.378   5.850
 7184POPC   GL150293  31.429  28.386   6.150
 7184POPC   GL250294  31.458  28.242   6.150
 7184POPC   C1A50295  31.508  28.418   6.450
 7184POPC   D2A50296  31.486  28.414   6.750
 7184POPC   C3A50297  31.498  28.348   7.050
 7184POPC   C4A50298  31.434  28.377   7.350
 7184POPC   C1B50299  31.500  28.118   6.450
 7184POPC   C2B50300  31.500  28.106   6.750
 7184POPC   C3B50301  31.503  28.151   7.050
 7184POPC   C4B50302  31.545  28.076   7.350
 7185POPC   NC350303  16.705  16.710   5.550
 7185POPC   PO450304  16.709  16.779   5.850
 7185POPC   GL150305  16.762  16.696   6.150
 7185POPC   GL250306  16.684  16.876   6.150
 7185POPC   C1A50307  16.695  16.748   6.450
 7185POPC   D2A50308  16.703  16.770   6.750
 7185POPC   C3A50309  16.763  16.737   7.050
 7185POPC   C4A50310  16.751  16.774   7.350
 7185POPC   C1B50311  16.719  16.945   6.450
 7185POPC   C2B50312  16.686  16.993   6.750
 7185POPC   C3B50313  16.709  16.969   7.050
 7185POPC   C4B50314  16.696  17.003   7.350
 7186POPC   NC350315  13.666   2.015   5.550
 7186POPC   PO450316  13.582   1.992   5.850
 7186POPC   GL150317  13.677   2.008   6.150
 7186POPC   GL250318  13.710   2.148   6.150
 7186POPC   C1A50319  13.674   1.976   6.450
 7186POPC   D2A50320  13.644   1.958   6.750
 7186POPC   C3A50321  13.658   2.017   7.050
 7186POPC   C4A50322  13.588   2.026   7.350
 7186POPC   C1B50323  13.685   2.183   6.450
 7186POPC   C2B50324  13.753   2.196   6.750
 7186POPC   C3B50325  13.689   2.207   7.050
 7186POPC   C4B50326  13.729   2.215   7.350
 7187POPC   NC350327  30.720   8.181   5.550
 7187POPC   PO450328  30.690   8.244   5.850
 7187POPC   GL150329  30.679   8.167   6.150
 7187POPC   GL250330  30.780   8.165   6.150
 7187POPC   C1A50331  30.696   8.241   6.450
 7187POPC   D2A50332  30.691   8.246   6.750
 7187POPC   C3A50333  30.740   8.149   7.050
 7187POPC   C4A50334  30.666   8.185   7.350
 7187POPC   C1B50335  30.924   8.074   6.450
 7187POPC   C2B50336  30.876   8.024   6.750
 7187POPC   C3B50337  30.867   8.089   7.050
 7187POPC   C4B50338  30.890   7.998   7.350
 7188POPC   NC350339  39.975  19.801   5.550
 7188POPC   PO450340  40.014  19.803   5.850
 7188POPC   GL150341  39.970  19.796   6.150
 7188POPC   GL250342  39.907  19.717   6.150
 7188POPC   C1A50343  39.983  19.820   6.450
 7188POPC   D2A50344  40.028  19.877   6.750
 7188POPC   C3A50345  40.027  19.814   7.050
 7188POPC   C4A50346  39.989  19.880   7.350
 7188POPC   C1B50347  39.852  19.661   6.450
 7188POPC   C2B50348  39.814  19.637   6.750
 7188POPC   C3B50349  39.861  19.674   7.050
 7188POPC   C4B50350  39.827  19.700   7.350
 7189POPC   NC350351  21.364   7.395   5.550
 7189POPC   PO450352  21.420   7.372   5.850
 7189POPC   GL150353  21.355   7.428   6.150
 7189POPC   GL250354  21.412   7.337   6.150
 7189POPC   C1A50355  21.384   7.449   6.450
 7189POPC   D2A50356  21.356   7.374   6.750
 7189POPC   C3A50357  21.368   7.390   7.050
 7189POPC   C4A50358  21.395   7.390   7.350
 7189POPC   C1B50359  21.527   7.147   6.450
 7189POPC   C2B50360  21.517   7.159   6.750
 7189POPC   C3B50361  21.474   7.151   7.050
 7189POPC   C4B50362  21.465   7.180   7.350
 7190POPC   NC350363   7.451  19.051   5.550
 7190POPC   PO450364   7.468  19.018   5.850
 7190POPC   GL150365   7.396  19.010   6.150
 7190POPC   GL250366   7.301  19.126   6.150
 7190POPC   C1A50367   7.382  19.052   6.450
 7190POPC   D2A50368   7.462  19.056   6.750
 7190POPC   C3A50369   7.394  19.086   7.050
 7190POPC   C4A50370   7.437  19.101   7.350
 7190POPC   C1B50371   7.199  19.185   6.450
 7190POPC   C2B50372   7.195  19.138   6.750
 7190POPC   C3B50373   7.156  19.154   7.050
 7190POPC   C4B50374   7.232  19.143   7.350
 7191POPC   NC350375  39.204   0.400   5.550
 7191POPC   PO450376  39.205   0.479   5.850
 7191POPC   GL150377  39.221   0.449   6.150
 7191POPC   GL250378  39.342   0.556   6.150
 7191POPC   C1A50379  39.225   0.410   6.450
 7191POPC   D2A50380  39.250   0.478   6.750
 7191POPC   C3A50381  39.226   0.481   7.050
 7191POPC   C4A50382  39.264   0.476   7.350
 7191POPC   C1B50383  39.419   0.585   6.450
 7191POPC   C2B50384  39.374   0.608   6.750
 7191POPC   C3B50385  39.429   0.611   7.050
 7191POPC   C4B50386  39.442   0.604   7.350
 7192POPC   NC350387  22.979   6.653   5.550
 7192POPC   PO450388  22.920   6.682   5.850
 7192POPC   GL150389  22.981   6.597   6.150
 7192POPC   GL250390  22.985   6.686   6.150
 7192POPC   C1A50391  22.900   6.623   6.450
 7192POPC   D2A50392  22.954   6.637   6.750
 7192POPC   C3A50393  22.967   6.629   7.050
 7192POPC   C4A50394  22.975   6.649   7.350
 7192POPC   C1B50395  23.127   6.810   6.450
 7192POPC   C2B50396  23.104   6.859   6.750
 7192POPC   C3B50397  23.139   6.816   7.050
 7192POPC   C4B50398  23.137   6.854   7.350
 7193POPC   NC350399  10.476  17.530   5.550
 7193POPC   PO450400  10.534  17.497   5.850
 7193POPC   GL150401  10.512  17.499   6.150
 7193POPC   GL250402  10.625  17.521   6.150
 7193POPC   C1A50403  10.517  17.463   6.450
 7193POPC   D2A50404  10.516  17.473   6.750
 7193POPC   C3A50405  10.543  17.549   7.050
 7193POPC   C4A50406  10.475  17.491   7.350
 7193POPC   C1B50407  10.731  17.549   6.450
 7193POPC   C2B50408  10.738  17.486   6.750
 7193POPC   C3B50409  10.747  17.517   7.050
 7193POPC   C4B50410  10.729  17.475   7.350
 7194POPC   NC350411   7.391  38.425   5.550
 7194POPC   PO450412   7.456  38.421   5.850
 7194POPC   GL150413   7.428  38.455   6.150
 7194POPC   GL250414   7.381  38.385   6.150
 7194POPC   C1A50415   7.416  38.493   6.450
 7194POPC   D2A50416   7.397  38.409   6.750
 7194POPC   C3A50417   7.390  38.505   7.050
 7194POPC   C4A50418   7.467  38.482   7.350
 7194POPC   C1B50419   7.230  38.236   6.450
 7194POPC   C2B50420   7.299  38.296   6.750
 7194POPC   C3B50421   7.288  38.289   7.050
 7194POPC   C4B50422   7.231  38.234   7.350
 7195POPC   NC350423  13.656  31.469   5.550
 7195POPC   PO450424  13.662  31.467   5.850
 7195POPC   GL150425  13.595  31.460   6.150
 7195POPC   GL250426  13.622  31.346   6.150
 7195POPC   C1A50427  13.633  31.496   6.450
 7195POPC   D2A50428  13.655  31.442   6.750
 7195POPC   C3A50429  13.649  31.518   7.050
 7195POPC   C4A50430  13.652  31.425   7.350
 7195POPC   C1B50431  13.622  31.260   6.450
 7195POPC   C2B50432  13.529  31.200   6.750
 7195POPC   C3B50433  13.556  31.224   7.050
 7195POPC   C4B50434  13.589  31.201   7.350
 7196POPC   NC350435  19.048  19.855   5.550
 7196POPC   PO450436  19.014  19.789   5.850
 7196POPC   GL150437  19.035  19.795   6.150
 7196POPC   GL250438  18.943  19.735   6.150
 7196POPC   C1A50439  19.084  19.876   6.450
 7196POPC   D2A50440  19.050  19.863   6.750
 7196POPC   C3A50441  19.078  19.800   7.050
 7196POPC   C4A50442  19.010  19.813   7.350
 7196POPC   C1B50443  18.837  19.718   6.450
 7196POPC   C2B50444  18.845  19.700   6.750
 7196POPC   C3B50445  18.905  19.651   7.050
 7196POPC   C4B50446  18.843  19.635   7.350
 7197POPC   NC350447  26.021  30.720   5.550
 7197POPC   PO450448  26.032  30.663   5.850
 7197POPC   GL150449  26.000  30.721   6.150
 7197POPC   GL250450  26.064  30.530   6.150
 7197POPC   C1A50451  25.998  30.669   6.450
 7197POPC   D2A50452  26.005  30.743   6.750
 7197POPC   C3A50453  26.018  30.738   7.050
 7197POPC   C4A50454  26.064  30.739   7.350
 7197POPC   C1B50455  26.095  30.435   6.450
 7197POPC   C2B50456  26.103  30.471   6.750
 7197POPC   C3B50457  26.105  30.476   7.050
 7197POPC   C4B50458  26.107  30.458   7.350
 7198POPC   NC350459   3.581   8.180   5.550
 7198POPC   PO450460   3.555   8.149   5.850
 7198POPC   GL150461   3.549   8.198   6.150
 7198POPC   GL250462   3.633   8.166   6.150
 7198POPC   C1A50463   3.569   8.149   6.450
 7198POPC   D2A50464   3.506   8.238   6.750
 7198POPC   C3A50465   3.517   8.185   7.050
 7198POPC   C4A50466   3.528   8.184   7.350
 7198POPC   C1B50467   3.767   8.166   6.450
 7198POPC   C2B50468   3.834   8.183   6.750
 7198POPC   C3B50469   3.828   8.125   7.050
 7198POPC   C4B50470   3.836   8.161   7.350
 7199POPC   NC350471  19.850  16.697   5.550
 7199POPC   PO450472  19.863  16.684   5.850
 7199POPC   GL150473  19.844  16.684   6.150
 7199POPC   GL250474  19.974  16.835   6.150
 7199POPC   C1A50475  19.880  16.727   6.450
 7199POPC   D2A50476  19.845  16.736   6.750
 7199POPC   C3A50477  19.875  16.685   7.050
 7199POPC   C4A50478  19.834  16.724   7.350
 7199POPC   C1B50479  20.038  16.854   6.450
 7199POPC   C2B50480  19.996  16.912   6.750
 7199POPC   C3B50481  19.982  16.852   7.050
 7199POPC   C4B50482  20.031  16.851   7.350
 7200POPC   NC350483  25.265  28.399   5.550
 7200POPC   PO450484  25.220  28.389   5.850
 7200POPC   GL150485  25.225  28.386   6.150
 7200POPC   GL250486  25.288  28.257   6.150
 7200POPC   C1A50487  25.291  28.406   6.450
 7200POPC   D2A50488  25.306  28.375   6.750
 7200POPC   C3A50489  25.260  28.376   7.050
 7200POPC   C4A50490  25.233  28.340   7.350
 7200POPC   C1B50491  25.371  28.212   6.450
 7200POPC   C2B50492  25.440  28.187   6.750
 7200POPC   C3B50493  25.428  28.193   7.050
 7200POPC   C4B50494  25.437  28.191   7.350
 7201POPC   NC350495  23.699  35.334   5.550
 7201POPC   PO450496  23.719  35.396   5.850
 7201POPC   GL150497  23.698  35.354   6.150
 7201POPC   GL250498  23.848  35.364   6.150
 7201POPC   C1A50499  23.713  35.335   6.450
 7201POPC   D2A50500  23.665  35.351   6.750
 7201POPC   C3A50501  23.704  35.401   7.050
 7201POPC   C4A50502  23.665  35.331   7.350
 7201POPC   C1B50503  23.953  35.411   6.450
 7201POPC   C2B50504  23.992  35.461   6.750
 7201POPC   C3B50505  23.916  35.387   7.050
 7201POPC   C4B50506  23.933  35.384   7.350
 7202POPC   NC350507  37.644  19.865   5.550
 7202POPC   PO450508  37.711  19.851   5.850
 7202POPC   GL150509  37.702  19.856   6.150
 7202POPC   GL250510  37.601  19.742   6.150
 7202POPC   C1A50511  37.698  19.866   6.450
 7202POPC   D2A50512  37.649  19.808   6.750
 7202POPC   C3A50513  37.720  19.851   7.050
 7202POPC   C4A50514  37.633  19.789   7.350
 7202POPC   C1B50515  37.469  19.671   6.450
 7202POPC   C2B50516  37.527  19.709   6.750
 7202POPC   C3B50517  37.507  19.638   7.050
 7202POPC   C4B50518  37.486  19.629   7.350
 7203POPC   NC350519   5.110  25.242   5.550
 7203POPC   PO450520   5.105  25.272   5.850
 7203POPC   GL150521   5.069  25.254   6.150
 7203POPC   GL250522   5.063  25.392   6.150
 7203POPC   C1A50523   5.063  25.231   6.450
 7203POPC   D2A50524   5.121  25.220   6.750
 7203POPC   C3A50525   5.077  25.268   7.050
 7203POPC   C4A50526   5.084  25.249   7.350
 7203POPC   C1B50527   4.953  25.462   6.450
 7203POPC   C2B50528   4.980  25.454   6.750
 7203POPC   C3B50529   4.904  25.491   7.050
 7203POPC   C4B50530   4.939  25.473   7.350
 7204POPC   NC350531  26.834  31.427   5.550
 7204POPC   PO450532  26.866  31.425   5.850
 7204POPC   GL150533  26.826  31.451   6.150
 7204POPC   GL250534  26.794  31.323   6.150
 7204POPC   C1A50535  26.788  31.474   6.450
 7204POPC   D2A50536  26.772  31.448   6.750
 7204POPC   C3A50537  26.821  31.433   7.050
 7204POPC   C4A50538  26.837  31.447   7.350
 7204POPC   C1B50539  26.723  31.265   6.450
 7204POPC   C2B50540  26.716  31.315   6.750
 7204POPC   C3B50541  26.671  31.236   7.050
 7204POPC   C4B50542  26.644  31.238   7.350
 7205POPC   NC350543  14.396  21.375   5.550
 7205POPC   PO450544  14.422  21.401   5.850
 7205POPC   GL150545  14.435  21.389   6.150
 7205POPC   GL250546  14.467  21.475   6.150
 7205POPC   C1A50547  14.432  21.406   6.450
 7205POPC   D2A50548  14.388  21.337   6.750
 7205POPC   C3A50549  14.359  21.418   7.050
 7205POPC   C4A50550  14.381  21.346   7.350
 7205POPC   C1B50551  14.569  21.575   6.450
 7205POPC   C2B50552  14.625  21.536   6.750
 7205POPC   C3B50553  14.630  21.531   7.050
 7205POPC   C4B50554  14.637  21.527   7.350
 7206POPC   NC350555  13.651  32.272   5.550
 7206POPC   PO450556  13.646  32.252   5.850
 7206POPC   GL150557  13.647  32.232   6.150
 7206POPC   GL250558  13.683  32.131   6.150
 7206POPC   C1A50559  13.624  32.230   6.450
 7206POPC   D2A50560  13.593  32.266   6.750
 7206POPC   C3A50561  13.604  32.289   7.050
 7206POPC   C4A50562  13.651  32.238   7.350
 7206POPC   C1B50563  13.823  32.047   6.450
 7206POPC   C2B50564  13.769  32.050   6.750
 7206POPC   C3B50565  13.782  32.047   7.050
 7206POPC   C4B50566  13.839  32.047   7.350
 7207POPC   NC350567  12.878  43.074   5.550
 7207POPC   PO450568  12.856  43.132   5.850
 7207POPC   GL150569  12.815  43.074   6.150
 7207POPC   GL250570  12.911  42.958   6.150
 7207POPC   C1A50571  12.872  43.074   6.450
 7207POPC   D2A50572  12.884  43.094   6.750
 7207POPC   C3A50573  12.820  43.082   7.050
 7207POPC   C4A50574  12.875  43.121   7.350
 7207POPC   C1B50575  12.924  42.869   6.450
 7207POPC   C2B50576  12.932  42.919   6.750
 7207POPC   C3B50577  12.921  42.892   7.050
 7207POPC   C4B50578  12.957  42.874   7.350
 7208POPC   NC350579  39.978   2.787   5.550
 7208POPC   PO450580  39.995   2.771   5.850
 7208POPC   GL150581  40.023   2.772   6.150
 7208POPC   GL250582  39.969   2.645   6.150
 7208POPC   C1A50583  40.032   2.733   6.450
 7208POPC   D2A50584  40.011   2.769   6.750
 7208POPC   C3A50585  39.979   2.749   7.050
 7208POPC   C4A50586  40.036   2.768   7.350
 7208POPC   C1B50587  39.931   2.528   6.450
 7208POPC   C2B50588  39.885   2.563   6.750
 7208POPC   C3B50589  39.926   2.488   7.050
 7208POPC   C4B50590  39.941   2.536   7.350
 7209POPC   NC350591  33.063   9.734   5.550
 7209POPC   PO450592  32.989   9.774   5.850
 7209POPC   GL150593  33.070   9.745   6.150
 7209POPC   GL250594  33.169   9.765   6.150
 7209POPC   C1A50595  33.004   9.701   6.450
 7209POPC   D2A50596  33.011   9.715   6.750
 7209POPC   C3A50597  33.003   9.776   7.050
 7209POPC   C4A50598  33.049   9.766   7.350
 7209POPC   C1B50599  33.233   9.716   6.450
 7209POPC   C2B50600  33.258   9.717   6.750
 7209POPC   C3B50601  33.267   9.731   7.050
 7209POPC   C4B50602  33.235   9.715   7.350
 7210POPC   NC350603   1.258   4.331   5.550
 7210POPC   PO450604   1.187   4.275   5.850
 7210POPC   GL150605   1.196   4.347   6.150
 7210POPC   GL250606   1.334   4.261   6.150
 7210POPC   C1A50607   1.178   4.358   6.450
 7210POPC   D2A50608   1.214   4.328   6.750
 7210POPC   C3A50609   1.200   4.343   7.050
 7210POPC   C4A50610   1.261   4.346   7.350
 7210POPC   C1B50611   1.325   4.163   6.450
 7210POPC   C2B50612   1.365   4.115   6.750
 7210POPC   C3B50613   1.410   4.112   7.050
 7210POPC   C4B50614   1.351   4.146   7.350
 7211POPC   NC350615  26.075  24.486   5.550
 7211POPC   PO450616  26.000  24.496   5.850
 7211POPC   GL150617  26.041  24.462   6.150
 7211POPC   GL250618  25.937  24.568   6.150
 7211POPC   C1A50619  25.996  24.450   6.450
 7211POPC   D2A50620  26.026  24.495   6.750
 7211POPC   C3A50621  26.066  24.446   7.050
 7211POPC   C4A50622  26.028  24.516   7.350
 7211POPC   C1B50623  25.788  24.606   6.450
 7211POPC   C2B50624  25.781  24.616   6.750
 7211POPC   C3B50625  25.843  24.583   7.050
 7211POPC   C4B50626  25.847  24.640   7.350
 7212POPC   NC350627   6.613  25.244   5.550
 7212POPC   PO450628   6.663  25.294   5.850
 7212POPC   GL150629   6.648  25.275   6.150
 7212POPC   GL250630   6.691  25.158   6.150
 7212POPC   C1A50631   6.612  25.264   6.450
 7212POPC   D2A50632   6.658  25.271   6.750
 7212POPC   C3A50633   6.599  25.252   7.050
 7212POPC   C4A50634   6.634  25.237   7.350
 7212POPC   C1B50635   6.778  25.042   6.450
 7212POPC   C2B50636   6.824  25.029   6.750
 7212POPC   C3B50637   6.793  25.059   7.050
 7212POPC   C4B50638   6.766  25.112   7.350
 7213POPC   NC350639  29.188  28.336   5.550
 7213POPC   PO450640  29.134  28.402   5.850
 7213POPC   GL150641  29.138  28.411   6.150
 7213POPC   GL250642  29.183  28.225   6.150
 7213POPC   C1A50643  29.180  28.383   6.450
 7213POPC   D2A50644  29.136  28.326   6.750
 7213POPC   C3A50645  29.194  28.375   7.050
 7213POPC   C4A50646  29.156  28.367   7.350
 7213POPC   C1B50647  29.252  28.149   6.450
 7213POPC   C2B50648  29.187  28.140   6.750
 7213POPC   C3B50649  29.251  28.139   7.050
 7213POPC   C4B50650  29.222  28.146   7.350
 7214POPC   NC350651  21.369  18.284   5.550
 7214POPC   PO450652  21.418  18.255   5.850
 7214POPC   GL150653  21.337  18.237   6.150
 7214POPC   GL250654  21.510  18.236   6.150
 7214POPC   C1A50655  21.408  18.292   6.450
 7214POPC   D2A50656  21.353  18.267   6.750
 7214POPC   C3A50657  21.372  18.300   7.050
 7214POPC   C4A50658  21.417  18.261   7.350
 7214POPC   C1B50659  21.579  18.121   6.450
 7214POPC   C2B50660  21.560  18.058   6.750
 7214POPC   C3B50661  21.506  18.140   7.050
 7214POPC   C4B50662  21.578  18.073   7.350
 7215POPC   NC350663  29.957  34.551   5.550
 7215POPC   PO450664  29.933  34.605   5.850
 7215POPC   GL150665  29.889  34.624   6.150
 7215POPC   GL250666  30.046  34.459   6.150
 7215POPC   C1A50667  29.894  34.622   6.450
 7215POPC   D2A50668  29.933  34.582   6.750
 7215POPC   C3A50669  29.940  34.578   7.050
 7215POPC   C4A50670  29.916  34.541   7.350
 7215POPC   C1B50671  30.125  34.399   6.450
 7215POPC   C2B50672  30.042  34.385   6.750
 7215POPC   C3B50673  30.124  34.423   7.050
 7215POPC   C4B50674  30.049  34.355   7.350
 7216POPC   NC350675   2.000  22.979   5.550
 7216POPC   PO450676   2.012  22.920   5.850
 7216POPC   GL150677   1.978  22.908   6.150
 7216POPC   GL250678   2.085  22.972   6.150
 7216POPC   C1A50679   1.981  22.925   6.450
 7216POPC   D2A50680   2.005  22.983   6.750
 7216POPC   C3A50681   1.979  22.932   7.050
 7216POPC   C4A50682   1.995  22.985   7.350
 7216POPC   C1B50683   2.231  22.974   6.450
 7216POPC   C2B50684   2.288  22.925   6.750
 7216POPC   C3B50685   2.235  22.925   7.050
 7216POPC   C4B50686   2.246  22.908   7.350
 7217POPC   NC350687   9.777  12.884   5.550
 7217POPC   PO450688   9.755  12.873   5.850
 7217POPC   GL150689   9.745  12.870   6.150
 7217POPC   GL250690   9.694  12.730   6.150
 7217POPC   C1A50691   9.705  12.817   6.450
 7217POPC   D2A50692   9.773  12.876   6.750
 7217POPC   C3A50693   9.753  12.803   7.050
 7217POPC   C4A50694   9.722  12.897   7.350
 7217POPC   C1B50695   9.621  12.608   6.450
 7217POPC   C2B50696   9.576  12.629   6.750
 7217POPC   C3B50697   9.629  12.609   7.050
 7217POPC   C4B50698   9.602  12.619   7.350
 7218POPC   NC350699  37.664  37.698   5.550
 7218POPC   PO450700  37.692  37.722   5.850
 7218POPC   GL150701  37.710  37.681   6.150
 7218POPC   GL250702  37.675  37.843   6.150
 7218POPC   C1A50703  37.720  37.704   6.450
 7218POPC   D2A50704  37.645  37.695   6.750
 7218POPC   C3A50705  37.644  37.710   7.050
 7218POPC   C4A50706  37.672  37.668   7.350
 7218POPC   C1B50707  37.632  37.946   6.450
 7218POPC   C2B50708  37.590  37.878   6.750
 7218POPC   C3B50709  37.601  37.883   7.050
 7218POPC   C4B50710  37.584  37.947   7.350
 7219POPC   NC350711  31.453  14.382   5.550
 7219POPC   PO450712  31.455  14.441   5.850
 7219POPC   GL150713  31.440  14.392   6.150
 7219POPC   GL250714  31.384  14.458   6.150
 7219POPC   C1A50715  31.444  14.421   6.450
 7219POPC   D2A50716  31.488  14.356   6.750
 7219POPC   C3A50717  31.439  14.434   7.050
 7219POPC   C4A50718  31.478  14.400   7.350
 7219POPC   C1B50719  31.291  14.564   6.450
 7219POPC   C2B50720  31.276  14.474   6.750
 7219POPC   C3B50721  31.294  14.512   7.050
 7219POPC   C4B50722  31.219  14.526   7.350
 7220POPC   NC350723  15.952  30.710   5.550
 7220POPC   PO450724  15.938  30.670   5.850
 7220POPC   GL150725  15.908  30.651   6.150
 7220POPC   GL250726  15.807  30.632   6.150
 7220POPC   C1A50727  15.913  30.699   6.450
 7220POPC   D2A50728  15.941  30.715   6.750
 7220POPC   C3A50729  15.985  30.743   7.050
 7220POPC   C4A50730  15.985  30.650   7.350
 7220POPC   C1B50731  15.687  30.701   6.450
 7220POPC   C2B50732  15.701  30.649   6.750
 7220POPC   C3B50733  15.708  30.623   7.050
 7220POPC   C4B50734  15.683  30.620   7.350
 7221POPC   NC350735  39.262  29.118   5.550
 7221POPC   PO450736  39.241  29.162   5.850
 7221POPC   GL150737  39.239  29.106   6.150
 7221POPC   GL250738  39.195  29.319   6.150
 7221POPC   C1A50739  39.270  29.158   6.450
 7221POPC   D2A50740  39.191  29.149   6.750
 7221POPC   C3A50741  39.200  29.127   7.050
 7221POPC   C4A50742  39.243  29.139   7.350
 7221POPC   C1B50743  39.235  29.366   6.450
 7221POPC   C2B50744  39.179  29.424   6.750
 7221POPC   C3B50745  39.216  29.441   7.050
 7221POPC   C4B50746  39.189  29.437   7.350
 7222POPC   NC350747   5.918  26.811   5.550
 7222POPC   PO450748   5.858  26.786   5.850
 7222POPC   GL150749   5.881  26.771   6.150
 7222POPC   GL250750   5.793  26.830   6.150
 7222POPC   C1A50751   5.865  26.790   6.450
 7222POPC   D2A50752   5.822  26.803   6.750
 7222POPC   C3A50753   5.888  26.846   7.050
 7222POPC   C4A50754   5.912  26.864   7.350
 7222POPC   C1B50755   5.622  26.920   6.450
 7222POPC   C2B50756   5.614  26.923   6.750
 7222POPC   C3B50757   5.585  26.838   7.050
 7222POPC   C4B50758   5.614  26.887   7.350
 7223POPC   NC350759  40.806  21.383   5.550
 7223POPC   PO450760  40.812  21.399   5.850
 7223POPC   GL150761  40.791  21.350   6.150
 7223POPC   GL250762  40.670  21.501   6.150
 7223POPC   C1A50763  40.763  21.397   6.450
 7223POPC   D2A50764  40.780  21.386   6.750
 7223POPC   C3A50765  40.761  21.365   7.050
 7223POPC   C4A50766  40.745  21.357   7.350
 7223POPC   C1B50767  40.624  21.545   6.450
 7223POPC   C2B50768  40.602  21.552   6.750
 7223POPC   C3B50769  40.601  21.566   7.050
 7223POPC   C4B50770  40.569  21.579   7.350
 7224POPC   NC350771  21.353  22.907   5.550
 7224POPC   PO450772  21.405  22.923   5.850
 7224POPC   GL150773  21.371  22.947   6.150
 7224POPC   GL250774  21.357  22.805   6.150
 7224POPC   C1A50775  21.380  22.986   6.450
 7224POPC   D2A50776  21.337  22.897   6.750
 7224POPC   C3A50777  21.395  22.907   7.050
 7224POPC   C4A50778  21.397  22.893   7.350
 7224POPC   C1B50779  21.364  22.681   6.450
 7224POPC   C2B50780  21.391  22.724   6.750
 7224POPC   C3B50781  21.388  22.650   7.050
 7224POPC   C4B50782  21.341  22.670   7.350
 7225POPC   NC350783   5.055  29.177   5.550
 7225POPC   PO450784   5.103  29.159   5.850
 7225POPC   GL150785   5.134  29.116   6.150
 7225POPC   GL250786   5.090  29.283   6.150
 7225POPC   C1A50787   5.109  29.150   6.450
 7225POPC   D2A50788   5.085  29.170   6.750
 7225POPC   C3A50789   5.100  29.115   7.050
 7225POPC   C4A50790   5.058  29.181   7.350
 7225POPC   C1B50791   4.957  29.397   6.450
 7225POPC   C2B50792   5.022  29.340   6.750
 7225POPC   C3B50793   4.989  29.345   7.050
 7225POPC   C4B50794   4.965  29.327   7.350
 7226POPC   NC350795  37.689  21.367   5.550
 7226POPC   PO450796  37.653  21.436   5.850
 7226POPC   GL150797  37.651  21.386   6.150
 7226POPC   GL250798  37.764  21.446   6.150
 7226POPC   C1A50799  37.692  21.337   6.450
 7226POPC   D2A50800  37.634  21.408   6.750
 7226POPC   C3A50801  37.719  21.372   7.050
 7226POPC   C4A50802  37.729  21.383   7.350
 7226POPC   C1B50803  37.918  21.458   6.450
 7226POPC   C2B50804  37.909  21.495   6.750
 7226POPC   C3B50805  37.950  21.491   7.050
 7226POPC   C4B50806  37.921  21.502   7.350
 7227POPC   NC350807   9.793  12.110   5.550
 7227POPC   PO450808   9.760  12.076   5.850
 7227POPC   GL150809   9.721  12.061   6.150
 7227POPC   GL250810   9.782  11.910   6.150
 7227POPC   C1A50811   9.734  12.110   6.450
 7227POPC   D2A50812   9.708  12.036   6.750
 7227POPC   C3A50813   9.769  12.073   7.050
 7227POPC   C4A50814   9.763  12.053   7.350
 7227POPC   C1B50815   9.846  11.815   6.450
 7227POPC   C2B50816   9.774  11.819   6.750
 7227POPC   C3B50817   9.806  11.875   7.050
 7227POPC   C4B50818   9.853  11.830   7.350
 7228POPC   NC350819  27.582  34.564   5.550
 7228POPC   PO450820  27.639  34.615   5.850
 7228POPC   GL150821  27.557  34.566   6.150
 7228POPC   GL250822  27.666  34.627   6.150
 7228POPC   C1A50823  27.573  34.586   6.450
 7228POPC   D2A50824  27.629  34.555   6.750
 7228POPC   C3A50825  27.613  34.567   7.050
 7228POPC   C4A50826  27.590  34.605   7.350
 7228POPC   C1B50827  27.760  34.711   6.450
 7228POPC   C2B50828  27.763  34.726   6.750
 7228POPC   C3B50829  27.783  34.723   7.050
 7228POPC   C4B50830  27.803  34.786   7.350
 7229POPC   NC350831   0.445  31.457   5.550
 7229POPC   PO450832   0.480  31.497   5.850
 7229POPC   GL150833   0.395  31.482   6.150
 7229POPC   GL250834   0.533  31.430   6.150
 7229POPC   C1A50835   0.468  31.444   6.450
 7229POPC   D2A50836   0.449  31.476   6.750
 7229POPC   C3A50837   0.428  31.443   7.050
 7229POPC   C4A50838   0.483  31.521   7.350
 7229POPC   C1B50839   0.655  31.513   6.450
 7229POPC   C2B50840   0.668  31.514   6.750
 7229POPC   C3B50841   0.659  31.457   7.050
 7229POPC   C4B50842   0.641  31.453   7.350
 7230POPC   NC350843  14.368  28.369   5.550
 7230POPC   PO450844  14.360  28.328   5.850
 7230POPC   GL150845  14.384  28.384   6.150
 7230POPC   GL250846  14.467  28.415   6.150
 7230POPC   C1A50847  14.417  28.321   6.450
 7230POPC   D2A50848  14.369  28.328   6.750
 7230POPC   C3A50849  14.376  28.395   7.050
 7230POPC   C4A50850  14.382  28.398   7.350
 7230POPC   C1B50851  14.622  28.448   6.450
 7230POPC   C2B50852  14.656  28.519   6.750
 7230POPC   C3B50853  14.621  28.448   7.050
 7230POPC   C4B50854  14.654  28.525   7.350
 7231POPC   NC350855  40.023  39.182   5.550
 7231POPC   PO450856  39.981  39.271   5.850
 7231POPC   GL150857  40.024  39.233   6.150
 7231POPC   GL250858  40.141  39.184   6.150
 7231POPC   C1A50859  39.992  39.267   6.450
 7231POPC   D2A50860  40.006  39.231   6.750
 7231POPC   C3A50861  40.037  39.211   7.050
 7231POPC   C4A50862  40.032  39.199   7.350
 7231POPC   C1B50863  40.188  39.111   6.450
 7231POPC   C2B50864  40.209  39.103   6.750
 7231POPC   C3B50865  40.162  39.072   7.050
 7231POPC   C4B50866  40.235  39.062   7.350
 7232POPC   NC350867   2.774   5.833   5.550
 7232POPC   PO450868   2.805   5.899   5.850
 7232POPC   GL150869   2.783   5.846   6.150
 7232POPC   GL250870   2.859   5.831   6.150
 7232POPC   C1A50871   2.786   5.832   6.450
 7232POPC   D2A50872   2.718   5.883   6.750
 7232POPC   C3A50873   2.747   5.821   7.050
 7232POPC   C4A50874   2.737   5.872   7.350
 7232POPC   C1B50875   3.010   5.830   6.450
 7232POPC   C2B50876   3.043   5.911   6.750
 7232POPC   C3B50877   3.044   5.827   7.050
 7232POPC   C4B50878   3.058   5.875   7.350
 7233POPC   NC350879  30.729  32.232   5.550
 7233POPC   PO450880  30.715  32.286   5.850
 7233POPC   GL150881  30.663  32.253   6.150
 7233POPC   GL250882  30.735  32.126   6.150
 7233POPC   C1A50883  30.671  32.262   6.450
 7233POPC   D2A50884  30.745  32.209   6.750
 7233POPC   C3A50885  30.736  32.298   7.050
 7233POPC   C4A50886  30.657  32.200   7.350
 7233POPC   C1B50887  30.757  31.962   6.450
 7233POPC   C2B50888  30.709  31.953   6.750
 7233POPC   C3B50889  30.759  32.016   7.050
 7233POPC   C4B50890  30.755  32.041   7.350
 7234POPC   NC350891  14.438  17.551   5.550
 7234POPC   PO450892  14.418  17.544   5.850
 7234POPC   GL150893  14.431  17.523   6.150
 7234POPC   GL250894  14.457  17.417   6.150
 7234POPC   C1A50895  14.422  17.466   6.450
 7234POPC   D2A50896  14.379  17.539   6.750
 7234POPC   C3A50897  14.400  17.541   7.050
 7234POPC   C4A50898  14.392  17.556   7.350
 7234POPC   C1B50899  14.507  17.348   6.450
 7234POPC   C2B50900  14.519  17.270   6.750
 7234POPC   C3B50901  14.520  17.297   7.050
 7234POPC   C4B50902  14.532  17.304   7.350
 7235POPC   NC350903  19.093  38.490   5.550
 7235POPC   PO450904  19.075  38.505   5.850
 7235POPC   GL150905  19.079  38.468   6.150
 7235POPC   GL250906  18.963  38.461   6.150
 7235POPC   C1A50907  19.089  38.421   6.450
 7235POPC   D2A50908  19.045  38.409   6.750
 7235POPC   C3A50909  19.102  38.407   7.050
 7235POPC   C4A50910  19.086  38.462   7.350
 7235POPC   C1B50911  18.860  38.525   6.450
 7235POPC   C2B50912  18.833  38.556   6.750
 7235POPC   C3B50913  18.847  38.508   7.050
 7235POPC   C4B50914  18.820  38.575   7.350
 7236POPC   NC350915   2.750   8.236   5.550
 7236POPC   PO450916   2.758   8.201   5.850
 7236POPC   GL150917   2.800   8.163   6.150
 7236POPC   GL250918   2.762   8.074   6.150
 7236POPC   C1A50919   2.805   8.181   6.450
 7236POPC   D2A50920   2.756   8.166   6.750
 7236POPC   C3A50921   2.783   8.176   7.050
 7236POPC   C4A50922   2.794   8.225   7.350
 7236POPC   C1B50923   2.653   7.991   6.450
 7236POPC   C2B50924   2.748   7.974   6.750
 7236POPC   C3B50925   2.668   7.958   7.050
 7236POPC   C4B50926   2.695   7.992   7.350
 7237POPC   NC350927   2.028  29.150   5.550
 7237POPC   PO450928   2.032  29.105   5.850
 7237POPC   GL150929   1.998  29.195   6.150
 7237POPC   GL250930   2.000  29.233   6.150
 7237POPC   C1A50931   2.016  29.110   6.450
 7237POPC   D2A50932   2.015  29.125   6.750
 7237POPC   C3A50933   2.022  29.096   7.050
 7237POPC   C4A50934   1.957  29.176   7.350
 7237POPC   C1B50935   2.108  29.328   6.450
 7237POPC   C2B50936   2.129  29.355   6.750
 7237POPC   C3B50937   2.114  29.350   7.050
 7237POPC   C4B50938   2.100  29.398   7.350
 7238POPC   NC350939  11.293   5.856   5.550
 7238POPC   PO450940  11.267   5.916   5.850
 7238POPC   GL150941  11.277   5.884   6.150
 7238POPC   GL250942  11.270   5.728   6.150
 7238POPC   C1A50943  11.302   5.896   6.450
 7238POPC   D2A50944  11.285   5.887   6.750
 7238POPC   C3A50945  11.301   5.847   7.050
 7238POPC   C4A50946  11.282   5.849   7.350
 7238POPC   C1B50947  11.229   5.623   6.450
 7238POPC   C2B50948  11.233   5.633   6.750
 7238POPC   C3B50949  11.206   5.666   7.050
 7238POPC   C4B50950  11.196   5.655   7.350
 7239POPC   NC350951  30.670   9.740   5.550
 7239POPC   PO450952  30.692   9.712   5.850
 7239POPC   GL150953  30.656   9.756   6.150
 7239POPC   GL250954  30.578   9.881   6.150
 7239POPC   C1A50955  30.743   9.750   6.450
 7239POPC   D2A50956  30.660   9.797   6.750
 7239POPC   C3A50957  30.659   9.772   7.050
 7239POPC   C4A50958  30.729   9.732   7.350
 7239POPC   C1B50959  30.534   9.929   6.450
 7239POPC   C2B50960  30.538   9.913   6.750
 7239POPC   C3B50961  30.587   9.907   7.050
 7239POPC   C4B50962  30.556   9.985   7.350
 7240POPC   NC350963   8.185  15.975   5.550
 7240POPC   PO450964   8.235  15.932   5.850
 7240POPC   GL150965   8.157  15.950   6.150
 7240POPC   GL250966   8.212  16.046   6.150
 7240POPC   C1A50967   8.242  15.976   6.450
 7240POPC   D2A50968   8.225  15.959   6.750
 7240POPC   C3A50969   8.163  15.996   7.050
 7240POPC   C4A50970   8.150  15.946   7.350
 7240POPC   C1B50971   8.310  16.178   6.450
 7240POPC   C2B50972   8.313  16.133   6.750
 7240POPC   C3B50973   8.288  16.155   7.050
 7240POPC   C4B50974   8.295  16.135   7.350
 7241POPC   NC350975  29.173  18.261   5.550
 7241POPC   PO450976  29.099  18.256   5.850
 7241POPC   GL150977  29.169  18.236   6.150
 7241POPC   GL250978  29.255  18.352   6.150
 7241POPC   C1A50979  29.159  18.245   6.450
 7241POPC   D2A50980  29.120  18.235   6.750
 7241POPC   C3A50981  29.103  18.241   7.050
 7241POPC   C4A50982  29.182  18.271   7.350
 7241POPC   C1B50983  29.415  18.331   6.450
 7241POPC   C2B50984  29.373  18.355   6.750
 7241POPC   C3B50985  29.422  18.324   7.050
 7241POPC   C4B50986  29.433  18.320   7.350
 7242POPC   NC350987  40.766  35.377   5.550
 7242POPC   PO450988  40.763  35.319   5.850
 7242POPC   GL150989  40.750  35.388   6.150
 7242POPC   GL250990  40.895  35.318   6.150
 7242POPC   C1A50991  40.802  35.390   6.450
 7242POPC   D2A50992  40.830  35.344   6.750
 7242POPC   C3A50993  40.755  35.344   7.050
 7242POPC   C4A50994  40.810  35.319   7.350
 7242POPC   C1B50995  41.051  35.238   6.450
 7242POPC   C2B50996  41.015  35.264   6.750
 7242POPC   C3B50997  41.057  35.288   7.050
 7242POPC   C4B50998  40.997  35.213   7.350
 7243POPC   NC350999  21.432  35.351   5.550
 7243POPC   PO451000  21.379  35.380   5.850
 7243POPC   GL151001  21.398  35.388   6.150
 7243POPC   GL251002  21.415  35.271   6.150
 7243POPC   C1A51003  21.399  35.364   6.450
 7243POPC   D2A51004  21.349  35.318   6.750
 7243POPC   C3A51005  21.406  35.389   7.050
 7243POPC   C4A51006  21.431  35.374   7.350
 7243POPC   C1B51007  21.515  35.088   6.450
 7243POPC   C2B51008  21.516  35.083   6.750
 7243POPC   C3B51009  21.508  35.149   7.050
 7243POPC   C4B51010  21.519  35.158   7.350
 7244POPC   NC351011  19.833   1.232   5.550
 7244POPC   PO451012  19.833   1.211   5.850
 7244POPC   GL151013  19.882   1.219   6.150
 7244POPC   GL251014  19.813   1.111   6.150
 7244POPC   C1A51015  19.828   1.214   6.450
 7244POPC   D2A51016  19.794   1.170   6.750
 7244POPC   C3A51017  19.867   1.216   7.050
 7244POPC   C4A51018  19.790   1.235   7.350
 7244POPC   C1B51019  19.700   1.012   6.450
 7244POPC   C2B51020  19.766   0.971   6.750
 7244POPC   C3B51021  19.684   0.965   7.050
 7244POPC   C4B51022  19.754   1.024   7.350
 7245POPC   NC351023   8.162   7.378   5.550
 7245POPC   PO451024   8.152   7.462   5.850
 7245POPC   GL151025   8.224   7.455   6.150
 7245POPC   GL251026   8.274   7.570   6.150
 7245POPC   C1A51027   8.190   7.436   6.450
 7245POPC   D2A51028   8.226   7.376   6.750
 7245POPC   C3A51029   8.215   7.435   7.050
 7245POPC   C4A51030   8.157   7.441   7.350
 7245POPC   C1B51031   8.264   7.681   6.450
 7245POPC   C2B51032   8.304   7.631   6.750
 7245POPC   C3B51033   8.297   7.624   7.050
 7245POPC   C4B51034   8.250   7.684   7.350
 7246POPC   NC351035  43.870  22.182   5.550
 7246POPC   PO451036  43.864  22.158   5.850
 7246POPC   GL151037  43.901  22.153   6.150
 7246POPC   GL251038  43.813  22.231   6.150
 7246POPC   C1A51039  43.915  22.122   6.450
 7246POPC   D2A51040  43.907  22.202   6.750
 7246POPC   C3A51041  43.894  22.160   7.050
 7246POPC   C4A51042  43.895  22.143   7.350
 7246POPC   C1B51043  43.613  22.278   6.450
 7246POPC   C2B51044  43.699  22.262   6.750
 7246POPC   C3B51045  43.703  22.251   7.050
 7246POPC   C4B51046  43.631  22.261   7.350
 7247POPC   NC351047  17.535  40.786   5.550
 7247POPC   PO451048  17.500  40.833   5.850
 7247POPC   GL151049  17.524  40.763   6.150
 7247POPC   GL251050  17.506  40.922   6.150
 7247POPC   C1A51051  17.499  40.750   6.450
 7247POPC   D2A51052  17.538  40.739   6.750
 7247POPC   C3A51053  17.551  40.753   7.050
 7247POPC   C4A51054  17.540  40.742   7.350
 7247POPC   C1B51055  17.501  41.030   6.450
 7247POPC   C2B51056  17.523  41.004   6.750
 7247POPC   C3B51057  17.432  41.002   7.050
 7247POPC   C4B51058  17.517  41.073   7.350
 7248POPC   NC351059  21.418  37.655   5.550
 7248POPC   PO451060  21.427  37.640   5.850
 7248POPC   GL151061  21.402  37.660   6.150
 7248POPC   GL251062  21.466  37.619   6.150
 7248POPC   C1A51063  21.362  37.717   6.450
 7248POPC   D2A51064  21.350  37.699   6.750
 7248POPC   C3A51065  21.377  37.706   7.050
 7248POPC   C4A51066  21.431  37.682   7.350
 7248POPC   C1B51067  21.513  37.497   6.450
 7248POPC   C2B51068  21.579  37.495   6.750
 7248POPC   C3B51069  21.573  37.532   7.050
 7248POPC   C4B51070  21.511  37.525   7.350
 7249POPC   NC351071  26.781   6.603   5.550
 7249POPC   PO451072  26.830   6.620   5.850
 7249POPC   GL151073  26.847   6.648   6.150
 7249POPC   GL251074  26.886   6.538   6.150
 7249POPC   C1A51075  26.773   6.596   6.450
 7249POPC   D2A51076  26.861   6.649   6.750
 7249POPC   C3A51077  26.822   6.646   7.050
 7249POPC   C4A51078  26.769   6.631   7.350
 7249POPC   C1B51079  27.052   6.524   6.450
 7249POPC   C2B51080  26.992   6.551   6.750
 7249POPC   C3B51081  27.018   6.467   7.050
 7249POPC   C4B51082  27.036   6.518   7.350
 7250POPC   NC351083  29.180  19.816   5.550
 7250POPC   PO451084  29.157  19.826   5.850
 7250POPC   GL151085  29.113  19.877   6.150
 7250POPC   GL251086  28.980  19.829   6.150
 7250POPC   C1A51087  29.172  19.834   6.450
 7250POPC   D2A51088  29.159  19.805   6.750
 7250POPC   C3A51089  29.132  19.881   7.050
 7250POPC   C4A51090  29.101  19.842   7.350
 7250POPC   C1B51091  28.904  19.825   6.450
 7250POPC   C2B51092  28.849  19.886   6.750
 7250POPC   C3B51093  28.933  19.901   7.050
 7250POPC   C4B51094  28.891  19.905   7.350
 7251POPC   NC351095  27.597  16.694   5.550
 7251POPC   PO451096  27.639  16.775   5.850
 7251POPC   GL151097  27.608  16.775   6.150
 7251POPC   GL251098  27.607  16.645   6.150
 7251POPC   C1A51099  27.617  16.747   6.450
 7251POPC   D2A51100  27.583  16.727   6.750
 7251POPC   C3A51101  27.639  16.700   7.050
 7251POPC   C4A51102  27.566  16.749   7.350
 7251POPC   C1B51103  27.694  16.446   6.450
 7251POPC   C2B51104  27.637  16.478   6.750
 7251POPC   C3B51105  27.630  16.453   7.050
 7251POPC   C4B51106  27.704  16.533   7.350
 7252POPC   NC351107  43.877  29.892   5.550
 7252POPC   PO451108  43.925  29.961   5.850
 7252POPC   GL151109  43.914  29.953   6.150
 7252POPC   GL251110  43.758  29.867   6.150
 7252POPC   C1A51111  43.843  29.876   6.450
 7252POPC   D2A51112  43.895  29.889   6.750
 7252POPC   C3A51113  43.853  29.932   7.050
 7252POPC   C4A51114  43.936  29.904   7.350
 7252POPC   C1B51115  43.720  29.817   6.450
 7252POPC   C2B51116  43.726  29.815   6.750
 7252POPC   C3B51117  43.647  29.769   7.050
 7252POPC   C4B51118  43.640  29.760   7.350
 7253POPC   NC351119  26.802  36.098   5.550
 7253POPC   PO451120  26.825  36.083   5.850
 7253POPC   GL151121  26.798  36.121   6.150
 7253POPC   GL251122  26.758  36.233   6.150
 7253POPC   C1A51123  26.830  36.170   6.450
 7253POPC   D2A51124  26.856  36.120   6.750
 7253POPC   C3A51125  26.790  36.155   7.050
 7253POPC   C4A51126  26.783  36.143   7.350
 7253POPC   C1B51127  26.769  36.401   6.450
 7253POPC   C2B51128  26.712  36.339   6.750
 7253POPC   C3B51129  26.708  36.402   7.050
 7253POPC   C4B51130  26.780  36.383   7.350
 7254POPC   NC351131  22.971  38.415   5.550
 7254POPC   PO451132  22.917  38.465   5.850
 7254POPC   GL151133  22.907  38.414   6.150
 7254POPC   GL251134  22.804  38.547   6.150
 7254POPC   C1A51135  22.970  38.475   6.450
 7254POPC   D2A51136  22.918  38.465   6.750
 7254POPC   C3A51137  22.917  38.495   7.050
 7254POPC   C4A51138  22.946  38.436   7.350
 7254POPC   C1B51139  22.694  38.592   6.450
 7254POPC   C2B51140  22.690  38.591   6.750
 7254POPC   C3B51141  22.776  38.607   7.050
 7254POPC   C4B51142  22.717  38.620   7.350
 7255POPC   NC351143  35.388   1.210   5.550
 7255POPC   PO451144  35.382   1.184   5.850
 7255POPC   GL151145  35.305   1.181   6.150
 7255POPC   GL251146  35.275   1.187   6.150
 7255POPC   C1A51147  35.315   1.254   6.450
 7255POPC   D2A51148  35.391   1.169   6.750
 7255POPC   C3A51149  35.350   1.174   7.050
 7255POPC   C4A51150  35.361   1.200   7.350
 7255POPC   C1B51151  35.123   1.124   6.450
 7255POPC   C2B51152  35.099   1.141   6.750
 7255POPC   C3B51153  35.119   1.124   7.050
 7255POPC   C4B51154  35.159   1.164   7.350
 7256POPC   NC351155   4.301  27.640   5.550
 7256POPC   PO451156   4.334  27.590   5.850
 7256POPC   GL151157   4.357  27.638   6.150
 7256POPC   GL251158   4.258  27.743   6.150
 7256POPC   C1A51159   4.359  27.601   6.450
 7256POPC   D2A51160   4.276  27.566   6.750
 7256POPC   C3A51161   4.340  27.635   7.050
 7256POPC   C4A51162   4.367  27.608   7.350
 7256POPC   C1B51163   4.256  27.837   6.450
 7256POPC   C2B51164   4.186  27.803   6.750
 7256POPC   C3B51165   4.254  27.805   7.050
 7256POPC   C4B51166   4.180  27.794   7.350
 7257POPC   NC351167  35.371  20.585   5.550
 7257POPC   PO451168  35.323  20.586   5.850
 7257POPC   GL151169  35.401  20.657   6.150
 7257POPC   GL251170  35.456  20.655   6.150
 7257POPC   C1A51171  35.346  20.589   6.450
 7257POPC   D2A51172  35.393  20.574   6.750
 7257POPC   C3A51173  35.355  20.658   7.050
 7257POPC   C4A51174  35.364  20.656   7.350
 7257POPC   C1B51175  35.547  20.698   6.450
 7257POPC   C2B51176  35.556  20.729   6.750
 7257POPC   C3B51177  35.545  20.770   7.050
 7257POPC   C4B51178  35.573  20.700   7.350
 7258POPC   NC351179  22.205  17.517   5.550
 7258POPC   PO451180  22.177  17.460   5.850
 7258POPC   GL151181  22.136  17.476   6.150
 7258POPC   GL251182  22.271  17.504   6.150
 7258POPC   C1A51183  22.174  17.517   6.450
 7258POPC   D2A51184  22.188  17.504   6.750
 7258POPC   C3A51185  22.135  17.479   7.050
 7258POPC   C4A51186  22.126  17.506   7.350
 7258POPC   C1B51187  22.412  17.567   6.450
 7258POPC   C2B51188  22.405  17.579   6.750
 7258POPC   C3B51189  22.406  17.542   7.050
 7258POPC   C4B51190  22.407  17.526   7.350
 7259POPC   NC351191  36.085  41.590   5.550
 7259POPC   PO451192  36.095  41.545   5.850
 7259POPC   GL151193  36.102  41.600   6.150
 7259POPC   GL251194  36.030  41.579   6.150
 7259POPC   C1A51195  36.119  41.543   6.450
 7259POPC   D2A51196  36.133  41.580   6.750
 7259POPC   C3A51197  36.128  41.599   7.050
 7259POPC   C4A51198  36.153  41.513   7.350
 7259POPC   C1B51199  35.926  41.546   6.450
 7259POPC   C2B51200  35.884  41.552   6.750
 7259POPC   C3B51201  35.848  41.545   7.050
 7259POPC   C4B51202  35.840  41.605   7.350
 7260POPC   NC351203  11.332  18.264   5.550
 7260POPC   PO451204  11.253  18.319   5.850
 7260POPC   GL151205  11.324  18.274   6.150
 7260POPC   GL251206  11.328  18.121   6.150
 7260POPC   C1A51207  11.328  18.301   6.450
 7260POPC   D2A51208  11.304  18.304   6.750
 7260POPC   C3A51209  11.259  18.253   7.050
 7260POPC   C4A51210  11.340  18.312   7.350
 7260POPC   C1B51211  11.330  18.072   6.450
 7260POPC   C2B51212  11.270  17.989   6.750
 7260POPC   C3B51213  11.268  18.032   7.050
 7260POPC   C4B51214  11.352  18.058   7.350
 7261POPC   NC351215  29.883  40.761   5.550
 7261POPC   PO451216  29.955  40.786   5.850
 7261POPC   GL151217  29.946  40.755   6.150
 7261POPC   GL251218  29.811  40.686   6.150
 7261POPC   C1A51219  29.962  40.765   6.450
 7261POPC   D2A51220  29.953  40.756   6.750
 7261POPC   C3A51221  29.912  40.766   7.050
 7261POPC   C4A51222  29.950  40.798   7.350
 7261POPC   C1B51223  29.781  40.582   6.450
 7261POPC   C2B51224  29.745  40.575   6.750
 7261POPC   C3B51225  29.749  40.569   7.050
 7261POPC   C4B51226  29.758  40.549   7.350
 7262POPC   NC351227  19.020   9.721   5.550
 7262POPC   PO451228  19.108   9.739   5.850
 7262POPC   GL151229  19.103   9.782   6.150
 7262POPC   GL251230  19.203   9.775   6.150
 7262POPC   C1A51231  19.017   9.752   6.450
 7262POPC   D2A51232  19.021   9.733   6.750
 7262POPC   C3A51233  19.079   9.771   7.050
 7262POPC   C4A51234  19.063   9.725   7.350
 7262POPC   C1B51235  19.302   9.812   6.450
 7262POPC   C2B51236  19.319   9.892   6.750
 7262POPC   C3B51237  19.245   9.871   7.050
 7262POPC   C4B51238  19.336   9.865   7.350
 7263POPC   NC351239  10.523  43.927   5.550
 7263POPC   PO451240  10.497  43.862   5.850
 7263POPC   GL151241  10.501  43.906   6.150
 7263POPC   GL251242  10.447  43.845   6.150
 7263POPC   C1A51243  10.557  43.876   6.450
 7263POPC   D2A51244  10.534  43.892   6.750
 7263POPC   C3A51245  10.482  43.900   7.050
 7263POPC   C4A51246  10.507  43.842   7.350
 7263POPC   C1B51247  10.241  43.891   6.450
 7263POPC   C2B51248  10.311  43.874   6.750
 7263POPC   C3B51249  10.303  43.859   7.050
 7263POPC   C4B51250  10.311  43.861   7.350
 7264POPC   NC351251  35.373  36.909   5.550
 7264POPC   PO451252  35.381  36.936   5.850
 7264POPC   GL151253  35.311  36.949   6.150
 7264POPC   GL251254  35.427  36.758   6.150
 7264POPC   C1A51255  35.303  36.937   6.450
 7264POPC   D2A51256  35.334  36.862   6.750
 7264POPC   C3A51257  35.324  36.890   7.050
 7264POPC   C4A51258  35.311  36.875   7.350
 7264POPC   C1B51259  35.518  36.656   6.450
 7264POPC   C2B51260  35.426  36.716   6.750
 7264POPC   C3B51261  35.470  36.724   7.050
 7264POPC   C4B51262  35.493  36.697   7.350
 7265POPC   NC351263  30.733  38.414   5.550
 7265POPC   PO451264  30.653  38.443   5.850
 7265POPC   GL151265  30.652  38.446   6.150
 7265POPC   GL251266  30.713  38.564   6.150
 7265POPC   C1A51267  30.695  38.471   6.450
 7265POPC   D2A51268  30.674  38.492   6.750
 7265POPC   C3A51269  30.687  38.462   7.050
 7265POPC   C4A51270  30.715  38.499   7.350
 7265POPC   C1B51271  30.748  38.730   6.450
 7265POPC   C2B51272  30.785  38.710   6.750
 7265POPC   C3B51273  30.738  38.709   7.050
 7265POPC   C4B51274  30.725  38.721   7.350
 7266POPC   NC351275  17.510  11.291   5.550
 7266POPC   PO451276  17.468  11.282   5.850
 7266POPC   GL151277  17.547  11.325   6.150
 7266POPC   GL251278  17.408  11.371   6.150
 7266POPC   C1A51279  17.499  11.349   6.450
 7266POPC   D2A51280  17.494  11.315   6.750
 7266POPC   C3A51281  17.464  11.348   7.050
 7266POPC   C4A51282  17.493  11.292   7.350
 7266POPC   C1B51283  17.241  11.358   6.450
 7266POPC   C2B51284  17.272  11.370   6.750
 7266POPC   C3B51285  17.243  11.336   7.050
 7266POPC   C4B51286  17.248  11.326   7.350
 7267POPC   NC351287   0.453  17.548   5.550
 7267POPC   PO451288   0.471  17.546   5.850
 7267POPC   GL151289   0.445  17.501   6.150
 7267POPC   GL251290   0.333  17.601   6.150
 7267POPC   C1A51291   0.468  17.512   6.450
 7267POPC   D2A51292   0.399  17.534   6.750
 7267POPC   C3A51293   0.485  17.515   7.050
 7267POPC   C4A51294   0.460  17.490   7.350
 7267POPC   C1B51295   0.329  17.746   6.450
 7267POPC   C2B51296   0.279  17.672   6.750
 7267POPC   C3B51297   0.263  17.661   7.050
 7267POPC   C4B51298   0.277  17.739   7.350
 7268POPC   NC351299   5.846  29.126   5.550
 7268POPC   PO451300   5.843  29.129   5.850
 7268POPC   GL151301   5.854  29.131   6.150
 7268POPC   GL251302   5.914  29.056   6.150
 7268POPC   C1A51303   5.851  29.141   6.450
 7268POPC   D2A51304   5.863  29.152   6.750
 7268POPC   C3A51305   5.918  29.167   7.050
 7268POPC   C4A51306   5.890  29.110   7.350
 7268POPC   C1B51307   5.911  28.903   6.450
 7268POPC   C2B51308   5.924  28.891   6.750
 7268POPC   C3B51309   5.903  28.945   7.050
 7268POPC   C4B51310   5.875  28.895   7.350
 7269POPC   NC351311  44.695  16.750   5.550
 7269POPC   PO451312  44.694  16.715   5.850
 7269POPC   GL151313  44.704  16.772   6.150
 7269POPC   GL251314  44.535  16.679   6.150
 7269POPC   C1A51315  44.634  16.736   6.450
 7269POPC   D2A51316  44.650  16.750   6.750
 7269POPC   C3A51317  44.640  16.761   7.050
 7269POPC   C4A51318  44.675  16.717   7.350
 7269POPC   C1B51319  44.492  16.513   6.450
 7269POPC   C2B51320  44.529  16.598   6.750
 7269POPC   C3B51321  44.459  16.602   7.050
 7269POPC   C4B51322  44.460  16.596   7.350
 7270POPC   NC351323  37.695  26.776   5.550
 7270POPC   PO451324  37.701  26.822   5.850
 7270POPC   GL151325  37.725  26.790   6.150
 7270POPC   GL251326  37.826  26.790   6.150
 7270POPC   C1A51327  37.705  26.861   6.450
 7270POPC   D2A51328  37.664  26.803   6.750
 7270POPC   C3A51329  37.724  26.856   7.050
 7270POPC   C4A51330  37.678  26.772   7.350
 7270POPC   C1B51331  37.855  26.700   6.450
 7270POPC   C2B51332  37.878  26.657   6.750
 7270POPC   C3B51333  37.841  26.691   7.050
 7270POPC   C4B51334  37.861  26.718   7.350
 7271POPC   NC351335  13.641  36.953   5.550
 7271POPC   PO451336  13.634  36.950   5.850
 7271POPC   GL151337  13.632  36.933   6.150
 7271POPC   GL251338  13.653  37.014   6.150
 7271POPC   C1A51339  13.593  36.861   6.450
 7271POPC   D2A51340  13.624  36.883   6.750
 7271POPC   C3A51341  13.586  36.929   7.050
 7271POPC   C4A51342  13.638  36.946   7.350
 7271POPC   C1B51343  13.625  37.177   6.450
 7271POPC   C2B51344  13.656  37.127   6.750
 7271POPC   C3B51345  13.581  37.148   7.050
 7271POPC   C4B51346  13.618  37.143   7.350
 7272POPC   NC351347  16.696  17.532   5.550
 7272POPC   PO451348  16.720  17.515   5.850
 7272POPC   GL151349  16.752  17.462   6.150
 7272POPC   GL251350  16.616  17.488   6.150
 7272POPC   C1A51351  16.743  17.539   6.450
 7272POPC   D2A51352  16.727  17.535   6.750
 7272POPC   C3A51353  16.754  17.549   7.050
 7272POPC   C4A51354  16.765  17.498   7.350
 7272POPC   C1B51355  16.523  17.438   6.450
 7272POPC   C2B51356  16.536  17.382   6.750
 7272POPC   C3B51357  16.473  17.371   7.050
 7272POPC   C4B51358  16.510  17.468   7.350
 7273POPC   NC351359   9.731  42.358   5.550
 7273POPC   PO451360   9.721  42.374   5.850
 7273POPC   GL151361   9.760  42.348   6.150
 7273POPC   GL251362   9.832  42.371   6.150
 7273POPC   C1A51363   9.778  42.342   6.450
 7273POPC   D2A51364   9.720  42.324   6.750
 7273POPC   C3A51365   9.719  42.285   7.050
 7273POPC   C4A51366   9.777  42.338   7.350
 7273POPC   C1B51367  10.021  42.357   6.450
 7273POPC   C2B51368   9.992  42.305   6.750
 7273POPC   C3B51369  10.017  42.290   7.050
 7273POPC   C4B51370   9.962  42.369   7.350
 7274POPC   NC351371  22.947  43.842   5.550
 7274POPC   PO451372  22.950  43.848   5.850
 7274POPC   GL151373  22.889  43.907   6.150
 7274POPC   GL251374  22.919  43.997   6.150
 7274POPC   C1A51375  22.946  43.887   6.450
 7274POPC   D2A51376  22.967  43.844   6.750
 7274POPC   C3A51377  22.946  43.873   7.050
 7274POPC   C4A51378  22.957  43.894   7.350
 7274POPC   C1B51379  22.853  44.151   6.450
 7274POPC   C2B51380  22.790  44.125   6.750
 7274POPC   C3B51381  22.857  44.136   7.050
 7274POPC   C4B51382  22.873  44.152   7.350
 7275POPC   NC351383  18.309  43.865   5.550
 7275POPC   PO451384  18.316  43.909   5.850
 7275POPC   GL151385  18.274  43.931   6.150
 7275POPC   GL251386  18.422  43.855   6.150
 7275POPC   C1A51387  18.322  43.888   6.450
 7275POPC   D2A51388  18.259  43.884   6.750
 7275POPC   C3A51389  18.329  43.929   7.050
 7275POPC   C4A51390  18.290  43.904   7.350
 7275POPC   C1B51391  18.509  43.776   6.450
 7275POPC   C2B51392  18.558  43.814   6.750
 7275POPC   C3B51393  18.486  43.793   7.050
 7275POPC   C4B51394  18.531  43.772   7.350
 7276POPC   NC351395  36.173  34.577   5.550
 7276POPC   PO451396  36.104  34.528   5.850
 7276POPC   GL151397  36.085  34.624   6.150
 7276POPC   GL251398  36.081  34.445   6.150
 7276POPC   C1A51399  36.148  34.588   6.450
 7276POPC   D2A51400  36.122  34.583   6.750
 7276POPC   C3A51401  36.130  34.583   7.050
 7276POPC   C4A51402  36.124  34.578   7.350
 7276POPC   C1B51403  36.043  34.341   6.450
 7276POPC   C2B51404  36.032  34.320   6.750
 7276POPC   C3B51405  36.053  34.355   7.050
 7276POPC   C4B51406  36.051  34.379   7.350
 7277POPC   NC351407  41.535  22.960   5.550
 7277POPC   PO451408  41.549  22.959   5.850
 7277POPC   GL151409  41.609  22.942   6.150
 7277POPC   GL251410  41.470  23.010   6.150
 7277POPC   C1A51411  41.518  22.916   6.450
 7277POPC   D2A51412  41.554  22.928   6.750
 7277POPC   C3A51413  41.557  22.965   7.050
 7277POPC   C4A51414  41.562  22.963   7.350
 7277POPC   C1B51415  41.372  23.032   6.450
 7277POPC   C2B51416  41.351  22.993   6.750
 7277POPC   C3B51417  41.319  22.988   7.050
 7277POPC   C4B51418  41.325  23.054   7.350
 7278POPC   NC351419  34.574  43.079   5.550
 7278POPC   PO451420  34.559  43.152   5.850
 7278POPC   GL151421  34.565  43.081   6.150
 7278POPC   GL251422  34.700  43.163   6.150
 7278POPC   C1A51423  34.594  43.147   6.450
 7278POPC   D2A51424  34.537  43.122   6.750
 7278POPC   C3A51425  34.587  43.141   7.050
 7278POPC   C4A51426  34.620  43.108   7.350
 7278POPC   C1B51427  34.735  43.211   6.450
 7278POPC   C2B51428  34.826  43.242   6.750
 7278POPC   C3B51429  34.793  43.250   7.050
 7278POPC   C4B51430  34.768  43.302   7.350
 7279POPC   NC351431  40.018  12.870   5.550
 7279POPC   PO451432  40.054  12.871   5.850
 7279POPC   GL151433  39.961  12.862   6.150
 7279POPC   GL251434  39.950  12.962   6.150
 7279POPC   C1A51435  40.029  12.880   6.450
 7279POPC   D2A51436  40.013  12.832   6.750
 7279POPC   C3A51437  39.996  12.894   7.050
 7279POPC   C4A51438  40.055  12.843   7.350
 7279POPC   C1B51439  39.981  13.114   6.450
 7279POPC   C2B51440  39.995  13.110   6.750
 7279POPC   C3B51441  39.945  13.092   7.050
 7279POPC   C4B51442  39.945  13.103   7.350
 7280POPC   NC351443  12.107  33.792   5.550
 7280POPC   PO451444  12.068  33.794   5.850
 7280POPC   GL151445  12.094  33.794   6.150
 7280POPC   GL251446  11.968  33.759   6.150
 7280POPC   C1A51447  12.068  33.838   6.450
 7280POPC   D2A51448  12.069  33.827   6.750
 7280POPC   C3A51449  12.110  33.793   7.050
 7280POPC   C4A51450  12.035  33.844   7.350
 7280POPC   C1B51451  11.848  33.678   6.450
 7280POPC   C2B51452  11.839  33.693   6.750
 7280POPC   C3B51453  11.857  33.760   7.050
 7280POPC   C4B51454  11.799  33.763   7.350
 7281POPC   NC351455  18.318   1.951   5.550
 7281POPC   PO451456  18.245   1.951   5.850
 7281POPC   GL151457  18.268   1.952   6.150
 7281POPC   GL251458  18.223   2.060   6.150
 7281POPC   C1A51459  18.250   1.990   6.450
 7281POPC   D2A51460  18.241   1.990   6.750
 7281POPC   C3A51461  18.237   2.027   7.050
 7281POPC   C4A51462  18.248   1.968   7.350
 7281POPC   C1B51463  18.115   2.188   6.450
 7281POPC   C2B51464  18.094   2.185   6.750
 7281POPC   C3B51465  18.142   2.181   7.050
 7281POPC   C4B51466  18.155   2.210   7.350
 7282POPC   NC351467  39.182  15.976   5.550
 7282POPC   PO451468  39.231  15.993   5.850
 7282POPC   GL151469  39.264  15.914   6.150
 7282POPC   GL251470  39.094  15.981   6.150
 7282POPC   C1A51471  39.211  15.926   6.450
 7282POPC   D2A51472  39.277  15.943   6.750
 7282POPC   C3A51473  39.263  15.955   7.050
 7282POPC   C4A51474  39.220  15.916   7.350
 7282POPC   C1B51475  38.951  15.962   6.450
 7282POPC   C2B51476  38.957  15.929   6.750
 7282POPC   C3B51477  38.937  15.895   7.050
 7282POPC   C4B51478  39.020  15.952   7.350
 7283POPC   NC351479  29.163   4.342   5.550
 7283POPC   PO451480  29.170   4.353   5.850
 7283POPC   GL151481  29.131   4.268   6.150
 7283POPC   GL251482  29.059   4.353   6.150
 7283POPC   C1A51483  29.158   4.307   6.450
 7283POPC   D2A51484  29.146   4.366   6.750
 7283POPC   C3A51485  29.161   4.292   7.050
 7283POPC   C4A51486  29.112   4.275   7.350
 7283POPC   C1B51487  28.935   4.464   6.450
 7283POPC   C2B51488  28.933   4.425   6.750
 7283POPC   C3B51489  28.948   4.446   7.050
 7283POPC   C4B51490  28.906   4.491   7.350
 7284POPC   NC351491  29.939  21.367   5.550
 7284POPC   PO451492  29.878  21.424   5.850
 7284POPC   GL151493  29.950  21.378   6.150
 7284POPC   GL251494  29.954  21.235   6.150
 7284POPC   C1A51495  29.927  21.340   6.450
 7284POPC   D2A51496  29.881  21.346   6.750
 7284POPC   C3A51497  29.896  21.408   7.050
 7284POPC   C4A51498  29.881  21.391   7.350
 7284POPC   C1B51499  30.012  21.134   6.450
 7284POPC   C2B51500  29.992  21.151   6.750
 7284POPC   C3B51501  30.008  21.183   7.050
 7284POPC   C4B51502  29.997  21.167   7.350
 7285POPC   NC351503  20.626   5.887   5.550
 7285POPC   PO451504  20.646   5.876   5.850
 7285POPC   GL151505  20.647   5.827   6.150
 7285POPC   GL251506  20.471   5.777   6.150
 7285POPC   C1A51507  20.605   5.835   6.450
 7285POPC   D2A51508  20.657   5.890   6.750
 7285POPC   C3A51509  20.631   5.862   7.050
 7285POPC   C4A51510  20.660   5.907   7.350
 7285POPC   C1B51511  20.395   5.732   6.450
 7285POPC   C2B51512  20.434   5.699   6.750
 7285POPC   C3B51513  20.463   5.696   7.050
 7285POPC   C4B51514  20.406   5.685   7.350
 7286POPC   NC351515  36.093  20.589   5.550
 7286POPC   PO451516  36.128  20.645   5.850
 7286POPC   GL151517  36.094  20.606   6.150
 7286POPC   GL251518  36.091  20.501   6.150
 7286POPC   C1A51519  36.120  20.618   6.450
 7286POPC   D2A51520  36.156  20.622   6.750
 7286POPC   C3A51521  36.155  20.592   7.050
 7286POPC   C4A51522  36.158  20.589   7.350
 7286POPC   C1B51523  36.112  20.368   6.450
 7286POPC   C2B51524  36.071  20.395   6.750
 7286POPC   C3B51525  36.035  20.348   7.050
 7286POPC   C4B51526  36.115  20.388   7.350
 7287POPC   NC351527  42.327   9.731   5.550
 7287POPC   PO451528  42.360   9.752   5.850
 7287POPC   GL151529  42.373   9.768   6.150
 7287POPC   GL251530  42.312   9.841   6.150
 7287POPC   C1A51531  42.326   9.738   6.450
 7287POPC   D2A51532  42.372   9.728   6.750
 7287POPC   C3A51533  42.382   9.772   7.050
 7287POPC   C4A51534  42.297   9.734   7.350
 7287POPC   C1B51535  42.206   9.992   6.450
 7287POPC   C2B51536  42.187   9.967   6.750
 7287POPC   C3B51537  42.247   9.961   7.050
 7287POPC   C4B51538  42.172   9.949   7.350
 7288POPC   NC351539  32.289  19.061   5.550
 7288POPC   PO451540  32.290  19.034   5.850
 7288POPC   GL151541  32.233  19.060   6.150
 7288POPC   GL251542  32.379  19.130   6.150
 7288POPC   C1A51543  32.217  19.018   6.450
 7288POPC   D2A51544  32.295  19.011   6.750
 7288POPC   C3A51545  32.289  19.012   7.050
 7288POPC   C4A51546  32.225  19.027   7.350
 7288POPC   C1B51547  32.516  19.118   6.450
 7288POPC   C2B51548  32.450  19.062   6.750
 7288POPC   C3B51549  32.503  19.109   7.050
 7288POPC   C4B51550  32.539  19.131   7.350
 7289POPC   NC351551  38.407  36.105   5.550
 7289POPC   PO451552  38.502  36.153   5.850
 7289POPC   GL151553  38.420  36.079   6.150
 7289POPC   GL251554  38.560  36.188   6.150
 7289POPC   C1A51555  38.409  36.116   6.450
 7289POPC   D2A51556  38.504  36.139   6.750
 7289POPC   C3A51557  38.465  36.089   7.050
 7289POPC   C4A51558  38.448  36.159   7.350
 7289POPC   C1B51559  38.612  36.334   6.450
 7289POPC   C2B51560  38.573  36.347   6.750
 7289POPC   C3B51561  38.581  36.364   7.050
 7289POPC   C4B51562  38.615  36.340   7.350
 7290POPC   NC351563  17.513   3.571   5.550
 7290POPC   PO451564  17.473   3.524   5.850
 7290POPC   GL151565  17.550   3.579   6.150
 7290POPC   GL251566  17.532   3.607   6.150
 7290POPC   C1A51567  17.515   3.495   6.450
 7290POPC   D2A51568  17.483   3.582   6.750
 7290POPC   C3A51569  17.487   3.518   7.050
 7290POPC   C4A51570  17.498   3.553   7.350
 7290POPC   C1B51571  17.608   3.763   6.450
 7290POPC   C2B51572  17.664   3.806   6.750
 7290POPC   C3B51573  17.673   3.780   7.050
 7290POPC   C4B51574  17.598   3.799   7.350
 7291POPC   NC351575   8.164  15.180   5.550
 7291POPC   PO451576   8.210  15.177   5.850
 7291POPC   GL151577   8.231  15.136   6.150
 7291POPC   GL251578   8.035  15.113   6.150
 7291POPC   C1A51579   8.230  15.148   6.450
 7291POPC   D2A51580   8.222  15.174   6.750
 7291POPC   C3A51581   8.242  15.190   7.050
 7291POPC   C4A51582   8.166  15.163   7.350
 7291POPC   C1B51583   7.979  15.119   6.450
 7291POPC   C2B51584   7.975  15.096   6.750
 7291POPC   C3B51585   7.936  15.177   7.050
 7291POPC   C4B51586   7.994  15.186   7.350
 7292POPC   NC351587  19.843   5.078   5.550
 7292POPC   PO451588  19.883   5.050   5.850
 7292POPC   GL151589  19.859   5.105   6.150
 7292POPC   GL251590  19.893   5.230   6.150
 7292POPC   C1A51591  19.787   5.079   6.450
 7292POPC   D2A51592  19.823   5.046   6.750
 7292POPC   C3A51593  19.806   5.137   7.050
 7292POPC   C4A51594  19.823   5.110   7.350
 7292POPC   C1B51595  19.949   5.372   6.450
 7292POPC   C2B51596  19.936   5.369   6.750
 7292POPC   C3B51597  19.964   5.284   7.050
 7292POPC   C4B51598  19.904   5.349   7.350
 7293POPC   NC351599  12.802  24.482   5.550
 7293POPC   PO451600  12.897  24.447   5.850
 7293POPC   GL151601  12.839  24.494   6.150
 7293POPC   GL251602  12.996  24.508   6.150
 7293POPC   C1A51603  12.831  24.533   6.450
 7293POPC   D2A51604  12.851  24.524   6.750
 7293POPC   C3A51605  12.887  24.508   7.050
 7293POPC   C4A51606  12.897  24.467   7.350
 7293POPC   C1B51607  13.066  24.468   6.450
 7293POPC   C2B51608  13.078  24.446   6.750
 7293POPC   C3B51609  13.062  24.480   7.050
 7293POPC   C4B51610  13.146  24.429   7.350
 7294POPC   NC351611   0.480  26.022   5.550
 7294POPC   PO451612   0.416  26.025   5.850
 7294POPC   GL151613   0.408  26.061   6.150
 7294POPC   GL251614   0.417  26.126   6.150
 7294POPC   C1A51615   0.487  26.030   6.450
 7294POPC   D2A51616   0.475  26.015   6.750
 7294POPC   C3A51617   0.448  26.044   7.050
 7294POPC   C4A51618   0.391  26.050   7.350
 7294POPC   C1B51619   0.299  26.226   6.450
 7294POPC   C2B51620   0.362  26.253   6.750
 7294POPC   C3B51621   0.378  26.246   7.050
 7294POPC   C4B51622   0.392  26.265   7.350
 7295POPC   NC351623  40.784   5.837   5.550
 7295POPC   PO451624  40.763   5.823   5.850
 7295POPC   GL151625  40.770   5.837   6.150
 7295POPC   GL251626  40.858   5.928   6.150
 7295POPC   C1A51627  40.778   5.825   6.450
 7295POPC   D2A51628  40.764   5.918   6.750
 7295POPC   C3A51629  40.767   5.895   7.050
 7295POPC   C4A51630  40.830   5.864   7.350
 7295POPC   C1B51631  40.968   5.923   6.450
 7295POPC   C2B51632  41.053   5.981   6.750
 7295POPC   C3B51633  40.972   5.945   7.050
 7295POPC   C4B51634  40.982   5.952   7.350
 7296POPC   NC351635  34.611  27.627   5.550
 7296POPC   PO451636  34.533  27.600   5.850
 7296POPC   GL151637  34.572  27.619   6.150
 7296POPC   GL251638  34.464  27.731   6.150
 7296POPC   C1A51639  34.579  27.621   6.450
 7296POPC   D2A51640  34.615  27.598   6.750
 7296POPC   C3A51641  34.596  27.566   7.050
 7296POPC   C4A51642  34.589  27.584   7.350
 7296POPC   C1B51643  34.404  27.811   6.450
 7296POPC   C2B51644  34.408  27.781   6.750
 7296POPC   C3B51645  34.406  27.839   7.050
 7296POPC   C4B51646  34.403  27.839   7.350
 7297POPC   NC351647  43.089  17.508   5.550
 7297POPC   PO451648  43.133  17.504   5.850
 7297POPC   GL151649  43.154  17.466   6.150
 7297POPC   GL251650  42.965  17.459   6.150
 7297POPC   C1A51651  43.110  17.512   6.450
 7297POPC   D2A51652  43.093  17.501   6.750
 7297POPC   C3A51653  43.088  17.482   7.050
 7297POPC   C4A51654  43.118  17.501   7.350
 7297POPC   C1B51655  42.929  17.370   6.450
 7297POPC   C2B51656  42.924  17.387   6.750
 7297POPC   C3B51657  42.865  17.347   7.050
 7297POPC   C4B51658  42.889  17.320   7.350
 7298POPC   NC351659  36.116  22.955   5.550
 7298POPC   PO451660  36.079  22.930   5.850
 7298POPC   GL151661  36.089  22.976   6.150
 7298POPC   GL251662  36.199  23.057   6.150
 7298POPC   C1A51663  36.162  22.938   6.450
 7298POPC   D2A51664  36.096  22.915   6.750
 7298POPC   C3A51665  36.119  22.903   7.050
 7298POPC   C4A51666  36.119  22.890   7.350
 7298POPC   C1B51667  36.319  23.163   6.450
 7298POPC   C2B51668  36.256  23.117   6.750
 7298POPC   C3B51669  36.287  23.127   7.050
 7298POPC   C4B51670  36.309  23.138   7.350
 7299POPC   NC351671  29.119  32.297   5.550
 7299POPC   PO451672  29.121  32.280   5.850
 7299POPC   GL151673  29.100  32.260   6.150
 7299POPC   GL251674  29.116  32.378   6.150
 7299POPC   C1A51675  29.157  32.200   6.450
 7299POPC   D2A51676  29.152  32.288   6.750
 7299POPC   C3A51677  29.138  32.234   7.050
 7299POPC   C4A51678  29.191  32.296   7.350
 7299POPC   C1B51679  29.131  32.473   6.450
 7299POPC   C2B51680  29.088  32.509   6.750
 7299POPC   C3B51681  29.097  32.506   7.050
 7299POPC   C4B51682  29.147  32.461   7.350
 7300POPC   NC351683  37.725   5.104   5.550
 7300POPC   PO451684  37.659   5.104   5.850
 7300POPC   GL151685  37.667   5.091   6.150
 7300POPC   GL251686  37.804   5.065   6.150
 7300POPC   C1A51687  37.674   5.111   6.450
 7300POPC   D2A51688  37.699   5.082   6.750
 7300POPC   C3A51689  37.639   5.129   7.050
 7300POPC   C4A51690  37.647   5.136   7.350
 7300POPC   C1B51691  37.938   5.014   6.450
 7300POPC   C2B51692  37.910   4.976   6.750
 7300POPC   C3B51693  37.888   4.964   7.050
 7300POPC   C4B51694  37.915   5.011   7.350
 7301POPC   NC351695  25.217  26.782   5.550
 7301POPC   PO451696  25.259  26.799   5.850
 7301POPC   GL151697  25.285  26.823   6.150
 7301POPC   GL251698  25.197  26.711   6.150
 7301POPC   C1A51699  25.223  26.847   6.450
 7301POPC   D2A51700  25.286  26.831   6.750
 7301POPC   C3A51701  25.309  26.806   7.050
 7301POPC   C4A51702  25.235  26.808   7.350
 7301POPC   C1B51703  25.232  26.583   6.450
 7301POPC   C2B51704  25.224  26.574   6.750
 7301POPC   C3B51705  25.227  26.577   7.050
 7301POPC   C4B51706  25.228  26.563   7.350
 7302POPC   NC351707  44.624  14.443   5.550
 7302POPC   PO451708  44.642  14.393   5.850
 7302POPC   GL151709  44.618  14.401   6.150
 7302POPC   GL251710  44.737  14.402   6.150
 7302POPC   C1A51711  44.626  14.365   6.450
 7302POPC   D2A51712  44.668  14.360   6.750
 7302POPC   C3A51713  44.662  14.395   7.050
 7302POPC   C4A51714  44.711  14.444   7.350
 7302POPC   C1B51715  44.907  14.318   6.450
 7302POPC   C2B51716  44.873  14.284   6.750
 7302POPC   C3B51717  44.894  14.362   7.050
 7302POPC   C4B51718  44.920  14.334   7.350
 7303POPC   NC351719  22.149  18.298   5.550
 7303POPC   PO451720  22.174  18.269   5.850
 7303POPC   GL151721  22.154  18.285   6.150
 7303POPC   GL251722  22.042  18.285   6.150
 7303POPC   C1A51723  22.140  18.250   6.450
 7303POPC   D2A51724  22.140  18.273   6.750
 7303POPC   C3A51725  22.120  18.235   7.050
 7303POPC   C4A51726  22.118  18.319   7.350
 7303POPC   C1B51727  21.940  18.354   6.450
 7303POPC   C2B51728  21.904  18.326   6.750
 7303POPC   C3B51729  21.903  18.326   7.050
 7303POPC   C4B51730  21.875  18.280   7.350
 7304POPC   NC351731  24.528  20.613   5.550
 7304POPC   PO451732  24.496  20.578   5.850
 7304POPC   GL151733  24.510  20.611   6.150
 7304POPC   GL251734  24.576  20.742   6.150
 7304POPC   C1A51735  24.519  20.585   6.450
 7304POPC   D2A51736  24.464  20.658   6.750
 7304POPC   C3A51737  24.457  20.571   7.050
 7304POPC   C4A51738  24.488  20.578   7.350
 7304POPC   C1B51739  24.605  20.892   6.450
 7304POPC   C2B51740  24.573  20.856   6.750
 7304POPC   C3B51741  24.590  20.821   7.050
 7304POPC   C4B51742  24.609  20.828   7.350
 7305POPC   NC351743  26.055  18.268   5.550
 7305POPC   PO451744  26.051  18.253   5.850
 7305POPC   GL151745  26.076  18.267   6.150
 7305POPC   GL251746  26.142  18.398   6.150
 7305POPC   C1A51747  26.005  18.311   6.450
 7305POPC   D2A51748  26.019  18.234   6.750
 7305POPC   C3A51749  26.054  18.269   7.050
 7305POPC   C4A51750  26.057  18.240   7.350
 7305POPC   C1B51751  26.159  18.546   6.450
 7305POPC   C2B51752  26.202  18.551   6.750
 7305POPC   C3B51753  26.158  18.455   7.050
 7305POPC   C4B51754  26.184  18.465   7.350
 7306POPC   NC351755  42.348  18.297   5.550
 7306POPC   PO451756  42.353  18.244   5.850
 7306POPC   GL151757  42.383  18.258   6.150
 7306POPC   GL251758  42.385  18.357   6.150
 7306POPC   C1A51759  42.355  18.310   6.450
 7306POPC   D2A51760  42.345  18.280   6.750
 7306POPC   C3A51761  42.326  18.278   7.050
 7306POPC   C4A51762  42.334  18.300   7.350
 7306POPC   C1B51763  42.460  18.510   6.450
 7306POPC   C2B51764  42.430  18.539   6.750
 7306POPC   C3B51765  42.502  18.530   7.050
 7306POPC   C4B51766  42.444  18.484   7.350
 7307POPC   NC351767  35.355  40.054   5.550
 7307POPC   PO451768  35.388  39.967   5.850
 7307POPC   GL151769  35.338  39.985   6.150
 7307POPC   GL251770  35.276  39.921   6.150
 7307POPC   C1A51771  35.315  39.996   6.450
 7307POPC   D2A51772  35.349  39.996   6.750
 7307POPC   C3A51773  35.397  40.017   7.050
 7307POPC   C4A51774  35.371  39.991   7.350
 7307POPC   C1B51775  35.127  39.915   6.450
 7307POPC   C2B51776  35.180  39.903   6.750
 7307POPC   C3B51777  35.154  39.935   7.050
 7307POPC   C4B51778  35.171  39.903   7.350
 7308POPC   NC351779  12.841  17.538   5.550
 7308POPC   PO451780  12.880  17.463   5.850
 7308POPC   GL151781  12.834  17.478   6.150
 7308POPC   GL251782  12.770  17.564   6.150
 7308POPC   C1A51783  12.812  17.488   6.450
 7308POPC   D2A51784  12.880  17.508   6.750
 7308POPC   C3A51785  12.826  17.491   7.050
 7308POPC   C4A51786  12.827  17.482   7.350
 7308POPC   C1B51787  12.616  17.693   6.450
 7308POPC   C2B51788  12.712  17.685   6.750
 7308POPC   C3B51789  12.647  17.679   7.050
 7308POPC   C4B51790  12.675  17.653   7.350
 7309POPC   NC351791  42.376   7.427   5.550
 7309POPC   PO451792  42.375   7.379   5.850
 7309POPC   GL151793  42.318   7.445   6.150
 7309POPC   GL251794  42.388   7.344   6.150
 7309POPC   C1A51795  42.314   7.438   6.450
 7309POPC   D2A51796  42.372   7.421   6.750
 7309POPC   C3A51797  42.357   7.375   7.050
 7309POPC   C4A51798  42.346   7.432   7.350
 7309POPC   C1B51799  42.445   7.165   6.450
 7309POPC   C2B51800  42.421   7.219   6.750
 7309POPC   C3B51801  42.455   7.142   7.050
 7309POPC   C4B51802  42.386   7.145   7.350
 7310POPC   NC351803  17.495  42.359   5.550
 7310POPC   PO451804  17.501  42.378   5.850
 7310POPC   GL151805  17.516  42.339   6.150
 7310POPC   GL251806  17.484  42.229   6.150
 7310POPC   C1A51807  17.491  42.291   6.450
 7310POPC   D2A51808  17.490  42.352   6.750
 7310POPC   C3A51809  17.521  42.299   7.050
 7310POPC   C4A51810  17.552  42.324   7.350
 7310POPC   C1B51811  17.436  42.122   6.450
 7310POPC   C2B51812  17.375  42.067   6.750
 7310POPC   C3B51813  17.376  42.060   7.050
 7310POPC   C4B51814  17.451  42.053   7.350
 7311POPC   NC351815  27.643  25.995   5.550
 7311POPC   PO451816  27.614  26.009   5.850
 7311POPC   GL151817  27.545  26.015   6.150
 7311POPC   GL251818  27.555  26.168   6.150
 7311POPC   C1A51819  27.623  26.006   6.450
 7311POPC   D2A51820  27.623  26.013   6.750
 7311POPC   C3A51821  27.579  25.995   7.050
 7311POPC   C4A51822  27.546  26.047   7.350
 7311POPC   C1B51823  27.537  26.257   6.450
 7311POPC   C2B51824  27.529  26.304   6.750
 7311POPC   C3B51825  27.489  26.318   7.050
 7311POPC   C4B51826  27.469  26.258   7.350
 7312POPC   NC351827   8.163   9.011   5.550
 7312POPC   PO451828   8.160   9.018   5.850
 7312POPC   GL151829   8.193   8.965   6.150
 7312POPC   GL251830   8.225   8.836   6.150
 7312POPC   C1A51831   8.195   8.933   6.450
 7312POPC   D2A51832   8.212   9.001   6.750
 7312POPC   C3A51833   8.199   9.005   7.050
 7312POPC   C4A51834   8.151   8.995   7.350
 7312POPC   C1B51835   8.298   8.778   6.450
 7312POPC   C2B51836   8.343   8.808   6.750
 7312POPC   C3B51837   8.338   8.793   7.050
 7312POPC   C4B51838   8.298   8.767   7.350
 7313POPC   NC351839  30.745  12.887   5.550
 7313POPC   PO451840  30.662  12.897   5.850
 7313POPC   GL151841  30.719  12.851   6.150
 7313POPC   GL251842  30.729  12.941   6.150
 7313POPC   C1A51843  30.678  12.842   6.450
 7313POPC   D2A51844  30.710  12.886   6.750
 7313POPC   C3A51845  30.729  12.875   7.050
 7313POPC   C4A51846  30.711  12.885   7.350
 7313POPC   C1B51847  30.781  13.081   6.450
 7313POPC   C2B51848  30.808  13.044   6.750
 7313POPC   C3B51849  30.824  13.090   7.050
 7313POPC   C4B51850  30.825  13.107   7.350
 7314POPC   NC351851   2.731   6.598   5.550
 7314POPC   PO451852   2.811   6.600   5.850
 7314POPC   GL151853   2.742   6.608   6.150
 7314POPC   GL251854   2.849   6.767   6.150
 7314POPC   C1A51855   2.815   6.610   6.450
 7314POPC   D2A51856   2.738   6.599   6.750
 7314POPC   C3A51857   2.795   6.657   7.050
 7314POPC   C4A51858   2.805   6.680   7.350
 7314POPC   C1B51859   2.868   6.868   6.450
 7314POPC   C2B51860   2.798   6.843   6.750
 7314POPC   C3B51861   2.829   6.903   7.050
 7314POPC   C4B51862   2.858   6.931   7.350
 7315POPC   NC351863   2.721  23.676   5.550
 7315POPC   PO451864   2.766  23.753   5.850
 7315POPC   GL151865   2.750  23.699   6.150
 7315POPC   GL251866   2.856  23.573   6.150
 7315POPC   C1A51867   2.794  23.687   6.450
 7315POPC   D2A51868   2.733  23.738   6.750
 7315POPC   C3A51869   2.753  23.704   7.050
 7315POPC   C4A51870   2.778  23.762   7.350
 7315POPC   C1B51871   2.928  23.514   6.450
 7315POPC   C2B51872   2.958  23.519   6.750
 7315POPC   C3B51873   2.902  23.550   7.050
 7315POPC   C4B51874   2.943  23.503   7.350
 7316POPC   NC351875  19.060  32.214   5.550
 7316POPC   PO451876  19.044  32.234   5.850
 7316POPC   GL151877  19.062  32.223   6.150
 7316POPC   GL251878  19.162  32.169   6.150
 7316POPC   C1A51879  19.009  32.220   6.450
 7316POPC   D2A51880  19.079  32.229   6.750
 7316POPC   C3A51881  19.062  32.232   7.050
 7316POPC   C4A51882  19.103  32.226   7.350
 7316POPC   C1B51883  19.214  32.105   6.450
 7316POPC   C2B51884  19.247  32.044   6.750
 7316POPC   C3B51885  19.198  32.114   7.050
 7316POPC   C4B51886  19.197  32.102   7.350
 7317POPC   NC351887   9.741  31.491   5.550
 7317POPC   PO451888   9.700  31.502   5.850
 7317POPC   GL151889   9.748  31.476   6.150
 7317POPC   GL251890   9.724  31.591   6.150
 7317POPC   C1A51891   9.717  31.459   6.450
 7317POPC   D2A51892   9.722  31.457   6.750
 7317POPC   C3A51893   9.779  31.513   7.050
 7317POPC   C4A51894   9.795  31.504   7.350
 7317POPC   C1B51895   9.741  31.672   6.450
 7317POPC   C2B51896   9.674  31.733   6.750
 7317POPC   C3B51897   9.763  31.715   7.050
 7317POPC   C4B51898   9.673  31.706   7.350
 7318POPC   NC351899  43.849  38.412   5.550
 7318POPC   PO451900  43.913  38.421   5.850
 7318POPC   GL151901  43.859  38.481   6.150
 7318POPC   GL251902  43.894  38.621   6.150
 7318POPC   C1A51903  43.844  38.431   6.450
 7318POPC   D2A51904  43.923  38.449   6.750
 7318POPC   C3A51905  43.884  38.487   7.050
 7318POPC   C4A51906  43.842  38.434   7.350
 7318POPC   C1B51907  43.844  38.689   6.450
 7318POPC   C2B51908  43.786  38.691   6.750
 7318POPC   C3B51909  43.798  38.713   7.050
 7318POPC   C4B51910  43.818  38.715   7.350
 7319POPC   NC351911  23.733  21.383   5.550
 7319POPC   PO451912  23.750  21.404   5.850
 7319POPC   GL151913  23.684  21.363   6.150
 7319POPC   GL251914  23.544  21.452   6.150
 7319POPC   C1A51915  23.702  21.367   6.450
 7319POPC   D2A51916  23.677  21.428   6.750
 7319POPC   C3A51917  23.664  21.422   7.050
 7319POPC   C4A51918  23.752  21.351   7.350
 7319POPC   C1B51919  23.478  21.481   6.450
 7319POPC   C2B51920  23.473  21.435   6.750
 7319POPC   C3B51921  23.511  21.449   7.050
 7319POPC   C4B51922  23.469  21.448   7.350
 7320POPC   NC351923   7.419   1.951   5.550
 7320POPC   PO451924   7.461   1.957   5.850
 7320POPC   GL151925   7.389   1.959   6.150
 7320POPC   GL251926   7.503   2.007   6.150
 7320POPC   C1A51927   7.414   1.983   6.450
 7320POPC   D2A51928   7.458   1.954   6.750
 7320POPC   C3A51929   7.411   1.987   7.050
 7320POPC   C4A51930   7.429   2.034   7.350
 7320POPC   C1B51931   7.712   1.962   6.450
 7320POPC   C2B51932   7.684   1.947   6.750
 7320POPC   C3B51933   7.679   1.985   7.050
 7320POPC   C4B51934   7.686   1.924   7.350
 7321POPC   NC351935  28.342  35.388   5.550
 7321POPC   PO451936  28.332  35.337   5.850
 7321POPC   GL151937  28.379  35.304   6.150
 7321POPC   GL251938  28.403  35.468   6.150
 7321POPC   C1A51939  28.341  35.320   6.450
 7321POPC   D2A51940  28.370  35.337   6.750
 7321POPC   C3A51941  28.353  35.343   7.050
 7321POPC   C4A51942  28.340  35.390   7.350
 7321POPC   C1B51943  28.507  35.552   6.450
 7321POPC   C2B51944  28.527  35.510   6.750
 7321POPC   C3B51945  28.545  35.526   7.050
 7321POPC   C4B51946  28.492  35.571   7.350
 7322POPC   NC351947  22.174  35.364   5.550
 7322POPC   PO451948  22.185  35.313   5.850
 7322POPC   GL151949  22.211  35.385   6.150
 7322POPC   GL251950  22.150  35.266   6.150
 7322POPC   C1A51951  22.123  35.356   6.450
 7322POPC   D2A51952  22.118  35.327   6.750
 7322POPC   C3A51953  22.117  35.357   7.050
 7322POPC   C4A51954  22.147  35.382   7.350
 7322POPC   C1B51955  22.099  35.135   6.450
 7322POPC   C2B51956  22.143  35.119   6.750
 7322POPC   C3B51957  22.082  35.075   7.050
 7322POPC   C4B51958  22.126  35.153   7.350
 7323POPC   NC351959  13.609  37.651   5.550
 7323POPC   PO451960  13.661  37.725   5.850
 7323POPC   GL151961  13.657  37.711   6.150
 7323POPC   GL251962  13.672  37.605   6.150
 7323POPC   C1A51963  13.598  37.714   6.450
 7323POPC   D2A51964  13.610  37.670   6.750
 7323POPC   C3A51965  13.587  37.692   7.050
 7323POPC   C4A51966  13.616  37.725   7.350
 7323POPC   C1B51967  13.719  37.417   6.450
 7323POPC   C2B51968  13.635  37.389   6.750
 7323POPC   C3B51969  13.722  37.476   7.050
 7323POPC   C4B51970  13.713  37.415   7.350
 7324POPC   NC351971  21.386  33.029   5.550
 7324POPC   PO451972  21.408  33.028   5.850
 7324POPC   GL151973  21.416  33.059   6.150
 7324POPC   GL251974  21.250  32.901   6.150
 7324POPC   C1A51975  21.343  33.048   6.450
 7324POPC   D2A51976  21.389  32.988   6.750
 7324POPC   C3A51977  21.375  33.009   7.050
 7324POPC   C4A51978  21.357  33.029   7.350
 7324POPC   C1B51979  21.160  32.812   6.450
 7324POPC   C2B51980  21.200  32.835   6.750
 7324POPC   C3B51981  21.171  32.865   7.050
 7324POPC   C4B51982  21.228  32.875   7.350
 7325POPC   NC351983  35.332   4.344   5.550
 7325POPC   PO451984  35.320   4.268   5.850
 7325POPC   GL151985  35.313   4.349   6.150
 7325POPC   GL251986  35.289   4.396   6.150
 7325POPC   C1A51987  35.371   4.317   6.450
 7325POPC   D2A51988  35.364   4.366   6.750
 7325POPC   C3A51989  35.323   4.323   7.050
 7325POPC   C4A51990  35.337   4.289   7.350
 7325POPC   C1B51991  35.342   4.604   6.450
 7325POPC   C2B51992  35.317   4.537   6.750
 7325POPC   C3B51993  35.312   4.531   7.050
 7325POPC   C4B51994  35.322   4.555   7.350
 7326POPC   NC351995  12.049  15.188   5.550
 7326POPC   PO451996  12.114  15.217   5.850
 7326POPC   GL151997  12.070  15.150   6.150
 7326POPC   GL251998  12.160  15.214   6.150
 7326POPC   C1A51999  12.106  15.151   6.450
 7326POPC   D2A52000  12.058  15.217   6.750
 7326POPC   C3A52001  12.110  15.143   7.050
 7326POPC   C4A52002  12.113  15.195   7.350
 7326POPC   C1B52003  12.333  15.310   6.450
 7326POPC   C2B52004  12.276  15.319   6.750
 7326POPC   C3B52005  12.290  15.330   7.050
 7326POPC   C4B52006  12.270  15.344   7.350
 7327POPC   NC352007  20.597   0.436   5.550
 7327POPC   PO452008  20.587   0.487   5.850
 7327POPC   GL152009  20.586   0.398   6.150
 7327POPC   GL252010  20.708   0.414   6.150
 7327POPC   C1A52011  20.613   0.464   6.450
 7327POPC   D2A52012  20.613   0.465   6.750
 7327POPC   C3A52013  20.634   0.426   7.050
 7327POPC   C4A52014  20.602   0.418   7.350
 7327POPC   C1B52015  20.879   0.315   6.450
 7327POPC   C2B52016  20.825   0.350   6.750
 7327POPC   C3B52017  20.887   0.319   7.050
 7327POPC   C4B52018  20.816   0.349   7.350
 7328POPC   NC352019  43.101  23.762   5.550
 7328POPC   PO452020  43.072  23.667   5.850
 7328POPC   GL152021  43.132  23.710   6.150
 7328POPC   GL252022  43.167  23.639   6.150
 7328POPC   C1A52023  43.140  23.666   6.450
 7328POPC   D2A52024  43.121  23.758   6.750
 7328POPC   C3A52025  43.112  23.714   7.050
 7328POPC   C4A52026  43.078  23.742   7.350
 7328POPC   C1B52027  43.209  23.493   6.450
 7328POPC   C2B52028  43.243  23.478   6.750
 7328POPC   C3B52029  43.278  23.540   7.050
 7328POPC   C4B52030  43.214  23.555   7.350
 7329POPC   NC352031  22.902  22.948   5.550
 7329POPC   PO452032  22.901  22.976   5.850
 7329POPC   GL152033  22.915  22.925   6.150
 7329POPC   GL252034  23.095  22.965   6.150
 7329POPC   C1A52035  22.903  22.940   6.450
 7329POPC   D2A52036  22.889  22.964   6.750
 7329POPC   C3A52037  22.899  22.944   7.050
 7329POPC   C4A52038  22.939  22.893   7.350
 7329POPC   C1B52039  23.235  22.920   6.450
 7329POPC   C2B52040  23.149  22.940   6.750
 7329POPC   C3B52041  23.159  22.944   7.050
 7329POPC   C4B52042  23.191  22.909   7.350
 7330POPC   NC352043  26.074  22.142   5.550
 7330POPC   PO452044  26.009  22.209   5.850
 7330POPC   GL152045  26.053  22.184   6.150
 7330POPC   GL252046  25.931  22.175   6.150
 7330POPC   C1A52047  26.025  22.201   6.450
 7330POPC   D2A52048  26.045  22.198   6.750
 7330POPC   C3A52049  26.004  22.164   7.050
 7330POPC   C4A52050  26.012  22.142   7.350
 7330POPC   C1B52051  25.843  22.240   6.450
 7330POPC   C2B52052  25.851  22.270   6.750
 7330POPC   C3B52053  25.862  22.236   7.050
 7330POPC   C4B52054  25.785  22.321   7.350
 7331POPC   NC352055  12.816  32.209   5.550
 7331POPC   PO452056  12.884  32.261   5.850
 7331POPC   GL152057  12.891  32.200   6.150
 7331POPC   GL252058  12.980  32.253   6.150
 7331POPC   C1A52059  12.858  32.296   6.450
 7331POPC   D2A52060  12.807  32.201   6.750
 7331POPC   C3A52061  12.809  32.267   7.050
 7331POPC   C4A52062  12.825  32.239   7.350
 7331POPC   C1B52063  13.094  32.164   6.450
 7331POPC   C2B52064  13.106  32.186   6.750
 7331POPC   C3B52065  13.132  32.135   7.050
 7331POPC   C4B52066  13.066  32.144   7.350
 7332POPC   NC352067  27.620   8.179   5.550
 7332POPC   PO452068  27.588   8.239   5.850
 7332POPC   GL152069  27.606   8.159   6.150
 7332POPC   GL252070  27.632   8.320   6.150
 7332POPC   C1A52071  27.600   8.203   6.450
 7332POPC   D2A52072  27.636   8.207   6.750
 7332POPC   C3A52073  27.554   8.148   7.050
 7332POPC   C4A52074  27.624   8.188   7.350
 7332POPC   C1B52075  27.636   8.441   6.450
 7332POPC   C2B52076  27.628   8.444   6.750
 7332POPC   C3B52077  27.633   8.425   7.050
 7332POPC   C4B52078  27.591   8.442   7.350
 7333POPC   NC352079  16.687   3.573   5.550
 7333POPC   PO452080  16.763   3.522   5.850
 7333POPC   GL152081  16.764   3.560   6.150
 7333POPC   GL252082  16.628   3.496   6.150
 7333POPC   C1A52083  16.731   3.518   6.450
 7333POPC   D2A52084  16.712   3.554   6.750
 7333POPC   C3A52085  16.697   3.569   7.050
 7333POPC   C4A52086  16.695   3.530   7.350
 7333POPC   C1B52087  16.511   3.363   6.450
 7333POPC   C2B52088  16.563   3.407   6.750
 7333POPC   C3B52089  16.526   3.449   7.050
 7333POPC   C4B52090  16.555   3.397   7.350
 7334POPC   NC352091  39.964  39.961   5.550
 7334POPC   PO452092  40.052  40.052   5.850
 7334POPC   GL152093  40.033  40.034   6.150
 7334POPC   GL252094  40.009  40.132   6.150
 7334POPC   C1A52095  39.982  40.049   6.450
 7334POPC   D2A52096  40.056  39.963   6.750
 7334POPC   C3A52097  40.003  40.043   7.050
 7334POPC   C4A52098  39.971  39.968   7.350
 7334POPC   C1B52099  39.899  40.210   6.450
 7334POPC   C2B52100  39.987  40.258   6.750
 7334POPC   C3B52101  39.921  40.294   7.050
 7334POPC   C4B52102  39.972  40.199   7.350
 7335POPC   NC352103  14.420   8.196   5.550
 7335POPC   PO452104  14.452   8.209   5.850
 7335POPC   GL152105  14.378   8.215   6.150
 7335POPC   GL252106  14.495   8.096   6.150
 7335POPC   C1A52107  14.366   8.195   6.450
 7335POPC   D2A52108  14.377   8.184   6.750
 7335POPC   C3A52109  14.398   8.215   7.050
 7335POPC   C4A52110  14.436   8.175   7.350
 7335POPC   C1B52111  14.528   7.953   6.450
 7335POPC   C2B52112  14.448   7.951   6.750
 7335POPC   C3B52113  14.538   8.007   7.050
 7335POPC   C4B52114  14.457   7.929   7.350
 7336POPC   NC352115  16.744  26.820   5.550
 7336POPC   PO452116  16.743  26.790   5.850
 7336POPC   GL152117  16.736  26.780   6.150
 7336POPC   GL252118  16.808  26.746   6.150
 7336POPC   C1A52119  16.692  26.773   6.450
 7336POPC   D2A52120  16.752  26.833   6.750
 7336POPC   C3A52121  16.765  26.832   7.050
 7336POPC   C4A52122  16.690  26.829   7.350
 7336POPC   C1B52123  16.946  26.804   6.450
 7336POPC   C2B52124  16.978  26.775   6.750
 7336POPC   C3B52125  16.969  26.738   7.050
 7336POPC   C4B52126  17.010  26.797   7.350
 7337POPC   NC352127  36.119  14.399   5.550
 7337POPC   PO452128  36.111  14.383   5.850
 7337POPC   GL152129  36.141  14.421   6.150
 7337POPC   GL252130  36.182  14.542   6.150
 7337POPC   C1A52131  36.132  14.357   6.450
 7337POPC   D2A52132  36.171  14.367   6.750
 7337POPC   C3A52133  36.172  14.381   7.050
 7337POPC   C4A52134  36.176  14.357   7.350
 7337POPC   C1B52135  36.312  14.607   6.450
 7337POPC   C2B52136  36.306  14.604   6.750
 7337POPC   C3B52137  36.294  14.558   7.050
 7337POPC   C4B52138  36.315  14.609   7.350
 7338POPC   NC352139  39.968  36.889   5.550
 7338POPC   PO452140  40.052  36.945   5.850
 7338POPC   GL152141  39.974  36.914   6.150
 7338POPC   GL252142  40.110  36.856   6.150
 7338POPC   C1A52143  40.054  36.886   6.450
 7338POPC   D2A52144  40.012  36.910   6.750
 7338POPC   C3A52145  40.032  36.885   7.050
 7338POPC   C4A52146  39.979  36.904   7.350
 7338POPC   C1B52147  40.257  36.816   6.450
 7338POPC   C2B52148  40.258  36.839   6.750
 7338POPC   C3B52149  40.203  36.821   7.050
 7338POPC   C4B52150  40.224  36.849   7.350
 7339POPC   NC352151   5.140  24.528   5.550
 7339POPC   PO452152   5.061  24.506   5.850
 7339POPC   GL152153   5.055  24.499   6.150
 7339POPC   GL252154   5.239  24.410   6.150
 7339POPC   C1A52155   5.090  24.530   6.450
 7339POPC   D2A52156   5.134  24.491   6.750
 7339POPC   C3A52157   5.066  24.444   7.050
 7339POPC   C4A52158   5.138  24.534   7.350
 7339POPC   C1B52159   5.294  24.304   6.450
 7339POPC   C2B52160   5.276  24.392   6.750
 7339POPC   C3B52161   5.342  24.355   7.050
 7339POPC   C4B52162   5.326  24.328   7.350
 7340POPC   NC352163  26.009  15.195   5.550
 7340POPC   PO452164  25.992  15.182   5.850
 7340POPC   GL152165  26.066  15.167   6.150
 7340POPC   GL252166  25.954  15.308   6.150
 7340POPC   C1A52167  26.030  15.140   6.450
 7340POPC   D2A52168  26.085  15.163   6.750
 7340POPC   C3A52169  26.010  15.195   7.050
 7340POPC   C4A52170  26.069  15.176   7.350
 7340POPC   C1B52171  25.905  15.393   6.450
 7340POPC   C2B52172  25.923  15.452   6.750
 7340POPC   C3B52173  25.939  15.395   7.050
 7340POPC   C4B52174  25.942  15.451   7.350
 7341POPC   NC352175  42.365  36.888   5.550
 7341POPC   PO452176  42.360  36.942   5.850
 7341POPC   GL152177  42.287  36.946   6.150
 7341POPC   GL252178  42.197  36.966   6.150
 7341POPC   C1A52179  42.323  36.874   6.450
 7341POPC   D2A52180  42.377  36.868   6.750
 7341POPC   C3A52181  42.310  36.944   7.050
 7341POPC   C4A52182  42.318  36.950   7.350
 7341POPC   C1B52183  42.131  37.027   6.450
 7341POPC   C2B52184  42.140  37.076   6.750
 7341POPC   C3B52185  42.132  37.061   7.050
 7341POPC   C4B52186  42.099  37.039   7.350
 7342POPC   NC352187  26.800   8.240   5.550
 7342POPC   PO452188  26.810   8.147   5.850
 7342POPC   GL152189  26.865   8.204   6.150
 7342POPC   GL252190  26.895   8.214   6.150
 7342POPC   C1A52191  26.809   8.162   6.450
 7342POPC   D2A52192  26.833   8.149   6.750
 7342POPC   C3A52193  26.807   8.165   7.050
 7342POPC   C4A52194  26.838   8.203   7.350
 7342POPC   C1B52195  27.101   8.131   6.450
 7342POPC   C2B52196  27.050   8.199   6.750
 7342POPC   C3B52197  27.087   8.132   7.050
 7342POPC   C4B52198  27.016   8.218   7.350
 7343POPC   NC352199  33.046  33.813   5.550
 7343POPC   PO452200  33.022  33.843   5.850
 7343POPC   GL152201  33.027  33.759   6.150
 7343POPC   GL252202  33.018  33.927   6.150
 7343POPC   C1A52203  33.045  33.828   6.450
 7343POPC   D2A52204  32.998  33.833   6.750
 7343POPC   C3A52205  32.982  33.834   7.050
 7343POPC   C4A52206  33.059  33.828   7.350
 7343POPC   C1B52207  32.959  34.078   6.450
 7343POPC   C2B52208  33.030  34.022   6.750
 7343POPC   C3B52209  32.998  34.027   7.050
 7343POPC   C4B52210  33.014  34.030   7.350
 7344POPC   NC352211   1.258  40.812   5.550
 7344POPC   PO452212   1.188  40.827   5.850
 7344POPC   GL152213   1.217  40.739   6.150
 7344POPC   GL252214   1.369  40.784   6.150
 7344POPC   C1A52215   1.232  40.775   6.450
 7344POPC   D2A52216   1.200  40.792   6.750
 7344POPC   C3A52217   1.173  40.779   7.050
 7344POPC   C4A52218   1.245  40.786   7.350
 7344POPC   C1B52219   1.404  40.912   6.450
 7344POPC   C2B52220   1.412  40.908   6.750
 7344POPC   C3B52221   1.423  40.846   7.050
 7344POPC   C4B52222   1.471  40.879   7.350
 7345POPC   NC352223   4.352  19.108   5.550
 7345POPC   PO452224   4.338  19.009   5.850
 7345POPC   GL152225   4.304  19.032   6.150
 7345POPC   GL252226   4.305  18.932   6.150
 7345POPC   C1A52227   4.305  19.066   6.450
 7345POPC   D2A52228   4.322  19.096   6.750
 7345POPC   C3A52229   4.341  19.108   7.050
 7345POPC   C4A52230   4.273  19.094   7.350
 7345POPC   C1B52231   4.183  18.789   6.450
 7345POPC   C2B52232   4.262  18.793   6.750
 7345POPC   C3B52233   4.229  18.805   7.050
 7345POPC   C4B52234   4.229  18.811   7.350
 7346POPC   NC352235  37.634   0.466   5.550
 7346POPC   PO452236  37.650   0.424   5.850
 7346POPC   GL152237  37.712   0.444   6.150
 7346POPC   GL252238  37.598   0.473   6.150
 7346POPC   C1A52239  37.631   0.405   6.450
 7346POPC   D2A52240  37.718   0.418   6.750
 7346POPC   C3A52241  37.703   0.398   7.050
 7346POPC   C4A52242  37.679   0.445   7.350
 7346POPC   C1B52243  37.468   0.544   6.450
 7346POPC   C2B52244  37.474   0.540   6.750
 7346POPC   C3B52245  37.520   0.570   7.050
 7346POPC   C4B52246  37.511   0.561   7.350
 7347POPC   NC352247   4.326  31.490   5.550
 7347POPC   PO452248   4.291  31.440   5.850
 7347POPC   GL152249   4.296  31.490   6.150
 7347POPC   GL252250   4.304  31.384   6.150
 7347POPC   C1A52251   4.365  31.449   6.450
 7347POPC   D2A52252   4.272  31.484   6.750
 7347POPC   C3A52253   4.320  31.455   7.050
 7347POPC   C4A52254   4.318  31.516   7.350
 7347POPC   C1B52255   4.179  31.285   6.450
 7347POPC   C2B52256   4.243  31.222   6.750
 7347POPC   C3B52257   4.207  31.241   7.050
 7347POPC   C4B52258   4.231  31.230   7.350
 7348POPC   NC352259  39.964  35.334   5.550
 7348POPC   PO452260  40.039  35.354   5.850
 7348POPC   GL152261  40.034  35.373   6.150
 7348POPC   GL252262  40.126  35.226   6.150
 7348POPC   C1A52263  40.000  35.321   6.450
 7348POPC   D2A52264  39.965  35.395   6.750
 7348POPC   C3A52265  39.960  35.333   7.050
 7348POPC   C4A52266  39.991  35.309   7.350
 7348POPC   C1B52267  40.198  35.178   6.450
 7348POPC   C2B52268  40.156  35.179   6.750
 7348POPC   C3B52269  40.151  35.133   7.050
 7348POPC   C4B52270  40.144  35.178   7.350
 7349POPC   NC352271  12.835  31.437   5.550
 7349POPC   PO452272  12.821  31.519   5.850
 7349POPC   GL152273  12.857  31.454   6.150
 7349POPC   GL252274  12.860  31.380   6.150
 7349POPC   C1A52275  12.867  31.471   6.450
 7349POPC   D2A52276  12.851  31.443   6.750
 7349POPC   C3A52277  12.880  31.450   7.050
 7349POPC   C4A52278  12.882  31.512   7.350
 7349POPC   C1B52279  12.850  31.218   6.450
 7349POPC   C2B52280  12.777  31.263   6.750
 7349POPC   C3B52281  12.866  31.257   7.050
 7349POPC   C4B52282  12.813  31.176   7.350
 7350POPC   NC352283   9.009   7.445   5.550
 7350POPC   PO452284   9.005   7.427   5.850
 7350POPC   GL152285   8.970   7.389   6.150
 7350POPC   GL252286   8.900   7.282   6.150
 7350POPC   C1A52287   8.989   7.414   6.450
 7350POPC   D2A52288   9.011   7.420   6.750
 7350POPC   C3A52289   8.940   7.451   7.050
 7350POPC   C4A52290   8.975   7.468   7.350
 7350POPC   C1B52291   8.854   7.237   6.450
 7350POPC   C2B52292   8.780   7.235   6.750
 7350POPC   C3B52293   8.771   7.252   7.050
 7350POPC   C4B52294   8.814   7.254   7.350
 7351POPC   NC352295  15.146  26.046   5.550
 7351POPC   PO452296  15.221  26.022   5.850
 7351POPC   GL152297  15.185  26.049   6.150
 7351POPC   GL252298  15.314  26.137   6.150
 7351POPC   C1A52299  15.168  26.029   6.450
 7351POPC   D2A52300  15.223  26.004   6.750
 7351POPC   C3A52301  15.143  26.037   7.050
 7351POPC   C4A52302  15.174  26.065   7.350
 7351POPC   C1B52303  15.389  26.154   6.450
 7351POPC   C2B52304  15.438  26.171   6.750
 7351POPC   C3B52305  15.451  26.158   7.050
 7351POPC   C4B52306  15.399  26.142   7.350
 7352POPC   NC352307  35.307   7.412   5.550
 7352POPC   PO452308  35.342   7.408   5.850
 7352POPC   GL152309  35.339   7.457   6.150
 7352POPC   GL252310  35.462   7.320   6.150
 7352POPC   C1A52311  35.383   7.383   6.450
 7352POPC   D2A52312  35.359   7.431   6.750
 7352POPC   C3A52313  35.319   7.384   7.050
 7352POPC   C4A52314  35.363   7.462   7.350
 7352POPC   C1B52315  35.556   7.240   6.450
 7352POPC   C2B52316  35.540   7.300   6.750
 7352POPC   C3B52317  35.521   7.243   7.050
 7352POPC   C4B52318  35.580   7.321   7.350
 7353POPC   NC352319  25.236  12.110   5.550
 7353POPC   PO452320  25.303  12.035   5.850
 7353POPC   GL152321  25.280  12.091   6.150
 7353POPC   GL252322  25.141  12.174   6.150
 7353POPC   C1A52323  25.226  12.035   6.450
 7353POPC   D2A52324  25.277  12.046   6.750
 7353POPC   C3A52325  25.267  12.041   7.050
 7353POPC   C4A52326  25.227  12.091   7.350
 7353POPC   C1B52327  25.029  12.255   6.450
 7353POPC   C2B52328  25.044  12.228   6.750
 7353POPC   C3B52329  25.053  12.226   7.050
 7353POPC   C4B52330  25.067  12.254   7.350
 7354POPC   NC352331   8.191  39.258   5.550
 7354POPC   PO452332   8.152  39.215   5.850
 7354POPC   GL152333   8.215  39.218   6.150
 7354POPC   GL252334   8.061  39.272   6.150
 7354POPC   C1A52335   8.165  39.216   6.450
 7354POPC   D2A52336   8.242  39.278   6.750
 7354POPC   C3A52337   8.209  39.254   7.050
 7354POPC   C4A52338   8.214  39.232   7.350
 7354POPC   C1B52339   7.959  39.223   6.450
 7354POPC   C2B52340   7.915  39.252   6.750
 7354POPC   C3B52341   7.966  39.198   7.050
 7354POPC   C4B52342   7.918  39.227   7.350
 7355POPC   NC352343   7.459  40.023   5.550
 7355POPC   PO452344   7.400  40.033   5.850
 7355POPC   GL152345   7.399  39.959   6.150
 7355POPC   GL252346   7.257  39.991   6.150
 7355POPC   C1A52347   7.382  39.995   6.450
 7355POPC   D2A52348   7.381  40.035   6.750
 7355POPC   C3A52349   7.373  40.056   7.050
 7355POPC   C4A52350   7.423  39.982   7.350
 7355POPC   C1B52351   7.156  39.945   6.450
 7355POPC   C2B52352   7.175  40.023   6.750
 7355POPC   C3B52353   7.210  39.989   7.050
 7355POPC   C4B52354   7.221  39.965   7.350
 7356POPC   NC352355   9.735  15.181   5.550
 7356POPC   PO452356   9.769  15.197   5.850
 7356POPC   GL152357   9.776  15.139   6.150
 7356POPC   GL252358   9.902  15.169   6.150
 7356POPC   C1A52359   9.751  15.174   6.450
 7356POPC   D2A52360   9.717  15.180   6.750
 7356POPC   C3A52361   9.731  15.139   7.050
 7356POPC   C4A52362   9.748  15.221   7.350
 7356POPC   C1B52363   9.948  15.069   6.450
 7356POPC   C2B52364   9.930  15.106   6.750
 7356POPC   C3B52365   9.969  15.072   7.050
 7356POPC   C4B52366   9.985  15.070   7.350
 7357POPC   NC352367  11.345  40.759   5.550
 7357POPC   PO452368  11.313  40.814   5.850
 7357POPC   GL152369  11.326  40.759   6.150
 7357POPC   GL252370  11.289  40.851   6.150
 7357POPC   C1A52371  11.285  40.790   6.450
 7357POPC   D2A52372  11.277  40.776   6.750
 7357POPC   C3A52373  11.252  40.776   7.050
 7357POPC   C4A52374  11.254  40.821   7.350
 7357POPC   C1B52375  11.199  41.015   6.450
 7357POPC   C2B52376  11.168  41.005   6.750
 7357POPC   C3B52377  11.147  41.033   7.050
 7357POPC   C4B52378  11.152  41.025   7.350
 7358POPC   NC352379  40.777  37.720   5.550
 7358POPC   PO452380  40.799  37.663   5.850
 7358POPC   GL152381  40.771  37.635   6.150
 7358POPC   GL252382  40.620  37.609   6.150
 7358POPC   C1A52383  40.809  37.705   6.450
 7358POPC   D2A52384  40.803  37.664   6.750
 7358POPC   C3A52385  40.791  37.647   7.050
 7358POPC   C4A52386  40.752  37.671   7.350
 7358POPC   C1B52387  40.582  37.662   6.450
 7358POPC   C2B52388  40.491  37.583   6.750
 7358POPC   C3B52389  40.507  37.636   7.050
 7358POPC   C4B52390  40.489  37.666   7.350
 7359POPC   NC352391  44.697  30.723   5.550
 7359POPC   PO452392  44.638  30.685   5.850
 7359POPC   GL152393  44.697  30.671   6.150
 7359POPC   GL252394  44.693  30.814   6.150
 7359POPC   C1A52395  44.612  30.704   6.450
 7359POPC   D2A52396  44.625  30.661   6.750
 7359POPC   C3A52397  44.667  30.650   7.050
 7359POPC   C4A52398  44.654  30.674   7.350
 7359POPC   C1B52399  44.682  30.992   6.450
 7359POPC   C2B52400  44.668  30.993   6.750
 7359POPC   C3B52401  44.647  30.992   7.050
 7359POPC   C4B52402  44.740  30.951   7.350
 7360POPC   NC352403  36.898  13.618   5.550
 7360POPC   PO452404  36.910  13.665   5.850
 7360POPC   GL152405  36.895  13.619   6.150
 7360POPC   GL252406  37.020  13.625   6.150
 7360POPC   C1A52407  36.896  13.649   6.450
 7360POPC   D2A52408  36.862  13.616   6.750
 7360POPC   C3A52409  36.859  13.676   7.050
 7360POPC   C4A52410  36.856  13.596   7.350
 7360POPC   C1B52411  37.155  13.601   6.450
 7360POPC   C2B52412  37.129  13.554   6.750
 7360POPC   C3B52413  37.147  13.554   7.050
 7360POPC   C4B52414  37.166  13.586   7.350
 7361POPC   NC352415   5.889  32.226   5.550
 7361POPC   PO452416   5.892  32.207   5.850
 7361POPC   GL152417   5.847  32.226   6.150
 7361POPC   GL252418   5.817  32.110   6.150
 7361POPC   C1A52419   5.858  32.269   6.450
 7361POPC   D2A52420   5.896  32.251   6.750
 7361POPC   C3A52421   5.902  32.281   7.050
 7361POPC   C4A52422   5.843  32.211   7.350
 7361POPC   C1B52423   5.825  31.998   6.450
 7361POPC   C2B52424   5.836  31.994   6.750
 7361POPC   C3B52425   5.790  32.022   7.050
 7361POPC   C4B52426   5.759  32.011   7.350
 7362POPC   NC352427  24.505   6.676   5.550
 7362POPC   PO452428  24.537   6.666   5.850
 7362POPC   GL152429  24.525   6.613   6.150
 7362POPC   GL252430  24.436   6.516   6.150
 7362POPC   C1A52431  24.474   6.596   6.450
 7362POPC   D2A52432  24.538   6.635   6.750
 7362POPC   C3A52433  24.510   6.639   7.050
 7362POPC   C4A52434  24.493   6.653   7.350
 7362POPC   C1B52435  24.418   6.415   6.450
 7362POPC   C2B52436  24.364   6.380   6.750
 7362POPC   C3B52437  24.407   6.426   7.050
 7362POPC   C4B52438  24.358   6.417   7.350
 7363POPC   NC352439  18.301  28.383   5.550
 7363POPC   PO452440  18.291  28.413   5.850
 7363POPC   GL152441  18.250  28.413   6.150
 7363POPC   GL252442  18.362  28.312   6.150
 7363POPC   C1A52443  18.247  28.380   6.450
 7363POPC   D2A52444  18.317  28.352   6.750
 7363POPC   C3A52445  18.237  28.369   7.050
 7363POPC   C4A52446  18.312  28.343   7.350
 7363POPC   C1B52447  18.561  28.263   6.450
 7363POPC   C2B52448  18.494  28.305   6.750
 7363POPC   C3B52449  18.532  28.287   7.050
 7363POPC   C4B52450  18.538  28.319   7.350
 7364POPC   NC352451   4.327  37.681   5.550
 7364POPC   PO452452   4.279  37.691   5.850
 7364POPC   GL152453   4.360  37.647   6.150
 7364POPC   GL252454   4.405  37.670   6.150
 7364POPC   C1A52455   4.360  37.714   6.450
 7364POPC   D2A52456   4.323  37.656   6.750
 7364POPC   C3A52457   4.277  37.726   7.050
 7364POPC   C4A52458   4.314  37.641   7.350
 7364POPC   C1B52459   4.553  37.537   6.450
 7364POPC   C2B52460   4.530  37.601   6.750
 7364POPC   C3B52461   4.552  37.587   7.050
 7364POPC   C4B52462   4.493  37.552   7.350
 7365POPC   NC352463   8.234   2.787   5.550
 7365POPC   PO452464   8.157   2.745   5.850
 7365POPC   GL152465   8.172   2.754   6.150
 7365POPC   GL252466   8.274   2.756   6.150
 7365POPC   C1A52467   8.158   2.743   6.450
 7365POPC   D2A52468   8.192   2.789   6.750
 7365POPC   C3A52469   8.240   2.769   7.050
 7365POPC   C4A52470   8.158   2.811   7.350
 7365POPC   C1B52471   8.399   2.753   6.450
 7365POPC   C2B52472   8.412   2.758   6.750
 7365POPC   C3B52473   8.408   2.763   7.050
 7365POPC   C4B52474   8.420   2.717   7.350
 7366POPC   NC352475   1.998  32.200   5.550
 7366POPC   PO452476   2.016  32.209   5.850
 7366POPC   GL152477   1.988  32.244   6.150
 7366POPC   GL252478   1.995  32.162   6.150
 7366POPC   C1A52479   1.971  32.213   6.450
 7366POPC   D2A52480   2.014  32.206   6.750
 7366POPC   C3A52481   1.989  32.273   7.050
 7366POPC   C4A52482   2.013  32.245   7.350
 7366POPC   C1B52483   2.052  32.004   6.450
 7366POPC   C2B52484   2.030  31.996   6.750
 7366POPC   C3B52485   2.043  31.987   7.050
 7366POPC   C4B52486   2.104  31.967   7.350
 7367POPC   NC352487   2.004  12.122   5.550
 7367POPC   PO452488   1.998  12.030   5.850
 7367POPC   GL152489   1.942  12.059   6.150
 7367POPC   GL252490   1.964  12.210   6.150
 7367POPC   C1A52491   1.963  12.038   6.450
 7367POPC   D2A52492   2.003  12.064   6.750
 7367POPC   C3A52493   2.005  12.071   7.050
 7367POPC   C4A52494   2.012  12.028   7.350
 7367POPC   C1B52495   1.846  12.276   6.450
 7367POPC   C2B52496   1.837  12.344   6.750
 7367POPC   C3B52497   1.886  12.315   7.050
 7367POPC   C4B52498   1.929  12.281   7.350
 7368POPC   NC352499  21.361  16.761   5.550
 7368POPC   PO452500  21.392  16.767   5.850
 7368POPC   GL152501  21.373  16.762   6.150
 7368POPC   GL252502  21.297  16.744   6.150
 7368POPC   C1A52503  21.423  16.688   6.450
 7368POPC   D2A52504  21.380  16.758   6.750
 7368POPC   C3A52505  21.406  16.768   7.050
 7368POPC   C4A52506  21.434  16.742   7.350
 7368POPC   C1B52507  21.122  16.713   6.450
 7368POPC   C2B52508  21.126  16.714   6.750
 7368POPC   C3B52509  21.097  16.695   7.050
 7368POPC   C4B52510  21.189  16.669   7.350
 7369POPC   NC352511  12.833   9.765   5.550
 7369POPC   PO452512  12.805   9.720   5.850
 7369POPC   GL152513  12.808   9.753   6.150
 7369POPC   GL252514  12.964   9.673   6.150
 7369POPC   C1A52515  12.808   9.774   6.450
 7369POPC   D2A52516  12.867   9.710   6.750
 7369POPC   C3A52517  12.867   9.765   7.050
 7369POPC   C4A52518  12.880   9.768   7.350
 7369POPC   C1B52519  13.007   9.583   6.450
 7369POPC   C2B52520  13.037   9.590   6.750
 7369POPC   C3B52521  13.002   9.588   7.050
 7369POPC   C4B52522  13.011   9.526   7.350
 7370POPC   NC352523  15.207  27.577   5.550
 7370POPC   PO452524  15.216  27.606   5.850
 7370POPC   GL152525  15.173  27.597   6.150
 7370POPC   GL252526  15.320  27.599   6.150
 7370POPC   C1A52527  15.163  27.616   6.450
 7370POPC   D2A52528  15.130  27.573   6.750
 7370POPC   C3A52529  15.171  27.642   7.050
 7370POPC   C4A52530  15.218  27.630   7.350
 7370POPC   C1B52531  15.410  27.556   6.450
 7370POPC   C2B52532  15.453  27.606   6.750
 7370POPC   C3B52533  15.438  27.564   7.050
 7370POPC   C4B52534  15.464  27.559   7.350
 7371POPC   NC352535  42.367   0.479   5.550
 7371POPC   PO452536  42.334   0.481   5.850
 7371POPC   GL152537  42.316   0.417   6.150
 7371POPC   GL252538  42.313   0.527   6.150
 7371POPC   C1A52539  42.374   0.482   6.450
 7371POPC   D2A52540  42.358   0.468   6.750
 7371POPC   C3A52541  42.325   0.487   7.050
 7371POPC   C4A52542  42.377   0.488   7.350
 7371POPC   C1B52543  42.292   0.653   6.450
 7371POPC   C2B52544  42.263   0.702   6.750
 7371POPC   C3B52545  42.275   0.686   7.050
 7371POPC   C4B52546  42.325   0.641   7.350
 7372POPC   NC352547  19.837   2.797   5.550
 7372POPC   PO452548  19.796   2.760   5.850
 7372POPC   GL152549  19.801   2.723   6.150
 7372POPC   GL252550  19.865   2.825   6.150
 7372POPC   C1A52551  19.835   2.728   6.450
 7372POPC   D2A52552  19.881   2.721   6.750
 7372POPC   C3A52553  19.864   2.721   7.050
 7372POPC   C4A52554  19.820   2.793   7.350
 7372POPC   C1B52555  19.980   2.999   6.450
 7372POPC   C2B52556  19.974   2.958   6.750
 7372POPC   C3B52557  19.974   2.988   7.050
 7372POPC   C4B52558  19.968   3.006   7.350
 7373POPC   NC352559  32.258  12.063   5.550
 7373POPC   PO452560  32.282  12.097   5.850
 7373POPC   GL152561  32.281  12.070   6.150
 7373POPC   GL252562  32.082  12.064   6.150
 7373POPC   C1A52563  32.280  12.098   6.450
 7373POPC   D2A52564  32.248  12.036   6.750
 7373POPC   C3A52565  32.261  12.123   7.050
 7373POPC   C4A52566  32.249  12.113   7.350
 7373POPC   C1B52567  32.020  12.057   6.450
 7373POPC   C2B52568  32.011  12.013   6.750
 7373POPC   C3B52569  31.979  12.064   7.050
 7373POPC   C4B52570  32.005  11.993   7.350
 7374POPC   NC352571  41.555  32.984   5.550
 7374POPC   PO452572  41.590  33.049   5.850
 7374POPC   GL152573  41.513  33.023   6.150
 7374POPC   GL252574  41.512  32.892   6.150
 7374POPC   C1A52575  41.555  32.990   6.450
 7374POPC   D2A52576  41.544  33.031   6.750
 7374POPC   C3A52577  41.574  33.004   7.050
 7374POPC   C4A52578  41.602  33.066   7.350
 7374POPC   C1B52579  41.541  32.796   6.450
 7374POPC   C2B52580  41.463  32.775   6.750
 7374POPC   C3B52581  41.534  32.761   7.050
 7374POPC   C4B52582  41.481  32.790   7.350
 7375POPC   NC352583  18.311   4.323   5.550
 7375POPC   PO452584  18.315   4.344   5.850
 7375POPC   GL152585  18.294   4.318   6.150
 7375POPC   GL252586  18.238   4.187   6.150
 7375POPC   C1A52587  18.323   4.351   6.450
 7375POPC   D2A52588  18.328   4.310   6.750
 7375POPC   C3A52589  18.285   4.291   7.050
 7375POPC   C4A52590  18.323   4.339   7.350
 7375POPC   C1B52591  18.201   4.122   6.450
 7375POPC   C2B52592  18.181   4.113   6.750
 7375POPC   C3B52593  18.161   4.047   7.050
 7375POPC   C4B52594  18.176   4.118   7.350
 7376POPC   NC352595  18.323  22.946   5.550
 7376POPC   PO452596  18.301  22.937   5.850
 7376POPC   GL152597  18.287  22.962   6.150
 7376POPC   GL252598  18.251  22.796   6.150
 7376POPC   C1A52599  18.266  22.911   6.450
 7376POPC   D2A52600  18.252  22.903   6.750
 7376POPC   C3A52601  18.308  22.920   7.050
 7376POPC   C4A52602  18.300  22.958   7.350
 7376POPC   C1B52603  18.199  22.719   6.450
 7376POPC   C2B52604  18.261  22.725   6.750
 7376POPC   C3B52605  18.286  22.693   7.050
 7376POPC   C4B52606  18.209  22.688   7.350
 7377POPC   NC352607  30.696   8.999   5.550
 7377POPC   PO452608  30.718   8.949   5.850
 7377POPC   GL152609  30.728   8.973   6.150
 7377POPC   GL252610  30.715   9.107   6.150
 7377POPC   C1A52611  30.659   8.942   6.450
 7377POPC   D2A52612  30.669   8.979   6.750
 7377POPC   C3A52613  30.654   8.989   7.050
 7377POPC   C4A52614  30.676   8.935   7.350
 7377POPC   C1B52615  30.710   9.233   6.450
 7377POPC   C2B52616  30.704   9.238   6.750
 7377POPC   C3B52617  30.709   9.168   7.050
 7377POPC   C4B52618  30.732   9.212   7.350
 7378POPC   NC352619  29.944   1.958   5.550
 7378POPC   PO452620  29.922   2.030   5.850
 7378POPC   GL152621  29.892   2.038   6.150
 7378POPC   GL252622  29.973   1.917   6.150
 7378POPC   C1A52623  29.951   1.955   6.450
 7378POPC   D2A52624  29.879   1.964   6.750
 7378POPC   C3A52625  29.946   2.018   7.050
 7378POPC   C4A52626  29.883   2.015   7.350
 7378POPC   C1B52627  30.042   1.792   6.450
 7378POPC   C2B52628  30.031   1.741   6.750
 7378POPC   C3B52629  30.050   1.778   7.050
 7378POPC   C4B52630  30.069   1.744   7.350
 7379POPC   NC352631   1.224  14.401   5.550
 7379POPC   PO452632   1.207  14.433   5.850
 7379POPC   GL152633   1.182  14.359   6.150
 7379POPC   GL252634   1.337  14.388   6.150
 7379POPC   C1A52635   1.233  14.365   6.450
 7379POPC   D2A52636   1.253  14.385   6.750
 7379POPC   C3A52637   1.188  14.436   7.050
 7379POPC   C4A52638   1.201  14.381   7.350
 7379POPC   C1B52639   1.490  14.461   6.450
 7379POPC   C2B52640   1.416  14.412   6.750
 7379POPC   C3B52641   1.460  14.449   7.050
 7379POPC   C4B52642   1.421  14.397   7.350
 7380POPC   NC352643  42.326  19.859   5.550
 7380POPC   PO452644  42.370  19.803   5.850
 7380POPC   GL152645  42.373  19.853   6.150
 7380POPC   GL252646  42.469  19.796   6.150
 7380POPC   C1A52647  42.338  19.835   6.450
 7380POPC   D2A52648  42.334  19.791   6.750
 7380POPC   C3A52649  42.333  19.815   7.050
 7380POPC   C4A52650  42.350  19.836   7.350
 7380POPC   C1B52651  42.525  19.644   6.450
 7380POPC   C2B52652  42.503  19.680   6.750
 7380POPC   C3B52653  42.544  19.652   7.050
 7380POPC   C4B52654  42.531  19.695   7.350
 7381POPC   NC352655  36.931  40.022   5.550
 7381POPC   PO452656  36.921  40.015   5.850
 7381POPC   GL152657  36.874  39.984   6.150
 7381POPC   GL252658  36.780  40.110   6.150
 7381POPC   C1A52659  36.908  40.024   6.450
 7381POPC   D2A52660  36.885  40.020   6.750
 7381POPC   C3A52661  36.925  39.966   7.050
 7381POPC   C4A52662  36.919  39.989   7.350
 7381POPC   C1B52663  36.729  40.115   6.450
 7381POPC   C2B52664  36.687  40.207   6.750
 7381POPC   C3B52665  36.729  40.170   7.050
 7381POPC   C4B52666  36.732  40.192   7.350
 7382POPC   NC352667  27.637   1.229   5.550
 7382POPC   PO452668  27.588   1.260   5.850
 7382POPC   GL152669  27.555   1.262   6.150
 7382POPC   GL252670  27.534   1.293   6.150
 7382POPC   C1A52671  27.616   1.171   6.450
 7382POPC   D2A52672  27.559   1.196   6.750
 7382POPC   C3A52673  27.544   1.216   7.050
 7382POPC   C4A52674  27.632   1.172   7.350
 7382POPC   C1B52675  27.360   1.385   6.450
 7382POPC   C2B52676  27.398   1.310   6.750
 7382POPC   C3B52677  27.383   1.365   7.050
 7382POPC   C4B52678  27.345   1.310   7.350
 7383POPC   NC352679   1.211  22.142   5.550
 7383POPC   PO452680   1.229  22.202   5.850
 7383POPC   GL152681   1.199  22.179   6.150
 7383POPC   GL252682   1.322  22.136   6.150
 7383POPC   C1A52683   1.240  22.156   6.450
 7383POPC   D2A52684   1.246  22.132   6.750
 7383POPC   C3A52685   1.256  22.131   7.050
 7383POPC   C4A52686   1.244  22.128   7.350
 7383POPC   C1B52687   1.454  21.983   6.450
 7383POPC   C2B52688   1.461  22.039   6.750
 7383POPC   C3B52689   1.433  21.974   7.050
 7383POPC   C4B52690   1.406  21.975   7.350
 7384POPC   NC352691  22.132  36.140   5.550
 7384POPC   PO452692  22.138  36.124   5.850
 7384POPC   GL152693  22.128  36.080   6.150
 7384POPC   GL252694  22.252  36.188   6.150
 7384POPC   C1A52695  22.153  36.136   6.450
 7384POPC   D2A52696  22.142  36.078   6.750
 7384POPC   C3A52697  22.195  36.174   7.050
 7384POPC   C4A52698  22.200  36.130   7.350
 7384POPC   C1B52699  22.374  36.203   6.450
 7384POPC   C2B52700  22.374  36.111   6.750
 7384POPC   C3B52701  22.416  36.166   7.050
 7384POPC   C4B52702  22.408  36.176   7.350
 7385POPC   NC352703   8.925  43.899   5.550
 7385POPC   PO452704   8.925  43.890   5.850
 7385POPC   GL152705   8.931  43.856   6.150
 7385POPC   GL252706   8.889  43.991   6.150
 7385POPC   C1A52707   8.972  43.880   6.450
 7385POPC   D2A52708   8.957  43.901   6.750
 7385POPC   C3A52709   8.927  43.907   7.050
 7385POPC   C4A52710   9.008  43.905   7.350
 7385POPC   C1B52711   8.881  44.168   6.450
 7385POPC   C2B52712   8.833  44.135   6.750
 7385POPC   C3B52713   8.852  44.158   7.050
 7385POPC   C4B52714   8.882  44.160   7.350
 7386POPC   NC352715   3.509  37.654   5.550
 7386POPC   PO452716   3.517  37.725   5.850
 7386POPC   GL152717   3.504  37.631   6.150
 7386POPC   GL252718   3.670  37.638   6.150
 7386POPC   C1A52719   3.505  37.657   6.450
 7386POPC   D2A52720   3.573  37.729   6.750
 7386POPC   C3A52721   3.532  37.714   7.050
 7386POPC   C4A52722   3.575  37.671   7.350
 7386POPC   C1B52723   3.831  37.676   6.450
 7386POPC   C2B52724   3.827  37.650   6.750
 7386POPC   C3B52725   3.789  37.711   7.050
 7386POPC   C4B52726   3.758  37.659   7.350
 7387POPC   NC352727  36.921  15.919   5.550
 7387POPC   PO452728  36.912  15.937   5.850
 7387POPC   GL152729  36.880  15.958   6.150
 7387POPC   GL252730  36.994  16.063   6.150
 7387POPC   C1A52731  36.869  15.994   6.450
 7387POPC   D2A52732  36.904  15.922   6.750
 7387POPC   C3A52733  36.892  15.976   7.050
 7387POPC   C4A52734  36.910  15.925   7.350
 7387POPC   C1B52735  37.018  16.132   6.450
 7387POPC   C2B52736  37.065  16.174   6.750
 7387POPC   C3B52737  37.018  16.184   7.050
 7387POPC   C4B52738  37.088  16.191   7.350
 7388POPC   NC352739  29.929  31.508   5.550
 7388POPC   PO452740  29.963  31.461   5.850
 7388POPC   GL152741  29.883  31.513   6.150
 7388POPC   GL252742  29.924  31.385   6.150
 7388POPC   C1A52743  29.913  31.439   6.450
 7388POPC   D2A52744  29.918  31.430   6.750
 7388POPC   C3A52745  29.882  31.515   7.050
 7388POPC   C4A52746  29.873  31.434   7.350
 7388POPC   C1B52747  29.963  31.244   6.450
 7388POPC   C2B52748  29.914  31.182   6.750
 7388POPC   C3B52749  29.992  31.260   7.050
 7388POPC   C4B52750  29.960  31.266   7.350
 7389POPC   NC352751  42.306  41.568   5.550
 7389POPC   PO452752  42.343  41.526   5.850
 7389POPC   GL152753  42.306  41.605   6.150
 7389POPC   GL252754  42.177  41.584   6.150
 7389POPC   C1A52755  42.375  41.531   6.450
 7389POPC   D2A52756  42.354  41.591   6.750
 7389POPC   C3A52757  42.384  41.608   7.050
 7389POPC   C4A52758  42.364  41.582   7.350
 7389POPC   C1B52759  42.153  41.678   6.450
 7389POPC   C2B52760  42.126  41.680   6.750
 7389POPC   C3B52761  42.102  41.622   7.050
 7389POPC   C4B52762  42.082  41.698   7.350
 7390POPC   NC352763  18.283  38.502   5.550
 7390POPC   PO452764  18.273  38.503   5.850
 7390POPC   GL152765  18.318  38.436   6.150
 7390POPC   GL252766  18.306  38.297   6.150
 7390POPC   C1A52767  18.235  38.456   6.450
 7390POPC   D2A52768  18.249  38.418   6.750
 7390POPC   C3A52769  18.288  38.453   7.050
 7390POPC   C4A52770  18.300  38.449   7.350
 7390POPC   C1B52771  18.280  38.159   6.450
 7390POPC   C2B52772  18.314  38.227   6.750
 7390POPC   C3B52773  18.274  38.210   7.050
 7390POPC   C4B52774  18.313  38.192   7.350
 7391POPC   NC352775   0.478   8.950   5.550
 7391POPC   PO452776   0.418   9.007   5.850
 7391POPC   GL152777   0.459   8.965   6.150
 7391POPC   GL252778   0.354   9.068   6.150
 7391POPC   C1A52779   0.434   8.939   6.450
 7391POPC   D2A52780   0.424   8.936   6.750
 7391POPC   C3A52781   0.436   8.991   7.050
 7391POPC   C4A52782   0.481   8.928   7.350
 7391POPC   C1B52783   0.304   9.170   6.450
 7391POPC   C2B52784   0.281   9.106   6.750
 7391POPC   C3B52785   0.313   9.145   7.050
 7391POPC   C4B52786   0.222   9.189   7.350
 7392POPC   NC352787  43.118  29.905   5.550
 7392POPC   PO452788  43.121  29.910   5.850
 7392POPC   GL152789  43.150  29.929   6.150
 7392POPC   GL252790  43.005  29.812   6.150
 7392POPC   C1A52791  43.094  29.876   6.450
 7392POPC   D2A52792  43.110  29.888   6.750
 7392POPC   C3A52793  43.156  29.901   7.050
 7392POPC   C4A52794  43.117  29.940   7.350
 7392POPC   C1B52795  42.848  29.819   6.450
 7392POPC   C2B52796  42.934  29.819   6.750
 7392POPC   C3B52797  42.850  29.773   7.050
 7392POPC   C4B52798  42.889  29.760   7.350
 7393POPC   NC352799  28.341  31.436   5.550
 7393POPC   PO452800  28.338  31.431   5.850
 7393POPC   GL152801  28.364  31.433   6.150
 7393POPC   GL252802  28.481  31.474   6.150
 7393POPC   C1A52803  28.324  31.474   6.450
 7393POPC   D2A52804  28.371  31.455   6.750
 7393POPC   C3A52805  28.390  31.430   7.050
 7393POPC   C4A52806  28.331  31.424   7.350
 7393POPC   C1B52807  28.577  31.402   6.450
 7393POPC   C2B52808  28.570  31.410   6.750
 7393POPC   C3B52809  28.567  31.393   7.050
 7393POPC   C4B52810  28.651  31.418   7.350
 7394POPC   NC352811  27.631  24.522   5.550
 7394POPC   PO452812  27.549  24.535   5.850
 7394POPC   GL152813  27.559  24.530   6.150
 7394POPC   GL252814  27.706  24.569   6.150
 7394POPC   C1A52815  27.577  24.464   6.450
 7394POPC   D2A52816  27.562  24.505   6.750
 7394POPC   C3A52817  27.574  24.513   7.050
 7394POPC   C4A52818  27.561  24.529   7.350
 7394POPC   C1B52819  27.844  24.601   6.450
 7394POPC   C2B52820  27.843  24.605   6.750
 7394POPC   C3B52821  27.830  24.641   7.050
 7394POPC   C4B52822  27.784  24.648   7.350
 7395POPC   NC352823  29.144  14.369   5.550
 7395POPC   PO452824  29.122  14.421   5.850
 7395POPC   GL152825  29.183  14.374   6.150
 7395POPC   GL252826  29.193  14.268   6.150
 7395POPC   C1A52827  29.184  14.395   6.450
 7395POPC   D2A52828  29.162  14.387   6.750
 7395POPC   C3A52829  29.150  14.451   7.050
 7395POPC   C4A52830  29.168  14.448   7.350
 7395POPC   C1B52831  29.199  14.139   6.450
 7395POPC   C2B52832  29.239  14.203   6.750
 7395POPC   C3B52833  29.204  14.144   7.050
 7395POPC   C4B52834  29.225  14.191   7.350
 7396POPC   NC352835  37.725  42.383   5.550
 7396POPC   PO452836  37.684  42.342   5.850
 7396POPC   GL152837  37.704  42.324   6.150
 7396POPC   GL252838  37.527  42.424   6.150
 7396POPC   C1A52839  37.649  42.287   6.450
 7396POPC   D2A52840  37.645  42.363   6.750
 7396POPC   C3A52841  37.685  42.329   7.050
 7396POPC   C4A52842  37.648  42.374   7.350
 7396POPC   C1B52843  37.456  42.413   6.450
 7396POPC   C2B52844  37.413  42.391   6.750
 7396POPC   C3B52845  37.485  42.383   7.050
 7396POPC   C4B52846  37.407  42.446   7.350
 7397POPC   NC352847  32.292  29.904   5.550
 7397POPC   PO452848  32.207  29.905   5.850
 7397POPC   GL152849  32.291  29.924   6.150
 7397POPC   GL252850  32.347  30.009   6.150
 7397POPC   C1A52851  32.207  29.909   6.450
 7397POPC   D2A52852  32.250  29.970   6.750
 7397POPC   C3A52853  32.290  29.939   7.050
 7397POPC   C4A52854  32.282  29.887   7.350
 7397POPC   C1B52855  32.403  30.054   6.450
 7397POPC   C2B52856  32.442  30.120   6.750
 7397POPC   C3B52857  32.470  30.091   7.050
 7397POPC   C4B52858  32.483  30.045   7.350
 7398POPC   NC352859  11.309  20.604   5.550
 7398POPC   PO452860  11.335  20.585   5.850
 7398POPC   GL152861  11.323  20.598   6.150
 7398POPC   GL252862  11.271  20.450   6.150
 7398POPC   C1A52863  11.301  20.659   6.450
 7398POPC   D2A52864  11.315  20.642   6.750
 7398POPC   C3A52865  11.288  20.608   7.050
 7398POPC   C4A52866  11.281  20.609   7.350
 7398POPC   C1B52867  11.373  20.363   6.450
 7398POPC   C2B52868  11.352  20.404   6.750
 7398POPC   C3B52869  11.297  20.328   7.050
 7398POPC   C4B52870  11.309  20.376   7.350
 7399POPC   NC352871   0.474  41.521   5.550
 7399POPC   PO452872   0.465  41.532   5.850
 7399POPC   GL152873   0.408  41.511   6.150
 7399POPC   GL252874   0.412  41.455   6.150
 7399POPC   C1A52875   0.450  41.551   6.450
 7399POPC   D2A52876   0.482  41.588   6.750
 7399POPC   C3A52877   0.432  41.550   7.050
 7399POPC   C4A52878   0.480  41.582   7.350
 7399POPC   C1B52879   0.251  41.334   6.450
 7399POPC   C2B52880   0.334  41.390   6.750
 7399POPC   C3B52881   0.277  41.358   7.050
 7399POPC   C4B52882   0.251  41.334   7.350
 7400POPC   NC352883  15.157  36.137   5.550
 7400POPC   PO452884  15.180  36.173   5.850
 7400POPC   GL152885  15.223  36.164   6.150
 7400POPC   GL252886  15.198  35.971   6.150
 7400POPC   C1A52887  15.171  36.155   6.450
 7400POPC   D2A52888  15.144  36.125   6.750
 7400POPC   C3A52889  15.193  36.105   7.050
 7400POPC   C4A52890  15.178  36.116   7.350
 7400POPC   C1B52891  15.330  35.882   6.450
 7400POPC   C2B52892  15.330  35.890   6.750
 7400POPC   C3B52893  15.300  35.898   7.050
 7400POPC   C4B52894  15.341  35.918   7.350
 7401POPC   NC352895  26.815  29.906   5.550
 7401POPC   PO452896  26.779  29.937   5.850
 7401POPC   GL152897  26.795  29.943   6.150
 7401POPC   GL252898  26.859  30.079   6.150
 7401POPC   C1A52899  26.769  29.955   6.450
 7401POPC   D2A52900  26.835  29.880   6.750
 7401POPC   C3A52901  26.849  29.871   7.050
 7401POPC   C4A52902  26.828  29.959   7.350
 7401POPC   C1B52903  26.828  30.170   6.450
 7401POPC   C2B52904  26.815  30.127   6.750
 7401POPC   C3B52905  26.800  30.159   7.050
 7401POPC   C4B52906  26.795  30.141   7.350
 7402POPC   NC352907   9.703   1.968   5.550
 7402POPC   PO452908   9.714   1.952   5.850
 7402POPC   GL152909   9.753   1.991   6.150
 7402POPC   GL252910   9.835   1.865   6.150
 7402POPC   C1A52911   9.781   1.953   6.450
 7402POPC   D2A52912   9.798   1.963   6.750
 7402POPC   C3A52913   9.780   1.982   7.050
 7402POPC   C4A52914   9.776   1.984   7.350
 7402POPC   C1B52915   9.874   1.742   6.450
 7402POPC   C2B52916   9.910   1.816   6.750
 7402POPC   C3B52917   9.824   1.769   7.050
 7402POPC   C4B52918   9.855   1.766   7.350
 7403POPC   NC352919   4.300  28.402   5.550
 7403POPC   PO452920   4.284  28.381   5.850
 7403POPC   GL152921   4.358  28.392   6.150
 7403POPC   GL252922   4.490  28.374   6.150
 7403POPC   C1A52923   4.302  28.361   6.450
 7403POPC   D2A52924   4.286  28.341   6.750
 7403POPC   C3A52925   4.313  28.388   7.050
 7403POPC   C4A52926   4.275  28.372   7.350
 7403POPC   C1B52927   4.559  28.398   6.450
 7403POPC   C2B52928   4.568  28.429   6.750
 7403POPC   C3B52929   4.553  28.374   7.050
 7403POPC   C4B52930   4.604  28.356   7.350
 7404POPC   NC352931  36.154  31.477   5.550
 7404POPC   PO452932  36.152  31.494   5.850
 7404POPC   GL152933  36.177  31.500   6.150
 7404POPC   GL252934  36.230  31.547   6.150
 7404POPC   C1A52935  36.085  31.463   6.450
 7404POPC   D2A52936  36.099  31.486   6.750
 7404POPC   C3A52937  36.137  31.506   7.050
 7404POPC   C4A52938  36.084  31.474   7.350
 7404POPC   C1B52939  36.345  31.642   6.450
 7404POPC   C2B52940  36.321  31.625   6.750
 7404POPC   C3B52941  36.271  31.617   7.050
 7404POPC   C4B52942  36.344  31.634   7.350
 7405POPC   NC352943  21.350  40.773   5.550
 7405POPC   PO452944  21.339  40.826   5.850
 7405POPC   GL152945  21.344  40.776   6.150
 7405POPC   GL252946  21.405  40.876   6.150
 7405POPC   C1A52947  21.401  40.755   6.450
 7405POPC   D2A52948  21.366  40.824   6.750
 7405POPC   C3A52949  21.390  40.831   7.050
 7405POPC   C4A52950  21.369  40.736   7.350
 7405POPC   C1B52951  21.351  41.063   6.450
 7405POPC   C2B52952  21.336  41.028   6.750
 7405POPC   C3B52953  21.320  40.981   7.050
 7405POPC   C4B52954  21.300  41.013   7.350
 7406POPC   NC352955  19.881  33.794   5.550
 7406POPC   PO452956  19.860  33.769   5.850
 7406POPC   GL152957  19.850  33.762   6.150
 7406POPC   GL252958  19.739  33.926   6.150
 7406POPC   C1A52959  19.833  33.756   6.450
 7406POPC   D2A52960  19.852  33.849   6.750
 7406POPC   C3A52961  19.836  33.795   7.050
 7406POPC   C4A52962  19.873  33.828   7.350
 7406POPC   C1B52963  19.686  34.045   6.450
 7406POPC   C2B52964  19.728  34.023   6.750
 7406POPC   C3B52965  19.686  34.054   7.050
 7406POPC   C4B52966  19.690  34.024   7.350
 7407POPC   NC352967  19.025  29.897   5.550
 7407POPC   PO452968  19.041  29.874   5.850
 7407POPC   GL152969  19.019  29.944   6.150
 7407POPC   GL252970  19.094  29.817   6.150
 7407POPC   C1A52971  19.018  29.931   6.450
 7407POPC   D2A52972  19.030  29.901   6.750
 7407POPC   C3A52973  19.050  29.946   7.050
 7407POPC   C4A52974  19.105  29.883   7.350
 7407POPC   C1B52975  19.213  29.680   6.450
 7407POPC   C2B52976  19.233  29.711   6.750
 7407POPC   C3B52977  19.241  29.709   7.050
 7407POPC   C4B52978  19.263  29.759   7.350
 7408POPC   NC352979  36.858  18.245   5.550
 7408POPC   PO452980  36.911  18.279   5.850
 7408POPC   GL152981  36.879  18.249   6.150
 7408POPC   GL252982  36.818  18.267   6.150
 7408POPC   C1A52983  36.864  18.271   6.450
 7408POPC   D2A52984  36.877  18.288   6.750
 7408POPC   C3A52985  36.894  18.301   7.050
 7408POPC   C4A52986  36.913  18.289   7.350
 7408POPC   C1B52987  36.621  18.300   6.450
 7408POPC   C2B52988  36.604  18.330   6.750
 7408POPC   C3B52989  36.681  18.258   7.050
 7408POPC   C4B52990  36.692  18.332   7.350
 7409POPC   NC352991  22.941  11.299   5.550
 7409POPC   PO452992  22.923  11.339   5.850
 7409POPC   GL152993  22.897  11.317   6.150
 7409POPC   GL252994  23.078  11.303   6.150
 7409POPC   C1A52995  22.924  11.267   6.450
 7409POPC   D2A52996  22.889  11.275   6.750
 7409POPC   C3A52997  22.931  11.278   7.050
 7409POPC   C4A52998  22.926  11.262   7.350
 7409POPC   C1B52999  23.150  11.380   6.450
 7409POPC   C2B53000  23.142  11.393   6.750
 7409POPC   C3B53001  23.220  11.376   7.050
 7409POPC   C4B53002  23.180  11.391   7.350
 7410POPC   NC353003   0.431  24.487   5.550
 7410POPC   PO453004   0.390  24.513   5.850
 7410POPC   GL153005   0.478  24.484   6.150
 7410POPC   GL253006   0.605  24.510   6.150
 7410POPC   C1A53007   0.473  24.445   6.450
 7410POPC   D2A53008   0.398  24.457   6.750
 7410POPC   C3A53009   0.443  24.518   7.050
 7410POPC   C4A53010   0.439  24.489   7.350
 7410POPC   C1B53011   0.698  24.470   6.450
 7410POPC   C2B53012   0.691  24.460   6.750
 7410POPC   C3B53013   0.708  24.494   7.050
 7410POPC   C4B53014   0.670  24.465   7.350
 7411POPC   NC353015  16.717  25.274   5.550
 7411POPC   PO453016  16.706  25.281   5.850
 7411POPC   GL153017  16.696  25.282   6.150
 7411POPC   GL253018  16.880  25.336   6.150
 7411POPC   C1A53019  16.748  25.229   6.450
 7411POPC   D2A53020  16.690  25.270   6.750
 7411POPC   C3A53021  16.695  25.221   7.050
 7411POPC   C4A53022  16.702  25.248   7.350
 7411POPC   C1B53023  16.925  25.352   6.450
 7411POPC   C2B53024  16.966  25.373   6.750
 7411POPC   C3B53025  16.949  25.410   7.050
 7411POPC   C4B53026  16.993  25.376   7.350
 7412POPC   NC353027  34.546  12.823   5.550
 7412POPC   PO453028  34.541  12.837   5.850
 7412POPC   GL153029  34.538  12.869   6.150
 7412POPC   GL253030  34.575  12.986   6.150
 7412POPC   C1A53031  34.594  12.888   6.450
 7412POPC   D2A53032  34.551  12.851   6.750
 7412POPC   C3A53033  34.551  12.901   7.050
 7412POPC   C4A53034  34.598  12.829   7.350
 7412POPC   C1B53035  34.533  13.130   6.450
 7412POPC   C2B53036  34.564  13.054   6.750
 7412POPC   C3B53037  34.549  13.123   7.050
 7412POPC   C4B53038  34.527  13.145   7.350
 7413POPC   NC353039  28.328   3.564   5.550
 7413POPC   PO453040  28.340   3.539   5.850
 7413POPC   GL153041  28.381   3.578   6.150
 7413POPC   GL253042  28.444   3.632   6.150
 7413POPC   C1A53043  28.371   3.559   6.450
 7413POPC   D2A53044  28.415   3.508   6.750
 7413POPC   C3A53045  28.388   3.578   7.050
 7413POPC   C4A53046  28.346   3.534   7.350
 7413POPC   C1B53047  28.530   3.744   6.450
 7413POPC   C2B53048  28.562   3.676   6.750
 7413POPC   C3B53049  28.549   3.740   7.050
 7413POPC   C4B53050  28.515   3.670   7.350
 7414POPC   NC353051  33.817  35.313   5.550
 7414POPC   PO453052  33.815  35.359   5.850
 7414POPC   GL153053  33.816  35.384   6.150
 7414POPC   GL253054  33.701  35.278   6.150
 7414POPC   C1A53055  33.845  35.325   6.450
 7414POPC   D2A53056  33.807  35.312   6.750
 7414POPC   C3A53057  33.826  35.303   7.050
 7414POPC   C4A53058  33.820  35.367   7.350
 7414POPC   C1B53059  33.648  35.221   6.450
 7414POPC   C2B53060  33.628  35.198   6.750
 7414POPC   C3B53061  33.568  35.200   7.050
 7414POPC   C4B53062  33.631  35.153   7.350
 7415POPC   NC353063  23.753  28.394   5.550
 7415POPC   PO453064  23.733  28.375   5.850
 7415POPC   GL153065  23.742  28.353   6.150
 7415POPC   GL253066  23.755  28.455   6.150
 7415POPC   C1A53067  23.712  28.394   6.450
 7415POPC   D2A53068  23.733  28.417   6.750
 7415POPC   C3A53069  23.740  28.331   7.050
 7415POPC   C4A53070  23.756  28.409   7.350
 7415POPC   C1B53071  23.776  28.634   6.450
 7415POPC   C2B53072  23.801  28.629   6.750
 7415POPC   C3B53073  23.850  28.569   7.050
 7415POPC   C4B53074  23.850  28.571   7.350
 7416POPC   NC353075  33.009  20.656   5.550
 7416POPC   PO453076  33.059  20.637   5.850
 7416POPC   GL153077  33.011  20.614   6.150
 7416POPC   GL253078  32.918  20.718   6.150
 7416POPC   C1A53079  33.018  20.609   6.450
 7416POPC   D2A53080  33.033  20.642   6.750
 7416POPC   C3A53081  32.993  20.583   7.050
 7416POPC   C4A53082  33.020  20.659   7.350
 7416POPC   C1B53083  32.801  20.778   6.450
 7416POPC   C2B53084  32.803  20.772   6.750
 7416POPC   C3B53085  32.836  20.792   7.050
 7416POPC   C4B53086  32.874  20.797   7.350
 7417POPC   NC353087  33.841  40.828   5.550
 7417POPC   PO453088  33.822  40.769   5.850
 7417POPC   GL153089  33.821  40.804   6.150
 7417POPC   GL253090  33.831  40.659   6.150
 7417POPC   C1A53091  33.803  40.808   6.450
 7417POPC   D2A53092  33.761  40.776   6.750
 7417POPC   C3A53093  33.802  40.741   7.050
 7417POPC   C4A53094  33.771  40.742   7.350
 7417POPC   C1B53095  33.955  40.546   6.450
 7417POPC   C2B53096  33.953  40.621   6.750
 7417POPC   C3B53097  33.946  40.575   7.050
 7417POPC   C4B53098  33.970  40.625   7.350
 7418POPC   NC353099  22.985   8.179   5.550
 7418POPC   PO453100  22.937   8.226   5.850
 7418POPC   GL153101  22.907   8.155   6.150
 7418POPC   GL253102  22.866   8.349   6.150
 7418POPC   C1A53103  22.976   8.173   6.450
 7418POPC   D2A53104  22.899   8.215   6.750
 7418POPC   C3A53105  22.925   8.162   7.050
 7418POPC   C4A53106  22.944   8.154   7.350
 7418POPC   C1B53107  22.889   8.472   6.450
 7418POPC   C2B53108  22.857   8.397   6.750
 7418POPC   C3B53109  22.889   8.420   7.050
 7418POPC   C4B53110  22.821   8.413   7.350
 7419POPC   NC353111   7.451  20.569   5.550
 7419POPC   PO453112   7.448  20.569   5.850
 7419POPC   GL153113   7.402  20.608   6.150
 7419POPC   GL253114   7.353  20.500   6.150
 7419POPC   C1A53115   7.396  20.632   6.450
 7419POPC   D2A53116   7.412  20.656   6.750
 7419POPC   C3A53117   7.372  20.629   7.050
 7419POPC   C4A53118   7.431  20.591   7.350
 7419POPC   C1B53119   7.347  20.321   6.450
 7419POPC   C2B53120   7.333  20.320   6.750
 7419POPC   C3B53121   7.320  20.329   7.050
 7419POPC   C4B53122   7.398  20.415   7.350
 7420POPC   NC353123   3.530  25.221   5.550
 7420POPC   PO453124   3.569  25.271   5.850
 7420POPC   GL153125   3.526  25.305   6.150
 7420POPC   GL253126   3.682  25.369   6.150
 7420POPC   C1A53127   3.582  25.273   6.450
 7420POPC   D2A53128   3.542  25.260   6.750
 7420POPC   C3A53129   3.498  25.303   7.050
 7420POPC   C4A53130   3.575  25.218   7.350
 7420POPC   C1B53131   3.714  25.427   6.450
 7420POPC   C2B53132   3.784  25.377   6.750
 7420POPC   C3B53133   3.714  25.435   7.050
 7420POPC   C4B53134   3.769  25.375   7.350
 7421POPC   NC353135  44.642  26.810   5.550
 7421POPC   PO453136  44.685  26.804   5.850
 7421POPC   GL153137  44.673  26.806   6.150
 7421POPC   GL253138  44.690  26.872   6.150
 7421POPC   C1A53139  44.680  26.782   6.450
 7421POPC   D2A53140  44.707  26.788   6.750
 7421POPC   C3A53141  44.616  26.860   7.050
 7421POPC   C4A53142  44.705  26.865   7.350
 7421POPC   C1B53143  44.852  26.978   6.450
 7421POPC   C2B53144  44.836  27.057   6.750
 7421POPC   C3B53145  44.790  27.017   7.050
 7421POPC   C4B53146  44.809  27.042   7.350
 7422POPC   NC353147  22.937  37.681   5.550
 7422POPC   PO453148  22.978  37.723   5.850
 7422POPC   GL153149  22.951  37.699   6.150
 7422POPC   GL253150  23.110  37.669   6.150
 7422POPC   C1A53151  22.906  37.722   6.450
 7422POPC   D2A53152  22.970  37.667   6.750
 7422POPC   C3A53153  22.937  37.686   7.050
 7422POPC   C4A53154  22.907  37.723   7.350
 7422POPC   C1B53155  23.144  37.664   6.450
 7422POPC   C2B53156  23.152  37.687   6.750
 7422POPC   C3B53157  23.149  37.667   7.050
 7422POPC   C4B53158  23.203  37.674   7.350
 7423POPC   NC353159   6.665  27.635   5.550
 7423POPC   PO453160   6.604  27.562   5.850
 7423POPC   GL153161   6.616  27.571   6.150
 7423POPC   GL253162   6.772  27.492   6.150
 7423POPC   C1A53163   6.619  27.600   6.450
 7423POPC   D2A53164   6.655  27.641   6.750
 7423POPC   C3A53165   6.690  27.555   7.050
 7423POPC   C4A53166   6.609  27.582   7.350
 7423POPC   C1B53167   6.858  27.488   6.450
 7423POPC   C2B53168   6.892  27.528   6.750
 7423POPC   C3B53169   6.862  27.443   7.050
 7423POPC   C4B53170   6.912  27.466   7.350
 7424POPC   NC353171  18.239  36.888   5.550
 7424POPC   PO453172  18.246  36.917   5.850
 7424POPC   GL153173  18.288  36.940   6.150
 7424POPC   GL253174  18.402  36.848   6.150
 7424POPC   C1A53175  18.245  36.940   6.450
 7424POPC   D2A53176  18.265  36.885   6.750
 7424POPC   C3A53177  18.256  36.862   7.050
 7424POPC   C4A53178  18.291  36.914   7.350
 7424POPC   C1B53179  18.474  36.817   6.450
 7424POPC   C2B53180  18.477  36.791   6.750
 7424POPC   C3B53181  18.505  36.801   7.050
 7424POPC   C4B53182  18.496  36.832   7.350
 7425POPC   NC353183  34.613   8.956   5.550
 7425POPC   PO453184  34.554   8.975   5.850
 7425POPC   GL153185  34.527   8.994   6.150
 7425POPC   GL253186  34.583   8.835   6.150
 7425POPC   C1A53187  34.615   8.984   6.450
 7425POPC   D2A53188  34.612   8.964   6.750
 7425POPC   C3A53189  34.590   8.966   7.050
 7425POPC   C4A53190  34.604   8.935   7.350
 7425POPC   C1B53191  34.585   8.748   6.450
 7425POPC   C2B53192  34.578   8.729   6.750
 7425POPC   C3B53193  34.658   8.699   7.050
 7425POPC   C4B53194  34.605   8.761   7.350
 7426POPC   NC353195   8.176   1.171   5.550
 7426POPC   PO453196   8.154   1.219   5.850
 7426POPC   GL153197   8.188   1.223   6.150
 7426POPC   GL253198   8.365   1.184   6.150
 7426POPC   C1A53199   8.200   1.196   6.450
 7426POPC   D2A53200   8.241   1.212   6.750
 7426POPC   C3A53201   8.156   1.215   7.050
 7426POPC   C4A53202   8.157   1.171   7.350
 7426POPC   C1B53203   8.491   1.197   6.450
 7426POPC   C2B53204   8.491   1.151   6.750
 7426POPC   C3B53205   8.471   1.230   7.050
 7426POPC   C4B53206   8.486   1.152   7.350
 7427POPC   NC353207  35.368  28.407   5.550
 7427POPC   PO453208  35.324  28.343   5.850
 7427POPC   GL153209  35.346  28.399   6.150
 7427POPC   GL253210  35.481  28.395   6.150
 7427POPC   C1A53211  35.347  28.325   6.450
 7427POPC   D2A53212  35.320  28.323   6.750
 7427POPC   C3A53213  35.340  28.391   7.050
 7427POPC   C4A53214  35.368  28.332   7.350
 7427POPC   C1B53215  35.561  28.463   6.450
 7427POPC   C2B53216  35.573  28.444   6.750
 7427POPC   C3B53217  35.551  28.439   7.050
 7427POPC   C4B53218  35.524  28.452   7.350
 7428POPC   NC353219  29.187  19.101   5.550
 7428POPC   PO453220  29.102  19.096   5.850
 7428POPC   GL153221  29.131  19.015   6.150
 7428POPC   GL253222  29.212  19.145   6.150
 7428POPC   C1A53223  29.097  19.072   6.450
 7428POPC   D2A53224  29.146  19.027   6.750
 7428POPC   C3A53225  29.177  19.090   7.050
 7428POPC   C4A53226  29.120  19.077   7.350
 7428POPC   C1B53227  29.140  19.294   6.450
 7428POPC   C2B53228  29.190  19.306   6.750
 7428POPC   C3B53229  29.226  19.343   7.050
 7428POPC   C4B53230  29.156  19.271   7.350
 7429POPC   NC353231   0.467  21.381   5.550
 7429POPC   PO453232   0.443  21.405   5.850
 7429POPC   GL153233   0.413  21.435   6.150
 7429POPC   GL253234   0.506  21.339   6.150
 7429POPC   C1A53235   0.467  21.430   6.450
 7429POPC   D2A53236   0.400  21.412   6.750
 7429POPC   C3A53237   0.435  21.386   7.050
 7429POPC   C4A53238   0.391  21.345   7.350
 7429POPC   C1B53239   0.592  21.208   6.450
 7429POPC   C2B53240   0.578  21.266   6.750
 7429POPC   C3B53241   0.645  21.195   7.050
 7429POPC   C4B53242   0.673  21.270   7.350
 7430POPC   NC353243  36.079  32.234   5.550
 7430POPC   PO453244  36.092  32.213   5.850
 7430POPC   GL153245  36.084  32.223   6.150
 7430POPC   GL253246  36.167  32.105   6.150
 7430POPC   C1A53247  36.106  32.276   6.450
 7430POPC   D2A53248  36.086  32.269   6.750
 7430POPC   C3A53249  36.078  32.251   7.050
 7430POPC   C4A53250  36.082  32.207   7.350
 7430POPC   C1B53251  36.293  32.073   6.450
 7430POPC   C2B53252  36.276  32.037   6.750
 7430POPC   C3B53253  36.284  32.033   7.050
 7430POPC   C4B53254  36.253  32.025   7.350
 7431POPC   NC353255  43.078  34.598   5.550
 7431POPC   PO453256  43.152  34.574   5.850
 7431POPC   GL153257  43.084  34.543   6.150
 7431POPC   GL253258  43.091  34.411   6.150
 7431POPC   C1A53259  43.068  34.564   6.450
 7431POPC   D2A53260  43.118  34.568   6.750
 7431POPC   C3A53261  43.124  34.603   7.050
 7431POPC   C4A53262  43.146  34.536   7.350
 7431POPC   C1B53263  42.985  34.366   6.450
 7431POPC   C2B53264  42.982  34.296   6.750
 7431POPC   C3B53265  43.050  34.325   7.050
 7431POPC   C4B53266  42.995  34.367   7.350
 7432POPC   NC353267  16.690  15.202   5.550
 7432POPC   PO453268  16.719  15.190   5.850
 7432POPC   GL153269  16.705  15.214   6.150
 7432POPC   GL253270  16.780  15.091   6.150
 7432POPC   C1A53271  16.742  15.214   6.450
 7432POPC   D2A53272  16.692  15.149   6.750
 7432POPC   C3A53273  16.713  15.161   7.050
 7432POPC   C4A53274  16.698  15.186   7.350
 7432POPC   C1B53275  16.855  14.971   6.450
 7432POPC   C2B53276  16.943  14.960   6.750
 7432POPC   C3B53277  16.852  14.980   7.050
 7432POPC   C4B53278  16.930  14.981   7.350
 7433POPC   NC353279  43.119  36.114   5.550
 7433POPC   PO453280  43.100  36.140   5.850
 7433POPC   GL153281  43.062  36.156   6.150
 7433POPC   GL253282  43.016  36.163   6.150
 7433POPC   C1A53283  43.134  36.149   6.450
 7433POPC   D2A53284  43.073  36.161   6.750
 7433POPC   C3A53285  43.154  36.142   7.050
 7433POPC   C4A53286  43.116  36.119   7.350
 7433POPC   C1B53287  42.917  36.195   6.450
 7433POPC   C2B53288  42.904  36.211   6.750
 7433POPC   C3B53289  42.869  36.212   7.050
 7433POPC   C4B53290  42.857  36.263   7.350
 7434POPC   NC353291   3.561  12.875   5.550
 7434POPC   PO453292   3.559  12.898   5.850
 7434POPC   GL153293   3.525  12.822   6.150
 7434POPC   GL253294   3.436  12.824   6.150
 7434POPC   C1A53295   3.541  12.857   6.450
 7434POPC   D2A53296   3.574  12.815   6.750
 7434POPC   C3A53297   3.504  12.894   7.050
 7434POPC   C4A53298   3.556  12.816   7.350
 7434POPC   C1B53299   3.310  12.731   6.450
 7434POPC   C2B53300   3.294  12.664   6.750
 7434POPC   C3B53301   3.339  12.675   7.050
 7434POPC   C4B53302   3.296  12.737   7.350
 7435POPC   NC353303  39.223  18.330   5.550
 7435POPC   PO453304  39.200  18.276   5.850
 7435POPC   GL153305  39.257  18.300   6.150
 7435POPC   GL253306  39.327  18.373   6.150
 7435POPC   C1A53307  39.198  18.298   6.450
 7435POPC   D2A53308  39.189  18.273   6.750
 7435POPC   C3A53309  39.271  18.266   7.050
 7435POPC   C4A53310  39.261  18.306   7.350
 7435POPC   C1B53311  39.444  18.493   6.450
 7435POPC   C2B53312  39.459  18.404   6.750
 7435POPC   C3B53313  39.401  18.476   7.050
 7435POPC   C4B53314  39.420  18.421   7.350
 7436POPC   NC353315  34.545  17.484   5.550
 7436POPC   PO453316  34.615  17.548   5.850
 7436POPC   GL153317  34.568  17.549   6.150
 7436POPC   GL253318  34.516  17.422   6.150
 7436POPC   C1A53319  34.619  17.481   6.450
 7436POPC   D2A53320  34.618  17.476   6.750
 7436POPC   C3A53321  34.533  17.537   7.050
 7436POPC   C4A53322  34.581  17.546   7.350
 7436POPC   C1B53323  34.468  17.241   6.450
 7436POPC   C2B53324  34.472  17.261   6.750
 7436POPC   C3B53325  34.516  17.283   7.050
 7436POPC   C4B53326  34.553  17.313   7.350
 7437POPC   NC353327  33.778   2.029   5.550
 7437POPC   PO453328  33.781   1.997   5.850
 7437POPC   GL153329  33.803   1.992   6.150
 7437POPC   GL253330  33.831   2.046   6.150
 7437POPC   C1A53331  33.772   1.984   6.450
 7437POPC   D2A53332  33.763   2.028   6.750
 7437POPC   C3A53333  33.757   2.033   7.050
 7437POPC   C4A53334  33.810   2.014   7.350
 7437POPC   C1B53335  33.992   2.222   6.450
 7437POPC   C2B53336  33.925   2.132   6.750
 7437POPC   C3B53337  33.995   2.184   7.050
 7437POPC   C4B53338  34.005   2.188   7.350
 7438POPC   NC353339  23.685   1.967   5.550
 7438POPC   PO453340  23.705   2.023   5.850
 7438POPC   GL153341  23.692   1.984   6.150
 7438POPC   GL253342  23.675   1.816   6.150
 7438POPC   C1A53343  23.689   2.018   6.450
 7438POPC   D2A53344  23.699   1.973   6.750
 7438POPC   C3A53345  23.720   1.998   7.050
 7438POPC   C4A53346  23.686   2.004   7.350
 7438POPC   C1B53347  23.741   1.739   6.450
 7438POPC   C2B53348  23.767   1.707   6.750
 7438POPC   C3B53349  23.679   1.787   7.050
 7438POPC   C4B53350  23.701   1.690   7.350
 7439POPC   NC353351  40.743  40.009   5.550
 7439POPC   PO453352  40.810  40.020   5.850
 7439POPC   GL153353  40.775  40.049   6.150
 7439POPC   GL253354  40.632  40.023   6.150
 7439POPC   C1A53355  40.805  39.991   6.450
 7439POPC   D2A53356  40.797  40.042   6.750
 7439POPC   C3A53357  40.736  40.049   7.050
 7439POPC   C4A53358  40.813  40.041   7.350
 7439POPC   C1B53359  40.506  39.934   6.450
 7439POPC   C2B53360  40.488  39.977   6.750
 7439POPC   C3B53361  40.559  39.923   7.050
 7439POPC   C4B53362  40.528  39.931   7.350
 7440POPC   NC353363  30.734  19.097   5.550
 7440POPC   PO453364  30.730  19.104   5.850
 7440POPC   GL153365  30.688  19.085   6.150
 7440POPC   GL253366  30.611  18.984   6.150
 7440POPC   C1A53367  30.661  19.036   6.450
 7440POPC   D2A53368  30.718  19.036   6.750
 7440POPC   C3A53369  30.731  19.030   7.050
 7440POPC   C4A53370  30.737  19.015   7.350
 7440POPC   C1B53371  30.510  18.900   6.450
 7440POPC   C2B53372  30.483  18.858   6.750
 7440POPC   C3B53373  30.531  18.846   7.050
 7440POPC   C4B53374  30.474  18.927   7.350
 7441POPC   NC353375  19.813  20.625   5.550
 7441POPC   PO453376  19.847  20.590   5.850
 7441POPC   GL153377  19.865  20.616   6.150
 7441POPC   GL253378  19.949  20.626   6.150
 7441POPC   C1A53379  19.803  20.643   6.450
 7441POPC   D2A53380  19.787  20.611   6.750
 7441POPC   C3A53381  19.798  20.610   7.050
 7441POPC   C4A53382  19.810  20.646   7.350
 7441POPC   C1B53383  20.123  20.698   6.450
 7441POPC   C2B53384  20.058  20.675   6.750
 7441POPC   C3B53385  20.127  20.661   7.050
 7441POPC   C4B53386  20.076  20.617   7.350
 7442POPC   NC353387  43.885  25.283   5.550
 7442POPC   PO453388  43.918  25.288   5.850
 7442POPC   GL153389  43.904  25.313   6.150
 7442POPC   GL253390  43.829  25.313   6.150
 7442POPC   C1A53391  43.836  25.282   6.450
 7442POPC   D2A53392  43.909  25.250   6.750
 7442POPC   C3A53393  43.900  25.243   7.050
 7442POPC   C4A53394  43.923  25.305   7.350
 7442POPC   C1B53395  43.713  25.388   6.450
 7442POPC   C2B53396  43.714  25.388   6.750
 7442POPC   C3B53397  43.680  25.416   7.050
 7442POPC   C4B53398  43.658  25.382   7.350
 7443POPC   NC353399  33.796  15.129   5.550
 7443POPC   PO453400  33.758  15.221   5.850
 7443POPC   GL153401  33.834  15.226   6.150
 7443POPC   GL253402  33.803  15.026   6.150
 7443POPC   C1A53403  33.836  15.134   6.450
 7443POPC   D2A53404  33.848  15.136   6.750
 7443POPC   C3A53405  33.838  15.216   7.050
 7443POPC   C4A53406  33.772  15.161   7.350
 7443POPC   C1B53407  33.846  14.935   6.450
 7443POPC   C2B53408  33.908  14.918   6.750
 7443POPC   C3B53409  33.903  14.936   7.050
 7443POPC   C4B53410  33.902  14.980   7.350
 7444POPC   NC353411  11.340  10.499   5.550
 7444POPC   PO453412  11.341  10.565   5.850
 7444POPC   GL153413  11.338  10.480   6.150
 7444POPC   GL253414  11.184  10.507   6.150
 7444POPC   C1A53415  11.347  10.533   6.450
 7444POPC   D2A53416  11.313  10.533   6.750
 7444POPC   C3A53417  11.267  10.499   7.050
 7444POPC   C4A53418  11.344  10.553   7.350
 7444POPC   C1B53419  11.037  10.452   6.450
 7444POPC   C2B53420  11.085  10.426   6.750
 7444POPC   C3B53421  11.118  10.470   7.050
 7444POPC   C4B53422  11.018  10.436   7.350
 7445POPC   NC353423  28.399   7.415   5.550
 7445POPC   PO453424  28.368   7.454   5.850
 7445POPC   GL153425  28.334   7.389   6.150
 7445POPC   GL253426  28.417   7.320   6.150
 7445POPC   C1A53427  28.386   7.465   6.450
 7445POPC   D2A53428  28.323   7.450   6.750
 7445POPC   C3A53429  28.411   7.403   7.050
 7445POPC   C4A53430  28.334   7.415   7.350
 7445POPC   C1B53431  28.589   7.217   6.450
 7445POPC   C2B53432  28.523   7.248   6.750
 7445POPC   C3B53433  28.528   7.295   7.050
 7445POPC   C4B53434  28.526   7.237   7.350
 7446POPC   NC353435  38.414   2.723   5.550
 7446POPC   PO453436  38.494   2.762   5.850
 7446POPC   GL153437  38.442   2.775   6.150
 7446POPC   GL253438  38.352   2.898   6.150
 7446POPC   C1A53439  38.431   2.745   6.450
 7446POPC   D2A53440  38.491   2.801   6.750
 7446POPC   C3A53441  38.472   2.752   7.050
 7446POPC   C4A53442  38.486   2.779   7.350
 7446POPC   C1B53443  38.301   3.032   6.450
 7446POPC   C2B53444  38.294   2.986   6.750
 7446POPC   C3B53445  38.336   2.958   7.050
 7446POPC   C4B53446  38.377   2.958   7.350
 7447POPC   NC353447  31.512  19.846   5.550
 7447POPC   PO453448  31.423  19.802   5.850
 7447POPC   GL153449  31.481  19.785   6.150
 7447POPC   GL253450  31.310  19.889   6.150
 7447POPC   C1A53451  31.510  19.824   6.450
 7447POPC   D2A53452  31.481  19.826   6.750
 7447POPC   C3A53453  31.452  19.836   7.050
 7447POPC   C4A53454  31.516  19.879   7.350
 7447POPC   C1B53455  31.241  19.923   6.450
 7447POPC   C2B53456  31.212  19.855   6.750
 7447POPC   C3B53457  31.245  19.934   7.050
 7447POPC   C4B53458  31.229  19.899   7.350
 7448POPC   NC353459  39.990  33.036   5.550
 7448POPC   PO453460  39.994  32.977   5.850
 7448POPC   GL153461  40.004  33.026   6.150
 7448POPC   GL253462  40.027  33.153   6.150
 7448POPC   C1A53463  40.025  33.062   6.450
 7448POPC   D2A53464  39.990  33.034   6.750
 7448POPC   C3A53465  40.023  33.020   7.050
 7448POPC   C4A53466  39.991  33.057   7.350
 7448POPC   C1B53467  40.130  33.298   6.450
 7448POPC   C2B53468  40.116  33.251   6.750
 7448POPC   C3B53469  40.087  33.241   7.050
 7448POPC   C4B53470  40.152  33.252   7.350
 7449POPC   NC353471  17.556  10.487   5.550
 7449POPC   PO453472  17.531  10.532   5.850
 7449POPC   GL153473  17.473  10.535   6.150
 7449POPC   GL253474  17.607  10.433   6.150
 7449POPC   C1A53475  17.536  10.517   6.450
 7449POPC   D2A53476  17.461  10.509   6.750
 7449POPC   C3A53477  17.466  10.489   7.050
 7449POPC   C4A53478  17.490  10.480   7.350
 7449POPC   C1B53479  17.600  10.336   6.450
 7449POPC   C2B53480  17.655  10.284   6.750
 7449POPC   C3B53481  17.619  10.256   7.050
 7449POPC   C4B53482  17.619  10.348   7.350
 7450POPC   NC353483  42.381  17.542   5.550
 7450POPC   PO453484  42.316  17.468   5.850
 7450POPC   GL153485  42.331  17.526   6.150
 7450POPC   GL253486  42.256  17.508   6.150
 7450POPC   C1A53487  42.290  17.501   6.450
 7450POPC   D2A53488  42.367  17.466   6.750
 7450POPC   C3A53489  42.342  17.501   7.050
 7450POPC   C4A53490  42.289  17.537   7.350
 7450POPC   C1B53491  42.079  17.500   6.450
 7450POPC   C2B53492  42.100  17.471   6.750
 7450POPC   C3B53493  42.078  17.451   7.050
 7450POPC   C4B53494  42.138  17.492   7.350
 7451POPC   NC353495   2.787  30.744   5.550
 7451POPC   PO453496   2.787  30.713   5.850
 7451POPC   GL153497   2.751  30.742   6.150
 7451POPC   GL253498   2.745  30.769   6.150
 7451POPC   C1A53499   2.751  30.677   6.450
 7451POPC   D2A53500   2.789  30.655   6.750
 7451POPC   C3A53501   2.757  30.655   7.050
 7451POPC   C4A53502   2.786  30.698   7.350
 7451POPC   C1B53503   2.671  30.965   6.450
 7451POPC   C2B53504   2.685  30.972   6.750
 7451POPC   C3B53505   2.703  30.950   7.050
 7451POPC   C4B53506   2.702  30.898   7.350
 7452POPC   NC353507   6.685   1.222   5.550
 7452POPC   PO453508   6.695   1.215   5.850
 7452POPC   GL153509   6.628   1.245   6.150
 7452POPC   GL253510   6.729   1.298   6.150
 7452POPC   C1A53511   6.664   1.185   6.450
 7452POPC   D2A53512   6.636   1.178   6.750
 7452POPC   C3A53513   6.596   1.207   7.050
 7452POPC   C4A53514   6.626   1.184   7.350
 7452POPC   C1B53515   6.883   1.296   6.450
 7452POPC   C2B53516   6.824   1.314   6.750
 7452POPC   C3B53517   6.812   1.342   7.050
 7452POPC   C4B53518   6.908   1.303   7.350
 7453POPC   NC353519  43.160  15.990   5.550
 7453POPC   PO453520  43.077  15.957   5.850
 7453POPC   GL153521  43.131  15.936   6.150
 7453POPC   GL253522  43.170  16.054   6.150
 7453POPC   C1A53523  43.072  15.976   6.450
 7453POPC   D2A53524  43.083  15.951   6.750
 7453POPC   C3A53525  43.138  15.935   7.050
 7453POPC   C4A53526  43.139  15.973   7.350
 7453POPC   C1B53527  43.220  16.195   6.450
 7453POPC   C2B53528  43.178  16.208   6.750
 7453POPC   C3B53529  43.243  16.169   7.050
 7453POPC   C4B53530  43.217  16.205   7.350
 7454POPC   NC353531   1.190  33.018   5.550
 7454POPC   PO453532   1.213  33.054   5.850
 7454POPC   GL153533   1.250  33.027   6.150
 7454POPC   GL253534   1.340  33.129   6.150
 7454POPC   C1A53535   1.190  33.053   6.450
 7454POPC   D2A53536   1.262  32.977   6.750
 7454POPC   C3A53537   1.172  33.001   7.050
 7454POPC   C4A53538   1.173  33.028   7.350
 7454POPC   C1B53539   1.348  33.206   6.450
 7454POPC   C2B53540   1.435  33.153   6.750
 7454POPC   C3B53541   1.345  33.224   7.050
 7454POPC   C4B53542   1.415  33.237   7.350
 7455POPC   NC353543   2.037  24.513   5.550
 7455POPC   PO453544   2.015  24.477   5.850
 7455POPC   GL153545   1.974  24.496   6.150
 7455POPC   GL253546   1.980  24.375   6.150
 7455POPC   C1A53547   1.948  24.470   6.450
 7455POPC   D2A53548   1.960  24.492   6.750
 7455POPC   C3A53549   1.984  24.528   7.050
 7455POPC   C4A53550   1.960  24.460   7.350
 7455POPC   C1B53551   1.894  24.303   6.450
 7455POPC   C2B53552   1.913  24.225   6.750
 7455POPC   C3B53553   1.830  24.300   7.050
 7455POPC   C4B53554   1.848  24.250   7.350
 7456POPC   NC353555  40.043   5.106   5.550
 7456POPC   PO453556  40.048   5.131   5.850
 7456POPC   GL153557  40.015   5.074   6.150
 7456POPC   GL253558  40.000   5.013   6.150
 7456POPC   C1A53559  39.976   5.088   6.450
 7456POPC   D2A53560  39.973   5.133   6.750
 7456POPC   C3A53561  40.003   5.140   7.050
 7456POPC   C4A53562  40.023   5.053   7.350
 7456POPC   C1B53563  39.889   4.828   6.450
 7456POPC   C2B53564  39.844   4.902   6.750
 7456POPC   C3B53565  39.930   4.888   7.050
 7456POPC   C4B53566  39.888   4.893   7.350
 7457POPC   NC353567  42.346  20.595   5.550
 7457POPC   PO453568  42.364  20.630   5.850
 7457POPC   GL153569  42.344  20.599   6.150
 7457POPC   GL253570  42.266  20.644   6.150
 7457POPC   C1A53571  42.355  20.578   6.450
 7457POPC   D2A53572  42.354  20.589   6.750
 7457POPC   C3A53573  42.348  20.605   7.050
 7457POPC   C4A53574  42.316  20.565   7.350
 7457POPC   C1B53575  42.094  20.732   6.450
 7457POPC   C2B53576  42.138  20.804   6.750
 7457POPC   C3B53577  42.138  20.803   7.050
 7457POPC   C4B53578  42.124  20.733   7.350
 7458POPC   NC353579   4.298  34.536   5.550
 7458POPC   PO453580   4.320  34.554   5.850
 7458POPC   GL153581   4.311  34.550   6.150
 7458POPC   GL253582   4.362  34.449   6.150
 7458POPC   C1A53583   4.344  34.611   6.450
 7458POPC   D2A53584   4.345  34.615   6.750
 7458POPC   C3A53585   4.334  34.622   7.050
 7458POPC   C4A53586   4.325  34.526   7.350
 7458POPC   C1B53587   4.362  34.392   6.450
 7458POPC   C2B53588   4.456  34.346   6.750
 7458POPC   C3B53589   4.454  34.328   7.050
 7458POPC   C4B53590   4.441  34.387   7.350
 7459POPC   NC353591   1.189  17.528   5.550
 7459POPC   PO453592   1.225  17.483   5.850
 7459POPC   GL153593   1.199  17.528   6.150
 7459POPC   GL253594   1.134  17.497   6.150
 7459POPC   C1A53595   1.260  17.530   6.450
 7459POPC   D2A53596   1.195  17.504   6.750
 7459POPC   C3A53597   1.198  17.546   7.050
 7459POPC   C4A53598   1.169  17.465   7.350
 7459POPC   C1B53599   0.953  17.406   6.450
 7459POPC   C2B53600   0.941  17.442   6.750
 7459POPC   C3B53601   0.949  17.463   7.050
 7459POPC   C4B53602   1.022  17.444   7.350
 7460POPC   NC353603  42.368  42.373   5.550
 7460POPC   PO453604  42.285  42.298   5.850
 7460POPC   GL153605  42.384  42.319   6.150
 7460POPC   GL253606  42.175  42.382   6.150
 7460POPC   C1A53607  42.299  42.346   6.450
 7460POPC   D2A53608  42.307  42.350   6.750
 7460POPC   C3A53609  42.335  42.318   7.050
 7460POPC   C4A53610  42.344  42.344   7.350
 7460POPC   C1B53611  42.123  42.382   6.450
 7460POPC   C2B53612  42.045  42.351   6.750
 7460POPC   C3B53613  42.061  42.345   7.050
 7460POPC   C4B53614  42.105  42.380   7.350
 7461POPC   NC353615  29.127   5.907   5.550
 7461POPC   PO453616  29.103   5.873   5.850
 7461POPC   GL153617  29.159   5.829   6.150
 7461POPC   GL253618  29.214   5.753   6.150
 7461POPC   C1A53619  29.128   5.871   6.450
 7461POPC   D2A53620  29.179   5.845   6.750
 7461POPC   C3A53621  29.143   5.847   7.050
 7461POPC   C4A53622  29.126   5.869   7.350
 7461POPC   C1B53623  29.226   5.621   6.450
 7461POPC   C2B53624  29.171   5.656   6.750
 7461POPC   C3B53625  29.165   5.627   7.050
 7461POPC   C4B53626  29.224   5.607   7.350
 7462POPC   NC353627  27.579  42.311   5.550
 7462POPC   PO453628  27.568  42.374   5.850
 7462POPC   GL153629  27.637  42.311   6.150
 7462POPC   GL253630  27.516  42.245   6.150
 7462POPC   C1A53631  27.622  42.331   6.450
 7462POPC   D2A53632  27.562  42.328   6.750
 7462POPC   C3A53633  27.583  42.341   7.050
 7462POPC   C4A53634  27.625  42.382   7.350
 7462POPC   C1B53635  27.504  42.075   6.450
 7462POPC   C2B53636  27.522  42.100   6.750
 7462POPC   C3B53637  27.550  42.135   7.050
 7462POPC   C4B53638  27.522  42.113   7.350
 7463POPC   NC353639  40.769  12.818   5.550
 7463POPC   PO453640  40.803  12.876   5.850
 7463POPC   GL153641  40.743  12.869   6.150
 7463POPC   GL253642  40.706  12.724   6.150
 7463POPC   C1A53643  40.795  12.823   6.450
 7463POPC   D2A53644  40.756  12.816   6.750
 7463POPC   C3A53645  40.771  12.876   7.050
 7463POPC   C4A53646  40.744  12.879   7.350
 7463POPC   C1B53647  40.624  12.691   6.450
 7463POPC   C2B53648  40.578  12.671   6.750
 7463POPC   C3B53649  40.619  12.701   7.050
 7463POPC   C4B53650  40.589  12.661   7.350
 7464POPC   NC353651  16.693   1.217   5.550
 7464POPC   PO453652  16.693   1.182   5.850
 7464POPC   GL153653  16.733   1.242   6.150
 7464POPC   GL253654  16.614   1.148   6.150
 7464POPC   C1A53655  16.725   1.183   6.450
 7464POPC   D2A53656  16.729   1.191   6.750
 7464POPC   C3A53657  16.705   1.172   7.050
 7464POPC   C4A53658  16.702   1.241   7.350
 7464POPC   C1B53659  16.518   1.077   6.450
 7464POPC   C2B53660  16.515   1.109   6.750
 7464POPC   C3B53661  16.526   1.050   7.050
 7464POPC   C4B53662  16.526   1.049   7.350
 7465POPC   NC353663  15.156  19.032   5.550
 7465POPC   PO453664  15.143  19.011   5.850
 7465POPC   GL153665  15.167  19.073   6.150
 7465POPC   GL253666  15.034  19.036   6.150
 7465POPC   C1A53667  15.212  19.084   6.450
 7465POPC   D2A53668  15.217  19.083   6.750
 7465POPC   C3A53669  15.177  19.085   7.050
 7465POPC   C4A53670  15.225  19.051   7.350
 7465POPC   C1B53671  14.925  19.063   6.450
 7465POPC   C2B53672  14.899  19.055   6.750
 7465POPC   C3B53673  14.932  18.980   7.050
 7465POPC   C4B53674  14.884  19.038   7.350
 7466POPC   NC353675  17.464   8.154   5.550
 7466POPC   PO453676  17.523   8.216   5.850
 7466POPC   GL153677  17.494   8.157   6.150
 7466POPC   GL253678  17.577   8.305   6.150
 7466POPC   C1A53679  17.525   8.242   6.450
 7466POPC   D2A53680  17.540   8.153   6.750
 7466POPC   C3A53681  17.475   8.181   7.050
 7466POPC   C4A53682  17.477   8.227   7.350
 7466POPC   C1B53683  17.564   8.413   6.450
 7466POPC   C2B53684  17.538   8.424   6.750
 7466POPC   C3B53685  17.563   8.452   7.050
 7466POPC   C4B53686  17.511   8.437   7.350
 7467POPC   NC353687  15.175  22.197   5.550
 7467POPC   PO453688  15.219  22.200   5.850
 7467POPC   GL153689  15.229  22.201   6.150
 7467POPC   GL253690  15.114  22.053   6.150
 7467POPC   C1A53691  15.220  22.175   6.450
 7467POPC   D2A53692  15.179  22.179   6.750
 7467POPC   C3A53693  15.207  22.130   7.050
 7467POPC   C4A53694  15.136  22.158   7.350
 7467POPC   C1B53695  14.994  21.983   6.450
 7467POPC   C2B53696  15.038  22.005   6.750
 7467POPC   C3B53697  14.968  21.968   7.050
 7467POPC   C4B53698  15.029  22.039   7.350
 7468POPC   NC353699  19.864  19.061   5.550
 7468POPC   PO453700  19.829  19.089   5.850
 7468POPC   GL153701  19.787  19.062   6.150
 7468POPC   GL253702  19.918  19.017   6.150
 7468POPC   C1A53703  19.793  19.101   6.450
 7468POPC   D2A53704  19.818  19.095   6.750
 7468POPC   C3A53705  19.837  19.038   7.050
 7468POPC   C4A53706  19.853  19.038   7.350
 7468POPC   C1B53707  19.999  18.964   6.450
 7468POPC   C2B53708  20.080  18.954   6.750
 7468POPC   C3B53709  20.026  18.919   7.050
 7468POPC   C4B53710  20.078  18.934   7.350
 7469POPC   NC353711  32.209  17.515   5.550
 7469POPC   PO453712  32.249  17.499   5.850
 7469POPC   GL153713  32.287  17.461   6.150
 7469POPC   GL253714  32.306  17.623   6.150
 7469POPC   C1A53715  32.200  17.517   6.450
 7469POPC   D2A53716  32.223  17.494   6.750
 7469POPC   C3A53717  32.289  17.486   7.050
 7469POPC   C4A53718  32.283  17.498   7.350
 7469POPC   C1B53719  32.326  17.786   6.450
 7469POPC   C2B53720  32.237  17.783   6.750
 7469POPC   C3B53721  32.329  17.733   7.050
 7469POPC   C4B53722  32.283  17.724   7.350
 7470POPC   NC353723  31.515  15.937   5.550
 7470POPC   PO453724  31.477  15.932   5.850
 7470POPC   GL153725  31.456  15.905   6.150
 7470POPC   GL253726  31.451  15.845   6.150
 7470POPC   C1A53727  31.447  15.912   6.450
 7470POPC   D2A53728  31.432  15.989   6.750
 7470POPC   C3A53729  31.446  15.951   7.050
 7470POPC   C4A53730  31.464  15.910   7.350
 7470POPC   C1B53731  31.355  15.682   6.450
 7470POPC   C2B53732  31.400  15.718   6.750
 7470POPC   C3B53733  31.396  15.732   7.050
 7470POPC   C4B53734  31.335  15.763   7.350
 7471POPC   NC353735  34.618  16.720   5.550
 7471POPC   PO453736  34.549  16.690   5.850
 7471POPC   GL153737  34.622  16.769   6.150
 7471POPC   GL253738  34.425  16.650   6.150
 7471POPC   C1A53739  34.584  16.763   6.450
 7471POPC   D2A53740  34.599  16.755   6.750
 7471POPC   C3A53741  34.601  16.759   7.050
 7471POPC   C4A53742  34.545  16.730   7.350
 7471POPC   C1B53743  34.331  16.590   6.450
 7471POPC   C2B53744  34.343  16.595   6.750
 7471POPC   C3B53745  34.319  16.577   7.050
 7471POPC   C4B53746  34.306  16.627   7.350
 7472POPC   NC353747  12.042  43.072   5.550
 7472POPC   PO453748  12.039  43.148   5.850
 7472POPC   GL153749  12.063  43.109   6.150
 7472POPC   GL253750  11.992  43.176   6.150
 7472POPC   C1A53751  12.095  43.095   6.450
 7472POPC   D2A53752  12.125  43.130   6.750
 7472POPC   C3A53753  12.044  43.158   7.050
 7472POPC   C4A53754  12.048  43.075   7.350
 7472POPC   C1B53755  11.846  43.272   6.450
 7472POPC   C2B53756  11.858  43.222   6.750
 7472POPC   C3B53757  11.833  43.192   7.050
 7472POPC   C4B53758  11.874  43.289   7.350
 7473POPC   NC353759  38.472  23.719   5.550
 7473POPC   PO453760  38.499  23.744   5.850
 7473POPC   GL153761  38.459  23.742   6.150
 7473POPC   GL253762  38.608  23.773   6.150
 7473POPC   C1A53763  38.491  23.691   6.450
 7473POPC   D2A53764  38.500  23.749   6.750
 7473POPC   C3A53765  38.446  23.747   7.050
 7473POPC   C4A53766  38.422  23.738   7.350
 7473POPC   C1B53767  38.699  23.818   6.450
 7473POPC   C2B53768  38.713  23.742   6.750
 7473POPC   C3B53769  38.744  23.764   7.050
 7473POPC   C4B53770  38.731  23.782   7.350
 7474POPC   NC353771   5.111   0.467   5.550
 7474POPC   PO453772   5.083   0.443   5.850
 7474POPC   GL153773   5.108   0.393   6.150
 7474POPC   GL253774   4.978   0.393   6.150
 7474POPC   C1A53775   5.072   0.399   6.450
 7474POPC   D2A53776   5.104   0.455   6.750
 7474POPC   C3A53777   5.127   0.422   7.050
 7474POPC   C4A53778   5.085   0.419   7.350
 7474POPC   C1B53779   4.836   0.309   6.450
 7474POPC   C2B53780   4.860   0.304   6.750
 7474POPC   C3B53781   4.906   0.393   7.050
 7474POPC   C4B53782   4.848   0.320   7.350
 7475POPC   NC353783  29.146   8.941   5.550
 7475POPC   PO453784  29.193   9.009   5.850
 7475POPC   GL153785  29.149   8.964   6.150
 7475POPC   GL253786  28.990   9.015   6.150
 7475POPC   C1A53787  29.172   8.950   6.450
 7475POPC   D2A53788  29.102   8.957   6.750
 7475POPC   C3A53789  29.156   8.960   7.050
 7475POPC   C4A53790  29.152   8.979   7.350
 7475POPC   C1B53791  28.879   9.013   6.450
 7475POPC   C2B53792  28.909   9.036   6.750
 7475POPC   C3B53793  28.923   9.004   7.050
 7475POPC   C4B53794  28.919   9.021   7.350
 7476POPC   NC353795   6.635  43.881   5.550
 7476POPC   PO453796   6.606  43.890   5.850
 7476POPC   GL153797   6.672  43.846   6.150
 7476POPC   GL253798   6.702  43.804   6.150
 7476POPC   C1A53799   6.632  43.849   6.450
 7476POPC   D2A53800   6.601  43.923   6.750
 7476POPC   C3A53801   6.642  43.888   7.050
 7476POPC   C4A53802   6.678  43.842   7.350
 7476POPC   C1B53803   6.783  43.665   6.450
 7476POPC   C2B53804   6.783  43.616   6.750
 7476POPC   C3B53805   6.773  43.686   7.050
 7476POPC   C4B53806   6.725  43.617   7.350
 7477POPC   NC353807   9.731  18.327   5.550
 7477POPC   PO453808   9.740  18.312   5.850
 7477POPC   GL153809   9.754  18.314   6.150
 7477POPC   GL253810   9.675  18.309   6.150
 7477POPC   C1A53811   9.773  18.241   6.450
 7477POPC   D2A53812   9.787  18.303   6.750
 7477POPC   C3A53813   9.781  18.255   7.050
 7477POPC   C4A53814   9.716  18.253   7.350
 7477POPC   C1B53815   9.550  18.406   6.450
 7477POPC   C2B53816   9.554  18.352   6.750
 7477POPC   C3B53817   9.532  18.370   7.050
 7477POPC   C4B53818   9.547  18.367   7.350
 7478POPC   NC353819  15.907  25.303   5.550
 7478POPC   PO453820  15.974  25.297   5.850
 7478POPC   GL153821  15.948  25.253   6.150
 7478POPC   GL253822  15.888  25.318   6.150
 7478POPC   C1A53823  15.989  25.281   6.450
 7478POPC   D2A53824  16.003  25.294   6.750
 7478POPC   C3A53825  15.971  25.282   7.050
 7478POPC   C4A53826  16.003  25.295   7.350
 7478POPC   C1B53827  15.765  25.417   6.450
 7478POPC   C2B53828  15.734  25.430   6.750
 7478POPC   C3B53829  15.825  25.490   7.050
 7478POPC   C4B53830  15.759  25.420   7.350
 7479POPC   NC353831   6.608  35.302   5.550
 7479POPC   PO453832   6.680  35.350   5.850
 7479POPC   GL153833   6.644  35.394   6.150
 7479POPC   GL253834   6.676  35.491   6.150
 7479POPC   C1A53835   6.595  35.396   6.450
 7479POPC   D2A53836   6.618  35.335   6.750
 7479POPC   C3A53837   6.641  35.328   7.050
 7479POPC   C4A53838   6.623  35.380   7.350
 7479POPC   C1B53839   6.820  35.593   6.450
 7479POPC   C2B53840   6.787  35.523   6.750
 7479POPC   C3B53841   6.821  35.521   7.050
 7479POPC   C4B53842   6.793  35.596   7.350
 7480POPC   NC353843  10.563  14.398   5.550
 7480POPC   PO453844  10.489  14.413   5.850
 7480POPC   GL153845  10.492  14.453   6.150
 7480POPC   GL253846  10.504  14.566   6.150
 7480POPC   C1A53847  10.554  14.424   6.450
 7480POPC   D2A53848  10.514  14.425   6.750
 7480POPC   C3A53849  10.520  14.412   7.050
 7480POPC   C4A53850  10.552  14.446   7.350
 7480POPC   C1B53851  10.393  14.606   6.450
 7480POPC   C2B53852  10.437  14.599   6.750
 7480POPC   C3B53853  10.414  14.590   7.050
 7480POPC   C4B53854  10.417  14.593   7.350
 7481POPC   NC353855  23.756  31.491   5.550
 7481POPC   PO453856  23.733  31.440   5.850
 7481POPC   GL153857  23.671  31.506   6.150
 7481POPC   GL253858  23.716  31.333   6.150
 7481POPC   C1A53859  23.691  31.506   6.450
 7481POPC   D2A53860  23.690  31.487   6.750
 7481POPC   C3A53861  23.748  31.455   7.050
 7481POPC   C4A53862  23.680  31.520   7.350
 7481POPC   C1B53863  23.660  31.221   6.450
 7481POPC   C2B53864  23.649  31.223   6.750
 7481POPC   C3B53865  23.644  31.275   7.050
 7481POPC   C4B53866  23.638  31.266   7.350
 7482POPC   NC353867   0.428  27.544   5.550
 7482POPC   PO453868   0.480  27.587   5.850
 7482POPC   GL153869   0.405  27.570   6.150
 7482POPC   GL253870   0.522  27.677   6.150
 7482POPC   C1A53871   0.471  27.626   6.450
 7482POPC   D2A53872   0.469  27.543   6.750
 7482POPC   C3A53873   0.426  27.586   7.050
 7482POPC   C4A53874   0.408  27.641   7.350
 7482POPC   C1B53875   0.671  27.726   6.450
 7482POPC   C2B53876   0.586  27.794   6.750
 7482POPC   C3B53877   0.629  27.744   7.050
 7482POPC   C4B53878   0.625  27.801   7.350
 7483POPC   NC353879  24.466  31.510   5.550
 7483POPC   PO453880  24.502  31.521   5.850
 7483POPC   GL153881  24.463  31.467   6.150
 7483POPC   GL253882  24.542  31.577   6.150
 7483POPC   C1A53883  24.537  31.479   6.450
 7483POPC   D2A53884  24.449  31.497   6.750
 7483POPC   C3A53885  24.531  31.467   7.050
 7483POPC   C4A53886  24.448  31.477   7.350
 7483POPC   C1B53887  24.546  31.689   6.450
 7483POPC   C2B53888  24.543  31.719   6.750
 7483POPC   C3B53889  24.514  31.735   7.050
 7483POPC   C4B53890  24.530  31.707   7.350
 7484POPC   NC353891  33.035   4.272   5.550
 7484POPC   PO453892  33.060   4.324   5.850
 7484POPC   GL153893  33.074   4.303   6.150
 7484POPC   GL253894  33.151   4.440   6.150
 7484POPC   C1A53895  33.064   4.331   6.450
 7484POPC   D2A53896  33.038   4.294   6.750
 7484POPC   C3A53897  33.027   4.324   7.050
 7484POPC   C4A53898  33.016   4.341   7.350
 7484POPC   C1B53899  33.255   4.459   6.450
 7484POPC   C2B53900  33.184   4.466   6.750
 7484POPC   C3B53901  33.223   4.486   7.050
 7484POPC   C4B53902  33.247   4.502   7.350
 7485POPC   NC353903  37.680  29.096   5.550
 7485POPC   PO453904  37.714  29.193   5.850
 7485POPC   GL153905  37.647  29.181   6.150
 7485POPC   GL253906  37.725  29.269   6.150
 7485POPC   C1A53907  37.707  29.147   6.450
 7485POPC   D2A53908  37.674  29.140   6.750
 7485POPC   C3A53909  37.698  29.158   7.050
 7485POPC   C4A53910  37.709  29.102   7.350
 7485POPC   C1B53911  37.745  29.358   6.450
 7485POPC   C2B53912  37.731  29.375   6.750
 7485POPC   C3B53913  37.711  29.355   7.050
 7485POPC   C4B53914  37.678  29.357   7.350
 7486POPC   NC353915  20.588  10.552   5.550
 7486POPC   PO453916  20.612  10.546   5.850
 7486POPC   GL153917  20.642  10.512   6.150
 7486POPC   GL253918  20.727  10.576   6.150
 7486POPC   C1A53919  20.568  10.533   6.450
 7486POPC   D2A53920  20.627  10.504   6.750
 7486POPC   C3A53921  20.579  10.532   7.050
 7486POPC   C4A53922  20.645  10.508   7.350
 7486POPC   C1B53923  20.871  10.581   6.450
 7486POPC   C2B53924  20.904  10.497   6.750
 7486POPC   C3B53925  20.885  10.563   7.050
 7486POPC   C4B53926  20.902  10.529   7.350
 7487POPC   NC353927  24.528  15.154   5.550
 7487POPC   PO453928  24.472  15.156   5.850
 7487POPC   GL153929  24.497  15.200   6.150
 7487POPC   GL253930  24.509  15.343   6.150
 7487POPC   C1A53931  24.482  15.227   6.450
 7487POPC   D2A53932  24.497  15.217   6.750
 7487POPC   C3A53933  24.502  15.171   7.050
 7487POPC   C4A53934  24.512  15.152   7.350
 7487POPC   C1B53935  24.476  15.418   6.450
 7487POPC   C2B53936  24.497  15.389   6.750
 7487POPC   C3B53937  24.522  15.413   7.050
 7487POPC   C4B53938  24.478  15.393   7.350
 7488POPC   NC353939  32.211  21.433   5.550
 7488POPC   PO453940  32.237  21.366   5.850
 7488POPC   GL153941  32.261  21.373   6.150
 7488POPC   GL253942  32.337  21.417   6.150
 7488POPC   C1A53943  32.269  21.355   6.450
 7488POPC   D2A53944  32.250  21.393   6.750
 7488POPC   C3A53945  32.259  21.342   7.050
 7488POPC   C4A53946  32.219  21.376   7.350
 7488POPC   C1B53947  32.525  21.505   6.450
 7488POPC   C2B53948  32.437  21.514   6.750
 7488POPC   C3B53949  32.447  21.505   7.050
 7488POPC   C4B53950  32.507  21.469   7.350
 7489POPC   NC353951  29.108  32.984   5.550
 7489POPC   PO453952  29.150  32.993   5.850
 7489POPC   GL153953  29.104  33.035   6.150
 7489POPC   GL253954  29.072  33.187   6.150
 7489POPC   C1A53955  29.131  33.040   6.450
 7489POPC   D2A53956  29.128  33.054   6.750
 7489POPC   C3A53957  29.182  32.990   7.050
 7489POPC   C4A53958  29.169  32.994   7.350
 7489POPC   C1B53959  29.016  33.280   6.450
 7489POPC   C2B53960  29.076  33.305   6.750
 7489POPC   C3B53961  29.103  33.239   7.050
 7489POPC   C4B53962  29.071  33.234   7.350
 7490POPC   NC353963  11.286  36.876   5.550
 7490POPC   PO453964  11.326  36.911   5.850
 7490POPC   GL153965  11.282  36.952   6.150
 7490POPC   GL253966  11.394  36.995   6.150
 7490POPC   C1A53967  11.269  36.891   6.450
 7490POPC   D2A53968  11.338  36.920   6.750
 7490POPC   C3A53969  11.307  36.884   7.050
 7490POPC   C4A53970  11.324  36.927   7.350
 7490POPC   C1B53971  11.446  37.103   6.450
 7490POPC   C2B53972  11.413  37.113   6.750
 7490POPC   C3B53973  11.450  37.075   7.050
 7490POPC   C4B53974  11.450  37.057   7.350
 7491POPC   NC353975  24.460  12.036   5.550
 7491POPC   PO453976  24.524  12.029   5.850
 7491POPC   GL153977  24.486  12.096   6.150
 7491POPC   GL253978  24.408  12.006   6.150
 7491POPC   C1A53979  24.505  12.048   6.450
 7491POPC   D2A53980  24.528  12.114   6.750
 7491POPC   C3A53981  24.456  12.073   7.050
 7491POPC   C4A53982  24.499  12.085   7.350
 7491POPC   C1B53983  24.280  12.014   6.450
 7491POPC   C2B53984  24.253  12.025   6.750
 7491POPC   C3B53985  24.270  11.998   7.050
 7491POPC   C4B53986  24.285  12.003   7.350
 7492POPC   NC353987  32.230  39.244   5.550
 7492POPC   PO453988  32.275  39.206   5.850
 7492POPC   GL153989  32.248  39.258   6.150
 7492POPC   GL253990  32.217  39.318   6.150
 7492POPC   C1A53991  32.231  39.230   6.450
 7492POPC   D2A53992  32.210  39.196   6.750
 7492POPC   C3A53993  32.219  39.261   7.050
 7492POPC   C4A53994  32.205  39.237   7.350
 7492POPC   C1B53995  32.276  39.515   6.450
 7492POPC   C2B53996  32.270  39.483   6.750
 7492POPC   C3B53997  32.268  39.484   7.050
 7492POPC   C4B53998  32.285  39.453   7.350
 7493POPC   NC353999  34.564   0.456   5.550
 7493POPC   PO454000  34.586   0.449   5.850
 7493POPC   GL154001  34.608   0.470   6.150
 7493POPC   GL254002  34.443   0.467   6.150
 7493POPC   C1A54003  34.571   0.412   6.450
 7493POPC   D2A54004  34.530   0.487   6.750
 7493POPC   C3A54005  34.556   0.425   7.050
 7493POPC   C4A54006  34.555   0.406   7.350
 7493POPC   C1B54007  34.314   0.449   6.450
 7493POPC   C2B54008  34.309   0.450   6.750
 7493POPC   C3B54009  34.329   0.529   7.050
 7493POPC   C4B54010  34.338   0.500   7.350
 7494POPC   NC354011  36.098  39.971   5.550
 7494POPC   PO454012  36.145  40.036   5.850
 7494POPC   GL154013  36.119  40.054   6.150
 7494POPC   GL254014  36.029  40.087   6.150
 7494POPC   C1A54015  36.136  40.040   6.450
 7494POPC   D2A54016  36.164  40.017   6.750
 7494POPC   C3A54017  36.138  39.969   7.050
 7494POPC   C4A54018  36.163  40.047   7.350
 7494POPC   C1B54019  36.000  40.194   6.450
 7494POPC   C2B54020  35.938  40.171   6.750
 7494POPC   C3B54021  35.968  40.146   7.050
 7494POPC   C4B54022  35.989  40.189   7.350
 7495POPC   NC354023   3.517  10.568   5.550
 7495POPC   PO454024   3.548  10.494   5.850
 7495POPC   GL154025   3.588  10.546   6.150
 7495POPC   GL254026   3.447  10.506   6.150
 7495POPC   C1A54027   3.560  10.548   6.450
 7495POPC   D2A54028   3.539  10.501   6.750
 7495POPC   C3A54029   3.515  10.543   7.050
 7495POPC   C4A54030   3.505  10.504   7.350
 7495POPC   C1B54031   3.325  10.414   6.450
 7495POPC   C2B54032   3.304  10.412   6.750
 7495POPC   C3B54033   3.353  10.481   7.050
 7495POPC   C4B54034   3.352  10.433   7.350
 7496POPC   NC354035  29.168  22.185   5.550
 7496POPC   PO454036  29.114  22.133   5.850
 7496POPC   GL154037  29.127  22.140   6.150
 7496POPC   GL254038  29.130  22.094   6.150
 7496POPC   C1A54039  29.129  22.116   6.450
 7496POPC   D2A54040  29.189  22.202   6.750
 7496POPC   C3A54041  29.189  22.189   7.050
 7496POPC   C4A54042  29.168  22.204   7.350
 7496POPC   C1B54043  29.080  21.957   6.450
 7496POPC   C2B54044  29.017  21.962   6.750
 7496POPC   C3B54045  29.010  21.909   7.050
 7496POPC   C4B54046  29.094  21.957   7.350
 7497POPC   NC354047   2.797   7.439   5.550
 7497POPC   PO454048   2.804   7.462   5.850
 7497POPC   GL154049   2.758   7.437   6.150
 7497POPC   GL254050   2.697   7.339   6.150
 7497POPC   C1A54051   2.725   7.433   6.450
 7497POPC   D2A54052   2.766   7.405   6.750
 7497POPC   C3A54053   2.769   7.468   7.050
 7497POPC   C4A54054   2.732   7.421   7.350
 7497POPC   C1B54055   2.595   7.288   6.450
 7497POPC   C2B54056   2.514   7.324   6.750
 7497POPC   C3B54057   2.512   7.288   7.050
 7497POPC   C4B54058   2.566   7.272   7.350
 7498POPC   NC354059   0.454  36.151   5.550
 7498POPC   PO454060   0.478  36.116   5.850
 7498POPC   GL154061   0.463  36.139   6.150
 7498POPC   GL254062   0.326  36.193   6.150
 7498POPC   C1A54063   0.453  36.090   6.450
 7498POPC   D2A54064   0.487  36.162   6.750
 7498POPC   C3A54065   0.469  36.112   7.050
 7498POPC   C4A54066   0.461  36.154   7.350
 7498POPC   C1B54067   0.243  36.317   6.450
 7498POPC   C2B54068   0.273  36.297   6.750
 7498POPC   C3B54069   0.301  36.339   7.050
 7498POPC   C4B54070   0.224  36.314   7.350
 7499POPC   NC354071  42.354  21.372   5.550
 7499POPC   PO454072  42.348  21.411   5.850
 7499POPC   GL154073  42.285  21.404   6.150
 7499POPC   GL254074  42.305  21.478   6.150
 7499POPC   C1A54075  42.308  21.375   6.450
 7499POPC   D2A54076  42.333  21.391   6.750
 7499POPC   C3A54077  42.361  21.380   7.050
 7499POPC   C4A54078  42.335  21.376   7.350
 7499POPC   C1B54079  42.295  21.595   6.450
 7499POPC   C2B54080  42.207  21.587   6.750
 7499POPC   C3B54081  42.270  21.640   7.050
 7499POPC   C4B54082  42.284  21.576   7.350
 7500POPC   NC354083  16.745  11.285   5.550
 7500POPC   PO454084  16.700  11.337   5.850
 7500POPC   GL154085  16.732  11.268   6.150
 7500POPC   GL254086  16.592  11.241   6.150
 7500POPC   C1A54087  16.729  11.279   6.450
 7500POPC   D2A54088  16.708  11.267   6.750
 7500POPC   C3A54089  16.695  11.333   7.050
 7500POPC   C4A54090  16.777  11.277   7.350
 7500POPC   C1B54091  16.530  11.269   6.450
 7500POPC   C2B54092  16.522  11.241   6.750
 7500POPC   C3B54093  16.465  11.257   7.050
 7500POPC   C4B54094  16.435  11.319   7.350
 7501POPC   NC354095  36.899  37.698   5.550
 7501POPC   PO454096  36.938  37.657   5.850
 7501POPC   GL154097  36.861  37.674   6.150
 7501POPC   GL254098  36.903  37.798   6.150
 7501POPC   C1A54099  36.862  37.682   6.450
 7501POPC   D2A54100  36.883  37.638   6.750
 7501POPC   C3A54101  36.953  37.650   7.050
 7501POPC   C4A54102  36.855  37.688   7.350
 7501POPC   C1B54103  37.007  37.885   6.450
 7501POPC   C2B54104  36.977  37.907   6.750
 7501POPC   C3B54105  36.941  37.886   7.050
 7501POPC   C4B54106  36.989  37.894   7.350
 7502POPC   NC354107  28.398  20.619   5.550
 7502POPC   PO454108  28.369  20.618   5.850
 7502POPC   GL154109  28.324  20.586   6.150
 7502POPC   GL254110  28.214  20.599   6.150
 7502POPC   C1A54111  28.351  20.651   6.450
 7502POPC   D2A54112  28.384  20.616   6.750
 7502POPC   C3A54113  28.364  20.592   7.050
 7502POPC   C4A54114  28.332  20.654   7.350
 7502POPC   C1B54115  28.123  20.711   6.450
 7502POPC   C2B54116  28.164  20.718   6.750
 7502POPC   C3B54117  28.085  20.673   7.050
 7502POPC   C4B54118  28.160  20.636   7.350
 7503POPC   NC354119  36.893  33.810   5.550
 7503POPC   PO454120  36.907  33.845   5.850
 7503POPC   GL154121  36.892  33.846   6.150
 7503POPC   GL254122  36.977  33.871   6.150
 7503POPC   C1A54123  36.925  33.830   6.450
 7503POPC   D2A54124  36.925  33.835   6.750
 7503POPC   C3A54125  36.889  33.782   7.050
 7503POPC   C4A54126  36.937  33.765   7.350
 7503POPC   C1B54127  37.056  33.993   6.450
 7503POPC   C2B54128  36.998  34.038   6.750
 7503POPC   C3B54129  37.067  34.028   7.050
 7503POPC   C4B54130  37.013  34.030   7.350
 7504POPC   NC354131  43.902  44.663   5.550
 7504POPC   PO454132  43.851  44.612   5.850
 7504POPC   GL154133  43.911  44.644   6.150
 7504POPC   GL254134  43.738  44.622   6.150
 7504POPC   C1A54135  43.883  44.677   6.450
 7504POPC   D2A54136  43.875  44.659   6.750
 7504POPC   C3A54137  43.885  44.646   7.050
 7504POPC   C4A54138  43.932  44.651   7.350
 7504POPC   C1B54139  43.624  44.596   6.450
 7504POPC   C2B54140  43.644  44.650   6.750
 7504POPC   C3B54141  43.675  44.626   7.050
 7504POPC   C4B54142  43.609  44.673   7.350
 7505POPC   NC354143  43.069  13.610   5.550
 7505POPC   PO454144  43.084  13.672   5.850
 7505POPC   GL154145  43.067  13.673   6.150
 7505POPC   GL254146  42.987  13.567   6.150
 7505POPC   C1A54147  43.133  13.649   6.450
 7505POPC   D2A54148  43.085  13.642   6.750
 7505POPC   C3A54149  43.139  13.610   7.050
 7505POPC   C4A54150  43.108  13.610   7.350
 7505POPC   C1B54151  42.855  13.591   6.450
 7505POPC   C2B54152  42.855  13.542   6.750
 7505POPC   C3B54153  42.885  13.575   7.050
 7505POPC   C4B54154  42.827  13.510   7.350
 7506POPC   NC354155   7.443   9.726   5.550
 7506POPC   PO454156   7.446   9.794   5.850
 7506POPC   GL154157   7.423   9.724   6.150
 7506POPC   GL254158   7.545   9.821   6.150
 7506POPC   C1A54159   7.458   9.711   6.450
 7506POPC   D2A54160   7.440   9.702   6.750
 7506POPC   C3A54161   7.418   9.784   7.050
 7506POPC   C4A54162   7.416   9.712   7.350
 7506POPC   C1B54163   7.706   9.772   6.450
 7506POPC   C2B54164   7.662   9.794   6.750
 7506POPC   C3B54165   7.688   9.756   7.050
 7506POPC   C4B54166   7.672   9.827   7.350
 7507POPC   NC354167  26.055  36.101   5.550
 7507POPC   PO454168  26.012  36.117   5.850
 7507POPC   GL154169  26.024  36.133   6.150
 7507POPC   GL254170  25.947  36.048   6.150
 7507POPC   C1A54171  26.009  36.121   6.450
 7507POPC   D2A54172  26.086  36.170   6.750
 7507POPC   C3A54173  26.009  36.091   7.050
 7507POPC   C4A54174  26.022  36.176   7.350
 7507POPC   C1B54175  25.891  35.885   6.450
 7507POPC   C2B54176  25.912  35.883   6.750
 7507POPC   C3B54177  25.890  35.961   7.050
 7507POPC   C4B54178  25.921  35.921   7.350
 7508POPC   NC354179  33.765  36.139   5.550
 7508POPC   PO454180  33.838  36.166   5.850
 7508POPC   GL154181  33.807  36.128   6.150
 7508POPC   GL254182  33.727  36.060   6.150
 7508POPC   C1A54183  33.759  36.177   6.450
 7508POPC   D2A54184  33.808  36.107   6.750
 7508POPC   C3A54185  33.759  36.109   7.050
 7508POPC   C4A54186  33.763  36.142   7.350
 7508POPC   C1B54187  33.564  36.033   6.450
 7508POPC   C2B54188  33.600  36.090   6.750
 7508POPC   C3B54189  33.587  36.123   7.050
 7508POPC   C4B54190  33.552  36.086   7.350
 7509POPC   NC354191   6.623  32.254   5.550
 7509POPC   PO454192   6.602  32.248   5.850
 7509POPC   GL154193   6.605  32.235   6.150
 7509POPC   GL254194   6.740  32.271   6.150
 7509POPC   C1A54195   6.615  32.268   6.450
 7509POPC   D2A54196   6.684  32.270   6.750
 7509POPC   C3A54197   6.615  32.234   7.050
 7509POPC   C4A54198   6.647  32.227   7.350
 7509POPC   C1B54199   6.921  32.224   6.450
 7509POPC   C2B54200   6.881  32.241   6.750
 7509POPC   C3B54201   6.928  32.211   7.050
 7509POPC   C4B54202   6.908  32.263   7.350
 7510POPC   NC354203  22.890  43.080   5.550
 7510POPC   PO454204  22.889  43.066   5.850
 7510POPC   GL154205  22.907  43.069   6.150
 7510POPC   GL254206  23.042  43.147   6.150
 7510POPC   C1A54207  22.908  43.110   6.450
 7510POPC   D2A54208  22.922  43.134   6.750
 7510POPC   C3A54209  22.979  43.147   7.050
 7510POPC   C4A54210  22.980  43.100   7.350
 7510POPC   C1B54211  23.151  43.279   6.450
 7510POPC   C2B54212  23.100  43.243   6.750
 7510POPC   C3B54213  23.182  43.304   7.050
 7510POPC   C4B54214  23.101  43.310   7.350
 7511POPC   NC354215  15.998  43.089   5.550
 7511POPC   PO454216  15.946  43.092   5.850
 7511POPC   GL154217  15.942  43.120   6.150
 7511POPC   GL254218  15.884  43.260   6.150
 7511POPC   C1A54219  15.933  43.068   6.450
 7511POPC   D2A54220  15.996  43.132   6.750
 7511POPC   C3A54221  15.936  43.082   7.050
 7511POPC   C4A54222  15.956  43.092   7.350
 7511POPC   C1B54223  15.775  43.338   6.450
 7511POPC   C2B54224  15.853  43.359   6.750
 7511POPC   C3B54225  15.796  43.366   7.050
 7511POPC   C4B54226  15.820  43.336   7.350
 7512POPC   NC354227  40.018  28.373   5.550
 7512POPC   PO454228  39.971  28.348   5.850
 7512POPC   GL154229  39.973  28.338   6.150
 7512POPC   GL254230  40.031  28.243   6.150
 7512POPC   C1A54231  39.970  28.363   6.450
 7512POPC   D2A54232  40.051  28.353   6.750
 7512POPC   C3A54233  39.960  28.326   7.050
 7512POPC   C4A54234  40.010  28.346   7.350
 7512POPC   C1B54235  40.013  28.146   6.450
 7512POPC   C2B54236  39.997  28.161   6.750
 7512POPC   C3B54237  40.004  28.123   7.050
 7512POPC   C4B54238  39.948  28.111   7.350
 7513POPC   NC354239  37.687  39.269   5.550
 7513POPC   PO454240  37.631  39.276   5.850
 7513POPC   GL154241  37.708  39.251   6.150
 7513POPC   GL254242  37.614  39.252   6.150
 7513POPC   C1A54243  37.702  39.273   6.450
 7513POPC   D2A54244  37.720  39.202   6.750
 7513POPC   C3A54245  37.632  39.257   7.050
 7513POPC   C4A54246  37.677  39.251   7.350
 7513POPC   C1B54247  37.470  39.318   6.450
 7513POPC   C2B54248  37.426  39.321   6.750
 7513POPC   C3B54249  37.443  39.374   7.050
 7513POPC   C4B54250  37.468  39.311   7.350
 7514POPC   NC354251  26.034  26.008   5.550
 7514POPC   PO454252  26.064  26.057   5.850
 7514POPC   GL154253  26.060  26.052   6.150
 7514POPC   GL254254  26.102  26.062   6.150
 7514POPC   C1A54255  26.017  26.066   6.450
 7514POPC   D2A54256  25.992  26.019   6.750
 7514POPC   C3A54257  26.040  26.005   7.050
 7514POPC   C4A54258  26.007  26.017   7.350
 7514POPC   C1B54259  26.259  26.178   6.450
 7514POPC   C2B54260  26.228  26.138   6.750
 7514POPC   C3B54261  26.245  26.189   7.050
 7514POPC   C4B54262  26.301  26.176   7.350
 7515POPC   NC354263  43.137  33.761   5.550
 7515POPC   PO454264  43.073  33.796   5.850
 7515POPC   GL154265  43.139  33.807   6.150
 7515POPC   GL254266  43.031  33.692   6.150
 7515POPC   C1A54267  43.086  33.845   6.450
 7515POPC   D2A54268  43.137  33.805   6.750
 7515POPC   C3A54269  43.151  33.844   7.050
 7515POPC   C4A54270  43.148  33.826   7.350
 7515POPC   C1B54271  43.034  33.601   6.450
 7515POPC   C2B54272  43.068  33.573   6.750
 7515POPC   C3B54273  43.084  33.606   7.050
 7515POPC   C4B54274  43.041  33.530   7.350
 7516POPC   NC354275  43.160  19.817   5.550
 7516POPC   PO454276  43.061  19.792   5.850
 7516POPC   GL154277  43.112  19.799   6.150
 7516POPC   GL254278  43.014  19.844   6.150
 7516POPC   C1A54279  43.094  19.799   6.450
 7516POPC   D2A54280  43.082  19.865   6.750
 7516POPC   C3A54281  43.091  19.818   7.050
 7516POPC   C4A54282  43.110  19.850   7.350
 7516POPC   C1B54283  42.830  19.881   6.450
 7516POPC   C2B54284  42.896  19.864   6.750
 7516POPC   C3B54285  42.894  19.891   7.050
 7516POPC   C4B54286  42.856  19.848   7.350
 7517POPC   NC354287  15.976  23.723   5.550
 7517POPC   PO454288  15.996  23.672   5.850
 7517POPC   GL154289  15.936  23.688   6.150
 7517POPC   GL254290  15.917  23.544   6.150
 7517POPC   C1A54291  15.941  23.720   6.450
 7517POPC   D2A54292  15.939  23.720   6.750
 7517POPC   C3A54293  15.946  23.711   7.050
 7517POPC   C4A54294  15.920  23.708   7.350
 7517POPC   C1B54295  15.927  23.440   6.450
 7517POPC   C2B54296  15.851  23.423   6.750
 7517POPC   C3B54297  15.940  23.479   7.050
 7517POPC   C4B54298  15.882  23.492   7.350
 7518POPC   NC354299  34.594  34.570   5.550
 7518POPC   PO454300  34.526  34.596   5.850
 7518POPC   GL154301  34.600  34.605   6.150
 7518POPC   GL254302  34.414  34.587   6.150
 7518POPC   C1A54303  34.583  34.579   6.450
 7518POPC   D2A54304  34.532  34.622   6.750
 7518POPC   C3A54305  34.580  34.576   7.050
 7518POPC   C4A54306  34.590  34.550   7.350
 7518POPC   C1B54307  34.288  34.548   6.450
 7518POPC   C2B54308  34.379  34.518   6.750
 7518POPC   C3B54309  34.353  34.547   7.050
 7518POPC   C4B54310  34.346  34.535   7.350
 7519POPC   NC354311  34.576   9.700   5.550
 7519POPC   PO454312  34.557   9.711   5.850
 7519POPC   GL154313  34.526   9.729   6.150
 7519POPC   GL254314  34.500   9.631   6.150
 7519POPC   C1A54315  34.539   9.757   6.450
 7519POPC   D2A54316  34.553   9.746   6.750
 7519POPC   C3A54317  34.528   9.782   7.050
 7519POPC   C4A54318  34.612   9.781   7.350
 7519POPC   C1B54319  34.530   9.507   6.450
 7519POPC   C2B54320  34.521   9.473   6.750
 7519POPC   C3B54321  34.561   9.532   7.050
 7519POPC   C4B54322  34.555   9.540   7.350
 7520POPC   NC354323   9.780  15.953   5.550
 7520POPC   PO454324   9.760  15.918   5.850
 7520POPC   GL154325   9.736  15.975   6.150
 7520POPC   GL254326   9.827  15.960   6.150
 7520POPC   C1A54327   9.729  15.953   6.450
 7520POPC   D2A54328   9.790  15.909   6.750
 7520POPC   C3A54329   9.780  15.952   7.050
 7520POPC   C4A54330   9.722  15.974   7.350
 7520POPC   C1B54331  10.026  15.994   6.450
 7520POPC   C2B54332   9.948  15.986   6.750
 7520POPC   C3B54333   9.965  16.075   7.050
 7520POPC   C4B54334  10.023  16.042   7.350
 7521POPC   NC354335  36.127  44.661   5.550
 7521POPC   PO454336  36.127  44.658   5.850
 7521POPC   GL154337  36.119  44.645   6.150
 7521POPC   GL254338  36.230  44.727   6.150
 7521POPC   C1A54339  36.129  44.675   6.450
 7521POPC   D2A54340  36.116  44.660   6.750
 7521POPC   C3A54341  36.147  44.621   7.050
 7521POPC   C4A54342  36.079  44.619   7.350
 7521POPC   C1B54343  36.374  44.845   6.450
 7521POPC   C2B54344  36.326  44.803   6.750
 7521POPC   C3B54345  36.378  44.789   7.050
 7521POPC   C4B54346  36.340  44.792   7.350
 7522POPC   NC354347  43.840  12.856   5.550
 7522POPC   PO454348  43.876  12.809   5.850
 7522POPC   GL154349  43.843  12.891   6.150
 7522POPC   GL254350  44.008  12.868   6.150
 7522POPC   C1A54351  43.840  12.857   6.450
 7522POPC   D2A54352  43.933  12.838   6.750
 7522POPC   C3A54353  43.916  12.885   7.050
 7522POPC   C4A54354  43.891  12.889   7.350
 7522POPC   C1B54355  44.062  12.945   6.450
 7522POPC   C2B54356  44.154  13.014   6.750
 7522POPC   C3B54357  44.152  12.977   7.050
 7522POPC   C4B54358  44.065  12.988   7.350
 7523POPC   NC354359  11.314  12.826   5.550
 7523POPC   PO454360  11.291  12.807   5.850
 7523POPC   GL154361  11.327  12.887   6.150
 7523POPC   GL254362  11.205  12.744   6.150
 7523POPC   C1A54363  11.319  12.816   6.450
 7523POPC   D2A54364  11.280  12.868   6.750
 7523POPC   C3A54365  11.257  12.839   7.050
 7523POPC   C4A54366  11.348  12.891   7.350
 7523POPC   C1B54367  11.114  12.688   6.450
 7523POPC   C2B54368  11.162  12.676   6.750
 7523POPC   C3B54369  11.153  12.707   7.050
 7523POPC   C4B54370  11.149  12.688   7.350
 7524POPC   NC354371   1.203  44.632   5.550
 7524POPC   PO454372   1.251  44.627   5.850
 7524POPC   GL154373   1.178  44.710   6.150
 7524POPC   GL254374   1.154  44.559   6.150
 7524POPC   C1A54375   1.231  44.616   6.450
 7524POPC   D2A54376   1.226  44.694   6.750
 7524POPC   C3A54377   1.193  44.631   7.050
 7524POPC   C4A54378   1.167  44.650   7.350
 7524POPC   C1B54379   1.099  44.420   6.450
 7524POPC   C2B54380   1.087  44.418   6.750
 7524POPC   C3B54381   1.162  44.427   7.050
 7524POPC   C4B54382   1.136  44.415   7.350
 7525POPC   NC354383  12.053   8.170   5.550
 7525POPC   PO454384  12.083   8.209   5.850
 7525POPC   GL154385  12.079   8.238   6.150
 7525POPC   GL254386  12.171   8.101   6.150
 7525POPC   C1A54387  12.098   8.240   6.450
 7525POPC   D2A54388  12.066   8.185   6.750
 7525POPC   C3A54389  12.075   8.189   7.050
 7525POPC   C4A54390  12.075   8.170   7.350
 7525POPC   C1B54391  12.194   8.006   6.450
 7525POPC   C2B54392  12.214   7.990   6.750
 7525POPC   C3B54393  12.226   8.006   7.050
 7525POPC   C4B54394  12.206   7.977   7.350
 7526POPC   NC354395  31.491  13.605   5.550
 7526POPC   PO454396  31.437  13.658   5.850
 7526POPC   GL154397  31.453  13.638   6.150
 7526POPC   GL254398  31.556  13.566   6.150
 7526POPC   C1A54399  31.487  13.640   6.450
 7526POPC   D2A54400  31.505  13.582   6.750
 7526POPC   C3A54401  31.486  13.607   7.050
 7526POPC   C4A54402  31.425  13.590   7.350
 7526POPC   C1B54403  31.704  13.533   6.450
 7526POPC   C2B54404  31.703  13.509   6.750
 7526POPC   C3B54405  31.712  13.487   7.050
 7526POPC   C4B54406  31.644  13.476   7.350
 7527POPC   NC354407  13.583  42.290   5.550
 7527POPC   PO454408  13.594  42.376   5.850
 7527POPC   GL154409  13.609  42.327   6.150
 7527POPC   GL254410  13.786  42.325   6.150
 7527POPC   C1A54411  13.667  42.291   6.450
 7527POPC   D2A54412  13.619  42.313   6.750
 7527POPC   C3A54413  13.630  42.361   7.050
 7527POPC   C4A54414  13.585  42.318   7.350
 7527POPC   C1B54415  13.867  42.342   6.450
 7527POPC   C2B54416  13.914  42.334   6.750
 7527POPC   C3B54417  13.865  42.380   7.050
 7527POPC   C4B54418  13.890  42.393   7.350
 7528POPC   NC354419  33.041  39.967   5.550
 7528POPC   PO454420  33.049  40.011   5.850
 7528POPC   GL154421  33.067  39.984   6.150
 7528POPC   GL254422  32.889  39.931   6.150
 7528POPC   C1A54423  32.985  40.055   6.450
 7528POPC   D2A54424  32.991  40.025   6.750
 7528POPC   C3A54425  33.061  40.044   7.050
 7528POPC   C4A54426  32.980  40.042   7.350
 7528POPC   C1B54427  32.841  39.872   6.450
 7528POPC   C2B54428  32.803  39.901   6.750
 7528POPC   C3B54429  32.757  39.874   7.050
 7528POPC   C4B54430  32.830  39.929   7.350
 7529POPC   NC354431   2.785  26.040   5.550
 7529POPC   PO454432   2.799  26.051   5.850
 7529POPC   GL154433   2.795  25.998   6.150
 7529POPC   GL254434   2.791  25.912   6.150
 7529POPC   C1A54435   2.779  26.016   6.450
 7529POPC   D2A54436   2.735  26.025   6.750
 7529POPC   C3A54437   2.774  26.056   7.050
 7529POPC   C4A54438   2.794  26.042   7.350
 7529POPC   C1B54439   2.891  25.806   6.450
 7529POPC   C2B54440   2.924  25.851   6.750
 7529POPC   C3B54441   2.915  25.861   7.050
 7529POPC   C4B54442   2.955  25.841   7.350
 7530POPC   NC354443  14.392  19.798   5.550
 7530POPC   PO454444  14.398  19.834   5.850
 7530POPC   GL154445  14.359  19.809   6.150
 7530POPC   GL254446  14.507  19.837   6.150
 7530POPC   C1A54447  14.354  19.815   6.450
 7530POPC   D2A54448  14.422  19.794   6.750
 7530POPC   C3A54449  14.441  19.797   7.050
 7530POPC   C4A54450  14.360  19.794   7.350
 7530POPC   C1B54451  14.625  19.911   6.450
 7530POPC   C2B54452  14.619  19.905   6.750
 7530POPC   C3B54453  14.651  19.942   7.050
 7530POPC   C4B54454  14.648  19.954   7.350
 7531POPC   NC354455  36.107   5.062   5.550
 7531POPC   PO454456  36.099   5.077   5.850
 7531POPC   GL154457  36.092   5.068   6.150
 7531POPC   GL254458  36.216   5.006   6.150
 7531POPC   C1A54459  36.093   5.099   6.450
 7531POPC   D2A54460  36.085   5.096   6.750
 7531POPC   C3A54461  36.148   5.124   7.050
 7531POPC   C4A54462  36.123   5.073   7.350
 7531POPC   C1B54463  36.303   4.931   6.450
 7531POPC   C2B54464  36.304   4.956   6.750
 7531POPC   C3B54465  36.313   4.890   7.050
 7531POPC   C4B54466  36.254   4.883   7.350
 7532POPC   NC354467   2.017  39.222   5.550
 7532POPC   PO454468   2.012  39.227   5.850
 7532POPC   GL154469   2.026  39.198   6.150
 7532POPC   GL254470   2.160  39.178   6.150
 7532POPC   C1A54471   1.941  39.204   6.450
 7532POPC   D2A54472   1.958  39.205   6.750
 7532POPC   C3A54473   2.007  39.186   7.050
 7532POPC   C4A54474   2.036  39.267   7.350
 7532POPC   C1B54475   2.261  39.230   6.450
 7532POPC   C2B54476   2.226  39.186   6.750
 7532POPC   C3B54477   2.205  39.229   7.050
 7532POPC   C4B54478   2.289  39.205   7.350
 7533POPC   NC354479  25.997  31.446   5.550
 7533POPC   PO454480  26.017  31.520   5.850
 7533POPC   GL154481  26.038  31.468   6.150
 7533POPC   GL254482  26.091  31.634   6.150
 7533POPC   C1A54483  26.036  31.439   6.450
 7533POPC   D2A54484  26.024  31.504   6.750
 7533POPC   C3A54485  26.023  31.436   7.050
 7533POPC   C4A54486  26.032  31.469   7.350
 7533POPC   C1B54487  26.102  31.732   6.450
 7533POPC   C2B54488  26.107  31.689   6.750
 7533POPC   C3B54489  26.061  31.684   7.050
 7533POPC   C4B54490  26.037  31.716   7.350
 7534POPC   NC354491  10.541  30.726   5.550
 7534POPC   PO454492  10.546  30.731   5.850
 7534POPC   GL154493  10.532  30.661   6.150
 7534POPC   GL254494  10.394  30.727   6.150
 7534POPC   C1A54495  10.481  30.725   6.450
 7534POPC   D2A54496  10.539  30.739   6.750
 7534POPC   C3A54497  10.519  30.664   7.050
 7534POPC   C4A54498  10.536  30.733   7.350
 7534POPC   C1B54499  10.293  30.783   6.450
 7534POPC   C2B54500  10.337  30.809   6.750
 7534POPC   C3B54501  10.254  30.801   7.050
 7534POPC   C4B54502  10.270  30.795   7.350
 7535POPC   NC354503  33.044   8.211   5.550
 7535POPC   PO454504  32.987   8.180   5.850
 7535POPC   GL154505  32.990   8.197   6.150
 7535POPC   GL254506  32.910   8.177   6.150
 7535POPC   C1A54507  32.997   8.167   6.450
 7535POPC   D2A54508  33.027   8.160   6.750
 7535POPC   C3A54509  32.982   8.210   7.050
 7535POPC   C4A54510  32.984   8.228   7.350
 7535POPC   C1B54511  32.817   8.040   6.450
 7535POPC   C2B54512  32.762   8.103   6.750
 7535POPC   C3B54513  32.809   8.027   7.050
 7535POPC   C4B54514  32.855   8.023   7.350
 7536POPC   NC354515  19.010  15.191   5.550
 7536POPC   PO454516  19.090  15.140   5.850
 7536POPC   GL154517  19.082  15.156   6.150
 7536POPC   GL254518  18.984  15.118   6.150
 7536POPC   C1A54519  19.057  15.188   6.450
 7536POPC   D2A54520  19.074  15.141   6.750
 7536POPC   C3A54521  19.024  15.200   7.050
 7536POPC   C4A54522  19.012  15.218   7.350
 7536POPC   C1B54523  18.904  14.967   6.450
 7536POPC   C2B54524  18.914  15.031   6.750
 7536POPC   C3B54525  18.869  15.030   7.050
 7536POPC   C4B54526  18.872  15.011   7.350
 7537POPC   NC354527   1.240  27.556   5.550
 7537POPC   PO454528   1.240  27.587   5.850
 7537POPC   GL154529   1.203  27.565   6.150
 7537POPC   GL254530   1.134  27.566   6.150
 7537POPC   C1A54531   1.257  27.641   6.450
 7537POPC   D2A54532   1.214  27.551   6.750
 7537POPC   C3A54533   1.179  27.557   7.050
 7537POPC   C4A54534   1.237  27.629   7.350
 7537POPC   C1B54535   0.992  27.615   6.450
 7537POPC   C2B54536   0.993  27.629   6.750
 7537POPC   C3B54537   0.998  27.618   7.050
 7537POPC   C4B54538   0.934  27.610   7.350
 7538POPC   NC354539   2.037  34.591   5.550
 7538POPC   PO454540   1.966  34.581   5.850
 7538POPC   GL154541   2.024  34.555   6.150
 7538POPC   GL254542   2.145  34.588   6.150
 7538POPC   C1A54543   1.983  34.618   6.450
 7538POPC   D2A54544   1.992  34.598   6.750
 7538POPC   C3A54545   1.955  34.618   7.050
 7538POPC   C4A54546   1.965  34.593   7.350
 7538POPC   C1B54547   2.196  34.641   6.450
 7538POPC   C2B54548   2.268  34.628   6.750
 7538POPC   C3B54549   2.271  34.612   7.050
 7538POPC   C4B54550   2.276  34.611   7.350
 7539POPC   NC354551  28.332   8.220   5.550
 7539POPC   PO454552  28.383   8.187   5.850
 7539POPC   GL154553  28.377   8.170   6.150
 7539POPC   GL254554  28.495   8.267   6.150
 7539POPC   C1A54555  28.402   8.152   6.450
 7539POPC   D2A54556  28.365   8.242   6.750
 7539POPC   C3A54557  28.398   8.238   7.050
 7539POPC   C4A54558  28.372   8.160   7.350
 7539POPC   C1B54559  28.660   8.268   6.450
 7539POPC   C2B54560  28.639   8.218   6.750
 7539POPC   C3B54561  28.604   8.306   7.050
 7539POPC   C4B54562  28.583   8.301   7.350
 7540POPC   NC354563   6.632  31.442   5.550
 7540POPC   PO454564   6.661  31.442   5.850
 7540POPC   GL154565   6.642  31.458   6.150
 7540POPC   GL254566   6.657  31.554   6.150
 7540POPC   C1A54567   6.636  31.423   6.450
 7540POPC   D2A54568   6.635  31.498   6.750
 7540POPC   C3A54569   6.689  31.425   7.050
 7540POPC   C4A54570   6.661  31.454   7.350
 7540POPC   C1B54571   6.608  31.750   6.450
 7540POPC   C2B54572   6.639  31.695   6.750
 7540POPC   C3B54573   6.640  31.764   7.050
 7540POPC   C4B54574   6.585  31.678   7.350
 7541POPC   NC354575  42.320  30.702   5.550
 7541POPC   PO454576  42.297  30.658   5.850
 7541POPC   GL154577  42.308  30.651   6.150
 7541POPC   GL254578  42.418  30.664   6.150
 7541POPC   C1A54579  42.333  30.689   6.450
 7541POPC   D2A54580  42.314  30.669   6.750
 7541POPC   C3A54581  42.366  30.689   7.050
 7541POPC   C4A54582  42.355  30.721   7.350
 7541POPC   C1B54583  42.569  30.671   6.450
 7541POPC   C2B54584  42.535  30.707   6.750
 7541POPC   C3B54585  42.617  30.624   7.050
 7541POPC   C4B54586  42.538  30.686   7.350
 7542POPC   NC354587  37.634   1.244   5.550
 7542POPC   PO454588  37.650   1.251   5.850
 7542POPC   GL154589  37.679   1.207   6.150
 7542POPC   GL254590  37.713   1.079   6.150
 7542POPC   C1A54591  37.644   1.250   6.450
 7542POPC   D2A54592  37.661   1.211   6.750
 7542POPC   C3A54593  37.686   1.250   7.050
 7542POPC   C4A54594  37.687   1.206   7.350
 7542POPC   C1B54595  37.702   0.978   6.450
 7542POPC   C2B54596  37.722   0.928   6.750
 7542POPC   C3B54597  37.755   1.008   7.050
 7542POPC   C4B54598  37.748   0.974   7.350
 7543POPC   NC354599  24.466  40.777   5.550
 7543POPC   PO454600  24.442  40.734   5.850
 7543POPC   GL154601  24.505  40.741   6.150
 7543POPC   GL254602  24.625  40.814   6.150
 7543POPC   C1A54603  24.512  40.786   6.450
 7543POPC   D2A54604  24.500  40.806   6.750
 7543POPC   C3A54605  24.444  40.813   7.050
 7543POPC   C4A54606  24.481  40.741   7.350
 7543POPC   C1B54607  24.770  40.820   6.450
 7543POPC   C2B54608  24.763  40.770   6.750
 7543POPC   C3B54609  24.700  40.827   7.050
 7543POPC   C4B54610  24.782  40.784   7.350
 7544POPC   NC354611  43.921  32.257   5.550
 7544POPC   PO454612  43.921  32.227   5.850
 7544POPC   GL154613  43.933  32.291   6.150
 7544POPC   GL254614  43.788  32.292   6.150
 7544POPC   C1A54615  43.843  32.204   6.450
 7544POPC   D2A54616  43.837  32.277   6.750
 7544POPC   C3A54617  43.856  32.239   7.050
 7544POPC   C4A54618  43.842  32.287   7.350
 7544POPC   C1B54619  43.744  32.436   6.450
 7544POPC   C2B54620  43.743  32.397   6.750
 7544POPC   C3B54621  43.722  32.390   7.050
 7544POPC   C4B54622  43.742  32.421   7.350
 7545POPC   NC354623  12.125  30.718   5.550
 7545POPC   PO454624  12.049  30.702   5.850
 7545POPC   GL154625  12.087  30.717   6.150
 7545POPC   GL254626  12.233  30.660   6.150
 7545POPC   C1A54627  12.053  30.746   6.450
 7545POPC   D2A54628  12.047  30.659   6.750
 7545POPC   C3A54629  12.090  30.678   7.050
 7545POPC   C4A54630  12.035  30.688   7.350
 7545POPC   C1B54631  12.369  30.735   6.450
 7545POPC   C2B54632  12.354  30.694   6.750
 7545POPC   C3B54633  12.295  30.705   7.050
 7545POPC   C4B54634  12.344  30.733   7.350
 7546POPC   NC354635   1.979   4.303   5.550
 7546POPC   PO454636   1.969   4.268   5.850
 7546POPC   GL154637   2.004   4.279   6.150
 7546POPC   GL254638   1.943   4.412   6.150
 7546POPC   C1A54639   1.953   4.361   6.450
 7546POPC   D2A54640   1.955   4.269   6.750
 7546POPC   C3A54641   1.982   4.324   7.050
 7546POPC   C4A54642   2.030   4.345   7.350
 7546POPC   C1B54643   1.981   4.526   6.450
 7546POPC   C2B54644   1.948   4.580   6.750
 7546POPC   C3B54645   1.970   4.597   7.050
 7546POPC   C4B54646   1.951   4.585   7.350
 7547POPC   NC354647  11.348  30.731   5.550
 7547POPC   PO454648  11.304  30.714   5.850
 7547POPC   GL154649  11.282  30.702   6.150
 7547POPC   GL254650  11.466  30.755   6.150
 7547POPC   C1A54651  11.340  30.677   6.450
 7547POPC   D2A54652  11.276  30.738   6.750
 7547POPC   C3A54653  11.324  30.710   7.050
 7547POPC   C4A54654  11.271  30.674   7.350
 7547POPC   C1B54655  11.512  30.709   6.450
 7547POPC   C2B54656  11.594  30.762   6.750
 7547POPC   C3B54657  11.538  30.713   7.050
 7547POPC   C4B54658  11.539  30.755   7.350
 7548POPC   NC354659  15.130   7.403   5.550
 7548POPC   PO454660  15.135   7.470   5.850
 7548POPC   GL154661  15.137   7.436   6.150
 7548POPC   GL254662  15.055   7.352   6.150
 7548POPC   C1A54663  15.147   7.397   6.450
 7548POPC   D2A54664  15.149   7.378   6.750
 7548POPC   C3A54665  15.195   7.407   7.050
 7548POPC   C4A54666  15.227   7.431   7.350
 7548POPC   C1B54667  14.945   7.273   6.450
 7548POPC   C2B54668  15.017   7.287   6.750
 7548POPC   C3B54669  14.954   7.253   7.050
 7548POPC   C4B54670  15.001   7.302   7.350
 7549POPC   NC354671  38.436   0.404   5.550
 7549POPC   PO454672  38.440   0.409   5.850
 7549POPC   GL154673  38.421   0.477   6.150
 7549POPC   GL254674  38.531   0.389   6.150
 7549POPC   C1A54675  38.465   0.484   6.450
 7549POPC   D2A54676  38.438   0.396   6.750
 7549POPC   C3A54677  38.503   0.461   7.050
 7549POPC   C4A54678  38.504   0.429   7.350
 7549POPC   C1B54679  38.656   0.374   6.450
 7549POPC   C2B54680  38.683   0.306   6.750
 7549POPC   C3B54681  38.739   0.394   7.050
 7549POPC   C4B54682  38.649   0.351   7.350
 7550POPC   NC354683   3.520  42.347   5.550
 7550POPC   PO454684   3.516  42.326   5.850
 7550POPC   GL154685   3.585  42.307   6.150
 7550POPC   GL254686   3.442  42.363   6.150
 7550POPC   C1A54687   3.529  42.383   6.450
 7550POPC   D2A54688   3.538  42.306   6.750
 7550POPC   C3A54689   3.574  42.358   7.050
 7550POPC   C4A54690   3.552  42.371   7.350
 7550POPC   C1B54691   3.261  42.347   6.450
 7550POPC   C2B54692   3.283  42.384   6.750
 7550POPC   C3B54693   3.260  42.386   7.050
 7550POPC   C4B54694   3.310  42.365   7.350
 7551POPC   NC354695  14.421  26.781   5.550
 7551POPC   PO454696  14.405  26.838   5.850
 7551POPC   GL154697  14.396  26.780   6.150
 7551POPC   GL254698  14.518  26.742   6.150
 7551POPC   C1A54699  14.436  26.842   6.450
 7551POPC   D2A54700  14.388  26.866   6.750
 7551POPC   C3A54701  14.362  26.770   7.050
 7551POPC   C4A54702  14.371  26.837   7.350
 7551POPC   C1B54703  14.643  26.663   6.450
 7551POPC   C2B54704  14.582  26.720   6.750
 7551POPC   C3B54705  14.626  26.661   7.050
 7551POPC   C4B54706  14.592  26.717   7.350
 7552POPC   NC354707  18.249  31.458   5.550
 7552POPC   PO454708  18.270  31.492   5.850
 7552POPC   GL154709  18.312  31.451   6.150
 7552POPC   GL254710  18.258  31.572   6.150
 7552POPC   C1A54711  18.236  31.465   6.450
 7552POPC   D2A54712  18.242  31.480   6.750
 7552POPC   C3A54713  18.235  31.503   7.050
 7552POPC   C4A54714  18.235  31.447   7.350
 7552POPC   C1B54715  18.153  31.706   6.450
 7552POPC   C2B54716  18.178  31.727   6.750
 7552POPC   C3B54717  18.140  31.695   7.050
 7552POPC   C4B54718  18.141  31.683   7.350
 7553POPC   NC354719  28.377  34.617   5.550
 7553POPC   PO454720  28.370  34.614   5.850
 7553POPC   GL154721  28.383  34.579   6.150
 7553POPC   GL254722  28.304  34.698   6.150
 7553POPC   C1A54723  28.417  34.602   6.450
 7553POPC   D2A54724  28.333  34.608   6.750
 7553POPC   C3A54725  28.377  34.621   7.050
 7553POPC   C4A54726  28.350  34.585   7.350
 7553POPC   C1B54727  28.227  34.752   6.450
 7553POPC   C2B54728  28.191  34.796   6.750
 7553POPC   C3B54729  28.170  34.751   7.050
 7553POPC   C4B54730  28.235  34.755   7.350
 7554POPC   NC354731  37.691  15.912   5.550
 7554POPC   PO454732  37.722  15.932   5.850
 7554POPC   GL154733  37.641  15.941   6.150
 7554POPC   GL254734  37.595  16.032   6.150
 7554POPC   C1A54735  37.678  16.000   6.450
 7554POPC   D2A54736  37.685  15.939   6.750
 7554POPC   C3A54737  37.705  15.995   7.050
 7554POPC   C4A54738  37.684  15.998   7.350
 7554POPC   C1B54739  37.531  16.131   6.450
 7554POPC   C2B54740  37.604  16.204   6.750
 7554POPC   C3B54741  37.546  16.172   7.050
 7554POPC   C4B54742  37.570  16.149   7.350
 7555POPC   NC354743  16.001  15.140   5.550
 7555POPC   PO454744  15.990  15.217   5.850
 7555POPC   GL154745  15.951  15.220   6.150
 7555POPC   GL254746  15.887  15.351   6.150
 7555POPC   C1A54747  15.955  15.186   6.450
 7555POPC   D2A54748  15.947  15.141   6.750
 7555POPC   C3A54749  15.931  15.150   7.050
 7555POPC   C4A54750  15.932  15.134   7.350
 7555POPC   C1B54751  15.916  15.391   6.450
 7555POPC   C2B54752  15.909  15.376   6.750
 7555POPC   C3B54753  15.883  15.376   7.050
 7555POPC   C4B54754  15.867  15.438   7.350
 7556POPC   NC354755   1.175  29.960   5.550
 7556POPC   PO454756   1.233  29.964   5.850
 7556POPC   GL154757   1.261  29.929   6.150
 7556POPC   GL254758   1.176  29.838   6.150
 7556POPC   C1A54759   1.171  29.905   6.450
 7556POPC   D2A54760   1.227  29.955   6.750
 7556POPC   C3A54761   1.182  29.946   7.050
 7556POPC   C4A54762   1.231  29.906   7.350
 7556POPC   C1B54763   1.168  29.634   6.450
 7556POPC   C2B54764   1.172  29.626   6.750
 7556POPC   C3B54765   1.238  29.665   7.050
 7556POPC   C4B54766   1.172  29.716   7.350
 7557POPC   NC354767  44.658   7.376   5.550
 7557POPC   PO454768  44.671   7.424   5.850
 7557POPC   GL154769  44.673   7.419   6.150
 7557POPC   GL254770  44.555   7.438   6.150
 7557POPC   C1A54771  44.633   7.430   6.450
 7557POPC   D2A54772  44.703   7.382   6.750
 7557POPC   C3A54773  44.657   7.438   7.050
 7557POPC   C4A54774  44.702   7.403   7.350
 7557POPC   C1B54775  44.395   7.380   6.450
 7557POPC   C2B54776  44.404   7.414   6.750
 7557POPC   C3B54777  44.414   7.318   7.050
 7557POPC   C4B54778  44.445   7.409   7.350
 7558POPC   NC354779   4.271  39.253   5.550
 7558POPC   PO454780   4.320  39.222   5.850
 7558POPC   GL154781   4.323  39.211   6.150
 7558POPC   GL254782   4.276  39.292   6.150
 7558POPC   C1A54783   4.273  39.255   6.450
 7558POPC   D2A54784   4.309  39.251   6.750
 7558POPC   C3A54785   4.362  39.258   7.050
 7558POPC   C4A54786   4.316  39.280   7.350
 7558POPC   C1B54787   4.177  39.394   6.450
 7558POPC   C2B54788   4.179  39.440   6.750
 7558POPC   C3B54789   4.190  39.416   7.050
 7558POPC   C4B54790   4.165  39.374   7.350
 7559POPC   NC354791  40.742  41.586   5.550
 7559POPC   PO454792  40.798  41.562   5.850
 7559POPC   GL154793  40.744  41.577   6.150
 7559POPC   GL254794  40.869  41.542   6.150
 7559POPC   C1A54795  40.734  41.532   6.450
 7559POPC   D2A54796  40.750  41.566   6.750
 7559POPC   C3A54797  40.733  41.538   7.050
 7559POPC   C4A54798  40.805  41.598   7.350
 7559POPC   C1B54799  41.050  41.558   6.450
 7559POPC   C2B54800  41.047  41.541   6.750
 7559POPC   C3B54801  41.045  41.615   7.050
 7559POPC   C4B54802  41.013  41.539   7.350
 7560POPC   NC354803  44.685  22.950   5.550
 7560POPC   PO454804  44.688  22.900   5.850
 7560POPC   GL154805  44.616  22.909   6.150
 7560POPC   GL254806  44.728  22.990   6.150
 7560POPC   C1A54807  44.638  22.892   6.450
 7560POPC   D2A54808  44.672  22.940   6.750
 7560POPC   C3A54809  44.636  22.984   7.050
 7560POPC   C4A54810  44.682  22.929   7.350
 7560POPC   C1B54811  44.810  23.081   6.450
 7560POPC   C2B54812  44.867  23.157   6.750
 7560POPC   C3B54813  44.812  23.145   7.050
 7560POPC   C4B54814  44.841  23.085   7.350
 7561POPC   NC354815   2.756  24.452   5.550
 7561POPC   PO454816   2.752  24.473   5.850
 7561POPC   GL154817   2.800  24.492   6.150
 7561POPC   GL254818   2.784  24.403   6.150
 7561POPC   C1A54819   2.724  24.472   6.450
 7561POPC   D2A54820   2.741  24.532   6.750
 7561POPC   C3A54821   2.813  24.448   7.050
 7561POPC   C4A54822   2.785  24.467   7.350
 7561POPC   C1B54823   2.909  24.318   6.450
 7561POPC   C2B54824   2.904  24.240   6.750
 7561POPC   C3B54825   2.917  24.301   7.050
 7561POPC   C4B54826   2.936  24.236   7.350
 7562POPC   NC354827   8.942  44.691   5.550
 7562POPC   PO454828   8.960  44.680   5.850
 7562POPC   GL154829   8.947  44.689   6.150
 7562POPC   GL254830   9.131  44.735   6.150
 7562POPC   C1A54831   9.018  44.631   6.450
 7562POPC   D2A54832   8.974  44.699   6.750
 7562POPC   C3A54833   9.002  44.645   7.050
 7562POPC   C4A54834   8.974  44.692   7.350
 7562POPC   C1B54835   9.155  44.757   6.450
 7562POPC   C2B54836   9.231  44.720   6.750
 7562POPC   C3B54837   9.157  44.771   7.050
 7562POPC   C4B54838   9.178  44.749   7.350
 7563POPC   NC354839  15.162   9.719   5.550
 7563POPC   PO454840  15.202   9.701   5.850
 7563POPC   GL154841  15.138   9.708   6.150
 7563POPC   GL254842  15.108   9.791   6.150
 7563POPC   C1A54843  15.156   9.771   6.450
 7563POPC   D2A54844  15.147   9.779   6.750
 7563POPC   C3A54845  15.228   9.765   7.050
 7563POPC   C4A54846  15.192   9.702   7.350
 7563POPC   C1B54847  14.926   9.805   6.450
 7563POPC   C2B54848  14.997   9.848   6.750
 7563POPC   C3B54849  14.966   9.816   7.050
 7563POPC   C4B54850  14.919   9.862   7.350
 7564POPC   NC354851   3.497  31.447   5.550
 7564POPC   PO454852   3.568  31.426   5.850
 7564POPC   GL154853   3.525  31.440   6.150
 7564POPC   GL254854   3.527  31.319   6.150
 7564POPC   C1A54855   3.591  31.498   6.450
 7564POPC   D2A54856   3.587  31.507   6.750
 7564POPC   C3A54857   3.569  31.506   7.050
 7564POPC   C4A54858   3.583  31.482   7.350
 7564POPC   C1B54859   3.518  31.233   6.450
 7564POPC   C2B54860   3.495  31.208   6.750
 7564POPC   C3B54861   3.538  31.198   7.050
 7564POPC   C4B54862   3.518  31.257   7.350
 7565POPC   NC354863  19.862  40.737   5.550
 7565POPC   PO454864  19.856  40.766   5.850
 7565POPC   GL154865  19.871  40.809   6.150
 7565POPC   GL254866  19.799  40.861   6.150
 7565POPC   C1A54867  19.833  40.800   6.450
 7565POPC   D2A54868  19.817  40.750   6.750
 7565POPC   C3A54869  19.874  40.821   7.050
 7565POPC   C4A54870  19.798  40.756   7.350
 7565POPC   C1B54871  19.731  40.990   6.450
 7565POPC   C2B54872  19.705  41.010   6.750
 7565POPC   C3B54873  19.679  40.978   7.050
 7565POPC   C4B54874  19.734  40.998   7.350
 7566POPC   NC354875  16.711  40.745   5.550
 7566POPC   PO454876  16.733  40.775   5.850
 7566POPC   GL154877  16.758  40.788   6.150
 7566POPC   GL254878  16.736  40.887   6.150
 7566POPC   C1A54879  16.685  40.734   6.450
 7566POPC   D2A54880  16.693  40.741   6.750
 7566POPC   C3A54881  16.745  40.738   7.050
 7566POPC   C4A54882  16.779  40.742   7.350
 7566POPC   C1B54883  16.656  41.068   6.450
 7566POPC   C2B54884  16.607  41.026   6.750
 7566POPC   C3B54885  16.645  41.069   7.050
 7566POPC   C4B54886  16.626  40.977   7.350
 7567POPC   NC354887   8.957  11.333   5.550
 7567POPC   PO454888   8.940  11.287   5.850
 7567POPC   GL154889   8.988  11.290   6.150
 7567POPC   GL254890   8.939  11.426   6.150
 7567POPC   C1A54891   8.972  11.256   6.450
 7567POPC   D2A54892   8.992  11.267   6.750
 7567POPC   C3A54893   9.018  11.326   7.050
 7567POPC   C4A54894   8.981  11.312   7.350
 7567POPC   C1B54895   8.890  11.507   6.450
 7567POPC   C2B54896   8.944  11.556   6.750
 7567POPC   C3B54897   8.918  11.530   7.050
 7567POPC   C4B54898   8.890  11.521   7.350
 7568POPC   NC354899  15.170   5.139   5.550
 7568POPC   PO454900  15.169   5.050   5.850
 7568POPC   GL154901  15.153   5.128   6.150
 7568POPC   GL254902  15.056   5.148   6.150
 7568POPC   C1A54903  15.170   5.120   6.450
 7568POPC   D2A54904  15.203   5.067   6.750
 7568POPC   C3A54905  15.225   5.082   7.050
 7568POPC   C4A54906  15.171   5.099   7.350
 7568POPC   C1B54907  14.980   5.230   6.450
 7568POPC   C2B54908  14.961   5.220   6.750
 7568POPC   C3B54909  14.940   5.186   7.050
 7568POPC   C4B54910  14.989   5.175   7.350
 7569POPC   NC354911  30.670  14.360   5.550
 7569POPC   PO454912  30.655  14.363   5.850
 7569POPC   GL154913  30.740  14.383   6.150
 7569POPC   GL254914  30.744  14.483   6.150
 7569POPC   C1A54915  30.670  14.429   6.450
 7569POPC   D2A54916  30.692  14.359   6.750
 7569POPC   C3A54917  30.723  14.354   7.050
 7569POPC   C4A54918  30.723  14.375   7.350
 7569POPC   C1B54919  30.887  14.638   6.450
 7569POPC   C2B54920  30.900  14.640   6.750
 7569POPC   C3B54921  30.860  14.571   7.050
 7569POPC   C4B54922  30.813  14.605   7.350
 7570POPC   NC354923  31.426  39.992   5.550
 7570POPC   PO454924  31.452  40.047   5.850
 7570POPC   GL154925  31.434  39.982   6.150
 7570POPC   GL254926  31.370  40.033   6.150
 7570POPC   C1A54927  31.485  39.995   6.450
 7570POPC   D2A54928  31.503  40.003   6.750
 7570POPC   C3A54929  31.453  40.036   7.050
 7570POPC   C4A54930  31.447  39.991   7.350
 7570POPC   C1B54931  31.246  40.141   6.450
 7570POPC   C2B54932  31.218  40.114   6.750
 7570POPC   C3B54933  31.234  40.118   7.050
 7570POPC   C4B54934  31.216  40.158   7.350
 7571POPC   NC354935  26.068  15.941   5.550
 7571POPC   PO454936  26.022  15.916   5.850
 7571POPC   GL154937  26.001  15.959   6.150
 7571POPC   GL254938  25.913  16.051   6.150
 7571POPC   C1A54939  26.017  15.961   6.450
 7571POPC   D2A54940  26.013  15.925   6.750
 7571POPC   C3A54941  26.018  15.918   7.050
 7571POPC   C4A54942  26.042  15.971   7.350
 7571POPC   C1B54943  25.832  16.091   6.450
 7571POPC   C2B54944  25.880  16.167   6.750
 7571POPC   C3B54945  25.882  16.097   7.050
 7571POPC   C4B54946  25.864  16.147   7.350
 7572POPC   NC354947  25.226  36.882   5.550
 7572POPC   PO454948  25.288  36.945   5.850
 7572POPC   GL154949  25.296  36.927   6.150
 7572POPC   GL254950  25.243  36.759   6.150
 7572POPC   C1A54951  25.225  36.928   6.450
 7572POPC   D2A54952  25.243  36.872   6.750
 7572POPC   C3A54953  25.264  36.888   7.050
 7572POPC   C4A54954  25.307  36.911   7.350
 7572POPC   C1B54955  25.256  36.625   6.450
 7572POPC   C2B54956  25.279  36.637   6.750
 7572POPC   C3B54957  25.280  36.665   7.050
 7572POPC   C4B54958  25.213  36.664   7.350
 7573POPC   NC354959  39.993   3.503   5.550
 7573POPC   PO454960  39.974   3.578   5.850
 7573POPC   GL154961  40.016   3.515   6.150
 7573POPC   GL254962  40.133   3.428   6.150
 7573POPC   C1A54963  40.036   3.570   6.450
 7573POPC   D2A54964  39.969   3.550   6.750
 7573POPC   C3A54965  39.999   3.554   7.050
 7573POPC   C4A54966  40.010   3.505   7.350
 7573POPC   C1B54967  40.253   3.409   6.450
 7573POPC   C2B54968  40.198   3.367   6.750
 7573POPC   C3B54969  40.169   3.409   7.050
 7573POPC   C4B54970  40.206   3.384   7.350
 7574POPC   NC354971  44.629  12.065   5.550
 7574POPC   PO454972  44.710  12.114   5.850
 7574POPC   GL154973  44.649  12.037   6.150
 7574POPC   GL254974  44.525  12.106   6.150
 7574POPC   C1A54975  44.627  12.039   6.450
 7574POPC   D2A54976  44.708  12.103   6.750
 7574POPC   C3A54977  44.700  12.087   7.050
 7574POPC   C4A54978  44.666  12.115   7.350
 7574POPC   C1B54979  44.457  12.117   6.450
 7574POPC   C2B54980  44.418  12.131   6.750
 7574POPC   C3B54981  44.386  12.099   7.050
 7574POPC   C4B54982  44.447  12.154   7.350
 7575POPC   NC354983  39.181  42.302   5.550
 7575POPC   PO454984  39.242  42.361   5.850
 7575POPC   GL154985  39.250  42.377   6.150
 7575POPC   GL254986  39.083  42.266   6.150
 7575POPC   C1A54987  39.220  42.378   6.450
 7575POPC   D2A54988  39.253  42.293   6.750
 7575POPC   C3A54989  39.265  42.342   7.050
 7575POPC   C4A54990  39.237  42.335   7.350
 7575POPC   C1B54991  38.993  42.323   6.450
 7575POPC   C2B54992  38.996  42.278   6.750
 7575POPC   C3B54993  38.996  42.298   7.050
 7575POPC   C4B54994  38.963  42.257   7.350
 7576POPC   NC354995  33.848  25.289   5.550
 7576POPC   PO454996  33.821  25.295   5.850
 7576POPC   GL154997  33.765  25.293   6.150
 7576POPC   GL254998  33.716  25.232   6.150
 7576POPC   C1A54999  33.839  25.305   6.450
 7576POPC   D2A55000  33.787  25.283   6.750
 7576POPC   C3A55001  33.809  25.231   7.050
 7576POPC   C4A55002  33.769  25.297   7.350
 7576POPC   C1B55003  33.597  25.237   6.450
 7576POPC   C2B55004  33.584  25.230   6.750
 7576POPC   C3B55005  33.550  25.247   7.050
 7576POPC   C4B55006  33.566  25.254   7.350
 7577POPC   NC355007  44.645  27.544   5.550
 7577POPC   PO455008  44.656  27.622   5.850
 7577POPC   GL155009  44.650  27.601   6.150
 7577POPC   GL255010  44.623  27.717   6.150
 7577POPC   C1A55011  44.673  27.615   6.450
 7577POPC   D2A55012  44.661  27.569   6.750
 7577POPC   C3A55013  44.669  27.606   7.050
 7577POPC   C4A55014  44.638  27.551   7.350
 7577POPC   C1B55015  44.557  27.767   6.450
 7577POPC   C2B55016  44.500  27.823   6.750
 7577POPC   C3B55017  44.539  27.831   7.050
 7577POPC   C4B55018  44.561  27.774   7.350
 7578POPC   NC355019  12.849   1.202   5.550
 7578POPC   PO455020  12.844   1.236   5.850
 7578POPC   GL155021  12.855   1.204   6.150
 7578POPC   GL255022  12.781   1.265   6.150
 7578POPC   C1A55023  12.845   1.215   6.450
 7578POPC   D2A55024  12.819   1.243   6.750
 7578POPC   C3A55025  12.814   1.217   7.050
 7578POPC   C4A55026  12.835   1.168   7.350
 7578POPC   C1B55027  12.635   1.281   6.450
 7578POPC   C2B55028  12.568   1.329   6.750
 7578POPC   C3B55029  12.577   1.337   7.050
 7578POPC   C4B55030  12.585   1.253   7.350
 7579POPC   NC355031  36.942  17.493   5.550
 7579POPC   PO455032  36.914  17.480   5.850
 7579POPC   GL155033  36.866  17.486   6.150
 7579POPC   GL255034  36.867  17.404   6.150
 7579POPC   C1A55035  36.886  17.527   6.450
 7579POPC   D2A55036  36.873  17.510   6.750
 7579POPC   C3A55037  36.928  17.539   7.050
 7579POPC   C4A55038  36.898  17.526   7.350
 7579POPC   C1B55039  36.845  17.311   6.450
 7579POPC   C2B55040  36.844  17.312   6.750
 7579POPC   C3B55041  36.811  17.231   7.050
 7579POPC   C4B55042  36.840  17.231   7.350
 7580POPC   NC355043   5.111   9.715   5.550
 7580POPC   PO455044   5.107   9.733   5.850
 7580POPC   GL155045   5.125   9.712   6.150
 7580POPC   GL255046   4.974   9.667   6.150
 7580POPC   C1A55047   5.063   9.798   6.450
 7580POPC   D2A55048   5.086   9.777   6.750
 7580POPC   C3A55049   5.139   9.703   7.050
 7580POPC   C4A55050   5.114   9.777   7.350
 7580POPC   C1B55051   4.905   9.568   6.450
 7580POPC   C2B55052   4.866   9.643   6.750
 7580POPC   C3B55053   4.875   9.616   7.050
 7580POPC   C4B55054   4.880   9.596   7.350
 7581POPC   NC355055  36.170   3.516   5.550
 7581POPC   PO455056  36.145   3.493   5.850
 7581POPC   GL155057  36.108   3.533   6.150
 7581POPC   GL255058  36.143   3.628   6.150
 7581POPC   C1A55059  36.151   3.586   6.450
 7581POPC   D2A55060  36.141   3.536   6.750
 7581POPC   C3A55061  36.101   3.557   7.050
 7581POPC   C4A55062  36.109   3.561   7.350
 7581POPC   C1B55063  36.185   3.794   6.450
 7581POPC   C2B55064  36.156   3.825   6.750
 7581POPC   C3B55065  36.152   3.797   7.050
 7581POPC   C4B55066  36.186   3.833   7.350
 7582POPC   NC355067   2.736  40.818   5.550
 7582POPC   PO455068   2.780  40.785   5.850
 7582POPC   GL155069   2.786  40.800   6.150
 7582POPC   GL255070   2.894  40.761   6.150
 7582POPC   C1A55071   2.766  40.755   6.450
 7582POPC   D2A55072   2.786  40.751   6.750
 7582POPC   C3A55073   2.758  40.789   7.050
 7582POPC   C4A55074   2.778  40.816   7.350
 7582POPC   C1B55075   3.015  40.758   6.450
 7582POPC   C2B55076   3.017  40.755   6.750
 7582POPC   C3B55077   3.009  40.838   7.050
 7582POPC   C4B55078   3.013  40.835   7.350
 7583POPC   NC355079  36.146  35.346   5.550
 7583POPC   PO455080  36.172  35.329   5.850
 7583POPC   GL155081  36.168  35.352   6.150
 7583POPC   GL255082  36.209  35.216   6.150
 7583POPC   C1A55083  36.095  35.307   6.450
 7583POPC   D2A55084  36.085  35.379   6.750
 7583POPC   C3A55085  36.117  35.337   7.050
 7583POPC   C4A55086  36.090  35.386   7.350
 7583POPC   C1B55087  36.341  35.200   6.450
 7583POPC   C2B55088  36.280  35.161   6.750
 7583POPC   C3B55089  36.277  35.196   7.050
 7583POPC   C4B55090  36.286  35.153   7.350
 7584POPC   NC355091  18.323  19.846   5.550
 7584POPC   PO455092  18.256  19.837   5.850
 7584POPC   GL155093  18.252  19.801   6.150
 7584POPC   GL255094  18.268  19.931   6.150
 7584POPC   C1A55095  18.265  19.872   6.450
 7584POPC   D2A55096  18.306  19.838   6.750
 7584POPC   C3A55097  18.262  19.802   7.050
 7584POPC   C4A55098  18.332  19.806   7.350
 7584POPC   C1B55099  18.167  20.035   6.450
 7584POPC   C2B55100  18.241  20.103   6.750
 7584POPC   C3B55101  18.211  20.107   7.050
 7584POPC   C4B55102  18.256  20.116   7.350
 7585POPC   NC355103  23.681  40.016   5.550
 7585POPC   PO455104  23.749  40.016   5.850
 7585POPC   GL155105  23.695  39.977   6.150
 7585POPC   GL255106  23.789  39.935   6.150
 7585POPC   C1A55107  23.720  39.990   6.450
 7585POPC   D2A55108  23.742  40.024   6.750
 7585POPC   C3A55109  23.682  40.014   7.050
 7585POPC   C4A55110  23.704  40.001   7.350
 7585POPC   C1B55111  23.945  39.874   6.450
 7585POPC   C2B55112  23.938  39.802   6.750
 7585POPC   C3B55113  23.875  39.847   7.050
 7585POPC   C4B55114  23.857  39.821   7.350
 7586POPC   NC355115   8.948  12.860   5.550
 7586POPC   PO455116   8.934  12.844   5.850
 7586POPC   GL155117   8.990  12.804   6.150
 7586POPC   GL255118   9.113  12.783   6.150
 7586POPC   C1A55119   8.985  12.830   6.450
 7586POPC   D2A55120   8.939  12.840   6.750
 7586POPC   C3A55121   9.011  12.845   7.050
 7586POPC   C4A55122   8.936  12.876   7.350
 7586POPC   C1B55123   9.254  12.792   6.450
 7586POPC   C2B55124   9.176  12.755   6.750
 7586POPC   C3B55125   9.229  12.803   7.050
 7586POPC   C4B55126   9.179  12.784   7.350
 7587POPC   NC355127  19.826  29.125   5.550
 7587POPC   PO455128  19.822  29.161   5.850
 7587POPC   GL155129  19.838  29.178   6.150
 7587POPC   GL255130  19.686  29.102   6.150
 7587POPC   C1A55131  19.862  29.190   6.450
 7587POPC   D2A55132  19.830  29.151   6.750
 7587POPC   C3A55133  19.864  29.136   7.050
 7587POPC   C4A55134  19.821  29.109   7.350
 7587POPC   C1B55135  19.555  29.133   6.450
 7587POPC   C2B55136  19.587  29.112   6.750
 7587POPC   C3B55137  19.623  29.076   7.050
 7587POPC   C4B55138  19.612  29.092   7.350
 7588POPC   NC355139  26.050  32.228   5.550
 7588POPC   PO455140  26.035  32.250   5.850
 7588POPC   GL155141  26.011  32.271   6.150
 7588POPC   GL255142  26.005  32.111   6.150
 7588POPC   C1A55143  26.035  32.273   6.450
 7588POPC   D2A55144  25.996  32.285   6.750
 7588POPC   C3A55145  26.066  32.258   7.050
 7588POPC   C4A55146  26.018  32.293   7.350
 7588POPC   C1B55147  26.037  32.016   6.450
 7588POPC   C2B55148  26.077  32.041   6.750
 7588POPC   C3B55149  26.027  31.980   7.050
 7588POPC   C4B55150  26.028  31.976   7.350
 7589POPC   NC355151  25.226  10.498   5.550
 7589POPC   PO455152  25.257  10.514   5.850
 7589POPC   GL155153  25.300  10.500   6.150
 7589POPC   GL255154  25.143  10.534   6.150
 7589POPC   C1A55155  25.264  10.533   6.450
 7589POPC   D2A55156  25.283  10.529   6.750
 7589POPC   C3A55157  25.313  10.477   7.050
 7589POPC   C4A55158  25.297  10.504   7.350
 7589POPC   C1B55159  25.010  10.496   6.450
 7589POPC   C2B55160  24.987  10.497   6.750
 7589POPC   C3B55161  25.056  10.454   7.050
 7589POPC   C4B55162  25.041  10.490   7.350
 7590POPC   NC355163  32.993  32.990   5.550
 7590POPC   PO455164  33.026  33.044   5.850
 7590POPC   GL155165  33.057  33.028   6.150
 7590POPC   GL255166  33.049  33.194   6.150
 7590POPC   C1A55167  33.010  33.067   6.450
 7590POPC   D2A55168  32.992  33.054   6.750
 7590POPC   C3A55169  33.051  33.047   7.050
 7590POPC   C4A55170  32.993  33.018   7.350
 7590POPC   C1B55171  33.042  33.286   6.450
 7590POPC   C2B55172  33.005  33.277   6.750
 7590POPC   C3B55173  33.078  33.241   7.050
 7590POPC   C4B55174  33.020  33.251   7.350
 7591POPC   NC355175   7.466  10.507   5.550
 7591POPC   PO455176   7.441  10.495   5.850
 7591POPC   GL155177   7.462  10.494   6.150
 7591POPC   GL255178   7.548  10.515   6.150
 7591POPC   C1A55179   7.444  10.488   6.450
 7591POPC   D2A55180   7.413  10.483   6.750
 7591POPC   C3A55181   7.440  10.539   7.050
 7591POPC   C4A55182   7.411  10.564   7.350
 7591POPC   C1B55183   7.668  10.503   6.450
 7591POPC   C2B55184   7.653  10.507   6.750
 7591POPC   C3B55185   7.645  10.506   7.050
 7591POPC   C4B55186   7.699  10.457   7.350
 7592POPC   NC355187  11.338  16.741   5.550
 7592POPC   PO455188  11.307  16.714   5.850
 7592POPC   GL155189  11.266  16.712   6.150
 7592POPC   GL255190  11.352  16.645   6.150
 7592POPC   C1A55191  11.318  16.739   6.450
 7592POPC   D2A55192  11.272  16.689   6.750
 7592POPC   C3A55193  11.290  16.778   7.050
 7592POPC   C4A55194  11.295  16.759   7.350
 7592POPC   C1B55195  11.385  16.488   6.450
 7592POPC   C2B55196  11.413  16.546   6.750
 7592POPC   C3B55197  11.478  16.516   7.050
 7592POPC   C4B55198  11.443  16.493   7.350
 7593POPC   NC355199  19.084  29.099   5.550
 7593POPC   PO455200  19.040  29.165   5.850
 7593POPC   GL155201  19.094  29.186   6.150
 7593POPC   GL255202  19.161  29.170   6.150
 7593POPC   C1A55203  19.043  29.101   6.450
 7593POPC   D2A55204  19.043  29.123   6.750
 7593POPC   C3A55205  19.080  29.101   7.050
 7593POPC   C4A55206  19.084  29.105   7.350
 7593POPC   C1B55207  19.289  29.284   6.450
 7593POPC   C2B55208  19.238  29.281   6.750
 7593POPC   C3B55209  19.270  29.257   7.050
 7593POPC   C4B55210  19.255  29.250   7.350
 7594POPC   NC355211   5.857  36.176   5.550
 7594POPC   PO455212   5.825  36.166   5.850
 7594POPC   GL155213   5.880  36.079   6.150
 7594POPC   GL255214   5.719  36.061   6.150
 7594POPC   C1A55215   5.905  36.123   6.450
 7594POPC   D2A55216   5.825  36.141   6.750
 7594POPC   C3A55217   5.833  36.126   7.050
 7594POPC   C4A55218   5.864  36.078   7.350
 7594POPC   C1B55219   5.666  36.006   6.450
 7594POPC   C2B55220   5.632  35.986   6.750
 7594POPC   C3B55221   5.636  35.992   7.050
 7594POPC   C4B55222   5.665  35.985   7.350
 7595POPC   NC355223   7.448  29.898   5.550
 7595POPC   PO455224   7.387  29.913   5.850
 7595POPC   GL155225   7.393  29.925   6.150
 7595POPC   GL255226   7.433  30.058   6.150
 7595POPC   C1A55227   7.376  29.943   6.450
 7595POPC   D2A55228   7.417  29.909   6.750
 7595POPC   C3A55229   7.397  29.890   7.050
 7595POPC   C4A55230   7.421  29.960   7.350
 7595POPC   C1B55231   7.351  30.168   6.450
 7595POPC   C2B55232   7.326  30.142   6.750
 7595POPC   C3B55233   7.335  30.201   7.050
 7595POPC   C4B55234   7.344  30.124   7.350
 7596POPC   NC355235  44.683  17.548   5.550
 7596POPC   PO455236  44.699  17.469   5.850
 7596POPC   GL155237  44.656  17.475   6.150
 7596POPC   GL255238  44.720  17.344   6.150
 7596POPC   C1A55239  44.673  17.552   6.450
 7596POPC   D2A55240  44.703  17.529   6.750
 7596POPC   C3A55241  44.689  17.538   7.050
 7596POPC   C4A55242  44.698  17.547   7.350
 7596POPC   C1B55243  44.646  17.300   6.450
 7596POPC   C2B55244  44.707  17.256   6.750
 7596POPC   C3B55245  44.664  17.265   7.050
 7596POPC   C4B55246  44.692  17.225   7.350
 7597POPC   NC355247   8.981  31.485   5.550
 7597POPC   PO455248   8.971  31.496   5.850
 7597POPC   GL155249   8.995  31.485   6.150
 7597POPC   GL255250   8.991  31.552   6.150
 7597POPC   C1A55251   8.955  31.432   6.450
 7597POPC   D2A55252   8.938  31.492   6.750
 7597POPC   C3A55253   8.937  31.451   7.050
 7597POPC   C4A55254   8.944  31.508   7.350
 7597POPC   C1B55255   8.909  31.675   6.450
 7597POPC   C2B55256   8.898  31.739   6.750
 7597POPC   C3B55257   8.977  31.695   7.050
 7597POPC   C4B55258   8.918  31.742   7.350
 7598POPC   NC355259  43.089  24.529   5.550
 7598POPC   PO455260  43.127  24.459   5.850
 7598POPC   GL155261  43.082  24.469   6.150
 7598POPC   GL255262  43.215  24.441   6.150
 7598POPC   C1A55263  43.124  24.463   6.450
 7598POPC   D2A55264  43.125  24.462   6.750
 7598POPC   C3A55265  43.060  24.493   7.050
 7598POPC   C4A55266  43.153  24.537   7.350
 7598POPC   C1B55267  43.353  24.435   6.450
 7598POPC   C2B55268  43.350  24.415   6.750
 7598POPC   C3B55269  43.358  24.390   7.050
 7598POPC   C4B55270  43.388  24.449   7.350
 7599POPC   NC355271  36.151  23.668   5.550
 7599POPC   PO455272  36.129  23.707   5.850
 7599POPC   GL155273  36.080  23.675   6.150
 7599POPC   GL255274  36.224  23.613   6.150
 7599POPC   C1A55275  36.103  23.714   6.450
 7599POPC   D2A55276  36.105  23.705   6.750
 7599POPC   C3A55277  36.157  23.726   7.050
 7599POPC   C4A55278  36.088  23.706   7.350
 7599POPC   C1B55279  36.211  23.477   6.450
 7599POPC   C2B55280  36.264  23.531   6.750
 7599POPC   C3B55281  36.265  23.472   7.050
 7599POPC   C4B55282  36.291  23.481   7.350
 7600POPC   NC355283   2.769  39.960   5.550
 7600POPC   PO455284   2.754  40.038   5.850
 7600POPC   GL155285   2.760  40.053   6.150
 7600POPC   GL255286   2.828  39.922   6.150
 7600POPC   C1A55287   2.735  39.963   6.450
 7600POPC   D2A55288   2.775  40.054   6.750
 7600POPC   C3A55289   2.808  40.054   7.050
 7600POPC   C4A55290   2.757  40.002   7.350
 7600POPC   C1B55291   2.812  39.774   6.450
 7600POPC   C2B55292   2.818  39.719   6.750
 7600POPC   C3B55293   2.789  39.757   7.050
 7600POPC   C4B55294   2.848  39.734   7.350
 7601POPC   NC355295  44.623  25.282   5.550
 7601POPC   PO455296  44.625  25.275   5.850
 7601POPC   GL155297  44.702  25.262   6.150
 7601POPC   GL255298  44.592  25.205   6.150
 7601POPC   C1A55299  44.670  25.246   6.450
 7601POPC   D2A55300  44.694  25.271   6.750
 7601POPC   C3A55301  44.636  25.238   7.050
 7601POPC   C4A55302  44.626  25.228   7.350
 7601POPC   C1B55303  44.431  25.066   6.450
 7601POPC   C2B55304  44.518  25.140   6.750
 7601POPC   C3B55305  44.443  25.089   7.050
 7601POPC   C4B55306  44.477  25.087   7.350
 7602POPC   NC355307   8.934  18.303   5.550
 7602POPC   PO455308   8.957  18.319   5.850
 7602POPC   GL155309   8.926  18.268   6.150
 7602POPC   GL255310   9.024  18.186   6.150
 7602POPC   C1A55311   8.970  18.292   6.450
 7602POPC   D2A55312   9.011  18.281   6.750
 7602POPC   C3A55313   8.938  18.305   7.050
 7602POPC   C4A55314   8.979  18.237   7.350
 7602POPC   C1B55315   9.082  18.042   6.450
 7602POPC   C2B55316   9.113  18.123   6.750
 7602POPC   C3B55317   9.178  18.122   7.050
 7602POPC   C4B55318   9.086  18.133   7.350
 7603POPC   NC355319  38.450  28.362   5.550
 7603POPC   PO455320  38.449  28.332   5.850
 7603POPC   GL155321  38.452  28.353   6.150
 7603POPC   GL255322  38.519  28.281   6.150
 7603POPC   C1A55323  38.481  28.417   6.450
 7603POPC   D2A55324  38.435  28.321   6.750
 7603POPC   C3A55325  38.474  28.332   7.050
 7603POPC   C4A55326  38.489  28.378   7.350
 7603POPC   C1B55327  38.518  28.121   6.450
 7603POPC   C2B55328  38.516  28.109   6.750
 7603POPC   C3B55329  38.538  28.090   7.050
 7603POPC   C4B55330  38.469  28.095   7.350
 7604POPC   NC355331   5.052   2.750   5.550
 7604POPC   PO455332   5.108   2.727   5.850
 7604POPC   GL155333   5.096   2.754   6.150
 7604POPC   GL255334   4.995   2.724   6.150
 7604POPC   C1A55335   5.089   2.727   6.450
 7604POPC   D2A55336   5.117   2.741   6.750
 7604POPC   C3A55337   5.107   2.758   7.050
 7604POPC   C4A55338   5.094   2.781   7.350
 7604POPC   C1B55339   4.891   2.732   6.450
 7604POPC   C2B55340   4.879   2.803   6.750
 7604POPC   C3B55341   4.800   2.762   7.050
 7604POPC   C4B55342   4.892   2.793   7.350
 7605POPC   NC355343  12.029   8.938   5.550
 7605POPC   PO455344  12.110   9.004   5.850
 7605POPC   GL155345  12.107   8.996   6.150
 7605POPC   GL255346  12.054   8.838   6.150
 7605POPC   C1A55347  12.065   8.930   6.450
 7605POPC   D2A55348  12.056   8.940   6.750
 7605POPC   C3A55349  12.078   8.959   7.050
 7605POPC   C4A55350  12.105   8.925   7.350
 7605POPC   C1B55351  12.108   8.741   6.450
 7605POPC   C2B55352  12.041   8.710   6.750
 7605POPC   C3B55353  12.110   8.756   7.050
 7605POPC   C4B55354  12.096   8.728   7.350
 7606POPC   NC355355  36.936  19.846   5.550
 7606POPC   PO455356  36.928  19.790   5.850
 7606POPC   GL155357  36.948  19.859   6.150
 7606POPC   GL255358  36.982  19.758   6.150
 7606POPC   C1A55359  36.923  19.798   6.450
 7606POPC   D2A55360  36.945  19.788   6.750
 7606POPC   C3A55361  36.893  19.842   7.050
 7606POPC   C4A55362  36.858  19.793   7.350
 7606POPC   C1B55363  37.104  19.655   6.450
 7606POPC   C2B55364  37.054  19.610   6.750
 7606POPC   C3B55365  37.054  19.616   7.050
 7606POPC   C4B55366  37.022  19.631   7.350
 7607POPC   NC355367   0.392   2.778   5.550
 7607POPC   PO455368   0.449   2.805   5.850
 7607POPC   GL155369   0.469   2.735   6.150
 7607POPC   GL255370   0.415   2.915   6.150
 7607POPC   C1A55371   0.441   2.741   6.450
 7607POPC   D2A55372   0.421   2.762   6.750
 7607POPC   C3A55373   0.396   2.806   7.050
 7607POPC   C4A55374   0.454   2.770   7.350
 7607POPC   C1B55375   0.342   3.003   6.450
 7607POPC   C2B55376   0.366   3.038   6.750
 7607POPC   C3B55377   0.342   2.957   7.050
 7607POPC   C4B55378   0.364   2.945   7.350
 7608POPC   NC355379  15.909  19.106   5.550
 7608POPC   PO455380  15.953  19.014   5.850
 7608POPC   GL155381  15.991  19.037   6.150
 7608POPC   GL255382  15.907  19.131   6.150
 7608POPC   C1A55383  15.918  19.068   6.450
 7608POPC   D2A55384  15.982  19.088   6.750
 7608POPC   C3A55385  15.960  19.053   7.050
 7608POPC   C4A55386  15.950  19.033   7.350
 7608POPC   C1B55387  15.895  19.257   6.450
 7608POPC   C2B55388  15.890  19.264   6.750
 7608POPC   C3B55389  15.912  19.323   7.050
 7608POPC   C4B55390  15.901  19.275   7.350
 7609POPC   NC355391  18.330   7.452   5.550
 7609POPC   PO455392  18.319   7.432   5.850
 7609POPC   GL155393  18.248   7.458   6.150
 7609POPC   GL255394  18.441   7.359   6.150
 7609POPC   C1A55395  18.279   7.394   6.450
 7609POPC   D2A55396  18.326   7.454   6.750
 7609POPC   C3A55397  18.268   7.421   7.050
 7609POPC   C4A55398  18.258   7.466   7.350
 7609POPC   C1B55399  18.565   7.388   6.450
 7609POPC   C2B55400  18.567   7.407   6.750
 7609POPC   C3B55401  18.537   7.438   7.050
 7609POPC   C4B55402  18.576   7.423   7.350
 7610POPC   NC355403  27.597  12.850   5.550
 7610POPC   PO455404  27.623  12.866   5.850
 7610POPC   GL155405  27.560  12.831   6.150
 7610POPC   GL255406  27.525  12.876   6.150
 7610POPC   C1A55407  27.551  12.882   6.450
 7610POPC   D2A55408  27.567  12.863   6.750
 7610POPC   C3A55409  27.601  12.820   7.050
 7610POPC   C4A55410  27.620  12.826   7.350
 7610POPC   C1B55411  27.388  12.974   6.450
 7610POPC   C2B55412  27.388  13.034   6.750
 7610POPC   C3B55413  27.376  13.040   7.050
 7610POPC   C4B55414  27.352  13.035   7.350
 7611POPC   NC355415  35.388  11.332   5.550
 7611POPC   PO455416  35.389  11.320   5.850
 7611POPC   GL155417  35.400  11.278   6.150
 7611POPC   GL255418  35.231  11.407   6.150
 7611POPC   C1A55419  35.305  11.328   6.450
 7611POPC   D2A55420  35.391  11.317   6.750
 7611POPC   C3A55421  35.391  11.306   7.050
 7611POPC   C4A55422  35.320  11.296   7.350
 7611POPC   C1B55423  35.233  11.519   6.450
 7611POPC   C2B55424  35.184  11.494   6.750
 7611POPC   C3B55425  35.168  11.480   7.050
 7611POPC   C4B55426  35.214  11.461   7.350
 7612POPC   NC355427  16.745  19.884   5.550
 7612POPC   PO455428  16.710  19.883   5.850
 7612POPC   GL155429  16.742  19.806   6.150
 7612POPC   GL255430  16.820  19.797   6.150
 7612POPC   C1A55431  16.730  19.797   6.450
 7612POPC   D2A55432  16.767  19.864   6.750
 7612POPC   C3A55433  16.775  19.871   7.050
 7612POPC   C4A55434  16.734  19.817   7.350
 7612POPC   C1B55435  16.949  19.657   6.450
 7612POPC   C2B55436  16.864  19.659   6.750
 7612POPC   C3B55437  16.873  19.615   7.050
 7612POPC   C4B55438  16.931  19.619   7.350
 7613POPC   NC355439  36.873  12.825   5.550
 7613POPC   PO455440  36.940  12.860   5.850
 7613POPC   GL155441  36.890  12.891   6.150
 7613POPC   GL255442  36.755  12.905   6.150
 7613POPC   C1A55443  36.906  12.883   6.450
 7613POPC   D2A55444  36.907  12.852   6.750
 7613POPC   C3A55445  36.920  12.896   7.050
 7613POPC   C4A55446  36.873  12.844   7.350
 7613POPC   C1B55447  36.698  12.999   6.450
 7613POPC   C2B55448  36.691  13.018   6.750
 7613POPC   C3B55449  36.719  12.953   7.050
 7613POPC   C4B55450  36.674  13.019   7.350
 7614POPC   NC355451   4.281  12.804   5.550
 7614POPC   PO455452   4.305  12.899   5.850
 7614POPC   GL155453   4.275  12.842   6.150
 7614POPC   GL255454   4.385  12.824   6.150
 7614POPC   C1A55455   4.302  12.875   6.450
 7614POPC   D2A55456   4.308  12.829   6.750
 7614POPC   C3A55457   4.324  12.843   7.050
 7614POPC   C4A55458   4.339  12.857   7.350
 7614POPC   C1B55459   4.565  12.736   6.450
 7614POPC   C2B55460   4.571  12.763   6.750
 7614POPC   C3B55461   4.588  12.755   7.050
 7614POPC   C4B55462   4.510  12.780   7.350
 7615POPC   NC355463  29.103  43.894   5.550
 7615POPC   PO455464  29.179  43.908   5.850
 7615POPC   GL155465  29.172  43.933   6.150
 7615POPC   GL255466  29.054  43.893   6.150
 7615POPC   C1A55467  29.169  43.837   6.450
 7615POPC   D2A55468  29.140  43.909   6.750
 7615POPC   C3A55469  29.101  43.858   7.050
 7615POPC   C4A55470  29.192  43.913   7.350
 7615POPC   C1B55471  28.904  43.868   6.450
 7615POPC   C2B55472  28.879  43.864   6.750
 7615POPC   C3B55473  28.926  43.919   7.050
 7615POPC   C4B55474  28.866  43.875   7.350
 7616POPC   NC355475  44.679   1.941   5.550
 7616POPC   PO455476  44.632   1.990   5.850
 7616POPC   GL155477  44.677   1.954   6.150
 7616POPC   GL255478  44.619   2.159   6.150
 7616POPC   C1A55479  44.703   1.958   6.450
 7616POPC   D2A55480  44.639   2.014   6.750
 7616POPC   C3A55481  44.670   2.033   7.050
 7616POPC   C4A55482  44.712   1.988   7.350
 7616POPC   C1B55483  44.597   2.232   6.450
 7616POPC   C2B55484  44.563   2.244   6.750
 7616POPC   C3B55485  44.618   2.227   7.050
 7616POPC   C4B55486  44.570   2.233   7.350
 7617POPC   NC355487   5.869  42.375   5.550
 7617POPC   PO455488   5.856  42.305   5.850
 7617POPC   GL155489   5.824  42.355   6.150
 7617POPC   GL255490   5.990  42.269   6.150
 7617POPC   C1A55491   5.848  42.363   6.450
 7617POPC   D2A55492   5.853  42.376   6.750
 7617POPC   C3A55493   5.882  42.321   7.050
 7617POPC   C4A55494   5.904  42.364   7.350
 7617POPC   C1B55495   6.050  42.237   6.450
 7617POPC   C2B55496   6.072  42.204   6.750
 7617POPC   C3B55497   6.123  42.191   7.050
 7617POPC   C4B55498   6.086  42.205   7.350
 7618POPC   NC355499   1.232  34.566   5.550
 7618POPC   PO455500   1.185  34.609   5.850
 7618POPC   GL155501   1.257  34.564   6.150
 7618POPC   GL255502   1.116  34.559   6.150
 7618POPC   C1A55503   1.259  34.616   6.450
 7618POPC   D2A55504   1.248  34.598   6.750
 7618POPC   C3A55505   1.172  34.592   7.050
 7618POPC   C4A55506   1.242  34.560   7.350
 7618POPC   C1B55507   0.967  34.670   6.450
 7618POPC   C2B55508   0.934  34.618   6.750
 7618POPC   C3B55509   0.968  34.613   7.050
 7618POPC   C4B55510   0.968  34.636   7.350
 7619POPC   NC355511  41.526  39.278   5.550
 7619POPC   PO455512  41.510  39.235   5.850
 7619POPC   GL155513  41.603  39.232   6.150
 7619POPC   GL255514  41.583  39.336   6.150
 7619POPC   C1A55515  41.524  39.262   6.450
 7619POPC   D2A55516  41.578  39.237   6.750
 7619POPC   C3A55517  41.571  39.200   7.050
 7619POPC   C4A55518  41.574  39.186   7.350
 7619POPC   C1B55519  41.611  39.516   6.450
 7619POPC   C2B55520  41.627  39.476   6.750
 7619POPC   C3B55521  41.566  39.436   7.050
 7619POPC   C4B55522  41.660  39.491   7.350
 7620POPC   NC355523  21.348   8.994   5.550
 7620POPC   PO455524  21.384   8.963   5.850
 7620POPC   GL155525  21.369   8.989   6.150
 7620POPC   GL255526  21.372   9.064   6.150
 7620POPC   C1A55527  21.378   8.998   6.450
 7620POPC   D2A55528  21.420   9.007   6.750
 7620POPC   C3A55529  21.403   8.964   7.050
 7620POPC   C4A55530  21.353   8.987   7.350
 7620POPC   C1B55531  21.250   9.172   6.450
 7620POPC   C2B55532  21.247   9.148   6.750
 7620POPC   C3B55533  21.267   9.214   7.050
 7620POPC   C4B55534  21.214   9.194   7.350
 7621POPC   NC355535   3.542  11.276   5.550
 7621POPC   PO455536   3.565  11.296   5.850
 7621POPC   GL155537   3.518  11.301   6.150
 7621POPC   GL255538   3.649  11.277   6.150
 7621POPC   C1A55539   3.559  11.307   6.450
 7621POPC   D2A55540   3.501  11.338   6.750
 7621POPC   C3A55541   3.558  11.346   7.050
 7621POPC   C4A55542   3.520  11.340   7.350
 7621POPC   C1B55543   3.820  11.280   6.450
 7621POPC   C2B55544   3.787  11.267   6.750
 7621POPC   C3B55545   3.784  11.279   7.050
 7621POPC   C4B55546   3.833  11.241   7.350
 7622POPC   NC355547  16.757  43.078   5.550
 7622POPC   PO455548  16.721  43.086   5.850
 7622POPC   GL155549  16.729  43.093   6.150
 7622POPC   GL255550  16.821  43.220   6.150
 7622POPC   C1A55551  16.758  43.099   6.450
 7622POPC   D2A55552  16.736  43.101   6.750
 7622POPC   C3A55553  16.773  43.071   7.050
 7622POPC   C4A55554  16.776  43.081   7.350
 7622POPC   C1B55555  16.906  43.307   6.450
 7622POPC   C2B55556  16.887  43.291   6.750
 7622POPC   C3B55557  16.892  43.302   7.050
 7622POPC   C4B55558  16.824  43.330   7.350
 7623POPC   NC355559  41.547   2.795   5.550
 7623POPC   PO455560  41.548   2.759   5.850
 7623POPC   GL155561  41.552   2.812   6.150
 7623POPC   GL255562  41.687   2.824   6.150
 7623POPC   C1A55563  41.581   2.761   6.450
 7623POPC   D2A55564  41.515   2.751   6.750
 7623POPC   C3A55565  41.561   2.765   7.050
 7623POPC   C4A55566  41.592   2.803   7.350
 7623POPC   C1B55567  41.762   2.928   6.450
 7623POPC   C2B55568  41.737   2.967   6.750
 7623POPC   C3B55569  41.755   2.980   7.050
 7623POPC   C4B55570  41.733   2.982   7.350
 7624POPC   NC355571  38.480  12.090   5.550
 7624POPC   PO455572  38.441  12.044   5.850
 7624POPC   GL155573  38.462  12.077   6.150
 7624POPC   GL255574  38.356  12.104   6.150
 7624POPC   C1A55575  38.419  12.067   6.450
 7624POPC   D2A55576  38.472  12.080   6.750
 7624POPC   C3A55577  38.455  12.072   7.050
 7624POPC   C4A55578  38.423  12.126   7.350
 7624POPC   C1B55579  38.236  12.152   6.450
 7624POPC   C2B55580  38.199  12.141   6.750
 7624POPC   C3B55581  38.184  12.061   7.050
 7624POPC   C4B55582  38.238  12.078   7.350
 7625POPC   NC355583  26.789  42.347   5.550
 7625POPC   PO455584  26.770  42.366   5.850
 7625POPC   GL155585  26.823  42.329   6.150
 7625POPC   GL255586  26.819  42.166   6.150
 7625POPC   C1A55587  26.793  42.330   6.450
 7625POPC   D2A55588  26.861  42.327   6.750
 7625POPC   C3A55589  26.851  42.324   7.050
 7625POPC   C4A55590  26.830  42.356   7.350
 7625POPC   C1B55591  26.790  42.079   6.450
 7625POPC   C2B55592  26.788  42.110   6.750
 7625POPC   C3B55593  26.750  42.113   7.050
 7625POPC   C4B55594  26.808  42.105   7.350
 7626POPC   NC355595  37.697   5.862   5.550
 7626POPC   PO455596  37.656   5.840   5.850
 7626POPC   GL155597  37.704   5.860   6.150
 7626POPC   GL255598  37.564   5.826   6.150
 7626POPC   C1A55599  37.668   5.841   6.450
 7626POPC   D2A55600  37.664   5.903   6.750
 7626POPC   C3A55601  37.659   5.875   7.050
 7626POPC   C4A55602  37.671   5.834   7.350
 7626POPC   C1B55603  37.438   5.847   6.450
 7626POPC   C2B55604  37.430   5.909   6.750
 7626POPC   C3B55605  37.403   5.908   7.050
 7626POPC   C4B55606  37.401   5.859   7.350
 7627POPC   NC355607  25.313  36.105   5.550
 7627POPC   PO455608  25.248  36.113   5.850
 7627POPC   GL155609  25.234  36.175   6.150
 7627POPC   GL255610  25.133  36.142   6.150
 7627POPC   C1A55611  25.223  36.089   6.450
 7627POPC   D2A55612  25.287  36.130   6.750
 7627POPC   C3A55613  25.231  36.172   7.050
 7627POPC   C4A55614  25.244  36.132   7.350
 7627POPC   C1B55615  24.978  36.111   6.450
 7627POPC   C2B55616  25.043  36.086   6.750
 7627POPC   C3B55617  25.062  36.090   7.050
 7627POPC   C4B55618  24.995  36.062   7.350
 7628POPC   NC355619  39.186  36.922   5.550
 7628POPC   PO455620  39.203  36.943   5.850
 7628POPC   GL155621  39.247  36.941   6.150
 7628POPC   GL255622  39.133  36.942   6.150
 7628POPC   C1A55623  39.187  36.925   6.450
 7628POPC   D2A55624  39.190  36.873   6.750
 7628POPC   C3A55625  39.228  36.931   7.050
 7628POPC   C4A55626  39.261  36.897   7.350
 7628POPC   C1B55627  38.951  36.877   6.450
 7628POPC   C2B55628  38.940  36.905   6.750
 7628POPC   C3B55629  38.958  36.949   7.050
 7628POPC   C4B55630  39.029  36.940   7.350
 7629POPC   NC355631  43.076  19.055   5.550
 7629POPC   PO455632  43.134  19.024   5.850
 7629POPC   GL155633  43.094  19.031   6.150
 7629POPC   GL255634  42.953  19.059   6.150
 7629POPC   C1A55635  43.107  19.093   6.450
 7629POPC   D2A55636  43.125  19.052   6.750
 7629POPC   C3A55637  43.151  19.041   7.050
 7629POPC   C4A55638  43.119  19.011   7.350
 7629POPC   C1B55639  42.821  19.100   6.450
 7629POPC   C2B55640  42.907  19.069   6.750
 7629POPC   C3B55641  42.900  19.140   7.050
 7629POPC   C4B55642  42.819  19.052   7.350
 7630POPC   NC355643  23.723  36.857   5.550
 7630POPC   PO455644  23.710  36.896   5.850
 7630POPC   GL155645  23.744  36.938   6.150
 7630POPC   GL255646  23.723  37.058   6.150
 7630POPC   C1A55647  23.758  36.913   6.450
 7630POPC   D2A55648  23.693  36.920   6.750
 7630POPC   C3A55649  23.717  36.927   7.050
 7630POPC   C4A55650  23.687  36.931   7.350
 7630POPC   C1B55651  23.674  37.113   6.450
 7630POPC   C2B55652  23.699  37.132   6.750
 7630POPC   C3B55653  23.676  37.157   7.050
 7630POPC   C4B55654  23.661  37.164   7.350
 7631POPC   NC355655  26.840  32.991   5.550
 7631POPC   PO455656  26.852  33.072   5.850
 7631POPC   GL155657  26.841  33.052   6.150
 7631POPC   GL255658  26.680  33.029   6.150
 7631POPC   C1A55659  26.795  33.001   6.450
 7631POPC   D2A55660  26.791  33.069   6.750
 7631POPC   C3A55661  26.785  33.011   7.050
 7631POPC   C4A55662  26.857  33.012   7.350
 7631POPC   C1B55663  26.581  33.005   6.450
 7631POPC   C2B55664  26.596  33.019   6.750
 7631POPC   C3B55665  26.604  32.993   7.050
 7631POPC   C4B55666  26.567  32.960   7.350
 7632POPC   NC355667  26.004  26.773   5.550
 7632POPC   PO455668  26.018  26.810   5.850
 7632POPC   GL155669  26.087  26.813   6.150
 7632POPC   GL255670  25.949  26.812   6.150
 7632POPC   C1A55671  26.080  26.824   6.450
 7632POPC   D2A55672  26.002  26.774   6.750
 7632POPC   C3A55673  26.025  26.827   7.050
 7632POPC   C4A55674  26.082  26.827   7.350
 7632POPC   C1B55675  25.763  26.844   6.450
 7632POPC   C2B55676  25.767  26.814   6.750
 7632POPC   C3B55677  25.775  26.791   7.050
 7632POPC   C4B55678  25.842  26.805   7.350
 7633POPC   NC355679   1.239  21.384   5.550
 7633POPC   PO455680   1.197  21.339   5.850
 7633POPC   GL155681   1.171  21.431   6.150
 7633POPC   GL255682   1.214  21.464   6.150
 7633POPC   C1A55683   1.175  21.434   6.450
 7633POPC   D2A55684   1.231  21.425   6.750
 7633POPC   C3A55685   1.192  21.391   7.050
 7633POPC   C4A55686   1.215  21.365   7.350
 7633POPC   C1B55687   1.251  21.637   6.450
 7633POPC   C2B55688   1.180  21.646   6.750
 7633POPC   C3B55689   1.222  21.625   7.050
 7633POPC   C4B55690   1.174  21.665   7.350
 7634POPC   NC355691   2.030  33.072   5.550
 7634POPC   PO455692   2.011  33.024   5.850
 7634POPC   GL155693   1.985  33.047   6.150
 7634POPC   GL255694   2.070  32.956   6.150
 7634POPC   C1A55695   1.998  33.028   6.450
 7634POPC   D2A55696   1.973  33.046   6.750
 7634POPC   C3A55697   2.016  33.069   7.050
 7634POPC   C4A55698   1.991  33.025   7.350
 7634POPC   C1B55699   2.134  32.787   6.450
 7634POPC   C2B55700   2.175  32.850   6.750
 7634POPC   C3B55701   2.106  32.778   7.050
 7634POPC   C4B55702   2.173  32.874   7.350
 7635POPC   NC355703  19.099  34.534   5.550
 7635POPC   PO455704  19.032  34.527   5.850
 7635POPC   GL155705  19.042  34.562   6.150
 7635POPC   GL255706  18.934  34.584   6.150
 7635POPC   C1A55707  19.107  34.589   6.450
 7635POPC   D2A55708  19.069  34.530   6.750
 7635POPC   C3A55709  19.062  34.607   7.050
 7635POPC   C4A55710  19.064  34.535   7.350
 7635POPC   C1B55711  18.826  34.635   6.450
 7635POPC   C2B55712  18.796  34.635   6.750
 7635POPC   C3B55713  18.856  34.636   7.050
 7635POPC   C4B55714  18.791  34.622   7.350
 7636POPC   NC355715  15.184  42.353   5.550
 7636POPC   PO455716  15.209  42.377   5.850
 7636POPC   GL155717  15.213  42.309   6.150
 7636POPC   GL255718  15.106  42.457   6.150
 7636POPC   C1A55719  15.154  42.366   6.450
 7636POPC   D2A55720  15.195  42.359   6.750
 7636POPC   C3A55721  15.136  42.341   7.050
 7636POPC   C4A55722  15.130  42.351   7.350
 7636POPC   C1B55723  15.009  42.473   6.450
 7636POPC   C2B55724  14.954  42.494   6.750
 7636POPC   C3B55725  14.963  42.464   7.050
 7636POPC   C4B55726  15.000  42.498   7.350
 7637POPC   NC355727  35.361  22.132   5.550
 7637POPC   PO455728  35.329  22.113   5.850
 7637POPC   GL155729  35.364  22.191   6.150
 7637POPC   GL255730  35.199  22.146   6.150
 7637POPC   C1A55731  35.342  22.179   6.450
 7637POPC   D2A55732  35.363  22.138   6.750
 7637POPC   C3A55733  35.366  22.178   7.050
 7637POPC   C4A55734  35.395  22.171   7.350
 7637POPC   C1B55735  35.061  22.097   6.450
 7637POPC   C2B55736  35.121  22.089   6.750
 7637POPC   C3B55737  35.109  22.072   7.050
 7637POPC   C4B55738  35.092  22.107   7.350
 7638POPC   NC355739  26.060  22.962   5.550
 7638POPC   PO455740  25.994  22.909   5.850
 7638POPC   GL155741  26.056  22.974   6.150
 7638POPC   GL255742  25.982  22.919   6.150
 7638POPC   C1A55743  26.025  22.909   6.450
 7638POPC   D2A55744  26.087  22.978   6.750
 7638POPC   C3A55745  26.034  22.975   7.050
 7638POPC   C4A55746  26.039  22.905   7.350
 7638POPC   C1B55747  25.852  22.853   6.450
 7638POPC   C2B55748  25.864  22.780   6.750
 7638POPC   C3B55749  25.817  22.854   7.050
 7638POPC   C4B55750  25.818  22.788   7.350
 7639POPC   NC355751  11.335  19.035   5.550
 7639POPC   PO455752  11.290  19.016   5.850
 7639POPC   GL155753  11.301  19.035   6.150
 7639POPC   GL255754  11.187  19.038   6.150
 7639POPC   C1A55755  11.330  19.027   6.450
 7639POPC   D2A55756  11.290  19.079   6.750
 7639POPC   C3A55757  11.338  19.057   7.050
 7639POPC   C4A55758  11.349  19.075   7.350
 7639POPC   C1B55759  11.064  19.155   6.450
 7639POPC   C2B55760  11.073  19.102   6.750
 7639POPC   C3B55761  11.026  19.131   7.050
 7639POPC   C4B55762  11.059  19.120   7.350
 7640POPC   NC355763  20.563  21.395   5.550
 7640POPC   PO455764  20.601  21.351   5.850
 7640POPC   GL155765  20.588  21.424   6.150
 7640POPC   GL255766  20.776  21.358   6.150
 7640POPC   C1A55767  20.623  21.354   6.450
 7640POPC   D2A55768  20.628  21.354   6.750
 7640POPC   C3A55769  20.658  21.417   7.050
 7640POPC   C4A55770  20.561  21.401   7.350
 7640POPC   C1B55771  20.831  21.383   6.450
 7640POPC   C2B55772  20.876  21.372   6.750
 7640POPC   C3B55773  20.838  21.424   7.050
 7640POPC   C4B55774  20.813  21.367   7.350
 7641POPC   NC355775  13.588  12.072   5.550
 7641POPC   PO455776  13.626  12.119   5.850
 7641POPC   GL155777  13.592  12.094   6.150
 7641POPC   GL255778  13.772  12.199   6.150
 7641POPC   C1A55779  13.655  12.104   6.450
 7641POPC   D2A55780  13.599  12.092   6.750
 7641POPC   C3A55781  13.672  12.126   7.050
 7641POPC   C4A55782  13.664  12.120   7.350
 7641POPC   C1B55783  13.798  12.197   6.450
 7641POPC   C2B55784  13.789  12.207   6.750
 7641POPC   C3B55785  13.834  12.212   7.050
 7641POPC   C4B55786  13.837  12.275   7.350
 7642POPC   NC355787  36.118  15.988   5.550
 7642POPC   PO455788  36.081  15.920   5.850
 7642POPC   GL155789  36.160  15.996   6.150
 7642POPC   GL255790  36.191  15.891   6.150
 7642POPC   C1A55791  36.162  16.003   6.450
 7642POPC   D2A55792  36.136  15.978   6.750
 7642POPC   C3A55793  36.174  15.979   7.050
 7642POPC   C4A55794  36.141  15.970   7.350
 7642POPC   C1B55795  36.330  15.802   6.450
 7642POPC   C2B55796  36.276  15.775   6.750
 7642POPC   C3B55797  36.269  15.778   7.050
 7642POPC   C4B55798  36.308  15.753   7.350
 7643POPC   NC355799  34.587   6.655   5.550
 7643POPC   PO455800  34.574   6.616   5.850
 7643POPC   GL155801  34.598   6.633   6.150
 7643POPC   GL255802  34.436   6.638   6.150
 7643POPC   C1A55803  34.548   6.661   6.450
 7643POPC   D2A55804  34.609   6.671   6.750
 7643POPC   C3A55805  34.527   6.688   7.050
 7643POPC   C4A55806  34.559   6.690   7.350
 7643POPC   C1B55807  34.329   6.747   6.450
 7643POPC   C2B55808  34.300   6.721   6.750
 7643POPC   C3B55809  34.311   6.703   7.050
 7643POPC   C4B55810  34.324   6.687   7.350
 7644POPC   NC355811   1.990  19.805   5.550
 7644POPC   PO455812   1.995  19.878   5.850
 7644POPC   GL155813   2.001  19.791   6.150
 7644POPC   GL255814   1.996  19.736   6.150
 7644POPC   C1A55815   1.975  19.811   6.450
 7644POPC   D2A55816   1.982  19.844   6.750
 7644POPC   C3A55817   2.001  19.835   7.050
 7644POPC   C4A55818   1.999  19.818   7.350
 7644POPC   C1B55819   2.114  19.652   6.450
 7644POPC   C2B55820   2.115  19.618   6.750
 7644POPC   C3B55821   2.060  19.635   7.050
 7644POPC   C4B55822   2.069  19.637   7.350
 7645POPC   NC355823  26.013  28.419   5.550
 7645POPC   PO455824  26.055  28.340   5.850
 7645POPC   GL155825  26.036  28.400   6.150
 7645POPC   GL255826  26.123  28.338   6.150
 7645POPC   C1A55827  26.038  28.363   6.450
 7645POPC   D2A55828  26.028  28.339   6.750
 7645POPC   C3A55829  26.075  28.350   7.050
 7645POPC   C4A55830  26.007  28.411   7.350
 7645POPC   C1B55831  26.278  28.213   6.450
 7645POPC   C2B55832  26.266  28.233   6.750
 7645POPC   C3B55833  26.261  28.271   7.050
 7645POPC   C4B55834  26.291  28.300   7.350
 7646POPC   NC355835  37.658  31.491   5.550
 7646POPC   PO455836  37.718  31.429   5.850
 7646POPC   GL155837  37.672  31.442   6.150
 7646POPC   GL255838  37.622  31.383   6.150
 7646POPC   C1A55839  37.700  31.437   6.450
 7646POPC   D2A55840  37.641  31.506   6.750
 7646POPC   C3A55841  37.648  31.452   7.050
 7646POPC   C4A55842  37.655  31.474   7.350
 7646POPC   C1B55843  37.448  31.336   6.450
 7646POPC   C2B55844  37.471  31.314   6.750
 7646POPC   C3B55845  37.469  31.310   7.050
 7646POPC   C4B55846  37.454  31.368   7.350
 7647POPC   NC355847  23.704  39.222   5.550
 7647POPC   PO455848  23.752  39.257   5.850
 7647POPC   GL155849  23.750  39.214   6.150
 7647POPC   GL255850  23.767  39.177   6.150
 7647POPC   C1A55851  23.687  39.279   6.450
 7647POPC   D2A55852  23.735  39.263   6.750
 7647POPC   C3A55853  23.757  39.259   7.050
 7647POPC   C4A55854  23.753  39.196   7.350
 7647POPC   C1B55855  23.901  39.055   6.450
 7647POPC   C2B55856  23.883  39.054   6.750
 7647POPC   C3B55857  23.915  39.029   7.050
 7647POPC   C4B55858  23.936  39.083   7.350
 7648POPC   NC355859  12.087  19.059   5.550
 7648POPC   PO455860  12.089  19.037   5.850
 7648POPC   GL155861  12.047  19.030   6.150
 7648POPC   GL255862  12.220  19.072   6.150
 7648POPC   C1A55863  12.109  19.100   6.450
 7648POPC   D2A55864  12.073  19.073   6.750
 7648POPC   C3A55865  12.070  19.099   7.050
 7648POPC   C4A55866  12.076  19.014   7.350
 7648POPC   C1B55867  12.316  19.071   6.450
 7648POPC   C2B55868  12.298  19.006   6.750
 7648POPC   C3B55869  12.320  18.994   7.050
 7648POPC   C4B55870  12.312  19.013   7.350
 7649POPC   NC355871   2.738  17.485   5.550
 7649POPC   PO455872   2.754  17.546   5.850
 7649POPC   GL155873   2.720  17.540   6.150
 7649POPC   GL255874   2.839  17.465   6.150
 7649POPC   C1A55875   2.796  17.486   6.450
 7649POPC   D2A55876   2.729  17.476   6.750
 7649POPC   C3A55877   2.779  17.548   7.050
 7649POPC   C4A55878   2.753  17.480   7.350
 7649POPC   C1B55879   2.941  17.380   6.450
 7649POPC   C2B55880   2.995  17.384   6.750
 7649POPC   C3B55881   3.007  17.320   7.050
 7649POPC   C4B55882   2.994  17.364   7.350
 7650POPC   NC355883  22.121   1.973   5.550
 7650POPC   PO455884  22.157   1.954   5.850
 7650POPC   GL155885  22.147   1.966   6.150
 7650POPC   GL255886  22.155   1.828   6.150
 7650POPC   C1A55887  22.132   2.014   6.450
 7650POPC   D2A55888  22.145   1.995   6.750
 7650POPC   C3A55889  22.164   2.002   7.050
 7650POPC   C4A55890  22.168   1.947   7.350
 7650POPC   C1B55891  22.230   1.771   6.450
 7650POPC   C2B55892  22.208   1.768   6.750
 7650POPC   C3B55893  22.214   1.727   7.050
 7650POPC   C4B55894  22.197   1.766   7.350
 7651POPC   NC355895  33.752  40.055   5.550
 7651POPC   PO455896  33.808  40.039   5.850
 7651POPC   GL155897  33.837  40.020   6.150
 7651POPC   GL255898  33.713  40.022   6.150
 7651POPC   C1A55899  33.849  40.050   6.450
 7651POPC   D2A55900  33.822  40.050   6.750
 7651POPC   C3A55901  33.830  40.040   7.050
 7651POPC   C4A55902  33.769  40.028   7.350
 7651POPC   C1B55903  33.568  40.085   6.450
 7651POPC   C2B55904  33.574  40.127   6.750
 7651POPC   C3B55905  33.561  40.171   7.050
 7651POPC   C4B55906  33.564  40.110   7.350
 7652POPC   NC355907  32.292   6.635   5.550
 7652POPC   PO455908  32.274   6.687   5.850
 7652POPC   GL155909  32.255   6.658   6.150
 7652POPC   GL255910  32.279   6.757   6.150
 7652POPC   C1A55911  32.214   6.685   6.450
 7652POPC   D2A55912  32.258   6.612   6.750
 7652POPC   C3A55913  32.215   6.677   7.050
 7652POPC   C4A55914  32.272   6.691   7.350
 7652POPC   C1B55915  32.403   6.854   6.450
 7652POPC   C2B55916  32.421   6.883   6.750
 7652POPC   C3B55917  32.451   6.790   7.050
 7652POPC   C4B55918  32.362   6.794   7.350
 7653POPC   NC355919  37.676  19.056   5.550
 7653POPC   PO455920  37.693  19.072   5.850
 7653POPC   GL155921  37.697  19.032   6.150
 7653POPC   GL255922  37.713  18.919   6.150
 7653POPC   C1A55923  37.728  19.081   6.450
 7653POPC   D2A55924  37.668  19.107   6.750
 7653POPC   C3A55925  37.639  19.028   7.050
 7653POPC   C4A55926  37.695  19.080   7.350
 7653POPC   C1B55927  37.684  18.825   6.450
 7653POPC   C2B55928  37.734  18.836   6.750
 7653POPC   C3B55929  37.721  18.822   7.050
 7653POPC   C4B55930  37.677  18.853   7.350
 7654POPC   NC355931   0.443  14.386   5.550
 7654POPC   PO455932   0.406  14.430   5.850
 7654POPC   GL155933   0.468  14.444   6.150
 7654POPC   GL255934   0.314  14.474   6.150
 7654POPC   C1A55935   0.437  14.424   6.450
 7654POPC   D2A55936   0.412  14.366   6.750
 7654POPC   C3A55937   0.424  14.382   7.050
 7654POPC   C4A55938   0.470  14.450   7.350
 7654POPC   C1B55939   0.193  14.428   6.450
 7654POPC   C2B55940   0.183  14.423   6.750
 7654POPC   C3B55941   0.212  14.502   7.050
 7654POPC   C4B55942   0.243  14.450   7.350
 7655POPC   NC355943  13.654  43.125   5.550
 7655POPC   PO455944  13.662  43.126   5.850
 7655POPC   GL155945  13.646  43.071   6.150
 7655POPC   GL255946  13.768  43.029   6.150
 7655POPC   C1A55947  13.670  43.076   6.450
 7655POPC   D2A55948  13.668  43.134   6.750
 7655POPC   C3A55949  13.633  43.136   7.050
 7655POPC   C4A55950  13.578  43.143   7.350
 7655POPC   C1B55951  13.902  42.963   6.450
 7655POPC   C2B55952  13.816  42.956   6.750
 7655POPC   C3B55953  13.841  43.007   7.050
 7655POPC   C4B55954  13.807  43.012   7.350
 7656POPC   NC355955  11.278   3.574   5.550
 7656POPC   PO455956  11.333   3.499   5.850
 7656POPC   GL155957  11.278   3.527   6.150
 7656POPC   GL255958  11.405   3.601   6.150
 7656POPC   C1A55959  11.272   3.578   6.450
 7656POPC   D2A55960  11.289   3.495   6.750
 7656POPC   C3A55961  11.349   3.529   7.050
 7656POPC   C4A55962  11.251   3.538   7.350
 7656POPC   C1B55963  11.422   3.736   6.450
 7656POPC   C2B55964  11.483   3.774   6.750
 7656POPC   C3B55965  11.419   3.739   7.050
 7656POPC   C4B55966  11.436   3.711   7.350
 7657POPC   NC355967  29.957  29.959   5.550
 7657POPC   PO455968  29.960  29.875   5.850
 7657POPC   GL155969  29.875  29.896   6.150
 7657POPC   GL255970  30.016  29.912   6.150
 7657POPC   C1A55971  29.894  29.893   6.450
 7657POPC   D2A55972  29.941  29.877   6.750
 7657POPC   C3A55973  29.871  29.960   7.050
 7657POPC   C4A55974  29.970  29.905   7.350
 7657POPC   C1B55975  30.192  29.943   6.450
 7657POPC   C2B55976  30.133  29.963   6.750
 7657POPC   C3B55977  30.188  29.884   7.050
 7657POPC   C4B55978  30.132  29.877   7.350
 7658POPC   NC355979  39.970  29.970   5.550
 7658POPC   PO455980  40.055  29.950   5.850
 7658POPC   GL155981  40.041  29.900   6.150
 7658POPC   GL255982  39.852  29.845   6.150
 7658POPC   C1A55983  40.012  29.946   6.450
 7658POPC   D2A55984  40.004  29.947   6.750
 7658POPC   C3A55985  40.007  29.951   7.050
 7658POPC   C4A55986  40.056  29.902   7.350
 7658POPC   C1B55987  39.836  29.810   6.450
 7658POPC   C2B55988  39.771  29.843   6.750
 7658POPC   C3B55989  39.801  29.837   7.050
 7658POPC   C4B55990  39.757  29.753   7.350
 7659POPC   NC355991  19.093  18.300   5.550
 7659POPC   PO455992  19.105  18.264   5.850
 7659POPC   GL155993  19.035  18.240   6.150
 7659POPC   GL255994  19.124  18.199   6.150
 7659POPC   C1A55995  19.074  18.234   6.450
 7659POPC   D2A55996  19.030  18.327   6.750
 7659POPC   C3A55997  19.034  18.252   7.050
 7659POPC   C4A55998  19.068  18.281   7.350
 7659POPC   C1B55999  19.304  18.165   6.450
 7659POPC   C2B56000  19.327  18.176   6.750
 7659POPC   C3B56001  19.331  18.189   7.050
 7659POPC   C4B56002  19.298  18.215   7.350
 7660POPC   NC356003  13.594  40.769   5.550
 7660POPC   PO456004  13.629  40.744   5.850
 7660POPC   GL156005  13.650  40.808   6.150
 7660POPC   GL256006  13.578  40.657   6.150
 7660POPC   C1A56007  13.622  40.832   6.450
 7660POPC   D2A56008  13.654  40.814   6.750
 7660POPC   C3A56009  13.611  40.818   7.050
 7660POPC   C4A56010  13.586  40.821   7.350
 7660POPC   C1B56011  13.475  40.589   6.450
 7660POPC   C2B56012  13.405  40.629   6.750
 7660POPC   C3B56013  13.393  40.576   7.050
 7660POPC   C4B56014  13.404  40.592   7.350
 7661POPC   NC356015  43.097   8.978   5.550
 7661POPC   PO456016  43.104   8.938   5.850
 7661POPC   GL156017  43.139   8.959   6.150
 7661POPC   GL256018  43.182   9.107   6.150
 7661POPC   C1A56019  43.102   8.947   6.450
 7661POPC   D2A56020  43.160   8.947   6.750
 7661POPC   C3A56021  43.128   9.022   7.050
 7661POPC   C4A56022  43.100   8.941   7.350
 7661POPC   C1B56023  43.291   9.158   6.450
 7661POPC   C2B56024  43.256   9.135   6.750
 7661POPC   C3B56025  43.250   9.165   7.050
 7661POPC   C4B56026  43.305   9.105   7.350
 7662POPC   NC356027  17.531  12.884   5.550
 7662POPC   PO456028  17.488  12.891   5.850
 7662POPC   GL156029  17.494  12.876   6.150
 7662POPC   GL256030  17.602  12.832   6.150
 7662POPC   C1A56031  17.484  12.820   6.450
 7662POPC   D2A56032  17.502  12.859   6.750
 7662POPC   C3A56033  17.531  12.847   7.050
 7662POPC   C4A56034  17.551  12.875   7.350
 7662POPC   C1B56035  17.771  12.734   6.450
 7662POPC   C2B56036  17.743  12.722   6.750
 7662POPC   C3B56037  17.697  12.748   7.050
 7662POPC   C4B56038  17.708  12.763   7.350
 7663POPC   NC356039  15.958  33.841   5.550
 7663POPC   PO456040  15.933  33.802   5.850
 7663POPC   GL156041  15.995  33.774   6.150
 7663POPC   GL256042  15.836  33.773   6.150
 7663POPC   C1A56043  15.991  33.774   6.450
 7663POPC   D2A56044  15.973  33.822   6.750
 7663POPC   C3A56045  15.916  33.762   7.050
 7663POPC   C4A56046  15.932  33.766   7.350
 7663POPC   C1B56047  15.718  33.792   6.450
 7663POPC   C2B56048  15.693  33.859   6.750
 7663POPC   C3B56049  15.714  33.820   7.050
 7663POPC   C4B56050  15.739  33.789   7.350
 7664POPC   NC356051  29.900  32.285   5.550
 7664POPC   PO456052  29.895  32.244   5.850
 7664POPC   GL156053  29.909  32.262   6.150
 7664POPC   GL256054  29.893  32.127   6.150
 7664POPC   C1A56055  29.907  32.199   6.450
 7664POPC   D2A56056  29.937  32.290   6.750
 7664POPC   C3A56057  29.897  32.266   7.050
 7664POPC   C4A56058  29.904  32.205   7.350
 7664POPC   C1B56059  29.945  31.993   6.450
 7664POPC   C2B56060  29.953  31.978   6.750
 7664POPC   C3B56061  29.899  32.024   7.050
 7664POPC   C4B56062  29.913  31.962   7.350
 7665POPC   NC356063   5.909  30.683   5.550
 7665POPC   PO456064   5.911  30.711   5.850
 7665POPC   GL156065   5.866  30.721   6.150
 7665POPC   GL256066   5.998  30.758   6.150
 7665POPC   C1A56067   5.845  30.691   6.450
 7665POPC   D2A56068   5.868  30.713   6.750
 7665POPC   C3A56069   5.851  30.701   7.050
 7665POPC   C4A56070   5.833  30.656   7.350
 7665POPC   C1B56071   6.067  30.917   6.450
 7665POPC   C2B56072   6.063  30.878   6.750
 7665POPC   C3B56073   6.036  30.865   7.050
 7665POPC   C4B56074   6.016  30.872   7.350
 7666POPC   NC356075  12.887  43.905   5.550
 7666POPC   PO456076  12.820  43.885   5.850
 7666POPC   GL156077  12.858  43.852   6.150
 7666POPC   GL256078  12.896  43.960   6.150
 7666POPC   C1A56079  12.846  43.846   6.450
 7666POPC   D2A56080  12.889  43.878   6.750
 7666POPC   C3A56081  12.817  43.866   7.050
 7666POPC   C4A56082  12.847  43.883   7.350
 7666POPC   C1B56083  12.846  44.158   6.450
 7666POPC   C2B56084  12.901  44.150   6.750
 7666POPC   C3B56085  12.929  44.176   7.050
 7666POPC   C4B56086  12.878  44.123   7.350
 7667POPC   NC356087   8.924  39.213   5.550
 7667POPC   PO456088   8.942  39.197   5.850
 7667POPC   GL156089   9.013  39.227   6.150
 7667POPC   GL256090   9.060  39.254   6.150
 7667POPC   C1A56091   8.955  39.235   6.450
 7667POPC   D2A56092   8.980  39.226   6.750
 7667POPC   C3A56093   8.965  39.245   7.050
 7667POPC   C4A56094   8.967  39.280   7.350
 7667POPC   C1B56095   9.165  39.262   6.450
 7667POPC   C2B56096   9.167  39.312   6.750
 7667POPC   C3B56097   9.214  39.248   7.050
 7667POPC   C4B56098   9.204  39.292   7.350
 7668POPC   NC356099  17.473  35.334   5.550
 7668POPC   PO456100  17.543  35.322   5.850
 7668POPC   GL156101  17.517  35.399   6.150
 7668POPC   GL256102  17.566  35.266   6.150
 7668POPC   C1A56103  17.525  35.327   6.450
 7668POPC   D2A56104  17.502  35.314   6.750
 7668POPC   C3A56105  17.481  35.346   7.050
 7668POPC   C4A56106  17.524  35.338   7.350
 7668POPC   C1B56107  17.631  35.175   6.450
 7668POPC   C2B56108  17.630  35.130   6.750
 7668POPC   C3B56109  17.642  35.165   7.050
 7668POPC   C4B56110  17.648  35.176   7.350
 7669POPC   NC356111  40.822  17.470   5.550
 7669POPC   PO456112  40.762  17.544   5.850
 7669POPC   GL156113  40.753  17.498   6.150
 7669POPC   GL256114  40.751  17.622   6.150
 7669POPC   C1A56115  40.815  17.540   6.450
 7669POPC   D2A56116  40.765  17.512   6.750
 7669POPC   C3A56117  40.742  17.471   7.050
 7669POPC   C4A56118  40.804  17.548   7.350
 7669POPC   C1B56119  40.809  17.714   6.450
 7669POPC   C2B56120  40.803  17.739   6.750
 7669POPC   C3B56121  40.819  17.736   7.050
 7669POPC   C4B56122  40.799  17.786   7.350
 7670POPC   NC356123  30.664  33.768   5.550
 7670POPC   PO456124  30.662  33.754   5.850
 7670POPC   GL156125  30.652  33.831   6.150
 7670POPC   GL256126  30.831  33.877   6.150
 7670POPC   C1A56127  30.705  33.812   6.450
 7670POPC   D2A56128  30.649  33.786   6.750
 7670POPC   C3A56129  30.739  33.825   7.050
 7670POPC   C4A56130  30.678  33.815   7.350
 7670POPC   C1B56131  30.958  33.864   6.450
 7670POPC   C2B56132  30.940  33.871   6.750
 7670POPC   C3B56133  30.931  33.848   7.050
 7670POPC   C4B56134  30.915  33.875   7.350
 7671POPC   NC356135  16.719   5.911   5.550
 7671POPC   PO456136  16.700   5.911   5.850
 7671POPC   GL156137  16.749   5.897   6.150
 7671POPC   GL256138  16.765   5.947   6.150
 7671POPC   C1A56139  16.684   5.874   6.450
 7671POPC   D2A56140  16.729   5.823   6.750
 7671POPC   C3A56141  16.761   5.868   7.050
 7671POPC   C4A56142  16.762   5.890   7.350
 7671POPC   C1B56143  16.835   6.038   6.450
 7671POPC   C2B56144  16.884   6.044   6.750
 7671POPC   C3B56145  16.841   6.110   7.050
 7671POPC   C4B56146  16.907   6.067   7.350
 7672POPC   NC356147  11.327  27.581   5.550
 7672POPC   PO456148  11.271  27.583   5.850
 7672POPC   GL156149  11.324  27.578   6.150
 7672POPC   GL256150  11.249  27.451   6.150
 7672POPC   C1A56151  11.277  27.637   6.450
 7672POPC   D2A56152  11.329  27.633   6.750
 7672POPC   C3A56153  11.348  27.610   7.050
 7672POPC   C4A56154  11.273  27.608   7.350
 7672POPC   C1B56155  11.331  27.303   6.450
 7672POPC   C2B56156  11.240  27.339   6.750
 7672POPC   C3B56157  11.306  27.323   7.050
 7672POPC   C4B56158  11.315  27.360   7.350
 7673POPC   NC356159  22.149  36.898   5.550
 7673POPC   PO456160  22.135  36.897   5.850
 7673POPC   GL156161  22.134  36.865   6.150
 7673POPC   GL256162  22.086  36.966   6.150
 7673POPC   C1A56163  22.122  36.918   6.450
 7673POPC   D2A56164  22.154  36.865   6.750
 7673POPC   C3A56165  22.199  36.879   7.050
 7673POPC   C4A56166  22.125  36.937   7.350
 7673POPC   C1B56167  21.938  36.959   6.450
 7673POPC   C2B56168  21.905  36.974   6.750
 7673POPC   C3B56169  21.907  36.978   7.050
 7673POPC   C4B56170  21.969  36.925   7.350
 7674POPC   NC356171  19.089  22.162   5.550
 7674POPC   PO456172  19.029  22.187   5.850
 7674POPC   GL156173  19.100  22.115   6.150
 7674POPC   GL256174  18.896  22.221   6.150
 7674POPC   C1A56175  19.083  22.183   6.450
 7674POPC   D2A56176  19.024  22.139   6.750
 7674POPC   C3A56177  19.039  22.144   7.050
 7674POPC   C4A56178  19.027  22.137   7.350
 7674POPC   C1B56179  18.793  22.210   6.450
 7674POPC   C2B56180  18.784  22.211   6.750
 7674POPC   C3B56181  18.836  22.225   7.050
 7674POPC   C4B56182  18.823  22.239   7.350
 7675POPC   NC356183  22.899  40.741   5.550
 7675POPC   PO456184  22.956  40.748   5.850
 7675POPC   GL156185  22.962  40.796   6.150
 7675POPC   GL256186  22.791  40.783   6.150
 7675POPC   C1A56187  22.910  40.763   6.450
 7675POPC   D2A56188  22.979  40.758   6.750
 7675POPC   C3A56189  22.912  40.829   7.050
 7675POPC   C4A56190  22.963  40.807   7.350
 7675POPC   C1B56191  22.663  40.899   6.450
 7675POPC   C2B56192  22.687  40.846   6.750
 7675POPC   C3B56193  22.664  40.881   7.050
 7675POPC   C4B56194  22.676  40.808   7.350
 7676POPC   NC356195   5.853  39.988   5.550
 7676POPC   PO456196   5.901  40.052   5.850
 7676POPC   GL156197   5.859  39.987   6.150
 7676POPC   GL256198   5.909  40.089   6.150
 7676POPC   C1A56199   5.870  40.029   6.450
 7676POPC   D2A56200   5.898  39.978   6.750
 7676POPC   C3A56201   5.873  40.050   7.050
 7676POPC   C4A56202   5.862  40.053   7.350
 7676POPC   C1B56203   5.993  40.225   6.450
 7676POPC   C2B56204   6.056  40.243   6.750
 7676POPC   C3B56205   6.062  40.217   7.050
 7676POPC   C4B56206   6.014  40.207   7.350
 7677POPC   NC356207  10.561  43.072   5.550
 7677POPC   PO456208  10.528  43.084   5.850
 7677POPC   GL156209  10.485  43.065   6.150
 7677POPC   GL256210  10.607  43.146   6.150
 7677POPC   C1A56211  10.521  43.134   6.450
 7677POPC   D2A56212  10.562  43.062   6.750
 7677POPC   C3A56213  10.566  43.107   7.050
 7677POPC   C4A56214  10.509  43.137   7.350
 7677POPC   C1B56215  10.742  43.210   6.450
 7677POPC   C2B56216  10.744  43.179   6.750
 7677POPC   C3B56217  10.767  43.250   7.050
 7677POPC   C4B56218  10.728  43.206   7.350
 7678POPC   NC356219  28.415   4.312   5.550
 7678POPC   PO456220  28.358   4.308   5.850
 7678POPC   GL156221  28.407   4.304   6.150
 7678POPC   GL256222  28.374   4.187   6.150
 7678POPC   C1A56223  28.401   4.327   6.450
 7678POPC   D2A56224  28.338   4.345   6.750
 7678POPC   C3A56225  28.413   4.271   7.050
 7678POPC   C4A56226  28.394   4.272   7.350
 7678POPC   C1B56227  28.358   4.081   6.450
 7678POPC   C2B56228  28.436   4.114   6.750
 7678POPC   C3B56229  28.368   4.030   7.050
 7678POPC   C4B56230  28.398   4.031   7.350
 7679POPC   NC356231  12.080  12.855   5.550
 7679POPC   PO456232  12.116  12.891   5.850
 7679POPC   GL156233  12.064  12.896   6.150
 7679POPC   GL256234  12.072  12.976   6.150
 7679POPC   C1A56235  12.124  12.894   6.450
 7679POPC   D2A56236  12.116  12.880   6.750
 7679POPC   C3A56237  12.114  12.887   7.050
 7679POPC   C4A56238  12.113  12.862   7.350
 7679POPC   C1B56239  12.149  13.111   6.450
 7679POPC   C2B56240  12.134  13.085   6.750
 7679POPC   C3B56241  12.163  13.049   7.050
 7679POPC   C4B56242  12.130  13.059   7.350
 7680POPC   NC356243   2.020  23.674   5.550
 7680POPC   PO456244   1.945  23.714   5.850
 7680POPC   GL156245   1.996  23.760   6.150
 7680POPC   GL256246   2.070  23.833   6.150
 7680POPC   C1A56247   2.039  23.746   6.450
 7680POPC   D2A56248   1.980  23.697   6.750
 7680POPC   C3A56249   2.021  23.703   7.050
 7680POPC   C4A56250   2.039  23.751   7.350
 7680POPC   C1B56251   2.120  23.954   6.450
 7680POPC   C2B56252   2.109  23.951   6.750
 7680POPC   C3B56253   2.166  23.902   7.050
 7680POPC   C4B56254   2.196  23.901   7.350
 7681POPC   NC356255   1.985  18.239   5.550
 7681POPC   PO456256   1.949  18.251   5.850
 7681POPC   GL156257   1.976  18.309   6.150
 7681POPC   GL256258   1.932  18.417   6.150
 7681POPC   C1A56259   1.986  18.313   6.450
 7681POPC   D2A56260   1.963  18.246   6.750
 7681POPC   C3A56261   1.960  18.237   7.050
 7681POPC   C4A56262   1.988  18.310   7.350
 7681POPC   C1B56263   1.908  18.474   6.450
 7681POPC   C2B56264   1.917  18.533   6.750
 7681POPC   C3B56265   1.886  18.458   7.050
 7681POPC   C4B56266   1.880  18.556   7.350
 7682POPC   NC356267  25.252  33.849   5.550
 7682POPC   PO456268  25.273  33.815   5.850
 7682POPC   GL156269  25.240  33.814   6.150
 7682POPC   GL256270  25.394  33.761   6.150
 7682POPC   C1A56271  25.253  33.827   6.450
 7682POPC   D2A56272  25.252  33.836   6.750
 7682POPC   C3A56273  25.299  33.834   7.050
 7682POPC   C4A56274  25.246  33.794   7.350
 7682POPC   C1B56275  25.445  33.668   6.450
 7682POPC   C2B56276  25.506  33.673   6.750
 7682POPC   C3B56277  25.419  33.615   7.050
 7682POPC   C4B56278  25.498  33.652   7.350
 7683POPC   NC356279   4.354  23.762   5.550
 7683POPC   PO456280   4.312  23.750   5.850
 7683POPC   GL156281   4.350  23.729   6.150
 7683POPC   GL256282   4.223  23.649   6.150
 7683POPC   C1A56283   4.298  23.722   6.450
 7683POPC   D2A56284   4.313  23.731   6.750
 7683POPC   C3A56285   4.296  23.729   7.050
 7683POPC   C4A56286   4.293  23.695   7.350
 7683POPC   C1B56287   4.245  23.448   6.450
 7683POPC   C2B56288   4.213  23.508   6.750
 7683POPC   C3B56289   4.181  23.457   7.050
 7683POPC   C4B56290   4.219  23.470   7.350
 7684POPC   NC356291  44.698  24.452   5.550
 7684POPC   PO456292  44.688  24.459   5.850
 7684POPC   GL156293  44.694  24.539   6.150
 7684POPC   GL256294  44.725  24.437   6.150
 7684POPC   C1A56295  44.651  24.517   6.450
 7684POPC   D2A56296  44.626  24.478   6.750
 7684POPC   C3A56297  44.677  24.446   7.050
 7684POPC   C4A56298  44.659  24.443   7.350
 7684POPC   C1B56299  44.790  24.268   6.450
 7684POPC   C2B56300  44.841  24.279   6.750
 7684POPC   C3B56301  44.842  24.331   7.050
 7684POPC   C4B56302  44.853  24.287   7.350
 7685POPC   NC356303  37.637  33.784   5.550
 7685POPC   PO456304  37.683  33.795   5.850
 7685POPC   GL156305  37.685  33.757   6.150
 7685POPC   GL256306  37.600  33.907   6.150
 7685POPC   C1A56307  37.728  33.811   6.450
 7685POPC   D2A56308  37.668  33.839   6.750
 7685POPC   C3A56309  37.692  33.834   7.050
 7685POPC   C4A56310  37.714  33.798   7.350
 7685POPC   C1B56311  37.486  34.003   6.450
 7685POPC   C2B56312  37.513  33.998   6.750
 7685POPC   C3B56313  37.540  33.966   7.050
 7685POPC   C4B56314  37.540  34.008   7.350
 7686POPC   NC356315  40.788  11.279   5.550
 7686POPC   PO456316  40.746  11.284   5.850
 7686POPC   GL156317  40.770  11.301   6.150
 7686POPC   GL256318  40.738  11.457   6.150
 7686POPC   C1A56319  40.767  11.308   6.450
 7686POPC   D2A56320  40.779  11.289   6.750
 7686POPC   C3A56321  40.778  11.269   7.050
 7686POPC   C4A56322  40.770  11.284   7.350
 7686POPC   C1B56323  40.758  11.520   6.450
 7686POPC   C2B56324  40.773  11.533   6.750
 7686POPC   C3B56325  40.713  11.551   7.050
 7686POPC   C4B56326  40.774  11.534   7.350
 7687POPC   NC356327   9.710  43.879   5.550
 7687POPC   PO456328   9.743  43.899   5.850
 7687POPC   GL156329   9.725  43.881   6.150
 7687POPC   GL256330   9.851  43.904   6.150
 7687POPC   C1A56331   9.735  43.869   6.450
 7687POPC   D2A56332   9.751  43.877   6.750
 7687POPC   C3A56333   9.755  43.873   7.050
 7687POPC   C4A56334   9.740  43.837   7.350
 7687POPC   C1B56335  10.028  43.873   6.450
 7687POPC   C2B56336   9.952  43.886   6.750
 7687POPC   C3B56337  10.027  43.818   7.050
 7687POPC   C4B56338  10.018  43.815   7.350
 7688POPC   NC356339  40.735  29.146   5.550
 7688POPC   PO456340  40.831  29.170   5.850
 7688POPC   GL156341  40.755  29.162   6.150
 7688POPC   GL256342  40.741  29.065   6.150
 7688POPC   C1A56343  40.813  29.170   6.450
 7688POPC   D2A56344  40.826  29.115   6.750
 7688POPC   C3A56345  40.788  29.155   7.050
 7688POPC   C4A56346  40.815  29.178   7.350
 7688POPC   C1B56347  40.664  28.950   6.450
 7688POPC   C2B56348  40.671  28.944   6.750
 7688POPC   C3B56349  40.680  28.877   7.050
 7688POPC   C4B56350  40.709  28.891   7.350
 7689POPC   NC356351   5.059   2.033   5.550
 7689POPC   PO456352   5.122   1.994   5.850
 7689POPC   GL156353   5.125   1.994   6.150
 7689POPC   GL256354   4.964   1.880   6.150
 7689POPC   C1A56355   5.081   1.942   6.450
 7689POPC   D2A56356   5.124   1.958   6.750
 7689POPC   C3A56357   5.101   1.943   7.050
 7689POPC   C4A56358   5.110   1.978   7.350
 7689POPC   C1B56359   4.962   1.784   6.450
 7689POPC   C2B56360   4.925   1.779   6.750
 7689POPC   C3B56361   4.882   1.845   7.050
 7689POPC   C4B56362   4.916   1.863   7.350
 7690POPC   NC356363  16.692  19.091   5.550
 7690POPC   PO456364  16.687  19.041   5.850
 7690POPC   GL156365  16.748  19.087   6.150
 7690POPC   GL256366  16.705  18.945   6.150
 7690POPC   C1A56367  16.764  19.043   6.450
 7690POPC   D2A56368  16.732  19.033   6.750
 7690POPC   C3A56369  16.758  19.059   7.050
 7690POPC   C4A56370  16.690  19.011   7.350
 7690POPC   C1B56371  16.741  18.791   6.450
 7690POPC   C2B56372  16.730  18.775   6.750
 7690POPC   C3B56373  16.702  18.761   7.050
 7690POPC   C4B56374  16.678  18.830   7.350
 7691POPC   NC356375  43.155  22.933   5.550
 7691POPC   PO456376  43.160  22.916   5.850
 7691POPC   GL156377  43.153  22.901   6.150
 7691POPC   GL256378  43.249  22.936   6.150
 7691POPC   C1A56379  43.134  22.976   6.450
 7691POPC   D2A56380  43.134  22.985   6.750
 7691POPC   C3A56381  43.091  22.913   7.050
 7691POPC   C4A56382  43.145  22.959   7.350
 7691POPC   C1B56383  43.331  23.017   6.450
 7691POPC   C2B56384  43.377  22.937   6.750
 7691POPC   C3B56385  43.347  23.028   7.050
 7691POPC   C4B56386  43.338  23.011   7.350
 7692POPC   NC356387  33.066  19.849   5.550
 7692POPC   PO456388  33.000  19.798   5.850
 7692POPC   GL156389  33.000  19.848   6.150
 7692POPC   GL256390  33.165  19.934   6.150
 7692POPC   C1A56391  33.037  19.843   6.450
 7692POPC   D2A56392  33.067  19.797   6.750
 7692POPC   C3A56393  32.975  19.807   7.050
 7692POPC   C4A56394  32.994  19.842   7.350
 7692POPC   C1B56395  33.256  19.956   6.450
 7692POPC   C2B56396  33.208  19.958   6.750
 7692POPC   C3B56397  33.221  19.946   7.050
 7692POPC   C4B56398  33.243  19.937   7.350
 7693POPC   NC356399  40.755  40.776   5.550
 7693POPC   PO456400  40.750  40.741   5.850
 7693POPC   GL156401  40.810  40.772   6.150
 7693POPC   GL256402  40.679  40.854   6.150
 7693POPC   C1A56403  40.830  40.783   6.450
 7693POPC   D2A56404  40.830  40.805   6.750
 7693POPC   C3A56405  40.813  40.797   7.050
 7693POPC   C4A56406  40.824  40.739   7.350
 7693POPC   C1B56407  40.534  40.880   6.450
 7693POPC   C2B56408  40.523  40.867   6.750
 7693POPC   C3B56409  40.526  40.907   7.050
 7693POPC   C4B56410  40.592  40.932   7.350
 7694POPC   NC356411  23.717   9.722   5.550
 7694POPC   PO456412  23.665   9.764   5.850
 7694POPC   GL156413  23.731   9.779   6.150
 7694POPC   GL256414  23.838   9.676   6.150
 7694POPC   C1A56415  23.759   9.713   6.450
 7694POPC   D2A56416  23.731   9.770   6.750
 7694POPC   C3A56417  23.759   9.784   7.050
 7694POPC   C4A56418  23.753   9.796   7.350
 7694POPC   C1B56419  23.904   9.608   6.450
 7694POPC   C2B56420  23.932   9.600   6.750
 7694POPC   C3B56421  23.930   9.559   7.050
 7694POPC   C4B56422  23.865   9.631   7.350
 7695POPC   NC356423  28.336   2.754   5.550
 7695POPC   PO456424  28.362   2.747   5.850
 7695POPC   GL156425  28.373   2.778   6.150
 7695POPC   GL256426  28.398   2.631   6.150
 7695POPC   C1A56427  28.415   2.722   6.450
 7695POPC   D2A56428  28.385   2.767   6.750
 7695POPC   C3A56429  28.367   2.732   7.050
 7695POPC   C4A56430  28.384   2.812   7.350
 7695POPC   C1B56431  28.521   2.520   6.450
 7695POPC   C2B56432  28.463   2.567   6.750
 7695POPC   C3B56433  28.459   2.558   7.050
 7695POPC   C4B56434  28.472   2.569   7.350
 7696POPC   NC356435  29.135   8.244   5.550
 7696POPC   PO456436  29.195   8.191   5.850
 7696POPC   GL156437  29.125   8.154   6.150
 7696POPC   GL256438  29.268   8.298   6.150
 7696POPC   C1A56439  29.155   8.198   6.450
 7696POPC   D2A56440  29.169   8.207   6.750
 7696POPC   C3A56441  29.133   8.240   7.050
 7696POPC   C4A56442  29.173   8.177   7.350
 7696POPC   C1B56443  29.388   8.344   6.450
 7696POPC   C2B56444  29.357   8.289   6.750
 7696POPC   C3B56445  29.324   8.263   7.050
 7696POPC   C4B56446  29.332   8.313   7.350
 7697POPC   NC356447  25.273  27.630   5.550
 7697POPC   PO456448  25.250  27.580   5.850
 7697POPC   GL156449  25.292  27.575   6.150
 7697POPC   GL256450  25.165  27.598   6.150
 7697POPC   C1A56451  25.292  27.640   6.450
 7697POPC   D2A56452  25.232  27.559   6.750
 7697POPC   C3A56453  25.270  27.599   7.050
 7697POPC   C4A56454  25.252  27.546   7.350
 7697POPC   C1B56455  25.061  27.586   6.450
 7697POPC   C2B56456  25.055  27.580   6.750
 7697POPC   C3B56457  25.043  27.523   7.050
 7697POPC   C4B56458  25.034  27.523   7.350
 7698POPC   NC356459   9.729  32.213   5.550
 7698POPC   PO456460   9.778  32.221   5.850
 7698POPC   GL156461   9.791  32.294   6.150
 7698POPC   GL256462   9.737  32.097   6.150
 7698POPC   C1A56463   9.736  32.258   6.450
 7698POPC   D2A56464   9.740  32.238   6.750
 7698POPC   C3A56465   9.772  32.254   7.050
 7698POPC   C4A56466   9.765  32.286   7.350
 7698POPC   C1B56467   9.723  32.031   6.450
 7698POPC   C2B56468   9.657  32.019   6.750
 7698POPC   C3B56469   9.651  31.960   7.050
 7698POPC   C4B56470   9.700  32.008   7.350
 7699POPC   NC356471  35.394  43.902   5.550
 7699POPC   PO456472  35.351  43.915   5.850
 7699POPC   GL156473  35.312  43.867   6.150
 7699POPC   GL256474  35.227  43.901   6.150
 7699POPC   C1A56475  35.400  43.920   6.450
 7699POPC   D2A56476  35.377  43.859   6.750
 7699POPC   C3A56477  35.345  43.889   7.050
 7699POPC   C4A56478  35.327  43.848   7.350
 7699POPC   C1B56479  35.080  44.015   6.450
 7699POPC   C2B56480  35.164  44.045   6.750
 7699POPC   C3B56481  35.089  44.012   7.050
 7699POPC   C4B56482  35.119  43.997   7.350
 7700POPC   NC356483   8.177  27.559   5.550
 7700POPC   PO456484   8.202  27.545   5.850
 7700POPC   GL156485   8.237  27.577   6.150
 7700POPC   GL256486   8.088  27.528   6.150
 7700POPC   C1A56487   8.203  27.600   6.450
 7700POPC   D2A56488   8.176  27.604   6.750
 7700POPC   C3A56489   8.175  27.625   7.050
 7700POPC   C4A56490   8.179  27.563   7.350
 7700POPC   C1B56491   8.034  27.361   6.450
 7700POPC   C2B56492   8.084  27.380   6.750
 7700POPC   C3B56493   8.049  27.439   7.050
 7700POPC   C4B56494   8.020  27.383   7.350
 7701POPC   NC356495  15.921   9.763   5.550
 7701POPC   PO456496  16.005   9.766   5.850
 7701POPC   GL156497  15.959   9.782   6.150
 7701POPC   GL256498  15.808   9.703   6.150
 7701POPC   C1A56499  15.971   9.728   6.450
 7701POPC   D2A56500  15.957   9.756   6.750
 7701POPC   C3A56501  15.946   9.755   7.050
 7701POPC   C4A56502  15.912   9.743   7.350
 7701POPC   C1B56503  15.788   9.563   6.450
 7701POPC   C2B56504  15.722   9.560   6.750
 7701POPC   C3B56505  15.721   9.643   7.050
 7701POPC   C4B56506  15.725   9.548   7.350
 7702POPC   NC356507  10.518  26.767   5.550
 7702POPC   PO456508  10.539  26.857   5.850
 7702POPC   GL156509  10.541  26.812   6.150
 7702POPC   GL256510  10.481  26.769   6.150
 7702POPC   C1A56511  10.487  26.831   6.450
 7702POPC   D2A56512  10.571  26.859   6.750
 7702POPC   C3A56513  10.505  26.794   7.050
 7702POPC   C4A56514  10.478  26.786   7.350
 7702POPC   C1B56515  10.302  26.619   6.450
 7702POPC   C2B56516  10.354  26.612   6.750
 7702POPC   C3B56517  10.383  26.677   7.050
 7702POPC   C4B56518  10.365  26.609   7.350
 7703POPC   NC356519  13.648   8.147   5.550
 7703POPC   PO456520  13.622   8.198   5.850
 7703POPC   GL156521  13.645   8.163   6.150
 7703POPC   GL256522  13.570   8.349   6.150
 7703POPC   C1A56523  13.580   8.217   6.450
 7703POPC   D2A56524  13.641   8.165   6.750
 7703POPC   C3A56525  13.623   8.246   7.050
 7703POPC   C4A56526  13.591   8.148   7.350
 7703POPC   C1B56527  13.529   8.440   6.450
 7703POPC   C2B56528  13.466   8.465   6.750
 7703POPC   C3B56529  13.476   8.419   7.050
 7703POPC   C4B56530  13.484   8.375   7.350
 7704POPC   NC356531  44.686  32.267   5.550
 7704POPC   PO456532  44.681  32.283   5.850
 7704POPC   GL156533  44.616  32.271   6.150
 7704POPC   GL256534  44.707  32.130   6.150
 7704POPC   C1A56535  44.615  32.236   6.450
 7704POPC   D2A56536  44.681  32.226   6.750
 7704POPC   C3A56537  44.613  32.295   7.050
 7704POPC   C4A56538  44.701  32.260   7.350
 7704POPC   C1B56539  44.824  32.090   6.450
 7704POPC   C2B56540  44.792  32.107   6.750
 7704POPC   C3B56541  44.869  32.119   7.050
 7704POPC   C4B56542  44.794  32.026   7.350
 7705POPC   NC356543  40.056  24.441   5.550
 7705POPC   PO456544  39.988  24.454   5.850
 7705POPC   GL156545  39.994  24.483   6.150
 7705POPC   GL256546  40.080  24.466   6.150
 7705POPC   C1A56547  39.978  24.453   6.450
 7705POPC   D2A56548  40.014  24.456   6.750
 7705POPC   C3A56549  40.001  24.535   7.050
 7705POPC   C4A56550  39.980  24.457   7.350
 7705POPC   C1B56551  40.226  24.326   6.450
 7705POPC   C2B56552  40.258  24.393   6.750
 7705POPC   C3B56553  40.255  24.364   7.050
 7705POPC   C4B56554  40.259  24.324   7.350
 7706POPC   NC356555   4.346  25.222   5.550
 7706POPC   PO456556   4.328  25.280   5.850
 7706POPC   GL156557   4.300  25.216   6.150
 7706POPC   GL256558   4.156  25.303   6.150
 7706POPC   C1A56559   4.346  25.249   6.450
 7706POPC   D2A56560   4.356  25.308   6.750
 7706POPC   C3A56561   4.355  25.275   7.050
 7706POPC   C4A56562   4.295  25.272   7.350
 7706POPC   C1B56563   4.027  25.329   6.450
 7706POPC   C2B56564   4.076  25.349   6.750
 7706POPC   C3B56565   4.035  25.309   7.050
 7706POPC   C4B56566   4.038  25.371   7.350
 7707POPC   NC356567  30.673   1.187   5.550
 7707POPC   PO456568  30.746   1.236   5.850
 7707POPC   GL156569  30.723   1.184   6.150
 7707POPC   GL256570  30.618   1.106   6.150
 7707POPC   C1A56571  30.693   1.188   6.450
 7707POPC   D2A56572  30.742   1.250   6.750
 7707POPC   C3A56573  30.695   1.250   7.050
 7707POPC   C4A56574  30.742   1.217   7.350
 7707POPC   C1B56575  30.577   0.956   6.450
 7707POPC   C2B56576  30.601   0.951   6.750
 7707POPC   C3B56577  30.609   0.990   7.050
 7707POPC   C4B56578  30.562   0.978   7.350
 7708POPC   NC356579   6.630   9.003   5.550
 7708POPC   PO456580   6.643   8.980   5.850
 7708POPC   GL156581   6.628   8.931   6.150
 7708POPC   GL256582   6.513   9.069   6.150
 7708POPC   C1A56583   6.692   8.971   6.450
 7708POPC   D2A56584   6.693   8.974   6.750
 7708POPC   C3A56585   6.674   8.950   7.050
 7708POPC   C4A56586   6.622   8.944   7.350
 7708POPC   C1B56587   6.448   9.042   6.450
 7708POPC   C2B56588   6.460   9.131   6.750
 7708POPC   C3B56589   6.410   9.051   7.050
 7708POPC   C4B56590   6.435   9.048   7.350
 7709POPC   NC356591   4.307  17.467   5.550
 7709POPC   PO456592   4.354  17.470   5.850
 7709POPC   GL156593   4.298  17.555   6.150
 7709POPC   GL256594   4.417  17.469   6.150
 7709POPC   C1A56595   4.288  17.514   6.450
 7709POPC   D2A56596   4.322  17.482   6.750
 7709POPC   C3A56597   4.273  17.524   7.050
 7709POPC   C4A56598   4.286  17.554   7.350
 7709POPC   C1B56599   4.579  17.486   6.450
 7709POPC   C2B56600   4.598  17.500   6.750
 7709POPC   C3B56601   4.609  17.486   7.050
 7709POPC   C4B56602   4.604  17.537   7.350
 7710POPC   NC356603  18.288  44.712   5.550
 7710POPC   PO456604  18.294  44.616   5.850
 7710POPC   GL156605  18.255  44.623   6.150
 7710POPC   GL256606  18.214  44.617   6.150
 7710POPC   C1A56607  18.313  44.697   6.450
 7710POPC   D2A56608  18.268  44.701   6.750
 7710POPC   C3A56609  18.239  44.658   7.050
 7710POPC   C4A56610  18.258  44.673   7.350
 7710POPC   C1B56611  18.134  44.523   6.450
 7710POPC   C2B56612  18.158  44.495   6.750
 7710POPC   C3B56613  18.087  44.431   7.050
 7710POPC   C4B56614  18.086  44.514   7.350
 7711POPC   NC356615  19.830  28.387   5.550
 7711POPC   PO456616  19.808  28.419   5.850
 7711POPC   GL156617  19.877  28.408   6.150
 7711POPC   GL256618  19.822  28.229   6.150
 7711POPC   C1A56619  19.789  28.417   6.450
 7711POPC   D2A56620  19.798  28.385   6.750
 7711POPC   C3A56621  19.859  28.412   7.050
 7711POPC   C4A56622  19.833  28.331   7.350
 7711POPC   C1B56623  19.762  28.171   6.450
 7711POPC   C2B56624  19.686  28.135   6.750
 7711POPC   C3B56625  19.692  28.121   7.050
 7711POPC   C4B56626  19.716  28.164   7.350
 7712POPC   NC356627   0.421  38.460   5.550
 7712POPC   PO456628   0.463  38.484   5.850
 7712POPC   GL156629   0.402  38.466   6.150
 7712POPC   GL256630   0.471  38.566   6.150
 7712POPC   C1A56631   0.391  38.460   6.450
 7712POPC   D2A56632   0.451  38.504   6.750
 7712POPC   C3A56633   0.396  38.482   7.050
 7712POPC   C4A56634   0.417  38.471   7.350
 7712POPC   C1B56635   0.621  38.636   6.450
 7712POPC   C2B56636   0.566  38.642   6.750
 7712POPC   C3B56637   0.561  38.618   7.050
 7712POPC   C4B56638   0.545  38.673   7.350
 7713POPC   NC356639   1.968  38.452   5.550
 7713POPC   PO456640   2.003  38.462   5.850
 7713POPC   GL156641   1.982  38.446   6.150
 7713POPC   GL256642   1.951  38.295   6.150
 7713POPC   C1A56643   1.964  38.492   6.450
 7713POPC   D2A56644   2.039  38.476   6.750
 7713POPC   C3A56645   1.944  38.406   7.050
 7713POPC   C4A56646   1.993  38.420   7.350
 7713POPC   C1B56647   1.985  38.223   6.450
 7713POPC   C2B56648   2.040  38.175   6.750
 7713POPC   C3B56649   1.965  38.202   7.050
 7713POPC   C4B56650   2.044  38.215   7.350
 7714POPC   NC356651  32.257   7.460   5.550
 7714POPC   PO456652  32.239   7.382   5.850
 7714POPC   GL156653  32.285   7.469   6.150
 7714POPC   GL256654  32.393   7.518   6.150
 7714POPC   C1A56655  32.219   7.442   6.450
 7714POPC   D2A56656  32.271   7.403   6.750
 7714POPC   C3A56657  32.212   7.396   7.050
 7714POPC   C4A56658  32.260   7.412   7.350
 7714POPC   C1B56659  32.486   7.535   6.450
 7714POPC   C2B56660  32.500   7.524   6.750
 7714POPC   C3B56661  32.516   7.495   7.050
 7714POPC   C4B56662  32.488   7.562   7.350
 7715POPC   NC356663  43.883   1.956   5.550
 7715POPC   PO456664  43.872   1.995   5.850
 7715POPC   GL156665  43.874   2.012   6.150
 7715POPC   GL256666  43.917   1.820   6.150
 7715POPC   C1A56667  43.889   1.986   6.450
 7715POPC   D2A56668  43.910   1.987   6.750
 7715POPC   C3A56669  43.910   2.031   7.050
 7715POPC   C4A56670  43.878   1.977   7.350
 7715POPC   C1B56671  43.955   1.786   6.450
 7715POPC   C2B56672  43.938   1.723   6.750
 7715POPC   C3B56673  43.895   1.749   7.050
 7715POPC   C4B56674  43.965   1.703   7.350
 7716POPC   NC356675  12.868   4.323   5.550
 7716POPC   PO456676  12.818   4.360   5.850
 7716POPC   GL156677  12.892   4.286   6.150
 7716POPC   GL256678  13.018   4.338   6.150
 7716POPC   C1A56679  12.837   4.341   6.450
 7716POPC   D2A56680  12.802   4.353   6.750
 7716POPC   C3A56681  12.874   4.340   7.050
 7716POPC   C4A56682  12.818   4.329   7.350
 7716POPC   C1B56683  13.076   4.294   6.450
 7716POPC   C2B56684  13.074   4.349   6.750
 7716POPC   C3B56685  13.061   4.365   7.050
 7716POPC   C4B56686  13.068   4.370   7.350
 7717POPC   NC356687  33.832  31.493   5.550
 7717POPC   PO456688  33.811  31.521   5.850
 7717POPC   GL156689  33.800  31.514   6.150
 7717POPC   GL256690  33.932  31.478   6.150
 7717POPC   C1A56691  33.840  31.456   6.450
 7717POPC   D2A56692  33.810  31.452   6.750
 7717POPC   C3A56693  33.791  31.517   7.050
 7717POPC   C4A56694  33.752  31.438   7.350
 7717POPC   C1B56695  34.021  31.464   6.450
 7717POPC   C2B56696  34.071  31.483   6.750
 7717POPC   C3B56697  34.070  31.417   7.050
 7717POPC   C4B56698  34.065  31.475   7.350
 7718POPC   NC356699  24.459  23.723   5.550
 7718POPC   PO456700  24.446  23.700   5.850
 7718POPC   GL156701  24.501  23.708   6.150
 7718POPC   GL256702  24.528  23.635   6.150
 7718POPC   C1A56703  24.533  23.686   6.450
 7718POPC   D2A56704  24.485  23.760   6.750
 7718POPC   C3A56705  24.501  23.705   7.050
 7718POPC   C4A56706  24.442  23.691   7.350
 7718POPC   C1B56707  24.537  23.441   6.450
 7718POPC   C2B56708  24.475  23.483   6.750
 7718POPC   C3B56709  24.457  23.453   7.050
 7718POPC   C4B56710  24.541  23.485   7.350
 7719POPC   NC356711  28.348  26.007   5.550
 7719POPC   PO456712  28.366  26.043   5.850
 7719POPC   GL156713  28.395  26.074   6.150
 7719POPC   GL256714  28.207  25.998   6.150
 7719POPC   C1A56715  28.381  26.081   6.450
 7719POPC   D2A56716  28.382  26.045   6.750
 7719POPC   C3A56717  28.385  26.069   7.050
 7719POPC   C4A56718  28.339  26.012   7.350
 7719POPC   C1B56719  28.092  25.997   6.450
 7719POPC   C2B56720  28.166  25.996   6.750
 7719POPC   C3B56721  28.123  25.978   7.050
 7719POPC   C4B56722  28.132  26.074   7.350
 7720POPC   NC356723   1.253  20.573   5.550
 7720POPC   PO456724   1.214  20.613   5.850
 7720POPC   GL156725   1.226  20.653   6.150
 7720POPC   GL256726   1.157  20.671   6.150
 7720POPC   C1A56727   1.196  20.621   6.450
 7720POPC   D2A56728   1.196  20.566   6.750
 7720POPC   C3A56729   1.263  20.579   7.050
 7720POPC   C4A56730   1.241  20.578   7.350
 7720POPC   C1B56731   1.019  20.793   6.450
 7720POPC   C2B56732   0.994  20.746   6.750
 7720POPC   C3B56733   1.064  20.769   7.050
 7720POPC   C4B56734   1.069  20.746   7.350
 7721POPC   NC356735  33.045   2.722   5.550
 7721POPC   PO456736  33.025   2.780   5.850
 7721POPC   GL156737  33.058   2.779   6.150
 7721POPC   GL256738  32.945   2.721   6.150
 7721POPC   C1A56739  32.992   2.798   6.450
 7721POPC   D2A56740  32.992   2.716   6.750
 7721POPC   C3A56741  32.993   2.734   7.050
 7721POPC   C4A56742  33.071   2.815   7.350
 7721POPC   C1B56743  32.806   2.689   6.450
 7721POPC   C2B56744  32.768   2.623   6.750
 7721POPC   C3B56745  32.784   2.637   7.050
 7721POPC   C4B56746  32.770   2.672   7.350
 7722POPC   NC356747  43.876  43.896   5.550
 7722POPC   PO456748  43.845  43.897   5.850
 7722POPC   GL156749  43.836  43.851   6.150
 7722POPC   GL256750  43.776  43.818   6.150
 7722POPC   C1A56751  43.904  43.841   6.450
 7722POPC   D2A56752  43.862  43.866   6.750
 7722POPC   C3A56753  43.859  43.889   7.050
 7722POPC   C4A56754  43.839  43.898   7.350
 7722POPC   C1B56755  43.671  43.785   6.450
 7722POPC   C2B56756  43.602  43.851   6.750
 7722POPC   C3B56757  43.678  43.758   7.050
 7722POPC   C4B56758  43.613  43.788   7.350
 7723POPC   NC356759  25.313  21.432   5.550
 7723POPC   PO456760  25.278  21.349   5.850
 7723POPC   GL156761  25.226  21.397   6.150
 7723POPC   GL256762  25.383  21.397   6.150
 7723POPC   C1A56763  25.284  21.351   6.450
 7723POPC   D2A56764  25.233  21.381   6.750
 7723POPC   C3A56765  25.251  21.350   7.050
 7723POPC   C4A56766  25.294  21.376   7.350
 7723POPC   C1B56767  25.532  21.338   6.450
 7723POPC   C2B56768  25.532  21.290   6.750
 7723POPC   C3B56769  25.462  21.291   7.050
 7723POPC   C4B56770  25.477  21.373   7.350
 7724POPC   NC356771  15.143   5.848   5.550
 7724POPC   PO456772  15.144   5.877   5.850
 7724POPC   GL156773  15.184   5.899   6.150
 7724POPC   GL256774  15.221   5.959   6.150
 7724POPC   C1A56775  15.165   5.879   6.450
 7724POPC   D2A56776  15.167   5.868   6.750
 7724POPC   C3A56777  15.148   5.856   7.050
 7724POPC   C4A56778  15.180   5.883   7.350
 7724POPC   C1B56779  15.227   6.077   6.450
 7724POPC   C2B56780  15.213   6.134   6.750
 7724POPC   C3B56781  15.175   6.110   7.050
 7724POPC   C4B56782  15.149   6.163   7.350
 7725POPC   NC356783  23.684   7.392   5.550
 7725POPC   PO456784  23.713   7.439   5.850
 7725POPC   GL156785  23.722   7.456   6.150
 7725POPC   GL256786  23.744   7.544   6.150
 7725POPC   C1A56787  23.675   7.401   6.450
 7725POPC   D2A56788  23.716   7.371   6.750
 7725POPC   C3A56789  23.732   7.462   7.050
 7725POPC   C4A56790  23.744   7.467   7.350
 7725POPC   C1B56791  23.766   7.699   6.450
 7725POPC   C2B56792  23.779   7.688   6.750
 7725POPC   C3B56793  23.768   7.643   7.050
 7725POPC   C4B56794  23.751   7.669   7.350
 7726POPC   NC356795  33.751  39.196   5.550
 7726POPC   PO456796  33.837  39.258   5.850
 7726POPC   GL156797  33.836  39.259   6.150
 7726POPC   GL256798  33.862  39.167   6.150
 7726POPC   C1A56799  33.812  39.256   6.450
 7726POPC   D2A56800  33.786  39.193   6.750
 7726POPC   C3A56801  33.781  39.254   7.050
 7726POPC   C4A56802  33.805  39.226   7.350
 7726POPC   C1B56803  33.883  38.957   6.450
 7726POPC   C2B56804  33.905  39.054   6.750
 7726POPC   C3B56805  33.934  39.000   7.050
 7726POPC   C4B56806  33.906  38.995   7.350
 7727POPC   NC356807  15.191  17.490   5.550
 7727POPC   PO456808  15.159  17.469   5.850
 7727POPC   GL156809  15.154  17.497   6.150
 7727POPC   GL256810  15.079  17.459   6.150
 7727POPC   C1A56811  15.141  17.512   6.450
 7727POPC   D2A56812  15.130  17.512   6.750
 7727POPC   C3A56813  15.161  17.474   7.050
 7727POPC   C4A56814  15.225  17.536   7.350
 7727POPC   C1B56815  15.044  17.352   6.450
 7727POPC   C2B56816  14.970  17.313   6.750
 7727POPC   C3B56817  14.951  17.302   7.050
 7727POPC   C4B56818  15.011  17.333   7.350
 7728POPC   NC356819   3.520   4.348   5.550
 7728POPC   PO456820   3.548   4.363   5.850
 7728POPC   GL156821   3.554   4.332   6.150
 7728POPC   GL256822   3.648   4.217   6.150
 7728POPC   C1A56823   3.561   4.300   6.450
 7728POPC   D2A56824   3.584   4.355   6.750
 7728POPC   C3A56825   3.591   4.347   7.050
 7728POPC   C4A56826   3.573   4.319   7.350
 7728POPC   C1B56827   3.776   4.171   6.450
 7728POPC   C2B56828   3.751   4.173   6.750
 7728POPC   C3B56829   3.742   4.198   7.050
 7728POPC   C4B56830   3.747   4.180   7.350
 7729POPC   NC356831   0.401  40.824   5.550
 7729POPC   PO456832   0.390  40.760   5.850
 7729POPC   GL156833   0.398  40.812   6.150
 7729POPC   GL256834   0.323  40.872   6.150
 7729POPC   C1A56835   0.481  40.797   6.450
 7729POPC   D2A56836   0.393  40.734   6.750
 7729POPC   C3A56837   0.473  40.754   7.050
 7729POPC   C4A56838   0.409  40.823   7.350
 7729POPC   C1B56839   0.237  40.835   6.450
 7729POPC   C2B56840   0.203  40.834   6.750
 7729POPC   C3B56841   0.251  40.922   7.050
 7729POPC   C4B56842   0.241  40.867   7.350
 7730POPC   NC356843  22.952  30.743   5.550
 7730POPC   PO456844  22.988  30.648   5.850
 7730POPC   GL156845  22.979  30.714   6.150
 7730POPC   GL256846  22.828  30.651   6.150
 7730POPC   C1A56847  22.969  30.697   6.450
 7730POPC   D2A56848  22.961  30.701   6.750
 7730POPC   C3A56849  22.972  30.733   7.050
 7730POPC   C4A56850  22.980  30.731   7.350
 7730POPC   C1B56851  22.712  30.576   6.450
 7730POPC   C2B56852  22.747  30.533   6.750
 7730POPC   C3B56853  22.734  30.553   7.050
 7730POPC   C4B56854  22.745  30.528   7.350
 7731POPC   NC356855   7.449  43.120   5.550
 7731POPC   PO456856   7.413  43.159   5.850
 7731POPC   GL156857   7.408  43.125   6.150
 7731POPC   GL256858   7.416  42.961   6.150
 7731POPC   C1A56859   7.386  43.070   6.450
 7731POPC   D2A56860   7.392  43.154   6.750
 7731POPC   C3A56861   7.446  43.076   7.050
 7731POPC   C4A56862   7.422  43.093   7.350
 7731POPC   C1B56863   7.439  42.817   6.450
 7731POPC   C2B56864   7.402  42.895   6.750
 7731POPC   C3B56865   7.461  42.824   7.050
 7731POPC   C4B56866   7.410  42.874   7.350
 7732POPC   NC356867  20.645  19.815   5.550
 7732POPC   PO456868  20.614  19.879   5.850
 7732POPC   GL156869  20.620  19.798   6.150
 7732POPC   GL256870  20.569  19.893   6.150
 7732POPC   C1A56871  20.600  19.789   6.450
 7732POPC   D2A56872  20.650  19.818   6.750
 7732POPC   C3A56873  20.647  19.792   7.050
 7732POPC   C4A56874  20.604  19.858   7.350
 7732POPC   C1B56875  20.510  20.070   6.450
 7732POPC   C2B56876  20.453  20.039   6.750
 7732POPC   C3B56877  20.508  20.008   7.050
 7732POPC   C4B56878  20.494  20.058   7.350
 7733POPC   NC356879   2.758   0.488   5.550
 7733POPC   PO456880   2.798   0.453   5.850
 7733POPC   GL156881   2.753   0.487   6.150
 7733POPC   GL256882   2.649   0.400   6.150
 7733POPC   C1A56883   2.743   0.432   6.450
 7733POPC   D2A56884   2.780   0.476   6.750
 7733POPC   C3A56885   2.742   0.433   7.050
 7733POPC   C4A56886   2.733   0.455   7.350
 7733POPC   C1B56887   2.524   0.312   6.450
 7733POPC   C2B56888   2.508   0.374   6.750
 7733POPC   C3B56889   2.585   0.326   7.050
 7733POPC   C4B56890   2.550   0.357   7.350
 7734POPC   NC356891  12.033  34.543   5.550
 7734POPC   PO456892  12.115  34.527   5.850
 7734POPC   GL156893  12.110  34.550   6.150
 7734POPC   GL256894  12.249  34.577   6.150
 7734POPC   C1A56895  12.103  34.557   6.450
 7734POPC   D2A56896  12.081  34.606   6.750
 7734POPC   C3A56897  12.121  34.588   7.050
 7734POPC   C4A56898  12.123  34.614   7.350
 7734POPC   C1B56899  12.337  34.556   6.450
 7734POPC   C2B56900  12.285  34.541   6.750
 7734POPC   C3B56901  12.359  34.545   7.050
 7734POPC   C4B56902  12.372  34.583   7.350
 7735POPC   NC356903  12.839  12.828   5.550
 7735POPC   PO456904  12.805  12.863   5.850
 7735POPC   GL156905  12.893  12.802   6.150
 7735POPC   GL256906  12.954  12.857   6.150
 7735POPC   C1A56907  12.893  12.863   6.450
 7735POPC   D2A56908  12.834  12.819   6.750
 7735POPC   C3A56909  12.856  12.812   7.050
 7735POPC   C4A56910  12.803  12.834   7.350
 7735POPC   C1B56911  13.080  12.936   6.450
 7735POPC   C2B56912  13.077  12.883   6.750
 7735POPC   C3B56913  13.078  12.965   7.050
 7735POPC   C4B56914  13.096  12.968   7.350
 7736POPC   NC356915  27.597   3.520   5.550
 7736POPC   PO456916  27.558   3.503   5.850
 7736POPC   GL156917  27.606   3.526   6.150
 7736POPC   GL256918  27.673   3.430   6.150
 7736POPC   C1A56919  27.567   3.531   6.450
 7736POPC   D2A56920  27.621   3.533   6.750
 7736POPC   C3A56921  27.610   3.510   7.050
 7736POPC   C4A56922  27.601   3.579   7.350
 7736POPC   C1B56923  27.665   3.326   6.450
 7736POPC   C2B56924  27.664   3.284   6.750
 7736POPC   C3B56925  27.644   3.313   7.050
 7736POPC   C4B56926  27.706   3.298   7.350
 7737POPC   NC356927  26.828   2.813   5.550
 7737POPC   PO456928  26.858   2.748   5.850
 7737POPC   GL156929  26.820   2.807   6.150
 7737POPC   GL256930  26.792   2.637   6.150
 7737POPC   C1A56931  26.798   2.765   6.450
 7737POPC   D2A56932  26.843   2.798   6.750
 7737POPC   C3A56933  26.854   2.736   7.050
 7737POPC   C4A56934  26.781   2.789   7.350
 7737POPC   C1B56935  26.737   2.522   6.450
 7737POPC   C2B56936  26.665   2.588   6.750
 7737POPC   C3B56937  26.715   2.560   7.050
 7737POPC   C4B56938  26.741   2.507   7.350
 7738POPC   NC356939  16.712  13.665   5.550
 7738POPC   PO456940  16.772  13.661   5.850
 7738POPC   GL156941  16.753  13.674   6.150
 7738POPC   GL256942  16.861  13.498   6.150
 7738POPC   C1A56943  16.737  13.648   6.450
 7738POPC   D2A56944  16.720  13.654   6.750
 7738POPC   C3A56945  16.735  13.603   7.050
 7738POPC   C4A56946  16.780  13.664   7.350
 7738POPC   C1B56947  16.898  13.450   6.450
 7738POPC   C2B56948  16.884  13.456   6.750
 7738POPC   C3B56949  16.922  13.434   7.050
 7738POPC   C4B56950  16.934  13.415   7.350
 7739POPC   NC356951   8.155  14.446   5.550
 7739POPC   PO456952   8.182  14.391   5.850
 7739POPC   GL156953   8.235  14.383   6.150
 7739POPC   GL256954   8.036  14.311   6.150
 7739POPC   C1A56955   8.191  14.392   6.450
 7739POPC   D2A56956   8.153  14.390   6.750
 7739POPC   C3A56957   8.188  14.434   7.050
 7739POPC   C4A56958   8.196  14.445   7.350
 7739POPC   C1B56959   7.998  14.296   6.450
 7739POPC   C2B56960   7.961  14.270   6.750
 7739POPC   C3B56961   7.924  14.349   7.050
 7739POPC   C4B56962   7.996  14.331   7.350
 7740POPC   NC356963  40.827   2.771   5.550
 7740POPC   PO456964  40.780   2.724   5.850
 7740POPC   GL156965  40.742   2.720   6.150
 7740POPC   GL256966  40.644   2.676   6.150
 7740POPC   C1A56967  40.820   2.809   6.450
 7740POPC   D2A56968  40.789   2.776   6.750
 7740POPC   C3A56969  40.823   2.725   7.050
 7740POPC   C4A56970  40.820   2.730   7.350
 7740POPC   C1B56971  40.564   2.651   6.450
 7740POPC   C2B56972  40.561   2.650   6.750
 7740POPC   C3B56973  40.531   2.591   7.050
 7740POPC   C4B56974  40.564   2.596   7.350
 7741POPC   NC356975   1.182  33.817   5.550
 7741POPC   PO456976   1.223  33.837   5.850
 7741POPC   GL156977   1.241  33.778   6.150
 7741POPC   GL256978   1.095  33.752   6.150
 7741POPC   C1A56979   1.165  33.789   6.450
 7741POPC   D2A56980   1.239  33.823   6.750
 7741POPC   C3A56981   1.233  33.787   7.050
 7741POPC   C4A56982   1.181  33.761   7.350
 7741POPC   C1B56983   1.011  33.658   6.450
 7741POPC   C2B56984   0.973  33.654   6.750
 7741POPC   C3B56985   1.056  33.610   7.050
 7741POPC   C4B56986   0.978  33.627   7.350
 7742POPC   NC356987   2.716  19.036   5.550
 7742POPC   PO456988   2.767  19.096   5.850
 7742POPC   GL156989   2.725  19.074   6.150
 7742POPC   GL256990   2.636  19.171   6.150
 7742POPC   C1A56991   2.781  19.052   6.450
 7742POPC   D2A56992   2.721  19.095   6.750
 7742POPC   C3A56993   2.780  19.088   7.050
 7742POPC   C4A56994   2.738  19.014   7.350
 7742POPC   C1B56995   2.591  19.146   6.450
 7742POPC   C2B56996   2.527  19.182   6.750
 7742POPC   C3B56997   2.536  19.169   7.050
 7742POPC   C4B56998   2.582  19.191   7.350
 7743POPC   NC356999   1.216  10.537   5.550
 7743POPC   PO457000   1.232  10.515   5.850
 7743POPC   GL157001   1.227  10.566   6.150
 7743POPC   GL257002   1.123  10.524   6.150
 7743POPC   C1A57003   1.207  10.571   6.450
 7743POPC   D2A57004   1.246  10.475   6.750
 7743POPC   C3A57005   1.183  10.484   7.050
 7743POPC   C4A57006   1.187  10.542   7.350
 7743POPC   C1B57007   1.006  10.543   6.450
 7743POPC   C2B57008   0.977  10.564   6.750
 7743POPC   C3B57009   0.945  10.617   7.050
 7743POPC   C4B57010   0.931  10.582   7.350
 7744POPC   NC357011  40.766  16.706   5.550
 7744POPC   PO457012  40.831  16.735   5.850
 7744POPC   GL157013  40.817  16.733   6.150
 7744POPC   GL257014  40.930  16.629   6.150
 7744POPC   C1A57015  40.767  16.698   6.450
 7744POPC   D2A57016  40.813  16.700   6.750
 7744POPC   C3A57017  40.765  16.718   7.050
 7744POPC   C4A57018  40.744  16.720   7.350
 7744POPC   C1B57019  41.004  16.596   6.450
 7744POPC   C2B57020  40.940  16.542   6.750
 7744POPC   C3B57021  40.942  16.592   7.050
 7744POPC   C4B57022  41.022  16.617   7.350
 7745POPC   NC357023  32.236  35.343   5.550
 7745POPC   PO457024  32.287  35.334   5.850
 7745POPC   GL157025  32.231  35.361   6.150
 7745POPC   GL257026  32.180  35.300   6.150
 7745POPC   C1A57027  32.210  35.323   6.450
 7745POPC   D2A57028  32.289  35.387   6.750
 7745POPC   C3A57029  32.215  35.351   7.050
 7745POPC   C4A57030  32.277  35.321   7.350
 7745POPC   C1B57031  32.071  35.174   6.450
 7745POPC   C2B57032  32.044  35.175   6.750
 7745POPC   C3B57033  32.061  35.216   7.050
 7745POPC   C4B57034  32.074  35.189   7.350
 7746POPC   NC357035  41.533  21.417   5.550
 7746POPC   PO457036  41.600  21.427   5.850
 7746POPC   GL157037  41.566  21.436   6.150
 7746POPC   GL257038  41.469  21.514   6.150
 7746POPC   C1A57039  41.592  21.347   6.450
 7746POPC   D2A57040  41.575  21.401   6.750
 7746POPC   C3A57041  41.572  21.341   7.050
 7746POPC   C4A57042  41.536  21.361   7.350
 7746POPC   C1B57043  41.394  21.558   6.450
 7746POPC   C2B57044  41.448  21.562   6.750
 7746POPC   C3B57045  41.390  21.609   7.050
 7746POPC   C4B57046  41.411  21.610   7.350
 7747POPC   NC357047  41.522   6.635   5.550
 7747POPC   PO457048  41.518   6.663   5.850
 7747POPC   GL157049  41.570   6.607   6.150
 7747POPC   GL257050  41.622   6.760   6.150
 7747POPC   C1A57051  41.549   6.615   6.450
 7747POPC   D2A57052  41.538   6.674   6.750
 7747POPC   C3A57053  41.577   6.687   7.050
 7747POPC   C4A57054  41.581   6.689   7.350
 7747POPC   C1B57055  41.642   6.852   6.450
 7747POPC   C2B57056  41.568   6.933   6.750
 7747POPC   C3B57057  41.655   6.903   7.050
 7747POPC   C4B57058  41.600   6.937   7.350
 7748POPC   NC357059  34.558   2.803   5.550
 7748POPC   PO457060  34.626   2.766   5.850
 7748POPC   GL157061  34.546   2.716   6.150
 7748POPC   GL257062  34.511   2.929   6.150
 7748POPC   C1A57063  34.546   2.732   6.450
 7748POPC   D2A57064  34.607   2.789   6.750
 7748POPC   C3A57065  34.608   2.801   7.050
 7748POPC   C4A57066  34.527   2.799   7.350
 7748POPC   C1B57067  34.508   2.950   6.450
 7748POPC   C2B57068  34.477   3.009   6.750
 7748POPC   C3B57069  34.532   3.031   7.050
 7748POPC   C4B57070  34.493   3.043   7.350
 7749POPC   NC357071   4.298   9.788   5.550
 7749POPC   PO457072   4.367   9.761   5.850
 7749POPC   GL157073   4.364   9.726   6.150
 7749POPC   GL257074   4.289   9.620   6.150
 7749POPC   C1A57075   4.315   9.730   6.450
 7749POPC   D2A57076   4.348   9.731   6.750
 7749POPC   C3A57077   4.308   9.773   7.050
 7749POPC   C4A57078   4.288   9.721   7.350
 7749POPC   C1B57079   4.261   9.507   6.450
 7749POPC   C2B57080   4.270   9.496   6.750
 7749POPC   C3B57081   4.217   9.543   7.050
 7749POPC   C4B57082   4.250   9.514   7.350
 7750POPC   NC357083  16.778   7.451   5.550
 7750POPC   PO457084  16.740   7.467   5.850
 7750POPC   GL157085  16.688   7.423   6.150
 7750POPC   GL257086  16.751   7.253   6.150
 7750POPC   C1A57087  16.706   7.465   6.450
 7750POPC   D2A57088  16.705   7.460   6.750
 7750POPC   C3A57089  16.682   7.463   7.050
 7750POPC   C4A57090  16.776   7.413   7.350
 7750POPC   C1B57091  16.764   7.156   6.450
 7750POPC   C2B57092  16.726   7.171   6.750
 7750POPC   C3B57093  16.721   7.222   7.050
 7750POPC   C4B57094  16.796   7.162   7.350
 7751POPC   NC357095  20.624   4.359   5.550
 7751POPC   PO457096  20.633   4.307   5.850
 7751POPC   GL157097  20.649   4.329   6.150
 7751POPC   GL257098  20.547   4.414   6.150
 7751POPC   C1A57099  20.632   4.292   6.450
 7751POPC   D2A57100  20.650   4.354   6.750
 7751POPC   C3A57101  20.654   4.314   7.050
 7751POPC   C4A57102  20.635   4.275   7.350
 7751POPC   C1B57103  20.362   4.444   6.450
 7751POPC   C2B57104  20.421   4.427   6.750
 7751POPC   C3B57105  20.413   4.450   7.050
 7751POPC   C4B57106  20.367   4.490   7.350
 7752POPC   NC357107  17.502  43.911   5.550
 7752POPC   PO457108  17.470  43.859   5.850
 7752POPC   GL157109  17.474  43.860   6.150
 7752POPC   GL257110  17.551  44.012   6.150
 7752POPC   C1A57111  17.513  43.866   6.450
 7752POPC   D2A57112  17.489  43.841   6.750
 7752POPC   C3A57113  17.501  43.871   7.050
 7752POPC   C4A57114  17.499  43.912   7.350
 7752POPC   C1B57115  17.570  44.115   6.450
 7752POPC   C2B57116  17.599  44.154   6.750
 7752POPC   C3B57117  17.610  44.151   7.050
 7752POPC   C4B57118  17.614  44.143   7.350
 7753POPC   NC357119   1.235  12.063   5.550
 7753POPC   PO457120   1.252  12.026   5.850
 7753POPC   GL157121   1.190  12.071   6.150
 7753POPC   GL257122   1.308  11.978   6.150
 7753POPC   C1A57123   1.249  12.117   6.450
 7753POPC   D2A57124   1.243  12.088   6.750
 7753POPC   C3A57125   1.261  12.124   7.050
 7753POPC   C4A57126   1.176  12.097   7.350
 7753POPC   C1B57127   1.418  11.905   6.450
 7753POPC   C2B57128   1.388  11.927   6.750
 7753POPC   C3B57129   1.406  11.937   7.050
 7753POPC   C4B57130   1.438  11.922   7.350
 7754POPC   NC357131  26.064  29.108   5.550
 7754POPC   PO457132  26.056  29.120   5.850
 7754POPC   GL157133  26.076  29.134   6.150
 7754POPC   GL257134  26.127  28.996   6.150
 7754POPC   C1A57135  26.040  29.163   6.450
 7754POPC   D2A57136  26.014  29.117   6.750
 7754POPC   C3A57137  26.049  29.167   7.050
 7754POPC   C4A57138  26.058  29.129   7.350
 7754POPC   C1B57139  26.156  28.948   6.450
 7754POPC   C2B57140  26.219  28.973   6.750
 7754POPC   C3B57141  26.161  28.892   7.050
 7754POPC   C4B57142  26.210  28.934   7.350
 7755POPC   NC357143  40.752  32.203   5.550
 7755POPC   PO457144  40.809  32.243   5.850
 7755POPC   GL157145  40.758  32.244   6.150
 7755POPC   GL257146  40.800  32.110   6.150
 7755POPC   C1A57147  40.829  32.202   6.450
 7755POPC   D2A57148  40.778  32.234   6.750
 7755POPC   C3A57149  40.736  32.202   7.050
 7755POPC   C4A57150  40.817  32.220   7.350
 7755POPC   C1B57151  40.759  31.949   6.450
 7755POPC   C2B57152  40.808  31.981   6.750
 7755POPC   C3B57153  40.732  32.038   7.050
 7755POPC   C4B57154  40.819  31.963   7.350
 7756POPC   NC357155  19.791   5.872   5.550
 7756POPC   PO457156  19.811   5.896   5.850
 7756POPC   GL157157  19.880   5.894   6.150
 7756POPC   GL257158  19.878   5.987   6.150
 7756POPC   C1A57159  19.840   5.897   6.450
 7756POPC   D2A57160  19.802   5.883   6.750
 7756POPC   C3A57161  19.835   5.867   7.050
 7756POPC   C4A57162  19.832   5.877   7.350
 7756POPC   C1B57163  19.879   6.078   6.450
 7756POPC   C2B57164  19.837   6.103   6.750
 7756POPC   C3B57165  19.890   6.097   7.050
 7756POPC   C4B57166  19.810   6.121   7.350
 7757POPC   NC357167  14.398  29.884   5.550
 7757POPC   PO457168  14.417  29.889   5.850
 7757POPC   GL157169  14.447  29.898   6.150
 7757POPC   GL257170  14.570  29.933   6.150
 7757POPC   C1A57171  14.419  29.912   6.450
 7757POPC   D2A57172  14.385  29.905   6.750
 7757POPC   C3A57173  14.376  29.927   7.050
 7757POPC   C4A57174  14.385  29.945   7.350
 7757POPC   C1B57175  14.627  29.953   6.450
 7757POPC   C2B57176  14.677  29.949   6.750
 7757POPC   C3B57177  14.623  29.880   7.050
 7757POPC   C4B57178  14.649  29.950   7.350
 7758POPC   NC357179  36.106   9.699   5.550
 7758POPC   PO457180  36.097   9.723   5.850
 7758POPC   GL157181  36.149   9.751   6.150
 7758POPC   GL257182  36.192   9.685   6.150
 7758POPC   C1A57183  36.144   9.732   6.450
 7758POPC   D2A57184  36.173   9.732   6.750
 7758POPC   C3A57185  36.079   9.771   7.050
 7758POPC   C4A57186  36.152   9.786   7.350
 7758POPC   C1B57187  36.326   9.539   6.450
 7758POPC   C2B57188  36.263   9.507   6.750
 7758POPC   C3B57189  36.269   9.596   7.050
 7758POPC   C4B57190  36.255   9.528   7.350
 7759POPC   NC357191  33.760   7.434   5.550
 7759POPC   PO457192  33.807   7.408   5.850
 7759POPC   GL157193  33.808   7.411   6.150
 7759POPC   GL257194  33.774   7.262   6.150
 7759POPC   C1A57195  33.839   7.399   6.450
 7759POPC   D2A57196  33.765   7.459   6.750
 7759POPC   C3A57197  33.844   7.387   7.050
 7759POPC   C4A57198  33.846   7.410   7.350
 7759POPC   C1B57199  33.811   7.128   6.450
 7759POPC   C2B57200  33.812   7.180   6.750
 7759POPC   C3B57201  33.805   7.155   7.050
 7759POPC   C4B57202  33.823   7.150   7.350
 7760POPC   NC357203   1.962  21.425   5.550
 7760POPC   PO457204   1.953  21.421   5.850
 7760POPC   GL157205   1.981  21.371   6.150
 7760POPC   GL257206   1.833  21.423   6.150
 7760POPC   C1A57207   2.001  21.416   6.450
 7760POPC   D2A57208   2.017  21.424   6.750
 7760POPC   C3A57209   2.006  21.383   7.050
 7760POPC   C4A57210   1.950  21.435   7.350
 7760POPC   C1B57211   1.754  21.475   6.450
 7760POPC   C2B57212   1.735  21.439   6.750
 7760POPC   C3B57213   1.782  21.483   7.050
 7760POPC   C4B57214   1.791  21.447   7.350
 7761POPC   NC357215  36.139  12.831   5.550
 7761POPC   PO457216  36.136  12.898   5.850
 7761POPC   GL157217  36.135  12.834   6.150
 7761POPC   GL257218  36.081  12.764   6.150
 7761POPC   C1A57219  36.096  12.879   6.450
 7761POPC   D2A57220  36.080  12.854   6.750
 7761POPC   C3A57221  36.096  12.854   7.050
 7761POPC   C4A57222  36.079  12.822   7.350
 7761POPC   C1B57223  36.085  12.660   6.450
 7761POPC   C2B57224  36.093  12.616   6.750
 7761POPC   C3B57225  36.050  12.617   7.050
 7761POPC   C4B57226  36.047  12.653   7.350
 7762POPC   NC357227  10.530  36.891   5.550
 7762POPC   PO457228  10.506  36.884   5.850
 7762POPC   GL157229  10.561  36.915   6.150
 7762POPC   GL257230  10.618  36.852   6.150
 7762POPC   C1A57231  10.530  36.873   6.450
 7762POPC   D2A57232  10.498  36.908   6.750
 7762POPC   C3A57233  10.571  36.869   7.050
 7762POPC   C4A57234  10.481  36.898   7.350
 7762POPC   C1B57235  10.750  36.714   6.450
 7762POPC   C2B57236  10.726  36.755   6.750
 7762POPC   C3B57237  10.660  36.688   7.050
 7762POPC   C4B57238  10.720  36.781   7.350
 7763POPC   NC357239  27.599   2.790   5.550
 7763POPC   PO457240  27.624   2.732   5.850
 7763POPC   GL157241  27.597   2.777   6.150
 7763POPC   GL257242  27.596   2.938   6.150
 7763POPC   C1A57243  27.623   2.719   6.450
 7763POPC   D2A57244  27.637   2.812   6.750
 7763POPC   C3A57245  27.627   2.726   7.050
 7763POPC   C4A57246  27.643   2.810   7.350
 7763POPC   C1B57247  27.659   2.972   6.450
 7763POPC   C2B57248  27.652   3.040   6.750
 7763POPC   C3B57249  27.574   2.985   7.050
 7763POPC   C4B57250  27.575   3.033   7.350
 7764POPC   NC357251  41.539   8.930   5.550
 7764POPC   PO457252  41.563   8.949   5.850
 7764POPC   GL157253  41.589   8.966   6.150
 7764POPC   GL257254  41.653   9.023   6.150
 7764POPC   C1A57255  41.602   8.966   6.450
 7764POPC   D2A57256  41.586   9.001   6.750
 7764POPC   C3A57257  41.513   8.937   7.050
 7764POPC   C4A57258  41.568   8.944   7.350
 7764POPC   C1B57259  41.724   9.087   6.450
 7764POPC   C2B57260  41.803   9.122   6.750
 7764POPC   C3B57261  41.811   9.150   7.050
 7764POPC   C4B57262  41.738   9.082   7.350
 7765POPC   NC357263   5.061  37.712   5.550
 7765POPC   PO457264   5.111  37.717   5.850
 7765POPC   GL157265   5.099  37.715   6.150
 7765POPC   GL257266   5.228  37.714   6.150
 7765POPC   C1A57267   5.142  37.687   6.450
 7765POPC   D2A57268   5.071  37.707   6.750
 7765POPC   C3A57269   5.064  37.651   7.050
 7765POPC   C4A57270   5.061  37.701   7.350
 7765POPC   C1B57271   5.302  37.745   6.450
 7765POPC   C2B57272   5.287  37.791   6.750
 7765POPC   C3B57273   5.319  37.749   7.050
 7765POPC   C4B57274   5.306  37.787   7.350
 7766POPC   NC357275   8.972  20.630   5.550
 7766POPC   PO457276   8.974  20.591   5.850
 7766POPC   GL157277   8.962  20.648   6.150
 7766POPC   GL257278   9.035  20.541   6.150
 7766POPC   C1A57279   9.011  20.574   6.450
 7766POPC   D2A57280   8.967  20.660   6.750
 7766POPC   C3A57281   8.939  20.628   7.050
 7766POPC   C4A57282   8.934  20.573   7.350
 7766POPC   C1B57283   9.068  20.405   6.450
 7766POPC   C2B57284   9.093  20.404   6.750
 7766POPC   C3B57285   9.124  20.437   7.050
 7766POPC   C4B57286   9.135  20.385   7.350
 7767POPC   NC357287   0.461  42.369   5.550
 7767POPC   PO457288   0.393  42.342   5.850
 7767POPC   GL157289   0.404  42.298   6.150
 7767POPC   GL257290   0.486  42.263   6.150
 7767POPC   C1A57291   0.431  42.346   6.450
 7767POPC   D2A57292   0.447  42.378   6.750
 7767POPC   C3A57293   0.454  42.335   7.050
 7767POPC   C4A57294   0.395  42.293   7.350
 7767POPC   C1B57295   0.641  42.202   6.450
 7767POPC   C2B57296   0.648  42.191   6.750
 7767POPC   C3B57297   0.660  42.222   7.050
 7767POPC   C4B57298   0.655  42.150   7.350
 7768POPC   NC357299  39.204  16.715   5.550
 7768POPC   PO457300  39.199  16.750   5.850
 7768POPC   GL157301  39.241  16.714   6.150
 7768POPC   GL257302  39.180  16.811   6.150
 7768POPC   C1A57303  39.205  16.712   6.450
 7768POPC   D2A57304  39.246  16.698   6.750
 7768POPC   C3A57305  39.213  16.754   7.050
 7768POPC   C4A57306  39.279  16.764   7.350
 7768POPC   C1B57307  39.026  16.946   6.450
 7768POPC   C2B57308  39.084  16.952   6.750
 7768POPC   C3B57309  39.044  16.906   7.050
 7768POPC   C4B57310  39.056  16.882   7.350
 7769POPC   NC357311   5.838  25.309   5.550
 7769POPC   PO457312   5.917  25.264   5.850
 7769POPC   GL157313   5.904  25.286   6.150
 7769POPC   GL257314   5.957  25.432   6.150
 7769POPC   C1A57315   5.905  25.308   6.450
 7769POPC   D2A57316   5.823  25.290   6.750
 7769POPC   C3A57317   5.910  25.303   7.050
 7769POPC   C4A57318   5.837  25.222   7.350
 7769POPC   C1B57319   5.967  25.522   6.450
 7769POPC   C2B57320   5.910  25.492   6.750
 7769POPC   C3B57321   5.996  25.453   7.050
 7769POPC   C4B57322   5.914  25.514   7.350
 7770POPC   NC357323   7.456   9.014   5.550
 7770POPC   PO457324   7.462   8.962   5.850
 7770POPC   GL157325   7.458   9.020   6.150
 7770POPC   GL257326   7.306   9.014   6.150
 7770POPC   C1A57327   7.376   9.018   6.450
 7770POPC   D2A57328   7.379   9.008   6.750
 7770POPC   C3A57329   7.428   8.963   7.050
 7770POPC   C4A57330   7.419   8.934   7.350
 7770POPC   C1B57331   7.194   8.964   6.450
 7770POPC   C2B57332   7.183   8.946   6.750
 7770POPC   C3B57333   7.204   8.986   7.050
 7770POPC   C4B57334   7.170   8.943   7.350
 7771POPC   NC357335   5.859  28.320   5.550
 7771POPC   PO457336   5.830  28.356   5.850
 7771POPC   GL157337   5.884  28.386   6.150
 7771POPC   GL257338   5.781  28.242   6.150
 7771POPC   C1A57339   5.881  28.337   6.450
 7771POPC   D2A57340   5.875  28.332   6.750
 7771POPC   C3A57341   5.870  28.412   7.050
 7771POPC   C4A57342   5.866  28.400   7.350
 7771POPC   C1B57343   5.721  28.124   6.450
 7771POPC   C2B57344   5.700  28.202   6.750
 7771POPC   C3B57345   5.763  28.119   7.050
 7771POPC   C4B57346   5.690  28.127   7.350
 7772POPC   NC357347  19.014  11.286   5.550
 7772POPC   PO457348  19.104  11.291   5.850
 7772POPC   GL157349  19.042  11.275   6.150
 7772POPC   GL257350  18.907  11.329   6.150
 7772POPC   C1A57351  19.076  11.282   6.450
 7772POPC   D2A57352  19.048  11.262   6.750
 7772POPC   C3A57353  19.048  11.335   7.050
 7772POPC   C4A57354  19.033  11.304   7.350
 7772POPC   C1B57355  18.854  11.280   6.450
 7772POPC   C2B57356  18.831  11.328   6.750
 7772POPC   C3B57357  18.840  11.290   7.050
 7772POPC   C4B57358  18.843  11.298   7.350
 7773POPC   NC357359  44.620  28.353   5.550
 7773POPC   PO457360  44.691  28.328   5.850
 7773POPC   GL157361  44.671  28.377   6.150
 7773POPC   GL257362  44.633  28.472   6.150
 7773POPC   C1A57363  44.648  28.412   6.450
 7773POPC   D2A57364  44.639  28.360   6.750
 7773POPC   C3A57365  44.706  28.394   7.050
 7773POPC   C4A57366  44.638  28.319   7.350
 7773POPC   C1B57367  44.508  28.600   6.450
 7773POPC   C2B57368  44.567  28.584   6.750
 7773POPC   C3B57369  44.519  28.539   7.050
 7773POPC   C4B57370  44.542  28.570   7.350
 7774POPC   NC357371   1.943   6.651   5.550
 7774POPC   PO457372   1.957   6.633   5.850
 7774POPC   GL157373   1.998   6.686   6.150
 7774POPC   GL257374   2.109   6.570   6.150
 7774POPC   C1A57375   1.994   6.600   6.450
 7774POPC   D2A57376   2.019   6.681   6.750
 7774POPC   C3A57377   2.020   6.681   7.050
 7774POPC   C4A57378   2.025   6.615   7.350
 7774POPC   C1B57379   2.207   6.577   6.450
 7774POPC   C2B57380   2.229   6.558   6.750
 7774POPC   C3B57381   2.230   6.619   7.050
 7774POPC   C4B57382   2.256   6.558   7.350
 7775POPC   NC357383  43.889  15.994   5.550
 7775POPC   PO457384  43.896  15.966   5.850
 7775POPC   GL157385  43.900  15.986   6.150
 7775POPC   GL257386  43.757  15.880   6.150
 7775POPC   C1A57387  43.874  15.930   6.450
 7775POPC   D2A57388  43.885  15.994   6.750
 7775POPC   C3A57389  43.847  15.944   7.050
 7775POPC   C4A57390  43.919  15.927   7.350
 7775POPC   C1B57391  43.688  15.809   6.450
 7775POPC   C2B57392  43.717  15.798   6.750
 7775POPC   C3B57393  43.672  15.780   7.050
 7775POPC   C4B57394  43.651  15.788   7.350
 7776POPC   NC357395   5.880  20.609   5.550
 7776POPC   PO457396   5.867  20.633   5.850
 7776POPC   GL157397   5.821  20.566   6.150
 7776POPC   GL257398   5.792  20.519   6.150
 7776POPC   C1A57399   5.860  20.653   6.450
 7776POPC   D2A57400   5.893  20.580   6.750
 7776POPC   C3A57401   5.847  20.595   7.050
 7776POPC   C4A57402   5.886  20.642   7.350
 7776POPC   C1B57403   5.653  20.392   6.450
 7776POPC   C2B57404   5.652  20.379   6.750
 7776POPC   C3B57405   5.736  20.381   7.050
 7776POPC   C4B57406   5.674  20.471   7.350
 7777POPC   NC357407  31.460  16.780   5.550
 7777POPC   PO457408  31.463  16.718   5.850
 7777POPC   GL157409  31.425  16.693   6.150
 7777POPC   GL257410  31.576  16.775   6.150
 7777POPC   C1A57411  31.466  16.742   6.450
 7777POPC   D2A57412  31.434  16.682   6.750
 7777POPC   C3A57413  31.454  16.746   7.050
 7777POPC   C4A57414  31.485  16.764   7.350
 7777POPC   C1B57415  31.602  16.952   6.450
 7777POPC   C2B57416  31.650  16.903   6.750
 7777POPC   C3B57417  31.639  16.961   7.050
 7777POPC   C4B57418  31.610  16.944   7.350
 7778POPC   NC357419  26.019   5.084   5.550
 7778POPC   PO457420  26.004   5.046   5.850
 7778POPC   GL157421  26.034   5.121   6.150
 7778POPC   GL257422  26.143   5.156   6.150
 7778POPC   C1A57423  26.036   5.113   6.450
 7778POPC   D2A57424  25.996   5.098   6.750
 7778POPC   C3A57425  26.086   5.057   7.050
 7778POPC   C4A57426  26.086   5.094   7.350
 7778POPC   C1B57427  26.282   5.200   6.450
 7778POPC   C2B57428  26.318   5.122   6.750
 7778POPC   C3B57429  26.289   5.196   7.050
 7778POPC   C4B57430  26.278   5.128   7.350
 7779POPC   NC357431  26.061   2.718   5.550
 7779POPC   PO457432  26.043   2.798   5.850
 7779POPC   GL157433  26.089   2.789   6.150
 7779POPC   GL257434  26.105   2.830   6.150
 7779POPC   C1A57435  26.043   2.811   6.450
 7779POPC   D2A57436  26.080   2.799   6.750
 7779POPC   C3A57437  26.056   2.750   7.050
 7779POPC   C4A57438  26.032   2.718   7.350
 7779POPC   C1B57439  26.230   2.884   6.450
 7779POPC   C2B57440  26.247   2.956   6.750
 7779POPC   C3B57441  26.247   2.911   7.050
 7779POPC   C4B57442  26.271   2.981   7.350
 7780POPC   NC357443  40.037   0.471   5.550
 7780POPC   PO457444  40.028   0.485   5.850
 7780POPC   GL157445  39.985   0.391   6.150
 7780POPC   GL257446  40.091   0.506   6.150
 7780POPC   C1A57447  39.963   0.429   6.450
 7780POPC   D2A57448  39.969   0.481   6.750
 7780POPC   C3A57449  39.968   0.397   7.050
 7780POPC   C4A57450  40.031   0.446   7.350
 7780POPC   C1B57451  40.051   0.680   6.450
 7780POPC   C2B57452  40.065   0.665   6.750
 7780POPC   C3B57453  40.130   0.628   7.050
 7780POPC   C4B57454  40.080   0.664   7.350
 7781POPC   NC357455  43.903  14.440   5.550
 7781POPC   PO457456  43.912  14.389   5.850
 7781POPC   GL157457  43.867  14.440   6.150
 7781POPC   GL257458  43.917  14.325   6.150
 7781POPC   C1A57459  43.868  14.430   6.450
 7781POPC   D2A57460  43.898  14.437   6.750
 7781POPC   C3A57461  43.905  14.397   7.050
 7781POPC   C4A57462  43.926  14.393   7.350
 7781POPC   C1B57463  43.966  14.171   6.450
 7781POPC   C2B57464  43.992  14.119   6.750
 7781POPC   C3B57465  44.008  14.210   7.050
 7781POPC   C4B57466  43.955  14.163   7.350
 7782POPC   NC357467   6.605  29.940   5.550
 7782POPC   PO457468   6.661  29.934   5.850
 7782POPC   GL157469   6.667  29.877   6.150
 7782POPC   GL257470   6.780  29.837   6.150
 7782POPC   C1A57471   6.628  29.891   6.450
 7782POPC   D2A57472   6.628  29.881   6.750
 7782POPC   C3A57473   6.598  29.907   7.050
 7782POPC   C4A57474   6.613  29.905   7.350
 7782POPC   C1B57475   6.903  29.817   6.450
 7782POPC   C2B57476   6.871  29.750   6.750
 7782POPC   C3B57477   6.903  29.746   7.050
 7782POPC   C4B57478   6.894  29.824   7.350
 7783POPC   NC357479   9.762  13.637   5.550
 7783POPC   PO457480   9.715  13.640   5.850
 7783POPC   GL157481   9.715  13.629   6.150
 7783POPC   GL257482   9.910  13.584   6.150
 7783POPC   C1A57483   9.724  13.671   6.450
 7783POPC   D2A57484   9.795  13.615   6.750
 7783POPC   C3A57485   9.769  13.662   7.050
 7783POPC   C4A57486   9.712  13.659   7.350
 7783POPC   C1B57487   9.966  13.616   6.450
 7783POPC   C2B57488   9.976  13.571   6.750
 7783POPC   C3B57489  10.034  13.594   7.050
 7783POPC   C4B57490   9.971  13.574   7.350
 7784POPC   NC357491  41.522  31.511   5.550
 7784POPC   PO457492  41.598  31.461   5.850
 7784POPC   GL157493  41.523  31.517   6.150
 7784POPC   GL257494  41.480  31.348   6.150
 7784POPC   C1A57495  41.584  31.498   6.450
 7784POPC   D2A57496  41.571  31.428   6.750
 7784POPC   C3A57497  41.524  31.487   7.050
 7784POPC   C4A57498  41.555  31.468   7.350
 7784POPC   C1B57499  41.381  31.318   6.450
 7784POPC   C2B57500  41.427  31.226   6.750
 7784POPC   C3B57501  41.426  31.272   7.050
 7784POPC   C4B57502  41.429  31.229   7.350
 7785POPC   NC357503  28.336  39.996   5.550
 7785POPC   PO457504  28.353  40.051   5.850
 7785POPC   GL157505  28.411  40.008   6.150
 7785POPC   GL257506  28.325  39.879   6.150
 7785POPC   C1A57507  28.388  39.963   6.450
 7785POPC   D2A57508  28.354  39.994   6.750
 7785POPC   C3A57509  28.355  39.996   7.050
 7785POPC   C4A57510  28.335  39.988   7.350
 7785POPC   C1B57511  28.259  39.858   6.450
 7785POPC   C2B57512  28.248  39.859   6.750
 7785POPC   C3B57513  28.230  39.821   7.050
 7785POPC   C4B57514  28.244  39.776   7.350
 7786POPC   NC357515  16.776  42.319   5.550
 7786POPC   PO457516  16.704  42.339   5.850
 7786POPC   GL157517  16.718  42.321   6.150
 7786POPC   GL257518  16.570  42.367   6.150
 7786POPC   C1A57519  16.708  42.293   6.450
 7786POPC   D2A57520  16.726  42.289   6.750
 7786POPC   C3A57521  16.712  42.356   7.050
 7786POPC   C4A57522  16.706  42.340   7.350
 7786POPC   C1B57523  16.448  42.384   6.450
 7786POPC   C2B57524  16.479  42.415   6.750
 7786POPC   C3B57525  16.513  42.432   7.050
 7786POPC   C4B57526  16.503  42.373   7.350
 7787POPC   NC357527  19.061  42.368   5.550
 7787POPC   PO457528  19.095  42.285   5.850
 7787POPC   GL157529  19.067  42.322   6.150
 7787POPC   GL257530  19.137  42.461   6.150
 7787POPC   C1A57531  19.093  42.336   6.450
 7787POPC   D2A57532  19.091  42.380   6.750
 7787POPC   C3A57533  19.054  42.350   7.050
 7787POPC   C4A57534  19.098  42.352   7.350
 7787POPC   C1B57535  19.220  42.541   6.450
 7787POPC   C2B57536  19.171  42.542   6.750
 7787POPC   C3B57537  19.188  42.489   7.050
 7787POPC   C4B57538  19.240  42.485   7.350
 7788POPC   NC357539   9.764  44.641   5.550
 7788POPC   PO457540   9.777  44.696   5.850
 7788POPC   GL157541   9.756  44.630   6.150
 7788POPC   GL257542   9.885  44.567   6.150
 7788POPC   C1A57543   9.764  44.662   6.450
 7788POPC   D2A57544   9.748  44.613   6.750
 7788POPC   C3A57545   9.729  44.695   7.050
 7788POPC   C4A57546   9.715  44.664   7.350
 7788POPC   C1B57547   9.901  44.533   6.450
 7788POPC   C2B57548   9.980  44.513   6.750
 7788POPC   C3B57549   9.957  44.511   7.050
 7788POPC   C4B57550   9.972  44.539   7.350
 7789POPC   NC357551  34.616  21.402   5.550
 7789POPC   PO457552  34.570  21.416   5.850
 7789POPC   GL157553  34.586  21.426   6.150
 7789POPC   GL257554  34.650  21.393   6.150
 7789POPC   C1A57555  34.611  21.346   6.450
 7789POPC   D2A57556  34.623  21.371   6.750
 7789POPC   C3A57557  34.560  21.416   7.050
 7789POPC   C4A57558  34.546  21.346   7.350
 7789POPC   C1B57559  34.851  21.502   6.450
 7789POPC   C2B57560  34.854  21.421   6.750
 7789POPC   C3B57561  34.836  21.451   7.050
 7789POPC   C4B57562  34.786  21.435   7.350
 7790POPC   NC357563  42.326  29.195   5.550
 7790POPC   PO457564  42.324  29.098   5.850
 7790POPC   GL157565  42.344  29.102   6.150
 7790POPC   GL257566  42.383  29.251   6.150
 7790POPC   C1A57567  42.334  29.098   6.450
 7790POPC   D2A57568  42.358  29.171   6.750
 7790POPC   C3A57569  42.317  29.100   7.050
 7790POPC   C4A57570  42.323  29.138   7.350
 7790POPC   C1B57571  42.537  29.276   6.450
 7790POPC   C2B57572  42.536  29.319   6.750
 7790POPC   C3B57573  42.554  29.335   7.050
 7790POPC   C4B57574  42.507  29.302   7.350
 7791POPC   NC357575   8.984  12.099   5.550
 7791POPC   PO457576   9.001  12.052   5.850
 7791POPC   GL157577   8.927  12.055   6.150
 7791POPC   GL257578   9.140  12.017   6.150
 7791POPC   C1A57579   8.928  12.030   6.450
 7791POPC   D2A57580   8.991  12.039   6.750
 7791POPC   C3A57581   8.997  12.075   7.050
 7791POPC   C4A57582   8.939  12.037   7.350
 7791POPC   C1B57583   9.254  12.053   6.450
 7791POPC   C2B57584   9.212  11.993   6.750
 7791POPC   C3B57585   9.227  12.037   7.050
 7791POPC   C4B57586   9.196  12.028   7.350
 7792POPC   NC357587  12.867  33.820   5.550
 7792POPC   PO457588  12.873  33.788   5.850
 7792POPC   GL157589  12.841  33.778   6.150
 7792POPC   GL257590  12.925  33.665   6.150
 7792POPC   C1A57591  12.899  33.781   6.450
 7792POPC   D2A57592  12.840  33.768   6.750
 7792POPC   C3A57593  12.878  33.776   7.050
 7792POPC   C4A57594  12.813  33.822   7.350
 7792POPC   C1B57595  13.000  33.630   6.450
 7792POPC   C2B57596  12.982  33.556   6.750
 7792POPC   C3B57597  13.026  33.608   7.050
 7792POPC   C4B57598  12.989  33.578   7.350
 7793POPC   NC357599  27.587  38.489   5.550
 7793POPC   PO457600  27.587  38.438   5.850
 7793POPC   GL157601  27.599  38.495   6.150
 7793POPC   GL257602  27.573  38.582   6.150
 7793POPC   C1A57603  27.593  38.436   6.450
 7793POPC   D2A57604  27.568  38.480   6.750
 7793POPC   C3A57605  27.590  38.459   7.050
 7793POPC   C4A57606  27.572  38.458   7.350
 7793POPC   C1B57607  27.538  38.694   6.450
 7793POPC   C2B57608  27.555  38.668   6.750
 7793POPC   C3B57609  27.517  38.717   7.050
 7793POPC   C4B57610  27.576  38.738   7.350
 7794POPC   NC357611   6.620  39.277   5.550
 7794POPC   PO457612   6.620  39.246   5.850
 7794POPC   GL157613   6.611  39.204   6.150
 7794POPC   GL257614   6.764  39.237   6.150
 7794POPC   C1A57615   6.640  39.186   6.450
 7794POPC   D2A57616   6.661  39.182   6.750
 7794POPC   C3A57617   6.623  39.241   7.050
 7794POPC   C4A57618   6.657  39.231   7.350
 7794POPC   C1B57619   6.837  39.340   6.450
 7794POPC   C2B57620   6.872  39.320   6.750
 7794POPC   C3B57621   6.863  39.350   7.050
 7794POPC   C4B57622   6.875  39.348   7.350
 7795POPC   NC357623  12.056  19.790   5.550
 7795POPC   PO457624  12.033  19.817   5.850
 7795POPC   GL157625  12.086  19.842   6.150
 7795POPC   GL257626  12.108  19.688   6.150
 7795POPC   C1A57627  12.073  19.874   6.450
 7795POPC   D2A57628  12.076  19.838   6.750
 7795POPC   C3A57629  12.031  19.824   7.050
 7795POPC   C4A57630  12.100  19.846   7.350
 7795POPC   C1B57631  12.206  19.616   6.450
 7795POPC   C2B57632  12.229  19.648   6.750
 7795POPC   C3B57633  12.223  19.620   7.050
 7795POPC   C4B57634  12.199  19.602   7.350
 7796POPC   NC357635  27.549   7.460   5.550
 7796POPC   PO457636  27.584   7.432   5.850
 7796POPC   GL157637  27.641   7.401   6.150
 7796POPC   GL257638  27.611   7.292   6.150
 7796POPC   C1A57639  27.596   7.437   6.450
 7796POPC   D2A57640  27.571   7.382   6.750
 7796POPC   C3A57641  27.565   7.418   7.050
 7796POPC   C4A57642  27.623   7.404   7.350
 7796POPC   C1B57643  27.552   7.202   6.450
 7796POPC   C2B57644  27.566   7.126   6.750
 7796POPC   C3B57645  27.603   7.126   7.050
 7796POPC   C4B57646  27.625   7.172   7.350
 7797POPC   NC357647  43.123  15.179   5.550
 7797POPC   PO457648  43.101  15.194   5.850
 7797POPC   GL157649  43.063  15.142   6.150
 7797POPC   GL257650  43.030  15.296   6.150
 7797POPC   C1A57651  43.091  15.213   6.450
 7797POPC   D2A57652  43.149  15.196   6.750
 7797POPC   C3A57653  43.155  15.227   7.050
 7797POPC   C4A57654  43.087  15.158   7.350
 7797POPC   C1B57655  43.081  15.403   6.450
 7797POPC   C2B57656  43.022  15.458   6.750
 7797POPC   C3B57657  43.057  15.412   7.050
 7797POPC   C4B57658  43.020  15.456   7.350
 7798POPC   NC357659   5.108   8.179   5.550
 7798POPC   PO457660   5.048   8.149   5.850
 7798POPC   GL157661   5.057   8.207   6.150
 7798POPC   GL257662   5.084   8.278   6.150
 7798POPC   C1A57663   5.117   8.197   6.450
 7798POPC   D2A57664   5.057   8.160   6.750
 7798POPC   C3A57665   5.129   8.219   7.050
 7798POPC   C4A57666   5.085   8.245   7.350
 7798POPC   C1B57667   4.938   8.455   6.450
 7798POPC   C2B57668   4.971   8.403   6.750
 7798POPC   C3B57669   4.968   8.438   7.050
 7798POPC   C4B57670   5.001   8.445   7.350
 7799POPC   NC357671  29.968   3.527   5.550
 7799POPC   PO457672  29.948   3.545   5.850
 7799POPC   GL157673  29.898   3.492   6.150
 7799POPC   GL257674  29.963   3.441   6.150
 7799POPC   C1A57675  29.944   3.520   6.450
 7799POPC   D2A57676  29.916   3.500   6.750
 7799POPC   C3A57677  29.913   3.494   7.050
 7799POPC   C4A57678  29.964   3.519   7.350
 7799POPC   C1B57679  29.910   3.269   6.450
 7799POPC   C2B57680  29.884   3.259   6.750
 7799POPC   C3B57681  29.956   3.289   7.050
 7799POPC   C4B57682  29.942   3.288   7.350
 7800POPC   NC357683  33.793  32.266   5.550
 7800POPC   PO457684  33.838  32.286   5.850
 7800POPC   GL157685  33.752  32.251   6.150
 7800POPC   GL257686  33.697  32.184   6.150
 7800POPC   C1A57687  33.773  32.284   6.450
 7800POPC   D2A57688  33.844  32.236   6.750
 7800POPC   C3A57689  33.766  32.265   7.050
 7800POPC   C4A57690  33.803  32.264   7.350
 7800POPC   C1B57691  33.607  32.100   6.450
 7800POPC   C2B57692  33.678  32.038   6.750
 7800POPC   C3B57693  33.617  32.105   7.050
 7800POPC   C4B57694  33.588  32.080   7.350
 7801POPC   NC357695  38.418  19.855   5.550
 7801POPC   PO457696  38.437  19.875   5.850
 7801POPC   GL157697  38.457  19.805   6.150
 7801POPC   GL257698  38.457  19.910   6.150
 7801POPC   C1A57699  38.415  19.799   6.450
 7801POPC   D2A57700  38.456  19.866   6.750
 7801POPC   C3A57701  38.473  19.798   7.050
 7801POPC   C4A57702  38.424  19.867   7.350
 7801POPC   C1B57703  38.559  20.076   6.450
 7801POPC   C2B57704  38.566  20.120   6.750
 7801POPC   C3B57705  38.559  20.082   7.050
 7801POPC   C4B57706  38.530  20.065   7.350
 7802POPC   NC357707  18.265   3.583   5.550
 7802POPC   PO457708  18.270   3.494   5.850
 7802POPC   GL157709  18.273   3.571   6.150
 7802POPC   GL257710  18.364   3.627   6.150
 7802POPC   C1A57711  18.273   3.520   6.450
 7802POPC   D2A57712  18.305   3.576   6.750
 7802POPC   C3A57713  18.264   3.569   7.050
 7802POPC   C4A57714  18.241   3.509   7.350
 7802POPC   C1B57715  18.425   3.691   6.450
 7802POPC   C2B57716  18.433   3.754   6.750
 7802POPC   C3B57717  18.476   3.695   7.050
 7802POPC   C4B57718  18.469   3.770   7.350
 7803POPC   NC357719  13.605  25.295   5.550
 7803POPC   PO457720  13.622  25.218   5.850
 7803POPC   GL157721  13.676  25.251   6.150
 7803POPC   GL257722  13.503  25.366   6.150
 7803POPC   C1A57723  13.659  25.313   6.450
 7803POPC   D2A57724  13.674  25.300   6.750
 7803POPC   C3A57725  13.600  25.300   7.050
 7803POPC   C4A57726  13.638  25.275   7.350
 7803POPC   C1B57727  13.441  25.392   6.450
 7803POPC   C2B57728  13.450  25.407   6.750
 7803POPC   C3B57729  13.361  25.425   7.050
 7803POPC   C4B57730  13.417  25.359   7.350
 7804POPC   NC357731  41.550  29.955   5.550
 7804POPC   PO457732  41.537  29.872   5.850
 7804POPC   GL157733  41.515  29.942   6.150
 7804POPC   GL257734  41.620  29.933   6.150
 7804POPC   C1A57735  41.589  29.939   6.450
 7804POPC   D2A57736  41.570  29.885   6.750
 7804POPC   C3A57737  41.548  29.911   7.050
 7804POPC   C4A57738  41.522  29.951   7.350
 7804POPC   C1B57739  41.735  30.035   6.450
 7804POPC   C2B57740  41.818  30.074   6.750
 7804POPC   C3B57741  41.759  30.079   7.050
 7804POPC   C4B57742  41.804  30.017   7.350
 7805POPC   NC357743  42.381  39.242   5.550
 7805POPC   PO457744  42.293  39.227   5.850
 7805POPC   GL157745  42.368  39.254   6.150
 7805POPC   GL257746  42.259  39.219   6.150
 7805POPC   C1A57747  42.301  39.218   6.450
 7805POPC   D2A57748  42.368  39.188   6.750
 7805POPC   C3A57749  42.340  39.227   7.050
 7805POPC   C4A57750  42.299  39.220   7.350
 7805POPC   C1B57751  42.107  39.190   6.450
 7805POPC   C2B57752  42.089  39.248   6.750
 7805POPC   C3B57753  42.054  39.251   7.050
 7805POPC   C4B57754  42.097  39.216   7.350
 7806POPC   NC357755  39.206  38.488   5.550
 7806POPC   PO457756  39.223  38.417   5.850
 7806POPC   GL157757  39.253  38.455   6.150
 7806POPC   GL257758  39.143  38.386   6.150
 7806POPC   C1A57759  39.219  38.408   6.450
 7806POPC   D2A57760  39.245  38.446   6.750
 7806POPC   C3A57761  39.250  38.482   7.050
 7806POPC   C4A57762  39.265  38.451   7.350
 7806POPC   C1B57763  39.068  38.331   6.450
 7806POPC   C2B57764  39.073  38.299   6.750
 7806POPC   C3B57765  39.008  38.266   7.050
 7806POPC   C4B57766  39.013  38.246   7.350
 7807POPC   NC357767  33.781  23.739   5.550
 7807POPC   PO457768  33.796  23.690   5.850
 7807POPC   GL157769  33.777  23.723   6.150
 7807POPC   GL257770  33.660  23.803   6.150
 7807POPC   C1A57771  33.850  23.702   6.450
 7807POPC   D2A57772  33.789  23.757   6.750
 7807POPC   C3A57773  33.837  23.738   7.050
 7807POPC   C4A57774  33.760  23.729   7.350
 7807POPC   C1B57775  33.626  23.882   6.450
 7807POPC   C2B57776  33.620  23.933   6.750
 7807POPC   C3B57777  33.580  23.880   7.050
 7807POPC   C4B57778  33.659  23.883   7.350
 7808POPC   NC357779  19.849  36.874   5.550
 7808POPC   PO457780  19.836  36.891   5.850
 7808POPC   GL157781  19.832  36.940   6.150
 7808POPC   GL257782  19.697  36.816   6.150
 7808POPC   C1A57783  19.793  36.867   6.450
 7808POPC   D2A57784  19.832  36.912   6.750
 7808POPC   C3A57785  19.813  36.878   7.050
 7808POPC   C4A57786  19.832  36.880   7.350
 7808POPC   C1B57787  19.564  36.767   6.450
 7808POPC   C2B57788  19.558  36.808   6.750
 7808POPC   C3B57789  19.618  36.754   7.050
 7808POPC   C4B57790  19.612  36.839   7.350
 7809POPC   NC357791   6.655  34.547   5.550
 7809POPC   PO457792   6.674  34.534   5.850
 7809POPC   GL157793   6.625  34.610   6.150
 7809POPC   GL257794   6.530  34.461   6.150
 7809POPC   C1A57795   6.650  34.566   6.450
 7809POPC   D2A57796   6.638  34.587   6.750
 7809POPC   C3A57797   6.606  34.614   7.050
 7809POPC   C4A57798   6.631  34.573   7.350
 7809POPC   C1B57799   6.524  34.365   6.450
 7809POPC   C2B57800   6.476  34.411   6.750
 7809POPC   C3B57801   6.517  34.392   7.050
 7809POPC   C4B57802   6.497  34.378   7.350
 7810POPC   NC357803  19.788  18.332   5.550
 7810POPC   PO457804  19.851  18.255   5.850
 7810POPC   GL157805  19.822  18.260   6.150
 7810POPC   GL257806  19.954  18.329   6.150
 7810POPC   C1A57807  19.872  18.327   6.450
 7810POPC   D2A57808  19.867  18.315   6.750
 7810POPC   C3A57809  19.842  18.319   7.050
 7810POPC   C4A57810  19.802  18.331   7.350
 7810POPC   C1B57811  20.042  18.461   6.450
 7810POPC   C2B57812  20.070  18.378   6.750
 7810POPC   C3B57813  20.054  18.391   7.050
 7810POPC   C4B57814  20.028  18.384   7.350
 7811POPC   NC357815  44.612  29.116   5.550
 7811POPC   PO457816  44.669  29.166   5.850
 7811POPC   GL157817  44.668  29.137   6.150
 7811POPC   GL257818  44.802  29.092   6.150
 7811POPC   C1A57819  44.652  29.135   6.450
 7811POPC   D2A57820  44.654  29.172   6.750
 7811POPC   C3A57821  44.677  29.117   7.050
 7811POPC   C4A57822  44.624  29.161   7.350
 7811POPC   C1B57823  44.908  28.985   6.450
 7811POPC   C2B57824  44.902  29.026   6.750
 7811POPC   C3B57825  44.920  29.045   7.050
 7811POPC   C4B57826  44.873  29.070   7.350
 7812POPC   NC357827  44.614  40.778   5.550
 7812POPC   PO457828  44.675  40.817   5.850
 7812POPC   GL157829  44.710  40.795   6.150
 7812POPC   GL257830  44.600  40.887   6.150
 7812POPC   C1A57831  44.616  40.806   6.450
 7812POPC   D2A57832  44.677  40.768   6.750
 7812POPC   C3A57833  44.689  40.772   7.050
 7812POPC   C4A57834  44.658  40.734   7.350
 7812POPC   C1B57835  44.541  41.003   6.450
 7812POPC   C2B57836  44.553  40.964   6.750
 7812POPC   C3B57837  44.543  41.044   7.050
 7812POPC   C4B57838  44.532  41.023   7.350
 7813POPC   NC357839  43.932  39.237   5.550
 7813POPC   PO457840  43.914  39.235   5.850
 7813POPC   GL157841  43.913  39.248   6.150
 7813POPC   GL257842  43.852  39.364   6.150
 7813POPC   C1A57843  43.886  39.263   6.450
 7813POPC   D2A57844  43.868  39.202   6.750
 7813POPC   C3A57845  43.857  39.206   7.050
 7813POPC   C4A57846  43.901  39.279   7.350
 7813POPC   C1B57847  43.830  39.475   6.450
 7813POPC   C2B57848  43.859  39.515   6.750
 7813POPC   C3B57849  43.826  39.487   7.050
 7813POPC   C4B57850  43.829  39.507   7.350
 7814POPC   NC357851  39.958  44.697   5.550
 7814POPC   PO457852  40.008  44.650   5.850
 7814POPC   GL157853  40.013  44.689   6.150
 7814POPC   GL257854  39.918  44.738   6.150
 7814POPC   C1A57855  40.033  44.659   6.450
 7814POPC   D2A57856  40.033  44.654   6.750
 7814POPC   C3A57857  39.973  44.660   7.050
 7814POPC   C4A57858  40.047  44.707   7.350
 7814POPC   C1B57859  39.895  44.851   6.450
 7814POPC   C2B57860  39.819  44.871   6.750
 7814POPC   C3B57861  39.827  44.885   7.050
 7814POPC   C4B57862  39.897  44.848   7.350
 7815POPC   NC357863  11.273  39.252   5.550
 7815POPC   PO457864  11.293  39.194   5.850
 7815POPC   GL157865  11.267  39.229   6.150
 7815POPC   GL257866  11.380  39.235   6.150
 7815POPC   C1A57867  11.338  39.246   6.450
 7815POPC   D2A57868  11.258  39.244   6.750
 7815POPC   C3A57869  11.276  39.234   7.050
 7815POPC   C4A57870  11.323  39.184   7.350
 7815POPC   C1B57871  11.574  39.122   6.450
 7815POPC   C2B57872  11.560  39.154   6.750
 7815POPC   C3B57873  11.538  39.196   7.050
 7815POPC   C4B57874  11.541  39.148   7.350
 7816POPC   NC357875  19.072  40.027   5.550
 7816POPC   PO457876  19.076  40.010   5.850
 7816POPC   GL157877  19.101  39.961   6.150
 7816POPC   GL257878  18.985  40.073   6.150
 7816POPC   C1A57879  19.091  40.038   6.450
 7816POPC   D2A57880  19.079  40.042   6.750
 7816POPC   C3A57881  19.102  39.995   7.050
 7816POPC   C4A57882  19.097  40.007   7.350
 7816POPC   C1B57883  18.810  40.017   6.450
 7816POPC   C2B57884  18.781  40.030   6.750
 7816POPC   C3B57885  18.855  40.003   7.050
 7816POPC   C4B57886  18.838  40.051   7.350
 7817POPC   NC357887  17.550   6.679   5.550
 7817POPC   PO457888  17.508   6.617   5.850
 7817POPC   GL157889  17.526   6.596   6.150
 7817POPC   GL257890  17.382   6.589   6.150
 7817POPC   C1A57891  17.477   6.595   6.450
 7817POPC   D2A57892  17.476   6.603   6.750
 7817POPC   C3A57893  17.513   6.662   7.050
 7817POPC   C4A57894  17.549   6.677   7.350
 7817POPC   C1B57895  17.332   6.442   6.450
 7817POPC   C2B57896  17.378   6.456   6.750
 7817POPC   C3B57897  17.364   6.476   7.050
 7817POPC   C4B57898  17.373   6.490   7.350
 7818POPC   NC357899  24.482  34.553   5.550
 7818POPC   PO457900  24.531  34.564   5.850
 7818POPC   GL157901  24.465  34.526   6.150
 7818POPC   GL257902  24.388  34.622   6.150
 7818POPC   C1A57903  24.458  34.543   6.450
 7818POPC   D2A57904  24.448  34.589   6.750
 7818POPC   C3A57905  24.525  34.583   7.050
 7818POPC   C4A57906  24.491  34.576   7.350
 7818POPC   C1B57907  24.278  34.655   6.450
 7818POPC   C2B57908  24.273  34.662   6.750
 7818POPC   C3B57909  24.278  34.649   7.050
 7818POPC   C4B57910  24.298  34.645   7.350
 7819POPC   NC357911   1.242   2.770   5.550
 7819POPC   PO457912   1.251   2.760   5.850
 7819POPC   GL157913   1.248   2.798   6.150
 7819POPC   GL257914   1.326   2.684   6.150
 7819POPC   C1A57915   1.182   2.734   6.450
 7819POPC   D2A57916   1.190   2.780   6.750
 7819POPC   C3A57917   1.253   2.761   7.050
 7819POPC   C4A57918   1.234   2.810   7.350
 7819POPC   C1B57919   1.383   2.530   6.450
 7819POPC   C2B57920   1.351   2.509   6.750
 7819POPC   C3B57921   1.337   2.599   7.050
 7819POPC   C4B57922   1.392   2.507   7.350
 7820POPC   NC357923   5.053  32.257   5.550
 7820POPC   PO457924   5.047  32.287   5.850
 7820POPC   GL157925   5.089  32.255   6.150
 7820POPC   GL257926   5.145  32.129   6.150
 7820POPC   C1A57927   5.048  32.253   6.450
 7820POPC   D2A57928   5.048  32.295   6.750
 7820POPC   C3A57929   5.061  32.285   7.050
 7820POPC   C4A57930   5.103  32.228   7.350
 7820POPC   C1B57931   5.235  32.061   6.450
 7820POPC   C2B57932   5.236  32.018   6.750
 7820POPC   C3B57933   5.177  31.980   7.050
 7820POPC   C4B57934   5.179  32.031   7.350
 7821POPC   NC357935  13.670  33.065   5.550
 7821POPC   PO457936  13.648  33.051   5.850
 7821POPC   GL157937  13.638  33.038   6.150
 7821POPC   GL257938  13.607  32.916   6.150
 7821POPC   C1A57939  13.650  33.037   6.450
 7821POPC   D2A57940  13.615  32.980   6.750
 7821POPC   C3A57941  13.643  33.057   7.050
 7821POPC   C4A57942  13.633  32.993   7.350
 7821POPC   C1B57943  13.561  32.788   6.450
 7821POPC   C2B57944  13.531  32.770   6.750
 7821POPC   C3B57945  13.499  32.819   7.050
 7821POPC   C4B57946  13.525  32.787   7.350
 7822POPC   NC357947  15.193  34.546   5.550
 7822POPC   PO457948  15.206  34.535   5.850
 7822POPC   GL157949  15.153  34.573   6.150
 7822POPC   GL257950  15.317  34.606   6.150
 7822POPC   C1A57951  15.228  34.561   6.450
 7822POPC   D2A57952  15.160  34.572   6.750
 7822POPC   C3A57953  15.225  34.617   7.050
 7822POPC   C4A57954  15.134  34.570   7.350
 7822POPC   C1B57955  15.380  34.536   6.450
 7822POPC   C2B57956  15.449  34.570   6.750
 7822POPC   C3B57957  15.464  34.571   7.050
 7822POPC   C4B57958  15.411  34.582   7.350
 7823POPC   NC357959   6.688  19.068   5.550
 7823POPC   PO457960   6.610  19.068   5.850
 7823POPC   GL157961   6.604  19.054   6.150
 7823POPC   GL257962   6.556  19.053   6.150
 7823POPC   C1A57963   6.683  19.041   6.450
 7823POPC   D2A57964   6.628  19.103   6.750
 7823POPC   C3A57965   6.603  19.076   7.050
 7823POPC   C4A57966   6.690  19.063   7.350
 7823POPC   C1B57967   6.346  19.099   6.450
 7823POPC   C2B57968   6.360  19.103   6.750
 7823POPC   C3B57969   6.385  19.044   7.050
 7823POPC   C4B57970   6.398  19.059   7.350
 7824POPC   NC357971  20.572  15.915   5.550
 7824POPC   PO457972  20.599  15.922   5.850
 7824POPC   GL157973  20.653  15.988   6.150
 7824POPC   GL257974  20.557  15.832   6.150
 7824POPC   C1A57975  20.638  15.951   6.450
 7824POPC   D2A57976  20.605  15.954   6.750
 7824POPC   C3A57977  20.636  15.973   7.050
 7824POPC   C4A57978  20.575  15.939   7.350
 7824POPC   C1B57979  20.496  15.721   6.450
 7824POPC   C2B57980  20.480  15.708   6.750
 7824POPC   C3B57981  20.541  15.673   7.050
 7824POPC   C4B57982  20.487  15.687   7.350
 7825POPC   NC357983  13.648  44.707   5.550
 7825POPC   PO457984  13.617  44.700   5.850
 7825POPC   GL157985  13.677  44.708   6.150
 7825POPC   GL257986  13.780  44.691   6.150
 7825POPC   C1A57987  13.589  44.646   6.450
 7825POPC   D2A57988  13.613  44.708   6.750
 7825POPC   C3A57989  13.579  44.670   7.050
 7825POPC   C4A57990  13.676  44.635   7.350
 7825POPC   C1B57991  13.863  44.847   6.450
 7825POPC   C2B57992  13.800  44.843   6.750
 7825POPC   C3B57993  13.830  44.791   7.050
 7825POPC   C4B57994  13.873  44.807   7.350
 7826POPC   NC357995  20.587  18.301   5.550
 7826POPC   PO457996  20.603  18.269   5.850
 7826POPC   GL157997  20.657  18.289   6.150
 7826POPC   GL257998  20.711  18.343   6.150
 7826POPC   C1A57999  20.622  18.329   6.450
 7826POPC   D2A58000  20.604  18.288   6.750
 7826POPC   C3A58001  20.606  18.256   7.050
 7826POPC   C4A58002  20.618  18.316   7.350
 7826POPC   C1B58003  20.837  18.391   6.450
 7826POPC   C2B58004  20.893  18.385   6.750
 7826POPC   C3B58005  20.860  18.355   7.050
 7826POPC   C4B58006  20.864  18.334   7.350
 7827POPC   NC358007  14.435   6.617   5.550
 7827POPC   PO458008  14.373   6.649   5.850
 7827POPC   GL158009  14.368   6.652   6.150
 7827POPC   GL258010  14.378   6.737   6.150
 7827POPC   C1A58011  14.366   6.688   6.450
 7827POPC   D2A58012  14.437   6.651   6.750
 7827POPC   C3A58013  14.434   6.630   7.050
 7827POPC   C4A58014  14.420   6.652   7.350
 7827POPC   C1B58015  14.295   6.871   6.450
 7827POPC   C2B58016  14.338   6.914   6.750
 7827POPC   C3B58017  14.292   6.880   7.050
 7827POPC   C4B58018  14.324   6.823   7.350
 7828POPC   NC358019   4.346  32.212   5.550
 7828POPC   PO458020   4.273  32.230   5.850
 7828POPC   GL158021   4.358  32.289   6.150
 7828POPC   GL258022   4.352  32.402   6.150
 7828POPC   C1A58023   4.304  32.279   6.450
 7828POPC   D2A58024   4.366  32.202   6.750
 7828POPC   C3A58025   4.344  32.271   7.050
 7828POPC   C4A58026   4.361  32.237   7.350
 7828POPC   C1B58027   4.406  32.463   6.450
 7828POPC   C2B58028   4.355  32.524   6.750
 7828POPC   C3B58029   4.333  32.455   7.050
 7828POPC   C4B58030   4.357  32.487   7.350
 7829POPC   NC358031  21.404  39.969   5.550
 7829POPC   PO458032  21.341  39.995   5.850
 7829POPC   GL158033  21.425  40.015   6.150
 7829POPC   GL258034  21.273  40.024   6.150
 7829POPC   C1A58035  21.393  39.994   6.450
 7829POPC   D2A58036  21.366  39.993   6.750
 7829POPC   C3A58037  21.395  39.965   7.050
 7829POPC   C4A58038  21.339  39.994   7.350
 7829POPC   C1B58039  21.157  40.075   6.450
 7829POPC   C2B58040  21.135  40.117   6.750
 7829POPC   C3B58041  21.098  40.123   7.050
 7829POPC   C4B58042  21.168  40.062   7.350
 7830POPC   NC358043  34.626   5.821   5.550
 7830POPC   PO458044  34.544   5.916   5.850
 7830POPC   GL158045  34.594   5.889   6.150
 7830POPC   GL258046  34.499   5.710   6.150
 7830POPC   C1A58047  34.621   5.845   6.450
 7830POPC   D2A58048  34.622   5.833   6.750
 7830POPC   C3A58049  34.560   5.847   7.050
 7830POPC   C4A58050  34.590   5.874   7.350
 7830POPC   C1B58051  34.487   5.612   6.450
 7830POPC   C2B58052  34.442   5.626   6.750
 7830POPC   C3B58053  34.467   5.689   7.050
 7830POPC   C4B58054  34.472   5.600   7.350
 7831POPC   NC358055   4.302  24.515   5.550
 7831POPC   PO458056   4.364  24.495   5.850
 7831POPC   GL158057   4.339  24.508   6.150
 7831POPC   GL258058   4.410  24.527   6.150
 7831POPC   C1A58059   4.328  24.492   6.450
 7831POPC   D2A58060   4.291  24.497   6.750
 7831POPC   C3A58061   4.326  24.482   7.050
 7831POPC   C4A58062   4.294  24.515   7.350
 7831POPC   C1B58063   4.553  24.443   6.450
 7831POPC   C2B58064   4.580  24.492   6.750
 7831POPC   C3B58065   4.571  24.443   7.050
 7831POPC   C4B58066   4.547  24.491   7.350
 7832POPC   NC358067  36.858   6.610   5.550
 7832POPC   PO458068  36.934   6.658   5.850
 7832POPC   GL158069  36.926   6.661   6.150
 7832POPC   GL258070  36.784   6.605   6.150
 7832POPC   C1A58071  36.901   6.686   6.450
 7832POPC   D2A58072  36.909   6.647   6.750
 7832POPC   C3A58073  36.953   6.695   7.050
 7832POPC   C4A58074  36.918   6.626   7.350
 7832POPC   C1B58075  36.691   6.543   6.450
 7832POPC   C2B58076  36.713   6.571   6.750
 7832POPC   C3B58077  36.665   6.572   7.050
 7832POPC   C4B58078  36.720   6.537   7.350
 7833POPC   NC358079  29.954   9.711   5.550
 7833POPC   PO458080  29.899   9.783   5.850
 7833POPC   GL158081  29.894   9.718   6.150
 7833POPC   GL258082  30.024   9.810   6.150
 7833POPC   C1A58083  29.933   9.755   6.450
 7833POPC   D2A58084  29.901   9.794   6.750
 7833POPC   C3A58085  29.873   9.783   7.050
 7833POPC   C4A58086  29.936   9.763   7.350
 7833POPC   C1B58087  30.058  10.012   6.450
 7833POPC   C2B58088  30.022   9.980   6.750
 7833POPC   C3B58089  30.068   9.920   7.050
 7833POPC   C4B58090  30.092  10.000   7.350
 7834POPC   NC358091  36.118   2.025   5.550
 7834POPC   PO458092  36.098   1.976   5.850
 7834POPC   GL158093  36.110   1.959   6.150
 7834POPC   GL258094  36.058   1.904   6.150
 7834POPC   C1A58095  36.101   1.960   6.450
 7834POPC   D2A58096  36.111   1.967   6.750
 7834POPC   C3A58097  36.124   1.954   7.050
 7834POPC   C4A58098  36.095   2.036   7.350
 7834POPC   C1B58099  35.944   1.844   6.450
 7834POPC   C2B58100  35.952   1.848   6.750
 7834POPC   C3B58101  35.977   1.864   7.050
 7834POPC   C4B58102  35.960   1.773   7.350
 7835POPC   NC358103  12.033   7.399   5.550
 7835POPC   PO458104  12.066   7.394   5.850
 7835POPC   GL158105  12.078   7.452   6.150
 7835POPC   GL258106  12.051   7.343   6.150
 7835POPC   C1A58107  12.085   7.453   6.450
 7835POPC   D2A58108  12.073   7.451   6.750
 7835POPC   C3A58109  12.047   7.388   7.050
 7835POPC   C4A58110  12.057   7.428   7.350
 7835POPC   C1B58111  12.008   7.167   6.450
 7835POPC   C2B58112  12.003   7.157   6.750
 7835POPC   C3B58113  12.074   7.164   7.050
 7835POPC   C4B58114  12.102   7.172   7.350
 7836POPC   NC358115  38.408  26.067   5.550
 7836POPC   PO458116  38.451  26.078   5.850
 7836POPC   GL158117  38.429  26.026   6.150
 7836POPC   GL258118  38.361  25.991   6.150
 7836POPC   C1A58119  38.448  26.075   6.450
 7836POPC   D2A58120  38.477  26.016   6.750
 7836POPC   C3A58121  38.482  25.993   7.050
 7836POPC   C4A58122  38.500  26.087   7.350
 7836POPC   C1B58123  38.190  25.917   6.450
 7836POPC   C2B58124  38.259  25.961   6.750
 7836POPC   C3B58125  38.264  25.969   7.050
 7836POPC   C4B58126  38.197  25.936   7.350
 7837POPC   NC358127  33.017   6.687   5.550
 7837POPC   PO458128  33.070   6.641   5.850
 7837POPC   GL158129  33.000   6.649   6.150
 7837POPC   GL258130  33.131   6.699   6.150
 7837POPC   C1A58131  33.063   6.647   6.450
 7837POPC   D2A58132  33.037   6.687   6.750
 7837POPC   C3A58133  33.073   6.622   7.050
 7837POPC   C4A58134  33.005   6.634   7.350
 7837POPC   C1B58135  33.167   6.825   6.450
 7837POPC   C2B58136  33.164   6.769   6.750
 7837POPC   C3B58137  33.225   6.794   7.050
 7837POPC   C4B58138  33.225   6.832   7.350
 7838POPC   NC358139  19.865  33.050   5.550
 7838POPC   PO458140  19.849  33.001   5.850
 7838POPC   GL158141  19.829  33.030   6.150
 7838POPC   GL258142  19.822  32.869   6.150
 7838POPC   C1A58143  19.814  32.992   6.450
 7838POPC   D2A58144  19.798  32.982   6.750
 7838POPC   C3A58145  19.874  33.012   7.050
 7838POPC   C4A58146  19.864  32.981   7.350
 7838POPC   C1B58147  19.798  32.812   6.450
 7838POPC   C2B58148  19.814  32.729   6.750
 7838POPC   C3B58149  19.781  32.804   7.050
 7838POPC   C4B58150  19.777  32.818   7.350
 7839POPC   NC358151  29.883  10.534   5.550
 7839POPC   PO458152  29.910  10.553   5.850
 7839POPC   GL158153  29.890  10.558   6.150
 7839POPC   GL258154  29.831  10.419   6.150
 7839POPC   C1A58155  29.896  10.551   6.450
 7839POPC   D2A58156  29.962  10.525   6.750
 7839POPC   C3A58157  29.944  10.555   7.050
 7839POPC   C4A58158  29.907  10.571   7.350
 7839POPC   C1B58159  29.708  10.386   6.450
 7839POPC   C2B58160  29.696  10.376   6.750
 7839POPC   C3B58161  29.700  10.380   7.050
 7839POPC   C4B58162  29.748  10.402   7.350
 7840POPC   NC358163  20.655  22.162   5.550
 7840POPC   PO458164  20.610  22.135   5.850
 7840POPC   GL158165  20.600  22.205   6.150
 7840POPC   GL258166  20.761  22.114   6.150
 7840POPC   C1A58167  20.637  22.122   6.450
 7840POPC   D2A58168  20.611  22.120   6.750
 7840POPC   C3A58169  20.609  22.120   7.050
 7840POPC   C4A58170  20.616  22.200   7.350
 7840POPC   C1B58171  20.909  22.133   6.450
 7840POPC   C2B58172  20.876  22.173   6.750
 7840POPC   C3B58173  20.832  22.203   7.050
 7840POPC   C4B58174  20.844  22.145   7.350
 7841POPC   NC358175  33.783  12.080   5.550
 7841POPC   PO458176  33.800  12.037   5.850
 7841POPC   GL158177  33.759  12.075   6.150
 7841POPC   GL258178  33.709  11.996   6.150
 7841POPC   C1A58179  33.770  12.094   6.450
 7841POPC   D2A58180  33.766  12.105   6.750
 7841POPC   C3A58181  33.806  12.088   7.050
 7841POPC   C4A58182  33.780  12.105   7.350
 7841POPC   C1B58183  33.619  11.999   6.450
 7841POPC   C2B58184  33.560  11.975   6.750
 7841POPC   C3B58185  33.619  11.941   7.050
 7841POPC   C4B58186  33.613  12.010   7.350
 7842POPC   NC358187  19.799  21.423   5.550
 7842POPC   PO458188  19.846  21.399   5.850
 7842POPC   GL158189  19.839  21.416   6.150
 7842POPC   GL258190  19.983  21.335   6.150
 7842POPC   C1A58191  19.870  21.365   6.450
 7842POPC   D2A58192  19.790  21.397   6.750
 7842POPC   C3A58193  19.853  21.370   7.050
 7842POPC   C4A58194  19.830  21.432   7.350
 7842POPC   C1B58195  19.995  21.270   6.450
 7842POPC   C2B58196  20.002  21.220   6.750
 7842POPC   C3B58197  20.083  21.233   7.050
 7842POPC   C4B58198  20.047  21.217   7.350
 7843POPC   NC358199   7.384  27.569   5.550
 7843POPC   PO458200   7.455  27.611   5.850
 7843POPC   GL158201   7.451  27.573   6.150
 7843POPC   GL258202   7.329  27.672   6.150
 7843POPC   C1A58203   7.421  27.583   6.450
 7843POPC   D2A58204   7.405  27.573   6.750
 7843POPC   C3A58205   7.444  27.606   7.050
 7843POPC   C4A58206   7.447  27.586   7.350
 7843POPC   C1B58207   7.303  27.849   6.450
 7843POPC   C2B58208   7.270  27.864   6.750
 7843POPC   C3B58209   7.314  27.783   7.050
 7843POPC   C4B58210   7.264  27.793   7.350
 7844POPC   NC358211  23.719  16.772   5.550
 7844POPC   PO458212  23.712  16.735   5.850
 7844POPC   GL158213  23.723  16.709   6.150
 7844POPC   GL258214  23.633  16.722   6.150
 7844POPC   C1A58215  23.702  16.693   6.450
 7844POPC   D2A58216  23.727  16.744   6.750
 7844POPC   C3A58217  23.727  16.719   7.050
 7844POPC   C4A58218  23.723  16.773   7.350
 7844POPC   C1B58219  23.433  16.669   6.450
 7844POPC   C2B58220  23.476  16.629   6.750
 7844POPC   C3B58221  23.428  16.700   7.050
 7844POPC   C4B58222  23.478  16.705   7.350
 7845POPC   NC358223  24.472  42.286   5.550
 7845POPC   PO458224  24.484  42.305   5.850
 7845POPC   GL158225  24.500  42.318   6.150
 7845POPC   GL258226  24.397  42.333   6.150
 7845POPC   C1A58227  24.504  42.371   6.450
 7845POPC   D2A58228  24.536  42.360   6.750
 7845POPC   C3A58229  24.443  42.327   7.050
 7845POPC   C4A58230  24.462  42.312   7.350
 7845POPC   C1B58231  24.227  42.249   6.450
 7845POPC   C2B58232  24.250  42.285   6.750
 7845POPC   C3B58233  24.217  42.281   7.050
 7845POPC   C4B58234  24.255  42.265   7.350
 7846POPC   NC358235   9.006   1.976   5.550
 7846POPC   PO458236   8.954   1.991   5.850
 7846POPC   GL158237   9.007   2.003   6.150
 7846POPC   GL258238   8.871   1.896   6.150
 7846POPC   C1A58239   8.978   2.035   6.450
 7846POPC   D2A58240   8.999   2.002   6.750
 7846POPC   C3A58241   8.932   1.984   7.050
 7846POPC   C4A58242   9.007   1.999   7.350
 7846POPC   C1B58243   8.804   1.823   6.450
 7846POPC   C2B58244   8.856   1.765   6.750
 7846POPC   C3B58245   8.786   1.755   7.050
 7846POPC   C4B58246   8.835   1.779   7.350
 7847POPC   NC358247  15.959   4.270   5.550
 7847POPC   PO458248  15.979   4.366   5.850
 7847POPC   GL158249  15.923   4.332   6.150
 7847POPC   GL258250  16.065   4.228   6.150
 7847POPC   C1A58251  16.002   4.301   6.450
 7847POPC   D2A58252  15.945   4.334   6.750
 7847POPC   C3A58253  15.949   4.336   7.050
 7847POPC   C4A58254  15.998   4.297   7.350
 7847POPC   C1B58255  16.098   4.107   6.450
 7847POPC   C2B58256  16.108   4.145   6.750
 7847POPC   C3B58257  16.134   4.152   7.050
 7847POPC   C4B58258  16.120   4.102   7.350
 7848POPC   NC358259  31.486  36.920   5.550
 7848POPC   PO458260  31.429  36.878   5.850
 7848POPC   GL158261  31.481  36.880   6.150
 7848POPC   GL258262  31.538  36.829   6.150
 7848POPC   C1A58263  31.438  36.953   6.450
 7848POPC   D2A58264  31.444  36.941   6.750
 7848POPC   C3A58265  31.470  36.899   7.050
 7848POPC   C4A58266  31.425  36.904   7.350
 7848POPC   C1B58267  31.658  36.756   6.450
 7848POPC   C2B58268  31.649  36.818   6.750
 7848POPC   C3B58269  31.653  36.812   7.050
 7848POPC   C4B58270  31.664  36.766   7.350
 7849POPC   NC358271   3.581  29.126   5.550
 7849POPC   PO458272   3.530  29.146   5.850
 7849POPC   GL158273   3.562  29.130   6.150
 7849POPC   GL258274   3.447  29.225   6.150
 7849POPC   C1A58275   3.522  29.130   6.450
 7849POPC   D2A58276   3.526  29.135   6.750
 7849POPC   C3A58277   3.574  29.157   7.050
 7849POPC   C4A58278   3.562  29.135   7.350
 7849POPC   C1B58279   3.396  29.266   6.450
 7849POPC   C2B58280   3.365  29.292   6.750
 7849POPC   C3B58281   3.373  29.274   7.050
 7849POPC   C4B58282   3.312  29.264   7.350
 7850POPC   NC358283  33.794   5.862   5.550
 7850POPC   PO458284  33.758   5.849   5.850
 7850POPC   GL158285  33.848   5.883   6.150
 7850POPC   GL258286  33.948   5.923   6.150
 7850POPC   C1A58287  33.797   5.884   6.450
 7850POPC   D2A58288  33.812   5.909   6.750
 7850POPC   C3A58289  33.765   5.888   7.050
 7850POPC   C4A58290  33.796   5.847   7.350
 7850POPC   C1B58291  34.034   6.001   6.450
 7850POPC   C2B58292  34.048   5.979   6.750
 7850POPC   C3B58293  34.016   5.974   7.050
 7850POPC   C4B58294  34.066   5.952   7.350
 7851POPC   NC358295  22.205  22.150   5.550
 7851POPC   PO458296  22.137  22.170   5.850
 7851POPC   GL158297  22.201  22.169   6.150
 7851POPC   GL258298  22.026  22.240   6.150
 7851POPC   C1A58299  22.181  22.175   6.450
 7851POPC   D2A58300  22.143  22.140   6.750
 7851POPC   C3A58301  22.178  22.209   7.050
 7851POPC   C4A58302  22.129  22.134   7.350
 7851POPC   C1B58303  21.957  22.275   6.450
 7851POPC   C2B58304  21.968  22.254   6.750
 7851POPC   C3B58305  21.934  22.261   7.050
 7851POPC   C4B58306  21.991  22.238   7.350
 7852POPC   NC358307   5.106  18.317   5.550
 7852POPC   PO458308   5.078  18.271   5.850
 7852POPC   GL158309   5.062  18.235   6.150
 7852POPC   GL258310   5.201  18.378   6.150
 7852POPC   C1A58311   5.093  18.300   6.450
 7852POPC   D2A58312   5.067  18.292   6.750
 7852POPC   C3A58313   5.135  18.269   7.050
 7852POPC   C4A58314   5.068  18.317   7.350
 7852POPC   C1B58315   5.261  18.479   6.450
 7852POPC   C2B58316   5.247  18.464   6.750
 7852POPC   C3B58317   5.262  18.474   7.050
 7852POPC   C4B58318   5.193  18.509   7.350
 7853POPC   NC358319  12.816  34.598   5.550
 7853POPC   PO458320  12.852  34.616   5.850
 7853POPC   GL158321  12.805  34.624   6.150
 7853POPC   GL258322  12.884  34.744   6.150
 7853POPC   C1A58323  12.841  34.529   6.450
 7853POPC   D2A58324  12.820  34.611   6.750
 7853POPC   C3A58325  12.826  34.624   7.050
 7853POPC   C4A58326  12.889  34.536   7.350
 7853POPC   C1B58327  12.863  34.798   6.450
 7853POPC   C2B58328  12.867  34.853   6.750
 7853POPC   C3B58329  12.828  34.874   7.050
 7853POPC   C4B58330  12.803  34.840   7.350
 7854POPC   NC358331   1.236  15.948   5.550
 7854POPC   PO458332   1.168  15.964   5.850
 7854POPC   GL158333   1.254  15.915   6.150
 7854POPC   GL258334   1.131  16.064   6.150
 7854POPC   C1A58335   1.228  15.934   6.450
 7854POPC   D2A58336   1.252  15.999   6.750
 7854POPC   C3A58337   1.226  15.987   7.050
 7854POPC   C4A58338   1.185  15.979   7.350
 7854POPC   C1B58339   1.092  16.176   6.450
 7854POPC   C2B58340   1.103  16.183   6.750
 7854POPC   C3B58341   1.091  16.179   7.050
 7854POPC   C4B58342   1.038  16.175   7.350
 7855POPC   NC358343  11.269   2.807   5.550
 7855POPC   PO458344  11.303   2.783   5.850
 7855POPC   GL158345  11.253   2.768   6.150
 7855POPC   GL258346  11.400   2.758   6.150
 7855POPC   C1A58347  11.344   2.719   6.450
 7855POPC   D2A58348  11.337   2.737   6.750
 7855POPC   C3A58349  11.330   2.721   7.050
 7855POPC   C4A58350  11.254   2.806   7.350
 7855POPC   C1B58351  11.575   2.740   6.450
 7855POPC   C2B58352  11.583   2.805   6.750
 7855POPC   C3B58353  11.596   2.753   7.050
 7855POPC   C4B58354  11.508   2.783   7.350
 7856POPC   NC358355  43.114  43.842   5.550
 7856POPC   PO458356  43.112  43.925   5.850
 7856POPC   GL158357  43.073  43.848   6.150
 7856POPC   GL258358  43.224  43.896   6.150
 7856POPC   C1A58359  43.112  43.898   6.450
 7856POPC   D2A58360  43.145  43.930   6.750
 7856POPC   C3A58361  43.108  43.878   7.050
 7856POPC   C4A58362  43.116  43.903   7.350
 7856POPC   C1B58363  43.379  43.995   6.450
 7856POPC   C2B58364  43.339  43.976   6.750
 7856POPC   C3B58365  43.371  43.933   7.050
 7856POPC   C4B58366  43.351  43.938   7.350
 7857POPC   NC358367  19.821  35.319   5.550
 7857POPC   PO458368  19.859  35.352   5.850
 7857POPC   GL158369  19.863  35.325   6.150
 7857POPC   GL258370  19.734  35.234   6.150
 7857POPC   C1A58371  19.868  35.321   6.450
 7857POPC   D2A58372  19.821  35.336   6.750
 7857POPC   C3A58373  19.786  35.308   7.050
 7857POPC   C4A58374  19.788  35.393   7.350
 7857POPC   C1B58375  19.705  35.158   6.450
 7857POPC   C2B58376  19.760  35.170   6.750
 7857POPC   C3B58377  19.743  35.104   7.050
 7857POPC   C4B58378  19.679  35.118   7.350
 7858POPC   NC358379  16.718  29.926   5.550
 7858POPC   PO458380  16.688  29.916   5.850
 7858POPC   GL158381  16.739  29.924   6.150
 7858POPC   GL258382  16.733  29.766   6.150
 7858POPC   C1A58383  16.711  29.945   6.450
 7858POPC   D2A58384  16.757  29.887   6.750
 7858POPC   C3A58385  16.740  29.902   7.050
 7858POPC   C4A58386  16.734  29.913   7.350
 7858POPC   C1B58387  16.735  29.685   6.450
 7858POPC   C2B58388  16.781  29.681   6.750
 7858POPC   C3B58389  16.752  29.718   7.050
 7858POPC   C4B58390  16.685  29.690   7.350
 7859POPC   NC358391  13.622   4.363   5.550
 7859POPC   PO458392  13.580   4.340   5.850
 7859POPC   GL158393  13.629   4.345   6.150
 7859POPC   GL258394  13.544   4.382   6.150
 7859POPC   C1A58395  13.622   4.348   6.450
 7859POPC   D2A58396  13.674   4.312   6.750
 7859POPC   C3A58397  13.624   4.359   7.050
 7859POPC   C4A58398  13.676   4.300   7.350
 7859POPC   C1B58399  13.436   4.437   6.450
 7859POPC   C2B58400  13.387   4.393   6.750
 7859POPC   C3B58401  13.377   4.447   7.050
 7859POPC   C4B58402  13.440   4.411   7.350
 7860POPC   NC358403  15.985   7.381   5.550
 7860POPC   PO458404  15.910   7.464   5.850
 7860POPC   GL158405  15.968   7.398   6.150
 7860POPC   GL258406  16.052   7.468   6.150
 7860POPC   C1A58407  15.955   7.400   6.450
 7860POPC   D2A58408  15.964   7.468   6.750
 7860POPC   C3A58409  15.986   7.441   7.050
 7860POPC   C4A58410  15.917   7.463   7.350
 7860POPC   C1B58411  16.135   7.563   6.450
 7860POPC   C2B58412  16.146   7.618   6.750
 7860POPC   C3B58413  16.179   7.610   7.050
 7860POPC   C4B58414  16.148   7.579   7.350
 7861POPC   NC358415  36.935  11.347   5.550
 7861POPC   PO458416  36.943  11.274   5.850
 7861POPC   GL158417  36.918  11.335   6.150
 7861POPC   GL258418  36.828  11.410   6.150
 7861POPC   C1A58419  36.930  11.346   6.450
 7861POPC   D2A58420  36.941  11.315   6.750
 7861POPC   C3A58421  36.948  11.299   7.050
 7861POPC   C4A58422  36.901  11.252   7.350
 7861POPC   C1B58423  36.711  11.504   6.450
 7861POPC   C2B58424  36.776  11.528   6.750
 7861POPC   C3B58425  36.755  11.502   7.050
 7861POPC   C4B58426  36.783  11.440   7.350
 7862POPC   NC358427  43.848   5.083   5.550
 7862POPC   PO458428  43.853   5.117   5.850
 7862POPC   GL158429  43.852   5.074   6.150
 7862POPC   GL258430  43.853   5.192   6.150
 7862POPC   C1A58431  43.930   5.124   6.450
 7862POPC   D2A58432  43.856   5.058   6.750
 7862POPC   C3A58433  43.873   5.089   7.050
 7862POPC   C4A58434  43.884   5.048   7.350
 7862POPC   C1B58435  43.698   5.329   6.450
 7862POPC   C2B58436  43.736   5.320   6.750
 7862POPC   C3B58437  43.745   5.320   7.050
 7862POPC   C4B58438  43.747   5.267   7.350
 7863POPC   NC358439  11.282   1.975   5.550
 7863POPC   PO458440  11.333   2.007   5.850
 7863POPC   GL158441  11.253   1.990   6.150
 7863POPC   GL258442  11.319   1.832   6.150
 7863POPC   C1A58443  11.337   1.970   6.450
 7863POPC   D2A58444  11.268   1.952   6.750
 7863POPC   C3A58445  11.264   1.988   7.050
 7863POPC   C4A58446  11.347   1.984   7.350
 7863POPC   C1B58447  11.262   1.708   6.450
 7863POPC   C2B58448  11.267   1.699   6.750
 7863POPC   C3B58449  11.262   1.702   7.050
 7863POPC   C4B58450  11.310   1.763   7.350
 7864POPC   NC358451  28.380  33.026   5.550
 7864POPC   PO458452  28.334  33.051   5.850
 7864POPC   GL158453  28.349  33.023   6.150
 7864POPC   GL258454  28.216  33.052   6.150
 7864POPC   C1A58455  28.397  32.994   6.450
 7864POPC   D2A58456  28.329  33.045   6.750
 7864POPC   C3A58457  28.377  33.072   7.050
 7864POPC   C4A58458  28.416  32.981   7.350
 7864POPC   C1B58459  28.080  33.042   6.450
 7864POPC   C2B58460  28.077  33.063   6.750
 7864POPC   C3B58461  28.150  33.029   7.050
 7864POPC   C4B58462  28.165  33.095   7.350
 7865POPC   NC358463  33.842   1.187   5.550
 7865POPC   PO458464  33.799   1.173   5.850
 7865POPC   GL158465  33.753   1.221   6.150
 7865POPC   GL258466  33.928   1.179   6.150
 7865POPC   C1A58467  33.840   1.263   6.450
 7865POPC   D2A58468  33.792   1.259   6.750
 7865POPC   C3A58469  33.784   1.212   7.050
 7865POPC   C4A58470  33.797   1.190   7.350
 7865POPC   C1B58471  33.955   1.098   6.450
 7865POPC   C2B58472  34.035   1.020   6.750
 7865POPC   C3B58473  34.014   1.059   7.050
 7865POPC   C4B58474  33.998   1.094   7.350
 7866POPC   NC358475   1.241   1.970   5.550
 7866POPC   PO458476   1.186   2.035   5.850
 7866POPC   GL158477   1.247   1.948   6.150
 7866POPC   GL258478   1.149   1.917   6.150
 7866POPC   C1A58479   1.214   1.954   6.450
 7866POPC   D2A58480   1.244   2.000   6.750
 7866POPC   C3A58481   1.250   2.031   7.050
 7866POPC   C4A58482   1.198   1.993   7.350
 7866POPC   C1B58483   1.045   1.862   6.450
 7866POPC   C2B58484   1.008   1.854   6.750
 7866POPC   C3B58485   0.983   1.875   7.050
 7866POPC   C4B58486   1.030   1.879   7.350
 7867POPC   NC358487  19.076  31.441   5.550
 7867POPC   PO458488  19.040  31.457   5.850
 7867POPC   GL158489  19.032  31.484   6.150
 7867POPC   GL258490  18.958  31.391   6.150
 7867POPC   C1A58491  19.028  31.472   6.450
 7867POPC   D2A58492  19.035  31.489   6.750
 7867POPC   C3A58493  19.063  31.426   7.050
 7867POPC   C4A58494  19.039  31.423   7.350
 7867POPC   C1B58495  18.912  31.311   6.450
 7867POPC   C2B58496  18.836  31.352   6.750
 7867POPC   C3B58497  18.863  31.329   7.050
 7867POPC   C4B58498  18.895  31.323   7.350
 7868POPC   NC358499  32.244  22.166   5.550
 7868POPC   PO458500  32.252  22.195   5.850
 7868POPC   GL158501  32.204  22.119   6.150
 7868POPC   GL258502  32.156  22.105   6.150
 7868POPC   C1A58503  32.289  22.113   6.450
 7868POPC   D2A58504  32.256  22.179   6.750
 7868POPC   C3A58505  32.224  22.186   7.050
 7868POPC   C4A58506  32.208  22.195   7.350
 7868POPC   C1B58507  32.014  22.057   6.450
 7868POPC   C2B58508  32.049  22.034   6.750
 7868POPC   C3B58509  32.051  22.055   7.050
 7868POPC   C4B58510  32.066  22.016   7.350
 7869POPC   NC358511  31.476   5.885   5.550
 7869POPC   PO458512  31.464   5.850   5.850
 7869POPC   GL158513  31.497   5.908   6.150
 7869POPC   GL258514  31.457   6.024   6.150
 7869POPC   C1A58515  31.453   5.853   6.450
 7869POPC   D2A58516  31.521   5.833   6.750
 7869POPC   C3A58517  31.485   5.854   7.050
 7869POPC   C4A58518  31.469   5.898   7.350
 7869POPC   C1B58519  31.379   6.066   6.450
 7869POPC   C2B58520  31.452   6.105   6.750
 7869POPC   C3B58521  31.409   6.155   7.050
 7869POPC   C4B58522  31.421   6.141   7.350
 7870POPC   NC358523  37.678   1.956   5.550
 7870POPC   PO458524  37.665   1.969   5.850
 7870POPC   GL158525  37.707   1.996   6.150
 7870POPC   GL258526  37.800   1.869   6.150
 7870POPC   C1A58527  37.690   1.983   6.450
 7870POPC   D2A58528  37.704   2.029   6.750
 7870POPC   C3A58529  37.713   1.984   7.050
 7870POPC   C4A58530  37.630   1.969   7.350
 7870POPC   C1B58531  37.909   1.811   6.450
 7870POPC   C2B58532  37.832   1.802   6.750
 7870POPC   C3B58533  37.895   1.873   7.050
 7870POPC   C4B58534  37.889   1.781   7.350
 7871POPC   NC358535  36.086  33.015   5.550
 7871POPC   PO458536  36.172  33.002   5.850
 7871POPC   GL158537  36.089  33.043   6.150
 7871POPC   GL258538  36.128  32.882   6.150
 7871POPC   C1A58539  36.127  32.996   6.450
 7871POPC   D2A58540  36.173  33.031   6.750
 7871POPC   C3A58541  36.079  33.065   7.050
 7871POPC   C4A58542  36.078  32.993   7.350
 7871POPC   C1B58543  36.055  32.806   6.450
 7871POPC   C2B58544  36.019  32.828   6.750
 7871POPC   C3B58545  36.031  32.759   7.050
 7871POPC   C4B58546  36.080  32.751   7.350
 7872POPC   NC358547  23.739  15.930   5.550
 7872POPC   PO458548  23.696  15.973   5.850
 7872POPC   GL158549  23.762  15.906   6.150
 7872POPC   GL258550  23.708  15.860   6.150
 7872POPC   C1A58551  23.759  15.920   6.450
 7872POPC   D2A58552  23.724  15.948   6.750
 7872POPC   C3A58553  23.718  15.985   7.050
 7872POPC   C4A58554  23.699  15.926   7.350
 7872POPC   C1B58555  23.597  15.768   6.450
 7872POPC   C2B58556  23.617  15.762   6.750
 7872POPC   C3B58557  23.673  15.754   7.050
 7872POPC   C4B58558  23.588  15.679   7.350
 7873POPC   NC358559  33.061  29.927   5.550
 7873POPC   PO458560  32.988  29.960   5.850
 7873POPC   GL158561  33.066  29.922   6.150
 7873POPC   GL258562  33.022  29.829   6.150
 7873POPC   C1A58563  32.988  29.924   6.450
 7873POPC   D2A58564  33.016  29.897   6.750
 7873POPC   C3A58565  32.986  29.883   7.050
 7873POPC   C4A58566  33.018  29.909   7.350
 7873POPC   C1B58567  32.973  29.697   6.450
 7873POPC   C2B58568  32.976  29.675   6.750
 7873POPC   C3B58569  32.921  29.669   7.050
 7873POPC   C4B58570  32.929  29.676   7.350
 7874POPC   NC358571  22.152  23.673   5.550
 7874POPC   PO458572  22.197  23.693   5.850
 7874POPC   GL158573  22.191  23.685   6.150
 7874POPC   GL258574  22.289  23.747   6.150
 7874POPC   C1A58575  22.150  23.754   6.450
 7874POPC   D2A58576  22.176  23.695   6.750
 7874POPC   C3A58577  22.175  23.707   7.050
 7874POPC   C4A58578  22.137  23.695   7.350
 7874POPC   C1B58579  22.375  23.771   6.450
 7874POPC   C2B58580  22.417  23.740   6.750
 7874POPC   C3B58581  22.409  23.801   7.050
 7874POPC   C4B58582  22.414  23.805   7.350
 7875POPC   NC358583  33.811   8.233   5.550
 7875POPC   PO458584  33.817   8.172   5.850
 7875POPC   GL158585  33.781   8.159   6.150
 7875POPC   GL258586  33.699   8.050   6.150
 7875POPC   C1A58587  33.760   8.159   6.450
 7875POPC   D2A58588  33.812   8.151   6.750
 7875POPC   C3A58589  33.805   8.170   7.050
 7875POPC   C4A58590  33.754   8.214   7.350
 7875POPC   C1B58591  33.669   7.979   6.450
 7875POPC   C2B58592  33.632   7.964   6.750
 7875POPC   C3B58593  33.713   7.985   7.050
 7875POPC   C4B58594  33.717   7.990   7.350
 7876POPC   NC358595   3.545  27.544   5.550
 7876POPC   PO458596   3.512  27.603   5.850
 7876POPC   GL158597   3.584  27.614   6.150
 7876POPC   GL258598   3.647  27.650   6.150
 7876POPC   C1A58599   3.505  27.548   6.450
 7876POPC   D2A58600   3.574  27.595   6.750
 7876POPC   C3A58601   3.557  27.604   7.050
 7876POPC   C4A58602   3.524  27.641   7.350
 7876POPC   C1B58603   3.688  27.782   6.450
 7876POPC   C2B58604   3.698  27.770   6.750
 7876POPC   C3B58605   3.682  27.766   7.050
 7876POPC   C4B58606   3.704  27.796   7.350
 7877POPC   NC358607  20.582  30.678   5.550
 7877POPC   PO458608  20.625  30.687   5.850
 7877POPC   GL158609  20.596  30.734   6.150
 7877POPC   GL258610  20.609  30.778   6.150
 7877POPC   C1A58611  20.569  30.739   6.450
 7877POPC   D2A58612  20.616  30.679   6.750
 7877POPC   C3A58613  20.585  30.736   7.050
 7877POPC   C4A58614  20.577  30.685   7.350
 7877POPC   C1B58615  20.544  30.931   6.450
 7877POPC   C2B58616  20.499  30.966   6.750
 7877POPC   C3B58617  20.549  30.905   7.050
 7877POPC   C4B58618  20.460  30.899   7.350
 7878POPC   NC358619  34.588  35.375   5.550
 7878POPC   PO458620  34.554  35.388   5.850
 7878POPC   GL158621  34.606  35.331   6.150
 7878POPC   GL258622  34.413  35.383   6.150
 7878POPC   C1A58623  34.587  35.395   6.450
 7878POPC   D2A58624  34.563  35.365   6.750
 7878POPC   C3A58625  34.623  35.383   7.050
 7878POPC   C4A58626  34.625  35.324   7.350
 7878POPC   C1B58627  34.364  35.297   6.450
 7878POPC   C2B58628  34.296  35.309   6.750
 7878POPC   C3B58629  34.285  35.284   7.050
 7878POPC   C4B58630  34.339  35.370   7.350
 7879POPC   NC358631  17.502  33.071   5.550
 7879POPC   PO458632  17.470  33.055   5.850
 7879POPC   GL158633  17.521  33.054   6.150
 7879POPC   GL258634  17.601  33.007   6.150
 7879POPC   C1A58635  17.531  33.044   6.450
 7879POPC   D2A58636  17.529  33.070   6.750
 7879POPC   C3A58637  17.482  32.983   7.050
 7879POPC   C4A58638  17.521  32.974   7.350
 7879POPC   C1B58639  17.797  33.060   6.450
 7879POPC   C2B58640  17.799  33.130   6.750
 7879POPC   C3B58641  17.799  33.048   7.050
 7879POPC   C4B58642  17.794  33.089   7.350
 7880POPC   NC358643  30.684  36.886   5.550
 7880POPC   PO458644  30.666  36.866   5.850
 7880POPC   GL158645  30.729  36.870   6.150
 7880POPC   GL258646  30.553  36.831   6.150
 7880POPC   C1A58647  30.717  36.927   6.450
 7880POPC   D2A58648  30.707  36.889   6.750
 7880POPC   C3A58649  30.739  36.865   7.050
 7880POPC   C4A58650  30.665  36.932   7.350
 7880POPC   C1B58651  30.484  36.822   6.450
 7880POPC   C2B58652  30.436  36.796   6.750
 7880POPC   C3B58653  30.516  36.828   7.050
 7880POPC   C4B58654  30.510  36.782   7.350
 7881POPC   NC358655  41.603   7.404   5.550
 7881POPC   PO458656  41.590   7.402   5.850
 7881POPC   GL158657  41.563   7.453   6.150
 7881POPC   GL258658  41.692   7.408   6.150
 7881POPC   C1A58659  41.529   7.433   6.450
 7881POPC   D2A58660  41.557   7.390   6.750
 7881POPC   C3A58661  41.534   7.408   7.050
 7881POPC   C4A58662  41.515   7.457   7.350
 7881POPC   C1B58663  41.783   7.485   6.450
 7881POPC   C2B58664  41.763   7.470   6.750
 7881POPC   C3B58665  41.772   7.525   7.050
 7881POPC   C4B58666  41.784   7.469   7.350
 7882POPC   NC358667   0.405  26.789   5.550
 7882POPC   PO458668   0.394  26.791   5.850
 7882POPC   GL158669   0.483  26.813   6.150
 7882POPC   GL258670   0.298  26.855   6.150
 7882POPC   C1A58671   0.456  26.862   6.450
 7882POPC   D2A58672   0.486  26.791   6.750
 7882POPC   C3A58673   0.439  26.863   7.050
 7882POPC   C4A58674   0.415  26.854   7.350
 7882POPC   C1B58675   0.194  26.906   6.450
 7882POPC   C2B58676   0.199  26.980   6.750
 7882POPC   C3B58677   0.188  26.928   7.050
 7882POPC   C4B58678   0.234  26.985   7.350
 7883POPC   NC358679  23.740   2.775   5.550
 7883POPC   PO458680  23.759   2.759   5.850
 7883POPC   GL158681  23.735   2.735   6.150
 7883POPC   GL258682  23.834   2.783   6.150
 7883POPC   C1A58683  23.717   2.814   6.450
 7883POPC   D2A58684  23.708   2.720   6.750
 7883POPC   C3A58685  23.737   2.744   7.050
 7883POPC   C4A58686  23.714   2.801   7.350
 7883POPC   C1B58687  23.920   2.905   6.450
 7883POPC   C2B58688  23.924   2.911   6.750
 7883POPC   C3B58689  23.969   2.870   7.050
 7883POPC   C4B58690  23.977   2.857   7.350
 7884POPC   NC358691  17.476  26.075   5.550
 7884POPC   PO458692  17.509  26.006   5.850
 7884POPC   GL158693  17.491  26.008   6.150
 7884POPC   GL258694  17.372  26.100   6.150
 7884POPC   C1A58695  17.552  26.061   6.450
 7884POPC   D2A58696  17.516  25.998   6.750
 7884POPC   C3A58697  17.550  26.083   7.050
 7884POPC   C4A58698  17.514  26.044   7.350
 7884POPC   C1B58699  17.222  26.063   6.450
 7884POPC   C2B58700  17.244  26.067   6.750
 7884POPC   C3B58701  17.278  26.071   7.050
 7884POPC   C4B58702  17.216  26.118   7.350
 7885POPC   NC358703   0.473  36.863   5.550
 7885POPC   PO458704   0.463  36.934   5.850
 7885POPC   GL158705   0.453  36.919   6.150
 7885POPC   GL258706   0.440  37.051   6.150
 7885POPC   C1A58707   0.419  36.905   6.450
 7885POPC   D2A58708   0.440  36.901   6.750
 7885POPC   C3A58709   0.440  36.893   7.050
 7885POPC   C4A58710   0.429  36.893   7.350
 7885POPC   C1B58711   0.563  37.118   6.450
 7885POPC   C2B58712   0.526  37.173   6.750
 7885POPC   C3B58713   0.510  37.154   7.050
 7885POPC   C4B58714   0.551  37.094   7.350
 7886POPC   NC358715  30.699  34.562   5.550
 7886POPC   PO458716  30.673  34.583   5.850
 7886POPC   GL158717  30.670  34.610   6.150
 7886POPC   GL258718  30.638  34.495   6.150
 7886POPC   C1A58719  30.723  34.622   6.450
 7886POPC   D2A58720  30.662  34.556   6.750
 7886POPC   C3A58721  30.696  34.582   7.050
 7886POPC   C4A58722  30.701  34.601   7.350
 7886POPC   C1B58723  30.452  34.421   6.450
 7886POPC   C2B58724  30.456  34.423   6.750
 7886POPC   C3B58725  30.447  34.418   7.050
 7886POPC   C4B58726  30.484  34.416   7.350
 7887POPC   NC358727  37.631  12.841   5.550
 7887POPC   PO458728  37.653  12.885   5.850
 7887POPC   GL158729  37.729  12.871   6.150
 7887POPC   GL258730  37.594  12.955   6.150
 7887POPC   C1A58731  37.640  12.829   6.450
 7887POPC   D2A58732  37.729  12.850   6.750
 7887POPC   C3A58733  37.722  12.865   7.050
 7887POPC   C4A58734  37.689  12.824   7.350
 7887POPC   C1B58735  37.514  13.042   6.450
 7887POPC   C2B58736  37.588  13.058   6.750
 7887POPC   C3B58737  37.589  13.021   7.050
 7887POPC   C4B58738  37.566  13.096   7.350
 7888POPC   NC358739  41.529  22.162   5.550
 7888POPC   PO458740  41.574  22.121   5.850
 7888POPC   GL158741  41.541  22.205   6.150
 7888POPC   GL258742  41.495  22.086   6.150
 7888POPC   C1A58743  41.565  22.176   6.450
 7888POPC   D2A58744  41.563  22.178   6.750
 7888POPC   C3A58745  41.573  22.152   7.050
 7888POPC   C4A58746  41.517  22.160   7.350
 7888POPC   C1B58747  41.425  21.952   6.450
 7888POPC   C2B58748  41.384  21.937   6.750
 7888POPC   C3B58749  41.376  21.937   7.050
 7888POPC   C4B58750  41.400  22.001   7.350
 7889POPC   NC358751  16.733  27.632   5.550
 7889POPC   PO458752  16.738  27.575   5.850
 7889POPC   GL158753  16.700  27.611   6.150
 7889POPC   GL258754  16.689  27.460   6.150
 7889POPC   C1A58755  16.694  27.635   6.450
 7889POPC   D2A58756  16.747  27.586   6.750
 7889POPC   C3A58757  16.734  27.548   7.050
 7889POPC   C4A58758  16.750  27.584   7.350
 7889POPC   C1B58759  16.540  27.382   6.450
 7889POPC   C2B58760  16.551  27.396   6.750
 7889POPC   C3B58761  16.552  27.358   7.050
 7889POPC   C4B58762  16.543  27.430   7.350
 7890POPC   NC358763  40.032  22.941   5.550
 7890POPC   PO458764  40.055  22.962   5.850
 7890POPC   GL158765  40.051  22.913   6.150
 7890POPC   GL258766  40.090  23.019   6.150
 7890POPC   C1A58767  39.966  22.934   6.450
 7890POPC   D2A58768  39.979  22.928   6.750
 7890POPC   C3A58769  40.050  22.931   7.050
 7890POPC   C4A58770  40.043  22.959   7.350
 7890POPC   C1B58771  40.235  23.022   6.450
 7890POPC   C2B58772  40.232  23.108   6.750
 7890POPC   C3B58773  40.204  23.065   7.050
 7890POPC   C4B58774  40.260  23.040   7.350
 7891POPC   NC358775  18.250   8.196   5.550
 7891POPC   PO458776  18.302   8.227   5.850
 7891POPC   GL158777  18.312   8.224   6.150
 7891POPC   GL258778  18.332   8.121   6.150
 7891POPC   C1A58779  18.312   8.219   6.450
 7891POPC   D2A58780  18.278   8.154   6.750
 7891POPC   C3A58781  18.318   8.174   7.050
 7891POPC   C4A58782  18.311   8.225   7.350
 7891POPC   C1B58783  18.269   7.992   6.450
 7891POPC   C2B58784  18.337   7.946   6.750
 7891POPC   C3B58785  18.332   7.954   7.050
 7891POPC   C4B58786  18.262   7.984   7.350
 7892POPC   NC358787  43.067   9.699   5.550
 7892POPC   PO458788  43.079   9.716   5.850
 7892POPC   GL158789  43.146   9.789   6.150
 7892POPC   GL258790  43.222   9.791   6.150
 7892POPC   C1A58791  43.125   9.738   6.450
 7892POPC   D2A58792  43.132   9.772   6.750
 7892POPC   C3A58793  43.070   9.798   7.050
 7892POPC   C4A58794  43.131   9.725   7.350
 7892POPC   C1B58795  43.382   9.867   6.450
 7892POPC   C2B58796  43.373   9.824   6.750
 7892POPC   C3B58797  43.359   9.854   7.050
 7892POPC   C4B58798  43.371   9.884   7.350
 7893POPC   NC358799  17.466   0.428   5.550
 7893POPC   PO458800  17.501   0.483   5.850
 7893POPC   GL158801  17.513   0.413   6.150
 7893POPC   GL258802  17.349   0.367   6.150
 7893POPC   C1A58803  17.487   0.428   6.450
 7893POPC   D2A58804  17.519   0.463   6.750
 7893POPC   C3A58805  17.497   0.440   7.050
 7893POPC   C4A58806  17.514   0.453   7.350
 7893POPC   C1B58807  17.226   0.408   6.450
 7893POPC   C2B58808  17.263   0.351   6.750
 7893POPC   C3B58809  17.308   0.342   7.050
 7893POPC   C4B58810  17.258   0.398   7.350
 7894POPC   NC358811  33.796  29.878   5.550
 7894POPC   PO458812  33.781  29.892   5.850
 7894POPC   GL158813  33.757  29.922   6.150
 7894POPC   GL258814  33.941  30.013   6.150
 7894POPC   C1A58815  33.827  29.929   6.450
 7894POPC   D2A58816  33.795  29.929   6.750
 7894POPC   C3A58817  33.824  29.959   7.050
 7894POPC   C4A58818  33.803  29.929   7.350
 7894POPC   C1B58819  34.055  30.061   6.450
 7894POPC   C2B58820  33.998  30.081   6.750
 7894POPC   C3B58821  34.047  30.010   7.050
 7894POPC   C4B58822  34.037  30.026   7.350
 7895POPC   NC358823   0.411  18.296   5.550
 7895POPC   PO458824   0.449  18.319   5.850
 7895POPC   GL158825   0.452  18.290   6.150
 7895POPC   GL258826   0.507  18.195   6.150
 7895POPC   C1A58827   0.428  18.278   6.450
 7895POPC   D2A58828   0.425  18.239   6.750
 7895POPC   C3A58829   0.425  18.308   7.050
 7895POPC   C4A58830   0.400  18.282   7.350
 7895POPC   C1B58831   0.567  18.097   6.450
 7895POPC   C2B58832   0.544  18.097   6.750
 7895POPC   C3B58833   0.559  18.039   7.050
 7895POPC   C4B58834   0.565  18.107   7.350
 7896POPC   NC358835  19.877  36.098   5.550
 7896POPC   PO458836  19.828  36.078   5.850
 7896POPC   GL158837  19.838  36.177   6.150
 7896POPC   GL258838  19.666  36.141   6.150
 7896POPC   C1A58839  19.852  36.175   6.450
 7896POPC   D2A58840  19.810  36.133   6.750
 7896POPC   C3A58841  19.802  36.129   7.050
 7896POPC   C4A58842  19.861  36.155   7.350
 7896POPC   C1B58843  19.565  36.198   6.450
 7896POPC   C2B58844  19.618  36.187   6.750
 7896POPC   C3B58845  19.599  36.211   7.050
 7896POPC   C4B58846  19.591  36.208   7.350
 7897POPC   NC358847  22.974  31.500   5.550
 7897POPC   PO458848  22.899  31.475   5.850
 7897POPC   GL158849  22.932  31.512   6.150
 7897POPC   GL258850  22.796  31.425   6.150
 7897POPC   C1A58851  22.984  31.423   6.450
 7897POPC   D2A58852  22.976  31.504   6.750
 7897POPC   C3A58853  22.966  31.510   7.050
 7897POPC   C4A58854  22.965  31.522   7.350
 7897POPC   C1B58855  22.733  31.337   6.450
 7897POPC   C2B58856  22.684  31.310   6.750
 7897POPC   C3B58857  22.750  31.355   7.050
 7897POPC   C4B58858  22.707  31.298   7.350
 7898POPC   NC358859  27.552  27.612   5.550
 7898POPC   PO458860  27.553  27.637   5.850
 7898POPC   GL158861  27.637  27.626   6.150
 7898POPC   GL258862  27.585  27.480   6.150
 7898POPC   C1A58863  27.557  27.639   6.450
 7898POPC   D2A58864  27.587  27.629   6.750
 7898POPC   C3A58865  27.559  27.596   7.050
 7898POPC   C4A58866  27.614  27.559   7.350
 7898POPC   C1B58867  27.647  27.324   6.450
 7898POPC   C2B58868  27.620  27.346   6.750
 7898POPC   C3B58869  27.651  27.321   7.050
 7898POPC   C4B58870  27.597  27.372   7.350
 7899POPC   NC358871   9.000   2.762   5.550
 7899POPC   PO458872   8.932   2.774   5.850
 7899POPC   GL158873   8.925   2.765   6.150
 7899POPC   GL258874   9.042   2.891   6.150
 7899POPC   C1A58875   8.997   2.777   6.450
 7899POPC   D2A58876   8.959   2.812   6.750
 7899POPC   C3A58877   8.939   2.718   7.050
 7899POPC   C4A58878   8.994   2.776   7.350
 7899POPC   C1B58879   9.101   2.920   6.450
 7899POPC   C2B58880   9.201   2.935   6.750
 7899POPC   C3B58881   9.104   2.900   7.050
 7899POPC   C4B58882   9.116   2.958   7.350
 7900POPC   NC358883  18.285   5.823   5.550
 7900POPC   PO458884  18.322   5.866   5.850
 7900POPC   GL158885  18.297   5.853   6.150
 7900POPC   GL258886  18.309   5.782   6.150
 7900POPC   C1A58887  18.324   5.886   6.450
 7900POPC   D2A58888  18.245   5.883   6.750
 7900POPC   C3A58889  18.282   5.860   7.050
 7900POPC   C4A58890  18.320   5.880   7.350
 7900POPC   C1B58891  18.261   5.625   6.450
 7900POPC   C2B58892  18.224   5.662   6.750
 7900POPC   C3B58893  18.225   5.604   7.050
 7900POPC   C4B58894  18.255   5.605   7.350
 7901POPC   NC358895  38.440  31.485   5.550
 7901POPC   PO458896  38.493  31.505   5.850
 7901POPC   GL158897  38.434  31.459   6.150
 7901POPC   GL258898  38.552  31.358   6.150
 7901POPC   C1A58899  38.467  31.430   6.450
 7901POPC   D2A58900  38.494  31.448   6.750
 7901POPC   C3A58901  38.486  31.428   7.050
 7901POPC   C4A58902  38.497  31.498   7.350
 7901POPC   C1B58903  38.703  31.299   6.450
 7901POPC   C2B58904  38.704  31.385   6.750
 7901POPC   C3B58905  38.682  31.368   7.050
 7901POPC   C4B58906  38.693  31.341   7.350
 7902POPC   NC358907   5.131  22.981   5.550
 7902POPC   PO458908   5.089  22.894   5.850
 7902POPC   GL158909   5.093  22.972   6.150
 7902POPC   GL258910   5.107  23.055   6.150
 7902POPC   C1A58911   5.098  22.981   6.450
 7902POPC   D2A58912   5.138  22.974   6.750
 7902POPC   C3A58913   5.080  22.977   7.050
 7902POPC   C4A58914   5.065  22.909   7.350
 7902POPC   C1B58915   5.030  23.146   6.450
 7902POPC   C2B58916   5.046  23.222   6.750
 7902POPC   C3B58917   5.005  23.198   7.050
 7902POPC   C4B58918   5.007  23.185   7.350
 7903POPC   NC358919   7.454  22.128   5.550
 7903POPC   PO458920   7.462  22.148   5.850
 7903POPC   GL158921   7.412  22.151   6.150
 7903POPC   GL258922   7.300  22.244   6.150
 7903POPC   C1A58923   7.445  22.206   6.450
 7903POPC   D2A58924   7.426  22.209   6.750
 7903POPC   C3A58925   7.431  22.153   7.050
 7903POPC   C4A58926   7.384  22.149   7.350
 7903POPC   C1B58927   7.246  22.343   6.450
 7903POPC   C2B58928   7.253  22.281   6.750
 7903POPC   C3B58929   7.225  22.336   7.050
 7903POPC   C4B58930   7.222  22.293   7.350
 7904POPC   NC358931   4.365   7.390   5.550
 7904POPC   PO458932   4.292   7.408   5.850
 7904POPC   GL158933   4.364   7.460   6.150
 7904POPC   GL258934   4.399   7.476   6.150
 7904POPC   C1A58935   4.291   7.464   6.450
 7904POPC   D2A58936   4.341   7.402   6.750
 7904POPC   C3A58937   4.295   7.403   7.050
 7904POPC   C4A58938   4.298   7.439   7.350
 7904POPC   C1B58939   4.495   7.612   6.450
 7904POPC   C2B58940   4.529   7.599   6.750
 7904POPC   C3B58941   4.457   7.572   7.050
 7904POPC   C4B58942   4.467   7.581   7.350
 7905POPC   NC358943  42.353   4.274   5.550
 7905POPC   PO458944  42.292   4.278   5.850
 7905POPC   GL158945  42.348   4.350   6.150
 7905POPC   GL258946  42.221   4.347   6.150
 7905POPC   C1A58947  42.289   4.355   6.450
 7905POPC   D2A58948  42.295   4.364   6.750
 7905POPC   C3A58949  42.288   4.307   7.050
 7905POPC   C4A58950  42.339   4.328   7.350
 7905POPC   C1B58951  42.128   4.506   6.450
 7905POPC   C2B58952  42.129   4.505   6.750
 7905POPC   C3B58953  42.116   4.480   7.050
 7905POPC   C4B58954  42.118   4.484   7.350
 7906POPC   NC358955  16.751  29.180   5.550
 7906POPC   PO458956  16.688  29.112   5.850
 7906POPC   GL158957  16.710  29.160   6.150
 7906POPC   GL258958  16.837  29.075   6.150
 7906POPC   C1A58959  16.696  29.173   6.450
 7906POPC   D2A58960  16.698  29.115   6.750
 7906POPC   C3A58961  16.727  29.136   7.050
 7906POPC   C4A58962  16.708  29.121   7.350
 7906POPC   C1B58963  16.927  29.087   6.450
 7906POPC   C2B58964  16.929  29.111   6.750
 7906POPC   C3B58965  16.966  29.075   7.050
 7906POPC   C4B58966  16.935  29.126   7.350
 7907POPC   NC358967   2.751  29.924   5.550
 7907POPC   PO458968   2.717  29.876   5.850
 7907POPC   GL158969   2.731  29.935   6.150
 7907POPC   GL258970   2.865  30.060   6.150
 7907POPC   C1A58971   2.798  29.952   6.450
 7907POPC   D2A58972   2.810  29.966   6.750
 7907POPC   C3A58973   2.732  29.959   7.050
 7907POPC   C4A58974   2.750  29.896   7.350
 7907POPC   C1B58975   2.947  30.136   6.450
 7907POPC   C2B58976   2.935  30.124   6.750
 7907POPC   C3B58977   2.888  30.150   7.050
 7907POPC   C4B58978   2.954  30.160   7.350
 7908POPC   NC358979  12.867  26.062   5.550
 7908POPC   PO458980  12.837  26.014   5.850
 7908POPC   GL158981  12.850  26.090   6.150
 7908POPC   GL258982  12.970  26.006   6.150
 7908POPC   C1A58983  12.817  26.088   6.450
 7908POPC   D2A58984  12.813  26.013   6.750
 7908POPC   C3A58985  12.867  26.001   7.050
 7908POPC   C4A58986  12.818  26.080   7.350
 7908POPC   C1B58987  13.058  26.070   6.450
 7908POPC   C2B58988  13.087  26.007   6.750
 7908POPC   C3B58989  13.112  25.984   7.050
 7908POPC   C4B58990  13.080  26.039   7.350
 7909POPC   NC358991   5.103   8.969   5.550
 7909POPC   PO458992   5.118   9.012   5.850
 7909POPC   GL158993   5.075   8.924   6.150
 7909POPC   GL258994   5.088   8.821   6.150
 7909POPC   C1A58995   5.102   9.018   6.450
 7909POPC   D2A58996   5.049   9.014   6.750
 7909POPC   C3A58997   5.095   8.924   7.050
 7909POPC   C4A58998   5.109   8.930   7.350
 7909POPC   C1B58999   4.976   8.771   6.450
 7909POPC   C2B59000   5.015   8.731   6.750
 7909POPC   C3B59001   5.031   8.708   7.050
 7909POPC   C4B59002   4.997   8.759   7.350
 7910POPC   NC359003  41.534  15.923   5.550
 7910POPC   PO459004  41.556  15.948   5.850
 7910POPC   GL159005  41.521  15.923   6.150
 7910POPC   GL259006  41.419  15.841   6.150
 7910POPC   C1A59007  41.596  15.981   6.450
 7910POPC   D2A59008  41.555  15.978   6.750
 7910POPC   C3A59009  41.512  15.988   7.050
 7910POPC   C4A59010  41.587  15.958   7.350
 7910POPC   C1B59011  41.366  15.794   6.450
 7910POPC   C2B59012  41.405  15.751   6.750
 7910POPC   C3B59013  41.357  15.766   7.050
 7910POPC   C4B59014  41.361  15.800   7.350
 7911POPC   NC359015   1.176  19.802   5.550
 7911POPC   PO459016   1.255  19.861   5.850
 7911POPC   GL159017   1.256  19.843   6.150
 7911POPC   GL259018   1.319  19.789   6.150
 7911POPC   C1A59019   1.233  19.871   6.450
 7911POPC   D2A59020   1.202  19.833   6.750
 7911POPC   C3A59021   1.256  19.869   7.050
 7911POPC   C4A59022   1.187  19.798   7.350
 7911POPC   C1B59023   1.497  19.751   6.450
 7911POPC   C2B59024   1.480  19.836   6.750
 7911POPC   C3B59025   1.495  19.828   7.050
 7911POPC   C4B59026   1.456  19.773   7.350
 7912POPC   NC359027  33.777   5.092   5.550
 7912POPC   PO459028  33.822   5.126   5.850
 7912POPC   GL159029  33.826   5.100   6.150
 7912POPC   GL259030  33.786   5.197   6.150
 7912POPC   C1A59031  33.803   5.106   6.450
 7912POPC   D2A59032  33.813   5.109   6.750
 7912POPC   C3A59033  33.848   5.129   7.050
 7912POPC   C4A59034  33.770   5.122   7.350
 7912POPC   C1B59035  33.764   5.390   6.450
 7912POPC   C2B59036  33.761   5.355   6.750
 7912POPC   C3B59037  33.814   5.322   7.050
 7912POPC   C4B59038  33.801   5.339   7.350
 7913POPC   NC359039   0.469   0.393   5.550
 7913POPC   PO459040   0.418   0.406   5.850
 7913POPC   GL159041   0.485   0.458   6.150
 7913POPC   GL259042   0.365   0.565   6.150
 7913POPC   C1A59043   0.449   0.485   6.450
 7913POPC   D2A59044   0.393   0.452   6.750
 7913POPC   C3A59045   0.419   0.458   7.050
 7913POPC   C4A59046   0.423   0.456   7.350
 7913POPC   C1B59047   0.302   0.624   6.450
 7913POPC   C2B59048   0.310   0.651   6.750
 7913POPC   C3B59049   0.229   0.576   7.050
 7913POPC   C4B59050   0.307   0.666   7.350
 7914POPC   NC359051  18.271  12.892   5.550
 7914POPC   PO459052  18.264  12.862   5.850
 7914POPC   GL159053  18.260  12.845   6.150
 7914POPC   GL259054  18.144  12.876   6.150
 7914POPC   C1A59055  18.267  12.831   6.450
 7914POPC   D2A59056  18.233  12.831   6.750
 7914POPC   C3A59057  18.291  12.834   7.050
 7914POPC   C4A59058  18.304  12.882   7.350
 7914POPC   C1B59059  18.035  12.891   6.450
 7914POPC   C2B59060  18.029  12.883   6.750
 7914POPC   C3B59061  18.019  12.937   7.050
 7914POPC   C4B59062  18.022  12.927   7.350
 7915POPC   NC359063  35.382  17.518   5.550
 7915POPC   PO459064  35.327  17.553   5.850
 7915POPC   GL159065  35.375  17.551   6.150
 7915POPC   GL259066  35.202  17.497   6.150
 7915POPC   C1A59067  35.388  17.536   6.450
 7915POPC   D2A59068  35.355  17.466   6.750
 7915POPC   C3A59069  35.355  17.482   7.050
 7915POPC   C4A59070  35.303  17.475   7.350
 7915POPC   C1B59071  35.143  17.452   6.450
 7915POPC   C2B59072  35.146  17.543   6.750
 7915POPC   C3B59073  35.146  17.539   7.050
 7915POPC   C4B59074  35.063  17.450   7.350
 7916POPC   NC359075  43.111   1.990   5.550
 7916POPC   PO459076  43.153   2.018   5.850
 7916POPC   GL159077  43.130   1.986   6.150
 7916POPC   GL259078  43.044   2.083   6.150
 7916POPC   C1A59079  43.115   2.022   6.450
 7916POPC   D2A59080  43.141   1.982   6.750
 7916POPC   C3A59081  43.065   1.972   7.050
 7916POPC   C4A59082  43.146   2.019   7.350
 7916POPC   C1B59083  43.011   2.231   6.450
 7916POPC   C2B59084  42.974   2.155   6.750
 7916POPC   C3B59085  42.923   2.223   7.050
 7916POPC   C4B59086  42.972   2.189   7.350
 7917POPC   NC359087  29.939  33.783   5.550
 7917POPC   PO459088  29.953  33.770   5.850
 7917POPC   GL159089  29.905  33.801   6.150
 7917POPC   GL259090  29.954  33.869   6.150
 7917POPC   C1A59091  29.957  33.804   6.450
 7917POPC   D2A59092  29.928  33.773   6.750
 7917POPC   C3A59093  29.889  33.771   7.050
 7917POPC   C4A59094  29.875  33.803   7.350
 7917POPC   C1B59095  30.050  33.976   6.450
 7917POPC   C2B59096  29.998  34.023   6.750
 7917POPC   C3B59097  30.045  34.070   7.050
 7917POPC   C4B59098  30.005  34.013   7.350
 7918POPC   NC359099  29.891  36.112   5.550
 7918POPC   PO459100  29.885  36.151   5.850
 7918POPC   GL159101  29.920  36.079   6.150
 7918POPC   GL259102  29.882  36.047   6.150
 7918POPC   C1A59103  29.910  36.122   6.450
 7918POPC   D2A59104  29.954  36.167   6.750
 7918POPC   C3A59105  29.964  36.119   7.050
 7918POPC   C4A59106  29.905  36.154   7.350
 7918POPC   C1B59107  29.868  35.854   6.450
 7918POPC   C2B59108  29.856  35.846   6.750
 7918POPC   C3B59109  29.893  35.933   7.050
 7918POPC   C4B59110  29.858  35.860   7.350
 7919POPC   NC359111  10.494  44.665   5.550
 7919POPC   PO459112  10.570  44.629   5.850
 7919POPC   GL159113  10.537  44.662   6.150
 7919POPC   GL259114  10.440  44.541   6.150
 7919POPC   C1A59115  10.486  44.696   6.450
 7919POPC   D2A59116  10.475  44.704   6.750
 7919POPC   C3A59117  10.550  44.664   7.050
 7919POPC   C4A59118  10.537  44.705   7.350
 7919POPC   C1B59119  10.443  44.445   6.450
 7919POPC   C2B59120  10.437  44.431   6.750
 7919POPC   C3B59121  10.438  44.489   7.050
 7919POPC   C4B59122  10.415  44.409   7.350
 7920POPC   NC359123   5.114  20.616   5.550
 7920POPC   PO459124   5.098  20.648   5.850
 7920POPC   GL159125   5.136  20.618   6.150
 7920POPC   GL259126   4.940  20.539   6.150
 7920POPC   C1A59127   5.090  20.619   6.450
 7920POPC   D2A59128   5.140  20.632   6.750
 7920POPC   C3A59129   5.134  20.566   7.050
 7920POPC   C4A59130   5.107  20.562   7.350
 7920POPC   C1B59131   4.914  20.503   6.450
 7920POPC   C2B59132   4.860  20.494   6.750
 7920POPC   C3B59133   4.868  20.550   7.050
 7920POPC   C4B59134   4.849  20.548   7.350
 7921POPC   NC359135  27.566  28.354   5.550
 7921POPC   PO459136  27.640  28.360   5.850
 7921POPC   GL159137  27.588  28.322   6.150
 7921POPC   GL259138  27.499  28.279   6.150
 7921POPC   C1A59139  27.586  28.342   6.450
 7921POPC   D2A59140  27.550  28.360   6.750
 7921POPC   C3A59141  27.594  28.402   7.050
 7921POPC   C4A59142  27.605  28.356   7.350
 7921POPC   C1B59143  27.345  28.211   6.450
 7921POPC   C2B59144  27.361  28.218   6.750
 7921POPC   C3B59145  27.403  28.278   7.050
 7921POPC   C4B59146  27.430  28.199   7.350
 7922POPC   NC359147  38.433  22.205   5.550
 7922POPC   PO459148  38.453  22.153   5.850
 7922POPC   GL159149  38.467  22.120   6.150
 7922POPC   GL259150  38.578  22.148   6.150
 7922POPC   C1A59151  38.498  22.165   6.450
 7922POPC   D2A59152  38.441  22.147   6.750
 7922POPC   C3A59153  38.433  22.168   7.050
 7922POPC   C4A59154  38.430  22.164   7.350
 7922POPC   C1B59155  38.743  22.234   6.450
 7922POPC   C2B59156  38.692  22.152   6.750
 7922POPC   C3B59157  38.749  22.168   7.050
 7922POPC   C4B59158  38.703  22.175   7.350
 7923POPC   NC359159  24.461   1.941   5.550
 7923POPC   PO459160  24.493   2.000   5.850
 7923POPC   GL159161  24.459   1.976   6.150
 7923POPC   GL259162  24.487   2.098   6.150
 7923POPC   C1A59163  24.494   1.976   6.450
 7923POPC   D2A59164  24.514   2.022   6.750
 7923POPC   C3A59165  24.459   1.998   7.050
 7923POPC   C4A59166  24.514   2.016   7.350
 7923POPC   C1B59167  24.544   2.255   6.450
 7923POPC   C2B59168  24.563   2.268   6.750
 7923POPC   C3B59169  24.577   2.256   7.050
 7923POPC   C4B59170  24.543   2.213   7.350
 7924POPC   NC359171  15.917  41.554   5.550
 7924POPC   PO459172  15.980  41.565   5.850
 7924POPC   GL159173  15.957  41.532   6.150
 7924POPC   GL259174  15.809  41.474   6.150
 7924POPC   C1A59175  16.003  41.535   6.450
 7924POPC   D2A59176  15.976  41.597   6.750
 7924POPC   C3A59177  16.004  41.602   7.050
 7924POPC   C4A59178  15.953  41.564   7.350
 7924POPC   C1B59179  15.711  41.406   6.450
 7924POPC   C2B59180  15.719  41.433   6.750
 7924POPC   C3B59181  15.791  41.383   7.050
 7924POPC   C4B59182  15.729  41.399   7.350
 7925POPC   NC359183  43.141   6.675   5.550
 7925POPC   PO459184  43.142   6.646   5.850
 7925POPC   GL159185  43.144   6.624   6.150
 7925POPC   GL259186  43.112   6.728   6.150
 7925POPC   C1A59187  43.121   6.624   6.450
 7925POPC   D2A59188  43.114   6.686   6.750
 7925POPC   C3A59189  43.082   6.660   7.050
 7925POPC   C4A59190  43.157   6.651   7.350
 7925POPC   C1B59191  43.079   6.848   6.450
 7925POPC   C2B59192  43.036   6.923   6.750
 7925POPC   C3B59193  42.995   6.907   7.050
 7925POPC   C4B59194  42.998   6.840   7.350
 7926POPC   NC359195  31.485   0.433   5.550
 7926POPC   PO459196  31.448   0.422   5.850
 7926POPC   GL159197  31.462   0.486   6.150
 7926POPC   GL259198  31.541   0.491   6.150
 7926POPC   C1A59199  31.440   0.479   6.450
 7926POPC   D2A59200  31.509   0.462   6.750
 7926POPC   C3A59201  31.459   0.410   7.050
 7926POPC   C4A59202  31.520   0.483   7.350
 7926POPC   C1B59203  31.647   0.633   6.450
 7926POPC   C2B59204  31.663   0.574   6.750
 7926POPC   C3B59205  31.645   0.567   7.050
 7926POPC   C4B59206  31.639   0.542   7.350
 7927POPC   NC359207  11.319  13.603   5.550
 7927POPC   PO459208  11.314  13.591   5.850
 7927POPC   GL159209  11.325  13.593   6.150
 7927POPC   GL259210  11.320  13.722   6.150
 7927POPC   C1A59211  11.290  13.591   6.450
 7927POPC   D2A59212  11.335  13.605   6.750
 7927POPC   C3A59213  11.300  13.607   7.050
 7927POPC   C4A59214  11.342  13.613   7.350
 7927POPC   C1B59215  11.259  13.890   6.450
 7927POPC   C2B59216  11.281  13.875   6.750
 7927POPC   C3B59217  11.280  13.905   7.050
 7927POPC   C4B59218  11.327  13.874   7.350
 7928POPC   NC359219   5.837   1.955   5.550
 7928POPC   PO459220   5.903   2.001   5.850
 7928POPC   GL159221   5.911   2.036   6.150
 7928POPC   GL259222   6.002   1.920   6.150
 7928POPC   C1A59223   5.852   1.971   6.450
 7928POPC   D2A59224   5.895   1.994   6.750
 7928POPC   C3A59225   5.877   1.955   7.050
 7928POPC   C4A59226   5.885   1.976   7.350
 7928POPC   C1B59227   6.023   1.808   6.450
 7928POPC   C2B59228   6.033   1.824   6.750
 7928POPC   C3B59229   6.102   1.813   7.050
 7928POPC   C4B59230   6.018   1.863   7.350
 7929POPC   NC359231   3.572  16.752   5.550
 7929POPC   PO459232   3.559  16.731   5.850
 7929POPC   GL159233   3.585  16.695   6.150
 7929POPC   GL259234   3.678  16.756   6.150
 7929POPC   C1A59235   3.514  16.723   6.450
 7929POPC   D2A59236   3.520  16.703   6.750
 7929POPC   C3A59237   3.507  16.765   7.050
 7929POPC   C4A59238   3.546  16.718   7.350
 7929POPC   C1B59239   3.748  16.886   6.450
 7929POPC   C2B59240   3.747  16.876   6.750
 7929POPC   C3B59241   3.731  16.829   7.050
 7929POPC   C4B59242   3.710  16.845   7.350
 7930POPC   NC359243  14.368   9.717   5.550
 7930POPC   PO459244  14.443   9.751   5.850
 7930POPC   GL159245  14.373   9.793   6.150
 7930POPC   GL259246  14.289   9.870   6.150
 7930POPC   C1A59247  14.372   9.734   6.450
 7930POPC   D2A59248  14.391   9.794   6.750
 7930POPC   C3A59249  14.444   9.755   7.050
 7930POPC   C4A59250  14.452   9.734   7.350
 7930POPC   C1B59251  14.236   9.994   6.450
 7930POPC   C2B59252  14.269   9.948   6.750
 7930POPC   C3B59253  14.238   9.950   7.050
 7930POPC   C4B59254  14.255   9.896   7.350
 7931POPC   NC359255  12.076  39.265   5.550
 7931POPC   PO459256  12.028  39.280   5.850
 7931POPC   GL159257  12.054  39.192   6.150
 7931POPC   GL259258  12.163  39.094   6.150
 7931POPC   C1A59259  12.053  39.234   6.450
 7931POPC   D2A59260  12.084  39.209   6.750
 7931POPC   C3A59261  12.056  39.206   7.050
 7931POPC   C4A59262  12.081  39.214   7.350
 7931POPC   C1B59263  12.304  39.058   6.450
 7931POPC   C2B59264  12.258  39.073   6.750
 7931POPC   C3B59265  12.215  39.050   7.050
 7931POPC   C4B59266  12.262  39.074   7.350
 7932POPC   NC359267  18.301   1.181   5.550
 7932POPC   PO459268  18.253   1.200   5.850
 7932POPC   GL159269  18.307   1.248   6.150
 7932POPC   GL259270  18.216   1.142   6.150
 7932POPC   C1A59271  18.267   1.244   6.450
 7932POPC   D2A59272  18.261   1.252   6.750
 7932POPC   C3A59273  18.273   1.165   7.050
 7932POPC   C4A59274  18.260   1.233   7.350
 7932POPC   C1B59275  18.045   1.045   6.450
 7932POPC   C2B59276  18.126   1.049   6.750
 7932POPC   C3B59277  18.127   1.014   7.050
 7932POPC   C4B59278  18.096   1.100   7.350
 7933POPC   NC359279  15.909  26.863   5.550
 7933POPC   PO459280  15.981  26.851   5.850
 7933POPC   GL159281  15.938  26.839   6.150
 7933POPC   GL259282  16.020  26.699   6.150
 7933POPC   C1A59283  16.000  26.782   6.450
 7933POPC   D2A59284  16.001  26.785   6.750
 7933POPC   C3A59285  15.921  26.830   7.050
 7933POPC   C4A59286  15.998  26.788   7.350
 7933POPC   C1B59287  16.176  26.658   6.450
 7933POPC   C2B59288  16.118  26.647   6.750
 7933POPC   C3B59289  16.186  26.638   7.050
 7933POPC   C4B59290  16.164  26.623   7.350
 7934POPC   NC359291  33.062  27.562   5.550
 7934POPC   PO459292  33.001  27.570   5.850
 7934POPC   GL159293  32.987  27.621   6.150
 7934POPC   GL259294  32.939  27.661   6.150
 7934POPC   C1A59295  33.042  27.639   6.450
 7934POPC   D2A59296  33.011  27.561   6.750
 7934POPC   C3A59297  32.986  27.598   7.050
 7934POPC   C4A59298  32.989  27.599   7.350
 7934POPC   C1B59299  32.893  27.803   6.450
 7934POPC   C2B59300  32.930  27.837   6.750
 7934POPC   C3B59301  32.875  27.798   7.050
 7934POPC   C4B59302  32.871  27.770   7.350
 7935POPC   NC359303  37.677   8.970   5.550
 7935POPC   PO459304  37.671   8.972   5.850
 7935POPC   GL159305  37.713   8.926   6.150
 7935POPC   GL259306  37.685   9.055   6.150
 7935POPC   C1A59307  37.728   8.995   6.450
 7935POPC   D2A59308  37.712   8.956   6.750
 7935POPC   C3A59309  37.692   8.958   7.050
 7935POPC   C4A59310  37.714   9.022   7.350
 7935POPC   C1B59311  37.708   9.223   6.450
 7935POPC   C2B59312  37.734   9.259   6.750
 7935POPC   C3B59313  37.785   9.180   7.050
 7935POPC   C4B59314  37.775   9.247   7.350
 7936POPC   NC359315   1.251  26.857   5.550
 7936POPC   PO459316   1.192  26.821   5.850
 7936POPC   GL159317   1.248  26.773   6.150
 7936POPC   GL259318   1.327  26.829   6.150
 7936POPC   C1A59319   1.225  26.858   6.450
 7936POPC   D2A59320   1.208  26.791   6.750
 7936POPC   C3A59321   1.241  26.834   7.050
 7936POPC   C4A59322   1.205  26.803   7.350
 7936POPC   C1B59323   1.496  26.740   6.450
 7936POPC   C2B59324   1.507  26.799   6.750
 7936POPC   C3B59325   1.427  26.788   7.050
 7936POPC   C4B59326   1.427  26.795   7.350
 7937POPC   NC359327  39.186   8.941   5.550
 7937POPC   PO459328  39.246   8.951   5.850
 7937POPC   GL159329  39.195   8.986   6.150
 7937POPC   GL259330  39.341   8.897   6.150
 7937POPC   C1A59331  39.181   8.939   6.450
 7937POPC   D2A59332  39.243   8.925   6.750
 7937POPC   C3A59333  39.246   8.962   7.050
 7937POPC   C4A59334  39.262   8.967   7.350
 7937POPC   C1B59335  39.411   8.767   6.450
 7937POPC   C2B59336  39.330   8.799   6.750
 7937POPC   C3B59337  39.366   8.722   7.050
 7937POPC   C4B59338  39.369   8.754   7.350
 7938POPC   NC359339   4.363  44.704   5.550
 7938POPC   PO459340   4.319  44.665   5.850
 7938POPC   GL159341   4.330  44.647   6.150
 7938POPC   GL259342   4.199  44.596   6.150
 7938POPC   C1A59343   4.367  44.678   6.450
 7938POPC   D2A59344   4.327  44.696   6.750
 7938POPC   C3A59345   4.276  44.672   7.050
 7938POPC   C4A59346   4.310  44.690   7.350
 7938POPC   C1B59347   4.062  44.514   6.450
 7938POPC   C2B59348   4.133  44.540   6.750
 7938POPC   C3B59349   4.067  44.518   7.050
 7938POPC   C4B59350   4.067  44.508   7.350
 7939POPC   NC359351  41.563  36.127   5.550
 7939POPC   PO459352  41.555  36.148   5.850
 7939POPC   GL159353  41.588  36.162   6.150
 7939POPC   GL259354  41.664  36.030   6.150
 7939POPC   C1A59355  41.591  36.128   6.450
 7939POPC   D2A59356  41.602  36.159   6.750
 7939POPC   C3A59357  41.601  36.124   7.050
 7939POPC   C4A59358  41.560  36.147   7.350
 7939POPC   C1B59359  41.756  36.000   6.450
 7939POPC   C2B59360  41.708  35.920   6.750
 7939POPC   C3B59361  41.717  35.956   7.050
 7939POPC   C4B59362  41.794  36.012   7.350
 7940POPC   NC359363  19.876  13.653   5.550
 7940POPC   PO459364  19.873  13.649   5.850
 7940POPC   GL159365  19.803  13.607   6.150
 7940POPC   GL259366  19.739  13.636   6.150
 7940POPC   C1A59367  19.864  13.616   6.450
 7940POPC   D2A59368  19.807  13.648   6.750
 7940POPC   C3A59369  19.790  13.661   7.050
 7940POPC   C4A59370  19.837  13.578   7.350
 7940POPC   C1B59371  19.579  13.551   6.450
 7940POPC   C2B59372  19.565  13.585   6.750
 7940POPC   C3B59373  19.559  13.600   7.050
 7940POPC   C4B59374  19.630  13.597   7.350
 7941POPC   NC359375  32.287  19.812   5.550
 7941POPC   PO459376  32.290  19.809   5.850
 7941POPC   GL159377  32.251  19.853   6.150
 7941POPC   GL259378  32.316  19.758   6.150
 7941POPC   C1A59379  32.284  19.803   6.450
 7941POPC   D2A59380  32.296  19.821   6.750
 7941POPC   C3A59381  32.278  19.792   7.050
 7941POPC   C4A59382  32.251  19.801   7.350
 7941POPC   C1B59383  32.290  19.595   6.450
 7941POPC   C2B59384  32.239  19.592   6.750
 7941POPC   C3B59385  32.296  19.615   7.050
 7941POPC   C4B59386  32.308  19.611   7.350
 7942POPC   NC359387  29.120  20.624   5.550
 7942POPC   PO459388  29.100  20.585   5.850
 7942POPC   GL159389  29.166  20.590   6.150
 7942POPC   GL259390  29.139  20.447   6.150
 7942POPC   C1A59391  29.116  20.653   6.450
 7942POPC   D2A59392  29.173  20.610   6.750
 7942POPC   C3A59393  29.151  20.584   7.050
 7942POPC   C4A59394  29.179  20.590   7.350
 7942POPC   C1B59395  29.132  20.328   6.450
 7942POPC   C2B59396  29.121  20.408   6.750
 7942POPC   C3B59397  29.131  20.353   7.050
 7942POPC   C4B59398  29.047  20.361   7.350
 7943POPC   NC359399  44.621  29.879   5.550
 7943POPC   PO459400  44.669  29.942   5.850
 7943POPC   GL159401  44.668  29.938   6.150
 7943POPC   GL259402  44.666  30.075   6.150
 7943POPC   C1A59403  44.644  29.952   6.450
 7943POPC   D2A59404  44.656  29.873   6.750
 7943POPC   C3A59405  44.631  29.970   7.050
 7943POPC   C4A59406  44.635  29.875   7.350
 7943POPC   C1B59407  44.679  30.170   6.450
 7943POPC   C2B59408  44.624  30.124   6.750
 7943POPC   C3B59409  44.627  30.138   7.050
 7943POPC   C4B59410  44.691  30.172   7.350
 7944POPC   NC359411  37.678  23.675   5.550
 7944POPC   PO459412  37.639  23.703   5.850
 7944POPC   GL159413  37.688  23.747   6.150
 7944POPC   GL259414  37.713  23.628   6.150
 7944POPC   C1A59415  37.690  23.710   6.450
 7944POPC   D2A59416  37.630  23.682   6.750
 7944POPC   C3A59417  37.697  23.697   7.050
 7944POPC   C4A59418  37.674  23.682   7.350
 7944POPC   C1B59419  37.794  23.468   6.450
 7944POPC   C2B59420  37.833  23.534   6.750
 7944POPC   C3B59421  37.810  23.476   7.050
 7944POPC   C4B59422  37.853  23.463   7.350
 7945POPC   NC359423  16.734  32.292   5.550
 7945POPC   PO459424  16.686  32.272   5.850
 7945POPC   GL159425  16.704  32.267   6.150
 7945POPC   GL259426  16.705  32.339   6.150
 7945POPC   C1A59427  16.763  32.264   6.450
 7945POPC   D2A59428  16.746  32.231   6.750
 7945POPC   C3A59429  16.690  32.270   7.050
 7945POPC   C4A59430  16.776  32.237   7.350
 7945POPC   C1B59431  16.719  32.504   6.450
 7945POPC   C2B59432  16.683  32.531   6.750
 7945POPC   C3B59433  16.646  32.457   7.050
 7945POPC   C4B59434  16.636  32.508   7.350
 7946POPC   NC359435  17.540  29.150   5.550
 7946POPC   PO459436  17.528  29.143   5.850
 7946POPC   GL159437  17.525  29.170   6.150
 7946POPC   GL259438  17.430  29.233   6.150
 7946POPC   C1A59439  17.458  29.137   6.450
 7946POPC   D2A59440  17.540  29.114   6.750
 7946POPC   C3A59441  17.510  29.173   7.050
 7946POPC   C4A59442  17.528  29.187   7.350
 7946POPC   C1B59443  17.389  29.384   6.450
 7946POPC   C2B59444  17.386  29.330   6.750
 7946POPC   C3B59445  17.374  29.400   7.050
 7946POPC   C4B59446  17.439  29.365   7.350
 7947POPC   NC359447  42.294  36.154   5.550
 7947POPC   PO459448  42.303  36.134   5.850
 7947POPC   GL159449  42.297  36.089   6.150
 7947POPC   GL259450  42.350  36.244   6.150
 7947POPC   C1A59451  42.347  36.098   6.450
 7947POPC   D2A59452  42.383  36.123   6.750
 7947POPC   C3A59453  42.382  36.102   7.050
 7947POPC   C4A59454  42.375  36.136   7.350
 7947POPC   C1B59455  42.455  36.335   6.450
 7947POPC   C2B59456  42.461  36.393   6.750
 7947POPC   C3B59457  42.424  36.391   7.050
 7947POPC   C4B59458  42.406  36.401   7.350
 7948POPC   NC359459  30.714  22.122   5.550
 7948POPC   PO459460  30.707  22.134   5.850
 7948POPC   GL159461  30.726  22.134   6.150
 7948POPC   GL259462  30.619  22.102   6.150
 7948POPC   C1A59463  30.730  22.120   6.450
 7948POPC   D2A59464  30.685  22.119   6.750
 7948POPC   C3A59465  30.687  22.127   7.050
 7948POPC   C4A59466  30.685  22.128   7.350
 7948POPC   C1B59467  30.541  21.965   6.450
 7948POPC   C2B59468  30.529  21.903   6.750
 7948POPC   C3B59469  30.580  21.936   7.050
 7948POPC   C4B59470  30.571  21.901   7.350
 7949POPC   NC359471  16.723   9.736   5.550
 7949POPC   PO459472  16.778   9.789   5.850
 7949POPC   GL159473  16.736   9.705   6.150
 7949POPC   GL259474  16.675   9.862   6.150
 7949POPC   C1A59475  16.772   9.726   6.450
 7949POPC   D2A59476  16.692   9.727   6.750
 7949POPC   C3A59477  16.770   9.755   7.050
 7949POPC   C4A59478  16.772   9.778   7.350
 7949POPC   C1B59479  16.588   9.962   6.450
 7949POPC   C2B59480  16.645   9.997   6.750
 7949POPC   C3B59481  16.631   9.983   7.050
 7949POPC   C4B59482  16.598   9.967   7.350
 7950POPC   NC359483  31.493   8.177   5.550
 7950POPC   PO459484  31.450   8.237   5.850
 7950POPC   GL159485  31.443   8.229   6.150
 7950POPC   GL259486  31.480   8.303   6.150
 7950POPC   C1A59487  31.517   8.211   6.450
 7950POPC   D2A59488  31.468   8.232   6.750
 7950POPC   C3A59489  31.464   8.173   7.050
 7950POPC   C4A59490  31.500   8.224   7.350
 7950POPC   C1B59491  31.614   8.387   6.450
 7950POPC   C2B59492  31.549   8.387   6.750
 7950POPC   C3B59493  31.526   8.440   7.050
 7950POPC   C4B59494  31.564   8.448   7.350
 7951POPC   NC359495  43.090  27.625   5.550
 7951POPC   PO459496  43.072  27.561   5.850
 7951POPC   GL159497  43.117  27.612   6.150
 7951POPC   GL259498  43.244  27.632   6.150
 7951POPC   C1A59499  43.064  27.634   6.450
 7951POPC   D2A59500  43.114  27.583   6.750
 7951POPC   C3A59501  43.132  27.565   7.050
 7951POPC   C4A59502  43.094  27.614   7.350
 7951POPC   C1B59503  43.287  27.686   6.450
 7951POPC   C2B59504  43.359  27.712   6.750
 7951POPC   C3B59505  43.290  27.760   7.050
 7951POPC   C4B59506  43.296  27.726   7.350
 7952POPC   NC359507  43.900   4.287   5.550
 7952POPC   PO459508  43.897   4.285   5.850
 7952POPC   GL159509  43.880   4.349   6.150
 7952POPC   GL259510  43.791   4.387   6.150
 7952POPC   C1A59511  43.858   4.333   6.450
 7952POPC   D2A59512  43.902   4.352   6.750
 7952POPC   C3A59513  43.870   4.361   7.050
 7952POPC   C4A59514  43.901   4.360   7.350
 7952POPC   C1B59515  43.678   4.365   6.450
 7952POPC   C2B59516  43.611   4.451   6.750
 7952POPC   C3B59517  43.662   4.357   7.050
 7952POPC   C4B59518  43.648   4.372   7.350
 7953POPC   NC359519  42.355  11.275   5.550
 7953POPC   PO459520  42.305  11.285   5.850
 7953POPC   GL159521  42.326  11.275   6.150
 7953POPC   GL259522  42.220  11.262   6.150
 7953POPC   C1A59523  42.375  11.266   6.450
 7953POPC   D2A59524  42.359  11.251   6.750
 7953POPC   C3A59525  42.348  11.263   7.050
 7953POPC   C4A59526  42.346  11.330   7.350
 7953POPC   C1B59527  42.126  11.181   6.450
 7953POPC   C2B59528  42.150  11.218   6.750
 7953POPC   C3B59529  42.079  11.194   7.050
 7953POPC   C4B59530  42.118  11.224   7.350
 7954POPC   NC359531  22.129  30.716   5.550
 7954POPC   PO459532  22.194  30.727   5.850
 7954POPC   GL159533  22.147  30.709   6.150
 7954POPC   GL259534  22.291  30.651   6.150
 7954POPC   C1A59535  22.147  30.667   6.450
 7954POPC   D2A59536  22.133  30.684   6.750
 7954POPC   C3A59537  22.174  30.729   7.050
 7954POPC   C4A59538  22.134  30.690   7.350
 7954POPC   C1B59539  22.427  30.671   6.450
 7954POPC   C2B59540  22.395  30.646   6.750
 7954POPC   C3B59541  22.354  30.613   7.050
 7954POPC   C4B59542  22.419  30.661   7.350
 7955POPC   NC359543  17.550  26.779   5.550
 7955POPC   PO459544  17.458  26.852   5.850
 7955POPC   GL159545  17.511  26.864   6.150
 7955POPC   GL259546  17.560  26.920   6.150
 7955POPC   C1A59547  17.476  26.842   6.450
 7955POPC   D2A59548  17.511  26.784   6.750
 7955POPC   C3A59549  17.470  26.861   7.050
 7955POPC   C4A59550  17.484  26.827   7.350
 7955POPC   C1B59551  17.662  26.957   6.450
 7955POPC   C2B59552  17.713  27.037   6.750
 7955POPC   C3B59553  17.666  27.009   7.050
 7955POPC   C4B59554  17.725  27.018   7.350
 7956POPC   NC359555  39.268   9.759   5.550
 7956POPC   PO459556  39.190   9.788   5.850
 7956POPC   GL159557  39.185   9.705   6.150
 7956POPC   GL259558  39.248   9.594   6.150
 7956POPC   C1A59559  39.242   9.746   6.450
 7956POPC   D2A59560  39.210   9.723   6.750
 7956POPC   C3A59561  39.240   9.761   7.050
 7956POPC   C4A59562  39.222   9.699   7.350
 7956POPC   C1B59563  39.252   9.480   6.450
 7956POPC   C2B59564  39.276   9.540   6.750
 7956POPC   C3B59565  39.287   9.470   7.050
 7956POPC   C4B59566  39.269   9.550   7.350
 7957POPC   NC359567  33.057  26.827   5.550
 7957POPC   PO459568  33.048  26.773   5.850
 7957POPC   GL159569  33.010  26.821   6.150
 7957POPC   GL259570  33.173  26.843   6.150
 7957POPC   C1A59571  33.072  26.828   6.450
 7957POPC   D2A59572  33.034  26.808   6.750
 7957POPC   C3A59573  33.013  26.773   7.050
 7957POPC   C4A59574  33.027  26.844   7.350
 7957POPC   C1B59575  33.280  26.950   6.450
 7957POPC   C2B59576  33.203  26.986   6.750
 7957POPC   C3B59577  33.201  26.950   7.050
 7957POPC   C4B59578  33.209  26.934   7.350
 7958POPC   NC359579  17.472  14.389   5.550
 7958POPC   PO459580  17.467  14.377   5.850
 7958POPC   GL159581  17.518  14.430   6.150
 7958POPC   GL259582  17.445  14.264   6.150
 7958POPC   C1A59583  17.471  14.427   6.450
 7958POPC   D2A59584  17.465  14.452   6.750
 7958POPC   C3A59585  17.520  14.393   7.050
 7958POPC   C4A59586  17.466  14.441   7.350
 7958POPC   C1B59587  17.452  14.203   6.450
 7958POPC   C2B59588  17.472  14.192   6.750
 7958POPC   C3B59589  17.413  14.208   7.050
 7958POPC   C4B59590  17.402  14.203   7.350
 7959POPC   NC359591  29.147   6.665   5.550
 7959POPC   PO459592  29.098   6.652   5.850
 7959POPC   GL159593  29.133   6.671   6.150
 7959POPC   GL259594  29.026   6.760   6.150
 7959POPC   C1A59595  29.144   6.664   6.450
 7959POPC   D2A59596  29.134   6.693   6.750
 7959POPC   C3A59597  29.148   6.655   7.050
 7959POPC   C4A59598  29.097   6.663   7.350
 7959POPC   C1B59599  28.924   6.806   6.450
 7959POPC   C2B59600  28.970   6.850   6.750
 7959POPC   C3B59601  28.972   6.793   7.050
 7959POPC   C4B59602  28.981   6.840   7.350
 7960POPC   NC359603  40.741  19.020   5.550
 7960POPC   PO459604  40.759  19.021   5.850
 7960POPC   GL159605  40.744  19.060   6.150
 7960POPC   GL259606  40.849  19.124   6.150
 7960POPC   C1A59607  40.825  19.086   6.450
 7960POPC   D2A59608  40.741  19.095   6.750
 7960POPC   C3A59609  40.790  19.066   7.050
 7960POPC   C4A59610  40.828  19.028   7.350
 7960POPC   C1B59611  40.961  19.174   6.450
 7960POPC   C2B59612  40.998  19.184   6.750
 7960POPC   C3B59613  40.960  19.197   7.050
 7960POPC   C4B59614  40.981  19.198   7.350
 7961POPC   NC359615  22.142   5.832   5.550
 7961POPC   PO459616  22.159   5.829   5.850
 7961POPC   GL159617  22.190   5.877   6.150
 7961POPC   GL259618  22.049   5.889   6.150
 7961POPC   C1A59619  22.201   5.887   6.450
 7961POPC   D2A59620  22.210   5.904   6.750
 7961POPC   C3A59621  22.199   5.916   7.050
 7961POPC   C4A59622  22.149   5.822   7.350
 7961POPC   C1B59623  21.894   5.794   6.450
 7961POPC   C2B59624  21.953   5.862   6.750
 7961POPC   C3B59625  21.923   5.867   7.050
 7961POPC   C4B59626  21.874   5.800   7.350
 7962POPC   NC359627  22.142   0.408   5.550
 7962POPC   PO459628  22.152   0.438   5.850
 7962POPC   GL159629  22.210   0.405   6.150
 7962POPC   GL259630  22.143   0.554   6.150
 7962POPC   C1A59631  22.194   0.394   6.450
 7962POPC   D2A59632  22.143   0.410   6.750
 7962POPC   C3A59633  22.141   0.397   7.050
 7962POPC   C4A59634  22.167   0.435   7.350
 7962POPC   C1B59635  22.070   0.682   6.450
 7962POPC   C2B59636  22.049   0.646   6.750
 7962POPC   C3B59637  22.004   0.615   7.050
 7962POPC   C4B59638  22.063   0.610   7.350
 7963POPC   NC359639  15.994   6.689   5.550
 7963POPC   PO459640  15.956   6.639   5.850
 7963POPC   GL159641  15.952   6.659   6.150
 7963POPC   GL259642  16.035   6.734   6.150
 7963POPC   C1A59643  15.986   6.630   6.450
 7963POPC   D2A59644  15.968   6.686   6.750
 7963POPC   C3A59645  15.933   6.608   7.050
 7963POPC   C4A59646  15.929   6.614   7.350
 7963POPC   C1B59647  16.061   6.874   6.450
 7963POPC   C2B59648  16.055   6.915   6.750
 7963POPC   C3B59649  16.108   6.907   7.050
 7963POPC   C4B59650  16.021   6.852   7.350
 7964POPC   NC359651  12.868  12.034   5.550
 7964POPC   PO459652  12.837  12.122   5.850
 7964POPC   GL159653  12.846  12.053   6.150
 7964POPC   GL259654  12.999  12.140   6.150
 7964POPC   C1A59655  12.898  12.120   6.450
 7964POPC   D2A59656  12.809  12.081   6.750
 7964POPC   C3A59657  12.833  12.044   7.050
 7964POPC   C4A59658  12.866  12.095   7.350
 7964POPC   C1B59659  13.059  12.162   6.450
 7964POPC   C2B59660  13.109  12.178   6.750
 7964POPC   C3B59661  13.048  12.241   7.050
 7964POPC   C4B59662  13.069  12.217   7.350
 7965POPC   NC359663   2.785  33.065   5.550
 7965POPC   PO459664   2.806  32.994   5.850
 7965POPC   GL159665   2.755  33.002   6.150
 7965POPC   GL259666   2.698  32.937   6.150
 7965POPC   C1A59667   2.756  32.980   6.450
 7965POPC   D2A59668   2.783  33.039   6.750
 7965POPC   C3A59669   2.728  32.992   7.050
 7965POPC   C4A59670   2.727  33.006   7.350
 7965POPC   C1B59671   2.514  32.890   6.450
 7965POPC   C2B59672   2.563  32.880   6.750
 7965POPC   C3B59673   2.512  32.907   7.050
 7965POPC   C4B59674   2.524  32.924   7.350
 7966POPC   NC359675  41.593  27.566   5.550
 7966POPC   PO459676  41.594  27.600   5.850
 7966POPC   GL159677  41.597  27.584   6.150
 7966POPC   GL259678  41.433  27.543   6.150
 7966POPC   C1A59679  41.582  27.587   6.450
 7966POPC   D2A59680  41.512  27.579   6.750
 7966POPC   C3A59681  41.593  27.629   7.050
 7966POPC   C4A59682  41.528  27.554   7.350
 7966POPC   C1B59683  41.379  27.433   6.450
 7966POPC   C2B59684  41.379  27.434   6.750
 7966POPC   C3B59685  41.345  27.505   7.050
 7966POPC   C4B59686  41.315  27.458   7.350
 7967POPC   NC359687   8.161  11.309   5.550
 7967POPC   PO459688   8.205  11.345   5.850
 7967POPC   GL159689   8.237  11.253   6.150
 7967POPC   GL259690   8.275  11.180   6.150
 7967POPC   C1A59691   8.220  11.269   6.450
 7967POPC   D2A59692   8.162  11.298   6.750
 7967POPC   C3A59693   8.233  11.255   7.050
 7967POPC   C4A59694   8.219  11.263   7.350
 7967POPC   C1B59695   8.443  11.204   6.450
 7967POPC   C2B59696   8.414  11.130   6.750
 7967POPC   C3B59697   8.435  11.150   7.050
 7967POPC   C4B59698   8.356  11.200   7.350
 7968POPC   NC359699   2.008  40.035   5.550
 7968POPC   PO459700   2.020  39.997   5.850
 7968POPC   GL159701   1.972  39.995   6.150
 7968POPC   GL259702   1.860  39.981   6.150
 7968POPC   C1A59703   1.983  39.966   6.450
 7968POPC   D2A59704   2.015  40.052   6.750
 7968POPC   C3A59705   1.993  40.017   7.050
 7968POPC   C4A59706   2.015  40.025   7.350
 7968POPC   C1B59707   1.757  39.903   6.450
 7968POPC   C2B59708   1.738  39.864   6.750
 7968POPC   C3B59709   1.805  39.875   7.050
 7968POPC   C4B59710   1.711  39.878   7.350
 7969POPC   NC359711  18.238  15.137   5.550
 7969POPC   PO459712  18.320  15.145   5.850
 7969POPC   GL159713  18.265  15.191   6.150
 7969POPC   GL259714  18.255  15.094   6.150
 7969POPC   C1A59715  18.319  15.203   6.450
 7969POPC   D2A59716  18.236  15.222   6.750
 7969POPC   C3A59717  18.256  15.147   7.050
 7969POPC   C4A59718  18.259  15.205   7.350
 7969POPC   C1B59719  18.254  14.949   6.450
 7969POPC   C2B59720  18.305  14.965   6.750
 7969POPC   C3B59721  18.220  14.923   7.050
 7969POPC   C4B59722  18.284  14.922   7.350
 7970POPC   NC359723  29.116   5.134   5.550
 7970POPC   PO459724  29.183   5.074   5.850
 7970POPC   GL159725  29.114   5.125   6.150
 7970POPC   GL259726  29.058   5.029   6.150
 7970POPC   C1A59727  29.104   5.116   6.450
 7970POPC   D2A59728  29.112   5.085   6.750
 7970POPC   C3A59729  29.140   5.090   7.050
 7970POPC   C4A59730  29.158   5.043   7.350
 7970POPC   C1B59731  28.985   4.947   6.450
 7970POPC   C2B59732  28.942   4.927   6.750
 7970POPC   C3B59733  28.924   4.873   7.050
 7970POPC   C4B59734  28.941   4.934   7.350
 7971POPC   NC359735   7.378   3.564   5.550
 7971POPC   PO459736   7.422   3.585   5.850
 7971POPC   GL159737   7.432   3.545   6.150
 7971POPC   GL259738   7.311   3.478   6.150
 7971POPC   C1A59739   7.466   3.545   6.450
 7971POPC   D2A59740   7.432   3.566   6.750
 7971POPC   C3A59741   7.445   3.494   7.050
 7971POPC   C4A59742   7.441   3.531   7.350
 7971POPC   C1B59743   7.194   3.340   6.450
 7971POPC   C2B59744   7.225   3.367   6.750
 7971POPC   C3B59745   7.276   3.349   7.050
 7971POPC   C4B59746   7.201   3.387   7.350
 7972POPC   NC359747   1.225  40.015   5.550
 7972POPC   PO459748   1.194  39.990   5.850
 7972POPC   GL159749   1.181  39.978   6.150
 7972POPC   GL259750   1.192  39.926   6.150
 7972POPC   C1A59751   1.173  40.002   6.450
 7972POPC   D2A59752   1.232  39.999   6.750
 7972POPC   C3A59753   1.232  40.013   7.050
 7972POPC   C4A59754   1.229  39.991   7.350
 7972POPC   C1B59755   1.110  39.787   6.450
 7972POPC   C2B59756   1.111  39.766   6.750
 7972POPC   C3B59757   1.146  39.790   7.050
 7972POPC   C4B59758   1.143  39.736   7.350
 7973POPC   NC359759  38.424  14.438   5.550
 7973POPC   PO459760  38.407  14.400   5.850
 7973POPC   GL159761  38.424  14.408   6.150
 7973POPC   GL259762  38.531  14.491   6.150
 7973POPC   C1A59763  38.417  14.372   6.450
 7973POPC   D2A59764  38.459  14.437   6.750
 7973POPC   C3A59765  38.474  14.401   7.050
 7973POPC   C4A59766  38.427  14.370   7.350
 7973POPC   C1B59767  38.648  14.580   6.450
 7973POPC   C2B59768  38.663  14.573   6.750
 7973POPC   C3B59769  38.640  14.551   7.050
 7973POPC   C4B59770  38.666  14.520   7.350
 7974POPC   NC359771   7.451  44.684   5.550
 7974POPC   PO459772   7.453  44.653   5.850
 7974POPC   GL159773   7.380  44.691   6.150
 7974POPC   GL259774   7.418  44.772   6.150
 7974POPC   C1A59775   7.377  44.617   6.450
 7974POPC   D2A59776   7.431  44.675   6.750
 7974POPC   C3A59777   7.458  44.706   7.050
 7974POPC   C4A59778   7.466  44.700   7.350
 7974POPC   C1B59779   7.404  44.901   6.450
 7974POPC   C2B59780   7.416  44.888   6.750
 7974POPC   C3B59781   7.408  44.872   7.050
 7974POPC   C4B59782   7.445  44.957   7.350
 7975POPC   NC359783   6.658  29.121   5.550
 7975POPC   PO459784   6.628  29.185   5.850
 7975POPC   GL159785   6.644  29.139   6.150
 7975POPC   GL259786   6.726  29.137   6.150
 7975POPC   C1A59787   6.642  29.105   6.450
 7975POPC   D2A59788   6.609  29.148   6.750
 7975POPC   C3A59789   6.686  29.107   7.050
 7975POPC   C4A59790   6.690  29.099   7.350
 7975POPC   C1B59791   6.898  29.005   6.450
 7975POPC   C2B59792   6.915  29.034   6.750
 7975POPC   C3B59793   6.870  29.076   7.050
 7975POPC   C4B59794   6.836  29.050   7.350
 7976POPC   NC359795  17.476  27.628   5.550
 7976POPC   PO459796  17.556  27.587   5.850
 7976POPC   GL159797  17.525  27.641   6.150
 7976POPC   GL259798  17.664  27.630   6.150
 7976POPC   C1A59799  17.503  27.600   6.450
 7976POPC   D2A59800  17.527  27.639   6.750
 7976POPC   C3A59801  17.500  27.617   7.050
 7976POPC   C4A59802  17.479  27.638   7.350
 7976POPC   C1B59803  17.735  27.618   6.450
 7976POPC   C2B59804  17.764  27.629   6.750
 7976POPC   C3B59805  17.789  27.702   7.050
 7976POPC   C4B59806  17.768  27.676   7.350
 7977POPC   NC359807  41.592  25.277   5.550
 7977POPC   PO459808  41.597  25.255   5.850
 7977POPC   GL159809  41.580  25.250   6.150
 7977POPC   GL259810  41.467  25.339   6.150
 7977POPC   C1A59811  41.559  25.242   6.450
 7977POPC   D2A59812  41.590  25.241   6.750
 7977POPC   C3A59813  41.532  25.253   7.050
 7977POPC   C4A59814  41.548  25.274   7.350
 7977POPC   C1B59815  41.405  25.466   6.450
 7977POPC   C2B59816  41.388  25.407   6.750
 7977POPC   C3B59817  41.351  25.453   7.050
 7977POPC   C4B59818  41.354  25.503   7.350
 7978POPC   NC359819  28.399  38.433   5.550
 7978POPC   PO459820  28.418  38.413   5.850
 7978POPC   GL159821  28.396  38.422   6.150
 7978POPC   GL259822  28.460  38.513   6.150
 7978POPC   C1A59823  28.323  38.432   6.450
 7978POPC   D2A59824  28.403  38.464   6.750
 7978POPC   C3A59825  28.409  38.469   7.050
 7978POPC   C4A59826  28.319  38.406   7.350
 7978POPC   C1B59827  28.562  38.600   6.450
 7978POPC   C2B59828  28.589  38.637   6.750
 7978POPC   C3B59829  28.512  38.593   7.050
 7978POPC   C4B59830  28.532  38.675   7.350
 7979POPC   NC359831  21.392  28.330   5.550
 7979POPC   PO459832  21.375  28.403   5.850
 7979POPC   GL159833  21.409  28.410   6.150
 7979POPC   GL259834  21.284  28.514   6.150
 7979POPC   C1A59835  21.340  28.355   6.450
 7979POPC   D2A59836  21.381  28.333   6.750
 7979POPC   C3A59837  21.350  28.368   7.050
 7979POPC   C4A59838  21.367  28.406   7.350
 7979POPC   C1B59839  21.224  28.532   6.450
 7979POPC   C2B59840  21.243  28.520   6.750
 7979POPC   C3B59841  21.209  28.522   7.050
 7979POPC   C4B59842  21.256  28.531   7.350
 7980POPC   NC359843  39.245  24.473   5.550
 7980POPC   PO459844  39.206  24.511   5.850
 7980POPC   GL159845  39.220  24.448   6.150
 7980POPC   GL259846  39.067  24.571   6.150
 7980POPC   C1A59847  39.266  24.529   6.450
 7980POPC   D2A59848  39.200  24.465   6.750
 7980POPC   C3A59849  39.181  24.484   7.050
 7980POPC   C4A59850  39.276  24.505   7.350
 7980POPC   C1B59851  38.988  24.614   6.450
 7980POPC   C2B59852  38.966  24.612   6.750
 7980POPC   C3B59853  38.945  24.570   7.050
 7980POPC   C4B59854  38.995  24.615   7.350
 7981POPC   NC359855  26.045   7.398   5.550
 7981POPC   PO459856  26.028   7.444   5.850
 7981POPC   GL159857  26.008   7.460   6.150
 7981POPC   GL259858  26.138   7.562   6.150
 7981POPC   C1A59859  26.053   7.395   6.450
 7981POPC   D2A59860  26.044   7.382   6.750
 7981POPC   C3A59861  25.996   7.470   7.050
 7981POPC   C4A59862  26.013   7.445   7.350
 7981POPC   C1B59863  26.201   7.639   6.450
 7981POPC   C2B59864  26.210   7.661   6.750
 7981POPC   C3B59865  26.184   7.585   7.050
 7981POPC   C4B59866  26.248   7.607   7.350
 7982POPC   NC359867  23.724  29.170   5.550
 7982POPC   PO459868  23.717  29.099   5.850
 7982POPC   GL159869  23.713  29.151   6.150
 7982POPC   GL259870  23.760  29.043   6.150
 7982POPC   C1A59871  23.693  29.193   6.450
 7982POPC   D2A59872  23.683  29.125   6.750
 7982POPC   C3A59873  23.685  29.160   7.050
 7982POPC   C4A59874  23.762  29.188   7.350
 7982POPC   C1B59875  23.733  28.880   6.450
 7982POPC   C2B59876  23.717  28.880   6.750
 7982POPC   C3B59877  23.770  28.864   7.050
 7982POPC   C4B59878  23.781  28.849   7.350
 7983POPC   NC359879  16.719   6.674   5.550
 7983POPC   PO459880  16.758   6.646   5.850
 7983POPC   GL159881  16.748   6.604   6.150
 7983POPC   GL259882  16.777   6.514   6.150
 7983POPC   C1A59883  16.694   6.658   6.450
 7983POPC   D2A59884  16.728   6.676   6.750
 7983POPC   C3A59885  16.740   6.641   7.050
 7983POPC   C4A59886  16.736   6.610   7.350
 7983POPC   C1B59887  16.857   6.432   6.450
 7983POPC   C2B59888  16.905   6.428   6.750
 7983POPC   C3B59889  16.846   6.407   7.050
 7983POPC   C4B59890  16.872   6.426   7.350
 7984POPC   NC359891  27.598  13.646   5.550
 7984POPC   PO459892  27.638  13.650   5.850
 7984POPC   GL159893  27.579  13.620   6.150
 7984POPC   GL259894  27.535  13.533   6.150
 7984POPC   C1A59895  27.620  13.639   6.450
 7984POPC   D2A59896  27.611  13.613   6.750
 7984POPC   C3A59897  27.572  13.617   7.050
 7984POPC   C4A59898  27.622  13.657   7.350
 7984POPC   C1B59899  27.539  13.433   6.450
 7984POPC   C2B59900  27.518  13.360   6.750
 7984POPC   C3B59901  27.529  13.398   7.050
 7984POPC   C4B59902  27.524  13.419   7.350
 7985POPC   NC359903  21.386  16.002   5.550
 7985POPC   PO459904  21.427  16.002   5.850
 7985POPC   GL159905  21.398  15.945   6.150
 7985POPC   GL259906  21.275  15.913   6.150
 7985POPC   C1A59907  21.391  15.941   6.450
 7985POPC   D2A59908  21.380  15.971   6.750
 7985POPC   C3A59909  21.388  15.995   7.050
 7985POPC   C4A59910  21.426  15.910   7.350
 7985POPC   C1B59911  21.190  15.763   6.450
 7985POPC   C2B59912  21.178  15.763   6.750
 7985POPC   C3B59913  21.175  15.774   7.050
 7985POPC   C4B59914  21.175  15.823   7.350
 7986POPC   NC359915  24.447  25.249   5.550
 7986POPC   PO459916  24.455  25.226   5.850
 7986POPC   GL159917  24.479  25.283   6.150
 7986POPC   GL259918  24.510  25.358   6.150
 7986POPC   C1A59919  24.476  25.223   6.450
 7986POPC   D2A59920  24.457  25.220   6.750
 7986POPC   C3A59921  24.512  25.265   7.050
 7986POPC   C4A59922  24.509  25.222   7.350
 7986POPC   C1B59923  24.606  25.483   6.450
 7986POPC   C2B59924  24.583  25.444   6.750
 7986POPC   C3B59925  24.656  25.446   7.050
 7986POPC   C4B59926  24.635  25.440   7.350
 7987POPC   NC359927  19.027   8.223   5.550
 7987POPC   PO459928  19.094   8.230   5.850
 7987POPC   GL159929  19.052   8.224   6.150
 7987POPC   GL259930  18.958   8.237   6.150
 7987POPC   C1A59931  19.015   8.215   6.450
 7987POPC   D2A59932  19.088   8.239   6.750
 7987POPC   C3A59933  19.046   8.201   7.050
 7987POPC   C4A59934  19.099   8.173   7.350
 7987POPC   C1B59935  18.854   8.216   6.450
 7987POPC   C2B59936  18.800   8.192   6.750
 7987POPC   C3B59937  18.853   8.277   7.050
 7987POPC   C4B59938  18.850   8.233   7.350
 7988POPC   NC359939  21.394   8.163   5.550
 7988POPC   PO459940  21.361   8.236   5.850
 7988POPC   GL159941  21.433   8.177   6.150
 7988POPC   GL259942  21.317   8.254   6.150
 7988POPC   C1A59943  21.411   8.222   6.450
 7988POPC   D2A59944  21.401   8.151   6.750
 7988POPC   C3A59945  21.435   8.241   7.050
 7988POPC   C4A59946  21.434   8.180   7.350
 7988POPC   C1B59947  21.215   8.352   6.450
 7988POPC   C2B59948  21.189   8.416   6.750
 7988POPC   C3B59949  21.202   8.357   7.050
 7988POPC   C4B59950  21.191   8.388   7.350
 7989POPC   NC359951  12.868  37.692   5.550
 7989POPC   PO459952  12.850  37.657   5.850
 7989POPC   GL159953  12.848  37.657   6.150
 7989POPC   GL259954  12.761  37.651   6.150
 7989POPC   C1A59955  12.858  37.703   6.450
 7989POPC   D2A59956  12.828  37.639   6.750
 7989POPC   C3A59957  12.853  37.722   7.050
 7989POPC   C4A59958  12.811  37.634   7.350
 7989POPC   C1B59959  12.649  37.708   6.450
 7989POPC   C2B59960  12.631  37.715   6.750
 7989POPC   C3B59961  12.557  37.736   7.050
 7989POPC   C4B59962  12.650  37.715   7.350
 7990POPC   NC359963   5.055   1.214   5.550
 7990POPC   PO459964   5.131   1.231   5.850
 7990POPC   GL159965   5.141   1.218   6.150
 7990POPC   GL259966   4.990   1.178   6.150
 7990POPC   C1A59967   5.126   1.198   6.450
 7990POPC   D2A59968   5.050   1.248   6.750
 7990POPC   C3A59969   5.062   1.205   7.050
 7990POPC   C4A59970   5.122   1.181   7.350
 7990POPC   C1B59971   4.907   1.126   6.450
 7990POPC   C2B59972   4.826   1.150   6.750
 7990POPC   C3B59973   4.876   1.166   7.050
 7990POPC   C4B59974   4.899   1.111   7.350
 7991POPC   NC359975  36.868   7.385   5.550
 7991POPC   PO459976  36.947   7.431   5.850
 7991POPC   GL159977  36.933   7.462   6.150
 7991POPC   GL259978  37.018   7.533   6.150
 7991POPC   C1A59979  36.854   7.391   6.450
 7991POPC   D2A59980  36.873   7.452   6.750
 7991POPC   C3A59981  36.864   7.450   7.050
 7991POPC   C4A59982  36.891   7.427   7.350
 7991POPC   C1B59983  37.027   7.582   6.450
 7991POPC   C2B59984  37.030   7.660   6.750
 7991POPC   C3B59985  36.996   7.641   7.050
 7991POPC   C4B59986  36.996   7.672   7.350
 7992POPC   NC359987  34.584   1.192   5.550
 7992POPC   PO459988  34.560   1.209   5.850
 7992POPC   GL159989  34.603   1.188   6.150
 7992POPC   GL259990  34.429   1.326   6.150
 7992POPC   C1A59991  34.623   1.244   6.450
 7992POPC   D2A59992  34.547   1.189   6.750
 7992POPC   C3A59993  34.561   1.171   7.050
 7992POPC   C4A59994  34.621   1.170   7.350
 7992POPC   C1B59995  34.413   1.337   6.450
 7992POPC   C2B59996  34.338   1.405   6.750
 7992POPC   C3B59997  34.345   1.358   7.050
 7992POPC   C4B59998  34.373   1.334   7.350
 7993POPC   NC359999  19.011  10.533   5.550
 7993POPC   PO460000  19.010  10.489   5.850
 7993POPC   GL160001  19.015  10.554   6.150
 7993POPC   GL260002  19.035  10.651   6.150
 7993POPC   C1A60003  19.011  10.552   6.450
 7993POPC   D2A60004  19.107  10.558   6.750
 7993POPC   C3A60005  19.101  10.488   7.050
 7993POPC   C4A60006  19.066  10.535   7.350
 7993POPC   C1B60007  19.024  10.738   6.450
 7993POPC   C2B60008  19.111  10.773   6.750
 7993POPC   C3B60009  19.039  10.798   7.050
 7993POPC   C4B60010  19.085  10.772   7.350
 7994POPC   NC360011  22.158   4.359   5.550
 7994POPC   PO460012  22.137   4.329   5.850
 7994POPC   GL160013  22.193   4.290   6.150
 7994POPC   GL260014  22.135   4.227   6.150
 7994POPC   C1A60015  22.125   4.295   6.450
 7994POPC   D2A60016  22.170   4.326   6.750
 7994POPC   C3A60017  22.119   4.273   7.050
 7994POPC   C4A60018  22.154   4.357   7.350
 7994POPC   C1B60019  22.141   4.045   6.450
 7994POPC   C2B60020  22.079   4.064   6.750
 7994POPC   C3B60021  22.118   4.047   7.050
 7994POPC   C4B60022  22.055   4.113   7.350
 7995POPC   NC360023   4.331  22.124   5.550
 7995POPC   PO460024   4.339  22.146   5.850
 7995POPC   GL160025   4.291  22.150   6.150
 7995POPC   GL260026   4.213  22.286   6.150
 7995POPC   C1A60027   4.346  22.157   6.450
 7995POPC   D2A60028   4.323  22.182   6.750
 7995POPC   C3A60029   4.324  22.189   7.050
 7995POPC   C4A60030   4.339  22.122   7.350
 7995POPC   C1B60031   4.166  22.345   6.450
 7995POPC   C2B60032   4.124  22.342   6.750
 7995POPC   C3B60033   4.147  22.398   7.050
 7995POPC   C4B60034   4.205  22.379   7.350
 7996POPC   NC360035  44.624  31.426   5.550
 7996POPC   PO460036  44.652  31.430   5.850
 7996POPC   GL160037  44.631  31.452   6.150
 7996POPC   GL260038  44.835  31.497   6.150
 7996POPC   C1A60039  44.659  31.480   6.450
 7996POPC   D2A60040  44.666  31.467   6.750
 7996POPC   C3A60041  44.691  31.454   7.050
 7996POPC   C4A60042  44.666  31.508   7.350
 7996POPC   C1B60043  44.921  31.510   6.450
 7996POPC   C2B60044  44.875  31.526   6.750
 7996POPC   C3B60045  44.929  31.466   7.050
 7996POPC   C4B60046  44.917  31.497   7.350
 7997POPC   NC360047  24.521  19.808   5.550
 7997POPC   PO460048  24.454  19.866   5.850
 7997POPC   GL160049  24.480  19.787   6.150
 7997POPC   GL260050  24.348  19.954   6.150
 7997POPC   C1A60051  24.524  19.792   6.450
 7997POPC   D2A60052  24.474  19.832   6.750
 7997POPC   C3A60053  24.494  19.802   7.050
 7997POPC   C4A60054  24.492  19.825   7.350
 7997POPC   C1B60055  24.304  19.983   6.450
 7997POPC   C2B60056  24.299  19.947   6.750
 7997POPC   C3B60057  24.325  19.984   7.050
 7997POPC   C4B60058  24.253  19.981   7.350
 7998POPC   NC360059  36.934  41.559   5.550
 7998POPC   PO460060  36.937  41.525   5.850
 7998POPC   GL160061  36.948  41.535   6.150
 7998POPC   GL260062  36.911  41.700   6.150
 7998POPC   C1A60063  36.898  41.559   6.450
 7998POPC   D2A60064  36.907  41.546   6.750
 7998POPC   C3A60065  36.889  41.603   7.050
 7998POPC   C4A60066  36.907  41.517   7.350
 7998POPC   C1B60067  36.994  41.811   6.450
 7998POPC   C2B60068  36.991  41.741   6.750
 7998POPC   C3B60069  37.039  41.769   7.050
 7998POPC   C4B60070  36.948  41.814   7.350
 7999POPC   NC360071   5.913  18.248   5.550
 7999POPC   PO460072   5.868  18.237   5.850
 7999POPC   GL160073   5.887  18.268   6.150
 7999POPC   GL260074   6.013  18.253   6.150
 7999POPC   C1A60075   5.857  18.323   6.450
 7999POPC   D2A60076   5.882  18.317   6.750
 7999POPC   C3A60077   5.903  18.321   7.050
 7999POPC   C4A60078   5.903  18.273   7.350
 7999POPC   C1B60079   6.119  18.102   6.450
 7999POPC   C2B60080   6.061  18.167   6.750
 7999POPC   C3B60081   6.126  18.159   7.050
 7999POPC   C4B60082   6.040  18.128   7.350
 8000POPC   NC360083  40.784   8.978   5.550
 8000POPC   PO460084  40.790   8.964   5.850
 8000POPC   GL160085  40.792   8.941   6.150
 8000POPC   GL260086  40.739   8.831   6.150
 8000POPC   C1A60087  40.828   8.945   6.450
 8000POPC   D2A60088  40.751   8.979   6.750
 8000POPC   C3A60089  40.762   8.926   7.050
 8000POPC   C4A60090  40.747   8.927   7.350
 8000POPC   C1B60091  40.633   8.744   6.450
 8000POPC   C2B60092  40.627   8.782   6.750
 8000POPC   C3B60093  40.683   8.780   7.050
 8000POPC   C4B60094  40.666   8.818   7.350
 8001POPC   NC360095  30.731  28.369   5.550
 8001POPC   PO460096  30.666  28.363   5.850
 8001POPC   GL160097  30.726  28.379   6.150
 8001POPC   GL260098  30.624  28.381   6.150
 8001POPC   C1A60099  30.687  28.391   6.450
 8001POPC   D2A60100  30.738  28.377   6.750
 8001POPC   C3A60101  30.658  28.403   7.050
 8001POPC   C4A60102  30.657  28.328   7.350
 8001POPC   C1B60103  30.451  28.438   6.450
 8001POPC   C2B60104  30.515  28.476   6.750
 8001POPC   C3B60105  30.466  28.510   7.050
 8001POPC   C4B60106  30.489  28.504   7.350
 8002POPC   NC360107  40.808  34.613   5.550
 8002POPC   PO460108  40.821  34.534   5.850
 8002POPC   GL160109  40.783  34.608   6.150
 8002POPC   GL260110  40.768  34.735   6.150
 8002POPC   C1A60111  40.826  34.553   6.450
 8002POPC   D2A60112  40.822  34.567   6.750
 8002POPC   C3A60113  40.750  34.579   7.050
 8002POPC   C4A60114  40.826  34.541   7.350
 8002POPC   C1B60115  40.699  34.816   6.450
 8002POPC   C2B60116  40.703  34.855   6.750
 8002POPC   C3B60117  40.740  34.862   7.050
 8002POPC   C4B60118  40.777  34.783   7.350
 8003POPC   NC360119  35.344   8.183   5.550
 8003POPC   PO460120  35.381   8.186   5.850
 8003POPC   GL160121  35.335   8.173   6.150
 8003POPC   GL260122  35.341   8.069   6.150
 8003POPC   C1A60123  35.318   8.241   6.450
 8003POPC   D2A60124  35.359   8.189   6.750
 8003POPC   C3A60125  35.401   8.193   7.050
 8003POPC   C4A60126  35.378   8.199   7.350
 8003POPC   C1B60127  35.323   7.906   6.450
 8003POPC   C2B60128  35.332   7.910   6.750
 8003POPC   C3B60129  35.332   7.977   7.050
 8003POPC   C4B60130  35.372   7.952   7.350
 8004POPC   NC360131   7.418   8.214   5.550
 8004POPC   PO460132   7.386   8.239   5.850
 8004POPC   GL160133   7.383   8.159   6.150
 8004POPC   GL260134   7.496   8.313   6.150
 8004POPC   C1A60135   7.408   8.183   6.450
 8004POPC   D2A60136   7.467   8.183   6.750
 8004POPC   C3A60137   7.409   8.241   7.050
 8004POPC   C4A60138   7.419   8.207   7.350
 8004POPC   C1B60139   7.572   8.366   6.450
 8004POPC   C2B60140   7.531   8.427   6.750
 8004POPC   C3B60141   7.562   8.389   7.050
 8004POPC   C4B60142   7.568   8.358   7.350
 8005POPC   NC360143   6.651  24.461   5.550
 8005POPC   PO460144   6.678  24.455   5.850
 8005POPC   GL160145   6.657  24.521   6.150
 8005POPC   GL260146   6.564  24.532   6.150
 8005POPC   C1A60147   6.638  24.484   6.450
 8005POPC   D2A60148   6.658  24.521   6.750
 8005POPC   C3A60149   6.655  24.522   7.050
 8005POPC   C4A60150   6.673  24.453   7.350
 8005POPC   C1B60151   6.408  24.561   6.450
 8005POPC   C2B60152   6.377  24.534   6.750
 8005POPC   C3B60153   6.387  24.578   7.050
 8005POPC   C4B60154   6.390  24.555   7.350
 8006POPC   NC360155  18.237  29.172   5.550
 8006POPC   PO460156  18.326  29.107   5.850
 8006POPC   GL160157  18.255  29.172   6.150
 8006POPC   GL260158  18.243  29.010   6.150
 8006POPC   C1A60159  18.301  29.161   6.450
 8006POPC   D2A60160  18.278  29.126   6.750
 8006POPC   C3A60161  18.316  29.114   7.050
 8006POPC   C4A60162  18.321  29.188   7.350
 8006POPC   C1B60163  18.267  28.853   6.450
 8006POPC   C2B60164  18.243  28.870   6.750
 8006POPC   C3B60165  18.235  28.850   7.050
 8006POPC   C4B60166  18.302  28.869   7.350
 8007POPC   NC360167  12.881  14.450   5.550
 8007POPC   PO460168  12.861  14.442   5.850
 8007POPC   GL160169  12.860  14.367   6.150
 8007POPC   GL260170  12.907  14.555   6.150
 8007POPC   C1A60171  12.893  14.359   6.450
 8007POPC   D2A60172  12.856  14.451   6.750
 8007POPC   C3A60173  12.875  14.401   7.050
 8007POPC   C4A60174  12.879  14.421   7.350
 8007POPC   C1B60175  12.976  14.631   6.450
 8007POPC   C2B60176  12.928  14.620   6.750
 8007POPC   C3B60177  12.986  14.599   7.050
 8007POPC   C4B60178  12.997  14.669   7.350
 8008POPC   NC360179  19.062  14.436   5.550
 8008POPC   PO460180  19.018  14.362   5.850
 8008POPC   GL160181  19.090  14.378   6.150
 8008POPC   GL260182  18.910  14.498   6.150
 8008POPC   C1A60183  19.075  14.391   6.450
 8008POPC   D2A60184  19.057  14.375   6.750
 8008POPC   C3A60185  19.051  14.372   7.050
 8008POPC   C4A60186  19.065  14.387   7.350
 8008POPC   C1B60187  18.817  14.470   6.450
 8008POPC   C2B60188  18.811  14.476   6.750
 8008POPC   C3B60189  18.864  14.508   7.050
 8008POPC   C4B60190  18.791  14.473   7.350
 8009POPC   NC360191  39.254  44.659   5.550
 8009POPC   PO460192  39.252  44.617   5.850
 8009POPC   GL160193  39.246  44.700   6.150
 8009POPC   GL260194  39.199  44.571   6.150
 8009POPC   C1A60195  39.190  44.710   6.450
 8009POPC   D2A60196  39.195  44.664   6.750
 8009POPC   C3A60197  39.235  44.660   7.050
 8009POPC   C4A60198  39.267  44.709   7.350
 8009POPC   C1B60199  39.157  44.467   6.450
 8009POPC   C2B60200  39.192  44.374   6.750
 8009POPC   C3B60201  39.222  44.457   7.050
 8009POPC   C4B60202  39.156  44.426   7.350
 8010POPC   NC360203  23.672  29.872   5.550
 8010POPC   PO460204  23.716  29.876   5.850
 8010POPC   GL160205  23.741  29.929   6.150
 8010POPC   GL260206  23.785  29.780   6.150
 8010POPC   C1A60207  23.697  29.901   6.450
 8010POPC   D2A60208  23.735  29.909   6.750
 8010POPC   C3A60209  23.740  29.883   7.050
 8010POPC   C4A60210  23.718  29.946   7.350
 8010POPC   C1B60211  23.808  29.699   6.450
 8010POPC   C2B60212  23.792  29.705   6.750
 8010POPC   C3B60213  23.759  29.682   7.050
 8010POPC   C4B60214  23.796  29.670   7.350
 8011POPC   NC360215  14.409   5.916   5.550
 8011POPC   PO460216  14.362   5.880   5.850
 8011POPC   GL160217  14.373   5.914   6.150
 8011POPC   GL260218  14.267   5.827   6.150
 8011POPC   C1A60219  14.383   5.889   6.450
 8011POPC   D2A60220  14.401   5.880   6.750
 8011POPC   C3A60221  14.425   5.826   7.050
 8011POPC   C4A60222  14.412   5.827   7.350
 8011POPC   C1B60223  14.161   5.893   6.450
 8011POPC   C2B60224  14.200   5.896   6.750
 8011POPC   C3B60225  14.136   5.836   7.050
 8011POPC   C4B60226  14.170   5.863   7.350
 8012POPC   NC360227   5.875   9.727   5.550
 8012POPC   PO460228   5.898   9.765   5.850
 8012POPC   GL160229   5.879   9.737   6.150
 8012POPC   GL260230   5.959   9.877   6.150
 8012POPC   C1A60231   5.865   9.796   6.450
 8012POPC   D2A60232   5.909   9.771   6.750
 8012POPC   C3A60233   5.876   9.750   7.050
 8012POPC   C4A60234   5.851   9.699   7.350
 8012POPC   C1B60235   6.071   9.913   6.450
 8012POPC   C2B60236   6.093   9.899   6.750
 8012POPC   C3B60237   6.066   9.950   7.050
 8012POPC   C4B60238   6.082   9.893   7.350
 8013POPC   NC360239  29.181  17.515   5.550
 8013POPC   PO460240  29.138  17.504   5.850
 8013POPC   GL160241  29.095  17.500   6.150
 8013POPC   GL260242  29.269  17.436   6.150
 8013POPC   C1A60243  29.158  17.545   6.450
 8013POPC   D2A60244  29.151  17.459   6.750
 8013POPC   C3A60245  29.191  17.472   7.050
 8013POPC   C4A60246  29.098  17.491   7.350
 8013POPC   C1B60247  29.299  17.343   6.450
 8013POPC   C2B60248  29.361  17.345   6.750
 8013POPC   C3B60249  29.308  17.375   7.050
 8013POPC   C4B60250  29.332  17.288   7.350
 8014POPC   NC360251  17.509  16.734   5.550
 8014POPC   PO460252  17.526  16.763   5.850
 8014POPC   GL160253  17.519  16.739   6.150
 8014POPC   GL260254  17.401  16.745   6.150
 8014POPC   C1A60255  17.535  16.718   6.450
 8014POPC   D2A60256  17.520  16.725   6.750
 8014POPC   C3A60257  17.474  16.701   7.050
 8014POPC   C4A60258  17.549  16.683   7.350
 8014POPC   C1B60259  17.268  16.736   6.450
 8014POPC   C2B60260  17.240  16.754   6.750
 8014POPC   C3B60261  17.248  16.726   7.050
 8014POPC   C4B60262  17.257  16.780   7.350
 8015POPC   NC360263  26.855  28.413   5.550
 8015POPC   PO460264  26.768  28.382   5.850
 8015POPC   GL160265  26.811  28.412   6.150
 8015POPC   GL260266  26.897  28.478   6.150
 8015POPC   C1A60267  26.831  28.381   6.450
 8015POPC   D2A60268  26.818  28.325   6.750
 8015POPC   C3A60269  26.800  28.360   7.050
 8015POPC   C4A60270  26.846  28.342   7.350
 8015POPC   C1B60271  26.967  28.567   6.450
 8015POPC   C2B60272  26.995  28.554   6.750
 8015POPC   C3B60273  26.980  28.515   7.050
 8015POPC   C4B60274  26.949  28.552   7.350
 8016POPC   NC360275   0.417   1.972   5.550
 8016POPC   PO460276   0.428   2.001   5.850
 8016POPC   GL160277   0.404   2.005   6.150
 8016POPC   GL260278   0.610   2.008   6.150
 8016POPC   C1A60279   0.434   1.991   6.450
 8016POPC   D2A60280   0.396   2.003   6.750
 8016POPC   C3A60281   0.397   1.972   7.050
 8016POPC   C4A60282   0.396   1.954   7.350
 8016POPC   C1B60283   0.650   2.062   6.450
 8016POPC   C2B60284   0.650   2.040   6.750
 8016POPC   C3B60285   0.679   2.019   7.050
 8016POPC   C4B60286   0.702   2.049   7.350
 8017POPC   NC360287  18.313  32.295   5.550
 8017POPC   PO460288  18.315  32.215   5.850
 8017POPC   GL160289  18.249  32.259   6.150
 8017POPC   GL260290  18.396  32.114   6.150
 8017POPC   C1A60291  18.325  32.269   6.450
 8017POPC   D2A60292  18.235  32.230   6.750
 8017POPC   C3A60293  18.329  32.258   7.050
 8017POPC   C4A60294  18.315  32.277   7.350
 8017POPC   C1B60295  18.429  32.047   6.450
 8017POPC   C2B60296  18.390  32.024   6.750
 8017POPC   C3B60297  18.457  32.065   7.050
 8017POPC   C4B60298  18.465  32.094   7.350
 8018POPC   NC360299  23.703  40.738   5.550
 8018POPC   PO460300  23.713  40.769   5.850
 8018POPC   GL160301  23.729  40.827   6.150
 8018POPC   GL260302  23.727  40.881   6.150
 8018POPC   C1A60303  23.668  40.764   6.450
 8018POPC   D2A60304  23.735  40.771   6.750
 8018POPC   C3A60305  23.709  40.758   7.050
 8018POPC   C4A60306  23.708  40.791   7.350
 8018POPC   C1B60307  23.750  41.007   6.450
 8018POPC   C2B60308  23.775  41.005   6.750
 8018POPC   C3B60309  23.799  41.005   7.050
 8018POPC   C4B60310  23.776  41.016   7.350
 8019POPC   NC360311  23.678  36.130   5.550
 8019POPC   PO460312  23.680  36.160   5.850
 8019POPC   GL160313  23.676  36.113   6.150
 8019POPC   GL260314  23.645  36.229   6.150
 8019POPC   C1A60315  23.713  36.114   6.450
 8019POPC   D2A60316  23.733  36.165   6.750
 8019POPC   C3A60317  23.730  36.165   7.050
 8019POPC   C4A60318  23.750  36.106   7.350
 8019POPC   C1B60319  23.576  36.338   6.450
 8019POPC   C2B60320  23.609  36.298   6.750
 8019POPC   C3B60321  23.594  36.279   7.050
 8019POPC   C4B60322  23.536  36.370   7.350
 8020POPC   NC360323   3.492  35.320   5.550
 8020POPC   PO460324   3.530  35.400   5.850
 8020POPC   GL160325   3.566  35.302   6.150
 8020POPC   GL260326   3.561  35.456   6.150
 8020POPC   C1A60327   3.556  35.362   6.450
 8020POPC   D2A60328   3.560  35.372   6.750
 8020POPC   C3A60329   3.512  35.348   7.050
 8020POPC   C4A60330   3.503  35.369   7.350
 8020POPC   C1B60331   3.600  35.575   6.450
 8020POPC   C2B60332   3.579  35.598   6.750
 8020POPC   C3B60333   3.535  35.569   7.050
 8020POPC   C4B60334   3.582  35.628   7.350
 8021POPC   NC360335  19.828   2.017   5.550
 8021POPC   PO460336  19.871   2.033   5.850
 8021POPC   GL160337  19.883   1.986   6.150
 8021POPC   GL260338  19.912   2.072   6.150
 8021POPC   C1A60339  19.845   2.012   6.450
 8021POPC   D2A60340  19.807   1.983   6.750
 8021POPC   C3A60341  19.855   1.970   7.050
 8021POPC   C4A60342  19.880   2.035   7.350
 8021POPC   C1B60343  20.093   2.154   6.450
 8021POPC   C2B60344  20.071   2.058   6.750
 8021POPC   C3B60345  20.052   2.102   7.050
 8021POPC   C4B60346  20.027   2.096   7.350
 8022POPC   NC360347  41.584  24.535   5.550
 8022POPC   PO460348  41.573  24.483   5.850
 8022POPC   GL160349  41.515  24.462   6.150
 8022POPC   GL260350  41.579  24.655   6.150
 8022POPC   C1A60351  41.511  24.504   6.450
 8022POPC   D2A60352  41.599  24.502   6.750
 8022POPC   C3A60353  41.530  24.473   7.050
 8022POPC   C4A60354  41.558  24.502   7.350
 8022POPC   C1B60355  41.577  24.741   6.450
 8022POPC   C2B60356  41.558  24.782   6.750
 8022POPC   C3B60357  41.556  24.731   7.050
 8022POPC   C4B60358  41.560  24.742   7.350
 8023POPC   NC360359   0.459  37.701   5.550
 8023POPC   PO460360   0.428  37.632   5.850
 8023POPC   GL160361   0.392  37.637   6.150
 8023POPC   GL260362   0.548  37.644   6.150
 8023POPC   C1A60363   0.449  37.692   6.450
 8023POPC   D2A60364   0.483  37.710   6.750
 8023POPC   C3A60365   0.464  37.655   7.050
 8023POPC   C4A60366   0.430  37.654   7.350
 8023POPC   C1B60367   0.660  37.676   6.450
 8023POPC   C2B60368   0.654  37.625   6.750
 8023POPC   C3B60369   0.692  37.658   7.050
 8023POPC   C4B60370   0.686  37.641   7.350
 8024POPC   NC360371   6.634  42.375   5.550
 8024POPC   PO460372   6.658  42.331   5.850
 8024POPC   GL160373   6.605  42.381   6.150
 8024POPC   GL260374   6.780  42.425   6.150
 8024POPC   C1A60375   6.614  42.325   6.450
 8024POPC   D2A60376   6.680  42.324   6.750
 8024POPC   C3A60377   6.639  42.357   7.050
 8024POPC   C4A60378   6.694  42.328   7.350
 8024POPC   C1B60379   6.901  42.434   6.450
 8024POPC   C2B60380   6.906  42.442   6.750
 8024POPC   C3B60381   6.865  42.457   7.050
 8024POPC   C4B60382   6.847  42.403   7.350
 8025POPC   NC360383  34.606  18.283   5.550
 8025POPC   PO460384  34.530  18.289   5.850
 8025POPC   GL160385  34.605  18.297   6.150
 8025POPC   GL260386  34.583  18.425   6.150
 8025POPC   C1A60387  34.542  18.266   6.450
 8025POPC   D2A60388  34.562  18.290   6.750
 8025POPC   C3A60389  34.552  18.263   7.050
 8025POPC   C4A60390  34.530  18.292   7.350
 8025POPC   C1B60391  34.646  18.528   6.450
 8025POPC   C2B60392  34.570  18.579   6.750
 8025POPC   C3B60393  34.613  18.541   7.050
 8025POPC   C4B60394  34.566  18.551   7.350
 8026POPC   NC360395  20.567  32.222   5.550
 8026POPC   PO460396  20.596  32.228   5.850
 8026POPC   GL160397  20.587  32.209   6.150
 8026POPC   GL260398  20.758  32.310   6.150
 8026POPC   C1A60399  20.653  32.211   6.450
 8026POPC   D2A60400  20.594  32.255   6.750
 8026POPC   C3A60401  20.568  32.211   7.050
 8026POPC   C4A60402  20.580  32.279   7.350
 8026POPC   C1B60403  20.888  32.322   6.450
 8026POPC   C2B60404  20.840  32.302   6.750
 8026POPC   C3B60405  20.874  32.370   7.050
 8026POPC   C4B60406  20.876  32.301   7.350
 8027POPC   NC360407  39.184  39.247   5.550
 8027POPC   PO460408  39.228  39.266   5.850
 8027POPC   GL160409  39.271  39.247   6.150
 8027POPC   GL260410  39.392  39.251   6.150
 8027POPC   C1A60411  39.271  39.242   6.450
 8027POPC   D2A60412  39.192  39.268   6.750
 8027POPC   C3A60413  39.212  39.269   7.050
 8027POPC   C4A60414  39.215  39.203   7.350
 8027POPC   C1B60415  39.475  39.263   6.450
 8027POPC   C2B60416  39.492  39.214   6.750
 8027POPC   C3B60417  39.481  39.216   7.050
 8027POPC   C4B60418  39.514  39.176   7.350
 8028POPC   NC360419  35.338   8.924   5.550
 8028POPC   PO460420  35.309   9.005   5.850
 8028POPC   GL160421  35.331   8.923   6.150
 8028POPC   GL260422  35.487   9.073   6.150
 8028POPC   C1A60423  35.357   9.007   6.450
 8028POPC   D2A60424  35.365   8.932   6.750
 8028POPC   C3A60425  35.307   8.927   7.050
 8028POPC   C4A60426  35.357   9.012   7.350
 8028POPC   C1B60427  35.502   9.171   6.450
 8028POPC   C2B60428  35.568   9.135   6.750
 8028POPC   C3B60429  35.483   9.183   7.050
 8028POPC   C4B60430  35.564   9.115   7.350
 8029POPC   NC360431  23.704  43.105   5.550
 8029POPC   PO460432  23.710  43.147   5.850
 8029POPC   GL160433  23.687  43.069   6.150
 8029POPC   GL260434  23.781  42.966   6.150
 8029POPC   C1A60435  23.689  43.072   6.450
 8029POPC   D2A60436  23.762  43.076   6.750
 8029POPC   C3A60437  23.739  43.152   7.050
 8029POPC   C4A60438  23.701  43.087   7.350
 8029POPC   C1B60439  23.745  42.873   6.450
 8029POPC   C2B60440  23.755  42.851   6.750
 8029POPC   C3B60441  23.777  42.848   7.050
 8029POPC   C4B60442  23.744  42.850   7.350
 8030POPC   NC360443  25.270   6.616   5.550
 8030POPC   PO460444  25.231   6.675   5.850
 8030POPC   GL160445  25.250   6.637   6.150
 8030POPC   GL260446  25.227   6.565   6.150
 8030POPC   C1A60447  25.270   6.652   6.450
 8030POPC   D2A60448  25.239   6.647   6.750
 8030POPC   C3A60449  25.235   6.646   7.050
 8030POPC   C4A60450  25.223   6.660   7.350
 8030POPC   C1B60451  25.257   6.383   6.450
 8030POPC   C2B60452  25.257   6.447   6.750
 8030POPC   C3B60453  25.267   6.440   7.050
 8030POPC   C4B60454  25.268   6.394   7.350
 8031POPC   NC360455  26.068  21.396   5.550
 8031POPC   PO460456  26.088  21.384   5.850
 8031POPC   GL160457  26.059  21.391   6.150
 8031POPC   GL260458  26.115  21.249   6.150
 8031POPC   C1A60459  26.078  21.429   6.450
 8031POPC   D2A60460  26.084  21.416   6.750
 8031POPC   C3A60461  26.008  21.349   7.050
 8031POPC   C4A60462  26.015  21.424   7.350
 8031POPC   C1B60463  26.180  21.123   6.450
 8031POPC   C2B60464  26.137  21.204   6.750
 8031POPC   C3B60465  26.090  21.144   7.050
 8031POPC   C4B60466  26.171  21.158   7.350
 8032POPC   NC360467  12.841   8.160   5.550
 8032POPC   PO460468  12.804   8.203   5.850
 8032POPC   GL160469  12.885   8.217   6.150
 8032POPC   GL260470  12.955   8.317   6.150
 8032POPC   C1A60471  12.857   8.211   6.450
 8032POPC   D2A60472  12.856   8.156   6.750
 8032POPC   C3A60473  12.856   8.208   7.050
 8032POPC   C4A60474  12.810   8.168   7.350
 8032POPC   C1B60475  13.031   8.391   6.450
 8032POPC   C2B60476  12.994   8.383   6.750
 8032POPC   C3B60477  13.047   8.343   7.050
 8032POPC   C4B60478  12.990   8.411   7.350
 8033POPC   NC360479  30.689  33.007   5.550
 8033POPC   PO460480  30.665  32.988   5.850
 8033POPC   GL160481  30.702  33.042   6.150
 8033POPC   GL260482  30.718  32.906   6.150
 8033POPC   C1A60483  30.720  33.025   6.450
 8033POPC   D2A60484  30.713  33.039   6.750
 8033POPC   C3A60485  30.676  33.009   7.050
 8033POPC   C4A60486  30.714  33.026   7.350
 8033POPC   C1B60487  30.850  32.772   6.450
 8033POPC   C2B60488  30.778  32.821   6.750
 8033POPC   C3B60489  30.778  32.753   7.050
 8033POPC   C4B60490  30.776  32.844   7.350
 8034POPC   NC360491   8.169  31.423   5.550
 8034POPC   PO460492   8.223  31.465   5.850
 8034POPC   GL160493   8.203  31.426   6.150
 8034POPC   GL260494   8.275  31.467   6.150
 8034POPC   C1A60495   8.163  31.474   6.450
 8034POPC   D2A60496   8.190  31.426   6.750
 8034POPC   C3A60497   8.211  31.438   7.050
 8034POPC   C4A60498   8.149  31.489   7.350
 8034POPC   C1B60499   8.402  31.517   6.450
 8034POPC   C2B60500   8.424  31.555   6.750
 8034POPC   C3B60501   8.440  31.517   7.050
 8034POPC   C4B60502   8.404  31.575   7.350
 8035POPC   NC360503  20.591   5.080   5.550
 8035POPC   PO460504  20.622   5.077   5.850
 8035POPC   GL160505  20.640   5.107   6.150
 8035POPC   GL260506  20.769   5.137   6.150
 8035POPC   C1A60507  20.631   5.125   6.450
 8035POPC   D2A60508  20.603   5.084   6.750
 8035POPC   C3A60509  20.646   5.087   7.050
 8035POPC   C4A60510  20.581   5.137   7.350
 8035POPC   C1B60511  20.795   5.176   6.450
 8035POPC   C2B60512  20.805   5.187   6.750
 8035POPC   C3B60513  20.867   5.215   7.050
 8035POPC   C4B60514  20.857   5.158   7.350
 8036POPC   NC360515  19.880  12.092   5.550
 8036POPC   PO460516  19.801  12.117   5.850
 8036POPC   GL160517  19.793  12.105   6.150
 8036POPC   GL260518  19.838  11.923   6.150
 8036POPC   C1A60519  19.821  12.100   6.450
 8036POPC   D2A60520  19.797  12.052   6.750
 8036POPC   C3A60521  19.815  12.051   7.050
 8036POPC   C4A60522  19.790  12.069   7.350
 8036POPC   C1B60523  19.905  11.826   6.450
 8036POPC   C2B60524  19.969  11.885   6.750
 8036POPC   C3B60525  19.968  11.891   7.050
 8036POPC   C4B60526  19.962  11.857   7.350
 8037POPC   NC360527   7.399  41.559   5.550
 8037POPC   PO460528   7.450  41.527   5.850
 8037POPC   GL160529   7.398  41.561   6.150
 8037POPC   GL260530   7.527  41.637   6.150
 8037POPC   C1A60531   7.465  41.542   6.450
 8037POPC   D2A60532   7.394  41.533   6.750
 8037POPC   C3A60533   7.462  41.577   7.050
 8037POPC   C4A60534   7.445  41.521   7.350
 8037POPC   C1B60535   7.653  41.686   6.450
 8037POPC   C2B60536   7.663  41.697   6.750
 8037POPC   C3B60537   7.611  41.735   7.050
 8037POPC   C4B60538   7.669  41.719   7.350
 8038POPC   NC360539  11.347  39.986   5.550
 8038POPC   PO460540  11.283  39.991   5.850
 8038POPC   GL160541  11.294  40.053   6.150
 8038POPC   GL260542  11.254  39.915   6.150
 8038POPC   C1A60543  11.288  40.039   6.450
 8038POPC   D2A60544  11.270  39.976   6.750
 8038POPC   C3A60545  11.341  40.006   7.050
 8038POPC   C4A60546  11.288  40.040   7.350
 8038POPC   C1B60547  11.297  39.797   6.450
 8038POPC   C2B60548  11.291  39.793   6.750
 8038POPC   C3B60549  11.343  39.795   7.050
 8038POPC   C4B60550  11.323  39.794   7.350
 8039POPC   NC360551  18.285   2.788   5.550
 8039POPC   PO460552  18.331   2.768   5.850
 8039POPC   GL160553  18.303   2.763   6.150
 8039POPC   GL260554  18.327   2.634   6.150
 8039POPC   C1A60555  18.277   2.789   6.450
 8039POPC   D2A60556  18.332   2.774   6.750
 8039POPC   C3A60557  18.296   2.722   7.050
 8039POPC   C4A60558  18.295   2.721   7.350
 8039POPC   C1B60559  18.350   2.553   6.450
 8039POPC   C2B60560  18.329   2.545   6.750
 8039POPC   C3B60561  18.343   2.567   7.050
 8039POPC   C4B60562  18.314   2.518   7.350
 8040POPC   NC360563  22.908  39.981   5.550
 8040POPC   PO460564  22.906  39.999   5.850
 8040POPC   GL160565  22.951  39.975   6.150
 8040POPC   GL260566  23.073  39.988   6.150
 8040POPC   C1A60567  22.925  39.987   6.450
 8040POPC   D2A60568  22.899  40.008   6.750
 8040POPC   C3A60569  22.926  39.965   7.050
 8040POPC   C4A60570  22.981  39.964   7.350
 8040POPC   C1B60571  23.223  40.013   6.450
 8040POPC   C2B60572  23.150  39.977   6.750
 8040POPC   C3B60573  23.236  39.987   7.050
 8040POPC   C4B60574  23.225  40.042   7.350
 8041POPC   NC360575  22.169  43.149   5.550
 8041POPC   PO460576  22.128  43.159   5.850
 8041POPC   GL160577  22.153  43.107   6.150
 8041POPC   GL260578  22.325  43.135   6.150
 8041POPC   C1A60579  22.188  43.152   6.450
 8041POPC   D2A60580  22.198  43.092   6.750
 8041POPC   C3A60581  22.112  43.126   7.050
 8041POPC   C4A60582  22.177  43.144   7.350
 8041POPC   C1B60583  22.402  43.140   6.450
 8041POPC   C2B60584  22.391  43.116   6.750
 8041POPC   C3B60585  22.455  43.068   7.050
 8041POPC   C4B60586  22.418  43.128   7.350
 8042POPC   NC360587  22.924  36.936   5.550
 8042POPC   PO460588  22.902  36.950   5.850
 8042POPC   GL160589  22.892  36.898   6.150
 8042POPC   GL260590  22.851  36.931   6.150
 8042POPC   C1A60591  22.913  36.916   6.450
 8042POPC   D2A60592  22.889  36.934   6.750
 8042POPC   C3A60593  22.935  36.940   7.050
 8042POPC   C4A60594  22.928  36.922   7.350
 8042POPC   C1B60595  22.675  36.921   6.450
 8042POPC   C2B60596  22.667  36.944   6.750
 8042POPC   C3B60597  22.725  36.944   7.050
 8042POPC   C4B60598  22.656  36.916   7.350
 8043POPC   NC360599  31.515  39.228   5.550
 8043POPC   PO460600  31.519  39.275   5.850
 8043POPC   GL160601  31.435  39.278   6.150
 8043POPC   GL260602  31.590  39.155   6.150
 8043POPC   C1A60603  31.507  39.194   6.450
 8043POPC   D2A60604  31.437  39.277   6.750
 8043POPC   C3A60605  31.518  39.203   7.050
 8043POPC   C4A60606  31.520  39.211   7.350
 8043POPC   C1B60607  31.651  39.069   6.450
 8043POPC   C2B60608  31.670  39.106   6.750
 8043POPC   C3B60609  31.648  39.095   7.050
 8043POPC   C4B60610  31.702  39.117   7.350
 8044POPC   NC360611  41.558  19.076   5.550
 8044POPC   PO460612  41.579  19.058   5.850
 8044POPC   GL160613  41.550  19.076   6.150
 8044POPC   GL260614  41.590  19.185   6.150
 8044POPC   C1A60615  41.558  19.078   6.450
 8044POPC   D2A60616  41.571  19.054   6.750
 8044POPC   C3A60617  41.535  19.086   7.050
 8044POPC   C4A60618  41.540  19.099   7.350
 8044POPC   C1B60619  41.540  19.337   6.450
 8044POPC   C2B60620  41.524  19.283   6.750
 8044POPC   C3B60621  41.607  19.341   7.050
 8044POPC   C4B60622  41.616  19.333   7.350
 8045POPC   NC360623  29.185  37.719   5.550
 8045POPC   PO460624  29.183  37.670   5.850
 8045POPC   GL160625  29.107  37.706   6.150
 8045POPC   GL260626  29.222  37.736   6.150
 8045POPC   C1A60627  29.174  37.636   6.450
 8045POPC   D2A60628  29.167  37.678   6.750
 8045POPC   C3A60629  29.117  37.668   7.050
 8045POPC   C4A60630  29.180  37.661   7.350
 8045POPC   C1B60631  29.283  37.850   6.450
 8045POPC   C2B60632  29.246  37.909   6.750
 8045POPC   C3B60633  29.280  37.908   7.050
 8045POPC   C4B60634  29.264  37.930   7.350
 8046POPC   NC360635  21.353  36.949   5.550
 8046POPC   PO460636  21.363  36.911   5.850
 8046POPC   GL160637  21.397  36.876   6.150
 8046POPC   GL260638  21.227  36.925   6.150
 8046POPC   C1A60639  21.415  36.910   6.450
 8046POPC   D2A60640  21.435  36.858   6.750
 8046POPC   C3A60641  21.398  36.909   7.050
 8046POPC   C4A60642  21.350  36.906   7.350
 8046POPC   C1B60643  21.166  37.003   6.450
 8046POPC   C2B60644  21.210  37.044   6.750
 8046POPC   C3B60645  21.205  37.035   7.050
 8046POPC   C4B60646  21.206  36.983   7.350
 8047POPC   NC360647  10.549  29.939   5.550
 8047POPC   PO460648  10.536  29.941   5.850
 8047POPC   GL160649  10.552  29.878   6.150
 8047POPC   GL260650  10.652  29.890   6.150
 8047POPC   C1A60651  10.527  29.874   6.450
 8047POPC   D2A60652  10.507  29.946   6.750
 8047POPC   C3A60653  10.512  29.930   7.050
 8047POPC   C4A60654  10.549  29.874   7.350
 8047POPC   C1B60655  10.787  29.811   6.450
 8047POPC   C2B60656  10.784  29.769   6.750
 8047POPC   C3B60657  10.724  29.758   7.050
 8047POPC   C4B60658  10.777  29.777   7.350
 8048POPC   NC360659  17.537  36.157   5.550
 8048POPC   PO460660  17.474  36.109   5.850
 8048POPC   GL160661  17.488  36.104   6.150
 8048POPC   GL260662  17.457  36.019   6.150
 8048POPC   C1A60663  17.539  36.123   6.450
 8048POPC   D2A60664  17.481  36.098   6.750
 8048POPC   C3A60665  17.469  36.125   7.050
 8048POPC   C4A60666  17.514  36.096   7.350
 8048POPC   C1B60667  17.448  35.835   6.450
 8048POPC   C2B60668  17.413  35.919   6.750
 8048POPC   C3B60669  17.472  35.920   7.050
 8048POPC   C4B60670  17.421  35.933   7.350
 8049POPC   NC360671  10.480   7.464   5.550
 8049POPC   PO460672  10.522   7.420   5.850
 8049POPC   GL160673  10.564   7.379   6.150
 8049POPC   GL260674  10.626   7.522   6.150
 8049POPC   C1A60675  10.554   7.394   6.450
 8049POPC   D2A60676  10.517   7.418   6.750
 8049POPC   C3A60677  10.538   7.422   7.050
 8049POPC   C4A60678  10.517   7.415   7.350
 8049POPC   C1B60679  10.624   7.591   6.450
 8049POPC   C2B60680  10.626   7.636   6.750
 8049POPC   C3B60681  10.691   7.608   7.050
 8049POPC   C4B60682  10.630   7.662   7.350
 8050POPC   NC360683  29.930  17.551   5.550
 8050POPC   PO460684  29.896  17.508   5.850
 8050POPC   GL160685  29.952  17.505   6.150
 8050POPC   GL260686  30.032  17.483   6.150
 8050POPC   C1A60687  29.926  17.465   6.450
 8050POPC   D2A60688  29.916  17.494   6.750
 8050POPC   C3A60689  29.947  17.463   7.050
 8050POPC   C4A60690  29.920  17.463   7.350
 8050POPC   C1B60691  30.121  17.451   6.450
 8050POPC   C2B60692  30.173  17.417   6.750
 8050POPC   C3B60693  30.176  17.465   7.050
 8050POPC   C4B60694  30.133  17.471   7.350
 8051POPC   NC360695  19.857  23.675   5.550
 8051POPC   PO460696  19.871  23.672   5.850
 8051POPC   GL160697  19.799  23.706   6.150
 8051POPC   GL260698  19.802  23.796   6.150
 8051POPC   C1A60699  19.850  23.664   6.450
 8051POPC   D2A60700  19.825  23.720   6.750
 8051POPC   C3A60701  19.833  23.689   7.050
 8051POPC   C4A60702  19.842  23.714   7.350
 8051POPC   C1B60703  19.809  23.933   6.450
 8051POPC   C2B60704  19.750  23.984   6.750
 8051POPC   C3B60705  19.831  23.962   7.050
 8051POPC   C4B60706  19.830  23.947   7.350
 8052POPC   NC360707   8.977  40.023   5.550
 8052POPC   PO460708   8.961  39.981   5.850
 8052POPC   GL160709   9.012  39.962   6.150
 8052POPC   GL260710   9.113  40.084   6.150
 8052POPC   C1A60711   9.019  39.999   6.450
 8052POPC   D2A60712   8.927  39.969   6.750
 8052POPC   C3A60713   9.014  40.015   7.050
 8052POPC   C4A60714   8.970  40.036   7.350
 8052POPC   C1B60715   9.258  40.050   6.450
 8052POPC   C2B60716   9.247  40.092   6.750
 8052POPC   C3B60717   9.171  40.114   7.050
 8052POPC   C4B60718   9.183  40.130   7.350
 8053POPC   NC360719  12.827  13.666   5.550
 8053POPC   PO460720  12.847  13.596   5.850
 8053POPC   GL160721  12.901  13.621   6.150
 8053POPC   GL260722  13.001  13.562   6.150
 8053POPC   C1A60723  12.871  13.581   6.450
 8053POPC   D2A60724  12.891  13.615   6.750
 8053POPC   C3A60725  12.825  13.637   7.050
 8053POPC   C4A60726  12.822  13.632   7.350
 8053POPC   C1B60727  13.084  13.603   6.450
 8053POPC   C2B60728  13.050  13.569   6.750
 8053POPC   C3B60729  13.045  13.534   7.050
 8053POPC   C4B60730  13.058  13.611   7.350
 8054POPC   NC360731  15.212   8.187   5.550
 8054POPC   PO460732  15.187   8.192   5.850
 8054POPC   GL160733  15.211   8.177   6.150
 8054POPC   GL260734  15.052   8.243   6.150
 8054POPC   C1A60735  15.206   8.188   6.450
 8054POPC   D2A60736  15.145   8.214   6.750
 8054POPC   C3A60737  15.145   8.191   7.050
 8054POPC   C4A60738  15.151   8.217   7.350
 8054POPC   C1B60739  14.912   8.287   6.450
 8054POPC   C2B60740  14.916   8.265   6.750
 8054POPC   C3B60741  14.992   8.327   7.050
 8054POPC   C4B60742  14.973   8.333   7.350
 8055POPC   NC360743  22.196  19.872   5.550
 8055POPC   PO460744  22.168  19.788   5.850
 8055POPC   GL160745  22.165  19.786   6.150
 8055POPC   GL260746  22.249  19.730   6.150
 8055POPC   C1A60747  22.112  19.863   6.450
 8055POPC   D2A60748  22.177  19.833   6.750
 8055POPC   C3A60749  22.211  19.807   7.050
 8055POPC   C4A60750  22.187  19.792   7.350
 8055POPC   C1B60751  22.307  19.690   6.450
 8055POPC   C2B60752  22.287  19.675   6.750
 8055POPC   C3B60753  22.340  19.620   7.050
 8055POPC   C4B60754  22.330  19.673   7.350
 8056POPC   NC360755  43.094   5.838   5.550
 8056POPC   PO460756  43.110   5.900   5.850
 8056POPC   GL160757  43.128   5.879   6.150
 8056POPC   GL260758  43.033   5.718   6.150
 8056POPC   C1A60759  43.089   5.827   6.450
 8056POPC   D2A60760  43.131   5.900   6.750
 8056POPC   C3A60761  43.110   5.862   7.050
 8056POPC   C4A60762  43.090   5.883   7.350
 8056POPC   C1B60763  43.037   5.626   6.450
 8056POPC   C2B60764  42.998   5.657   6.750
 8056POPC   C3B60765  43.009   5.678   7.050
 8056POPC   C4B60766  43.040   5.691   7.350
 8057POPC   NC360767  29.884   7.423   5.550
 8057POPC   PO460768  29.888   7.386   5.850
 8057POPC   GL160769  29.901   7.394   6.150
 8057POPC   GL260770  29.891   7.543   6.150
 8057POPC   C1A60771  29.921   7.439   6.450
 8057POPC   D2A60772  29.883   7.459   6.750
 8057POPC   C3A60773  29.960   7.467   7.050
 8057POPC   C4A60774  29.949   7.400   7.350
 8057POPC   C1B60775  29.858   7.714   6.450
 8057POPC   C2B60776  29.827   7.684   6.750
 8057POPC   C3B60777  29.876   7.680   7.050
 8057POPC   C4B60778  29.920   7.683   7.350
 8058POPC   NC360779   9.732   5.840   5.550
 8058POPC   PO460780   9.782   5.850   5.850
 8058POPC   GL160781   9.711   5.841   6.150
 8058POPC   GL260782   9.822   6.016   6.150
 8058POPC   C1A60783   9.702   5.906   6.450
 8058POPC   D2A60784   9.742   5.843   6.750
 8058POPC   C3A60785   9.731   5.865   7.050
 8058POPC   C4A60786   9.765   5.836   7.350
 8058POPC   C1B60787   9.788   6.151   6.450
 8058POPC   C2B60788   9.803   6.082   6.750
 8058POPC   C3B60789   9.866   6.101   7.050
 8058POPC   C4B60790   9.871   6.136   7.350
 8059POPC   NC360791  24.520   5.080   5.550
 8059POPC   PO460792  24.466   5.114   5.850
 8059POPC   GL160793  24.497   5.046   6.150
 8059POPC   GL260794  24.320   5.091   6.150
 8059POPC   C1A60795  24.531   5.059   6.450
 8059POPC   D2A60796  24.517   5.087   6.750
 8059POPC   C3A60797  24.501   5.077   7.050
 8059POPC   C4A60798  24.486   5.107   7.350
 8059POPC   C1B60799  24.290   5.192   6.450
 8059POPC   C2B60800  24.280   5.122   6.750
 8059POPC   C3B60801  24.231   5.108   7.050
 8059POPC   C4B60802  24.212   5.124   7.350
 8060POPC   NC360803  29.953  35.361   5.550
 8060POPC   PO460804  29.934  35.307   5.850
 8060POPC   GL160805  29.947  35.374   6.150
 8060POPC   GL260806  29.988  35.387   6.150
 8060POPC   C1A60807  29.936  35.328   6.450
 8060POPC   D2A60808  29.953  35.400   6.750
 8060POPC   C3A60809  29.875  35.353   7.050
 8060POPC   C4A60810  29.895  35.395   7.350
 8060POPC   C1B60811  30.117  35.433   6.450
 8060POPC   C2B60812  30.128  35.479   6.750
 8060POPC   C3B60813  30.139  35.394   7.050
 8060POPC   C4B60814  30.117  35.440   7.350
 8061POPC   NC360815  29.926  13.585   5.550
 8061POPC   PO460816  29.943  13.587   5.850
 8061POPC   GL160817  29.945  13.605   6.150
 8061POPC   GL260818  29.778  13.713   6.150
 8061POPC   C1A60819  29.906  13.597   6.450
 8061POPC   D2A60820  29.931  13.659   6.750
 8061POPC   C3A60821  29.939  13.580   7.050
 8061POPC   C4A60822  29.899  13.589   7.350
 8061POPC   C1B60823  29.677  13.819   6.450
 8061POPC   C2B60824  29.722  13.760   6.750
 8061POPC   C3B60825  29.696  13.809   7.050
 8061POPC   C4B60826  29.670  13.733   7.350
 8062POPC   NC360827  26.829  38.494   5.550
 8062POPC   PO460828  26.782  38.488   5.850
 8062POPC   GL160829  26.777  38.451   6.150
 8062POPC   GL260830  26.904  38.468   6.150
 8062POPC   C1A60831  26.824  38.457   6.450
 8062POPC   D2A60832  26.784  38.440   6.750
 8062POPC   C3A60833  26.859  38.433   7.050
 8062POPC   C4A60834  26.804  38.477   7.350
 8062POPC   C1B60835  27.064  38.382   6.450
 8062POPC   C2B60836  27.067  38.471   6.750
 8062POPC   C3B60837  27.093  38.419   7.050
 8062POPC   C4B60838  27.093  38.450   7.350
 8063POPC   NC360839  10.492  10.541   5.550
 8063POPC   PO460840  10.485  10.530   5.850
 8063POPC   GL160841  10.548  10.550   6.150
 8063POPC   GL260842  10.620  10.644   6.150
 8063POPC   C1A60843  10.545  10.500   6.450
 8063POPC   D2A60844  10.546  10.536   6.750
 8063POPC   C3A60845  10.507  10.517   7.050
 8063POPC   C4A60846  10.564  10.552   7.350
 8063POPC   C1B60847  10.630  10.737   6.450
 8063POPC   C2B60848  10.641  10.717   6.750
 8063POPC   C3B60849  10.649  10.729   7.050
 8063POPC   C4B60850  10.681  10.691   7.350
 8064POPC   NC360851  19.807  41.524   5.550
 8064POPC   PO460852  19.842  41.575   5.850
 8064POPC   GL160853  19.880  41.596   6.150
 8064POPC   GL260854  19.983  41.470   6.150
 8064POPC   C1A60855  19.840  41.604   6.450
 8064POPC   D2A60856  19.848  41.598   6.750
 8064POPC   C3A60857  19.791  41.608   7.050
 8064POPC   C4A60858  19.831  41.521   7.350
 8064POPC   C1B60859  20.087  41.448   6.450
 8064POPC   C2B60860  20.084  41.485   6.750
 8064POPC   C3B60861  20.028  41.492   7.050
 8064POPC   C4B60862  20.094  41.458   7.350
 8065POPC   NC360863   2.010  15.207   5.550
 8065POPC   PO460864   2.029  15.189   5.850
 8065POPC   GL160865   2.037  15.212   6.150
 8065POPC   GL260866   2.092  15.079   6.150
 8065POPC   C1A60867   1.980  15.224   6.450
 8065POPC   D2A60868   1.958  15.222   6.750
 8065POPC   C3A60869   1.987  15.203   7.050
 8065POPC   C4A60870   2.010  15.206   7.350
 8065POPC   C1B60871   2.129  14.956   6.450
 8065POPC   C2B60872   2.142  14.964   6.750
 8065POPC   C3B60873   2.161  14.961   7.050
 8065POPC   C4B60874   2.191  15.024   7.350
 8066POPC   NC360875  40.007  36.128   5.550
 8066POPC   PO460876  40.032  36.134   5.850
 8066POPC   GL160877  40.020  36.139   6.150
 8066POPC   GL260878  40.024  36.288   6.150
 8066POPC   C1A60879  40.003  36.154   6.450
 8066POPC   D2A60880  39.997  36.086   6.750
 8066POPC   C3A60881  40.050  36.084   7.050
 8066POPC   C4A60882  39.979  36.092   7.350
 8066POPC   C1B60883  40.083  36.341   6.450
 8066POPC   C2B60884  40.070  36.364   6.750
 8066POPC   C3B60885  40.028  36.350   7.050
 8066POPC   C4B60886  39.991  36.413   7.350
 8067POPC   NC360887  19.805   0.471   5.550
 8067POPC   PO460888  19.852   0.430   5.850
 8067POPC   GL160889  19.870   0.454   6.150
 8067POPC   GL260890  19.755   0.372   6.150
 8067POPC   C1A60891  19.811   0.458   6.450
 8067POPC   D2A60892  19.881   0.466   6.750
 8067POPC   C3A60893  19.856   0.416   7.050
 8067POPC   C4A60894  19.882   0.475   7.350
 8067POPC   C1B60895  19.685   0.260   6.450
 8067POPC   C2B60896  19.643   0.285   6.750
 8067POPC   C3B60897  19.685   0.252   7.050
 8067POPC   C4B60898  19.698   0.263   7.350
 8068POPC   NC360899  40.804  22.169   5.550
 8068POPC   PO460900  40.743  22.150   5.850
 8068POPC   GL160901  40.797  22.167   6.150
 8068POPC   GL260902  40.677  22.004   6.150
 8068POPC   C1A60903  40.795  22.210   6.450
 8068POPC   D2A60904  40.811  22.190   6.750
 8068POPC   C3A60905  40.788  22.115   7.050
 8068POPC   C4A60906  40.779  22.133   7.350
 8068POPC   C1B60907  40.623  21.951   6.450
 8068POPC   C2B60908  40.640  21.954   6.750
 8068POPC   C3B60909  40.666  21.969   7.050
 8068POPC   C4B60910  40.653  21.949   7.350
 8069POPC   NC360911   0.408  29.970   5.550
 8069POPC   PO460912   0.392  29.890   5.850
 8069POPC   GL160913   0.442  29.939   6.150
 8069POPC   GL260914   0.300  29.965   6.150
 8069POPC   C1A60915   0.439  29.894   6.450
 8069POPC   D2A60916   0.407  29.918   6.750
 8069POPC   C3A60917   0.456  29.962   7.050
 8069POPC   C4A60918   0.443  29.933   7.350
 8069POPC   C1B60919   0.219  30.065   6.450
 8069POPC   C2B60920   0.215  30.100   6.750
 8069POPC   C3B60921   0.240  30.082   7.050
 8069POPC   C4B60922   0.264  30.041   7.350
 8070POPC   NC360923  27.596  36.127   5.550
 8070POPC   PO460924  27.640  36.108   5.850
 8070POPC   GL160925  27.604  36.083   6.150
 8070POPC   GL260926  27.723  36.149   6.150
 8070POPC   C1A60927  27.643  36.149   6.450
 8070POPC   D2A60928  27.587  36.095   6.750
 8070POPC   C3A60929  27.631  36.088   7.050
 8070POPC   C4A60930  27.547  36.142   7.350
 8070POPC   C1B60931  27.806  36.230   6.450
 8070POPC   C2B60932  27.827  36.242   6.750
 8070POPC   C3B60933  27.843  36.272   7.050
 8070POPC   C4B60934  27.842  36.291   7.350
 8071POPC   NC360935  10.521  28.391   5.550
 8071POPC   PO460936  10.477  28.379   5.850
 8071POPC   GL160937  10.537  28.323   6.150
 8071POPC   GL260938  10.406  28.321   6.150
 8071POPC   C1A60939  10.573  28.376   6.450
 8071POPC   D2A60940  10.544  28.322   6.750
 8071POPC   C3A60941  10.495  28.394   7.050
 8071POPC   C4A60942  10.492  28.330   7.350
 8071POPC   C1B60943  10.344  28.244   6.450
 8071POPC   C2B60944  10.350  28.282   6.750
 8071POPC   C3B60945  10.347  28.252   7.050
 8071POPC   C4B60946  10.284  28.281   7.350
 8072POPC   NC360947  18.306  34.539   5.550
 8072POPC   PO460948  18.259  34.527   5.850
 8072POPC   GL160949  18.235  34.531   6.150
 8072POPC   GL260950  18.214  34.727   6.150
 8072POPC   C1A60951  18.308  34.570   6.450
 8072POPC   D2A60952  18.262  34.578   6.750
 8072POPC   C3A60953  18.290  34.594   7.050
 8072POPC   C4A60954  18.283  34.581   7.350
 8072POPC   C1B60955  18.191  34.830   6.450
 8072POPC   C2B60956  18.139  34.787   6.750
 8072POPC   C3B60957  18.130  34.752   7.050
 8072POPC   C4B60958  18.160  34.784   7.350
 8073POPC   NC360959   1.184  23.687   5.550
 8073POPC   PO460960   1.243  23.686   5.850
 8073POPC   GL160961   1.186  23.717   6.150
 8073POPC   GL260962   1.059  23.760   6.150
 8073POPC   C1A60963   1.213  23.672   6.450
 8073POPC   D2A60964   1.229  23.731   6.750
 8073POPC   C3A60965   1.175  23.745   7.050
 8073POPC   C4A60966   1.212  23.702   7.350
 8073POPC   C1B60967   0.947  23.796   6.450
 8073POPC   C2B60968   0.996  23.737   6.750
 8073POPC   C3B60969   0.941  23.768   7.050
 8073POPC   C4B60970   0.950  23.753   7.350
 8074POPC   NC360971  10.572  16.686   5.550
 8074POPC   PO460972  10.499  16.717   5.850
 8074POPC   GL160973  10.517  16.716   6.150
 8074POPC   GL260974  10.559  16.608   6.150
 8074POPC   C1A60975  10.539  16.751   6.450
 8074POPC   D2A60976  10.525  16.714   6.750
 8074POPC   C3A60977  10.512  16.708   7.050
 8074POPC   C4A60978  10.555  16.768   7.350
 8074POPC   C1B60979  10.676  16.509   6.450
 8074POPC   C2B60980  10.652  16.500   6.750
 8074POPC   C3B60981  10.700  16.520   7.050
 8074POPC   C4B60982  10.703  16.490   7.350
 8075POPC   NC360983   6.657  10.491   5.550
 8075POPC   PO460984   6.617  10.543   5.850
 8075POPC   GL160985   6.655  10.544   6.150
 8075POPC   GL260986   6.705  10.444   6.150
 8075POPC   C1A60987   6.661  10.520   6.450
 8075POPC   D2A60988   6.691  10.481   6.750
 8075POPC   C3A60989   6.692  10.546   7.050
 8075POPC   C4A60990   6.690  10.525   7.350
 8075POPC   C1B60991   6.686  10.286   6.450
 8075POPC   C2B60992   6.658  10.283   6.750
 8075POPC   C3B60993   6.716  10.300   7.050
 8075POPC   C4B60994   6.732  10.320   7.350
 8076POPC   NC360995  19.879   7.402   5.550
 8076POPC   PO460996  19.875   7.430   5.850
 8076POPC   GL160997  19.803   7.420   6.150
 8076POPC   GL260998  19.974   7.378   6.150
 8076POPC   C1A60999  19.795   7.407   6.450
 8076POPC   D2A61000  19.855   7.380   6.750
 8076POPC   C3A61001  19.835   7.455   7.050
 8076POPC   C4A61002  19.812   7.375   7.350
 8076POPC   C1B61003  20.070   7.421   6.450
 8076POPC   C2B61004  20.112   7.410   6.750
 8076POPC   C3B61005  20.108   7.466   7.050
 8076POPC   C4B61006  20.060   7.382   7.350
 8077POPC   NC361007  34.601  32.987   5.550
 8077POPC   PO461008  34.538  33.029   5.850
 8077POPC   GL161009  34.587  33.054   6.150
 8077POPC   GL261010  34.614  32.933   6.150
 8077POPC   C1A61011  34.534  33.018   6.450
 8077POPC   D2A61012  34.580  33.029   6.750
 8077POPC   C3A61013  34.547  33.052   7.050
 8077POPC   C4A61014  34.613  33.016   7.350
 8077POPC   C1B61015  34.709  32.803   6.450
 8077POPC   C2B61016  34.792  32.812   6.750
 8077POPC   C3B61017  34.780  32.864   7.050
 8077POPC   C4B61018  34.707  32.870   7.350
 8078POPC   NC361019  41.524  10.482   5.550
 8078POPC   PO461020  41.548  10.573   5.850
 8078POPC   GL161021  41.561  10.481   6.150
 8078POPC   GL261022  41.635  10.436   6.150
 8078POPC   C1A61023  41.583  10.554   6.450
 8078POPC   D2A61024  41.530  10.489   6.750
 8078POPC   C3A61025  41.583  10.538   7.050
 8078POPC   C4A61026  41.512  10.535   7.350
 8078POPC   C1B61027  41.619  10.233   6.450
 8078POPC   C2B61028  41.614  10.319   6.750
 8078POPC   C3B61029  41.628  10.298   7.050
 8078POPC   C4B61030  41.592  10.316   7.350
 8079POPC   NC361031  16.709  41.573   5.550
 8079POPC   PO461032  16.710  41.541   5.850
 8079POPC   GL161033  16.759  41.560   6.150
 8079POPC   GL261034  16.651  41.419   6.150
 8079POPC   C1A61035  16.709  41.545   6.450
 8079POPC   D2A61036  16.722  41.599   6.750
 8079POPC   C3A61037  16.745  41.600   7.050
 8079POPC   C4A61038  16.706  41.565   7.350
 8079POPC   C1B61039  16.698  41.363   6.450
 8079POPC   C2B61040  16.651  41.300   6.750
 8079POPC   C3B61041  16.641  41.367   7.050
 8079POPC   C4B61042  16.650  41.299   7.350
 8080POPC   NC361043  15.977  42.380   5.550
 8080POPC   PO461044  15.913  42.380   5.850
 8080POPC   GL161045  15.933  42.367   6.150
 8080POPC   GL261046  16.006  42.469   6.150
 8080POPC   C1A61047  15.981  42.337   6.450
 8080POPC   D2A61048  15.948  42.307   6.750
 8080POPC   C3A61049  16.001  42.376   7.050
 8080POPC   C4A61050  15.919  42.363   7.350
 8080POPC   C1B61051  15.954  42.594   6.450
 8080POPC   C2B61052  15.971  42.573   6.750
 8080POPC   C3B61053  15.916  42.579   7.050
 8080POPC   C4B61054  15.954  42.612   7.350
 8081POPC   NC361055  26.004   4.285   5.550
 8081POPC   PO461056  26.071   4.363   5.850
 8081POPC   GL161057  26.055   4.299   6.150
 8081POPC   GL261058  26.081   4.206   6.150
 8081POPC   C1A61059  26.051   4.295   6.450
 8081POPC   D2A61060  26.081   4.279   6.750
 8081POPC   C3A61061  25.998   4.352   7.050
 8081POPC   C4A61062  26.049   4.300   7.350
 8081POPC   C1B61063  26.094   4.103   6.450
 8081POPC   C2B61064  26.038   4.058   6.750
 8081POPC   C3B61065  26.067   4.020   7.050
 8081POPC   C4B61066  26.032   4.059   7.350
 8082POPC   NC361067  42.320  33.751   5.550
 8082POPC   PO461068  42.320  33.792   5.850
 8082POPC   GL161069  42.332  33.785   6.150
 8082POPC   GL261070  42.291  33.932   6.150
 8082POPC   C1A61071  42.349  33.802   6.450
 8082POPC   D2A61072  42.348  33.828   6.750
 8082POPC   C3A61073  42.290  33.775   7.050
 8082POPC   C4A61074  42.292  33.849   7.350
 8082POPC   C1B61075  42.243  34.047   6.450
 8082POPC   C2B61076  42.176  33.987   6.750
 8082POPC   C3B61077  42.172  34.014   7.050
 8082POPC   C4B61078  42.204  34.050   7.350
 8083POPC   NC361079  20.606  37.688   5.550
 8083POPC   PO461080  20.632  37.652   5.850
 8083POPC   GL161081  20.606  37.698   6.150
 8083POPC   GL261082  20.472  37.669   6.150
 8083POPC   C1A61083  20.651  37.640   6.450
 8083POPC   D2A61084  20.564  37.670   6.750
 8083POPC   C3A61085  20.563  37.634   7.050
 8083POPC   C4A61086  20.571  37.708   7.350
 8083POPC   C1B61087  20.413  37.592   6.450
 8083POPC   C2B61088  20.349  37.626   6.750
 8083POPC   C3B61089  20.425  37.543   7.050
 8083POPC   C4B61090  20.358  37.532   7.350
 8084POPC   NC361091  18.281  23.707   5.550
 8084POPC   PO461092  18.318  23.676   5.850
 8084POPC   GL161093  18.303  23.740   6.150
 8084POPC   GL261094  18.117  23.703   6.150
 8084POPC   C1A61095  18.240  23.728   6.450
 8084POPC   D2A61096  18.293  23.712   6.750
 8084POPC   C3A61097  18.274  23.757   7.050
 8084POPC   C4A61098  18.285  23.719   7.350
 8084POPC   C1B61099  18.004  23.593   6.450
 8084POPC   C2B61100  18.017  23.638   6.750
 8084POPC   C3B61101  18.032  23.622   7.050
 8084POPC   C4B61102  18.063  23.643   7.350
 8085POPC   NC361103  30.692  20.645   5.550
 8085POPC   PO461104  30.730  20.616   5.850
 8085POPC   GL161105  30.648  20.587   6.150
 8085POPC   GL261106  30.763  20.644   6.150
 8085POPC   C1A61107  30.667  20.652   6.450
 8085POPC   D2A61108  30.716  20.639   6.750
 8085POPC   C3A61109  30.650  20.590   7.050
 8085POPC   C4A61110  30.706  20.600   7.350
 8085POPC   C1B61111  30.932  20.790   6.450
 8085POPC   C2B61112  30.855  20.774   6.750
 8085POPC   C3B61113  30.883  20.749   7.050
 8085POPC   C4B61114  30.945  20.780   7.350
 8086POPC   NC361115  20.598  42.355   5.550
 8086POPC   PO461116  20.595  42.356   5.850
 8086POPC   GL161117  20.587  42.353   6.150
 8086POPC   GL261118  20.656  42.449   6.150
 8086POPC   C1A61119  20.603  42.345   6.450
 8086POPC   D2A61120  20.646  42.346   6.750
 8086POPC   C3A61121  20.597  42.338   7.050
 8086POPC   C4A61122  20.630  42.344   7.350
 8086POPC   C1B61123  20.727  42.517   6.450
 8086POPC   C2B61124  20.708  42.594   6.750
 8086POPC   C3B61125  20.715  42.550   7.050
 8086POPC   C4B61126  20.756  42.569   7.350
 8087POPC   NC361127   7.465  25.293   5.550
 8087POPC   PO461128   7.415  25.265   5.850
 8087POPC   GL161129   7.416  25.233   6.150
 8087POPC   GL261130   7.366  25.125   6.150
 8087POPC   C1A61131   7.410  25.284   6.450
 8087POPC   D2A61132   7.442  25.219   6.750
 8087POPC   C3A61133   7.389  25.285   7.050
 8087POPC   C4A61134   7.427  25.225   7.350
 8087POPC   C1B61135   7.425  25.011   6.450
 8087POPC   C2B61136   7.393  25.002   6.750
 8087POPC   C3B61137   7.401  25.056   7.050
 8087POPC   C4B61138   7.413  25.018   7.350
 8088POPC   NC361139  26.043  34.594   5.550
 8088POPC   PO461140  26.028  34.537   5.850
 8088POPC   GL161141  26.032  34.622   6.150
 8088POPC   GL261142  26.066  34.419   6.150
 8088POPC   C1A61143  26.041  34.553   6.450
 8088POPC   D2A61144  25.996  34.567   6.750
 8088POPC   C3A61145  26.073  34.597   7.050
 8088POPC   C4A61146  26.045  34.619   7.350
 8088POPC   C1B61147  26.006  34.310   6.450
 8088POPC   C2B61148  26.019  34.288   6.750
 8088POPC   C3B61149  26.068  34.298   7.050
 8088POPC   C4B61150  26.024  34.297   7.350
 8089POPC   NC361151  39.192   6.673   5.550
 8089POPC   PO461152  39.236   6.631   5.850
 8089POPC   GL161153  39.250   6.689   6.150
 8089POPC   GL261154  39.313   6.741   6.150
 8089POPC   C1A61155  39.250   6.618   6.450
 8089POPC   D2A61156  39.274   6.664   6.750
 8089POPC   C3A61157  39.243   6.626   7.050
 8089POPC   C4A61158  39.265   6.670   7.350
 8089POPC   C1B61159  39.483   6.829   6.450
 8089POPC   C2B61160  39.394   6.800   6.750
 8089POPC   C3B61161  39.425   6.764   7.050
 8089POPC   C4B61162  39.466   6.762   7.350
 8090POPC   NC361163  19.876   3.545   5.550
 8090POPC   PO461164  19.856   3.555   5.850
 8090POPC   GL161165  19.866   3.561   6.150
 8090POPC   GL261166  19.824   3.608   6.150
 8090POPC   C1A61167  19.882   3.513   6.450
 8090POPC   D2A61168  19.872   3.540   6.750
 8090POPC   C3A61169  19.808   3.524   7.050
 8090POPC   C4A61170  19.798   3.513   7.350
 8090POPC   C1B61171  19.723   3.793   6.450
 8090POPC   C2B61172  19.736   3.810   6.750
 8090POPC   C3B61173  19.773   3.750   7.050
 8090POPC   C4B61174  19.721   3.776   7.350
 8091POPC   NC361175  26.853  40.771   5.550
 8091POPC   PO461176  26.844  40.758   5.850
 8091POPC   GL161177  26.798  40.785   6.150
 8091POPC   GL261178  26.719  40.662   6.150
 8091POPC   C1A61179  26.864  40.738   6.450
 8091POPC   D2A61180  26.802  40.777   6.750
 8091POPC   C3A61181  26.788  40.741   7.050
 8091POPC   C4A61182  26.837  40.735   7.350
 8091POPC   C1B61183  26.683  40.562   6.450
 8091POPC   C2B61184  26.615  40.558   6.750
 8091POPC   C3B61185  26.613  40.547   7.050
 8091POPC   C4B61186  26.673  40.565   7.350
 8092POPC   NC361187  36.883   8.176   5.550
 8092POPC   PO461188  36.900   8.245   5.850
 8092POPC   GL161189  36.929   8.224   6.150
 8092POPC   GL261190  36.872   8.040   6.150
 8092POPC   C1A61191  36.896   8.193   6.450
 8092POPC   D2A61192  36.868   8.237   6.750
 8092POPC   C3A61193  36.908   8.243   7.050
 8092POPC   C4A61194  36.922   8.207   7.350
 8092POPC   C1B61195  36.914   7.900   6.450
 8092POPC   C2B61196  36.893   7.916   6.750
 8092POPC   C3B61197  36.965   7.952   7.050
 8092POPC   C4B61198  36.964   7.905   7.350
 8093POPC   NC361199  33.009  37.727   5.550
 8093POPC   PO461200  33.030  37.717   5.850
 8093POPC   GL161201  33.004  37.725   6.150
 8093POPC   GL261202  33.171  37.682   6.150
 8093POPC   C1A61203  32.976  37.700   6.450
 8093POPC   D2A61204  33.025  37.680   6.750
 8093POPC   C3A61205  32.993  37.705   7.050
 8093POPC   C4A61206  32.981  37.671   7.350
 8093POPC   C1B61207  33.213  37.572   6.450
 8093POPC   C2B61208  33.222  37.636   6.750
 8093POPC   C3B61209  33.233  37.583   7.050
 8093POPC   C4B61210  33.241  37.589   7.350
 8094POPC   NC361211  36.116  19.785   5.550
 8094POPC   PO461212  36.093  19.853   5.850
 8094POPC   GL161213  36.147  19.831   6.150
 8094POPC   GL261214  36.160  19.943   6.150
 8094POPC   C1A61215  36.100  19.796   6.450
 8094POPC   D2A61216  36.133  19.822   6.750
 8094POPC   C3A61217  36.144  19.790   7.050
 8094POPC   C4A61218  36.115  19.839   7.350
 8094POPC   C1B61219  36.223  20.057   6.450
 8094POPC   C2B61220  36.289  20.097   6.750
 8094POPC   C3B61221  36.286  20.106   7.050
 8094POPC   C4B61222  36.198  20.100   7.350
 8095POPC   NC361223  23.666  19.029   5.550
 8095POPC   PO461224  23.760  19.081   5.850
 8095POPC   GL161225  23.697  19.090   6.150
 8095POPC   GL261226  23.645  19.158   6.150
 8095POPC   C1A61227  23.694  19.076   6.450
 8095POPC   D2A61228  23.734  19.073   6.750
 8095POPC   C3A61229  23.746  19.049   7.050
 8095POPC   C4A61230  23.734  19.026   7.350
 8095POPC   C1B61231  23.612  19.283   6.450
 8095POPC   C2B61232  23.608  19.337   6.750
 8095POPC   C3B61233  23.635  19.271   7.050
 8095POPC   C4B61234  23.618  19.268   7.350
 8096POPC   NC361235   5.105  12.054   5.550
 8096POPC   PO461236   5.096  12.063   5.850
 8096POPC   GL161237   5.107  12.126   6.150
 8096POPC   GL261238   5.094  12.155   6.150
 8096POPC   C1A61239   5.049  12.041   6.450
 8096POPC   D2A61240   5.099  12.107   6.750
 8096POPC   C3A61241   5.137  12.076   7.050
 8096POPC   C4A61242   5.138  12.055   7.350
 8096POPC   C1B61243   5.199  12.279   6.450
 8096POPC   C2B61244   5.205  12.350   6.750
 8096POPC   C3B61245   5.195  12.348   7.050
 8096POPC   C4B61246   5.157  12.307   7.350
 8097POPC   NC361247  26.033  12.892   5.550
 8097POPC   PO461248  26.079  12.839   5.850
 8097POPC   GL161249  26.081  12.823   6.150
 8097POPC   GL261250  25.934  12.878   6.150
 8097POPC   C1A61251  26.055  12.821   6.450
 8097POPC   D2A61252  26.050  12.892   6.750
 8097POPC   C3A61253  26.057  12.889   7.050
 8097POPC   C4A61254  26.088  12.866   7.350
 8097POPC   C1B61255  25.839  12.947   6.450
 8097POPC   C2B61256  25.793  13.017   6.750
 8097POPC   C3B61257  25.864  13.012   7.050
 8097POPC   C4B61258  25.803  13.020   7.350
 8098POPC   NC361259  37.676  26.043   5.550
 8098POPC   PO461260  37.703  26.059   5.850
 8098POPC   GL161261  37.660  26.053   6.150
 8098POPC   GL261262  37.553  25.951   6.150
 8098POPC   C1A61263  37.657  26.007   6.450
 8098POPC   D2A61264  37.726  26.035   6.750
 8098POPC   C3A61265  37.710  26.049   7.050
 8098POPC   C4A61266  37.660  26.086   7.350
 8098POPC   C1B61267  37.456  25.900   6.450
 8098POPC   C2B61268  37.457  25.921   6.750
 8098POPC   C3B61269  37.449  25.943   7.050
 8098POPC   C4B61270  37.436  25.884   7.350
 8099POPC   NC361271   2.023  27.620   5.550
 8099POPC   PO461272   2.038  27.613   5.850
 8099POPC   GL161273   2.027  27.613   6.150
 8099POPC   GL261274   2.093  27.602   6.150
 8099POPC   C1A61275   1.951  27.574   6.450
 8099POPC   D2A61276   1.949  27.600   6.750
 8099POPC   C3A61277   1.994  27.579   7.050
 8099POPC   C4A61278   1.963  27.608   7.350
 8099POPC   C1B61279   2.203  27.683   6.450
 8099POPC   C2B61280   2.179  27.638   6.750
 8099POPC   C3B61281   2.272  27.666   7.050
 8099POPC   C4B61282   2.204  27.631   7.350
 8100POPC   NC361283  15.187  31.496   5.550
 8100POPC   PO461284  15.192  31.430   5.850
 8100POPC   GL161285  15.229  31.483   6.150
 8100POPC   GL261286  15.173  31.309   6.150
 8100POPC   C1A61287  15.159  31.518   6.450
 8100POPC   D2A61288  15.184  31.460   6.750
 8100POPC   C3A61289  15.187  31.450   7.050
 8100POPC   C4A61290  15.155  31.521   7.350
 8100POPC   C1B61291  15.274  31.232   6.450
 8100POPC   C2B61292  15.298  31.228   6.750
 8100POPC   C3B61293  15.221  31.219   7.050
 8100POPC   C4B61294  15.250  31.224   7.350
 8101POPC   NC361295  22.910  19.849   5.550
 8101POPC   PO461296  22.971  19.883   5.850
 8101POPC   GL161297  22.909  19.794   6.150
 8101POPC   GL261298  22.948  19.726   6.150
 8101POPC   C1A61299  22.974  19.842   6.450
 8101POPC   D2A61300  22.957  19.830   6.750
 8101POPC   C3A61301  22.960  19.802   7.050
 8101POPC   C4A61302  22.892  19.826   7.350
 8101POPC   C1B61303  23.022  19.634   6.450
 8101POPC   C2B61304  22.968  19.631   6.750
 8101POPC   C3B61305  23.010  19.578   7.050
 8101POPC   C4B61306  22.992  19.600   7.350
 8102POPC   NC361307  36.871  23.705   5.550
 8102POPC   PO461308  36.939  23.735   5.850
 8102POPC   GL161309  36.866  23.694   6.150
 8102POPC   GL261310  36.968  23.863   6.150
 8102POPC   C1A61311  36.871  23.742   6.450
 8102POPC   D2A61312  36.917  23.665   6.750
 8102POPC   C3A61313  36.856  23.723   7.050
 8102POPC   C4A61314  36.887  23.731   7.350
 8102POPC   C1B61315  36.949  23.939   6.450
 8102POPC   C2B61316  37.035  23.912   6.750
 8102POPC   C3B61317  36.952  23.984   7.050
 8102POPC   C4B61318  36.972  23.900   7.350
 8103POPC   NC361319   0.418  11.312   5.550
 8103POPC   PO461320   0.482  11.342   5.850
 8103POPC   GL161321   0.452  11.254   6.150
 8103POPC   GL261322   0.507  11.240   6.150
 8103POPC   C1A61323   0.466  11.339   6.450
 8103POPC   D2A61324   0.483  11.331   6.750
 8103POPC   C3A61325   0.404  11.304   7.050
 8103POPC   C4A61326   0.477  11.273   7.350
 8103POPC   C1B61327   0.622  11.207   6.450
 8103POPC   C2B61328   0.678  11.156   6.750
 8103POPC   C3B61329   0.619  11.188   7.050
 8103POPC   C4B61330   0.624  11.194   7.350
 8104POPC   NC361331  38.408  36.889   5.550
 8104POPC   PO461332  38.487  36.909   5.850
 8104POPC   GL161333  38.432  36.857   6.150
 8104POPC   GL261334  38.352  36.951   6.150
 8104POPC   C1A61335  38.475  36.873   6.450
 8104POPC   D2A61336  38.498  36.952   6.750
 8104POPC   C3A61337  38.444  36.924   7.050
 8104POPC   C4A61338  38.441  36.889   7.350
 8104POPC   C1B61339  38.189  37.014   6.450
 8104POPC   C2B61340  38.168  36.990   6.750
 8104POPC   C3B61341  38.171  36.922   7.050
 8104POPC   C4B61342  38.250  36.964   7.350
 8105POPC   NC361343  36.121  10.530   5.550
 8105POPC   PO461344  36.145  10.559   5.850
 8105POPC   GL161345  36.149  10.550   6.150
 8105POPC   GL261346  36.127  10.380   6.150
 8105POPC   C1A61347  36.092  10.555   6.450
 8105POPC   D2A61348  36.176  10.528   6.750
 8105POPC   C3A61349  36.143  10.507   7.050
 8105POPC   C4A61350  36.121  10.484   7.350
 8105POPC   C1B61351  36.210  10.329   6.450
 8105POPC   C2B61352  36.187  10.313   6.750
 8105POPC   C3B61353  36.172  10.307   7.050
 8105POPC   C4B61354  36.197  10.252   7.350
 8106POPC   NC361355  33.018  34.575   5.550
 8106POPC   PO461356  33.041  34.542   5.850
 8106POPC   GL161357  33.008  34.530   6.150
 8106POPC   GL261358  32.979  34.678   6.150
 8106POPC   C1A61359  33.003  34.580   6.450
 8106POPC   D2A61360  33.011  34.540   6.750
 8106POPC   C3A61361  33.016  34.621   7.050
 8106POPC   C4A61362  33.031  34.598   7.350
 8106POPC   C1B61363  32.835  34.708   6.450
 8106POPC   C2B61364  32.897  34.786   6.750
 8106POPC   C3B61365  32.861  34.762   7.050
 8106POPC   C4B61366  32.882  34.714   7.350
 8107POPC   NC361367  34.552  15.135   5.550
 8107POPC   PO461368  34.548  15.150   5.850
 8107POPC   GL161369  34.578  15.143   6.150
 8107POPC   GL261370  34.534  15.106   6.150
 8107POPC   C1A61371  34.544  15.220   6.450
 8107POPC   D2A61372  34.605  15.140   6.750
 8107POPC   C3A61373  34.531  15.140   7.050
 8107POPC   C4A61374  34.575  15.196   7.350
 8107POPC   C1B61375  34.384  14.947   6.450
 8107POPC   C2B61376  34.442  15.023   6.750
 8107POPC   C3B61377  34.431  14.987   7.050
 8107POPC   C4B61378  34.470  14.935   7.350
 8108POPC   NC361379  13.654  14.399   5.550
 8108POPC   PO461380  13.611  14.402   5.850
 8108POPC   GL161381  13.630  14.416   6.150
 8108POPC   GL261382  13.458  14.354   6.150
 8108POPC   C1A61383  13.592  14.360   6.450
 8108POPC   D2A61384  13.618  14.400   6.750
 8108POPC   C3A61385  13.673  14.369   7.050
 8108POPC   C4A61386  13.616  14.403   7.350
 8108POPC   C1B61387  13.417  14.339   6.450
 8108POPC   C2B61388  13.363  14.329   6.750
 8108POPC   C3B61389  13.409  14.348   7.050
 8108POPC   C4B61390  13.386  14.336   7.350
 8109POPC   NC361391   9.760  37.661   5.550
 8109POPC   PO461392   9.771  37.631   5.850
 8109POPC   GL161393   9.789  37.662   6.150
 8109POPC   GL261394   9.708  37.554   6.150
 8109POPC   C1A61395   9.702  37.672   6.450
 8109POPC   D2A61396   9.738  37.631   6.750
 8109POPC   C3A61397   9.778  37.682   7.050
 8109POPC   C4A61398   9.755  37.726   7.350
 8109POPC   C1B61399   9.582  37.446   6.450
 8109POPC   C2B61400   9.617  37.422   6.750
 8109POPC   C3B61401   9.612  37.480   7.050
 8109POPC   C4B61402   9.611  37.462   7.350
 8110POPC   NC361403   9.728  14.403   5.550
 8110POPC   PO461404   9.760  14.368   5.850
 8110POPC   GL161405   9.704  14.381   6.150
 8110POPC   GL261406   9.830  14.384   6.150
 8110POPC   C1A61407   9.782  14.443   6.450
 8110POPC   D2A61408   9.758  14.441   6.750
 8110POPC   C3A61409   9.771  14.430   7.050
 8110POPC   C4A61410   9.701  14.424   7.350
 8110POPC   C1B61411   9.996  14.322   6.450
 8110POPC   C2B61412   9.991  14.270   6.750
 8110POPC   C3B61413   9.959  14.318   7.050
 8110POPC   C4B61414   9.922  14.262   7.350
 8111POPC   NC361415  19.080  23.755   5.550
 8111POPC   PO461416  19.023  23.686   5.850
 8111POPC   GL161417  19.057  23.688   6.150
 8111POPC   GL261418  19.020  23.597   6.150
 8111POPC   C1A61419  19.044  23.671   6.450
 8111POPC   D2A61420  19.051  23.716   6.750
 8111POPC   C3A61421  19.018  23.697   7.050
 8111POPC   C4A61422  19.061  23.682   7.350
 8111POPC   C1B61423  18.905  23.506   6.450
 8111POPC   C2B61424  18.902  23.504   6.750
 8111POPC   C3B61425  18.958  23.454   7.050
 8111POPC   C4B61426  18.913  23.538   7.350
 8112POPC   NC361427   5.052  40.798   5.550
 8112POPC   PO461428   5.115  40.801   5.850
 8112POPC   GL161429   5.093  40.795   6.150
 8112POPC   GL261430   5.082  40.929   6.150
 8112POPC   C1A61431   5.112  40.752   6.450
 8112POPC   D2A61432   5.120  40.748   6.750
 8112POPC   C3A61433   5.045  40.807   7.050
 8112POPC   C4A61434   5.128  40.742   7.350
 8112POPC   C1B61435   5.076  41.017   6.450
 8112POPC   C2B61436   5.077  41.001   6.750
 8112POPC   C3B61437   5.059  41.072   7.050
 8112POPC   C4B61438   5.037  41.077   7.350
 8113POPC   NC361439  15.214  18.261   5.550
 8113POPC   PO461440  15.226  18.288   5.850
 8113POPC   GL161441  15.141  18.267   6.150
 8113POPC   GL261442  15.261  18.275   6.150
 8113POPC   C1A61443  15.146  18.266   6.450
 8113POPC   D2A61444  15.140  18.323   6.750
 8113POPC   C3A61445  15.138  18.324   7.050
 8113POPC   C4A61446  15.209  18.299   7.350
 8113POPC   C1B61447  15.403  18.318   6.450
 8113POPC   C2B61448  15.427  18.241   6.750
 8113POPC   C3B61449  15.458  18.324   7.050
 8113POPC   C4B61450  15.474  18.308   7.350
 8114POPC   NC361451  32.243  15.914   5.550
 8114POPC   PO461452  32.253  16.001   5.850
 8114POPC   GL161453  32.224  15.928   6.150
 8114POPC   GL261454  32.157  15.809   6.150
 8114POPC   C1A61455  32.219  15.978   6.450
 8114POPC   D2A61456  32.270  15.982   6.750
 8114POPC   C3A61457  32.226  15.957   7.050
 8114POPC   C4A61458  32.242  15.982   7.350
 8114POPC   C1B61459  32.158  15.750   6.450
 8114POPC   C2B61460  32.098  15.714   6.750
 8114POPC   C3B61461  32.149  15.719   7.050
 8114POPC   C4B61462  32.095  15.771   7.350
 8115POPC   NC361463  22.171  44.692   5.550
 8115POPC   PO461464  22.169  44.640   5.850
 8115POPC   GL161465  22.167  44.624   6.150
 8115POPC   GL261466  22.028  44.666   6.150
 8115POPC   C1A61467  22.169  44.706   6.450
 8115POPC   D2A61468  22.149  44.676   6.750
 8115POPC   C3A61469  22.160  44.667   7.050
 8115POPC   C4A61470  22.167  44.612   7.350
 8115POPC   C1B61471  21.877  44.618   6.450
 8115POPC   C2B61472  21.933  44.652   6.750
 8115POPC   C3B61473  21.872  44.669   7.050
 8115POPC   C4B61474  21.916  44.670   7.350
 8116POPC   NC361475  28.365  23.674   5.550
 8116POPC   PO461476  28.342  23.763   5.850
 8116POPC   GL161477  28.328  23.734   6.150
 8116POPC   GL261478  28.212  23.692   6.150
 8116POPC   C1A61479  28.358  23.702   6.450
 8116POPC   D2A61480  28.391  23.744   6.750
 8116POPC   C3A61481  28.372  23.706   7.050
 8116POPC   C4A61482  28.331  23.705   7.350
 8116POPC   C1B61483  28.111  23.588   6.450
 8116POPC   C2B61484  28.193  23.565   6.750
 8116POPC   C3B61485  28.104  23.612   7.050
 8116POPC   C4B61486  28.152  23.604   7.350
 8117POPC   NC361487  37.682   2.764   5.550
 8117POPC   PO461488  37.720   2.755   5.850
 8117POPC   GL161489  37.701   2.726   6.150
 8117POPC   GL261490  37.802   2.749   6.150
 8117POPC   C1A61491  37.635   2.736   6.450
 8117POPC   D2A61492  37.705   2.730   6.750
 8117POPC   C3A61493  37.640   2.790   7.050
 8117POPC   C4A61494  37.694   2.770   7.350
 8117POPC   C1B61495  37.955   2.751   6.450
 8117POPC   C2B61496  37.905   2.743   6.750
 8117POPC   C3B61497  37.919   2.730   7.050
 8117POPC   C4B61498  37.925   2.807   7.350
 8118POPC   NC361499  26.059  25.217   5.550
 8118POPC   PO461500  26.043  25.227   5.850
 8118POPC   GL161501  26.000  25.223   6.150
 8118POPC   GL261502  26.014  25.398   6.150
 8118POPC   C1A61503  26.031  25.303   6.450
 8118POPC   D2A61504  26.083  25.283   6.750
 8118POPC   C3A61505  26.016  25.295   7.050
 8118POPC   C4A61506  26.007  25.309   7.350
 8118POPC   C1B61507  25.872  25.469   6.450
 8118POPC   C2B61508  25.938  25.474   6.750
 8118POPC   C3B61509  25.909  25.520   7.050
 8118POPC   C4B61510  25.944  25.513   7.350
 8119POPC   NC361511  36.133  36.860   5.550
 8119POPC   PO461512  36.099  36.945   5.850
 8119POPC   GL161513  36.138  36.901   6.150
 8119POPC   GL261514  36.256  37.017   6.150
 8119POPC   C1A61515  36.156  36.878   6.450
 8119POPC   D2A61516  36.111  36.882   6.750
 8119POPC   C3A61517  36.159  36.870   7.050
 8119POPC   C4A61518  36.090  36.884   7.350
 8119POPC   C1B61519  36.306  37.028   6.450
 8119POPC   C2B61520  36.333  37.052   6.750
 8119POPC   C3B61521  36.358  37.092   7.050
 8119POPC   C4B61522  36.281  37.056   7.350
 8120POPC   NC361523   4.267  26.769   5.550
 8120POPC   PO461524   4.293  26.801   5.850
 8120POPC   GL161525   4.273  26.856   6.150
 8120POPC   GL261526   4.447  26.822   6.150
 8120POPC   C1A61527   4.336  26.800   6.450
 8120POPC   D2A61528   4.330  26.836   6.750
 8120POPC   C3A61529   4.367  26.832   7.050
 8120POPC   C4A61530   4.300  26.810   7.350
 8120POPC   C1B61531   4.565  26.890   6.450
 8120POPC   C2B61532   4.509  26.931   6.750
 8120POPC   C3B61533   4.545  26.876   7.050
 8120POPC   C4B61534   4.531  26.850   7.350
 8121POPC   NC361535  38.415  35.360   5.550
 8121POPC   PO461536  38.408  35.324   5.850
 8121POPC   GL161537  38.455  35.351   6.150
 8121POPC   GL261538  38.321  35.377   6.150
 8121POPC   C1A61539  38.452  35.375   6.450
 8121POPC   D2A61540  38.485  35.390   6.750
 8121POPC   C3A61541  38.479  35.348   7.050
 8121POPC   C4A61542  38.502  35.305   7.350
 8121POPC   C1B61543  38.163  35.434   6.450
 8121POPC   C2B61544  38.201  35.363   6.750
 8121POPC   C3B61545  38.168  35.421   7.050
 8121POPC   C4B61546  38.221  35.431   7.350
 8122POPC   NC361547  38.443  41.556   5.550
 8122POPC   PO461548  38.433  41.538   5.850
 8122POPC   GL161549  38.448  41.605   6.150
 8122POPC   GL261550  38.293  41.519   6.150
 8122POPC   C1A61551  38.469  41.583   6.450
 8122POPC   D2A61552  38.410  41.509   6.750
 8122POPC   C3A61553  38.490  41.575   7.050
 8122POPC   C4A61554  38.408  41.575   7.350
 8122POPC   C1B61555  38.222  41.415   6.450
 8122POPC   C2B61556  38.268  41.493   6.750
 8122POPC   C3B61557  38.205  41.444   7.050
 8122POPC   C4B61558  38.187  41.497   7.350
 8123POPC   NC361559  12.042  29.140   5.550
 8123POPC   PO461560  12.104  29.142   5.850
 8123POPC   GL161561  12.045  29.121   6.150
 8123POPC   GL261562  11.937  29.254   6.150
 8123POPC   C1A61563  12.111  29.098   6.450
 8123POPC   D2A61564  12.084  29.193   6.750
 8123POPC   C3A61565  12.100  29.139   7.050
 8123POPC   C4A61566  12.067  29.181   7.350
 8123POPC   C1B61567  11.934  29.308   6.450
 8123POPC   C2B61568  11.857  29.335   6.750
 8123POPC   C3B61569  11.944  29.354   7.050
 8123POPC   C4B61570  11.939  29.304   7.350
 8124POPC   NC361571   3.509   8.986   5.550
 8124POPC   PO461572   3.524   8.933   5.850
 8124POPC   GL161573   3.521   8.999   6.150
 8124POPC   GL261574   3.471   9.050   6.150
 8124POPC   C1A61575   3.494   9.001   6.450
 8124POPC   D2A61576   3.543   8.967   6.750
 8124POPC   C3A61577   3.501   9.010   7.050
 8124POPC   C4A61578   3.513   8.968   7.350
 8124POPC   C1B61579   3.382   9.141   6.450
 8124POPC   C2B61580   3.379   9.156   6.750
 8124POPC   C3B61581   3.399   9.191   7.050
 8124POPC   C4B61582   3.415   9.134   7.350
 8125POPC   NC361583   2.012  35.350   5.550
 8125POPC   PO461584   2.027  35.354   5.850
 8125POPC   GL161585   1.970  35.324   6.150
 8125POPC   GL261586   2.110  35.293   6.150
 8125POPC   C1A61587   1.971  35.310   6.450
 8125POPC   D2A61588   1.990  35.328   6.750
 8125POPC   C3A61589   1.971  35.392   7.050
 8125POPC   C4A61590   1.969  35.383   7.350
 8125POPC   C1B61591   2.196  35.193   6.450
 8125POPC   C2B61592   2.175  35.217   6.750
 8125POPC   C3B61593   2.227  35.211   7.050
 8125POPC   C4B61594   2.225  35.244   7.350
 8126POPC   NC361595  39.200  21.435   5.550
 8126POPC   PO461596  39.256  21.420   5.850
 8126POPC   GL161597  39.246  21.348   6.150
 8126POPC   GL261598  39.288  21.272   6.150
 8126POPC   C1A61599  39.276  21.384   6.450
 8126POPC   D2A61600  39.229  21.417   6.750
 8126POPC   C3A61601  39.263  21.379   7.050
 8126POPC   C4A61602  39.256  21.399   7.350
 8126POPC   C1B61603  39.456  21.229   6.450
 8126POPC   C2B61604  39.408  21.205   6.750
 8126POPC   C3B61605  39.449  21.233   7.050
 8126POPC   C4B61606  39.457  21.205   7.350
 8127POPC   NC361607  20.641  35.362   5.550
 8127POPC   PO461608  20.606  35.367   5.850
 8127POPC   GL161609  20.611  35.334   6.150
 8127POPC   GL261610  20.749  35.329   6.150
 8127POPC   C1A61611  20.566  35.382   6.450
 8127POPC   D2A61612  20.611  35.362   6.750
 8127POPC   C3A61613  20.592  35.326   7.050
 8127POPC   C4A61614  20.649  35.329   7.350
 8127POPC   C1B61615  20.842  35.291   6.450
 8127POPC   C2B61616  20.833  35.294   6.750
 8127POPC   C3B61617  20.847  35.296   7.050
 8127POPC   C4B61618  20.829  35.241   7.350
 8128POPC   NC361619  43.919  41.599   5.550
 8128POPC   PO461620  43.878  41.540   5.850
 8128POPC   GL161621  43.924  41.606   6.150
 8128POPC   GL261622  43.974  41.503   6.150
 8128POPC   C1A61623  43.872  41.601   6.450
 8128POPC   D2A61624  43.890  41.513   6.750
 8128POPC   C3A61625  43.855  41.597   7.050
 8128POPC   C4A61626  43.847  41.572   7.350
 8128POPC   C1B61627  44.111  41.473   6.450
 8128POPC   C2B61628  44.152  41.455   6.750
 8128POPC   C3B61629  44.153  41.444   7.050
 8128POPC   C4B61630  44.104  41.463   7.350
 8129POPC   NC361631  43.143  16.712   5.550
 8129POPC   PO461632  43.131  16.761   5.850
 8129POPC   GL161633  43.119  16.709   6.150
 8129POPC   GL261634  43.093  16.601   6.150
 8129POPC   C1A61635  43.126  16.776   6.450
 8129POPC   D2A61636  43.138  16.741   6.750
 8129POPC   C3A61637  43.143  16.713   7.050
 8129POPC   C4A61638  43.101  16.720   7.350
 8129POPC   C1B61639  43.174  16.459   6.450
 8129POPC   C2B61640  43.166  16.524   6.750
 8129POPC   C3B61641  43.202  16.459   7.050
 8129POPC   C4B61642  43.200  16.490   7.350
 8130POPC   NC361643  37.729   7.386   5.550
 8130POPC   PO461644  37.676   7.397   5.850
 8130POPC   GL161645  37.677   7.447   6.150
 8130POPC   GL261646  37.762   7.452   6.150
 8130POPC   C1A61647  37.649   7.423   6.450
 8130POPC   D2A61648  37.699   7.420   6.750
 8130POPC   C3A61649  37.718   7.390   7.050
 8130POPC   C4A61650  37.648   7.427   7.350
 8130POPC   C1B61651  37.884   7.547   6.450
 8130POPC   C2B61652  37.867   7.554   6.750
 8130POPC   C3B61653  37.873   7.534   7.050
 8130POPC   C4B61654  37.916   7.588   7.350
 8131POPC   NC361655   8.209  29.876   5.550
 8131POPC   PO461656   8.197  29.906   5.850
 8131POPC   GL161657   8.213  29.877   6.150
 8131POPC   GL261658   8.295  29.829   6.150
 8131POPC   C1A61659   8.191  29.873   6.450
 8131POPC   D2A61660   8.175  29.943   6.750
 8131POPC   C3A61661   8.186  29.872   7.050
 8131POPC   C4A61662   8.189  29.879   7.350
 8131POPC   C1B61663   8.329  29.774   6.450
 8131POPC   C2B61664   8.358  29.714   6.750
 8131POPC   C3B61665   8.337  29.684   7.050
 8131POPC   C4B61666   8.342  29.744   7.350
 8132POPC   NC361667  44.689  23.696   5.550
 8132POPC   PO461668  44.696  23.745   5.850
 8132POPC   GL161669  44.681  23.710   6.150
 8132POPC   GL261670  44.604  23.656   6.150
 8132POPC   C1A61671  44.664  23.753   6.450
 8132POPC   D2A61672  44.667  23.742   6.750
 8132POPC   C3A61673  44.669  23.723   7.050
 8132POPC   C4A61674  44.632  23.676   7.350
 8132POPC   C1B61675  44.491  23.550   6.450
 8132POPC   C2B61676  44.537  23.490   6.750
 8132POPC   C3B61677  44.514  23.505   7.050
 8132POPC   C4B61678  44.500  23.556   7.350
 8133POPC   NC361679  12.802  27.619   5.550
 8133POPC   PO461680  12.861  27.605   5.850
 8133POPC   GL161681  12.883  27.556   6.150
 8133POPC   GL261682  12.717  27.689   6.150
 8133POPC   C1A61683  12.879  27.629   6.450
 8133POPC   D2A61684  12.836  27.626   6.750
 8133POPC   C3A61685  12.860  27.571   7.050
 8133POPC   C4A61686  12.837  27.636   7.350
 8133POPC   C1B61687  12.673  27.691   6.450
 8133POPC   C2B61688  12.650  27.684   6.750
 8133POPC   C3B61689  12.626  27.696   7.050
 8133POPC   C4B61690  12.643  27.723   7.350
 8134POPC   NC361691  43.101  37.728   5.550
 8134POPC   PO461692  43.144  37.643   5.850
 8134POPC   GL161693  43.159  37.659   6.150
 8134POPC   GL261694  43.148  37.588   6.150
 8134POPC   C1A61695  43.112  37.681   6.450
 8134POPC   D2A61696  43.094  37.636   6.750
 8134POPC   C3A61697  43.073  37.717   7.050
 8134POPC   C4A61698  43.109  37.642   7.350
 8134POPC   C1B61699  43.105  37.386   6.450
 8134POPC   C2B61700  43.147  37.464   6.750
 8134POPC   C3B61701  43.117  37.440   7.050
 8134POPC   C4B61702  43.117  37.479   7.350
 8135POPC   NC361703  32.983  44.654   5.550
 8135POPC   PO461704  33.018  44.643   5.850
 8135POPC   GL161705  33.064  44.689   6.150
 8135POPC   GL261706  32.988  44.821   6.150
 8135POPC   C1A61707  32.986  44.616   6.450
 8135POPC   D2A61708  32.980  44.639   6.750
 8135POPC   C3A61709  33.063  44.616   7.050
 8135POPC   C4A61710  33.001  44.688   7.350
 8135POPC   C1B61711  32.994  44.891   6.450
 8135POPC   C2B61712  33.022  44.881   6.750
 8135POPC   C3B61713  33.022  44.878   7.050
 8135POPC   C4B61714  33.006  44.863   7.350
 8136POPC   NC361715  44.678  43.107   5.550
 8136POPC   PO461716  44.691  43.082   5.850
 8136POPC   GL161717  44.708  43.157   6.150
 8136POPC   GL261718  44.577  43.000   6.150
 8136POPC   C1A61719  44.688  43.113   6.450
 8136POPC   D2A61720  44.622  43.140   6.750
 8136POPC   C3A61721  44.660  43.098   7.050
 8136POPC   C4A61722  44.618  43.114   7.350
 8136POPC   C1B61723  44.471  42.945   6.450
 8136POPC   C2B61724  44.438  42.945   6.750
 8136POPC   C3B61725  44.533  42.968   7.050
 8136POPC   C4B61726  44.451  42.891   7.350
 8137POPC   NC361727  31.483   9.010   5.550
 8137POPC   PO461728  31.480   8.938   5.850
 8137POPC   GL161729  31.510   9.004   6.150
 8137POPC   GL261730  31.445   9.121   6.150
 8137POPC   C1A61731  31.423   8.924   6.450
 8137POPC   D2A61732  31.477   8.988   6.750
 8137POPC   C3A61733  31.428   8.963   7.050
 8137POPC   C4A61734  31.440   8.931   7.350
 8137POPC   C1B61735  31.349   9.191   6.450
 8137POPC   C2B61736  31.308   9.153   6.750
 8137POPC   C3B61737  31.305   9.188   7.050
 8137POPC   C4B61738  31.321   9.158   7.350
 8138POPC   NC361739  37.713  14.358   5.550
 8138POPC   PO461740  37.662  14.354   5.850
 8138POPC   GL161741  37.638  14.354   6.150
 8138POPC   GL261742  37.747  14.534   6.150
 8138POPC   C1A61743  37.706  14.442   6.450
 8138POPC   D2A61744  37.672  14.356   6.750
 8138POPC   C3A61745  37.723  14.361   7.050
 8138POPC   C4A61746  37.719  14.427   7.350
 8138POPC   C1B61747  37.852  14.619   6.450
 8138POPC   C2B61748  37.907  14.589   6.750
 8138POPC   C3B61749  37.864  14.552   7.050
 8138POPC   C4B61750  37.878  14.622   7.350
 8139POPC   NC361751  31.460  12.887   5.550
 8139POPC   PO461752  31.456  12.804   5.850
 8139POPC   GL161753  31.455  12.847   6.150
 8139POPC   GL261754  31.439  12.791   6.150
 8139POPC   C1A61755  31.518  12.849   6.450
 8139POPC   D2A61756  31.425  12.875   6.750
 8139POPC   C3A61757  31.460  12.859   7.050
 8139POPC   C4A61758  31.424  12.818   7.350
 8139POPC   C1B61759  31.312  12.591   6.450
 8139POPC   C2B61760  31.310  12.642   6.750
 8139POPC   C3B61761  31.379  12.612   7.050
 8139POPC   C4B61762  31.338  12.623   7.350
 8140POPC   NC361763  29.951   2.719   5.550
 8140POPC   PO461764  29.901   2.780   5.850
 8140POPC   GL161765  29.887   2.779   6.150
 8140POPC   GL261766  29.997   2.651   6.150
 8140POPC   C1A61767  29.900   2.783   6.450
 8140POPC   D2A61768  29.917   2.745   6.750
 8140POPC   C3A61769  29.884   2.735   7.050
 8140POPC   C4A61770  29.919   2.791   7.350
 8140POPC   C1B61771  30.149   2.628   6.450
 8140POPC   C2B61772  30.079   2.676   6.750
 8140POPC   C3B61773  30.170   2.619   7.050
 8140POPC   C4B61774  30.096   2.594   7.350
 8141POPC   NC361775  14.401  30.669   5.550
 8141POPC   PO461776  14.429  30.689   5.850
 8141POPC   GL161777  14.365  30.717   6.150
 8141POPC   GL261778  14.450  30.820   6.150
 8141POPC   C1A61779  14.423  30.739   6.450
 8141POPC   D2A61780  14.398  30.673   6.750
 8141POPC   C3A61781  14.393  30.652   7.050
 8141POPC   C4A61782  14.446  30.697   7.350
 8141POPC   C1B61783  14.604  30.922   6.450
 8141POPC   C2B61784  14.556  30.915   6.750
 8141POPC   C3B61785  14.565  30.879   7.050
 8141POPC   C4B61786  14.546  30.921   7.350
 8142POPC   NC361787  26.019  32.999   5.550
 8142POPC   PO461788  26.002  33.071   5.850
 8142POPC   GL161789  26.056  33.049   6.150
 8142POPC   GL261790  25.965  33.139   6.150
 8142POPC   C1A61791  26.073  33.012   6.450
 8142POPC   D2A61792  26.063  32.975   6.750
 8142POPC   C3A61793  26.045  33.062   7.050
 8142POPC   C4A61794  26.028  33.046   7.350
 8142POPC   C1B61795  25.891  33.206   6.450
 8142POPC   C2B61796  25.870  33.226   6.750
 8142POPC   C3B61797  25.832  33.188   7.050
 8142POPC   C4B61798  25.830  33.184   7.350
 8143POPC   NC361799  37.632  12.056   5.550
 8143POPC   PO461800  37.652  12.075   5.850
 8143POPC   GL161801  37.638  12.039   6.150
 8143POPC   GL261802  37.811  12.108   6.150
 8143POPC   C1A61803  37.716  12.126   6.450
 8143POPC   D2A61804  37.654  12.078   6.750
 8143POPC   C3A61805  37.649  12.104   7.050
 8143POPC   C4A61806  37.707  12.042   7.350
 8143POPC   C1B61807  37.909  12.076   6.450
 8143POPC   C2B61808  37.957  12.092   6.750
 8143POPC   C3B61809  37.907  12.087   7.050
 8143POPC   C4B61810  37.967  12.160   7.350
 8144POPC   NC361811  29.956  38.418   5.550
 8144POPC   PO461812  29.890  38.405   5.850
 8144POPC   GL161813  29.919  38.442   6.150
 8144POPC   GL261814  29.787  38.459   6.150
 8144POPC   C1A61815  29.916  38.456   6.450
 8144POPC   D2A61816  29.897  38.458   6.750
 8144POPC   C3A61817  29.892  38.471   7.050
 8144POPC   C4A61818  29.880  38.477   7.350
 8144POPC   C1B61819  29.713  38.387   6.450
 8144POPC   C2B61820  29.628  38.443   6.750
 8144POPC   C3B61821  29.714  38.438   7.050
 8144POPC   C4B61822  29.718  38.427   7.350
 8145POPC   NC361823  16.696  31.425   5.550
 8145POPC   PO461824  16.721  31.466   5.850
 8145POPC   GL161825  16.733  31.463   6.150
 8145POPC   GL261826  16.679  31.586   6.150
 8145POPC   C1A61827  16.765  31.464   6.450
 8145POPC   D2A61828  16.695  31.481   6.750
 8145POPC   C3A61829  16.724  31.434   7.050
 8145POPC   C4A61830  16.772  31.476   7.350
 8145POPC   C1B61831  16.547  31.653   6.450
 8145POPC   C2B61832  16.522  31.635   6.750
 8145POPC   C3B61833  16.589  31.616   7.050
 8145POPC   C4B61834  16.593  31.662   7.350
 8146POPC   NC361835  30.716  27.631   5.550
 8146POPC   PO461836  30.735  27.632   5.850
 8146POPC   GL161837  30.660  27.556   6.150
 8146POPC   GL261838  30.823  27.542   6.150
 8146POPC   C1A61839  30.664  27.638   6.450
 8146POPC   D2A61840  30.709  27.630   6.750
 8146POPC   C3A61841  30.721  27.615   7.050
 8146POPC   C4A61842  30.651  27.565   7.350
 8146POPC   C1B61843  30.882  27.477   6.450
 8146POPC   C2B61844  30.885  27.426   6.750
 8146POPC   C3B61845  30.942  27.469   7.050
 8146POPC   C4B61846  30.886  27.501   7.350
 8147POPC   NC361847  28.350  11.333   5.550
 8147POPC   PO461848  28.320  11.273   5.850
 8147POPC   GL161849  28.365  11.323   6.150
 8147POPC   GL261850  28.382  11.204   6.150
 8147POPC   C1A61851  28.332  11.340   6.450
 8147POPC   D2A61852  28.346  11.321   6.750
 8147POPC   C3A61853  28.350  11.275   7.050
 8147POPC   C4A61854  28.400  11.268   7.350
 8147POPC   C1B61855  28.434  11.038   6.450
 8147POPC   C2B61856  28.383  11.062   6.750
 8147POPC   C3B61857  28.367  11.061   7.050
 8147POPC   C4B61858  28.417  11.046   7.350
 8148POPC   NC361859   9.748  16.704   5.550
 8148POPC   PO461860   9.736  16.699   5.850
 8148POPC   GL161861   9.737  16.731   6.150
 8148POPC   GL261862   9.611  16.718   6.150
 8148POPC   C1A61863   9.785  16.756   6.450
 8148POPC   D2A61864   9.730  16.778   6.750
 8148POPC   C3A61865   9.781  16.701   7.050
 8148POPC   C4A61866   9.755  16.722   7.350
 8148POPC   C1B61867   9.481  16.721   6.450
 8148POPC   C2B61868   9.490  16.698   6.750
 8148POPC   C3B61869   9.508  16.716   7.050
 8148POPC   C4B61870   9.473  16.690   7.350
 8149POPC   NC361871  22.175  37.637   5.550
 8149POPC   PO461872  22.124  37.726   5.850
 8149POPC   GL161873  22.209  37.706   6.150
 8149POPC   GL261874  22.285  37.665   6.150
 8149POPC   C1A61875  22.190  37.716   6.450
 8149POPC   D2A61876  22.134  37.698   6.750
 8149POPC   C3A61877  22.185  37.728   7.050
 8149POPC   C4A61878  22.199  37.663   7.350
 8149POPC   C1B61879  22.389  37.669   6.450
 8149POPC   C2B61880  22.445  37.721   6.750
 8149POPC   C3B61881  22.451  37.751   7.050
 8149POPC   C4B61882  22.411  37.732   7.350
 8150POPC   NC361883  36.887  28.336   5.550
 8150POPC   PO461884  36.946  28.406   5.850
 8150POPC   GL161885  36.901  28.414   6.150
 8150POPC   GL261886  37.065  28.399   6.150
 8150POPC   C1A61887  36.936  28.388   6.450
 8150POPC   D2A61888  36.945  28.411   6.750
 8150POPC   C3A61889  36.907  28.417   7.050
 8150POPC   C4A61890  36.859  28.321   7.350
 8150POPC   C1B61891  37.156  28.432   6.450
 8150POPC   C2B61892  37.169  28.431   6.750
 8150POPC   C3B61893  37.178  28.474   7.050
 8150POPC   C4B61894  37.106  28.454   7.350
 8151POPC   NC361895  35.352  29.182   5.550
 8151POPC   PO461896  35.334  29.151   5.850
 8151POPC   GL161897  35.347  29.163   6.150
 8151POPC   GL261898  35.194  29.078   6.150
 8151POPC   C1A61899  35.308  29.145   6.450
 8151POPC   D2A61900  35.373  29.128   6.750
 8151POPC   C3A61901  35.382  29.168   7.050
 8151POPC   C4A61902  35.342  29.176   7.350
 8151POPC   C1B61903  35.105  29.015   6.450
 8151POPC   C2B61904  35.160  29.037   6.750
 8151POPC   C3B61905  35.153  29.059   7.050
 8151POPC   C4B61906  35.143  29.058   7.350
 8152POPC   NC361907  35.342   0.397   5.550
 8152POPC   PO461908  35.310   0.484   5.850
 8152POPC   GL161909  35.328   0.400   6.150
 8152POPC   GL261910  35.482   0.466   6.150
 8152POPC   C1A61911  35.343   0.390   6.450
 8152POPC   D2A61912  35.367   0.421   6.750
 8152POPC   C3A61913  35.373   0.403   7.050
 8152POPC   C4A61914  35.341   0.483   7.350
 8152POPC   C1B61915  35.564   0.482   6.450
 8152POPC   C2B61916  35.546   0.526   6.750
 8152POPC   C3B61917  35.633   0.529   7.050
 8152POPC   C4B61918  35.570   0.555   7.350
 8153POPC   NC361919  43.142  44.680   5.550
 8153POPC   PO461920  43.146  44.642   5.850
 8153POPC   GL161921  43.113  44.633   6.150
 8153POPC   GL261922  43.207  44.596   6.150
 8153POPC   C1A61923  43.100  44.660   6.450
 8153POPC   D2A61924  43.103  44.691   6.750
 8153POPC   C3A61925  43.141  44.690   7.050
 8153POPC   C4A61926  43.110  44.670   7.350
 8153POPC   C1B61927  43.345  44.607   6.450
 8153POPC   C2B61928  43.391  44.640   6.750
 8153POPC   C3B61929  43.357  44.632   7.050
 8153POPC   C4B61930  43.378  44.636   7.350
 8154POPC   NC361931  15.910  10.520   5.550
 8154POPC   PO461932  15.926  10.500   5.850
 8154POPC   GL161933  15.989  10.532   6.150
 8154POPC   GL261934  16.090  10.504   6.150
 8154POPC   C1A61935  15.921  10.509   6.450
 8154POPC   D2A61936  15.996  10.489   6.750
 8154POPC   C3A61937  15.911  10.505   7.050
 8154POPC   C4A61938  15.989  10.528   7.350
 8154POPC   C1B61939  16.203  10.462   6.450
 8154POPC   C2B61940  16.180  10.414   6.750
 8154POPC   C3B61941  16.135  10.455   7.050
 8154POPC   C4B61942  16.190  10.419   7.350
 8155POPC   NC361943  12.827  19.841   5.550
 8155POPC   PO461944  12.802  19.826   5.850
 8155POPC   GL161945  12.892  19.876   6.150
 8155POPC   GL261946  12.809  19.953   6.150
 8155POPC   C1A61947  12.863  19.802   6.450
 8155POPC   D2A61948  12.875  19.862   6.750
 8155POPC   C3A61949  12.811  19.850   7.050
 8155POPC   C4A61950  12.863  19.815   7.350
 8155POPC   C1B61951  12.817  20.060   6.450
 8155POPC   C2B61952  12.809  20.088   6.750
 8155POPC   C3B61953  12.781  20.125   7.050
 8155POPC   C4B61954  12.860  20.081   7.350
 8156POPC   NC361955  20.600  36.123   5.550
 8156POPC   PO461956  20.636  36.151   5.850
 8156POPC   GL161957  20.589  36.121   6.150
 8156POPC   GL261958  20.467  36.220   6.150
 8156POPC   C1A61959  20.640  36.175   6.450
 8156POPC   D2A61960  20.575  36.120   6.750
 8156POPC   C3A61961  20.623  36.088   7.050
 8156POPC   C4A61962  20.628  36.129   7.350
 8156POPC   C1B61963  20.404  36.307   6.450
 8156POPC   C2B61964  20.374  36.283   6.750
 8156POPC   C3B61965  20.410  36.321   7.050
 8156POPC   C4B61966  20.422  36.313   7.350
 8157POPC   NC361967  32.998  29.104   5.550
 8157POPC   PO461968  33.023  29.146   5.850
 8157POPC   GL161969  33.054  29.127   6.150
 8157POPC   GL261970  32.931  29.220   6.150
 8157POPC   C1A61971  32.997  29.154   6.450
 8157POPC   D2A61972  32.977  29.168   6.750
 8157POPC   C3A61973  32.975  29.185   7.050
 8157POPC   C4A61974  33.040  29.107   7.350
 8157POPC   C1B61975  32.924  29.315   6.450
 8157POPC   C2B61976  32.909  29.345   6.750
 8157POPC   C3B61977  32.859  29.408   7.050
 8157POPC   C4B61978  32.937  29.336   7.350
 8158POPC   NC361979  37.707  35.344   5.550
 8158POPC   PO461980  37.666  35.361   5.850
 8158POPC   GL161981  37.724  35.341   6.150
 8158POPC   GL261982  37.528  35.323   6.150
 8158POPC   C1A61983  37.697  35.387   6.450
 8158POPC   D2A61984  37.672  35.370   6.750
 8158POPC   C3A61985  37.638  35.332   7.050
 8158POPC   C4A61986  37.685  35.320   7.350
 8158POPC   C1B61987  37.468  35.206   6.450
 8158POPC   C2B61988  37.452  35.201   6.750
 8158POPC   C3B61989  37.499  35.189   7.050
 8158POPC   C4B61990  37.474  35.262   7.350
 8159POPC   NC361991  43.865  19.013   5.550
 8159POPC   PO461992  43.850  19.094   5.850
 8159POPC   GL161993  43.858  19.017   6.150
 8159POPC   GL261994  43.862  19.135   6.150
 8159POPC   C1A61995  43.912  19.041   6.450
 8159POPC   D2A61996  43.921  19.036   6.750
 8159POPC   C3A61997  43.852  19.025   7.050
 8159POPC   C4A61998  43.932  19.107   7.350
 8159POPC   C1B61999  43.825  19.339   6.450
 8159POPC   C2B62000  43.855  19.265   6.750
 8159POPC   C3B62001  43.872  19.265   7.050
 8159POPC   C4B62002  43.857  19.328   7.350
 8160POPC   NC362003  35.326   6.623   5.550
 8160POPC   PO462004  35.374   6.618   5.850
 8160POPC   GL162005  35.382   6.625   6.150
 8160POPC   GL262006  35.388   6.543   6.150
 8160POPC   C1A62007  35.348   6.662   6.450
 8160POPC   D2A62008  35.318   6.679   6.750
 8160POPC   C3A62009  35.341   6.596   7.050
 8160POPC   C4A62010  35.390   6.638   7.350
 8160POPC   C1B62011  35.525   6.477   6.450
 8160POPC   C2B62012  35.487   6.449   6.750
 8160POPC   C3B62013  35.526   6.424   7.050
 8160POPC   C4B62014  35.521   6.424   7.350
 8161POPC   NC362015  41.596   4.280   5.550
 8161POPC   PO462016  41.555   4.342   5.850
 8161POPC   GL162017  41.553   4.356   6.150
 8161POPC   GL262018  41.650   4.362   6.150
 8161POPC   C1A62019  41.583   4.330   6.450
 8161POPC   D2A62020  41.545   4.306   6.750
 8161POPC   C3A62021  41.579   4.275   7.050
 8161POPC   C4A62022  41.527   4.292   7.350
 8161POPC   C1B62023  41.852   4.329   6.450
 8161POPC   C2B62024  41.831   4.299   6.750
 8161POPC   C3B62025  41.812   4.346   7.050
 8161POPC   C4B62026  41.785   4.328   7.350
 8162POPC   NC362027  26.075  42.352   5.550
 8162POPC   PO462028  26.056  42.367   5.850
 8162POPC   GL162029  26.006  42.374   6.150
 8162POPC   GL262030  25.969  42.302   6.150
 8162POPC   C1A62031  26.086  42.328   6.450
 8162POPC   D2A62032  26.057  42.363   6.750
 8162POPC   C3A62033  26.017  42.375   7.050
 8162POPC   C4A62034  26.088  42.328   7.350
 8162POPC   C1B62035  25.836  42.288   6.450
 8162POPC   C2B62036  25.782  42.268   6.750
 8162POPC   C3B62037  25.768  42.290   7.050
 8162POPC   C4B62038  25.835  42.285   7.350
 8163POPC   NC362039   3.525  39.978   5.550
 8163POPC   PO462040   3.506  39.979   5.850
 8163POPC   GL162041   3.495  40.004   6.150
 8163POPC   GL262042   3.571  40.127   6.150
 8163POPC   C1A62043   3.514  40.057   6.450
 8163POPC   D2A62044   3.562  40.037   6.750
 8163POPC   C3A62045   3.530  39.962   7.050
 8163POPC   C4A62046   3.535  39.970   7.350
 8163POPC   C1B62047   3.688  40.177   6.450
 8163POPC   C2B62048   3.658  40.214   6.750
 8163POPC   C3B62049   3.657  40.204   7.050
 8163POPC   C4B62050   3.708  40.248   7.350
 8164POPC   NC362051  44.650  13.640   5.550
 8164POPC   PO462052  44.663  13.585   5.850
 8164POPC   GL162053  44.633  13.673   6.150
 8164POPC   GL262054  44.713  13.731   6.150
 8164POPC   C1A62055  44.654  13.621   6.450
 8164POPC   D2A62056  44.650  13.582   6.750
 8164POPC   C3A62057  44.710  13.662   7.050
 8164POPC   C4A62058  44.667  13.661   7.350
 8164POPC   C1B62059  44.749  13.898   6.450
 8164POPC   C2B62060  44.688  13.824   6.750
 8164POPC   C3B62061  44.687  13.854   7.050
 8164POPC   C4B62062  44.687  13.840   7.350
 8165POPC   NC362063  43.118  26.831   5.550
 8165POPC   PO462064  43.062  26.856   5.850
 8165POPC   GL162065  43.104  26.839   6.150
 8165POPC   GL262066  43.223  26.785   6.150
 8165POPC   C1A62067  43.082  26.839   6.450
 8165POPC   D2A62068  43.145  26.771   6.750
 8165POPC   C3A62069  43.117  26.858   7.050
 8165POPC   C4A62070  43.089  26.784   7.350
 8165POPC   C1B62071  43.393  26.757   6.450
 8165POPC   C2B62072  43.401  26.800   6.750
 8165POPC   C3B62073  43.340  26.814   7.050
 8165POPC   C4B62074  43.375  26.839   7.350
 8166POPC   NC362075  33.797  10.530   5.550
 8166POPC   PO462076  33.773  10.567   5.850
 8166POPC   GL162077  33.798  10.551   6.150
 8166POPC   GL262078  33.840  10.410   6.150
 8166POPC   C1A62079  33.791  10.557   6.450
 8166POPC   D2A62080  33.790  10.526   6.750
 8166POPC   C3A62081  33.847  10.475   7.050
 8166POPC   C4A62082  33.818  10.547   7.350
 8166POPC   C1B62083  33.986  10.338   6.450
 8166POPC   C2B62084  33.961  10.373   6.750
 8166POPC   C3B62085  33.998  10.313   7.050
 8166POPC   C4B62086  33.954  10.295   7.350
 8167POPC   NC362087  10.479  40.020   5.550
 8167POPC   PO462088  10.526  39.960   5.850
 8167POPC   GL162089  10.480  40.020   6.150
 8167POPC   GL262090  10.542  40.147   6.150
 8167POPC   C1A62091  10.547  40.001   6.450
 8167POPC   D2A62092  10.493  39.968   6.750
 8167POPC   C3A62093  10.568  40.006   7.050
 8167POPC   C4A62094  10.547  39.980   7.350
 8167POPC   C1B62095  10.630  40.198   6.450
 8167POPC   C2B62096  10.626  40.257   6.750
 8167POPC   C3B62097  10.602  40.260   7.050
 8167POPC   C4B62098  10.552  40.253   7.350
 8168POPC   NC362099  30.674  16.698   5.550
 8168POPC   PO462100  30.736  16.761   5.850
 8168POPC   GL162101  30.647  16.758   6.150
 8168POPC   GL262102  30.553  16.736   6.150
 8168POPC   C1A62103  30.708  16.752   6.450
 8168POPC   D2A62104  30.725  16.729   6.750
 8168POPC   C3A62105  30.668  16.768   7.050
 8168POPC   C4A62106  30.704  16.741   7.350
 8168POPC   C1B62107  30.470  16.698   6.450
 8168POPC   C2B62108  30.440  16.689   6.750
 8168POPC   C3B62109  30.413  16.696   7.050
 8168POPC   C4B62110  30.494  16.768   7.350
 8169POPC   NC362111  39.958  30.661   5.550
 8169POPC   PO462112  39.997  30.744   5.850
 8169POPC   GL162113  40.008  30.715   6.150
 8169POPC   GL262114  40.162  30.657   6.150
 8169POPC   C1A62115  40.043  30.735   6.450
 8169POPC   D2A62116  40.022  30.669   6.750
 8169POPC   C3A62117  40.011  30.708   7.050
 8169POPC   C4A62118  39.960  30.723   7.350
 8169POPC   C1B62119  40.171  30.547   6.450
 8169POPC   C2B62120  40.238  30.587   6.750
 8169POPC   C3B62121  40.249  30.567   7.050
 8169POPC   C4B62122  40.219  30.541   7.350
 8170POPC   NC362123  10.565  21.340   5.550
 8170POPC   PO462124  10.487  21.359   5.850
 8170POPC   GL162125  10.508  21.348   6.150
 8170POPC   GL262126  10.555  21.531   6.150
 8170POPC   C1A62127  10.547  21.343   6.450
 8170POPC   D2A62128  10.559  21.366   6.750
 8170POPC   C3A62129  10.524  21.398   7.050
 8170POPC   C4A62130  10.481  21.354   7.350
 8170POPC   C1B62131  10.700  21.578   6.450
 8170POPC   C2B62132  10.655  21.564   6.750
 8170POPC   C3B62133  10.680  21.577   7.050
 8170POPC   C4B62134  10.655  21.576   7.350
 8171POPC   NC362135  23.677   5.086   5.550
 8171POPC   PO462136  23.764   5.071   5.850
 8171POPC   GL162137  23.736   5.078   6.150
 8171POPC   GL262138  23.739   4.968   6.150
 8171POPC   C1A62139  23.707   5.098   6.450
 8171POPC   D2A62140  23.724   5.048   6.750
 8171POPC   C3A62141  23.698   5.139   7.050
 8171POPC   C4A62142  23.694   5.066   7.350
 8171POPC   C1B62143  23.752   4.826   6.450
 8171POPC   C2B62144  23.678   4.885   6.750
 8171POPC   C3B62145  23.694   4.867   7.050
 8171POPC   C4B62146  23.715   4.827   7.350
 8172POPC   NC362147  39.280  15.219   5.550
 8172POPC   PO462148  39.226  15.192   5.850
 8172POPC   GL162149  39.235  15.177   6.150
 8172POPC   GL262150  39.398  15.216   6.150
 8172POPC   C1A62151  39.238  15.186   6.450
 8172POPC   D2A62152  39.193  15.170   6.750
 8172POPC   C3A62153  39.253  15.202   7.050
 8172POPC   C4A62154  39.240  15.156   7.350
 8172POPC   C1B62155  39.522  15.129   6.450
 8172POPC   C2B62156  39.476  15.198   6.750
 8172POPC   C3B62157  39.450  15.161   7.050
 8172POPC   C4B62158  39.514  15.180   7.350
 8173POPC   NC362159  42.307  19.045   5.550
 8173POPC   PO462160  42.304  19.065   5.850
 8173POPC   GL162161  42.374  19.055   6.150
 8173POPC   GL262162  42.388  19.165   6.150
 8173POPC   C1A62163  42.333  19.050   6.450
 8173POPC   D2A62164  42.348  19.104   6.750
 8173POPC   C3A62165  42.324  19.090   7.050
 8173POPC   C4A62166  42.318  19.107   7.350
 8173POPC   C1B62167  42.367  19.274   6.450
 8173POPC   C2B62168  42.443  19.293   6.750
 8173POPC   C3B62169  42.449  19.297   7.050
 8173POPC   C4B62170  42.428  19.257   7.350
 8174POPC   NC362171   9.713   9.004   5.550
 8174POPC   PO462172   9.727   8.999   5.850
 8174POPC   GL162173   9.746   8.988   6.150
 8174POPC   GL262174   9.583   8.955   6.150
 8174POPC   C1A62175   9.767   9.021   6.450
 8174POPC   D2A62176   9.767   8.939   6.750
 8174POPC   C3A62177   9.783   9.014   7.050
 8174POPC   C4A62178   9.798   8.934   7.350
 8174POPC   C1B62179   9.483   8.955   6.450
 8174POPC   C2B62180   9.504   8.967   6.750
 8174POPC   C3B62181   9.520   8.928   7.050
 8174POPC   C4B62182   9.478   8.936   7.350
 8175POPC   NC362183  32.294  14.380   5.550
 8175POPC   PO462184  32.271  14.450   5.850
 8175POPC   GL162185  32.292  14.433   6.150
 8175POPC   GL262186  32.405  14.462   6.150
 8175POPC   C1A62187  32.215  14.415   6.450
 8175POPC   D2A62188  32.256  14.452   6.750
 8175POPC   C3A62189  32.284  14.387   7.050
 8175POPC   C4A62190  32.249  14.404   7.350
 8175POPC   C1B62191  32.456  14.554   6.450
 8175POPC   C2B62192  32.436  14.575   6.750
 8175POPC   C3B62193  32.510  14.560   7.050
 8175POPC   C4B62194  32.492  14.542   7.350
 8176POPC   NC362195  42.367  22.922   5.550
 8176POPC   PO462196  42.325  22.972   5.850
 8176POPC   GL162197  42.328  22.910   6.150
 8176POPC   GL262198  42.369  22.868   6.150
 8176POPC   C1A62199  42.343  22.918   6.450
 8176POPC   D2A62200  42.375  22.938   6.750
 8176POPC   C3A62201  42.290  22.910   7.050
 8176POPC   C4A62202  42.362  22.914   7.350
 8176POPC   C1B62203  42.468  22.698   6.450
 8176POPC   C2B62204  42.454  22.768   6.750
 8176POPC   C3B62205  42.412  22.679   7.050
 8176POPC   C4B62206  42.460  22.718   7.350
 8177POPC   NC362207  39.239  40.025   5.550
 8177POPC   PO462208  39.198  39.958   5.850
 8177POPC   GL162209  39.265  39.958   6.150
 8177POPC   GL262210  39.086  40.013   6.150
 8177POPC   C1A62211  39.267  40.013   6.450
 8177POPC   D2A62212  39.209  40.008   6.750
 8177POPC   C3A62213  39.204  39.979   7.050
 8177POPC   C4A62214  39.200  40.053   7.350
 8177POPC   C1B62215  39.031  40.091   6.450
 8177POPC   C2B62216  39.038  40.066   6.750
 8177POPC   C3B62217  38.994  40.090   7.050
 8177POPC   C4B62218  38.944  40.030   7.350
 8178POPC   NC362219  11.284   0.419   5.550
 8178POPC   PO462220  11.317   0.392   5.850
 8178POPC   GL162221  11.345   0.465   6.150
 8178POPC   GL262222  11.163   0.516   6.150
 8178POPC   C1A62223  11.280   0.469   6.450
 8178POPC   D2A62224  11.349   0.460   6.750
 8178POPC   C3A62225  11.294   0.463   7.050
 8178POPC   C4A62226  11.312   0.414   7.350
 8178POPC   C1B62227  11.071   0.543   6.450
 8178POPC   C2B62228  11.089   0.527   6.750
 8178POPC   C3B62229  11.022   0.501   7.050
 8178POPC   C4B62230  11.025   0.485   7.350
 8179POPC   NC362231   5.093  36.931   5.550
 8179POPC   PO462232   5.131  36.887   5.850
 8179POPC   GL162233   5.109  36.931   6.150
 8179POPC   GL262234   5.178  36.792   6.150
 8179POPC   C1A62235   5.143  36.869   6.450
 8179POPC   D2A62236   5.115  36.919   6.750
 8179POPC   C3A62237   5.126  36.952   7.050
 8179POPC   C4A62238   5.092  36.908   7.350
 8179POPC   C1B62239   5.213  36.643   6.450
 8179POPC   C2B62240   5.204  36.718   6.750
 8179POPC   C3B62241   5.205  36.646   7.050
 8179POPC   C4B62242   5.181  36.679   7.350
 8180POPC   NC362243  36.881  35.362   5.550
 8180POPC   PO462244  36.874  35.345   5.850
 8180POPC   GL162245  36.952  35.355   6.150
 8180POPC   GL262246  36.827  35.229   6.150
 8180POPC   C1A62247  36.906  35.370   6.450
 8180POPC   D2A62248  36.861  35.334   6.750
 8180POPC   C3A62249  36.933  35.382   7.050
 8180POPC   C4A62250  36.867  35.362   7.350
 8180POPC   C1B62251  36.669  35.153   6.450
 8180POPC   C2B62252  36.728  35.230   6.750
 8180POPC   C3B62253  36.686  35.201   7.050
 8180POPC   C4B62254  36.692  35.249   7.350
 8181POPC   NC362255  24.452   4.282   5.550
 8181POPC   PO462256  24.493   4.351   5.850
 8181POPC   GL162257  24.471   4.333   6.150
 8181POPC   GL262258  24.353   4.274   6.150
 8181POPC   C1A62259  24.532   4.323   6.450
 8181POPC   D2A62260  24.528   4.271   6.750
 8181POPC   C3A62261  24.531   4.281   7.050
 8181POPC   C4A62262  24.538   4.278   7.350
 8181POPC   C1B62263  24.209   4.246   6.450
 8181POPC   C2B62264  24.212   4.299   6.750
 8181POPC   C3B62265  24.205   4.204   7.050
 8181POPC   C4B62266  24.235   4.231   7.350
 8182POPC   NC362267   9.708   9.709   5.550
 8182POPC   PO462268   9.763   9.759   5.850
 8182POPC   GL162269   9.768   9.763   6.150
 8182POPC   GL262270   9.830   9.874   6.150
 8182POPC   C1A62271   9.747   9.793   6.450
 8182POPC   D2A62272   9.766   9.786   6.750
 8182POPC   C3A62273   9.765   9.711   7.050
 8182POPC   C4A62274   9.778   9.763   7.350
 8182POPC   C1B62275   9.912   9.873   6.450
 8182POPC   C2B62276   9.972   9.867   6.750
 8182POPC   C3B62277   9.903   9.948   7.050
 8182POPC   C4B62278   9.974   9.911   7.350
 8183POPC   NC362279   2.789  33.811   5.550
 8183POPC   PO462280   2.760  33.847   5.850
 8183POPC   GL162281   2.776  33.774   6.150
 8183POPC   GL262282   2.777  33.689   6.150
 8183POPC   C1A62283   2.716  33.821   6.450
 8183POPC   D2A62284   2.773  33.794   6.750
 8183POPC   C3A62285   2.777  33.803   7.050
 8183POPC   C4A62286   2.716  33.760   7.350
 8183POPC   C1B62287   2.798  33.593   6.450
 8183POPC   C2B62288   2.870  33.607   6.750
 8183POPC   C3B62289   2.818  33.527   7.050
 8183POPC   C4B62290   2.881  33.511   7.350
 8184POPC   NC362291  35.377  40.754   5.550
 8184POPC   PO462292  35.325  40.772   5.850
 8184POPC   GL162293  35.382  40.804   6.150
 8184POPC   GL262294  35.193  40.729   6.150
 8184POPC   C1A62295  35.363  40.785   6.450
 8184POPC   D2A62296  35.329  40.757   6.750
 8184POPC   C3A62297  35.376  40.752   7.050
 8184POPC   C4A62298  35.388  40.791   7.350
 8184POPC   C1B62299  35.128  40.766   6.450
 8184POPC   C2B62300  35.090  40.710   6.750
 8184POPC   C3B62301  35.064  40.746   7.050
 8184POPC   C4B62302  35.140  40.729   7.350
 8185POPC   NC362303  23.730   6.623   5.550
 8185POPC   PO462304  23.762   6.688   5.850
 8185POPC   GL162305  23.755   6.656   6.150
 8185POPC   GL262306  23.752   6.751   6.150
 8185POPC   C1A62307  23.706   6.637   6.450
 8185POPC   D2A62308  23.753   6.683   6.750
 8185POPC   C3A62309  23.713   6.624   7.050
 8185POPC   C4A62310  23.691   6.688   7.350
 8185POPC   C1B62311  23.685   6.874   6.450
 8185POPC   C2B62312  23.748   6.866   6.750
 8185POPC   C3B62313  23.694   6.886   7.050
 8185POPC   C4B62314  23.688   6.931   7.350
 8186POPC   NC362315  43.906   7.456   5.550
 8186POPC   PO462316  43.907   7.430   5.850
 8186POPC   GL162317  43.885   7.440   6.150
 8186POPC   GL262318  43.763   7.453   6.150
 8186POPC   C1A62319  43.870   7.417   6.450
 8186POPC   D2A62320  43.846   7.387   6.750
 8186POPC   C3A62321  43.837   7.374   7.050
 8186POPC   C4A62322  43.893   7.470   7.350
 8186POPC   C1B62323  43.680   7.491   6.450
 8186POPC   C2B62324  43.639   7.443   6.750
 8186POPC   C3B62325  43.602   7.408   7.050
 8186POPC   C4B62326  43.613   7.469   7.350
 8187POPC   NC362327  26.847  30.699   5.550
 8187POPC   PO462328  26.813  30.705   5.850
 8187POPC   GL162329  26.790  30.703   6.150
 8187POPC   GL262330  26.756  30.607   6.150
 8187POPC   C1A62331  26.779  30.728   6.450
 8187POPC   D2A62332  26.850  30.685   6.750
 8187POPC   C3A62333  26.782  30.706   7.050
 8187POPC   C4A62334  26.828  30.654   7.350
 8187POPC   C1B62335  26.643  30.587   6.450
 8187POPC   C2B62336  26.639  30.525   6.750
 8187POPC   C3B62337  26.647  30.498   7.050
 8187POPC   C4B62338  26.589  30.540   7.350
 8188POPC   NC362339   9.757  40.002   5.550
 8188POPC   PO462340   9.729  39.996   5.850
 8188POPC   GL162341   9.729  39.993   6.150
 8188POPC   GL262342   9.751  40.149   6.150
 8188POPC   C1A62343   9.797  39.986   6.450
 8188POPC   D2A62344   9.723  39.984   6.750
 8188POPC   C3A62345   9.789  39.977   7.050
 8188POPC   C4A62346   9.710  40.029   7.350
 8188POPC   C1B62347   9.808  40.231   6.450
 8188POPC   C2B62348   9.828  40.271   6.750
 8188POPC   C3B62349   9.893  40.186   7.050
 8188POPC   C4B62350   9.846  40.267   7.350
 8189POPC   NC362351   8.964   5.081   5.550
 8189POPC   PO462352   9.016   5.123   5.850
 8189POPC   GL162353   8.960   5.074   6.150
 8189POPC   GL262354   8.862   5.076   6.150
 8189POPC   C1A62355   8.958   5.130   6.450
 8189POPC   D2A62356   8.953   5.097   6.750
 8189POPC   C3A62357   9.013   5.098   7.050
 8189POPC   C4A62358   8.935   5.083   7.350
 8189POPC   C1B62359   8.731   4.933   6.450
 8189POPC   C2B62360   8.736   4.928   6.750
 8189POPC   C3B62361   8.760   4.996   7.050
 8189POPC   C4B62362   8.740   4.951   7.350
 8190POPC   NC362363  24.493  36.866   5.550
 8190POPC   PO462364  24.464  36.930   5.850
 8190POPC   GL162365  24.512  36.927   6.150
 8190POPC   GL262366  24.517  36.821   6.150
 8190POPC   C1A62367  24.477  36.889   6.450
 8190POPC   D2A62368  24.535  36.915   6.750
 8190POPC   C3A62369  24.477  36.910   7.050
 8190POPC   C4A62370  24.454  36.869   7.350
 8190POPC   C1B62371  24.624  36.657   6.450
 8190POPC   C2B62372  24.613  36.722   6.750
 8190POPC   C3B62373  24.578  36.653   7.050
 8190POPC   C4B62374  24.560  36.719   7.350
 8191POPC   NC362375  21.351   1.176   5.550
 8191POPC   PO462376  21.385   1.263   5.850
 8191POPC   GL162377  21.353   1.221   6.150
 8191POPC   GL262378  21.433   1.149   6.150
 8191POPC   C1A62379  21.355   1.235   6.450
 8191POPC   D2A62380  21.392   1.192   6.750
 8191POPC   C3A62381  21.354   1.213   7.050
 8191POPC   C4A62382  21.410   1.223   7.350
 8191POPC   C1B62383  21.567   1.007   6.450
 8191POPC   C2B62384  21.586   1.018   6.750
 8191POPC   C3B62385  21.562   1.033   7.050
 8191POPC   C4B62386  21.586   1.087   7.350
 8192POPC   NC362387   0.438  16.688   5.550
 8192POPC   PO462388   0.414  16.767   5.850
 8192POPC   GL162389   0.427  16.759   6.150
 8192POPC   GL262390   0.512  16.791   6.150
 8192POPC   C1A62391   0.478  16.683   6.450
 8192POPC   D2A62392   0.394  16.724   6.750
 8192POPC   C3A62393   0.482  16.733   7.050
 8192POPC   C4A62394   0.446  16.699   7.350
 8192POPC   C1B62395   0.690  16.818   6.450
 8192POPC   C2B62396   0.656  16.799   6.750
 8192POPC   C3B62397   0.651  16.771   7.050
 8192POPC   C4B62398   0.666  16.810   7.350
 8193POPC   NC362399  14.440  22.982   5.550
 8193POPC   PO462400  14.402  22.943   5.850
 8193POPC   GL162401  14.432  22.907   6.150
 8193POPC   GL262402  14.453  22.826   6.150
 8193POPC   C1A62403  14.360  22.972   6.450
 8193POPC   D2A62404  14.420  22.933   6.750
 8193POPC   C3A62405  14.422  22.957   7.050
 8193POPC   C4A62406  14.375  22.891   7.350
 8193POPC   C1B62407  14.533  22.785   6.450
 8193POPC   C2B62408  14.536  22.753   6.750
 8193POPC   C3B62409  14.568  22.728   7.050
 8193POPC   C4B62410  14.570  22.754   7.350
 8194POPC   NC362411  36.927   9.735   5.550
 8194POPC   PO462412  36.889   9.728   5.850
 8194POPC   GL162413  36.873   9.734   6.150
 8194POPC   GL262414  36.941   9.602   6.150
 8194POPC   C1A62415  36.899   9.754   6.450
 8194POPC   D2A62416  36.904   9.704   6.750
 8194POPC   C3A62417  36.953   9.772   7.050
 8194POPC   C4A62418  36.923   9.750   7.350
 8194POPC   C1B62419  37.095   9.569   6.450
 8194POPC   C2B62420  37.046   9.516   6.750
 8194POPC   C3B62421  37.088   9.497   7.050
 8194POPC   C4B62422  37.091   9.519   7.350
 8195POPC   NC362423  26.826  32.212   5.550
 8195POPC   PO462424  26.801  32.219   5.850
 8195POPC   GL162425  26.792  32.288   6.150
 8195POPC   GL262426  26.775  32.156   6.150
 8195POPC   C1A62427  26.789  32.247   6.450
 8195POPC   D2A62428  26.789  32.296   6.750
 8195POPC   C3A62429  26.837  32.261   7.050
 8195POPC   C4A62430  26.848  32.202   7.350
 8195POPC   C1B62431  26.744  31.975   6.450
 8195POPC   C2B62432  26.789  31.978   6.750
 8195POPC   C3B62433  26.777  31.989   7.050
 8195POPC   C4B62434  26.782  31.990   7.350
 8196POPC   NC362435   1.242   6.663   5.550
 8196POPC   PO462436   1.227   6.639   5.850
 8196POPC   GL162437   1.207   6.666   6.150
 8196POPC   GL262438   1.205   6.772   6.150
 8196POPC   C1A62439   1.191   6.689   6.450
 8196POPC   D2A62440   1.243   6.672   6.750
 8196POPC   C3A62441   1.260   6.595   7.050
 8196POPC   C4A62442   1.228   6.649   7.350
 8196POPC   C1B62443   1.146   6.853   6.450
 8196POPC   C2B62444   1.211   6.841   6.750
 8196POPC   C3B62445   1.175   6.842   7.050
 8196POPC   C4B62446   1.174   6.846   7.350
 8197POPC   NC362447   2.742   3.542   5.550
 8197POPC   PO462448   2.789   3.501   5.850
 8197POPC   GL162449   2.755   3.575   6.150
 8197POPC   GL262450   2.711   3.642   6.150
 8197POPC   C1A62451   2.726   3.535   6.450
 8197POPC   D2A62452   2.799   3.530   6.750
 8197POPC   C3A62453   2.735   3.494   7.050
 8197POPC   C4A62454   2.769   3.532   7.350
 8197POPC   C1B62455   2.757   3.833   6.450
 8197POPC   C2B62456   2.733   3.778   6.750
 8197POPC   C3B62457   2.696   3.771   7.050
 8197POPC   C4B62458   2.767   3.794   7.350
 8198POPC   NC362459  16.712  36.174   5.550
 8198POPC   PO462460  16.741  36.107   5.850
 8198POPC   GL162461  16.760  36.160   6.150
 8198POPC   GL262462  16.872  36.029   6.150
 8198POPC   C1A62463  16.690  36.145   6.450
 8198POPC   D2A62464  16.744  36.131   6.750
 8198POPC   C3A62465  16.727  36.150   7.050
 8198POPC   C4A62466  16.776  36.131   7.350
 8198POPC   C1B62467  16.919  35.957   6.450
 8198POPC   C2B62468  16.885  35.985   6.750
 8198POPC   C3B62469  16.919  36.008   7.050
 8198POPC   C4B62470  16.887  35.961   7.350
 8199POPC   NC362471  22.900   0.486   5.550
 8199POPC   PO462472  22.981   0.412   5.850
 8199POPC   GL162473  22.934   0.414   6.150
 8199POPC   GL262474  22.852   0.457   6.150
 8199POPC   C1A62475  22.936   0.400   6.450
 8199POPC   D2A62476  22.927   0.441   6.750
 8199POPC   C3A62477  22.910   0.409   7.050
 8199POPC   C4A62478  22.899   0.436   7.350
 8199POPC   C1B62479  22.734   0.472   6.450
 8199POPC   C2B62480  22.666   0.466   6.750
 8199POPC   C3B62481  22.676   0.483   7.050
 8199POPC   C4B62482  22.695   0.497   7.350
 8200POPC   NC362483  17.551  34.620   5.550
 8200POPC   PO462484  17.541  34.585   5.850
 8200POPC   GL162485  17.504  34.534   6.150
 8200POPC   GL262486  17.476  34.706   6.150
 8200POPC   C1A62487  17.553  34.534   6.450
 8200POPC   D2A62488  17.519  34.548   6.750
 8200POPC   C3A62489  17.498  34.557   7.050
 8200POPC   C4A62490  17.468  34.621   7.350
 8200POPC   C1B62491  17.398  34.812   6.450
 8200POPC   C2B62492  17.423  34.752   6.750
 8200POPC   C3B62493  17.351  34.769   7.050
 8200POPC   C4B62494  17.350  34.785   7.350
 8201POPC   NC362495  24.464   5.844   5.550
 8201POPC   PO462496  24.483   5.867   5.850
 8201POPC   GL162497  24.465   5.888   6.150
 8201POPC   GL262498  24.438   5.789   6.150
 8201POPC   C1A62499  24.499   5.896   6.450
 8201POPC   D2A62500  24.529   5.901   6.750
 8201POPC   C3A62501  24.442   5.856   7.050
 8201POPC   C4A62502  24.479   5.899   7.350
 8201POPC   C1B62503  24.409   5.629   6.450
 8201POPC   C2B62504  24.429   5.639   6.750
 8201POPC   C3B62505  24.381   5.638   7.050
 8201POPC   C4B62506  24.366   5.605   7.350
 8202POPC   NC362507  35.361  25.310   5.550
 8202POPC   PO462508  35.361  25.235   5.850
 8202POPC   GL162509  35.376  25.312   6.150
 8202POPC   GL262510  35.346  25.360   6.150
 8202POPC   C1A62511  35.330  25.285   6.450
 8202POPC   D2A62512  35.393  25.299   6.750
 8202POPC   C3A62513  35.319  25.249   7.050
 8202POPC   C4A62514  35.398  25.236   7.350
 8202POPC   C1B62515  35.317  25.551   6.450
 8202POPC   C2B62516  35.392  25.507   6.750
 8202POPC   C3B62517  35.410  25.499   7.050
 8202POPC   C4B62518  35.412  25.484   7.350
 8203POPC   NC362519  15.948  29.898   5.550
 8203POPC   PO462520  15.942  29.913   5.850
 8203POPC   GL162521  15.915  29.880   6.150
 8203POPC   GL262522  15.992  30.030   6.150
 8203POPC   C1A62523  15.949  29.884   6.450
 8203POPC   D2A62524  15.958  29.933   6.750
 8203POPC   C3A62525  15.949  29.908   7.050
 8203POPC   C4A62526  15.963  29.912   7.350
 8203POPC   C1B62527  16.071  30.203   6.450
 8203POPC   C2B62528  16.050  30.126   6.750
 8203POPC   C3B62529  16.027  30.146   7.050
 8203POPC   C4B62530  16.019  30.197   7.350
 8204POPC   NC362531  25.269   7.378   5.550
 8204POPC   PO462532  25.299   7.379   5.850
 8204POPC   GL162533  25.269   7.440   6.150
 8204POPC   GL262534  25.268   7.325   6.150
 8204POPC   C1A62535  25.274   7.404   6.450
 8204POPC   D2A62536  25.247   7.446   6.750
 8204POPC   C3A62537  25.219   7.422   7.050
 8204POPC   C4A62538  25.253   7.430   7.350
 8204POPC   C1B62539  25.229   7.127   6.450
 8204POPC   C2B62540  25.198   7.125   6.750
 8204POPC   C3B62541  25.200   7.181   7.050
 8204POPC   C4B62542  25.249   7.206   7.350
 8205POPC   NC362543   3.568  23.675   5.550
 8205POPC   PO462544   3.507  23.709   5.850
 8205POPC   GL162545   3.500  23.695   6.150
 8205POPC   GL262546   3.649  23.724   6.150
 8205POPC   C1A62547   3.526  23.691   6.450
 8205POPC   D2A62548   3.567  23.758   6.750
 8205POPC   C3A62549   3.538  23.677   7.050
 8205POPC   C4A62550   3.499  23.724   7.350
 8205POPC   C1B62551   3.804  23.719   6.450
 8205POPC   C2B62552   3.820  23.690   6.750
 8205POPC   C3B62553   3.795  23.641   7.050
 8205POPC   C4B62554   3.794  23.716   7.350
 8206POPC   NC362555  39.975  43.918   5.550
 8206POPC   PO462556  40.018  43.881   5.850
 8206POPC   GL162557  40.000  43.886   6.150
 8206POPC   GL262558  40.157  43.815   6.150
 8206POPC   C1A62559  40.008  43.852   6.450
 8206POPC   D2A62560  40.034  43.891   6.750
 8206POPC   C3A62561  39.979  43.909   7.050
 8206POPC   C4A62562  40.024  43.840   7.350
 8206POPC   C1B62563  40.215  43.773   6.450
 8206POPC   C2B62564  40.178  43.791   6.750
 8206POPC   C3B62565  40.247  43.789   7.050
 8206POPC   C4B62566  40.239  43.716   7.350
 8207POPC   NC362567  26.858  27.643   5.550
 8207POPC   PO462568  26.816  27.576   5.850
 8207POPC   GL162569  26.791  27.602   6.150
 8207POPC   GL262570  26.808  27.467   6.150
 8207POPC   C1A62571  26.774  27.632   6.450
 8207POPC   D2A62572  26.815  27.555   6.750
 8207POPC   C3A62573  26.855  27.641   7.050
 8207POPC   C4A62574  26.783  27.574   7.350
 8207POPC   C1B62575  26.710  27.362   6.450
 8207POPC   C2B62576  26.708  27.407   6.750
 8207POPC   C3B62577  26.723  27.405   7.050
 8207POPC   C4B62578  26.705  27.382   7.350
 8208POPC   NC362579  39.969  12.117   5.550
 8208POPC   PO462580  39.975  12.125   5.850
 8208POPC   GL162581  39.981  12.033   6.150
 8208POPC   GL262582  39.915  12.160   6.150
 8208POPC   C1A62583  39.973  12.056   6.450
 8208POPC   D2A62584  39.958  12.107   6.750
 8208POPC   C3A62585  40.057  12.031   7.050
 8208POPC   C4A62586  40.022  12.062   7.350
 8208POPC   C1B62587  39.912  12.320   6.450
 8208POPC   C2B62588  39.897  12.335   6.750
 8208POPC   C3B62589  39.933  12.267   7.050
 8208POPC   C4B62590  39.863  12.326   7.350
 8209POPC   NC362591  22.182  29.931   5.550
 8209POPC   PO462592  22.125  29.892   5.850
 8209POPC   GL162593  22.198  29.963   6.150
 8209POPC   GL262594  22.324  29.971   6.150
 8209POPC   C1A62595  22.127  29.952   6.450
 8209POPC   D2A62596  22.197  29.918   6.750
 8209POPC   C3A62597  22.203  29.947   7.050
 8209POPC   C4A62598  22.193  29.913   7.350
 8209POPC   C1B62599  22.376  30.032   6.450
 8209POPC   C2B62600  22.364  30.038   6.750
 8209POPC   C3B62601  22.432  30.054   7.050
 8209POPC   C4B62602  22.357  30.018   7.350
 8210POPC   NC362603  44.677  38.467   5.550
 8210POPC   PO462604  44.685  38.486   5.850
 8210POPC   GL162605  44.664  38.456   6.150
 8210POPC   GL262606  44.728  38.502   6.150
 8210POPC   C1A62607  44.613  38.432   6.450
 8210POPC   D2A62608  44.672  38.487   6.750
 8210POPC   C3A62609  44.677  38.491   7.050
 8210POPC   C4A62610  44.644  38.495   7.350
 8210POPC   C1B62611  44.887  38.607   6.450
 8210POPC   C2B62612  44.910  38.593   6.750
 8210POPC   C3B62613  44.831  38.644   7.050
 8210POPC   C4B62614  44.830  38.596   7.350
 8211POPC   NC362615  41.538   2.023   5.550
 8211POPC   PO462616  41.527   2.009   5.850
 8211POPC   GL162617  41.552   1.983   6.150
 8211POPC   GL262618  41.492   1.912   6.150
 8211POPC   C1A62619  41.579   1.980   6.450
 8211POPC   D2A62620  41.602   1.990   6.750
 8211POPC   C3A62621  41.586   1.984   7.050
 8211POPC   C4A62622  41.584   1.956   7.350
 8211POPC   C1B62623  41.415   1.789   6.450
 8211POPC   C2B62624  41.468   1.763   6.750
 8211POPC   C3B62625  41.461   1.814   7.050
 8211POPC   C4B62626  41.442   1.723   7.350
 8212POPC   NC362627  10.525   2.784   5.550
 8212POPC   PO462628  10.537   2.779   5.850
 8212POPC   GL162629  10.524   2.718   6.150
 8212POPC   GL262630  10.466   2.840   6.150
 8212POPC   C1A62631  10.570   2.730   6.450
 8212POPC   D2A62632  10.571   2.797   6.750
 8212POPC   C3A62633  10.529   2.766   7.050
 8212POPC   C4A62634  10.569   2.727   7.350
 8212POPC   C1B62635  10.321   2.936   6.450
 8212POPC   C2B62636  10.313   2.895   6.750
 8212POPC   C3B62637  10.308   2.932   7.050
 8212POPC   C4B62638  10.288   2.943   7.350
 8213POPC   NC362639  12.125  27.635   5.550
 8213POPC   PO462640  12.116  27.589   5.850
 8213POPC   GL162641  12.041  27.605   6.150
 8213POPC   GL262642  12.021  27.446   6.150
 8213POPC   C1A62643  12.079  27.606   6.450
 8213POPC   D2A62644  12.093  27.549   6.750
 8213POPC   C3A62645  12.072  27.590   7.050
 8213POPC   C4A62646  12.045  27.550   7.350
 8213POPC   C1B62647  12.046  27.354   6.450
 8213POPC   C2B62648  11.974  27.316   6.750
 8213POPC   C3B62649  12.021  27.340   7.050
 8213POPC   C4B62650  11.973  27.377   7.350
 8214POPC   NC362651  39.225  30.669   5.550
 8214POPC   PO462652  39.200  30.711   5.850
 8214POPC   GL162653  39.255  30.648   6.150
 8214POPC   GL262654  39.340  30.701   6.150
 8214POPC   C1A62655  39.189  30.734   6.450
 8214POPC   D2A62656  39.200  30.651   6.750
 8214POPC   C3A62657  39.281  30.710   7.050
 8214POPC   C4A62658  39.217  30.709   7.350
 8214POPC   C1B62659  39.490  30.761   6.450
 8214POPC   C2B62660  39.513  30.713   6.750
 8214POPC   C3B62661  39.430  30.749   7.050
 8214POPC   C4B62662  39.502  30.753   7.350
 8215POPC   NC362663  37.720  36.924   5.550
 8215POPC   PO462664  37.703  36.917   5.850
 8215POPC   GL162665  37.720  36.898   6.150
 8215POPC   GL262666  37.608  36.935   6.150
 8215POPC   C1A62667  37.681  36.953   6.450
 8215POPC   D2A62668  37.697  36.887   6.750
 8215POPC   C3A62669  37.655  36.880   7.050
 8215POPC   C4A62670  37.630  36.945   7.350
 8215POPC   C1B62671  37.450  37.083   6.450
 8215POPC   C2B62672  37.438  37.071   6.750
 8215POPC   C3B62673  37.500  37.047   7.050
 8215POPC   C4B62674  37.471  37.088   7.350
 8216POPC   NC362675  10.544   5.072   5.550
 8216POPC   PO462676  10.487   5.117   5.850
 8216POPC   GL162677  10.527   5.118   6.150
 8216POPC   GL262678  10.635   5.181   6.150
 8216POPC   C1A62679  10.486   5.130   6.450
 8216POPC   D2A62680  10.544   5.075   6.750
 8216POPC   C3A62681  10.538   5.077   7.050
 8216POPC   C4A62682  10.493   5.125   7.350
 8216POPC   C1B62683  10.784   5.167   6.450
 8216POPC   C2B62684  10.693   5.259   6.750
 8216POPC   C3B62685  10.718   5.251   7.050
 8216POPC   C4B62686  10.752   5.241   7.350
 8217POPC   NC362687   0.428  44.688   5.550
 8217POPC   PO462688   0.420  44.634   5.850
 8217POPC   GL162689   0.440  44.697   6.150
 8217POPC   GL262690   0.485  44.522   6.150
 8217POPC   C1A62691   0.469  44.651   6.450
 8217POPC   D2A62692   0.459  44.676   6.750
 8217POPC   C3A62693   0.465  44.711   7.050
 8217POPC   C4A62694   0.404  44.689   7.350
 8217POPC   C1B62695   0.456  44.453   6.450
 8217POPC   C2B62696   0.508  44.448   6.750
 8217POPC   C3B62697   0.470  44.440   7.050
 8217POPC   C4B62698   0.472  44.372   7.350
 8218POPC   NC362699  37.659  10.556   5.550
 8218POPC   PO462700  37.675  10.549   5.850
 8218POPC   GL162701  37.643  10.526   6.150
 8218POPC   GL262702  37.625  10.428   6.150
 8218POPC   C1A62703  37.680  10.520   6.450
 8218POPC   D2A62704  37.716  10.554   6.750
 8218POPC   C3A62705  37.683  10.573   7.050
 8218POPC   C4A62706  37.645  10.570   7.350
 8218POPC   C1B62707  37.601  10.241   6.450
 8218POPC   C2B62708  37.648  10.245   6.750
 8218POPC   C3B62709  37.649  10.249   7.050
 8218POPC   C4B62710  37.572  10.315   7.350
 8219POPC   NC362711   4.350  10.564   5.550
 8219POPC   PO462712   4.333  10.517   5.850
 8219POPC   GL162713   4.304  10.524   6.150
 8219POPC   GL262714   4.461  10.548   6.150
 8219POPC   C1A62715   4.293  10.514   6.450
 8219POPC   D2A62716   4.362  10.542   6.750
 8219POPC   C3A62717   4.359  10.556   7.050
 8219POPC   C4A62718   4.331  10.479   7.350
 8219POPC   C1B62719   4.585  10.467   6.450
 8219POPC   C2B62720   4.515  10.464   6.750
 8219POPC   C3B62721   4.590  10.457   7.050
 8219POPC   C4B62722   4.541  10.496   7.350
 8220POPC   NC362723   1.172  18.322   5.550
 8220POPC   PO462724   1.212  18.262   5.850
 8220POPC   GL162725   1.258  18.290   6.150
 8220POPC   GL262726   1.347  18.374   6.150
 8220POPC   C1A62727   1.209  18.252   6.450
 8220POPC   D2A62728   1.178  18.249   6.750
 8220POPC   C3A62729   1.226  18.283   7.050
 8220POPC   C4A62730   1.211  18.301   7.350
 8220POPC   C1B62731   1.384  18.410   6.450
 8220POPC   C2B62732   1.443  18.394   6.750
 8220POPC   C3B62733   1.421  18.368   7.050
 8220POPC   C4B62734   1.435  18.357   7.350
 8221POPC   NC362735  19.033  16.686   5.550
 8221POPC   PO462736  19.022  16.775   5.850
 8221POPC   GL162737  19.075  16.687   6.150
 8221POPC   GL262738  19.076  16.813   6.150
 8221POPC   C1A62739  19.031  16.681   6.450
 8221POPC   D2A62740  19.069  16.693   6.750
 8221POPC   C3A62741  19.072  16.758   7.050
 8221POPC   C4A62742  19.086  16.758   7.350
 8221POPC   C1B62743  19.029  17.002   6.450
 8221POPC   C2B62744  18.984  16.983   6.750
 8221POPC   C3B62745  18.979  16.998   7.050
 8221POPC   C4B62746  19.056  17.012   7.350
 8222POPC   NC362747  13.622  13.597   5.550
 8222POPC   PO462748  13.590  13.613   5.850
 8222POPC   GL162749  13.579  13.617   6.150
 8222POPC   GL262750  13.781  13.666   6.150
 8222POPC   C1A62751  13.608  13.601   6.450
 8222POPC   D2A62752  13.588  13.641   6.750
 8222POPC   C3A62753  13.676  13.673   7.050
 8222POPC   C4A62754  13.658  13.614   7.350
 8222POPC   C1B62755  13.869  13.659   6.450
 8222POPC   C2B62756  13.896  13.706   6.750
 8222POPC   C3B62757  13.894  13.739   7.050
 8222POPC   C4B62758  13.902  13.736   7.350
 8223POPC   NC362759  24.506  22.980   5.550
 8223POPC   PO462760  24.510  22.946   5.850
 8223POPC   GL162761  24.536  22.945   6.150
 8223POPC   GL262762  24.576  22.985   6.150
 8223POPC   C1A62763  24.483  22.905   6.450
 8223POPC   D2A62764  24.444  22.960   6.750
 8223POPC   C3A62765  24.535  22.945   7.050
 8223POPC   C4A62766  24.469  22.908   7.350
 8223POPC   C1B62767  24.735  22.988   6.450
 8223POPC   C2B62768  24.702  22.970   6.750
 8223POPC   C3B62769  24.786  22.943   7.050
 8223POPC   C4B62770  24.764  22.985   7.350
 8224POPC   NC362771  29.933  29.162   5.550
 8224POPC   PO462772  29.896  29.192   5.850
 8224POPC   GL162773  29.926  29.141   6.150
 8224POPC   GL262774  29.786  29.161   6.150
 8224POPC   C1A62775  29.930  29.134   6.450
 8224POPC   D2A62776  29.956  29.133   6.750
 8224POPC   C3A62777  29.895  29.102   7.050
 8224POPC   C4A62778  29.890  29.115   7.350
 8224POPC   C1B62779  29.638  29.209   6.450
 8224POPC   C2B62780  29.713  29.148   6.750
 8224POPC   C3B62781  29.664  29.139   7.050
 8224POPC   C4B62782  29.624  29.206   7.350
 8225POPC   NC362783  27.612  22.195   5.550
 8225POPC   PO462784  27.581  22.174   5.850
 8225POPC   GL162785  27.632  22.179   6.150
 8225POPC   GL262786  27.580  22.291   6.150
 8225POPC   C1A62787  27.615  22.135   6.450
 8225POPC   D2A62788  27.579  22.154   6.750
 8225POPC   C3A62789  27.632  22.145   7.050
 8225POPC   C4A62790  27.641  22.165   7.350
 8225POPC   C1B62791  27.604  22.361   6.450
 8225POPC   C2B62792  27.513  22.407   6.750
 8225POPC   C3B62793  27.569  22.380   7.050
 8225POPC   C4B62794  27.534  22.368   7.350
 8226POPC   NC362795  31.471  30.734   5.550
 8226POPC   PO462796  31.493  30.683   5.850
 8226POPC   GL162797  31.522  30.666   6.150
 8226POPC   GL262798  31.580  30.772   6.150
 8226POPC   C1A62799  31.471  30.740   6.450
 8226POPC   D2A62800  31.447  30.686   6.750
 8226POPC   C3A62801  31.435  30.659   7.050
 8226POPC   C4A62802  31.440  30.682   7.350
 8226POPC   C1B62803  31.684  30.915   6.450
 8226POPC   C2B62804  31.624  30.854   6.750
 8226POPC   C3B62805  31.682  30.916   7.050
 8226POPC   C4B62806  31.658  30.832   7.350
 8227POPC   NC362807  19.816  26.003   5.550
 8227POPC   PO462808  19.844  26.009   5.850
 8227POPC   GL162809  19.879  26.046   6.150
 8227POPC   GL262810  19.905  25.962   6.150
 8227POPC   C1A62811  19.869  26.078   6.450
 8227POPC   D2A62812  19.871  26.059   6.750
 8227POPC   C3A62813  19.875  26.021   7.050
 8227POPC   C4A62814  19.866  25.995   7.350
 8227POPC   C1B62815  19.982  25.841   6.450
 8227POPC   C2B62816  20.010  25.853   6.750
 8227POPC   C3B62817  19.971  25.857   7.050
 8227POPC   C4B62818  20.022  25.874   7.350
 8228POPC   NC362819  39.227  19.056   5.550
 8228POPC   PO462820  39.242  19.041   5.850
 8228POPC   GL162821  39.228  19.083   6.150
 8228POPC   GL262822  39.293  18.917   6.150
 8228POPC   C1A62823  39.197  19.024   6.450
 8228POPC   D2A62824  39.209  19.018   6.750
 8228POPC   C3A62825  39.239  19.019   7.050
 8228POPC   C4A62826  39.238  19.017   7.350
 8228POPC   C1B62827  39.307  18.849   6.450
 8228POPC   C2B62828  39.378  18.816   6.750
 8228POPC   C3B62829  39.364  18.845   7.050
 8228POPC   C4B62830  39.308  18.825   7.350
 8229POPC   NC362831  28.333  32.290   5.550
 8229POPC   PO462832  28.344  32.272   5.850
 8229POPC   GL162833  28.361  32.261   6.150
 8229POPC   GL262834  28.311  32.154   6.150
 8229POPC   C1A62835  28.324  32.254   6.450
 8229POPC   D2A62836  28.400  32.229   6.750
 8229POPC   C3A62837  28.362  32.242   7.050
 8229POPC   C4A62838  28.363  32.248   7.350
 8229POPC   C1B62839  28.149  32.071   6.450
 8229POPC   C2B62840  28.181  32.128   6.750
 8229POPC   C3B62841  28.112  32.148   7.050
 8229POPC   C4B62842  28.151  32.154   7.350
 8230POPC   NC362843  38.449  16.691   5.550
 8230POPC   PO462844  38.436  16.748   5.850
 8230POPC   GL162845  38.449  16.690   6.150
 8230POPC   GL262846  38.345  16.657   6.150
 8230POPC   C1A62847  38.455  16.758   6.450
 8230POPC   D2A62848  38.443  16.748   6.750
 8230POPC   C3A62849  38.501  16.695   7.050
 8230POPC   C4A62850  38.409  16.730   7.350
 8230POPC   C1B62851  38.283  16.524   6.450
 8230POPC   C2B62852  38.324  16.547   6.750
 8230POPC   C3B62853  38.317  16.529   7.050
 8230POPC   C4B62854  38.295  16.569   7.350
 8231POPC   NC362855  21.405  29.941   5.550
 8231POPC   PO462856  21.432  29.948   5.850
 8231POPC   GL162857  21.336  29.956   6.150
 8231POPC   GL262858  21.510  29.914   6.150
 8231POPC   C1A62859  21.367  29.957   6.450
 8231POPC   D2A62860  21.337  29.919   6.750
 8231POPC   C3A62861  21.417  29.902   7.050
 8231POPC   C4A62862  21.410  29.933   7.350
 8231POPC   C1B62863  21.645  29.937   6.450
 8231POPC   C2B62864  21.686  29.874   6.750
 8231POPC   C3B62865  21.649  29.936   7.050
 8231POPC   C4B62866  21.661  29.893   7.350
 8232POPC   NC362867  31.467  10.481   5.550
 8232POPC   PO462868  31.503  10.547   5.850
 8232POPC   GL162869  31.492  10.521   6.150
 8232POPC   GL262870  31.578  10.451   6.150
 8232POPC   C1A62871  31.497  10.544   6.450
 8232POPC   D2A62872  31.491  10.546   6.750
 8232POPC   C3A62873  31.494  10.515   7.050
 8232POPC   C4A62874  31.448  10.555   7.350
 8232POPC   C1B62875  31.707  10.389   6.450
 8232POPC   C2B62876  31.719  10.424   6.750
 8232POPC   C3B62877  31.728  10.456   7.050
 8232POPC   C4B62878  31.732  10.438   7.350
 8233POPC   NC362879  32.263   4.304   5.550
 8233POPC   PO462880  32.249   4.300   5.850
 8233POPC   GL162881  32.202   4.280   6.150
 8233POPC   GL262882  32.130   4.305   6.150
 8233POPC   C1A62883  32.288   4.367   6.450
 8233POPC   D2A62884  32.215   4.302   6.750
 8233POPC   C3A62885  32.255   4.342   7.050
 8233POPC   C4A62886  32.230   4.331   7.350
 8233POPC   C1B62887  31.952   4.311   6.450
 8233POPC   C2B62888  32.002   4.279   6.750
 8233POPC   C3B62889  32.011   4.278   7.050
 8233POPC   C4B62890  31.961   4.368   7.350
 8234POPC   NC362891  30.742   4.270   5.550
 8234POPC   PO462892  30.724   4.338   5.850
 8234POPC   GL162893  30.734   4.275   6.150
 8234POPC   GL262894  30.745   4.212   6.150
 8234POPC   C1A62895  30.672   4.359   6.450
 8234POPC   D2A62896  30.701   4.329   6.750
 8234POPC   C3A62897  30.717   4.286   7.050
 8234POPC   C4A62898  30.715   4.318   7.350
 8234POPC   C1B62899  30.909   4.179   6.450
 8234POPC   C2B62900  30.852   4.164   6.750
 8234POPC   C3B62901  30.827   4.181   7.050
 8234POPC   C4B62902  30.879   4.091   7.350
 8235POPC   NC362903   5.852  22.924   5.550
 8235POPC   PO462904   5.915  22.942   5.850
 8235POPC   GL162905   5.824  22.934   6.150
 8235POPC   GL262906   5.814  22.766   6.150
 8235POPC   C1A62907   5.838  22.960   6.450
 8235POPC   D2A62908   5.832  22.951   6.750
 8235POPC   C3A62909   5.824  22.898   7.050
 8235POPC   C4A62910   5.838  22.976   7.350
 8235POPC   C1B62911   5.837  22.652   6.450
 8235POPC   C2B62912   5.778  22.686   6.750
 8235POPC   C3B62913   5.812  22.704   7.050
 8235POPC   C4B62914   5.822  22.724   7.350
 8236POPC   NC362915   4.299   8.220   5.550
 8236POPC   PO462916   4.308   8.160   5.850
 8236POPC   GL162917   4.337   8.155   6.150
 8236POPC   GL262918   4.265   8.351   6.150
 8236POPC   C1A62919   4.292   8.163   6.450
 8236POPC   D2A62920   4.346   8.242   6.750
 8236POPC   C3A62921   4.302   8.205   7.050
 8236POPC   C4A62922   4.366   8.189   7.350
 8236POPC   C1B62923   4.299   8.404   6.450
 8236POPC   C2B62924   4.275   8.457   6.750
 8236POPC   C3B62925   4.285   8.481   7.050
 8236POPC   C4B62926   4.243   8.447   7.350
 8237POPC   NC362927  34.560  41.511   5.550
 8237POPC   PO462928  34.547  41.565   5.850
 8237POPC   GL162929  34.601  41.529   6.150
 8237POPC   GL262930  34.577  41.454   6.150
 8237POPC   C1A62931  34.614  41.579   6.450
 8237POPC   D2A62932  34.610  41.592   6.750
 8237POPC   C3A62933  34.550  41.597   7.050
 8237POPC   C4A62934  34.623  41.584   7.350
 8237POPC   C1B62935  34.586  41.296   6.450
 8237POPC   C2B62936  34.532  41.267   6.750
 8237POPC   C3B62937  34.513  41.328   7.050
 8237POPC   C4B62938  34.549  41.310   7.350
 8238POPC   NC362939  38.458  32.986   5.550
 8238POPC   PO462940  38.494  32.996   5.850
 8238POPC   GL162941  38.409  32.983   6.150
 8238POPC   GL262942  38.585  33.038   6.150
 8238POPC   C1A62943  38.474  32.992   6.450
 8238POPC   D2A62944  38.479  33.003   6.750
 8238POPC   C3A62945  38.440  33.026   7.050
 8238POPC   C4A62946  38.432  33.029   7.350
 8238POPC   C1B62947  38.718  32.964   6.450
 8238POPC   C2B62948  38.664  32.967   6.750
 8238POPC   C3B62949  38.695  32.921   7.050
 8238POPC   C4B62950  38.656  32.991   7.350
 8239POPC   NC362951   6.636  43.104   5.550
 8239POPC   PO462952   6.600  43.098   5.850
 8239POPC   GL162953   6.624  43.152   6.150
 8239POPC   GL262954   6.652  43.265   6.150
 8239POPC   C1A62955   6.632  43.151   6.450
 8239POPC   D2A62956   6.600  43.066   6.750
 8239POPC   C3A62957   6.643  43.063   7.050
 8239POPC   C4A62958   6.644  43.062   7.350
 8239POPC   C1B62959   6.670  43.346   6.450
 8239POPC   C2B62960   6.641  43.322   6.750
 8239POPC   C3B62961   6.598  43.356   7.050
 8239POPC   C4B62962   6.651  43.385   7.350
 8240POPC   NC362963  27.552   5.107   5.550
 8240POPC   PO462964  27.550   5.108   5.850
 8240POPC   GL162965  27.597   5.059   6.150
 8240POPC   GL262966  27.714   5.045   6.150
 8240POPC   C1A62967  27.551   5.091   6.450
 8240POPC   D2A62968  27.561   5.121   6.750
 8240POPC   C3A62969  27.573   5.130   7.050
 8240POPC   C4A62970  27.577   5.112   7.350
 8240POPC   C1B62971  27.843   5.060   6.450
 8240POPC   C2B62972  27.788   5.066   6.750
 8240POPC   C3B62973  27.853   5.032   7.050
 8240POPC   C4B62974  27.857   5.046   7.350
 8241POPC   NC362975   3.588  22.176   5.550
 8241POPC   PO462976   3.575  22.158   5.850
 8241POPC   GL162977   3.559  22.129   6.150
 8241POPC   GL262978   3.693  22.249   6.150
 8241POPC   C1A62979   3.546  22.179   6.450
 8241POPC   D2A62980   3.544  22.141   6.750
 8241POPC   C3A62981   3.548  22.165   7.050
 8241POPC   C4A62982   3.536  22.192   7.350
 8241POPC   C1B62983   3.770  22.317   6.450
 8241POPC   C2B62984   3.752  22.288   6.750
 8241POPC   C3B62985   3.712  22.323   7.050
 8241POPC   C4B62986   3.775  22.304   7.350
 8242POPC   NC362987  39.206  32.247   5.550
 8242POPC   PO462988  39.270  32.244   5.850
 8242POPC   GL162989  39.268  32.286   6.150
 8242POPC   GL262990  39.391  32.286   6.150
 8242POPC   C1A62991  39.220  32.245   6.450
 8242POPC   D2A62992  39.269  32.253   6.750
 8242POPC   C3A62993  39.256  32.273   7.050
 8242POPC   C4A62994  39.262  32.297   7.350
 8242POPC   C1B62995  39.485  32.331   6.450
 8242POPC   C2B62996  39.408  32.366   6.750
 8242POPC   C3B62997  39.468  32.317   7.050
 8242POPC   C4B62998  39.461  32.354   7.350
 8243POPC   NC362999  24.517  17.502   5.550
 8243POPC   PO463000  24.536  17.518   5.850
 8243POPC   GL163001  24.525  17.462   6.150
 8243POPC   GL263002  24.386  17.526   6.150
 8243POPC   C1A63003  24.500  17.463   6.450
 8243POPC   D2A63004  24.461  17.483   6.750
 8243POPC   C3A63005  24.463  17.486   7.050
 8243POPC   C4A63006  24.466  17.493   7.350
 8243POPC   C1B63007  24.232  17.529   6.450
 8243POPC   C2B63008  24.268  17.533   6.750
 8243POPC   C3B63009  24.223  17.479   7.050
 8243POPC   C4B63010  24.207  17.544   7.350
 8244POPC   NC363011  40.016  11.348   5.550
 8244POPC   PO463012  40.033  11.334   5.850
 8244POPC   GL163013  40.042  11.260   6.150
 8244POPC   GL263014  39.983  11.428   6.150
 8244POPC   C1A63015  39.979  11.338   6.450
 8244POPC   D2A63016  39.983  11.333   6.750
 8244POPC   C3A63017  40.033  11.257   7.050
 8244POPC   C4A63018  40.012  11.290   7.350
 8244POPC   C1B63019  39.951  11.567   6.450
 8244POPC   C2B63020  39.984  11.589   6.750
 8244POPC   C3B63021  39.938  11.590   7.050
 8244POPC   C4B63022  39.908  11.535   7.350
 8245POPC   NC363023  21.385   5.095   5.550
 8245POPC   PO463024  21.350   5.055   5.850
 8245POPC   GL163025  21.416   5.045   6.150
 8245POPC   GL263026  21.303   5.137   6.150
 8245POPC   C1A63027  21.365   5.102   6.450
 8245POPC   D2A63028  21.433   5.051   6.750
 8245POPC   C3A63029  21.416   5.061   7.050
 8245POPC   C4A63030  21.371   5.089   7.350
 8245POPC   C1B63031  21.187   5.226   6.450
 8245POPC   C2B63032  21.204   5.240   6.750
 8245POPC   C3B63033  21.178   5.217   7.050
 8245POPC   C4B63034  21.192   5.190   7.350
 8246POPC   NC363035  43.900   5.915   5.550
 8246POPC   PO463036  43.863   5.909   5.850
 8246POPC   GL163037  43.875   5.912   6.150
 8246POPC   GL263038  44.015   5.828   6.150
 8246POPC   C1A63039  43.914   5.881   6.450
 8246POPC   D2A63040  43.862   5.843   6.750
 8246POPC   C3A63041  43.853   5.859   7.050
 8246POPC   C4A63042  43.884   5.915   7.350
 8246POPC   C1B63043  44.161   5.838   6.450
 8246POPC   C2B63044  44.139   5.807   6.750
 8246POPC   C3B63045  44.138   5.835   7.050
 8246POPC   C4B63046  44.135   5.804   7.350
 8247POPC   NC363047  44.694   9.790   5.550
 8247POPC   PO463048  44.620   9.701   5.850
 8247POPC   GL163049  44.652   9.753   6.150
 8247POPC   GL263050  44.652   9.852   6.150
 8247POPC   C1A63051  44.642   9.704   6.450
 8247POPC   D2A63052  44.683   9.796   6.750
 8247POPC   C3A63053  44.629   9.761   7.050
 8247POPC   C4A63054  44.704   9.767   7.350
 8247POPC   C1B63055  44.612   9.960   6.450
 8247POPC   C2B63056  44.558  10.039   6.750
 8247POPC   C3B63057  44.572  10.009   7.050
 8247POPC   C4B63058  44.557   9.961   7.350
 8248POPC   NC363059  15.948   0.423   5.550
 8248POPC   PO463060  15.950   0.478   5.850
 8248POPC   GL163061  15.908   0.418   6.150
 8248POPC   GL263062  15.895   0.315   6.150
 8248POPC   C1A63063  15.954   0.482   6.450
 8248POPC   D2A63064  15.982   0.403   6.750
 8248POPC   C3A63065  15.930   0.422   7.050
 8248POPC   C4A63066  15.928   0.444   7.350
 8248POPC   C1B63067  15.806   0.223   6.450
 8248POPC   C2B63068  15.759   0.240   6.750
 8248POPC   C3B63069  15.779   0.249   7.050
 8248POPC   C4B63070  15.759   0.246   7.350
 8249POPC   NC363071  11.320  26.795   5.550
 8249POPC   PO463072  11.309  26.843   5.850
 8249POPC   GL163073  11.294  26.853   6.150
 8249POPC   GL263074  11.364  26.975   6.150
 8249POPC   C1A63075  11.329  26.850   6.450
 8249POPC   D2A63076  11.254  26.834   6.750
 8249POPC   C3A63077  11.322  26.774   7.050
 8249POPC   C4A63078  11.305  26.798   7.350
 8249POPC   C1B63079  11.412  27.087   6.450
 8249POPC   C2B63080  11.406  27.017   6.750
 8249POPC   C3B63081  11.390  27.079   7.050
 8249POPC   C4B63082  11.419  27.011   7.350
 8250POPC   NC363083  24.440  18.259   5.550
 8250POPC   PO463084  24.452  18.301   5.850
 8250POPC   GL163085  24.462  18.273   6.150
 8250POPC   GL263086  24.455  18.188   6.150
 8250POPC   C1A63087  24.490  18.295   6.450
 8250POPC   D2A63088  24.480  18.235   6.750
 8250POPC   C3A63089  24.505  18.249   7.050
 8250POPC   C4A63090  24.447  18.258   7.350
 8250POPC   C1B63091  24.416  18.040   6.450
 8250POPC   C2B63092  24.466  17.990   6.750
 8250POPC   C3B63093  24.467  18.065   7.050
 8250POPC   C4B63094  24.469  18.021   7.350
 8251POPC   NC363095  11.324  31.492   5.550
 8251POPC   PO463096  11.266  31.511   5.850
 8251POPC   GL163097  11.296  31.499   6.150
 8251POPC   GL263098  11.408  31.423   6.150
 8251POPC   C1A63099  11.289  31.496   6.450
 8251POPC   D2A63100  11.299  31.423   6.750
 8251POPC   C3A63101  11.275  31.486   7.050
 8251POPC   C4A63102  11.329  31.460   7.350
 8251POPC   C1B63103  11.565  31.430   6.450
 8251POPC   C2B63104  11.570  31.428   6.750
 8251POPC   C3B63105  11.538  31.435   7.050
 8251POPC   C4B63106  11.591  31.452   7.350
 8252POPC   NC363107   0.397  19.048   5.550
 8252POPC   PO463108   0.421  19.039   5.850
 8252POPC   GL163109   0.421  19.086   6.150
 8252POPC   GL263110   0.505  18.993   6.150
 8252POPC   C1A63111   0.433  19.094   6.450
 8252POPC   D2A63112   0.405  19.095   6.750
 8252POPC   C3A63113   0.406  19.089   7.050
 8252POPC   C4A63114   0.392  19.104   7.350
 8252POPC   C1B63115   0.511  18.861   6.450
 8252POPC   C2B63116   0.525  18.861   6.750
 8252POPC   C3B63117   0.529  18.870   7.050
 8252POPC   C4B63118   0.529  18.848   7.350
 8253POPC   NC363119  19.010  22.922   5.550
 8253POPC   PO463120  19.016  22.950   5.850
 8253POPC   GL163121  19.099  22.913   6.150
 8253POPC   GL263122  19.178  22.948   6.150
 8253POPC   C1A63123  19.105  22.937   6.450
 8253POPC   D2A63124  19.065  22.947   6.750
 8253POPC   C3A63125  19.014  22.951   7.050
 8253POPC   C4A63126  19.095  22.963   7.350
 8253POPC   C1B63127  19.333  23.023   6.450
 8253POPC   C2B63128  19.306  22.969   6.750
 8253POPC   C3B63129  19.286  22.979   7.050
 8253POPC   C4B63130  19.332  22.979   7.350
 8254POPC   NC363131  13.648  29.877   5.550
 8254POPC   PO463132  13.579  29.970   5.850
 8254POPC   GL163133  13.671  29.916   6.150
 8254POPC   GL263134  13.684  29.841   6.150
 8254POPC   C1A63135  13.655  29.906   6.450
 8254POPC   D2A63136  13.590  29.943   6.750
 8254POPC   C3A63137  13.664  29.886   7.050
 8254POPC   C4A63138  13.658  29.920   7.350
 8254POPC   C1B63139  13.675  29.671   6.450
 8254POPC   C2B63140  13.666  29.714   6.750
 8254POPC   C3B63141  13.648  29.665   7.050
 8254POPC   C4B63142  13.683  29.688   7.350
 8255POPC   NC363143  29.897   5.852   5.550
 8255POPC   PO463144  29.920   5.835   5.850
 8255POPC   GL163145  29.916   5.847   6.150
 8255POPC   GL263146  29.865   5.745   6.150
 8255POPC   C1A63147  29.908   5.875   6.450
 8255POPC   D2A63148  29.883   5.911   6.750
 8255POPC   C3A63149  29.931   5.841   7.050
 8255POPC   C4A63150  29.882   5.845   7.350
 8255POPC   C1B63151  29.871   5.639   6.450
 8255POPC   C2B63152  29.878   5.662   6.750
 8255POPC   C3B63153  29.846   5.651   7.050
 8255POPC   C4B63154  29.810   5.662   7.350
 8256POPC   NC363155  12.042  42.321   5.550
 8256POPC   PO463156  12.094  42.367   5.850
 8256POPC   GL163157  12.052  42.285   6.150
 8256POPC   GL263158  12.026  42.281   6.150
 8256POPC   C1A63159  12.089  42.341   6.450
 8256POPC   D2A63160  12.029  42.372   6.750
 8256POPC   C3A63161  12.033  42.334   7.050
 8256POPC   C4A63162  12.034  42.348   7.350
 8256POPC   C1B63163  11.917  42.119   6.450
 8256POPC   C2B63164  11.903  42.145   6.750
 8256POPC   C3B63165  11.891  42.174   7.050
 8256POPC   C4B63166  11.916  42.134   7.350
 8257POPC   NC363167  18.280  10.541   5.550
 8257POPC   PO463168  18.282  10.537   5.850
 8257POPC   GL163169  18.236  10.546   6.150
 8257POPC   GL263170  18.427  10.616   6.150
 8257POPC   C1A63171  18.235  10.493   6.450
 8257POPC   D2A63172  18.329  10.574   6.750
 8257POPC   C3A63173  18.332  10.548   7.050
 8257POPC   C4A63174  18.291  10.553   7.350
 8257POPC   C1B63175  18.511  10.639   6.450
 8257POPC   C2B63176  18.451  10.715   6.750
 8257POPC   C3B63177  18.511  10.648   7.050
 8257POPC   C4B63178  18.436  10.645   7.350
 8258POPC   NC363179  18.245  40.818   5.550
 8258POPC   PO463180  18.314  40.803   5.850
 8258POPC   GL163181  18.288  40.782   6.150
 8258POPC   GL263182  18.205  40.679   6.150
 8258POPC   C1A63183  18.267  40.794   6.450
 8258POPC   D2A63184  18.321  40.808   6.750
 8258POPC   C3A63185  18.301  40.823   7.050
 8258POPC   C4A63186  18.283  40.806   7.350
 8258POPC   C1B63187  18.232  40.566   6.450
 8258POPC   C2B63188  18.219  40.538   6.750
 8258POPC   C3B63189  18.191  40.573   7.050
 8258POPC   C4B63190  18.189  40.523   7.350
 8259POPC   NC363191  42.318  40.773   5.550
 8259POPC   PO463192  42.313  40.821   5.850
 8259POPC   GL163193  42.362  40.798   6.150
 8259POPC   GL263194  42.272  40.898   6.150
 8259POPC   C1A63195  42.321  40.793   6.450
 8259POPC   D2A63196  42.349  40.780   6.750
 8259POPC   C3A63197  42.296  40.772   7.050
 8259POPC   C4A63198  42.354  40.768   7.350
 8259POPC   C1B63199  42.240  41.019   6.450
 8259POPC   C2B63200  42.247  40.994   6.750
 8259POPC   C3B63201  42.193  40.991   7.050
 8259POPC   C4B63202  42.231  40.957   7.350
 8260POPC   NC363203  38.457  40.760   5.550
 8260POPC   PO463204  38.451  40.746   5.850
 8260POPC   GL163205  38.433  40.734   6.150
 8260POPC   GL263206  38.426  40.883   6.150
 8260POPC   C1A63207  38.474  40.832   6.450
 8260POPC   D2A63208  38.406  40.752   6.750
 8260POPC   C3A63209  38.412  40.790   7.050
 8260POPC   C4A63210  38.460  40.788   7.350
 8260POPC   C1B63211  38.512  41.017   6.450
 8260POPC   C2B63212  38.517  41.050   6.750
 8260POPC   C3B63213  38.459  41.030   7.050
 8260POPC   C4B63214  38.487  40.995   7.350
 8261POPC   NC363215  19.868  44.641   5.550
 8261POPC   PO463216  19.828  44.665   5.850
 8261POPC   GL163217  19.848  44.678   6.150
 8261POPC   GL263218  19.909  44.505   6.150
 8261POPC   C1A63219  19.840  44.710   6.450
 8261POPC   D2A63220  19.799  44.640   6.750
 8261POPC   C3A63221  19.820  44.699   7.050
 8261POPC   C4A63222  19.830  44.676   7.350
 8261POPC   C1B63223  19.950  44.470   6.450
 8261POPC   C2B63224  19.940  44.427   6.750
 8261POPC   C3B63225  19.929  44.486   7.050
 8261POPC   C4B63226  19.913  44.408   7.350
 8262POPC   NC363227  37.690   8.200   5.550
 8262POPC   PO463228  37.703   8.164   5.850
 8262POPC   GL163229  37.701   8.154   6.150
 8262POPC   GL263230  37.521   8.151   6.150
 8262POPC   C1A63231  37.715   8.201   6.450
 8262POPC   D2A63232  37.693   8.230   6.750
 8262POPC   C3A63233  37.684   8.195   7.050
 8262POPC   C4A63234  37.680   8.163   7.350
 8262POPC   C1B63235  37.490   8.109   6.450
 8262POPC   C2B63236  37.441   8.097   6.750
 8262POPC   C3B63237  37.470   8.157   7.050
 8262POPC   C4B63238  37.398   8.099   7.350
 8263POPC   NC363239   8.231   0.415   5.550
 8263POPC   PO463240   8.175   0.455   5.850
 8263POPC   GL163241   8.233   0.460   6.150
 8263POPC   GL263242   8.101   0.575   6.150
 8263POPC   C1A63243   8.229   0.439   6.450
 8263POPC   D2A63244   8.229   0.391   6.750
 8263POPC   C3A63245   8.159   0.426   7.050
 8263POPC   C4A63246   8.191   0.395   7.350
 8263POPC   C1B63247   8.005   0.653   6.450
 8263POPC   C2B63248   8.063   0.611   6.750
 8263POPC   C3B63249   7.995   0.681   7.050
 8263POPC   C4B63250   8.002   0.641   7.350
 8264POPC   NC363251  18.304  14.382   5.550
 8264POPC   PO463252  18.316  14.385   5.850
 8264POPC   GL163253  18.310  14.408   6.150
 8264POPC   GL263254  18.349  14.311   6.150
 8264POPC   C1A63255  18.286  14.407   6.450
 8264POPC   D2A63256  18.278  14.395   6.750
 8264POPC   C3A63257  18.303  14.378   7.050
 8264POPC   C4A63258  18.251  14.356   7.350
 8264POPC   C1B63259  18.555  14.272   6.450
 8264POPC   C2B63260  18.482  14.343   6.750
 8264POPC   C3B63261  18.492  14.296   7.050
 8264POPC   C4B63262  18.548  14.332   7.350
 8265POPC   NC363263  42.292  15.977   5.550
 8265POPC   PO463264  42.354  15.992   5.850
 8265POPC   GL163265  42.328  15.922   6.150
 8265POPC   GL263266  42.220  15.872   6.150
 8265POPC   C1A63267  42.288  16.005   6.450
 8265POPC   D2A63268  42.304  15.926   6.750
 8265POPC   C3A63269  42.312  15.926   7.050
 8265POPC   C4A63270  42.335  15.955   7.350
 8265POPC   C1B63271  42.207  15.738   6.450
 8265POPC   C2B63272  42.245  15.788   6.750
 8265POPC   C3B63273  42.206  15.795   7.050
 8265POPC   C4B63274  42.156  15.702   7.350
 8266POPC   NC363275  15.985  14.414   5.550
 8266POPC   PO463276  15.997  14.445   5.850
 8266POPC   GL163277  15.911  14.383   6.150
 8266POPC   GL263278  16.033  14.309   6.150
 8266POPC   C1A63279  15.957  14.372   6.450
 8266POPC   D2A63280  15.982  14.442   6.750
 8266POPC   C3A63281  15.996  14.356   7.050
 8266POPC   C4A63282  15.919  14.397   7.350
 8266POPC   C1B63283  16.198  14.297   6.450
 8266POPC   C2B63284  16.181  14.246   6.750
 8266POPC   C3B63285  16.178  14.290   7.050
 8266POPC   C4B63286  16.132  14.233   7.350
 8267POPC   NC363287  23.724  20.573   5.550
 8267POPC   PO463288  23.693  20.568   5.850
 8267POPC   GL163289  23.713  20.597   6.150
 8267POPC   GL263290  23.578  20.728   6.150
 8267POPC   C1A63291  23.685  20.625   6.450
 8267POPC   D2A63292  23.703  20.645   6.750
 8267POPC   C3A63293  23.729  20.581   7.050
 8267POPC   C4A63294  23.691  20.586   7.350
 8267POPC   C1B63295  23.488  20.746   6.450
 8267POPC   C2B63296  23.511  20.804   6.750
 8267POPC   C3B63297  23.488  20.738   7.050
 8267POPC   C4B63298  23.508  20.749   7.350
 8268POPC   NC363299  26.851  39.270   5.550
 8268POPC   PO463300  26.816  39.272   5.850
 8268POPC   GL163301  26.816  39.238   6.150
 8268POPC   GL263302  26.863  39.286   6.150
 8268POPC   C1A63303  26.783  39.199   6.450
 8268POPC   D2A63304  26.801  39.247   6.750
 8268POPC   C3A63305  26.831  39.223   7.050
 8268POPC   C4A63306  26.833  39.247   7.350
 8268POPC   C1B63307  27.017  39.376   6.450
 8268POPC   C2B63308  26.965  39.411   6.750
 8268POPC   C3B63309  26.945  39.381   7.050
 8268POPC   C4B63310  26.953  39.458   7.350
 8269POPC   NC363311  33.774  27.593   5.550
 8269POPC   PO463312  33.821  27.596   5.850
 8269POPC   GL163313  33.781  27.558   6.150
 8269POPC   GL263314  33.813  27.490   6.150
 8269POPC   C1A63315  33.769  27.600   6.450
 8269POPC   D2A63316  33.774  27.566   6.750
 8269POPC   C3A63317  33.762  27.602   7.050
 8269POPC   C4A63318  33.768  27.609   7.350
 8269POPC   C1B63319  33.914  27.392   6.450
 8269POPC   C2B63320  33.880  27.414   6.750
 8269POPC   C3B63321  33.925  27.388   7.050
 8269POPC   C4B63322  33.887  27.334   7.350
 8270POPC   NC363323   4.365  18.306   5.550
 8270POPC   PO463324   4.341  18.288   5.850
 8270POPC   GL163325   4.312  18.324   6.150
 8270POPC   GL263326   4.295  18.144   6.150
 8270POPC   C1A63327   4.292  18.330   6.450
 8270POPC   D2A63328   4.340  18.314   6.750
 8270POPC   C3A63329   4.367  18.318   7.050
 8270POPC   C4A63330   4.317  18.290   7.350
 8270POPC   C1B63331   4.351  18.082   6.450
 8270POPC   C2B63332   4.305  17.999   6.750
 8270POPC   C3B63333   4.287  17.994   7.050
 8270POPC   C4B63334   4.307  18.066   7.350
 8271POPC   NC363335  10.478  19.870   5.550
 8271POPC   PO463336  10.545  19.831   5.850
 8271POPC   GL163337  10.563  19.845   6.150
 8271POPC   GL263338  10.525  19.999   6.150
 8271POPC   C1A63339  10.522  19.841   6.450
 8271POPC   D2A63340  10.496  19.856   6.750
 8271POPC   C3A63341  10.538  19.883   7.050
 8271POPC   C4A63342  10.521  19.881   7.350
 8271POPC   C1B63343  10.492  20.063   6.450
 8271POPC   C2B63344  10.487  20.040   6.750
 8271POPC   C3B63345  10.428  20.050   7.050
 8271POPC   C4B63346  10.470  20.050   7.350
 8272POPC   NC363347  40.764   5.120   5.550
 8272POPC   PO463348  40.748   5.121   5.850
 8272POPC   GL163349  40.793   5.124   6.150
 8272POPC   GL263350  40.814   5.186   6.150
 8272POPC   C1A63351  40.831   5.115   6.450
 8272POPC   D2A63352  40.794   5.138   6.750
 8272POPC   C3A63353  40.745   5.047   7.050
 8272POPC   C4A63354  40.831   5.060   7.350
 8272POPC   C1B63355  40.769   5.344   6.450
 8272POPC   C2B63356  40.796   5.378   6.750
 8272POPC   C3B63357  40.810   5.391   7.050
 8272POPC   C4B63358  40.798   5.304   7.350
 8273POPC   NC363359  25.239   8.153   5.550
 8273POPC   PO463360  25.274   8.182   5.850
 8273POPC   GL163361  25.221   8.161   6.150
 8273POPC   GL263362  25.190   8.329   6.150
 8273POPC   C1A63363  25.234   8.202   6.450
 8273POPC   D2A63364  25.280   8.156   6.750
 8273POPC   C3A63365  25.308   8.153   7.050
 8273POPC   C4A63366  25.279   8.151   7.350
 8273POPC   C1B63367  25.094   8.390   6.450
 8273POPC   C2B63368  25.178   8.435   6.750
 8273POPC   C3B63369  25.150   8.386   7.050
 8273POPC   C4B63370  25.099   8.433   7.350
 8274POPC   NC363371  22.129  22.918   5.550
 8274POPC   PO463372  22.128  22.897   5.850
 8274POPC   GL163373  22.149  22.929   6.150
 8274POPC   GL263374  22.181  22.771   6.150
 8274POPC   C1A63375  22.164  22.967   6.450
 8274POPC   D2A63376  22.178  22.973   6.750
 8274POPC   C3A63377  22.145  22.961   7.050
 8274POPC   C4A63378  22.192  22.903   7.350
 8274POPC   C1B63379  22.112  22.644   6.450
 8274POPC   C2B63380  22.099  22.700   6.750
 8274POPC   C3B63381  22.123  22.688   7.050
 8274POPC   C4B63382  22.160  22.658   7.350
 8275POPC   NC363383  41.532  26.000   5.550
 8275POPC   PO463384  41.555  25.994   5.850
 8275POPC   GL163385  41.535  26.025   6.150
 8275POPC   GL263386  41.609  26.152   6.150
 8275POPC   C1A63387  41.587  26.021   6.450
 8275POPC   D2A63388  41.596  26.065   6.750
 8275POPC   C3A63389  41.549  26.075   7.050
 8275POPC   C4A63390  41.574  26.064   7.350
 8275POPC   C1B63391  41.632  26.281   6.450
 8275POPC   C2B63392  41.608  26.262   6.750
 8275POPC   C3B63393  41.591  26.252   7.050
 8275POPC   C4B63394  41.596  26.331   7.350
 8276POPC   NC363395  36.924  29.174   5.550
 8276POPC   PO463396  36.942  29.111   5.850
 8276POPC   GL163397  36.934  29.105   6.150
 8276POPC   GL263398  36.832  29.213   6.150
 8276POPC   C1A63399  36.918  29.142   6.450
 8276POPC   D2A63400  36.883  29.097   6.750
 8276POPC   C3A63401  36.933  29.134   7.050
 8276POPC   C4A63402  36.885  29.162   7.350
 8276POPC   C1B63403  36.762  29.379   6.450
 8276POPC   C2B63404  36.818  29.337   6.750
 8276POPC   C3B63405  36.781  29.353   7.050
 8276POPC   C4B63406  36.762  29.350   7.350
 8277POPC   NC363407  33.071  39.204   5.550
 8277POPC   PO463408  33.007  39.253   5.850
 8277POPC   GL163409  32.995  39.204   6.150
 8277POPC   GL263410  32.937  39.183   6.150
 8277POPC   C1A63411  33.064  39.261   6.450
 8277POPC   D2A63412  32.975  39.182   6.750
 8277POPC   C3A63413  32.995  39.201   7.050
 8277POPC   C4A63414  33.037  39.238   7.350
 8277POPC   C1B63415  32.733  39.185   6.450
 8277POPC   C2B63416  32.773  39.184   6.750
 8277POPC   C3B63417  32.791  39.202   7.050
 8277POPC   C4B63418  32.764  39.223   7.350
 8278POPC   NC363419  44.694   6.602   5.550
 8278POPC   PO463420  44.645   6.617   5.850
 8278POPC   GL163421  44.624   6.629   6.150
 8278POPC   GL263422  44.557   6.693   6.150
 8278POPC   C1A63423  44.686   6.678   6.450
 8278POPC   D2A63424  44.641   6.615   6.750
 8278POPC   C3A63425  44.707   6.689   7.050
 8278POPC   C4A63426  44.678   6.679   7.350
 8278POPC   C1B63427  44.446   6.646   6.450
 8278POPC   C2B63428  44.439   6.686   6.750
 8278POPC   C3B63429  44.379   6.653   7.050
 8278POPC   C4B63430  44.437   6.651   7.350
 8279POPC   NC363431  43.888   8.161   5.550
 8279POPC   PO463432  43.890   8.189   5.850
 8279POPC   GL163433  43.850   8.222   6.150
 8279POPC   GL263434  43.840   8.038   6.150
 8279POPC   C1A63435  43.861   8.147   6.450
 8279POPC   D2A63436  43.920   8.157   6.750
 8279POPC   C3A63437  43.890   8.172   7.050
 8279POPC   C4A63438  43.893   8.203   7.350
 8279POPC   C1B63439  43.742   7.948   6.450
 8279POPC   C2B63440  43.757   7.994   6.750
 8279POPC   C3B63441  43.790   7.925   7.050
 8279POPC   C4B63442  43.787   7.978   7.350
 8280POPC   NC363443  10.475   3.544   5.550
 8280POPC   PO463444  10.483   3.526   5.850
 8280POPC   GL163445  10.561   3.510   6.150
 8280POPC   GL263446  10.421   3.511   6.150
 8280POPC   C1A63447  10.553   3.520   6.450
 8280POPC   D2A63448  10.513   3.515   6.750
 8280POPC   C3A63449  10.519   3.561   7.050
 8280POPC   C4A63450  10.514   3.530   7.350
 8280POPC   C1B63451  10.328   3.403   6.450
 8280POPC   C2B63452  10.275   3.387   6.750
 8280POPC   C3B63453  10.315   3.401   7.050
 8280POPC   C4B63454  10.306   3.399   7.350
 8281POPC   NC363455   5.087  33.021   5.550
 8281POPC   PO463456   5.094  33.061   5.850
 8281POPC   GL163457   5.131  33.016   6.150
 8281POPC   GL263458   5.096  33.149   6.150
 8281POPC   C1A63459   5.043  33.052   6.450
 8281POPC   D2A63460   5.121  32.992   6.750
 8281POPC   C3A63461   5.067  33.035   7.050
 8281POPC   C4A63462   5.080  33.016   7.350
 8281POPC   C1B63463   5.094  33.286   6.450
 8281POPC   C2B63464   5.025  33.264   6.750
 8281POPC   C3B63465   5.078  33.291   7.050
 8281POPC   C4B63466   5.042  33.232   7.350
 8282POPC   NC363467   0.465   8.196   5.550
 8282POPC   PO463468   0.486   8.236   5.850
 8282POPC   GL163469   0.423   8.205   6.150
 8282POPC   GL263470   0.470   8.338   6.150
 8282POPC   C1A63471   0.398   8.164   6.450
 8282POPC   D2A63472   0.428   8.204   6.750
 8282POPC   C3A63473   0.472   8.243   7.050
 8282POPC   C4A63474   0.469   8.233   7.350
 8282POPC   C1B63475   0.583   8.386   6.450
 8282POPC   C2B63476   0.628   8.384   6.750
 8282POPC   C3B63477   0.590   8.397   7.050
 8282POPC   C4B63478   0.602   8.353   7.350
 8283POPC   NC363479   2.031  30.742   5.550
 8283POPC   PO463480   1.965  30.701   5.850
 8283POPC   GL163481   1.971  30.659   6.150
 8283POPC   GL263482   2.098  30.642   6.150
 8283POPC   C1A63483   2.035  30.673   6.450
 8283POPC   D2A63484   1.991  30.671   6.750
 8283POPC   C3A63485   2.007  30.697   7.050
 8283POPC   C4A63486   1.943  30.709   7.350
 8283POPC   C1B63487   2.201  30.681   6.450
 8283POPC   C2B63488   2.203  30.668   6.750
 8283POPC   C3B63489   2.270  30.588   7.050
 8283POPC   C4B63490   2.242  30.639   7.350
 8284POPC   NC363491  40.785  38.420   5.550
 8284POPC   PO463492  40.791  38.415   5.850
 8284POPC   GL163493  40.824  38.430   6.150
 8284POPC   GL263494  40.830  38.309   6.150
 8284POPC   C1A63495  40.791  38.467   6.450
 8284POPC   D2A63496  40.825  38.457   6.750
 8284POPC   C3A63497  40.751  38.441   7.050
 8284POPC   C4A63498  40.734  38.424   7.350
 8284POPC   C1B63499  40.874  38.236   6.450
 8284POPC   C2B63500  40.884  38.221   6.750
 8284POPC   C3B63501  40.929  38.280   7.050
 8284POPC   C4B63502  40.919  38.222   7.350
 8285POPC   NC363503  40.780  29.942   5.550
 8285POPC   PO463504  40.765  29.930   5.850
 8285POPC   GL163505  40.814  29.935   6.150
 8285POPC   GL263506  40.742  29.821   6.150
 8285POPC   C1A63507  40.790  29.905   6.450
 8285POPC   D2A63508  40.827  29.933   6.750
 8285POPC   C3A63509  40.794  29.876   7.050
 8285POPC   C4A63510  40.758  29.878   7.350
 8285POPC   C1B63511  40.771  29.684   6.450
 8285POPC   C2B63512  40.745  29.664   6.750
 8285POPC   C3B63513  40.701  29.716   7.050
 8285POPC   C4B63514  40.694  29.628   7.350
 8286POPC   NC363515  26.834  24.502   5.550
 8286POPC   PO463516  26.853  24.526   5.850
 8286POPC   GL163517  26.815  24.536   6.150
 8286POPC   GL263518  26.714  24.568   6.150
 8286POPC   C1A63519  26.830  24.532   6.450
 8286POPC   D2A63520  26.845  24.492   6.750
 8286POPC   C3A63521  26.782  24.505   7.050
 8286POPC   C4A63522  26.860  24.441   7.350
 8286POPC   C1B63523  26.696  24.675   6.450
 8286POPC   C2B63524  26.662  24.687   6.750
 8286POPC   C3B63525  26.696  24.681   7.050
 8286POPC   C4B63526  26.687  24.699   7.350
 8287POPC   NC363527   2.726   5.069   5.550
 8287POPC   PO463528   2.777   5.142   5.850
 8287POPC   GL163529   2.783   5.116   6.150
 8287POPC   GL263530   2.855   5.146   6.150
 8287POPC   C1A63531   2.718   5.051   6.450
 8287POPC   D2A63532   2.758   5.046   6.750
 8287POPC   C3A63533   2.733   5.080   7.050
 8287POPC   C4A63534   2.814   5.110   7.350
 8287POPC   C1B63535   2.964   5.239   6.450
 8287POPC   C2B63536   2.905   5.253   6.750
 8287POPC   C3B63537   2.998   5.276   7.050
 8287POPC   C4B63538   2.951   5.303   7.350
 8288POPC   NC363539  12.824  32.979   5.550
 8288POPC   PO463540  12.859  32.993   5.850
 8288POPC   GL163541  12.827  32.987   6.150
 8288POPC   GL263542  12.793  33.164   6.150
 8288POPC   C1A63543  12.883  32.989   6.450
 8288POPC   D2A63544  12.902  33.068   6.750
 8288POPC   C3A63545  12.856  33.033   7.050
 8288POPC   C4A63546  12.885  33.055   7.350
 8288POPC   C1B63547  12.811  33.241   6.450
 8288POPC   C2B63548  12.820  33.216   6.750
 8288POPC   C3B63549  12.729  33.263   7.050
 8288POPC   C4B63550  12.730  33.309   7.350
 8289POPC   NC363551  18.293  11.292   5.550
 8289POPC   PO463552  18.246  11.284   5.850
 8289POPC   GL163553  18.264  11.338   6.150
 8289POPC   GL263554  18.382  11.319   6.150
 8289POPC   C1A63555  18.305  11.339   6.450
 8289POPC   D2A63556  18.258  11.319   6.750
 8289POPC   C3A63557  18.296  11.340   7.050
 8289POPC   C4A63558  18.248  11.269   7.350
 8289POPC   C1B63559  18.529  11.377   6.450
 8289POPC   C2B63560  18.512  11.324   6.750
 8289POPC   C3B63561  18.522  11.383   7.050
 8289POPC   C4B63562  18.535  11.351   7.350
 8290POPC   NC363563  25.273  33.021   5.550
 8290POPC   PO463564  25.254  32.983   5.850
 8290POPC   GL163565  25.240  32.992   6.150
 8290POPC   GL263566  25.424  32.965   6.150
 8290POPC   C1A63567  25.271  33.055   6.450
 8290POPC   D2A63568  25.291  32.993   6.750
 8290POPC   C3A63569  25.244  32.984   7.050
 8290POPC   C4A63570  25.271  32.983   7.350
 8290POPC   C1B63571  25.463  32.924   6.450
 8290POPC   C2B63572  25.503  32.926   6.750
 8290POPC   C3B63573  25.500  32.930   7.050
 8290POPC   C4B63574  25.523  32.927   7.350
 8291POPC   NC363575  12.811   8.972   5.550
 8291POPC   PO463576  12.851   8.953   5.850
 8291POPC   GL163577  12.806   8.956   6.150
 8291POPC   GL263578  12.917   9.070   6.150
 8291POPC   C1A63579  12.821   9.020   6.450
 8291POPC   D2A63580  12.894   9.014   6.750
 8291POPC   C3A63581  12.814   8.945   7.050
 8291POPC   C4A63582  12.900   8.931   7.350
 8291POPC   C1B63583  13.059   9.162   6.450
 8291POPC   C2B63584  13.050   9.171   6.750
 8291POPC   C3B63585  13.023   9.109   7.050
 8291POPC   C4B63586  13.017   9.098   7.350
 8292POPC   NC363587   1.240  32.229   5.550
 8292POPC   PO463588   1.248  32.232   5.850
 8292POPC   GL163589   1.250  32.283   6.150
 8292POPC   GL263590   1.228  32.370   6.150
 8292POPC   C1A63591   1.201  32.209   6.450
 8292POPC   D2A63592   1.166  32.245   6.750
 8292POPC   C3A63593   1.234  32.276   7.050
 8292POPC   C4A63594   1.206  32.258   7.350
 8292POPC   C1B63595   1.278  32.451   6.450
 8292POPC   C2B63596   1.304  32.503   6.750
 8292POPC   C3B63597   1.324  32.511   7.050
 8292POPC   C4B63598   1.281  32.506   7.350
 8293POPC   NC363599  19.095  36.162   5.550
 8293POPC   PO463600  19.093  36.094   5.850
 8293POPC   GL163601  19.089  36.170   6.150
 8293POPC   GL263602  19.055  36.230   6.150
 8293POPC   C1A63603  19.020  36.161   6.450
 8293POPC   D2A63604  19.015  36.126   6.750
 8293POPC   C3A63605  19.079  36.120   7.050
 8293POPC   C4A63606  19.023  36.174   7.350
 8293POPC   C1B63607  19.150  36.341   6.450
 8293POPC   C2B63608  19.131  36.338   6.750
 8293POPC   C3B63609  19.088  36.347   7.050
 8293POPC   C4B63610  19.163  36.392   7.350
 8294POPC   NC363611  27.579  33.847   5.550
 8294POPC   PO463612  27.607  33.777   5.850
 8294POPC   GL163613  27.618  33.775   6.150
 8294POPC   GL263614  27.718  33.733   6.150
 8294POPC   C1A63615  27.614  33.822   6.450
 8294POPC   D2A63616  27.601  33.768   6.750
 8294POPC   C3A63617  27.636  33.778   7.050
 8294POPC   C4A63618  27.639  33.849   7.350
 8294POPC   C1B63619  27.733  33.675   6.450
 8294POPC   C2B63620  27.795  33.642   6.750
 8294POPC   C3B63621  27.779  33.649   7.050
 8294POPC   C4B63622  27.772  33.589   7.350
 8295POPC   NC363623  15.995  17.515   5.550
 8295POPC   PO463624  15.926  17.490   5.850
 8295POPC   GL163625  15.938  17.471   6.150
 8295POPC   GL263626  15.943  17.382   6.150
 8295POPC   C1A63627  15.976  17.501   6.450
 8295POPC   D2A63628  15.963  17.467   6.750
 8295POPC   C3A63629  15.957  17.479   7.050
 8295POPC   C4A63630  15.973  17.502   7.350
 8295POPC   C1B63631  15.851  17.231   6.450
 8295POPC   C2B63632  15.896  17.265   6.750
 8295POPC   C3B63633  15.889  17.231   7.050
 8295POPC   C4B63634  15.841  17.305   7.350
 8296POPC   NC363635  36.151  24.512   5.550
 8296POPC   PO463636  36.130  24.485   5.850
 8296POPC   GL163637  36.176  24.491   6.150
 8296POPC   GL263638  36.234  24.605   6.150
 8296POPC   C1A63639  36.175  24.518   6.450
 8296POPC   D2A63640  36.148  24.501   6.750
 8296POPC   C3A63641  36.100  24.522   7.050
 8296POPC   C4A63642  36.122  24.445   7.350
 8296POPC   C1B63643  36.289  24.643   6.450
 8296POPC   C2B63644  36.262  24.709   6.750
 8296POPC   C3B63645  36.233  24.734   7.050
 8296POPC   C4B63646  36.229  24.645   7.350
 8297POPC   NC363647  43.086   0.411   5.550
 8297POPC   PO463648  43.109   0.429   5.850
 8297POPC   GL163649  43.157   0.478   6.150
 8297POPC   GL263650  43.218   0.436   6.150
 8297POPC   C1A63651  43.160   0.410   6.450
 8297POPC   D2A63652  43.095   0.391   6.750
 8297POPC   C3A63653  43.097   0.393   7.050
 8297POPC   C4A63654  43.138   0.470   7.350
 8297POPC   C1B63655  43.339   0.406   6.450
 8297POPC   C2B63656  43.364   0.420   6.750
 8297POPC   C3B63657  43.388   0.425   7.050
 8297POPC   C4B63658  43.321   0.426   7.350
 8298POPC   NC363659  35.351  38.459   5.550
 8298POPC   PO463660  35.350  38.451   5.850
 8298POPC   GL163661  35.345  38.429   6.150
 8298POPC   GL263662  35.292  38.513   6.150
 8298POPC   C1A63663  35.303  38.441   6.450
 8298POPC   D2A63664  35.357  38.421   6.750
 8298POPC   C3A63665  35.332  38.432   7.050
 8298POPC   C4A63666  35.376  38.432   7.350
 8298POPC   C1B63667  35.116  38.641   6.450
 8298POPC   C2B63668  35.130  38.589   6.750
 8298POPC   C3B63669  35.106  38.569   7.050
 8298POPC   C4B63670  35.132  38.572   7.350
 8299POPC   NC363671  15.192  25.278   5.550
 8299POPC   PO463672  15.156  25.315   5.850
 8299POPC   GL163673  15.214  25.289   6.150
 8299POPC   GL263674  15.107  25.269   6.150
 8299POPC   C1A63675  15.228  25.225   6.450
 8299POPC   D2A63676  15.145  25.308   6.750
 8299POPC   C3A63677  15.165  25.240   7.050
 8299POPC   C4A63678  15.213  25.302   7.350
 8299POPC   C1B63679  14.985  25.289   6.450
 8299POPC   C2B63680  14.920  25.299   6.750
 8299POPC   C3B63681  14.971  25.292   7.050
 8299POPC   C4B63682  14.970  25.363   7.350
 8300POPC   NC363683  44.647  42.291   5.550
 8300POPC   PO463684  44.646  42.340   5.850
 8300POPC   GL163685  44.619  42.358   6.150
 8300POPC   GL263686  44.803  42.433   6.150
 8300POPC   C1A63687  44.650  42.336   6.450
 8300POPC   D2A63688  44.694  42.350   6.750
 8300POPC   C3A63689  44.643  42.320   7.050
 8300POPC   C4A63690  44.671  42.379   7.350
 8300POPC   C1B63691  44.902  42.493   6.450
 8300POPC   C2B63692  44.927  42.423   6.750
 8300POPC   C3B63693  44.856  42.423   7.050
 8300POPC   C4B63694  44.875  42.474   7.350
 8301POPC   NC363695  33.831  14.403   5.550
 8301POPC   PO463696  33.787  14.411   5.850
 8301POPC   GL163697  33.756  14.448   6.150
 8301POPC   GL263698  33.685  14.463   6.150
 8301POPC   C1A63699  33.782  14.401   6.450
 8301POPC   D2A63700  33.839  14.403   6.750
 8301POPC   C3A63701  33.849  14.424   7.050
 8301POPC   C4A63702  33.752  14.429   7.350
 8301POPC   C1B63703  33.584  14.599   6.450
 8301POPC   C2B63704  33.671  14.570   6.750
 8301POPC   C3B63705  33.658  14.618   7.050
 8301POPC   C4B63706  33.638  14.544   7.350
 8302POPC   NC363707  36.920  40.823   5.550
 8302POPC   PO463708  36.897  40.821   5.850
 8302POPC   GL163709  36.901  40.782   6.150
 8302POPC   GL263710  36.925  40.617   6.150
 8302POPC   C1A63711  36.923  40.799   6.450
 8302POPC   D2A63712  36.879  40.735   6.750
 8302POPC   C3A63713  36.922  40.762   7.050
 8302POPC   C4A63714  36.876  40.829   7.350
 8302POPC   C1B63715  36.979  40.525   6.450
 8302POPC   C2B63716  36.946  40.520   6.750
 8302POPC   C3B63717  36.960  40.527   7.050
 8302POPC   C4B63718  36.931  40.536   7.350
 8303POPC   NC363719  35.340   3.527   5.550
 8303POPC   PO463720  35.336   3.543   5.850
 8303POPC   GL163721  35.364   3.530   6.150
 8303POPC   GL263722  35.430   3.618   6.150
 8303POPC   C1A63723  35.376   3.561   6.450
 8303POPC   D2A63724  35.317   3.513   6.750
 8303POPC   C3A63725  35.304   3.529   7.050
 8303POPC   C4A63726  35.371   3.577   7.350
 8303POPC   C1B63727  35.506   3.719   6.450
 8303POPC   C2B63728  35.548   3.750   6.750
 8303POPC   C3B63729  35.542   3.734   7.050
 8303POPC   C4B63730  35.554   3.705   7.350
 8304POPC   NC363731  37.701   9.761   5.550
 8304POPC   PO463732  37.638   9.719   5.850
 8304POPC   GL163733  37.657   9.777   6.150
 8304POPC   GL263734  37.514   9.670   6.150
 8304POPC   C1A63735  37.714   9.700   6.450
 8304POPC   D2A63736  37.661   9.761   6.750
 8304POPC   C3A63737  37.683   9.750   7.050
 8304POPC   C4A63738  37.639   9.740   7.350
 8304POPC   C1B63739  37.466   9.654   6.450
 8304POPC   C2B63740  37.413   9.698   6.750
 8304POPC   C3B63741  37.417   9.710   7.050
 8304POPC   C4B63742  37.468   9.624   7.350
 8305POPC   NC363743  35.387  19.034   5.550
 8305POPC   PO463744  35.324  19.090   5.850
 8305POPC   GL163745  35.382  19.075   6.150
 8305POPC   GL263746  35.285  19.092   6.150
 8305POPC   C1A63747  35.307  19.038   6.450
 8305POPC   D2A63748  35.312  19.067   6.750
 8305POPC   C3A63749  35.325  19.058   7.050
 8305POPC   C4A63750  35.302  19.055   7.350
 8305POPC   C1B63751  35.146  19.266   6.450
 8305POPC   C2B63752  35.116  19.174   6.750
 8305POPC   C3B63753  35.142  19.250   7.050
 8305POPC   C4B63754  35.117  19.266   7.350
 8306POPC   NC363755  35.375  26.796   5.550
 8306POPC   PO463756  35.391  26.835   5.850
 8306POPC   GL163757  35.373  26.844   6.150
 8306POPC   GL263758  35.354  26.652   6.150
 8306POPC   C1A63759  35.353  26.775   6.450
 8306POPC   D2A63760  35.324  26.844   6.750
 8306POPC   C3A63761  35.386  26.775   7.050
 8306POPC   C4A63762  35.352  26.859   7.350
 8306POPC   C1B63763  35.359  26.584   6.450
 8306POPC   C2B63764  35.411  26.605   6.750
 8306POPC   C3B63765  35.386  26.609   7.050
 8306POPC   C4B63766  35.370  26.595   7.350
 8307POPC   NC363767  15.139  16.004   5.550
 8307POPC   PO463768  15.184  15.980   5.850
 8307POPC   GL163769  15.178  15.909   6.150
 8307POPC   GL263770  15.265  15.964   6.150
 8307POPC   C1A63771  15.212  15.932   6.450
 8307POPC   D2A63772  15.139  15.991   6.750
 8307POPC   C3A63773  15.181  15.912   7.050
 8307POPC   C4A63774  15.220  15.935   7.350
 8307POPC   C1B63775  15.379  15.904   6.450
 8307POPC   C2B63776  15.433  15.927   6.750
 8307POPC   C3B63777  15.374  15.935   7.050
 8307POPC   C4B63778  15.431  15.878   7.350
 8308POPC   NC363779  12.864  10.546   5.550
 8308POPC   PO463780  12.865  10.570   5.850
 8308POPC   GL163781  12.816  10.485   6.150
 8308POPC   GL263782  12.904  10.428   6.150
 8308POPC   C1A63783  12.852  10.513   6.450
 8308POPC   D2A63784  12.867  10.542   6.750
 8308POPC   C3A63785  12.883  10.557   7.050
 8308POPC   C4A63786  12.867  10.518   7.350
 8308POPC   C1B63787  13.001  10.347   6.450
 8308POPC   C2B63788  12.945  10.292   6.750
 8308POPC   C3B63789  12.992  10.263   7.050
 8308POPC   C4B63790  12.937  10.262   7.350
 8309POPC   NC363791  16.726  12.110   5.550
 8309POPC   PO463792  16.736  12.070   5.850
 8309POPC   GL163793  16.769  12.086   6.150
 8309POPC   GL263794  16.742  11.978   6.150
 8309POPC   C1A63795  16.726  12.061   6.450
 8309POPC   D2A63796  16.780  12.122   6.750
 8309POPC   C3A63797  16.743  12.052   7.050
 8309POPC   C4A63798  16.693  12.062   7.350
 8309POPC   C1B63799  16.823  11.822   6.450
 8309POPC   C2B63800  16.763  11.820   6.750
 8309POPC   C3B63801  16.794  11.800   7.050
 8309POPC   C4B63802  16.817  11.864   7.350
 8310POPC   NC363803   3.505  22.891   5.550
 8310POPC   PO463804   3.505  22.920   5.850
 8310POPC   GL163805   3.556  22.978   6.150
 8310POPC   GL263806   3.555  23.021   6.150
 8310POPC   C1A63807   3.558  22.961   6.450
 8310POPC   D2A63808   3.573  22.908   6.750
 8310POPC   C3A63809   3.582  22.960   7.050
 8310POPC   C4A63810   3.554  22.938   7.350
 8310POPC   C1B63811   3.613  23.180   6.450
 8310POPC   C2B63812   3.628  23.186   6.750
 8310POPC   C3B63813   3.624  23.172   7.050
 8310POPC   C4B63814   3.586  23.201   7.350
 8311POPC   NC363815  30.726  31.517   5.550
 8311POPC   PO463816  30.716  31.431   5.850
 8311POPC   GL163817  30.727  31.449   6.150
 8311POPC   GL263818  30.777  31.499   6.150
 8311POPC   C1A63819  30.718  31.520   6.450
 8311POPC   D2A63820  30.703  31.474   6.750
 8311POPC   C3A63821  30.719  31.450   7.050
 8311POPC   C4A63822  30.731  31.484   7.350
 8311POPC   C1B63823  30.987  31.402   6.450
 8311POPC   C2B63824  30.939  31.380   6.750
 8311POPC   C3B63825  30.931  31.472   7.050
 8311POPC   C4B63826  30.956  31.386   7.350
 8312POPC   NC363827  21.405  19.827   5.550
 8312POPC   PO463828  21.394  19.825   5.850
 8312POPC   GL163829  21.350  19.826   6.150
 8312POPC   GL263830  21.335  19.699   6.150
 8312POPC   C1A63831  21.338  19.860   6.450
 8312POPC   D2A63832  21.397  19.848   6.750
 8312POPC   C3A63833  21.374  19.806   7.050
 8312POPC   C4A63834  21.360  19.870   7.350
 8312POPC   C1B63835  21.234  19.588   6.450
 8312POPC   C2B63836  21.275  19.639   6.750
 8312POPC   C3B63837  21.239  19.623   7.050
 8312POPC   C4B63838  21.259  19.617   7.350
 8313POPC   NC363839   9.723  11.289   5.550
 8313POPC   PO463840   9.771  11.265   5.850
 8313POPC   GL163841   9.756  11.303   6.150
 8313POPC   GL263842   9.705  11.406   6.150
 8313POPC   C1A63843   9.732  11.335   6.450
 8313POPC   D2A63844   9.722  11.329   6.750
 8313POPC   C3A63845   9.717  11.288   7.050
 8313POPC   C4A63846   9.781  11.341   7.350
 8313POPC   C1B63847   9.628  11.543   6.450
 8313POPC   C2B63848   9.649  11.580   6.750
 8313POPC   C3B63849   9.702  11.557   7.050
 8313POPC   C4B63850   9.676  11.573   7.350
 8314POPC   NC363851   2.018   9.006   5.550
 8314POPC   PO463852   1.960   8.966   5.850
 8314POPC   GL163853   2.039   8.974   6.150
 8314POPC   GL263854   2.006   8.897   6.150
 8314POPC   C1A63855   2.015   8.991   6.450
 8314POPC   D2A63856   1.996   8.999   6.750
 8314POPC   C3A63857   1.983   8.988   7.050
 8314POPC   C4A63858   1.998   8.953   7.350
 8314POPC   C1B63859   2.077   8.712   6.450
 8314POPC   C2B63860   2.082   8.748   6.750
 8314POPC   C3B63861   2.074   8.745   7.050
 8314POPC   C4B63862   2.092   8.758   7.350
 8315POPC   NC363863  25.298   9.775   5.550
 8315POPC   PO463864  25.226   9.794   5.850
 8315POPC   GL163865  25.291   9.706   6.150
 8315POPC   GL263866  25.274   9.857   6.150
 8315POPC   C1A63867  25.284   9.719   6.450
 8315POPC   D2A63868  25.260   9.767   6.750
 8315POPC   C3A63869  25.247   9.778   7.050
 8315POPC   C4A63870  25.217   9.708   7.350
 8315POPC   C1B63871  25.251  10.047   6.450
 8315POPC   C2B63872  25.323   9.988   6.750
 8315POPC   C3B63873  25.290  10.045   7.050
 8315POPC   C4B63874  25.272   9.997   7.350
 8316POPC   NC363875  34.529  44.704   5.550
 8316POPC   PO463876  34.611  44.659   5.850
 8316POPC   GL163877  34.597  44.676   6.150
 8316POPC   GL263878  34.635  44.610   6.150
 8316POPC   C1A63879  34.602  44.669   6.450
 8316POPC   D2A63880  34.607  44.615   6.750
 8316POPC   C3A63881  34.564  44.677   7.050
 8316POPC   C4A63882  34.567  44.621   7.350
 8316POPC   C1B63883  34.754  44.490   6.450
 8316POPC   C2B63884  34.767  44.545   6.750
 8316POPC   C3B63885  34.755  44.484   7.050
 8316POPC   C4B63886  34.784  44.557   7.350
 8317POPC   NC363887   8.200  32.289   5.550
 8317POPC   PO463888   8.171  32.244   5.850
 8317POPC   GL163889   8.245  32.210   6.150
 8317POPC   GL263890   8.177  32.357   6.150
 8317POPC   C1A63891   8.195  32.214   6.450
 8317POPC   D2A63892   8.244  32.288   6.750
 8317POPC   C3A63893   8.228  32.244   7.050
 8317POPC   C4A63894   8.223  32.261   7.350
 8317POPC   C1B63895   8.166  32.531   6.450
 8317POPC   C2B63896   8.135  32.491   6.750
 8317POPC   C3B63897   8.137  32.484   7.050
 8317POPC   C4B63898   8.128  32.508   7.350
 8318POPC   NC363899  43.843  39.991   5.550
 8318POPC   PO463900  43.873  39.971   5.850
 8318POPC   GL163901  43.924  40.035   6.150
 8318POPC   GL263902  43.790  40.096   6.150
 8318POPC   C1A63903  43.915  40.036   6.450
 8318POPC   D2A63904  43.908  40.055   6.750
 8318POPC   C3A63905  43.929  39.964   7.050
 8318POPC   C4A63906  43.910  40.040   7.350
 8318POPC   C1B63907  43.651  40.131   6.450
 8318POPC   C2B63908  43.658  40.082   6.750
 8318POPC   C3B63909  43.692  40.084   7.050
 8318POPC   C4B63910  43.614  40.128   7.350
 8319POPC   NC363911  42.315  33.065   5.550
 8319POPC   PO463912  42.379  33.012   5.850
 8319POPC   GL163913  42.359  33.001   6.150
 8319POPC   GL263914  42.265  32.882   6.150
 8319POPC   C1A63915  42.332  32.975   6.450
 8319POPC   D2A63916  42.353  33.072   6.750
 8319POPC   C3A63917  42.383  32.988   7.050
 8319POPC   C4A63918  42.306  33.005   7.350
 8319POPC   C1B63919  42.265  32.805   6.450
 8319POPC   C2B63920  42.284  32.813   6.750
 8319POPC   C3B63921  42.230  32.756   7.050
 8319POPC   C4B63922  42.257  32.772   7.350
 8320POPC   NC363923   1.192  28.352   5.550
 8320POPC   PO463924   1.199  28.345   5.850
 8320POPC   GL163925   1.195  28.325   6.150
 8320POPC   GL263926   1.252  28.301   6.150
 8320POPC   C1A63927   1.250  28.370   6.450
 8320POPC   D2A63928   1.180  28.370   6.750
 8320POPC   C3A63929   1.170  28.419   7.050
 8320POPC   C4A63930   1.178  28.353   7.350
 8320POPC   C1B63931   1.343  28.099   6.450
 8320POPC   C2B63932   1.304  28.113   6.750
 8320POPC   C3B63933   1.298  28.131   7.050
 8320POPC   C4B63934   1.333  28.174   7.350
 8321POPC   NC363935  10.482   1.243   5.550
 8321POPC   PO463936  10.538   1.192   5.850
 8321POPC   GL163937  10.571   1.185   6.150
 8321POPC   GL263938  10.406   1.286   6.150
 8321POPC   C1A63939  10.543   1.183   6.450
 8321POPC   D2A63940  10.505   1.210   6.750
 8321POPC   C3A63941  10.509   1.260   7.050
 8321POPC   C4A63942  10.485   1.194   7.350
 8321POPC   C1B63943  10.309   1.281   6.450
 8321POPC   C2B63944  10.262   1.226   6.750
 8321POPC   C3B63945  10.318   1.307   7.050
 8321POPC   C4B63946  10.274   1.246   7.350
 8322POPC   NC363947  29.918  39.243   5.550
 8322POPC   PO463948  29.930  39.275   5.850
 8322POPC   GL163949  29.937  39.195   6.150
 8322POPC   GL263950  30.027  39.199   6.150
 8322POPC   C1A63951  29.894  39.279   6.450
 8322POPC   D2A63952  29.968  39.186   6.750
 8322POPC   C3A63953  29.910  39.241   7.050
 8322POPC   C4A63954  29.921  39.202   7.350
 8322POPC   C1B63955  30.150  39.267   6.450
 8322POPC   C2B63956  30.145  39.267   6.750
 8322POPC   C3B63957  30.209  39.176   7.050
 8322POPC   C4B63958  30.124  39.266   7.350
 8323POPC   NC363959  25.268  20.620   5.550
 8323POPC   PO463960  25.298  20.605   5.850
 8323POPC   GL163961  25.288  20.564   6.150
 8323POPC   GL263962  25.407  20.655   6.150
 8323POPC   C1A63963  25.250  20.593   6.450
 8323POPC   D2A63964  25.237  20.617   6.750
 8323POPC   C3A63965  25.281  20.614   7.050
 8323POPC   C4A63966  25.262  20.655   7.350
 8323POPC   C1B63967  25.536  20.665   6.450
 8323POPC   C2B63968  25.490  20.687   6.750
 8323POPC   C3B63969  25.493  20.632   7.050
 8323POPC   C4B63970  25.556  20.651   7.350
 8324POPC   NC363971  38.496  29.114   5.550
 8324POPC   PO463972  38.411  29.189   5.850
 8324POPC   GL163973  38.437  29.191   6.150
 8324POPC   GL263974  38.385  29.108   6.150
 8324POPC   C1A63975  38.473  29.131   6.450
 8324POPC   D2A63976  38.421  29.172   6.750
 8324POPC   C3A63977  38.483  29.144   7.050
 8324POPC   C4A63978  38.429  29.146   7.350
 8324POPC   C1B63979  38.287  28.989   6.450
 8324POPC   C2B63980  38.294  28.966   6.750
 8324POPC   C3B63981  38.312  28.956   7.050
 8324POPC   C4B63982  38.312  28.964   7.350
 8325POPC   NC363983   2.028  36.138   5.550
 8325POPC   PO463984   1.946  36.176   5.850
 8325POPC   GL163985   2.035  36.089   6.150
 8325POPC   GL263986   2.072  36.107   6.150
 8325POPC   C1A63987   1.961  36.092   6.450
 8325POPC   D2A63988   1.955  36.081   6.750
 8325POPC   C3A63989   1.982  36.162   7.050
 8325POPC   C4A63990   2.011  36.153   7.350
 8325POPC   C1B63991   2.224  36.205   6.450
 8325POPC   C2B63992   2.265  36.122   6.750
 8325POPC   C3B63993   2.218  36.140   7.050
 8325POPC   C4B63994   2.247  36.151   7.350
 8326POPC   NC363995  26.031  35.340   5.550
 8326POPC   PO463996  26.089  35.318   5.850
 8326POPC   GL163997  26.046  35.366   6.150
 8326POPC   GL263998  26.052  35.474   6.150
 8326POPC   C1A63999  25.993  35.303   6.450
 8326POPC   D2A64000  26.007  35.326   6.750
 8326POPC   C3A64001  26.027  35.368   7.050
 8326POPC   C4A64002  26.082  35.389   7.350
 8326POPC   C1B64003  26.041  35.612   6.450
 8326POPC   C2B64004  26.078  35.620   6.750
 8326POPC   C3B64005  26.113  35.565   7.050
 8326POPC   C4B64006  26.100  35.615   7.350
 8327POPC   NC364007  15.173  33.011   5.550
 8327POPC   PO464008  15.186  32.983   5.850
 8327POPC   GL164009  15.186  32.979   6.150
 8327POPC   GL264010  15.101  33.081   6.150
 8327POPC   C1A64011  15.134  32.987   6.450
 8327POPC   D2A64012  15.210  33.069   6.750
 8327POPC   C3A64013  15.205  33.044   7.050
 8327POPC   C4A64014  15.183  33.061   7.350
 8327POPC   C1B64015  14.905  33.102   6.450
 8327POPC   C2B64016  14.970  33.035   6.750
 8327POPC   C3B64017  14.900  33.016   7.050
 8327POPC   C4B64018  14.922  33.018   7.350
 8328POPC   NC364019  35.394  42.355   5.550
 8328POPC   PO464020  35.305  42.345   5.850
 8328POPC   GL164021  35.337  42.360   6.150
 8328POPC   GL264022  35.229  42.263   6.150
 8328POPC   C1A64023  35.378  42.359   6.450
 8328POPC   D2A64024  35.340  42.348   6.750
 8328POPC   C3A64025  35.401  42.357   7.050
 8328POPC   C4A64026  35.365  42.343   7.350
 8328POPC   C1B64027  35.204  42.177   6.450
 8328POPC   C2B64028  35.188  42.180   6.750
 8328POPC   C3B64029  35.204  42.166   7.050
 8328POPC   C4B64030  35.174  42.187   7.350
 8329POPC   NC364031  23.669  23.728   5.550
 8329POPC   PO464032  23.691  23.667   5.850
 8329POPC   GL164033  23.755  23.726   6.150
 8329POPC   GL264034  23.792  23.691   6.150
 8329POPC   C1A64035  23.697  23.692   6.450
 8329POPC   D2A64036  23.681  23.714   6.750
 8329POPC   C3A64037  23.677  23.707   7.050
 8329POPC   C4A64038  23.725  23.751   7.350
 8329POPC   C1B64039  23.983  23.689   6.450
 8329POPC   C2B64040  23.972  23.708   6.750
 8329POPC   C3B64041  23.973  23.738   7.050
 8329POPC   C4B64042  23.936  23.663   7.350
 8330POPC   NC364043  13.596   5.917   5.550
 8330POPC   PO464044  13.593   5.829   5.850
 8330POPC   GL164045  13.583   5.840   6.150
 8330POPC   GL264046  13.538   5.918   6.150
 8330POPC   C1A64047  13.609   5.916   6.450
 8330POPC   D2A64048  13.583   5.859   6.750
 8330POPC   C3A64049  13.597   5.821   7.050
 8330POPC   C4A64050  13.621   5.875   7.350
 8330POPC   C1B64051  13.480   6.059   6.450
 8330POPC   C2B64052  13.399   5.992   6.750
 8330POPC   C3B64053  13.470   6.000   7.050
 8330POPC   C4B64054  13.480   6.042   7.350
 8331POPC   NC364055  43.088   1.173   5.550
 8331POPC   PO464056  43.103   1.206   5.850
 8331POPC   GL164057  43.064   1.180   6.150
 8331POPC   GL264058  42.961   1.309   6.150
 8331POPC   C1A64059  43.063   1.248   6.450
 8331POPC   D2A64060  43.117   1.208   6.750
 8331POPC   C3A64061  43.082   1.261   7.050
 8331POPC   C4A64062  43.107   1.247   7.350
 8331POPC   C1B64063  42.915   1.384   6.450
 8331POPC   C2B64064  42.872   1.376   6.750
 8331POPC   C3B64065  42.942   1.405   7.050
 8331POPC   C4B64066  42.899   1.340   7.350
 8332POPC   NC364067   7.451  14.366   5.550
 8332POPC   PO464068   7.445  14.398   5.850
 8332POPC   GL164069   7.371  14.441   6.150
 8332POPC   GL264070   7.348  14.545   6.150
 8332POPC   C1A64071   7.454  14.415   6.450
 8332POPC   D2A64072   7.421  14.369   6.750
 8332POPC   C3A64073   7.454  14.383   7.050
 8332POPC   C4A64074   7.383  14.406   7.350
 8332POPC   C1B64075   7.280  14.601   6.450
 8332POPC   C2B64076   7.299  14.622   6.750
 8332POPC   C3B64077   7.249  14.571   7.050
 8332POPC   C4B64078   7.259  14.656   7.350
 8333POPC   NC364079  10.551   9.753   5.550
 8333POPC   PO464080  10.560   9.724   5.850
 8333POPC   GL164081  10.486   9.751   6.150
 8333POPC   GL264082  10.512   9.594   6.150
 8333POPC   C1A64083  10.508   9.781   6.450
 8333POPC   D2A64084  10.543   9.726   6.750
 8333POPC   C3A64085  10.568   9.732   7.050
 8333POPC   C4A64086  10.520   9.718   7.350
 8333POPC   C1B64087  10.578   9.526   6.450
 8333POPC   C2B64088  10.522   9.457   6.750
 8333POPC   C3B64089  10.531   9.496   7.050
 8333POPC   C4B64090  10.532   9.500   7.350
 8334POPC   NC364091  22.121  15.927   5.550
 8334POPC   PO464092  22.185  15.941   5.850
 8334POPC   GL164093  22.118  15.913   6.150
 8334POPC   GL264094  22.147  16.113   6.150
 8334POPC   C1A64095  22.146  15.984   6.450
 8334POPC   D2A64096  22.197  15.928   6.750
 8334POPC   C3A64097  22.154  15.943   7.050
 8334POPC   C4A64098  22.116  15.956   7.350
 8334POPC   C1B64099  22.181  16.225   6.450
 8334POPC   C2B64100  22.225  16.226   6.750
 8334POPC   C3B64101  22.176  16.180   7.050
 8334POPC   C4B64102  22.230  16.205   7.350
 8335POPC   NC364103  28.415  44.656   5.550
 8335POPC   PO464104  28.382  44.670   5.850
 8335POPC   GL164105  28.418  44.635   6.150
 8335POPC   GL264106  28.219  44.736   6.150
 8335POPC   C1A64107  28.347  44.709   6.450
 8335POPC   D2A64108  28.381  44.656   6.750
 8335POPC   C3A64109  28.388  44.651   7.050
 8335POPC   C4A64110  28.341  44.673   7.350
 8335POPC   C1B64111  28.142  44.743   6.450
 8335POPC   C2B64112  28.164  44.717   6.750
 8335POPC   C3B64113  28.142  44.669   7.050
 8335POPC   C4B64114  28.106  44.684   7.350
 8336POPC   NC364115   2.014   9.770   5.550
 8336POPC   PO464116   1.988   9.706   5.850
 8336POPC   GL164117   1.993   9.717   6.150
 8336POPC   GL264118   2.123   9.751   6.150
 8336POPC   C1A64119   1.941   9.755   6.450
 8336POPC   D2A64120   2.025   9.718   6.750
 8336POPC   C3A64121   1.977   9.764   7.050
 8336POPC   C4A64122   2.027   9.798   7.350
 8336POPC   C1B64123   2.265   9.886   6.450
 8336POPC   C2B64124   2.209   9.829   6.750
 8336POPC   C3B64125   2.191   9.827   7.050
 8336POPC   C4B64126   2.226   9.885   7.350
 8337POPC   NC364127   5.899  10.499   5.550
 8337POPC   PO464128   5.894  10.542   5.850
 8337POPC   GL164129   5.912  10.555   6.150
 8337POPC   GL264130   5.928  10.447   6.150
 8337POPC   C1A64131   5.871  10.504   6.450
 8337POPC   D2A64132   5.838  10.570   6.750
 8337POPC   C3A64133   5.841  10.531   7.050
 8337POPC   C4A64134   5.825  10.476   7.350
 8337POPC   C1B64135   6.000  10.291   6.450
 8337POPC   C2B64136   6.022  10.324   6.750
 8337POPC   C3B64137   6.062  10.327   7.050
 8337POPC   C4B64138   5.983  10.316   7.350
 8338POPC   NC364139  11.261   1.170   5.550
 8338POPC   PO464140  11.290   1.218   5.850
 8338POPC   GL164141  11.320   1.237   6.150
 8338POPC   GL264142  11.202   1.181   6.150
 8338POPC   C1A64143  11.329   1.233   6.450
 8338POPC   D2A64144  11.265   1.243   6.750
 8338POPC   C3A64145  11.250   1.175   7.050
 8338POPC   C4A64146  11.311   1.257   7.350
 8338POPC   C1B64147  11.074   1.162   6.450
 8338POPC   C2B64148  11.072   1.158   6.750
 8338POPC   C3B64149  11.020   1.185   7.050
 8338POPC   C4B64150  11.075   1.109   7.350
 8339POPC   NC364151  42.344  25.307   5.550
 8339POPC   PO464152  42.317  25.248   5.850
 8339POPC   GL164153  42.313  25.314   6.150
 8339POPC   GL264154  42.229  25.186   6.150
 8339POPC   C1A64155  42.289  25.306   6.450
 8339POPC   D2A64156  42.340  25.283   6.750
 8339POPC   C3A64157  42.349  25.230   7.050
 8339POPC   C4A64158  42.374  25.261   7.350
 8339POPC   C1B64159  42.103  25.128   6.450
 8339POPC   C2B64160  42.138  25.113   6.750
 8339POPC   C3B64161  42.148  25.111   7.050
 8339POPC   C4B64162  42.155  25.135   7.350
 8340POPC   NC364163  19.009  41.538   5.550
 8340POPC   PO464164  19.064  41.599   5.850
 8340POPC   GL164165  19.069  41.596   6.150
 8340POPC   GL264166  19.071  41.399   6.150
 8340POPC   C1A64167  19.066  41.553   6.450
 8340POPC   D2A64168  19.028  41.539   6.750
 8340POPC   C3A64169  19.032  41.596   7.050
 8340POPC   C4A64170  19.049  41.528   7.350
 8340POPC   C1B64171  19.094  41.344   6.450
 8340POPC   C2B64172  19.124  41.293   6.750
 8340POPC   C3B64173  19.038  41.300   7.050
 8340POPC   C4B64174  19.117  41.313   7.350
 8341POPC   NC364175  22.922  24.537   5.550
 8341POPC   PO464176  22.967  24.440   5.850
 8341POPC   GL164177  22.956  24.450   6.150
 8341POPC   GL264178  22.880  24.615   6.150
 8341POPC   C1A64179  22.960  24.450   6.450
 8341POPC   D2A64180  22.987  24.536   6.750
 8341POPC   C3A64181  22.920  24.486   7.050
 8341POPC   C4A64182  22.925  24.520   7.350
 8341POPC   C1B64183  22.891  24.727   6.450
 8341POPC   C2B64184  22.919  24.730   6.750
 8341POPC   C3B64185  22.882  24.709   7.050
 8341POPC   C4B64186  22.946  24.723   7.350
 8342POPC   NC364187  27.631  18.250   5.550
 8342POPC   PO464188  27.567  18.235   5.850
 8342POPC   GL164189  27.603  18.277   6.150
 8342POPC   GL264190  27.700  18.370   6.150
 8342POPC   C1A64191  27.631  18.301   6.450
 8342POPC   D2A64192  27.614  18.284   6.750
 8342POPC   C3A64193  27.549  18.324   7.050
 8342POPC   C4A64194  27.637  18.236   7.350
 8342POPC   C1B64195  27.775  18.441   6.450
 8342POPC   C2B64196  27.807  18.399   6.750
 8342POPC   C3B64197  27.775  18.427   7.050
 8342POPC   C4B64198  27.776  18.379   7.350
 8343POPC   NC364199   5.877  11.295   5.550
 8343POPC   PO464200   5.914  11.282   5.850
 8343POPC   GL164201   5.874  11.263   6.150
 8343POPC   GL264202   5.790  11.186   6.150
 8343POPC   C1A64203   5.877  11.335   6.450
 8343POPC   D2A64204   5.892  11.291   6.750
 8343POPC   C3A64205   5.874  11.310   7.050
 8343POPC   C4A64206   5.897  11.322   7.350
 8343POPC   C1B64207   5.718  11.156   6.450
 8343POPC   C2B64208   5.672  11.154   6.750
 8343POPC   C3B64209   5.672  11.103   7.050
 8343POPC   C4B64210   5.651  11.120   7.350
 8344POPC   NC364211  27.584  12.039   5.550
 8344POPC   PO464212  27.597  12.066   5.850
 8344POPC   GL164213  27.570  12.073   6.150
 8344POPC   GL264214  27.562  11.906   6.150
 8344POPC   C1A64215  27.594  12.055   6.450
 8344POPC   D2A64216  27.598  12.029   6.750
 8344POPC   C3A64217  27.595  12.101   7.050
 8344POPC   C4A64218  27.570  12.060   7.350
 8344POPC   C1B64219  27.571  11.873   6.450
 8344POPC   C2B64220  27.563  11.864   6.750
 8344POPC   C3B64221  27.562  11.801   7.050
 8344POPC   C4B64222  27.639  11.873   7.350
 8345POPC   NC364223  26.058  20.605   5.550
 8345POPC   PO464224  26.068  20.582   5.850
 8345POPC   GL164225  26.061  20.641   6.150
 8345POPC   GL264226  26.003  20.452   6.150
 8345POPC   C1A64227  26.069  20.643   6.450
 8345POPC   D2A64228  26.028  20.633   6.750
 8345POPC   C3A64229  26.009  20.595   7.050
 8345POPC   C4A64230  26.024  20.579   7.350
 8345POPC   C1B64231  25.973  20.341   6.450
 8345POPC   C2B64232  25.986  20.359   6.750
 8345POPC   C3B64233  25.948  20.337   7.050
 8345POPC   C4B64234  25.897  20.347   7.350
 8346POPC   NC364235  12.085  22.896   5.550
 8346POPC   PO464236  12.126  22.919   5.850
 8346POPC   GL164237  12.112  22.940   6.150
 8346POPC   GL264238  12.117  22.856   6.150
 8346POPC   C1A64239  12.092  22.900   6.450
 8346POPC   D2A64240  12.058  22.949   6.750
 8346POPC   C3A64241  12.063  22.898   7.050
 8346POPC   C4A64242  12.047  22.963   7.350
 8346POPC   C1B64243  12.115  22.742   6.450
 8346POPC   C2B64244  12.178  22.744   6.750
 8346POPC   C3B64245  12.148  22.703   7.050
 8346POPC   C4B64246  12.156  22.730   7.350
 8347POPC   NC364247  36.119   0.436   5.550
 8347POPC   PO464248  36.171   0.470   5.850
 8347POPC   GL164249  36.089   0.426   6.150
 8347POPC   GL264250  36.056   0.353   6.150
 8347POPC   C1A64251  36.165   0.465   6.450
 8347POPC   D2A64252  36.090   0.458   6.750
 8347POPC   C3A64253  36.113   0.406   7.050
 8347POPC   C4A64254  36.141   0.475   7.350
 8347POPC   C1B64255  36.001   0.211   6.450
 8347POPC   C2B64256  35.929   0.213   6.750
 8347POPC   C3B64257  36.015   0.204   7.050
 8347POPC   C4B64258  35.958   0.252   7.350
 8348POPC   NC364259  30.709   5.104   5.550
 8348POPC   PO464260  30.681   5.131   5.850
 8348POPC   GL164261  30.685   5.128   6.150
 8348POPC   GL264262  30.692   5.204   6.150
 8348POPC   C1A64263  30.662   5.084   6.450
 8348POPC   D2A64264  30.709   5.072   6.750
 8348POPC   C3A64265  30.657   5.113   7.050
 8348POPC   C4A64266  30.738   5.068   7.350
 8348POPC   C1B64267  30.748   5.321   6.450
 8348POPC   C2B64268  30.708   5.313   6.750
 8348POPC   C3B64269  30.753   5.314   7.050
 8348POPC   C4B64270  30.745   5.294   7.350
 8349POPC   NC364271   7.427   7.449   5.550
 8349POPC   PO464272   7.460   7.419   5.850
 8349POPC   GL164273   7.388   7.378   6.150
 8349POPC   GL264274   7.376   7.549   6.150
 8349POPC   C1A64275   7.469   7.446   6.450
 8349POPC   D2A64276   7.425   7.398   6.750
 8349POPC   C3A64277   7.449   7.433   7.050
 8349POPC   C4A64278   7.453   7.445   7.350
 8349POPC   C1B64279   7.324   7.672   6.450
 8349POPC   C2B64280   7.306   7.619   6.750
 8349POPC   C3B64281   7.312   7.678   7.050
 8349POPC   C4B64282   7.307   7.651   7.350
 8350POPC   NC364283  26.866  22.128   5.550
 8350POPC   PO464284  26.772  22.151   5.850
 8350POPC   GL164285  26.864  22.129   6.150
 8350POPC   GL264286  26.905  22.047   6.150
 8350POPC   C1A64287  26.840  22.178   6.450
 8350POPC   D2A64288  26.788  22.177   6.750
 8350POPC   C3A64289  26.811  22.175   7.050
 8350POPC   C4A64290  26.863  22.208   7.350
 8350POPC   C1B64291  26.927  21.963   6.450
 8350POPC   C2B64292  26.989  21.946   6.750
 8350POPC   C3B64293  26.977  21.982   7.050
 8350POPC   C4B64294  26.930  21.932   7.350
 8351POPC   NC364295   9.721  40.806   5.550
 8351POPC   PO464296   9.707  40.798   5.850
 8351POPC   GL164297   9.724  40.828   6.150
 8351POPC   GL264298   9.749  40.933   6.150
 8351POPC   C1A64299   9.707  40.832   6.450
 8351POPC   D2A64300   9.743  40.829   6.750
 8351POPC   C3A64301   9.764  40.788   7.050
 8351POPC   C4A64302   9.727  40.785   7.350
 8351POPC   C1B64303   9.706  41.058   6.450
 8351POPC   C2B64304   9.692  41.023   6.750
 8351POPC   C3B64305   9.678  41.023   7.050
 8351POPC   C4B64306   9.649  41.043   7.350
 8352POPC   NC364307  16.757  28.330   5.550
 8352POPC   PO464308  16.757  28.329   5.850
 8352POPC   GL164309  16.772  28.417   6.150
 8352POPC   GL264310  16.863  28.274   6.150
 8352POPC   C1A64311  16.768  28.326   6.450
 8352POPC   D2A64312  16.713  28.322   6.750
 8352POPC   C3A64313  16.736  28.395   7.050
 8352POPC   C4A64314  16.707  28.328   7.350
 8352POPC   C1B64315  16.980  28.280   6.450
 8352POPC   C2B64316  16.979  28.219   6.750
 8352POPC   C3B64317  16.988  28.244   7.050
 8352POPC   C4B64318  16.984  28.225   7.350
 8353POPC   NC364319  38.473  37.649   5.550
 8353POPC   PO464320  38.429  37.727   5.850
 8353POPC   GL164321  38.444  37.677   6.150
 8353POPC   GL264322  38.372  37.725   6.150
 8353POPC   C1A64323  38.492  37.703   6.450
 8353POPC   D2A64324  38.471  37.631   6.750
 8353POPC   C3A64325  38.475  37.695   7.050
 8353POPC   C4A64326  38.474  37.647   7.350
 8353POPC   C1B64327  38.222  37.760   6.450
 8353POPC   C2B64328  38.262  37.748   6.750
 8353POPC   C3B64329  38.220  37.731   7.050
 8353POPC   C4B64330  38.215  37.771   7.350
 8354POPC   NC364331  36.906  16.716   5.550
 8354POPC   PO464332  36.868  16.780   5.850
 8354POPC   GL164333  36.888  16.703   6.150
 8354POPC   GL264334  36.819  16.667   6.150
 8354POPC   C1A64335  36.883  16.760   6.450
 8354POPC   D2A64336  36.892  16.775   6.750
 8354POPC   C3A64337  36.951  16.759   7.050
 8354POPC   C4A64338  36.909  16.702   7.350
 8354POPC   C1B64339  36.664  16.714   6.450
 8354POPC   C2B64340  36.684  16.659   6.750
 8354POPC   C3B64341  36.609  16.663   7.050
 8354POPC   C4B64342  36.682  16.670   7.350
 8355POPC   NC364343  36.104  42.311   5.550
 8355POPC   PO464344  36.121  42.381   5.850
 8355POPC   GL164345  36.116  42.296   6.150
 8355POPC   GL264346  36.153  42.202   6.150
 8355POPC   C1A64347  36.119  42.297   6.450
 8355POPC   D2A64348  36.100  42.362   6.750
 8355POPC   C3A64349  36.126  42.370   7.050
 8355POPC   C4A64350  36.161  42.335   7.350
 8355POPC   C1B64351  36.228  42.128   6.450
 8355POPC   C2B64352  36.284  42.082   6.750
 8355POPC   C3B64353  36.256  42.076   7.050
 8355POPC   C4B64354  36.264  42.108   7.350
 8356POPC   NC364355   9.004   0.442   5.550
 8356POPC   PO464356   9.004   0.431   5.850
 8356POPC   GL164357   9.014   0.433   6.150
 8356POPC   GL264358   8.948   0.266   6.150
 8356POPC   C1A64359   8.940   0.394   6.450
 8356POPC   D2A64360   8.998   0.458   6.750
 8356POPC   C3A64361   9.012   0.404   7.050
 8356POPC   C4A64362   8.934   0.445   7.350
 8356POPC   C1B64363   9.000   0.171   6.450
 8356POPC   C2B64364   8.995   0.159   6.750
 8356POPC   C3B64365   8.996   0.183   7.050
 8356POPC   C4B64366   8.992   0.147   7.350
 8357POPC   NC364367  21.425  36.122   5.550
 8357POPC   PO464368  21.435  36.145   5.850
 8357POPC   GL164369  21.354  36.131   6.150
 8357POPC   GL264370  21.555  36.150   6.150
 8357POPC   C1A64371  21.407  36.119   6.450
 8357POPC   D2A64372  21.412  36.160   6.750
 8357POPC   C3A64373  21.349  36.138   7.050
 8357POPC   C4A64374  21.353  36.169   7.350
 8357POPC   C1B64375  21.649  36.190   6.450
 8357POPC   C2B64376  21.631  36.234   6.750
 8357POPC   C3B64377  21.602  36.219   7.050
 8357POPC   C4B64378  21.642  36.219   7.350
 8358POPC   NC364379  36.097  37.633   5.550
 8358POPC   PO464380  36.176  37.645   5.850
 8358POPC   GL164381  36.164  37.696   6.150
 8358POPC   GL264382  36.077  37.838   6.150
 8358POPC   C1A64383  36.164  37.642   6.450
 8358POPC   D2A64384  36.169  37.714   6.750
 8358POPC   C3A64385  36.159  37.694   7.050
 8358POPC   C4A64386  36.147  37.690   7.350
 8358POPC   C1B64387  36.035  37.959   6.450
 8358POPC   C2B64388  36.038  37.898   6.750
 8358POPC   C3B64389  36.102  37.924   7.050
 8358POPC   C4B64390  36.035  37.942   7.350
 8359POPC   NC364391  29.117  42.354   5.550
 8359POPC   PO464392  29.157  42.311   5.850
 8359POPC   GL164393  29.115  42.313   6.150
 8359POPC   GL264394  29.208  42.263   6.150
 8359POPC   C1A64395  29.189  42.347   6.450
 8359POPC   D2A64396  29.157  42.371   6.750
 8359POPC   C3A64397  29.124  42.302   7.050
 8359POPC   C4A64398  29.189  42.328   7.350
 8359POPC   C1B64399  29.317  42.174   6.450
 8359POPC   C2B64400  29.353  42.098   6.750
 8359POPC   C3B64401  29.348  42.114   7.050
 8359POPC   C4B64402  29.347  42.102   7.350
 8360POPC   NC364403  17.526  24.533   5.550
 8360POPC   PO464404  17.506  24.471   5.850
 8360POPC   GL164405  17.534  24.537   6.150
 8360POPC   GL264406  17.496  24.592   6.150
 8360POPC   C1A64407  17.479  24.477   6.450
 8360POPC   D2A64408  17.525  24.518   6.750
 8360POPC   C3A64409  17.481  24.491   7.050
 8360POPC   C4A64410  17.518  24.533   7.350
 8360POPC   C1B64411  17.535  24.742   6.450
 8360POPC   C2B64412  17.507  24.759   6.750
 8360POPC   C3B64413  17.485  24.751   7.050
 8360POPC   C4B64414  17.484  24.743   7.350
 8361POPC   NC364415  16.766  12.841   5.550
 8361POPC   PO464416  16.718  12.853   5.850
 8361POPC   GL164417  16.726  12.872   6.150
 8361POPC   GL264418  16.665  12.757   6.150
 8361POPC   C1A64419  16.707  12.896   6.450
 8361POPC   D2A64420  16.692  12.861   6.750
 8361POPC   C3A64421  16.693  12.835   7.050
 8361POPC   C4A64422  16.766  12.887   7.350
 8361POPC   C1B64423  16.506  12.704   6.450
 8361POPC   C2B64424  16.526  12.689   6.750
 8361POPC   C3B64425  16.561  12.704   7.050
 8361POPC   C4B64426  16.491  12.734   7.350
 8362POPC   NC364427  40.759  15.976   5.550
 8362POPC   PO464428  40.761  15.918   5.850
 8362POPC   GL164429  40.753  15.996   6.150
 8362POPC   GL264430  40.908  15.872   6.150
 8362POPC   C1A64431  40.831  15.921   6.450
 8362POPC   D2A64432  40.817  15.935   6.750
 8362POPC   C3A64433  40.751  15.937   7.050
 8362POPC   C4A64434  40.747  15.937   7.350
 8362POPC   C1B64435  41.014  15.832   6.450
 8362POPC   C2B64436  41.030  15.833   6.750
 8362POPC   C3B64437  41.017  15.826   7.050
 8362POPC   C4B64438  41.013  15.847   7.350
 8363POPC   NC364439   6.647  19.798   5.550
 8363POPC   PO464440   6.673  19.872   5.850
 8363POPC   GL164441   6.649  19.833   6.150
 8363POPC   GL264442   6.696  19.913   6.150
 8363POPC   C1A64443   6.663  19.804   6.450
 8363POPC   D2A64444   6.607  19.822   6.750
 8363POPC   C3A64445   6.643  19.878   7.050
 8363POPC   C4A64446   6.649  19.884   7.350
 8363POPC   C1B64447   6.707  20.110   6.450
 8363POPC   C2B64448   6.729  20.113   6.750
 8363POPC   C3B64449   6.744  20.102   7.050
 8363POPC   C4B64450   6.740  20.027   7.350
 8364POPC   NC364451   8.245   9.706   5.550
 8364POPC   PO464452   8.152   9.749   5.850
 8364POPC   GL164453   8.200   9.783   6.150
 8364POPC   GL264454   8.210   9.617   6.150
 8364POPC   C1A64455   8.240   9.720   6.450
 8364POPC   D2A64456   8.187   9.746   6.750
 8364POPC   C3A64457   8.167   9.705   7.050
 8364POPC   C4A64458   8.147   9.761   7.350
 8364POPC   C1B64459   8.338   9.478   6.450
 8364POPC   C2B64460   8.336   9.475   6.750
 8364POPC   C3B64461   8.327   9.517   7.050
 8364POPC   C4B64462   8.263   9.561   7.350
 8365POPC   NC364463  29.113  39.245   5.550
 8365POPC   PO464464  29.187  39.257   5.850
 8365POPC   GL164465  29.117  39.234   6.150
 8365POPC   GL264466  29.139  39.104   6.150
 8365POPC   C1A64467  29.179  39.223   6.450
 8365POPC   D2A64468  29.150  39.219   6.750
 8365POPC   C3A64469  29.098  39.227   7.050
 8365POPC   C4A64470  29.145  39.203   7.350
 8365POPC   C1B64471  29.193  38.936   6.450
 8365POPC   C2B64472  29.114  39.005   6.750
 8365POPC   C3B64473  29.126  38.952   7.050
 8365POPC   C4B64474  29.132  39.014   7.350
 8366POPC   NC364475  36.900  36.115   5.550
 8366POPC   PO464476  36.857  36.168   5.850
 8366POPC   GL164477  36.929  36.106   6.150
 8366POPC   GL264478  37.021  36.120   6.150
 8366POPC   C1A64479  36.923  36.143   6.450
 8366POPC   D2A64480  36.868  36.166   6.750
 8366POPC   C3A64481  36.885  36.115   7.050
 8366POPC   C4A64482  36.953  36.098   7.350
 8366POPC   C1B64483  37.129  36.122   6.450
 8366POPC   C2B64484  37.141  36.153   6.750
 8366POPC   C3B64485  37.111  36.145   7.050
 8366POPC   C4B64486  37.138  36.151   7.350
 8367POPC   NC364487  33.047   5.107   5.550
 8367POPC   PO464488  32.983   5.102   5.850
 8367POPC   GL164489  33.004   5.110   6.150
 8367POPC   GL264490  33.127   5.061   6.150
 8367POPC   C1A64491  33.049   5.060   6.450
 8367POPC   D2A64492  33.029   5.072   6.750
 8367POPC   C3A64493  32.979   5.077   7.050
 8367POPC   C4A64494  33.026   5.136   7.350
 8367POPC   C1B64495  33.263   5.033   6.450
 8367POPC   C2B64496  33.247   5.017   6.750
 8367POPC   C3B64497  33.225   5.065   7.050
 8367POPC   C4B64498  33.239   5.084   7.350
 8368POPC   NC364499  28.362   9.700   5.550
 8368POPC   PO464500  28.334   9.782   5.850
 8368POPC   GL164501  28.321   9.762   6.150
 8368POPC   GL264502  28.290   9.789   6.150
 8368POPC   C1A64503  28.319   9.742   6.450
 8368POPC   D2A64504  28.341   9.701   6.750
 8368POPC   C3A64505  28.338   9.737   7.050
 8368POPC   C4A64506  28.372   9.761   7.350
 8368POPC   C1B64507  28.090   9.804   6.450
 8368POPC   C2B64508  28.082   9.790   6.750
 8368POPC   C3B64509  28.106   9.816   7.050
 8368POPC   C4B64510  28.088   9.775   7.350
 8369POPC   NC364511   0.466   9.707   5.550
 8369POPC   PO464512   0.460   9.797   5.850
 8369POPC   GL164513   0.411   9.776   6.150
 8369POPC   GL264514   0.369   9.675   6.150
 8369POPC   C1A64515   0.478   9.734   6.450
 8369POPC   D2A64516   0.487   9.709   6.750
 8369POPC   C3A64517   0.483   9.765   7.050
 8369POPC   C4A64518   0.423   9.742   7.350
 8369POPC   C1B64519   0.257   9.596   6.450
 8369POPC   C2B64520   0.168   9.591   6.750
 8369POPC   C3B64521   0.185   9.595   7.050
 8369POPC   C4B64522   0.225   9.621   7.350
 8370POPC   NC364523  15.992  22.907   5.550
 8370POPC   PO464524  15.918  22.954   5.850
 8370POPC   GL164525  15.987  22.978   6.150
 8370POPC   GL264526  15.886  22.863   6.150
 8370POPC   C1A64527  15.944  22.979   6.450
 8370POPC   D2A64528  15.912  22.954   6.750
 8370POPC   C3A64529  15.924  22.932   7.050
 8370POPC   C4A64530  15.934  22.973   7.350
 8370POPC   C1B64531  15.898  22.686   6.450
 8370POPC   C2B64532  15.833  22.741   6.750
 8370POPC   C3B64533  15.882  22.676   7.050
 8370POPC   C4B64534  15.869  22.731   7.350
 8371POPC   NC364535  18.299  18.320   5.550
 8371POPC   PO464536  18.290  18.307   5.850
 8371POPC   GL164537  18.286  18.291   6.150
 8371POPC   GL264538  18.394  18.311   6.150
 8371POPC   C1A64539  18.318  18.312   6.450
 8371POPC   D2A64540  18.266  18.253   6.750
 8371POPC   C3A64541  18.279  18.248   7.050
 8371POPC   C4A64542  18.244  18.290   7.350
 8371POPC   C1B64543  18.552  18.275   6.450
 8371POPC   C2B64544  18.517  18.274   6.750
 8371POPC   C3B64545  18.575  18.263   7.050
 8371POPC   C4B64546  18.529  18.221   7.350
 8372POPC   NC364547  11.264  43.080   5.550
 8372POPC   PO464548  11.255  43.085   5.850
 8372POPC   GL164549  11.274  43.152   6.150
 8372POPC   GL264550  11.212  43.218   6.150
 8372POPC   C1A64551  11.325  43.101   6.450
 8372POPC   D2A64552  11.309  43.145   6.750
 8372POPC   C3A64553  11.343  43.061   7.050
 8372POPC   C4A64554  11.265  43.106   7.350
 8372POPC   C1B64555  11.122  43.282   6.450
 8372POPC   C2B64556  11.104  43.350   6.750
 8372POPC   C3B64557  11.165  43.289   7.050
 8372POPC   C4B64558  11.170  43.325   7.350
 8373POPC   NC364559  40.814  31.460   5.550
 8373POPC   PO464560  40.808  31.474   5.850
 8373POPC   GL164561  40.763  31.458   6.150
 8373POPC   GL264562  40.697  31.377   6.150
 8373POPC   C1A64563  40.774  31.444   6.450
 8373POPC   D2A64564  40.791  31.479   6.750
 8373POPC   C3A64565  40.770  31.522   7.050
 8373POPC   C4A64566  40.743  31.457   7.350
 8373POPC   C1B64567  40.655  31.273   6.450
 8373POPC   C2B64568  40.733  31.208   6.750
 8373POPC   C3B64569  40.665  31.283   7.050
 8373POPC   C4B64570  40.693  31.267   7.350
 8374POPC   NC364571  35.401  31.445   5.550
 8374POPC   PO464572  35.328  31.427   5.850
 8374POPC   GL164573  35.372  31.497   6.150
 8374POPC   GL264574  35.510  31.496   6.150
 8374POPC   C1A64575  35.384  31.495   6.450
 8374POPC   D2A64576  35.320  31.491   6.750
 8374POPC   C3A64577  35.362  31.447   7.050
 8374POPC   C4A64578  35.346  31.426   7.350
 8374POPC   C1B64579  35.579  31.489   6.450
 8374POPC   C2B64580  35.613  31.425   6.750
 8374POPC   C3B64581  35.633  31.461   7.050
 8374POPC   C4B64582  35.613  31.482   7.350
 8375POPC   NC364583  43.906  26.821   5.550
 8375POPC   PO464584  43.897  26.845   5.850
 8375POPC   GL164585  43.862  26.861   6.150
 8375POPC   GL264586  43.849  26.686   6.150
 8375POPC   C1A64587  43.883  26.786   6.450
 8375POPC   D2A64588  43.904  26.814   6.750
 8375POPC   C3A64589  43.931  26.826   7.050
 8375POPC   C4A64590  43.885  26.816   7.350
 8375POPC   C1B64591  43.819  26.526   6.450
 8375POPC   C2B64592  43.838  26.613   6.750
 8375POPC   C3B64593  43.840  26.601   7.050
 8375POPC   C4B64594  43.858  26.547   7.350
 8376POPC   NC364595   4.280   3.583   5.550
 8376POPC   PO464596   4.292   3.525   5.850
 8376POPC   GL164597   4.280   3.534   6.150
 8376POPC   GL264598   4.398   3.426   6.150
 8376POPC   C1A64599   4.307   3.557   6.450
 8376POPC   D2A64600   4.292   3.543   6.750
 8376POPC   C3A64601   4.356   3.496   7.050
 8376POPC   C4A64602   4.304   3.514   7.350
 8376POPC   C1B64603   4.484   3.369   6.450
 8376POPC   C2B64604   4.556   3.456   6.750
 8376POPC   C3B64605   4.537   3.370   7.050
 8376POPC   C4B64606   4.485   3.390   7.350
 8377POPC   NC364607   3.554  36.917   5.550
 8377POPC   PO464608   3.501  36.857   5.850
 8377POPC   GL164609   3.560  36.901   6.150
 8377POPC   GL264610   3.386  36.898   6.150
 8377POPC   C1A64611   3.574  36.859   6.450
 8377POPC   D2A64612   3.529  36.948   6.750
 8377POPC   C3A64613   3.510  36.938   7.050
 8377POPC   C4A64614   3.582  36.894   7.350
 8377POPC   C1B64615   3.294  37.033   6.450
 8377POPC   C2B64616   3.349  37.019   6.750
 8377POPC   C3B64617   3.268  36.941   7.050
 8377POPC   C4B64618   3.335  36.995   7.350
 8378POPC   NC364619  16.004  24.457   5.550
 8378POPC   PO464620  15.983  24.440   5.850
 8378POPC   GL164621  15.952  24.500   6.150
 8378POPC   GL264622  16.052  24.572   6.150
 8378POPC   C1A64623  15.922  24.536   6.450
 8378POPC   D2A64624  15.995  24.502   6.750
 8378POPC   C3A64625  16.000  24.458   7.050
 8378POPC   C4A64626  15.998  24.493   7.350
 8378POPC   C1B64627  16.117  24.644   6.450
 8378POPC   C2B64628  16.184  24.660   6.750
 8378POPC   C3B64629  16.133  24.632   7.050
 8378POPC   C4B64630  16.137  24.645   7.350
 8379POPC   NC364631  36.115  26.057   5.550
 8379POPC   PO464632  36.173  26.014   5.850
 8379POPC   GL164633  36.176  26.027   6.150
 8379POPC   GL264634  36.124  25.871   6.150
 8379POPC   C1A64635  36.126  26.063   6.450
 8379POPC   D2A64636  36.082  26.044   6.750
 8379POPC   C3A64637  36.095  26.040   7.050
 8379POPC   C4A64638  36.134  26.031   7.350
 8379POPC   C1B64639  36.163  25.767   6.450
 8379POPC   C2B64640  36.147  25.763   6.750
 8379POPC   C3B64641  36.138  25.810   7.050
 8379POPC   C4B64642  36.176  25.776   7.350
 8380POPC   NC364643  41.519  34.591   5.550
 8380POPC   PO464644  41.563  34.539   5.850
 8380POPC   GL164645  41.521  34.552   6.150
 8380POPC   GL264646  41.631  34.583   6.150
 8380POPC   C1A64647  41.581  34.584   6.450
 8380POPC   D2A64648  41.575  34.559   6.750
 8380POPC   C3A64649  41.598  34.610   7.050
 8380POPC   C4A64650  41.530  34.623   7.350
 8380POPC   C1B64651  41.832  34.533   6.450
 8380POPC   C2B64652  41.836  34.553   6.750
 8380POPC   C3B64653  41.814  34.537   7.050
 8380POPC   C4B64654  41.826  34.490   7.350
 8381POPC   NC364655  26.859  34.569   5.550
 8381POPC   PO464656  26.815  34.615   5.850
 8381POPC   GL164657  26.861  34.558   6.150
 8381POPC   GL264658  26.870  34.747   6.150
 8381POPC   C1A64659  26.818  34.595   6.450
 8381POPC   D2A64660  26.795  34.611   6.750
 8381POPC   C3A64661  26.852  34.618   7.050
 8381POPC   C4A64662  26.827  34.623   7.350
 8381POPC   C1B64663  26.851  34.792   6.450
 8381POPC   C2B64664  26.837  34.842   6.750
 8381POPC   C3B64665  26.792  34.875   7.050
 8381POPC   C4B64666  26.785  34.840   7.350
 8382POPC   NC364667  32.268  38.443   5.550
 8382POPC   PO464668  32.244  38.490   5.850
 8382POPC   GL164669  32.199  38.421   6.150
 8382POPC   GL264670  32.184  38.362   6.150
 8382POPC   C1A64671  32.277  38.467   6.450
 8382POPC   D2A64672  32.248  38.466   6.750
 8382POPC   C3A64673  32.264  38.461   7.050
 8382POPC   C4A64674  32.294  38.460   7.350
 8382POPC   C1B64675  32.018  38.269   6.450
 8382POPC   C2B64676  32.035  38.261   6.750
 8382POPC   C3B64677  32.016  38.315   7.050
 8382POPC   C4B64678  32.023  38.285   7.350
 8383POPC   NC364679   3.528  44.620   5.550
 8383POPC   PO464680   3.561  44.648   5.850
 8383POPC   GL164681   3.586  44.649   6.150
 8383POPC   GL264682   3.485  44.759   6.150
 8383POPC   C1A64683   3.530  44.700   6.450
 8383POPC   D2A64684   3.589  44.619   6.750
 8383POPC   C3A64685   3.500  44.616   7.050
 8383POPC   C4A64686   3.537  44.678   7.350
 8383POPC   C1B64687   3.356  44.778   6.450
 8383POPC   C2B64688   3.369  44.771   6.750
 8383POPC   C3B64689   3.308  44.863   7.050
 8383POPC   C4B64690   3.314  44.830   7.350
 8384POPC   NC364691  38.497   1.209   5.550
 8384POPC   PO464692  38.436   1.190   5.850
 8384POPC   GL164693  38.480   1.222   6.150
 8384POPC   GL264694  38.442   1.313   6.150
 8384POPC   C1A64695  38.445   1.252   6.450
 8384POPC   D2A64696  38.482   1.181   6.750
 8384POPC   C3A64697  38.437   1.251   7.050
 8384POPC   C4A64698  38.495   1.211   7.350
 8384POPC   C1B64699  38.286   1.445   6.450
 8384POPC   C2B64700  38.353   1.452   6.750
 8384POPC   C3B64701  38.353   1.464   7.050
 8384POPC   C4B64702  38.307   1.423   7.350
 8385POPC   NC364703  15.997  34.562   5.550
 8385POPC   PO464704  15.926  34.541   5.850
 8385POPC   GL164705  15.940  34.571   6.150
 8385POPC   GL264706  15.834  34.542   6.150
 8385POPC   C1A64707  15.979  34.571   6.450
 8385POPC   D2A64708  15.920  34.601   6.750
 8385POPC   C3A64709  15.943  34.556   7.050
 8385POPC   C4A64710  15.994  34.578   7.350
 8385POPC   C1B64711  15.788  34.430   6.450
 8385POPC   C2B64712  15.738  34.480   6.750
 8385POPC   C3B64713  15.760  34.395   7.050
 8385POPC   C4B64714  15.780  34.412   7.350
 8386POPC   NC364715   9.775  43.081   5.550
 8386POPC   PO464716   9.730  43.115   5.850
 8386POPC   GL164717   9.782  43.107   6.150
 8386POPC   GL264718   9.864  43.094   6.150
 8386POPC   C1A64719   9.752  43.070   6.450
 8386POPC   D2A64720   9.718  43.082   6.750
 8386POPC   C3A64721   9.784  43.154   7.050
 8386POPC   C4A64722   9.787  43.156   7.350
 8386POPC   C1B64723   9.971  43.017   6.450
 8386POPC   C2B64724   9.940  43.035   6.750
 8386POPC   C3B64725  10.017  43.086   7.050
 8386POPC   C4B64726  10.026  43.000   7.350
 8387POPC   NC364727   2.809  22.164   5.550
 8387POPC   PO464728   2.716  22.209   5.850
 8387POPC   GL164729   2.721  22.200   6.150
 8387POPC   GL264730   2.684  22.182   6.150
 8387POPC   C1A64731   2.798  22.190   6.450
 8387POPC   D2A64732   2.757  22.141   6.750
 8387POPC   C3A64733   2.730  22.114   7.050
 8387POPC   C4A64734   2.813  22.114   7.350
 8387POPC   C1B64735   2.542  22.232   6.450
 8387POPC   C2B64736   2.559  22.306   6.750
 8387POPC   C3B64737   2.491  22.290   7.050
 8387POPC   C4B64738   2.580  22.255   7.350
 8388POPC   NC364739   5.108  28.388   5.550
 8388POPC   PO464740   5.109  28.361   5.850
 8388POPC   GL164741   5.047  28.326   6.150
 8388POPC   GL264742   5.215  28.363   6.150
 8388POPC   C1A64743   5.139  28.414   6.450
 8388POPC   D2A64744   5.101  28.323   6.750
 8388POPC   C3A64745   5.068  28.324   7.050
 8388POPC   C4A64746   5.118  28.345   7.350
 8388POPC   C1B64747   5.350  28.392   6.450
 8388POPC   C2B64748   5.298  28.427   6.750
 8388POPC   C3B64749   5.294  28.458   7.050
 8388POPC   C4B64750   5.343  28.385   7.350
 8389POPC   NC364751  15.955  16.731   5.550
 8389POPC   PO464752  15.906  16.684   5.850
 8389POPC   GL164753  15.938  16.725   6.150
 8389POPC   GL264754  16.067  16.602   6.150
 8389POPC   C1A64755  15.988  16.695   6.450
 8389POPC   D2A64756  15.974  16.724   6.750
 8389POPC   C3A64757  15.905  16.762   7.050
 8389POPC   C4A64758  15.984  16.722   7.350
 8389POPC   C1B64759  16.050  16.557   6.450
 8389POPC   C2B64760  16.116  16.567   6.750
 8389POPC   C3B64761  16.098  16.547   7.050
 8389POPC   C4B64762  16.079  16.552   7.350
 8390POPC   NC364763  27.609  43.145   5.550
 8390POPC   PO464764  27.581  43.133   5.850
 8390POPC   GL164765  27.598  43.146   6.150
 8390POPC   GL264766  27.566  43.042   6.150
 8390POPC   C1A64767  27.630  43.096   6.450
 8390POPC   D2A64768  27.622  43.111   6.750
 8390POPC   C3A64769  27.628  43.088   7.050
 8390POPC   C4A64770  27.553  43.150   7.350
 8390POPC   C1B64771  27.511  42.863   6.450
 8390POPC   C2B64772  27.517  42.890   6.750
 8390POPC   C3B64773  27.476  42.886   7.050
 8390POPC   C4B64774  27.455  42.883   7.350
 8391POPC   NC364775  12.899  25.233   5.550
 8391POPC   PO464776  12.870  25.221   5.850
 8391POPC   GL164777  12.849  25.248   6.150
 8391POPC   GL264778  12.844  25.409   6.150
 8391POPC   C1A64779  12.895  25.226   6.450
 8391POPC   D2A64780  12.887  25.286   6.750
 8391POPC   C3A64781  12.810  25.255   7.050
 8391POPC   C4A64782  12.814  25.228   7.350
 8391POPC   C1B64783  12.838  25.489   6.450
 8391POPC   C2B64784  12.920  25.504   6.750
 8391POPC   C3B64785  12.860  25.556   7.050
 8391POPC   C4B64786  12.890  25.558   7.350
 8392POPC   NC364787  41.596   1.256   5.550
 8392POPC   PO464788  41.514   1.220   5.850
 8392POPC   GL164789  41.525   1.205   6.150
 8392POPC   GL264790  41.622   1.058   6.150
 8392POPC   C1A64791  41.515   1.257   6.450
 8392POPC   D2A64792  41.544   1.191   6.750
 8392POPC   C3A64793  41.516   1.211   7.050
 8392POPC   C4A64794  41.550   1.207   7.350
 8392POPC   C1B64795  41.605   0.929   6.450
 8392POPC   C2B64796  41.634   0.989   6.750
 8392POPC   C3B64797  41.617   0.935   7.050
 8392POPC   C4B64798  41.604   0.926   7.350
 8393POPC   NC364799   8.938  26.843   5.550
 8393POPC   PO464800   8.929  26.797   5.850
 8393POPC   GL164801   9.020  26.804   6.150
 8393POPC   GL264802   8.873  26.922   6.150
 8393POPC   C1A64803   8.938  26.776   6.450
 8393POPC   D2A64804   8.998  26.802   6.750
 8393POPC   C3A64805   9.019  26.801   7.050
 8393POPC   C4A64806   8.983  26.797   7.350
 8393POPC   C1B64807   8.845  27.006   6.450
 8393POPC   C2B64808   8.813  27.024   6.750
 8393POPC   C3B64809   8.836  26.995   7.050
 8393POPC   C4B64810   8.877  27.020   7.350
 8394POPC   NC364811  36.912  20.610   5.550
 8394POPC   PO464812  36.888  20.607   5.850
 8394POPC   GL164813  36.877  20.596   6.150
 8394POPC   GL264814  36.891  20.535   6.150
 8394POPC   C1A64815  36.859  20.641   6.450
 8394POPC   D2A64816  36.874  20.616   6.750
 8394POPC   C3A64817  36.924  20.566   7.050
 8394POPC   C4A64818  36.890  20.619   7.350
 8394POPC   C1B64819  36.774  20.417   6.450
 8394POPC   C2B64820  36.840  20.343   6.750
 8394POPC   C3B64821  36.817  20.367   7.050
 8394POPC   C4B64822  36.822  20.418   7.350
 8395POPC   NC364823  33.062   1.208   5.550
 8395POPC   PO464824  33.041   1.247   5.850
 8395POPC   GL164825  33.023   1.236   6.150
 8395POPC   GL264826  33.028   1.054   6.150
 8395POPC   C1A64827  33.035   1.221   6.450
 8395POPC   D2A64828  33.026   1.254   6.750
 8395POPC   C3A64829  33.052   1.211   7.050
 8395POPC   C4A64830  33.035   1.258   7.350
 8395POPC   C1B64831  33.150   0.956   6.450
 8395POPC   C2B64832  33.119   0.959   6.750
 8395POPC   C3B64833  33.119   1.001   7.050
 8395POPC   C4B64834  33.087   1.000   7.350
 8396POPC   NC364835  27.561  41.596   5.550
 8396POPC   PO464836  27.571  41.522   5.850
 8396POPC   GL164837  27.604  41.547   6.150
 8396POPC   GL264838  27.587  41.681   6.150
 8396POPC   C1A64839  27.622  41.608   6.450
 8396POPC   D2A64840  27.543  41.525   6.750
 8396POPC   C3A64841  27.596  41.585   7.050
 8396POPC   C4A64842  27.586  41.581   7.350
 8396POPC   C1B64843  27.693  41.803   6.450
 8396POPC   C2B64844  27.693  41.765   6.750
 8396POPC   C3B64845  27.670  41.790   7.050
 8396POPC   C4B64846  27.715  41.769   7.350
 8397POPC   NC364847  21.376  19.064   5.550
 8397POPC   PO464848  21.375  19.080   5.850
 8397POPC   GL164849  21.410  19.059   6.150
 8397POPC   GL264850  21.277  18.965   6.150
 8397POPC   C1A64851  21.342  19.034   6.450
 8397POPC   D2A64852  21.420  19.054   6.750
 8397POPC   C3A64853  21.398  19.073   7.050
 8397POPC   C4A64854  21.400  19.046   7.350
 8397POPC   C1B64855  21.261  18.890   6.450
 8397POPC   C2B64856  21.265  18.816   6.750
 8397POPC   C3B64857  21.213  18.838   7.050
 8397POPC   C4B64858  21.284  18.794   7.350
 8398POPC   NC364859  32.296  27.638   5.550
 8398POPC   PO464860  32.246  27.601   5.850
 8398POPC   GL164861  32.287  27.545   6.150
 8398POPC   GL264862  32.341  27.655   6.150
 8398POPC   C1A64863  32.225  27.553   6.450
 8398POPC   D2A64864  32.204  27.555   6.750
 8398POPC   C3A64865  32.296  27.640   7.050
 8398POPC   C4A64866  32.256  27.586   7.350
 8398POPC   C1B64867  32.460  27.625   6.450
 8398POPC   C2B64868  32.461  27.606   6.750
 8398POPC   C3B64869  32.539  27.627   7.050
 8398POPC   C4B64870  32.450  27.682   7.350
 8399POPC   NC364871  36.163  28.332   5.550
 8399POPC   PO464872  36.145  28.399   5.850
 8399POPC   GL164873  36.167  28.339   6.150
 8399POPC   GL264874  36.063  28.388   6.150
 8399POPC   C1A64875  36.172  28.386   6.450
 8399POPC   D2A64876  36.101  28.413   6.750
 8399POPC   C3A64877  36.158  28.412   7.050
 8399POPC   C4A64878  36.142  28.334   7.350
 8399POPC   C1B64879  35.881  28.463   6.450
 8399POPC   C2B64880  35.869  28.474   6.750
 8399POPC   C3B64881  35.920  28.505   7.050
 8399POPC   C4B64882  35.916  28.462   7.350
 8400POPC   NC364883  26.797  26.782   5.550
 8400POPC   PO464884  26.817  26.798   5.850
 8400POPC   GL164885  26.795  26.842   6.150
 8400POPC   GL264886  26.831  26.665   6.150
 8400POPC   C1A64887  26.831  26.801   6.450
 8400POPC   D2A64888  26.833  26.777   6.750
 8400POPC   C3A64889  26.810  26.836   7.050
 8400POPC   C4A64890  26.844  26.816   7.350
 8400POPC   C1B64891  26.921  26.640   6.450
 8400POPC   C2B64892  26.943  26.614   6.750
 8400POPC   C3B64893  26.947  26.601   7.050
 8400POPC   C4B64894  26.985  26.564   7.350
 8401POPC   NC364895   2.017  14.370   5.550
 8401POPC   PO464896   1.983  14.450   5.850
 8401POPC   GL164897   2.013  14.440   6.150
 8401POPC   GL264898   1.923  14.487   6.150
 8401POPC   C1A64899   1.982  14.377   6.450
 8401POPC   D2A64900   1.967  14.366   6.750
 8401POPC   C3A64901   2.008  14.370   7.050
 8401POPC   C4A64902   2.008  14.356   7.350
 8401POPC   C1B64903   1.837  14.647   6.450
 8401POPC   C2B64904   1.888  14.582   6.750
 8401POPC   C3B64905   1.811  14.600   7.050
 8401POPC   C4B64906   1.817  14.593   7.350
 8402POPC   NC364907  42.347  12.073   5.550
 8402POPC   PO464908  42.287  12.028   5.850
 8402POPC   GL164909  42.330  12.065   6.150
 8402POPC   GL264910  42.300  12.159   6.150
 8402POPC   C1A64911  42.351  12.110   6.450
 8402POPC   D2A64912  42.346  12.107   6.750
 8402POPC   C3A64913  42.288  12.040   7.050
 8402POPC   C4A64914  42.370  12.086   7.350
 8402POPC   C1B64915  42.218  12.333   6.450
 8402POPC   C2B64916  42.219  12.276   6.750
 8402POPC   C3B64917  42.197  12.332   7.050
 8402POPC   C4B64918  42.271  12.265   7.350
 8403POPC   NC364919   2.726  15.935   5.550
 8403POPC   PO464920   2.764  15.935   5.850
 8403POPC   GL164921   2.751  16.001   6.150
 8403POPC   GL264922   2.853  15.890   6.150
 8403POPC   C1A64923   2.723  15.961   6.450
 8403POPC   D2A64924   2.747  15.920   6.750
 8403POPC   C3A64925   2.727  15.930   7.050
 8403POPC   C4A64926   2.777  15.966   7.350
 8403POPC   C1B64927   2.923  15.712   6.450
 8403POPC   C2B64928   2.903  15.719   6.750
 8403POPC   C3B64929   2.968  15.784   7.050
 8403POPC   C4B64930   2.910  15.741   7.350
 8404POPC   NC364931   4.268  38.474   5.550
 8404POPC   PO464932   4.310  38.471   5.850
 8404POPC   GL164933   4.278  38.479   6.150
 8404POPC   GL264934   4.292  38.586   6.150
 8404POPC   C1A64935   4.317  38.442   6.450
 8404POPC   D2A64936   4.364  38.473   6.750
 8404POPC   C3A64937   4.299  38.497   7.050
 8404POPC   C4A64938   4.327  38.450   7.350
 8404POPC   C1B64939   4.233  38.699   6.450
 8404POPC   C2B64940   4.192  38.671   6.750
 8404POPC   C3B64941   4.206  38.636   7.050
 8404POPC   C4B64942   4.236  38.644   7.350
 8405POPC   NC364943  24.488   8.204   5.550
 8405POPC   PO464944  24.528   8.230   5.850
 8405POPC   GL164945  24.492   8.184   6.150
 8405POPC   GL264946  24.345   8.215   6.150
 8405POPC   C1A64947  24.440   8.212   6.450
 8405POPC   D2A64948  24.489   8.242   6.750
 8405POPC   C3A64949  24.504   8.163   7.050
 8405POPC   C4A64950  24.532   8.157   7.350
 8405POPC   C1B64951  24.251   8.202   6.450
 8405POPC   C2B64952  24.207   8.197   6.750
 8405POPC   C3B64953  24.273   8.230   7.050
 8405POPC   C4B64954  24.255   8.255   7.350
 8406POPC   NC364955  25.262  24.494   5.550
 8406POPC   PO464956  25.314  24.489   5.850
 8406POPC   GL164957  25.223  24.522   6.150
 8406POPC   GL264958  25.127  24.403   6.150
 8406POPC   C1A64959  25.303  24.474   6.450
 8406POPC   D2A64960  25.238  24.471   6.750
 8406POPC   C3A64961  25.308  24.500   7.050
 8406POPC   C4A64962  25.292  24.499   7.350
 8406POPC   C1B64963  25.093  24.401   6.450
 8406POPC   C2B64964  25.061  24.406   6.750
 8406POPC   C3B64965  25.024  24.366   7.050
 8406POPC   C4B64966  25.042  24.405   7.350
 8407POPC   NC364967  16.692   5.102   5.550
 8407POPC   PO464968  16.698   5.140   5.850
 8407POPC   GL164969  16.760   5.060   6.150
 8407POPC   GL264970  16.679   4.932   6.150
 8407POPC   C1A64971  16.774   5.133   6.450
 8407POPC   D2A64972  16.709   5.122   6.750
 8407POPC   C3A64973  16.758   5.110   7.050
 8407POPC   C4A64974  16.751   5.140   7.350
 8407POPC   C1B64975  16.591   4.825   6.450
 8407POPC   C2B64976  16.627   4.866   6.750
 8407POPC   C3B64977  16.643   4.911   7.050
 8407POPC   C4B64978  16.659   4.894   7.350
 8408POPC   NC364979  42.355  44.665   5.550
 8408POPC   PO464980  42.337  44.683   5.850
 8408POPC   GL164981  42.379  44.705   6.150
 8408POPC   GL264982  42.186  44.721   6.150
 8408POPC   C1A64983  42.302  44.634   6.450
 8408POPC   D2A64984  42.298  44.686   6.750
 8408POPC   C3A64985  42.310  44.692   7.050
 8408POPC   C4A64986  42.293  44.710   7.350
 8408POPC   C1B64987  42.054  44.747   6.450
 8408POPC   C2B64988  42.117  44.731   6.750
 8408POPC   C3B64989  42.091  44.761   7.050
 8408POPC   C4B64990  42.096  44.718   7.350
 8409POPC   NC364991  41.563  42.329   5.550
 8409POPC   PO464992  41.599  42.311   5.850
 8409POPC   GL164993  41.518  42.305   6.150
 8409POPC   GL264994  41.641  42.425   6.150
 8409POPC   C1A64995  41.516  42.349   6.450
 8409POPC   D2A64996  41.591  42.307   6.750
 8409POPC   C3A64997  41.549  42.289   7.050
 8409POPC   C4A64998  41.569  42.349   7.350
 8409POPC   C1B64999  41.808  42.518   6.450
 8409POPC   C2B65000  41.728  42.427   6.750
 8409POPC   C3B65001  41.774  42.477   7.050
 8409POPC   C4B65002  41.764  42.483   7.350
 8410POPC   NC365003  33.024  21.376   5.550
 8410POPC   PO465004  33.038  21.416   5.850
 8410POPC   GL165005  33.046  21.409   6.150
 8410POPC   GL265006  32.980  21.505   6.150
 8410POPC   C1A65007  33.069  21.372   6.450
 8410POPC   D2A65008  32.997  21.398   6.750
 8410POPC   C3A65009  33.033  21.363   7.050
 8410POPC   C4A65010  33.072  21.412   7.350
 8410POPC   C1B65011  32.863  21.515   6.450
 8410POPC   C2B65012  32.838  21.531   6.750
 8410POPC   C3B65013  32.877  21.528   7.050
 8410POPC   C4B65014  32.865  21.580   7.350
 8411POPC   NC365015   7.422  43.865   5.550
 8411POPC   PO465016   7.372  43.872   5.850
 8411POPC   GL165017   7.377  43.892   6.150
 8411POPC   GL265018   7.413  43.788   6.150
 8411POPC   C1A65019   7.423  43.897   6.450
 8411POPC   D2A65020   7.379  43.858   6.750
 8411POPC   C3A65021   7.404  43.909   7.050
 8411POPC   C4A65022   7.438  43.903   7.350
 8411POPC   C1B65023   7.337  43.608   6.450
 8411POPC   C2B65024   7.301  43.697   6.750
 8411POPC   C3B65025   7.325  43.623   7.050
 8411POPC   C4B65026   7.363  43.639   7.350
 8412POPC   NC365027  42.366   8.991   5.550
 8412POPC   PO465028  42.374   9.012   5.850
 8412POPC   GL165029  42.383   9.019   6.150
 8412POPC   GL265030  42.410   9.003   6.150
 8412POPC   C1A65031  42.334   9.000   6.450
 8412POPC   D2A65032  42.320   8.983   6.750
 8412POPC   C3A65033  42.336   8.964   7.050
 8412POPC   C4A65034  42.290   8.981   7.350
 8412POPC   C1B65035  42.575   9.131   6.450
 8412POPC   C2B65036  42.560   9.158   6.750
 8412POPC   C3B65037  42.478   9.142   7.050
 8412POPC   C4B65038  42.507   9.135   7.350
 8413POPC   NC365039  40.771  10.573   5.550
 8413POPC   PO465040  40.813  10.514   5.850
 8413POPC   GL165041  40.763  10.524   6.150
 8413POPC   GL265042  40.664  10.498   6.150
 8413POPC   C1A65043  40.779  10.517   6.450
 8413POPC   D2A65044  40.771  10.543   6.750
 8413POPC   C3A65045  40.801  10.506   7.050
 8413POPC   C4A65046  40.784  10.537   7.350
 8413POPC   C1B65047  40.515  10.543   6.450
 8413POPC   C2B65048  40.515  10.547   6.750
 8413POPC   C3B65049  40.546  10.526   7.050
 8413POPC   C4B65050  40.560  10.516   7.350
 8414POPC   NC365051   8.207  26.801   5.550
 8414POPC   PO465052   8.188  26.823   5.850
 8414POPC   GL165053   8.164  26.816   6.150
 8414POPC   GL265054   8.309  26.733   6.150
 8414POPC   C1A65055   8.184  26.864   6.450
 8414POPC   D2A65056   8.233  26.847   6.750
 8414POPC   C3A65057   8.233  26.823   7.050
 8414POPC   C4A65058   8.151  26.809   7.350
 8414POPC   C1B65059   8.472  26.686   6.450
 8414POPC   C2B65060   8.448  26.726   6.750
 8414POPC   C3B65061   8.452  26.777   7.050
 8414POPC   C4B65062   8.407  26.726   7.350
 8415POPC   NC365063   5.829   8.942   5.550
 8415POPC   PO465064   5.908   9.000   5.850
 8415POPC   GL165065   5.875   8.929   6.150
 8415POPC   GL265066   5.866   8.817   6.150
 8415POPC   C1A65067   5.901   9.019   6.450
 8415POPC   D2A65068   5.878   8.928   6.750
 8415POPC   C3A65069   5.911   8.943   7.050
 8415POPC   C4A65070   5.848   9.002   7.350
 8415POPC   C1B65071   5.754   8.755   6.450
 8415POPC   C2B65072   5.779   8.700   6.750
 8415POPC   C3B65073   5.792   8.781   7.050
 8415POPC   C4B65074   5.724   8.764   7.350
 8416POPC   NC365075  25.229  41.527   5.550
 8416POPC   PO465076  25.254  41.554   5.850
 8416POPC   GL165077  25.263  41.537   6.150
 8416POPC   GL265078  25.376  41.633   6.150
 8416POPC   C1A65079  25.251  41.527   6.450
 8416POPC   D2A65080  25.303  41.531   6.750
 8416POPC   C3A65081  25.281  41.597   7.050
 8416POPC   C4A65082  25.294  41.587   7.350
 8416POPC   C1B65083  25.450  41.741   6.450
 8416POPC   C2B65084  25.451  41.695   6.750
 8416POPC   C3B65085  25.405  41.696   7.050
 8416POPC   C4B65086  25.465  41.776   7.350
 8417POPC   NC365087  22.970  35.384   5.550
 8417POPC   PO465088  22.965  35.390   5.850
 8417POPC   GL165089  22.891  35.337   6.150
 8417POPC   GL265090  23.061  35.440   6.150
 8417POPC   C1A65091  22.912  35.352   6.450
 8417POPC   D2A65092  22.914  35.369   6.750
 8417POPC   C3A65093  22.919  35.359   7.050
 8417POPC   C4A65094  22.986  35.358   7.350
 8417POPC   C1B65095  23.119  35.544   6.450
 8417POPC   C2B65096  23.165  35.533   6.750
 8417POPC   C3B65097  23.168  35.563   7.050
 8417POPC   C4B65098  23.070  35.496   7.350
 8418POPC   NC365099  21.402  41.539   5.550
 8418POPC   PO465100  21.339  41.537   5.850
 8418POPC   GL165101  21.359  41.603   6.150
 8418POPC   GL265102  21.225  41.631   6.150
 8418POPC   C1A65103  21.340  41.514   6.450
 8418POPC   D2A65104  21.417  41.566   6.750
 8418POPC   C3A65105  21.364  41.558   7.050
 8418POPC   C4A65106  21.392  41.528   7.350
 8418POPC   C1B65107  21.185  41.682   6.450
 8418POPC   C2B65108  21.191  41.662   6.750
 8418POPC   C3B65109  21.137  41.699   7.050
 8418POPC   C4B65110  21.171  41.640   7.350
 8419POPC   NC365111   8.184  38.418   5.550
 8419POPC   PO465112   8.223  38.489   5.850
 8419POPC   GL165113   8.185  38.503   6.150
 8419POPC   GL265114   8.170  38.581   6.150
 8419POPC   C1A65115   8.176  38.436   6.450
 8419POPC   D2A65116   8.169  38.429   6.750
 8419POPC   C3A65117   8.163  38.443   7.050
 8419POPC   C4A65118   8.147  38.411   7.350
 8419POPC   C1B65119   8.098  38.689   6.450
 8419POPC   C2B65120   8.064  38.723   6.750
 8419POPC   C3B65121   8.047  38.668   7.050
 8419POPC   C4B65122   8.106  38.633   7.350
 8420POPC   NC365123  15.993   8.937   5.550
 8420POPC   PO465124  15.943   8.979   5.850
 8420POPC   GL165125  15.960   9.019   6.150
 8420POPC   GL265126  16.028   9.038   6.150
 8420POPC   C1A65127  15.927   8.965   6.450
 8420POPC   D2A65128  15.953   8.934   6.750
 8420POPC   C3A65129  15.942   8.989   7.050
 8420POPC   C4A65130  15.962   8.984   7.350
 8420POPC   C1B65131  16.115   9.183   6.450
 8420POPC   C2B65132  16.144   9.144   6.750
 8420POPC   C3B65133  16.151   9.131   7.050
 8420POPC   C4B65134  16.156   9.187   7.350
 8421POPC   NC365135  21.430   4.269   5.550
 8421POPC   PO465136  21.403   4.312   5.850
 8421POPC   GL165137  21.417   4.278   6.150
 8421POPC   GL265138  21.483   4.301   6.150
 8421POPC   C1A65139  21.376   4.309   6.450
 8421POPC   D2A65140  21.414   4.332   6.750
 8421POPC   C3A65141  21.351   4.323   7.050
 8421POPC   C4A65142  21.395   4.295   7.350
 8421POPC   C1B65143  21.646   4.195   6.450
 8421POPC   C2B65144  21.588   4.226   6.750
 8421POPC   C3B65145  21.615   4.254   7.050
 8421POPC   C4B65146  21.612   4.208   7.350
 8422POPC   NC365147   1.222  36.932   5.550
 8422POPC   PO465148   1.197  36.867   5.850
 8422POPC   GL165149   1.255  36.854   6.150
 8422POPC   GL265150   1.129  36.799   6.150
 8422POPC   C1A65151   1.253  36.904   6.450
 8422POPC   D2A65152   1.182  36.896   6.750
 8422POPC   C3A65153   1.185  36.928   7.050
 8422POPC   C4A65154   1.216  36.925   7.350
 8422POPC   C1B65155   0.977  36.786   6.450
 8422POPC   C2B65156   1.003  36.724   6.750
 8422POPC   C3B65157   0.999  36.744   7.050
 8422POPC   C4B65158   0.995  36.759   7.350
 8423POPC   NC365159   7.374  26.858   5.550
 8423POPC   PO465160   7.451  26.806   5.850
 8423POPC   GL165161   7.463  26.816   6.150
 8423POPC   GL265162   7.329  26.726   6.150
 8423POPC   C1A65163   7.381  26.778   6.450
 8423POPC   D2A65164   7.423  26.835   6.750
 8423POPC   C3A65165   7.434  26.831   7.050
 8423POPC   C4A65166   7.392  26.770   7.350
 8423POPC   C1B65167   7.197  26.745   6.450
 8423POPC   C2B65168   7.151  26.664   6.750
 8423POPC   C3B65169   7.191  26.741   7.050
 8423POPC   C4B65170   7.223  26.708   7.350
 8424POPC   NC365171  22.210  16.753   5.550
 8424POPC   PO465172  22.211  16.722   5.850
 8424POPC   GL165173  22.133  16.778   6.150
 8424POPC   GL265174  22.123  16.903   6.150
 8424POPC   C1A65175  22.117  16.742   6.450
 8424POPC   D2A65176  22.123  16.759   6.750
 8424POPC   C3A65177  22.115  16.701   7.050
 8424POPC   C4A65178  22.196  16.744   7.350
 8424POPC   C1B65179  22.139  16.991   6.450
 8424POPC   C2B65180  22.129  17.002   6.750
 8424POPC   C3B65181  22.147  16.938   7.050
 8424POPC   C4B65182  22.137  16.984   7.350
 8425POPC   NC365183  26.076   8.924   5.550
 8425POPC   PO465184  26.090   9.003   5.850
 8425POPC   GL165185  26.073   8.950   6.150
 8425POPC   GL265186  25.913   9.078   6.150
 8425POPC   C1A65187  26.083   8.985   6.450
 8425POPC   D2A65188  26.028   9.003   6.750
 8425POPC   C3A65189  26.043   9.015   7.050
 8425POPC   C4A65190  26.075   8.931   7.350
 8425POPC   C1B65191  25.816   9.105   6.450
 8425POPC   C2B65192  25.851   9.115   6.750
 8425POPC   C3B65193  25.842   9.150   7.050
 8425POPC   C4B65194  25.854   9.125   7.350
 8426POPC   NC365195  13.624  26.853   5.550
 8426POPC   PO465196  13.621  26.821   5.850
 8426POPC   GL165197  13.609  26.811   6.150
 8426POPC   GL265198  13.695  26.856   6.150
 8426POPC   C1A65199  13.632  26.840   6.450
 8426POPC   D2A65200  13.663  26.791   6.750
 8426POPC   C3A65201  13.643  26.793   7.050
 8426POPC   C4A65202  13.613  26.780   7.350
 8426POPC   C1B65203  13.869  26.942   6.450
 8426POPC   C2B65204  13.805  26.967   6.750
 8426POPC   C3B65205  13.850  26.961   7.050
 8426POPC   C4B65206  13.790  26.925   7.350
 8427POPC   NC365207  42.301  28.385   5.550
 8427POPC   PO465208  42.316  28.325   5.850
 8427POPC   GL165209  42.356  28.406   6.150
 8427POPC   GL265210  42.451  28.307   6.150
 8427POPC   C1A65211  42.353  28.375   6.450
 8427POPC   D2A65212  42.319  28.400   6.750
 8427POPC   C3A65213  42.303  28.416   7.050
 8427POPC   C4A65214  42.298  28.340   7.350
 8427POPC   C1B65215  42.604  28.237   6.450
 8427POPC   C2B65216  42.524  28.242   6.750
 8427POPC   C3B65217  42.545  28.293   7.050
 8427POPC   C4B65218  42.570  28.288   7.350
 8428POPC   NC365219  26.011  40.055   5.550
 8428POPC   PO465220  26.063  40.013   5.850
 8428POPC   GL165221  26.075  40.046   6.150
 8428POPC   GL265222  26.143  40.062   6.150
 8428POPC   C1A65223  26.052  39.966   6.450
 8428POPC   D2A65224  26.011  39.978   6.750
 8428POPC   C3A65225  26.079  39.963   7.050
 8428POPC   C4A65226  26.039  39.975   7.350
 8428POPC   C1B65227  26.261  40.096   6.450
 8428POPC   C2B65228  26.235  40.125   6.750
 8428POPC   C3B65229  26.319  40.090   7.050
 8428POPC   C4B65230  26.284  40.118   7.350
 8429POPC   NC365231   2.744  25.245   5.550
 8429POPC   PO465232   2.748  25.312   5.850
 8429POPC   GL165233   2.743  25.305   6.150
 8429POPC   GL265234   2.723  25.143   6.150
 8429POPC   C1A65235   2.746  25.300   6.450
 8429POPC   D2A65236   2.770  25.243   6.750
 8429POPC   C3A65237   2.758  25.281   7.050
 8429POPC   C4A65238   2.721  25.306   7.350
 8429POPC   C1B65239   2.629  25.038   6.450
 8429POPC   C2B65240   2.692  25.017   6.750
 8429POPC   C3B65241   2.710  25.008   7.050
 8429POPC   C4B65242   2.635  25.070   7.350
 8430POPC   NC365243   3.522  40.817   5.550
 8430POPC   PO465244   3.577  40.783   5.850
 8430POPC   GL165245   3.561  40.756   6.150
 8430POPC   GL265246   3.502  40.691   6.150
 8430POPC   C1A65247   3.527  40.744   6.450
 8430POPC   D2A65248   3.538  40.788   6.750
 8430POPC   C3A65249   3.581  40.801   7.050
 8430POPC   C4A65250   3.523  40.822   7.350
 8430POPC   C1B65251   3.461  40.540   6.450
 8430POPC   C2B65252   3.464  40.583   6.750
 8430POPC   C3B65253   3.453  40.542   7.050
 8430POPC   C4B65254   3.435  40.509   7.350
 8431POPC   NC365255   8.239  30.724   5.550
 8431POPC   PO465256   8.158  30.680   5.850
 8431POPC   GL165257   8.231  30.674   6.150
 8431POPC   GL265258   8.292  30.554   6.150
 8431POPC   C1A65259   8.189  30.652   6.450
 8431POPC   D2A65260   8.174  30.697   6.750
 8431POPC   C3A65261   8.158  30.743   7.050
 8431POPC   C4A65262   8.175  30.654   7.350
 8431POPC   C1B65263   8.295  30.480   6.450
 8431POPC   C2B65264   8.338  30.449   6.750
 8431POPC   C3B65265   8.336  30.510   7.050
 8431POPC   C4B65266   8.327  30.476   7.350
 8432POPC   NC365267   5.917  24.523   5.550
 8432POPC   PO465268   5.915  24.527   5.850
 8432POPC   GL165269   5.911  24.513   6.150
 8432POPC   GL265270   5.975  24.454   6.150
 8432POPC   C1A65271   5.857  24.491   6.450
 8432POPC   D2A65272   5.856  24.472   6.750
 8432POPC   C3A65273   5.866  24.511   7.050
 8432POPC   C4A65274   5.917  24.457   7.350
 8432POPC   C1B65275   6.116  24.550   6.450
 8432POPC   C2B65276   6.086  24.484   6.750
 8432POPC   C3B65277   6.116  24.559   7.050
 8432POPC   C4B65278   6.090  24.524   7.350
 8433POPC   NC365279  12.070  32.246   5.550
 8433POPC   PO465280  12.108  32.280   5.850
 8433POPC   GL165281  12.122  32.205   6.150
 8433POPC   GL265282  12.136  32.166   6.150
 8433POPC   C1A65283  12.100  32.249   6.450
 8433POPC   D2A65284  12.057  32.205   6.750
 8433POPC   C3A65285  12.032  32.296   7.050
 8433POPC   C4A65286  12.100  32.264   7.350
 8433POPC   C1B65287  12.219  32.016   6.450
 8433POPC   C2B65288  12.253  32.047   6.750
 8433POPC   C3B65289  12.254  32.056   7.050
 8433POPC   C4B65290  12.230  32.092   7.350
 8434POPC   NC365291   8.185  33.047   5.550
 8434POPC   PO465292   8.162  33.039   5.850
 8434POPC   GL165293   8.164  33.000   6.150
 8434POPC   GL265294   8.106  33.003   6.150
 8434POPC   C1A65295   8.213  33.046   6.450
 8434POPC   D2A65296   8.177  33.065   6.750
 8434POPC   C3A65297   8.246  32.993   7.050
 8434POPC   C4A65298   8.206  33.038   7.350
 8434POPC   C1B65299   7.933  33.031   6.450
 8434POPC   C2B65300   7.991  33.044   6.750
 8434POPC   C3B65301   7.965  33.039   7.050
 8434POPC   C4B65302   7.988  33.113   7.350
 8435POPC   NC365303  36.929  26.069   5.550
 8435POPC   PO465304  36.874  26.012   5.850
 8435POPC   GL165305  36.941  26.086   6.150
 8435POPC   GL265306  36.758  26.086   6.150
 8435POPC   C1A65307  36.854  26.069   6.450
 8435POPC   D2A65308  36.946  26.024   6.750
 8435POPC   C3A65309  36.914  26.037   7.050
 8435POPC   C4A65310  36.918  26.014   7.350
 8435POPC   C1B65311  36.681  26.143   6.450
 8435POPC   C2B65312  36.727  26.146   6.750
 8435POPC   C3B65313  36.644  26.154   7.050
 8435POPC   C4B65314  36.721  26.129   7.350
 8436POPC   NC365315  12.840  19.031   5.550
 8436POPC   PO465316  12.878  19.022   5.850
 8436POPC   GL165317  12.814  19.088   6.150
 8436POPC   GL265318  12.917  19.159   6.150
 8436POPC   C1A65319  12.818  19.048   6.450
 8436POPC   D2A65320  12.802  19.095   6.750
 8436POPC   C3A65321  12.841  19.092   7.050
 8436POPC   C4A65322  12.820  19.034   7.350
 8436POPC   C1B65323  13.064  19.183   6.450
 8436POPC   C2B65324  13.104  19.152   6.750
 8436POPC   C3B65325  13.063  19.110   7.050
 8436POPC   C4B65326  13.082  19.166   7.350
 8437POPC   NC365327  37.713  43.905   5.550
 8437POPC   PO465328  37.697  43.913   5.850
 8437POPC   GL165329  37.661  43.906   6.150
 8437POPC   GL265330  37.517  43.922   6.150
 8437POPC   C1A65331  37.725  43.857   6.450
 8437POPC   D2A65332  37.636  43.909   6.750
 8437POPC   C3A65333  37.671  43.859   7.050
 8437POPC   C4A65334  37.710  43.863   7.350
 8437POPC   C1B65335  37.423  43.864   6.450
 8437POPC   C2B65336  37.442  43.915   6.750
 8437POPC   C3B65337  37.465  43.845   7.050
 8437POPC   C4B65338  37.426  43.918   7.350
 8438POPC   NC365339  15.918  18.250   5.550
 8438POPC   PO465340  15.971  18.253   5.850
 8438POPC   GL165341  15.945  18.328   6.150
 8438POPC   GL265342  15.875  18.344   6.150
 8438POPC   C1A65343  15.944  18.290   6.450
 8438POPC   D2A65344  15.965  18.255   6.750
 8438POPC   C3A65345  15.975  18.277   7.050
 8438POPC   C4A65346  15.952  18.297   7.350
 8438POPC   C1B65347  15.788  18.454   6.450
 8438POPC   C2B65348  15.722  18.417   6.750
 8438POPC   C3B65349  15.719  18.475   7.050
 8438POPC   C4B65350  15.789  18.448   7.350
 8439POPC   NC365351  23.711  17.519   5.550
 8439POPC   PO465352  23.701  17.505   5.850
 8439POPC   GL165353  23.724  17.523   6.150
 8439POPC   GL265354  23.763  17.640   6.150
 8439POPC   C1A65355  23.673  17.518   6.450
 8439POPC   D2A65356  23.732  17.476   6.750
 8439POPC   C3A65357  23.752  17.505   7.050
 8439POPC   C4A65358  23.685  17.535   7.350
 8439POPC   C1B65359  23.808  17.733   6.450
 8439POPC   C2B65360  23.728  17.774   6.750
 8439POPC   C3B65361  23.791  17.775   7.050
 8439POPC   C4B65362  23.756  17.791   7.350
 8440POPC   NC365363  32.278  28.403   5.550
 8440POPC   PO465364  32.204  28.414   5.850
 8440POPC   GL165365  32.297  28.383   6.150
 8440POPC   GL265366  32.180  28.494   6.150
 8440POPC   C1A65367  32.284  28.387   6.450
 8440POPC   D2A65368  32.237  28.323   6.750
 8440POPC   C3A65369  32.246  28.325   7.050
 8440POPC   C4A65370  32.255  28.401   7.350
 8440POPC   C1B65371  32.033  28.563   6.450
 8440POPC   C2B65372  32.095  28.571   6.750
 8440POPC   C3B65373  32.117  28.508   7.050
 8440POPC   C4B65374  32.034  28.553   7.350
 8441POPC   NC365375   6.628  44.704   5.550
 8441POPC   PO465376   6.638  44.690   5.850
 8441POPC   GL165377   6.636  44.623   6.150
 8441POPC   GL265378   6.768  44.601   6.150
 8441POPC   C1A65379   6.637  44.614   6.450
 8441POPC   D2A65380   6.684  44.613   6.750
 8441POPC   C3A65381   6.627  44.647   7.050
 8441POPC   C4A65382   6.627  44.668   7.350
 8441POPC   C1B65383   6.920  44.578   6.450
 8441POPC   C2B65384   6.916  44.580   6.750
 8441POPC   C3B65385   6.928  44.633   7.050
 8441POPC   C4B65386   6.862  44.597   7.350
 8442POPC   NC365387  12.875   0.420   5.550
 8442POPC   PO465388  12.853   0.426   5.850
 8442POPC   GL165389  12.827   0.459   6.150
 8442POPC   GL265390  12.920   0.342   6.150
 8442POPC   C1A65391  12.833   0.479   6.450
 8442POPC   D2A65392  12.802   0.476   6.750
 8442POPC   C3A65393  12.807   0.468   7.050
 8442POPC   C4A65394  12.835   0.399   7.350
 8442POPC   C1B65395  12.925   0.201   6.450
 8442POPC   C2B65396  12.900   0.214   6.750
 8442POPC   C3B65397  12.931   0.243   7.050
 8442POPC   C4B65398  12.886   0.239   7.350
 8443POPC   NC365399  32.234   2.755   5.550
 8443POPC   PO465400  32.264   2.774   5.850
 8443POPC   GL165401  32.228   2.716   6.150
 8443POPC   GL265402  32.153   2.850   6.150
 8443POPC   C1A65403  32.198   2.800   6.450
 8443POPC   D2A65404  32.282   2.751   6.750
 8443POPC   C3A65405  32.229   2.747   7.050
 8443POPC   C4A65406  32.268   2.791   7.350
 8443POPC   C1B65407  32.150   2.947   6.450
 8443POPC   C2B65408  32.137   2.992   6.750
 8443POPC   C3B65409  32.178   3.033   7.050
 8443POPC   C4B65410  32.101   2.949   7.350
 8444POPC   NC365411   0.415  43.844   5.550
 8444POPC   PO465412   0.470  43.927   5.850
 8444POPC   GL165413   0.437  43.907   6.150
 8444POPC   GL265414   0.503  44.008   6.150
 8444POPC   C1A65415   0.466  43.900   6.450
 8444POPC   D2A65416   0.432  43.854   6.750
 8444POPC   C3A65417   0.396  43.844   7.050
 8444POPC   C4A65418   0.445  43.867   7.350
 8444POPC   C1B65419   0.581  44.098   6.450
 8444POPC   C2B65420   0.619  44.079   6.750
 8444POPC   C3B65421   0.654  44.045   7.050
 8444POPC   C4B65422   0.606  44.034   7.350
 8445POPC   NC365423  24.510  41.517   5.550
 8445POPC   PO465424  24.470  41.541   5.850
 8445POPC   GL165425  24.451  41.574   6.150
 8445POPC   GL265426  24.646  41.506   6.150
 8445POPC   C1A65427  24.463  41.537   6.450
 8445POPC   D2A65428  24.505  41.567   6.750
 8445POPC   C3A65429  24.461  41.543   7.050
 8445POPC   C4A65430  24.534  41.576   7.350
 8445POPC   C1B65431  24.749  41.511   6.450
 8445POPC   C2B65432  24.757  41.527   6.750
 8445POPC   C3B65433  24.759  41.445   7.050
 8445POPC   C4B65434  24.751  41.499   7.350
 8446POPC   NC365435  44.703  22.121   5.550
 8446POPC   PO465436  44.704  22.120   5.850
 8446POPC   GL165437  44.645  22.156   6.150
 8446POPC   GL265438  44.774  22.280   6.150
 8446POPC   C1A65439  44.657  22.155   6.450
 8446POPC   D2A65440  44.699  22.131   6.750
 8446POPC   C3A65441  44.701  22.173   7.050
 8446POPC   C4A65442  44.676  22.125   7.350
 8446POPC   C1B65443  44.834  22.339   6.450
 8446POPC   C2B65444  44.809  22.370   6.750
 8446POPC   C3B65445  44.810  22.330   7.050
 8446POPC   C4B65446  44.822  22.381   7.350
 8447POPC   NC365447  12.065   9.771   5.550
 8447POPC   PO465448  12.087   9.748   5.850
 8447POPC   GL165449  12.054   9.757   6.150
 8447POPC   GL265450  11.997   9.624   6.150
 8447POPC   C1A65451  12.088   9.753   6.450
 8447POPC   D2A65452  12.104   9.733   6.750
 8447POPC   C3A65453  12.123   9.791   7.050
 8447POPC   C4A65454  12.056   9.752   7.350
 8447POPC   C1B65455  11.948   9.536   6.450
 8447POPC   C2B65456  11.906   9.532   6.750
 8447POPC   C3B65457  11.901   9.510   7.050
 8447POPC   C4B65458  11.954   9.524   7.350
 8448POPC   NC365459  23.675  18.235   5.550
 8448POPC   PO465460  23.694  18.280   5.850
 8448POPC   GL165461  23.762  18.312   6.150
 8448POPC   GL265462  23.650  18.176   6.150
 8448POPC   C1A65463  23.752  18.270   6.450
 8448POPC   D2A65464  23.710  18.313   6.750
 8448POPC   C3A65465  23.716  18.316   7.050
 8448POPC   C4A65466  23.719  18.235   7.350
 8448POPC   C1B65467  23.633  18.044   6.450
 8448POPC   C2B65468  23.597  18.098   6.750
 8448POPC   C3B65469  23.628  18.083   7.050
 8448POPC   C4B65470  23.575  18.060   7.350
 8449POPC   NC365471  17.487  29.900   5.550
 8449POPC   PO465472  17.473  29.959   5.850
 8449POPC   GL165473  17.526  29.904   6.150
 8449POPC   GL265474  17.389  29.911   6.150
 8449POPC   C1A65475  17.513  29.966   6.450
 8449POPC   D2A65476  17.503  29.965   6.750
 8449POPC   C3A65477  17.541  29.917   7.050
 8449POPC   C4A65478  17.472  29.955   7.350
 8449POPC   C1B65479  17.270  29.990   6.450
 8449POPC   C2B65480  17.242  29.973   6.750
 8449POPC   C3B65481  17.250  30.023   7.050
 8449POPC   C4B65482  17.296  29.972   7.350
 8450POPC   NC365483   8.927  13.677   5.550
 8450POPC   PO465484   8.994  13.659   5.850
 8450POPC   GL165485   8.950  13.628   6.150
 8450POPC   GL265486   9.099  13.539   6.150
 8450POPC   C1A65487   8.996  13.606   6.450
 8450POPC   D2A65488   8.951  13.645   6.750
 8450POPC   C3A65489   8.973  13.672   7.050
 8450POPC   C4A65490   8.957  13.662   7.350
 8450POPC   C1B65491   9.161  13.479   6.450
 8450POPC   C2B65492   9.151  13.464   6.750
 8450POPC   C3B65493   9.189  13.519   7.050
 8450POPC   C4B65494   9.188  13.447   7.350
 8451POPC   NC365495  29.887  12.104   5.550
 8451POPC   PO465496  29.910  12.032   5.850
 8451POPC   GL165497  29.946  12.092   6.150
 8451POPC   GL265498  29.901  11.937   6.150
 8451POPC   C1A65499  29.894  12.120   6.450
 8451POPC   D2A65500  29.900  12.040   6.750
 8451POPC   C3A65501  29.876  12.112   7.050
 8451POPC   C4A65502  29.959  12.059   7.350
 8451POPC   C1B65503  29.776  11.894   6.450
 8451POPC   C2B65504  29.754  11.875   6.750
 8451POPC   C3B65505  29.786  11.853   7.050
 8451POPC   C4B65506  29.796  11.853   7.350
 8452POPC   NC365507  18.234  15.912   5.550
 8452POPC   PO465508  18.317  15.938   5.850
 8452POPC   GL165509  18.300  15.953   6.150
 8452POPC   GL265510  18.387  15.905   6.150
 8452POPC   C1A65511  18.285  16.001   6.450
 8452POPC   D2A65512  18.332  15.942   6.750
 8452POPC   C3A65513  18.276  15.965   7.050
 8452POPC   C4A65514  18.250  15.994   7.350
 8452POPC   C1B65515  18.521  15.830   6.450
 8452POPC   C2B65516  18.456  15.842   6.750
 8452POPC   C3B65517  18.511  15.777   7.050
 8452POPC   C4B65518  18.487  15.821   7.350
 8453POPC   NC365519  34.564  37.642   5.550
 8453POPC   PO465520  34.593  37.683   5.850
 8453POPC   GL165521  34.611  37.673   6.150
 8453POPC   GL265522  34.620  37.563   6.150
 8453POPC   C1A65523  34.543  37.658   6.450
 8453POPC   D2A65524  34.562  37.690   6.750
 8453POPC   C3A65525  34.589  37.659   7.050
 8453POPC   C4A65526  34.559  37.708   7.350
 8453POPC   C1B65527  34.654  37.392   6.450
 8453POPC   C2B65528  34.623  37.400   6.750
 8453POPC   C3B65529  34.692  37.416   7.050
 8453POPC   C4B65530  34.662  37.475   7.350
 8454POPC   NC365531  39.207  20.634   5.550
 8454POPC   PO465532  39.247  20.565   5.850
 8454POPC   GL165533  39.189  20.588   6.150
 8454POPC   GL265534  39.398  20.595   6.150
 8454POPC   C1A65535  39.215  20.629   6.450
 8454POPC   D2A65536  39.231  20.635   6.750
 8454POPC   C3A65537  39.221  20.647   7.050
 8454POPC   C4A65538  39.220  20.584   7.350
 8454POPC   C1B65539  39.492  20.631   6.450
 8454POPC   C2B65540  39.474  20.640   6.750
 8454POPC   C3B65541  39.449  20.627   7.050
 8454POPC   C4B65542  39.509  20.631   7.350
 8455POPC   NC365543  32.258   8.190   5.550
 8455POPC   PO465544  32.238   8.190   5.850
 8455POPC   GL165545  32.211   8.243   6.150
 8455POPC   GL265546  32.259   8.339   6.150
 8455POPC   C1A65547  32.245   8.228   6.450
 8455POPC   D2A65548  32.273   8.215   6.750
 8455POPC   C3A65549  32.278   8.220   7.050
 8455POPC   C4A65550  32.267   8.210   7.350
 8455POPC   C1B65551  32.222   8.471   6.450
 8455POPC   C2B65552  32.232   8.479   6.750
 8455POPC   C3B65553  32.195   8.407   7.050
 8455POPC   C4B65554  32.245   8.407   7.350
 8456POPC   NC365555  19.020   5.111   5.550
 8456POPC   PO465556  19.059   5.045   5.850
 8456POPC   GL165557  19.014   5.072   6.150
 8456POPC   GL265558  18.919   5.164   6.150
 8456POPC   C1A65559  19.094   5.098   6.450
 8456POPC   D2A65560  19.089   5.073   6.750
 8456POPC   C3A65561  19.095   5.107   7.050
 8456POPC   C4A65562  19.044   5.060   7.350
 8456POPC   C1B65563  18.846   5.149   6.450
 8456POPC   C2B65564  18.802   5.163   6.750
 8456POPC   C3B65565  18.773   5.184   7.050
 8456POPC   C4B65566  18.846   5.154   7.350
 8457POPC   NC365567  17.507   5.078   5.550
 8457POPC   PO465568  17.469   5.133   5.850
 8457POPC   GL165569  17.522   5.140   6.150
 8457POPC   GL265570  17.541   4.926   6.150
 8457POPC   C1A65571  17.468   5.131   6.450
 8457POPC   D2A65572  17.521   5.087   6.750
 8457POPC   C3A65573  17.471   5.113   7.050
 8457POPC   C4A65574  17.490   5.138   7.350
 8457POPC   C1B65575  17.584   4.863   6.450
 8457POPC   C2B65576  17.606   4.887   6.750
 8457POPC   C3B65577  17.628   4.822   7.050
 8457POPC   C4B65578  17.621   4.891   7.350
 8458POPC   NC365579  44.628  20.569   5.550
 8458POPC   PO465580  44.642  20.601   5.850
 8458POPC   GL165581  44.672  20.651   6.150
 8458POPC   GL265582  44.610  20.495   6.150
 8458POPC   C1A65583  44.662  20.633   6.450
 8458POPC   D2A65584  44.666  20.649   6.750
 8458POPC   C3A65585  44.677  20.598   7.050
 8458POPC   C4A65586  44.619  20.579   7.350
 8458POPC   C1B65587  44.473  20.404   6.450
 8458POPC   C2B65588  44.478  20.391   6.750
 8458POPC   C3B65589  44.467  20.436   7.050
 8458POPC   C4B65590  44.521  20.396   7.350
 8459POPC   NC365591  38.471  34.622   5.550
 8459POPC   PO465592  38.460  34.574   5.850
 8459POPC   GL165593  38.433  34.600   6.150
 8459POPC   GL265594  38.488  34.482   6.150
 8459POPC   C1A65595  38.487  34.552   6.450
 8459POPC   D2A65596  38.491  34.566   6.750
 8459POPC   C3A65597  38.453  34.587   7.050
 8459POPC   C4A65598  38.436  34.528   7.350
 8459POPC   C1B65599  38.609  34.381   6.450
 8459POPC   C2B65600  38.613  34.367   6.750
 8459POPC   C3B65601  38.602  34.342   7.050
 8459POPC   C4B65602  38.610  34.359   7.350
 8460POPC   NC365603  32.985  14.411   5.550
 8460POPC   PO465604  33.018  14.415   5.850
 8460POPC   GL165605  32.979  14.388   6.150
 8460POPC   GL265606  33.016  14.479   6.150
 8460POPC   C1A65607  33.056  14.415   6.450
 8460POPC   D2A65608  33.037  14.391   6.750
 8460POPC   C3A65609  33.023  14.440   7.050
 8460POPC   C4A65610  33.005  14.386   7.350
 8460POPC   C1B65611  33.039  14.622   6.450
 8460POPC   C2B65612  33.084  14.646   6.750
 8460POPC   C3B65613  33.039  14.667   7.050
 8460POPC   C4B65614  33.099  14.637   7.350
 8461POPC   NC365615  25.232  32.221   5.550
 8461POPC   PO465616  25.243  32.214   5.850
 8461POPC   GL165617  25.302  32.249   6.150
 8461POPC   GL265618  25.406  32.159   6.150
 8461POPC   C1A65619  25.299  32.274   6.450
 8461POPC   D2A65620  25.300  32.296   6.750
 8461POPC   C3A65621  25.266  32.200   7.050
 8461POPC   C4A65622  25.259  32.290   7.350
 8461POPC   C1B65623  25.493  32.055   6.450
 8461POPC   C2B65624  25.459  32.050   6.750
 8461POPC   C3B65625  25.435  32.094   7.050
 8461POPC   C4B65626  25.460  32.043   7.350
 8462POPC   NC365627  21.414  33.752   5.550
 8462POPC   PO465628  21.353  33.843   5.850
 8462POPC   GL165629  21.385  33.799   6.150
 8462POPC   GL265630  21.474  33.834   6.150
 8462POPC   C1A65631  21.403  33.848   6.450
 8462POPC   D2A65632  21.389  33.823   6.750
 8462POPC   C3A65633  21.359  33.780   7.050
 8462POPC   C4A65634  21.386  33.757   7.350
 8462POPC   C1B65635  21.650  33.843   6.450
 8462POPC   C2B65636  21.597  33.849   6.750
 8462POPC   C3B65637  21.599  33.844   7.050
 8462POPC   C4B65638  21.679  33.806   7.350
 8463POPC   NC365639  40.769  14.359   5.550
 8463POPC   PO465640  40.801  14.388   5.850
 8463POPC   GL165641  40.789  14.356   6.150
 8463POPC   GL265642  40.731  14.250   6.150
 8463POPC   C1A65643  40.770  14.390   6.450
 8463POPC   D2A65644  40.793  14.368   6.750
 8463POPC   C3A65645  40.791  14.424   7.050
 8463POPC   C4A65646  40.741  14.427   7.350
 8463POPC   C1B65647  40.715  14.159   6.450
 8463POPC   C2B65648  40.685  14.150   6.750
 8463POPC   C3B65649  40.770  14.196   7.050
 8463POPC   C4B65650  40.719  14.148   7.350
 8464POPC   NC365651  33.761   9.786   5.550
 8464POPC   PO465652  33.849   9.705   5.850
 8464POPC   GL165653  33.822   9.774   6.150
 8464POPC   GL265654  33.789   9.648   6.150
 8464POPC   C1A65655  33.817   9.726   6.450
 8464POPC   D2A65656  33.763   9.714   6.750
 8464POPC   C3A65657  33.770   9.780   7.050
 8464POPC   C4A65658  33.831   9.756   7.350
 8464POPC   C1B65659  33.734   9.555   6.450
 8464POPC   C2B65660  33.714   9.502   6.750
 8464POPC   C3B65661  33.704   9.530   7.050
 8464POPC   C4B65662  33.717   9.488   7.350
 8465POPC   NC365663  42.364  16.780   5.550
 8465POPC   PO465664  42.342  16.768   5.850
 8465POPC   GL165665  42.367  16.695   6.150
 8465POPC   GL265666  42.236  16.807   6.150
 8465POPC   C1A65667  42.290  16.715   6.450
 8465POPC   D2A65668  42.338  16.690   6.750
 8465POPC   C3A65669  42.311  16.728   7.050
 8465POPC   C4A65670  42.358  16.710   7.350
 8465POPC   C1B65671  42.094  16.820   6.450
 8465POPC   C2B65672  42.105  16.791   6.750
 8465POPC   C3B65673  42.142  16.843   7.050
 8465POPC   C4B65674  42.070  16.809   7.350
 8466POPC   NC365675  29.920  19.031   5.550
 8466POPC   PO465676  29.887  19.031   5.850
 8466POPC   GL165677  29.967  19.064   6.150
 8466POPC   GL265678  30.010  19.031   6.150
 8466POPC   C1A65679  29.927  19.054   6.450
 8466POPC   D2A65680  29.953  19.047   6.750
 8466POPC   C3A65681  29.912  19.088   7.050
 8466POPC   C4A65682  29.930  19.093   7.350
 8466POPC   C1B65683  30.127  19.074   6.450
 8466POPC   C2B65684  30.151  19.016   6.750
 8466POPC   C3B65685  30.167  19.078   7.050
 8466POPC   C4B65686  30.193  19.096   7.350
 8467POPC   NC365687  20.642  29.916   5.550
 8467POPC   PO465688  20.584  29.926   5.850
 8467POPC   GL165689  20.561  29.951   6.150
 8467POPC   GL265690  20.769  29.863   6.150
 8467POPC   C1A65691  20.650  29.929   6.450
 8467POPC   D2A65692  20.608  29.949   6.750
 8467POPC   C3A65693  20.578  29.935   7.050
 8467POPC   C4A65694  20.647  29.914   7.350
 8467POPC   C1B65695  20.795  29.793   6.450
 8467POPC   C2B65696  20.800  29.876   6.750
 8467POPC   C3B65697  20.885  29.805   7.050
 8467POPC   C4B65698  20.890  29.854   7.350
 8468POPC   NC365699  11.324  26.083   5.550
 8468POPC   PO465700  11.339  25.992   5.850
 8468POPC   GL165701  11.335  26.026   6.150
 8468POPC   GL265702  11.419  26.012   6.150
 8468POPC   C1A65703  11.322  26.034   6.450
 8468POPC   D2A65704  11.306  26.044   6.750
 8468POPC   C3A65705  11.283  25.999   7.050
 8468POPC   C4A65706  11.302  25.994   7.350
 8468POPC   C1B65707  11.539  25.921   6.450
 8468POPC   C2B65708  11.469  25.906   6.750
 8468POPC   C3B65709  11.497  25.870   7.050
 8468POPC   C4B65710  11.536  25.876   7.350
 8469POPC   NC365711   2.034  16.701   5.550
 8469POPC   PO465712   1.962  16.694   5.850
 8469POPC   GL165713   2.008  16.703   6.150
 8469POPC   GL265714   2.013  16.826   6.150
 8469POPC   C1A65715   2.035  16.766   6.450
 8469POPC   D2A65716   2.023  16.690   6.750
 8469POPC   C3A65717   2.014  16.687   7.050
 8469POPC   C4A65718   1.982  16.760   7.350
 8469POPC   C1B65719   2.051  16.924   6.450
 8469POPC   C2B65720   2.066  16.941   6.750
 8469POPC   C3B65721   2.044  16.951   7.050
 8469POPC   C4B65722   2.039  16.954   7.350
 8470POPC   NC365723  41.560  43.082   5.550
 8470POPC   PO465724  41.524  43.147   5.850
 8470POPC   GL165725  41.606  43.070   6.150
 8470POPC   GL265726  41.568  43.253   6.150
 8470POPC   C1A65727  41.511  43.125   6.450
 8470POPC   D2A65728  41.607  43.101   6.750
 8470POPC   C3A65729  41.566  43.143   7.050
 8470POPC   C4A65730  41.541  43.151   7.350
 8470POPC   C1B65731  41.539  43.335   6.450
 8470POPC   C2B65732  41.542  43.312   6.750
 8470POPC   C3B65733  41.532  43.368   7.050
 8470POPC   C4B65734  41.559  43.360   7.350
 8471POPC   NC365735  12.900  22.183   5.550
 8471POPC   PO465736  12.808  22.165   5.850
 8471POPC   GL165737  12.889  22.131   6.150
 8471POPC   GL265738  12.875  22.009   6.150
 8471POPC   C1A65739  12.886  22.201   6.450
 8471POPC   D2A65740  12.805  22.187   6.750
 8471POPC   C3A65741  12.894  22.151   7.050
 8471POPC   C4A65742  12.878  22.195   7.350
 8471POPC   C1B65743  12.907  21.962   6.450
 8471POPC   C2B65744  12.898  21.922   6.750
 8471POPC   C3B65745  12.909  21.874   7.050
 8471POPC   C4B65746  12.867  21.965   7.350
 8472POPC   NC365747   8.169  43.074   5.550
 8472POPC   PO465748   8.189  43.095   5.850
 8472POPC   GL165749   8.179  43.127   6.150
 8472POPC   GL265750   8.098  43.029   6.150
 8472POPC   C1A65751   8.169  43.064   6.450
 8472POPC   D2A65752   8.228  43.096   6.750
 8472POPC   C3A65753   8.167  43.121   7.050
 8472POPC   C4A65754   8.160  43.098   7.350
 8472POPC   C1B65755   8.073  42.946   6.450
 8472POPC   C2B65756   8.019  42.884   6.750
 8472POPC   C3B65757   8.044  42.926   7.050
 8472POPC   C4B65758   8.100  42.951   7.350
 8473POPC   NC365759  18.270  13.639   5.550
 8473POPC   PO465760  18.309  13.665   5.850
 8473POPC   GL165761  18.264  13.674   6.150
 8473POPC   GL265762  18.198  13.540   6.150
 8473POPC   C1A65763  18.280  13.668   6.450
 8473POPC   D2A65764  18.244  13.627   6.750
 8473POPC   C3A65765  18.300  13.632   7.050
 8473POPC   C4A65766  18.289  13.644   7.350
 8473POPC   C1B65767  18.217  13.428   6.450
 8473POPC   C2B65768  18.182  13.373   6.750
 8473POPC   C3B65769  18.206  13.376   7.050
 8473POPC   C4B65770  18.172  13.349   7.350
 8474POPC   NC365771  25.314  17.462   5.550
 8474POPC   PO465772  25.294  17.459   5.850
 8474POPC   GL165773  25.263  17.459   6.150
 8474POPC   GL265774  25.155  17.414   6.150
 8474POPC   C1A65775  25.236  17.498   6.450
 8474POPC   D2A65776  25.247  17.478   6.750
 8474POPC   C3A65777  25.247  17.496   7.050
 8474POPC   C4A65778  25.303  17.554   7.350
 8474POPC   C1B65779  25.019  17.369   6.450
 8474POPC   C2B65780  25.008  17.349   6.750
 8474POPC   C3B65781  25.008  17.357   7.050
 8474POPC   C4B65782  25.019  17.380   7.350
 8475POPC   NC365783  22.114  33.787   5.550
 8475POPC   PO465784  22.165  33.808   5.850
 8475POPC   GL165785  22.165  33.805   6.150
 8475POPC   GL265786  22.189  33.886   6.150
 8475POPC   C1A65787  22.113  33.830   6.450
 8475POPC   D2A65788  22.198  33.805   6.750
 8475POPC   C3A65789  22.118  33.756   7.050
 8475POPC   C4A65790  22.187  33.775   7.350
 8475POPC   C1B65791  22.218  34.025   6.450
 8475POPC   C2B65792  22.199  34.012   6.750
 8475POPC   C3B65793  22.214  34.041   7.050
 8475POPC   C4B65794  22.244  34.030   7.350
 8476POPC   NC365795  10.554  15.198   5.550
 8476POPC   PO465796  10.516  15.130   5.850
 8476POPC   GL165797  10.573  15.156   6.150
 8476POPC   GL265798  10.519  15.104   6.150
 8476POPC   C1A65799  10.509  15.156   6.450
 8476POPC   D2A65800  10.523  15.194   6.750
 8476POPC   C3A65801  10.548  15.194   7.050
 8476POPC   C4A65802  10.532  15.165   7.350
 8476POPC   C1B65803  10.453  14.926   6.450
 8476POPC   C2B65804  10.475  14.938   6.750
 8476POPC   C3B65805  10.491  14.954   7.050
 8476POPC   C4B65806  10.493  14.908   7.350
 8477POPC   NC365807  30.714   2.006   5.550
 8477POPC   PO465808  30.649   1.948   5.850
 8477POPC   GL165809  30.729   1.963   6.150
 8477POPC   GL265810  30.543   1.966   6.150
 8477POPC   C1A65811  30.729   2.002   6.450
 8477POPC   D2A65812  30.709   1.975   6.750
 8477POPC   C3A65813  30.726   1.946   7.050
 8477POPC   C4A65814  30.667   1.963   7.350
 8477POPC   C1B65815  30.425   1.997   6.450
 8477POPC   C2B65816  30.444   1.992   6.750
 8477POPC   C3B65817  30.438   1.974   7.050
 8477POPC   C4B65818  30.485   1.964   7.350
 8478POPC   NC365819  19.868  24.513   5.550
 8478POPC   PO465820  19.819  24.441   5.850
 8478POPC   GL165821  19.803  24.478   6.150
 8478POPC   GL265822  19.913  24.447   6.150
 8478POPC   C1A65823  19.820  24.485   6.450
 8478POPC   D2A65824  19.869  24.464   6.750
 8478POPC   C3A65825  19.795  24.449   7.050
 8478POPC   C4A65826  19.849  24.511   7.350
 8478POPC   C1B65827  19.984  24.329   6.450
 8478POPC   C2B65828  20.057  24.334   6.750
 8478POPC   C3B65829  19.969  24.315   7.050
 8478POPC   C4B65830  20.039  24.270   7.350
 8479POPC   NC365831  44.678  39.982   5.550
 8479POPC   PO465832  44.638  40.011   5.850
 8479POPC   GL165833  44.704  39.992   6.150
 8479POPC   GL265834  44.591  40.115   6.150
 8479POPC   C1A65835  44.638  39.972   6.450
 8479POPC   D2A65836  44.635  40.044   6.750
 8479POPC   C3A65837  44.680  40.003   7.050
 8479POPC   C4A65838  44.703  40.019   7.350
 8479POPC   C1B65839  44.450  40.215   6.450
 8479POPC   C2B65840  44.487  40.183   6.750
 8479POPC   C3B65841  44.504  40.173   7.050
 8479POPC   C4B65842  44.495  40.138   7.350
 8480POPC   NC365843  35.325  19.798   5.550
 8480POPC   PO465844  35.334  19.814   5.850
 8480POPC   GL165845  35.342  19.786   6.150
 8480POPC   GL265846  35.293  19.721   6.150
 8480POPC   C1A65847  35.341  19.862   6.450
 8480POPC   D2A65848  35.393  19.857   6.750
 8480POPC   C3A65849  35.388  19.866   7.050
 8480POPC   C4A65850  35.329  19.867   7.350
 8480POPC   C1B65851  35.248  19.649   6.450
 8480POPC   C2B65852  35.182  19.674   6.750
 8480POPC   C3B65853  35.213  19.597   7.050
 8480POPC   C4B65854  35.168  19.647   7.350
 8481POPC   NC365855  36.143  17.534   5.550
 8481POPC   PO465856  36.094  17.548   5.850
 8481POPC   GL165857  36.078  17.460   6.150
 8481POPC   GL265858  36.122  17.580   6.150
 8481POPC   C1A65859  36.096  17.524   6.450
 8481POPC   D2A65860  36.092  17.475   6.750
 8481POPC   C3A65861  36.098  17.522   7.050
 8481POPC   C4A65862  36.102  17.506   7.350
 8481POPC   C1B65863  36.012  17.726   6.450
 8481POPC   C2B65864  36.025  17.763   6.750
 8481POPC   C3B65865  36.005  17.720   7.050
 8481POPC   C4B65866  36.026  17.780   7.350
 8482POPC   NC365867  15.965   1.174   5.550
 8482POPC   PO465868  15.913   1.249   5.850
 8482POPC   GL165869  15.949   1.176   6.150
 8482POPC   GL265870  15.956   1.115   6.150
 8482POPC   C1A65871  15.966   1.211   6.450
 8482POPC   D2A65872  15.932   1.243   6.750
 8482POPC   C3A65873  15.915   1.211   7.050
 8482POPC   C4A65874  16.000   1.204   7.350
 8482POPC   C1B65875  15.884   1.008   6.450
 8482POPC   C2B65876  15.948   0.984   6.750
 8482POPC   C3B65877  15.909   0.988   7.050
 8482POPC   C4B65878  15.942   1.000   7.350
 8483POPC   NC365879  27.582  29.911   5.550
 8483POPC   PO465880  27.557  29.904   5.850
 8483POPC   GL165881  27.587  29.905   6.150
 8483POPC   GL265882  27.464  29.922   6.150
 8483POPC   C1A65883  27.545  29.913   6.450
 8483POPC   D2A65884  27.618  29.876   6.750
 8483POPC   C3A65885  27.596  29.958   7.050
 8483POPC   C4A65886  27.612  29.956   7.350
 8483POPC   C1B65887  27.321  29.810   6.450
 8483POPC   C2B65888  27.316  29.792   6.750
 8483POPC   C3B65889  27.366  29.861   7.050
 8483POPC   C4B65890  27.339  29.828   7.350
 8484POPC   NC365891   9.021   8.164   5.550
 8484POPC   PO465892   8.935   8.226   5.850
 8484POPC   GL165893   9.012   8.229   6.150
 8484POPC   GL265894   8.965   8.105   6.150
 8484POPC   C1A65895   8.994   8.210   6.450
 8484POPC   D2A65896   8.946   8.163   6.750
 8484POPC   C3A65897   8.973   8.246   7.050
 8484POPC   C4A65898   8.937   8.192   7.350
 8484POPC   C1B65899   9.003   7.909   6.450
 8484POPC   C2B65900   9.022   7.951   6.750
 8484POPC   C3B65901   9.051   7.982   7.050
 8484POPC   C4B65902   9.000   7.915   7.350
 8485POPC   NC365903  43.072  29.103   5.550
 8485POPC   PO465904  43.063  29.099   5.850
 8485POPC   GL165905  43.106  29.155   6.150
 8485POPC   GL265906  42.963  29.083   6.150
 8485POPC   C1A65907  43.101  29.116   6.450
 8485POPC   D2A65908  43.081  29.173   6.750
 8485POPC   C3A65909  43.111  29.144   7.050
 8485POPC   C4A65910  43.126  29.116   7.350
 8485POPC   C1B65911  42.847  29.030   6.450
 8485POPC   C2B65912  42.847  29.063   6.750
 8485POPC   C3B65913  42.888  29.049   7.050
 8485POPC   C4B65914  42.859  29.094   7.350
 8486POPC   NC365915  36.172   5.870   5.550
 8486POPC   PO465916  36.103   5.859   5.850
 8486POPC   GL165917  36.119   5.826   6.150
 8486POPC   GL265918  36.071   5.792   6.150
 8486POPC   C1A65919  36.138   5.885   6.450
 8486POPC   D2A65920  36.140   5.892   6.750
 8486POPC   C3A65921  36.121   5.887   7.050
 8486POPC   C4A65922  36.170   5.905   7.350
 8486POPC   C1B65923  35.896   5.718   6.450
 8486POPC   C2B65924  35.921   5.657   6.750
 8486POPC   C3B65925  35.977   5.698   7.050
 8486POPC   C4B65926  35.987   5.715   7.350
 8487POPC   NC365927  32.993  12.095   5.550
 8487POPC   PO465928  32.983  12.032   5.850
 8487POPC   GL165929  33.054  12.118   6.150
 8487POPC   GL265930  32.911  12.031   6.150
 8487POPC   C1A65931  32.998  12.111   6.450
 8487POPC   D2A65932  33.005  12.036   6.750
 8487POPC   C3A65933  33.053  12.106   7.050
 8487POPC   C4A65934  32.990  12.055   7.350
 8487POPC   C1B65935  32.733  12.016   6.450
 8487POPC   C2B65936  32.819  12.029   6.750
 8487POPC   C3B65937  32.736  12.018   7.050
 8487POPC   C4B65938  32.795  12.027   7.350
 8488POPC   NC365939   1.959   5.117   5.550
 8488POPC   PO465940   2.012   5.050   5.850
 8488POPC   GL165941   1.965   5.055   6.150
 8488POPC   GL265942   1.961   4.978   6.150
 8488POPC   C1A65943   2.020   5.065   6.450
 8488POPC   D2A65944   1.984   5.071   6.750
 8488POPC   C3A65945   1.959   5.076   7.050
 8488POPC   C4A65946   1.968   5.096   7.350
 8488POPC   C1B65947   1.941   4.832   6.450
 8488POPC   C2B65948   1.979   4.879   6.750
 8488POPC   C3B65949   1.982   4.884   7.050
 8488POPC   C4B65950   1.943   4.800   7.350
 8489POPC   NC365951  33.051  36.949   5.550
 8489POPC   PO465952  32.977  36.928   5.850
 8489POPC   GL165953  33.025  36.912   6.150
 8489POPC   GL265954  32.896  36.797   6.150
 8489POPC   C1A65955  33.047  36.912   6.450
 8489POPC   D2A65956  33.064  36.924   6.750
 8489POPC   C3A65957  32.995  36.856   7.050
 8489POPC   C4A65958  32.999  36.952   7.350
 8489POPC   C1B65959  32.770  36.749   6.450
 8489POPC   C2B65960  32.819  36.812   6.750
 8489POPC   C3B65961  32.792  36.762   7.050
 8489POPC   C4B65962  32.830  36.811   7.350
 8490POPC   NC365963  42.331   1.970   5.550
 8490POPC   PO465964  42.285   2.032   5.850
 8490POPC   GL165965  42.304   1.989   6.150
 8490POPC   GL265966  42.405   1.861   6.150
 8490POPC   C1A65967  42.376   2.008   6.450
 8490POPC   D2A65968  42.376   1.999   6.750
 8490POPC   C3A65969  42.325   1.950   7.050
 8490POPC   C4A65970  42.368   1.959   7.350
 8490POPC   C1B65971  42.395   1.766   6.450
 8490POPC   C2B65972  42.414   1.708   6.750
 8490POPC   C3B65973  42.355   1.747   7.050
 8490POPC   C4B65974  42.371   1.769   7.350
 8491POPC   NC365975  38.430  44.661   5.550
 8491POPC   PO465976  38.446  44.638   5.850
 8491POPC   GL165977  38.410  44.633   6.150
 8491POPC   GL265978  38.381  44.594   6.150
 8491POPC   C1A65979  38.417  44.623   6.450
 8491POPC   D2A65980  38.446  44.620   6.750
 8491POPC   C3A65981  38.462  44.642   7.050
 8491POPC   C4A65982  38.495  44.680   7.350
 8491POPC   C1B65983  38.182  44.642   6.450
 8491POPC   C2B65984  38.234  44.636   6.750
 8491POPC   C3B65985  38.177  44.602   7.050
 8491POPC   C4B65986  38.235  44.584   7.350
 8492POPC   NC365987   9.712  10.530   5.550
 8492POPC   PO465988   9.787  10.536   5.850
 8492POPC   GL165989   9.713  10.514   6.150
 8492POPC   GL265990   9.608  10.556   6.150
 8492POPC   C1A65991   9.770  10.535   6.450
 8492POPC   D2A65992   9.761  10.550   6.750
 8492POPC   C3A65993   9.777  10.528   7.050
 8492POPC   C4A65994   9.724  10.506   7.350
 8492POPC   C1B65995   9.464  10.646   6.450
 8492POPC   C2B65996   9.502  10.637   6.750
 8492POPC   C3B65997   9.472  10.620   7.050
 8492POPC   C4B65998   9.484  10.617   7.350
 8493POPC   NC365999  13.620  23.751   5.550
 8493POPC   PO466000  13.618  23.703   5.850
 8493POPC   GL166001  13.632  23.672   6.150
 8493POPC   GL266002  13.554  23.771   6.150
 8493POPC   C1A66003  13.643  23.735   6.450
 8493POPC   D2A66004  13.670  23.751   6.750
 8493POPC   C3A66005  13.595  23.755   7.050
 8493POPC   C4A66006  13.592  23.723   7.350
 8493POPC   C1B66007  13.400  23.827   6.450
 8493POPC   C2B66008  13.414  23.903   6.750
 8493POPC   C3B66009  13.454  23.879   7.050
 8493POPC   C4B66010  13.391  23.915   7.350
 8494POPC   NC366011  29.175  30.730   5.550
 8494POPC   PO466012  29.109  30.701   5.850
 8494POPC   GL166013  29.110  30.722   6.150
 8494POPC   GL266014  29.272  30.655   6.150
 8494POPC   C1A66015  29.134  30.654   6.450
 8494POPC   D2A66016  29.129  30.714   6.750
 8494POPC   C3A66017  29.193  30.711   7.050
 8494POPC   C4A66018  29.172  30.668   7.350
 8494POPC   C1B66019  29.443  30.712   6.450
 8494POPC   C2B66020  29.383  30.709   6.750
 8494POPC   C3B66021  29.367  30.650   7.050
 8494POPC   C4B66022  29.410  30.724   7.350
 8495POPC   NC366023   4.361   8.945   5.550
 8495POPC   PO466024   4.309   8.938   5.850
 8495POPC   GL166025   4.285   8.985   6.150
 8495POPC   GL266026   4.227   8.910   6.150
 8495POPC   C1A66027   4.322   8.983   6.450
 8495POPC   D2A66028   4.347   8.927   6.750
 8495POPC   C3A66029   4.361   9.010   7.050
 8495POPC   C4A66030   4.303   9.005   7.350
 8495POPC   C1B66031   4.211   8.775   6.450
 8495POPC   C2B66032   4.171   8.723   6.750
 8495POPC   C3B66033   4.139   8.722   7.050
 8495POPC   C4B66034   4.219   8.724   7.350
 8496POPC   NC366035   5.093  38.411   5.550
 8496POPC   PO466036   5.097  38.423   5.850
 8496POPC   GL166037   5.133  38.415   6.150
 8496POPC   GL266038   4.981  38.373   6.150
 8496POPC   C1A66039   5.137  38.436   6.450
 8496POPC   D2A66040   5.078  38.448   6.750
 8496POPC   C3A66041   5.103  38.480   7.050
 8496POPC   C4A66042   5.049  38.494   7.350
 8496POPC   C1B66043   4.885  38.270   6.450
 8496POPC   C2B66044   4.916  38.268   6.750
 8496POPC   C3B66045   4.938  38.287   7.050
 8496POPC   C4B66046   4.877  38.267   7.350
 8497POPC   NC366047  44.663   5.078   5.550
 8497POPC   PO466048  44.698   5.111   5.850
 8497POPC   GL166049  44.687   5.109   6.150
 8497POPC   GL266050  44.775   5.135   6.150
 8497POPC   C1A66051  44.696   5.078   6.450
 8497POPC   D2A66052  44.706   5.134   6.750
 8497POPC   C3A66053  44.617   5.136   7.050
 8497POPC   C4A66054  44.663   5.115   7.350
 8497POPC   C1B66055  44.942   5.137   6.450
 8497POPC   C2B66056  44.928   5.086   6.750
 8497POPC   C3B66057  44.882   5.052   7.050
 8497POPC   C4B66058  44.925   5.101   7.350
 8498POPC   NC366059  35.322  26.024   5.550
 8498POPC   PO466060  35.366  26.030   5.850
 8498POPC   GL166061  35.366  26.037   6.150
 8498POPC   GL266062  35.321  25.897   6.150
 8498POPC   C1A66063  35.389  26.061   6.450
 8498POPC   D2A66064  35.383  26.050   6.750
 8498POPC   C3A66065  35.345  26.048   7.050
 8498POPC   C4A66066  35.396  26.059   7.350
 8498POPC   C1B66067  35.171  25.851   6.450
 8498POPC   C2B66068  35.249  25.882   6.750
 8498POPC   C3B66069  35.202  25.868   7.050
 8498POPC   C4B66070  35.213  25.868   7.350
 8499POPC   NC366071  34.565  13.604   5.550
 8499POPC   PO466072  34.544  13.618   5.850
 8499POPC   GL166073  34.624  13.641   6.150
 8499POPC   GL266074  34.643  13.495   6.150
 8499POPC   C1A66075  34.575  13.641   6.450
 8499POPC   D2A66076  34.596  13.661   6.750
 8499POPC   C3A66077  34.531  13.620   7.050
 8499POPC   C4A66078  34.601  13.629   7.350
 8499POPC   C1B66079  34.628  13.440   6.450
 8499POPC   C2B66080  34.676  13.398   6.750
 8499POPC   C3B66081  34.678  13.370   7.050
 8499POPC   C4B66082  34.693  13.390   7.350
 8500POPC   NC366083  14.449  43.846   5.550
 8500POPC   PO466084  14.400  43.906   5.850
 8500POPC   GL166085  14.382  43.876   6.150
 8500POPC   GL266086  14.573  43.903   6.150
 8500POPC   C1A66087  14.378  43.911   6.450
 8500POPC   D2A66088  14.409  43.924   6.750
 8500POPC   C3A66089  14.449  43.852   7.050
 8500POPC   C4A66090  14.413  43.866   7.350
 8500POPC   C1B66091  14.672  43.970   6.450
 8500POPC   C2B66092  14.613  43.970   6.750
 8500POPC   C3B66093  14.696  43.915   7.050
 8500POPC   C4B66094  14.624  43.883   7.350
 8501POPC   NC366095  35.399  33.026   5.550
 8501POPC   PO466096  35.388  33.054   5.850
 8501POPC   GL166097  35.399  33.053   6.150
 8501POPC   GL266098  35.277  33.173   6.150
 8501POPC   C1A66099  35.362  33.020   6.450
 8501POPC   D2A66100  35.325  33.064   6.750
 8501POPC   C3A66101  35.307  33.024   7.050
 8501POPC   C4A66102  35.373  33.014   7.350
 8501POPC   C1B66103  35.268  33.231   6.450
 8501POPC   C2B66104  35.280  33.237   6.750
 8501POPC   C3B66105  35.239  33.224   7.050
 8501POPC   C4B66106  35.237  33.271   7.350
 8502POPC   NC366107   4.290  26.018   5.550
 8502POPC   PO466108   4.285  26.061   5.850
 8502POPC   GL166109   4.268  26.041   6.150
 8502POPC   GL266110   4.254  25.962   6.150
 8502POPC   C1A66111   4.341  26.033   6.450
 8502POPC   D2A66112   4.309  26.015   6.750
 8502POPC   C3A66113   4.302  26.069   7.050
 8502POPC   C4A66114   4.306  26.074   7.350
 8502POPC   C1B66115   4.096  25.882   6.450
 8502POPC   C2B66116   4.164  25.923   6.750
 8502POPC   C3B66117   4.081  25.884   7.050
 8502POPC   C4B66118   4.166  25.848   7.350
 8503POPC   NC366119  21.394  11.335   5.550
 8503POPC   PO466120  21.389  11.321   5.850
 8503POPC   GL166121  21.389  11.266   6.150
 8503POPC   GL266122  21.541  11.325   6.150
 8503POPC   C1A66123  21.344  11.280   6.450
 8503POPC   D2A66124  21.430  11.348   6.750
 8503POPC   C3A66125  21.367  11.296   7.050
 8503POPC   C4A66126  21.414  11.340   7.350
 8503POPC   C1B66127  21.656  11.286   6.450
 8503POPC   C2B66128  21.653  11.261   6.750
 8503POPC   C3B66129  21.651  11.293   7.050
 8503POPC   C4B66130  21.677  11.274   7.350
 8504POPC   NC366131  32.283  36.883   5.550
 8504POPC   PO466132  32.218  36.921   5.850
 8504POPC   GL166133  32.240  36.918   6.150
 8504POPC   GL266134  32.135  36.956   6.150
 8504POPC   C1A66135  32.278  36.902   6.450
 8504POPC   D2A66136  32.251  36.861   6.750
 8504POPC   C3A66137  32.201  36.928   7.050
 8504POPC   C4A66138  32.216  36.874   7.350
 8504POPC   C1B66139  32.142  37.079   6.450
 8504POPC   C2B66140  32.090  37.092   6.750
 8504POPC   C3B66141  32.090  37.124   7.050
 8504POPC   C4B66142  32.080  37.059   7.350
 8505POPC   NC366143  19.101   4.275   5.550
 8505POPC   PO466144  19.067   4.324   5.850
 8505POPC   GL166145  19.037   4.311   6.150
 8505POPC   GL266146  19.209   4.359   6.150
 8505POPC   C1A66147  19.057   4.337   6.450
 8505POPC   D2A66148  19.102   4.319   6.750
 8505POPC   C3A66149  19.076   4.359   7.050
 8505POPC   C4A66150  19.074   4.304   7.350
 8505POPC   C1B66151  19.306   4.475   6.450
 8505POPC   C2B66152  19.307   4.467   6.750
 8505POPC   C3B66153  19.243   4.459   7.050
 8505POPC   C4B66154  19.273   4.500   7.350
 8506POPC   NC366155  44.643  19.078   5.550
 8506POPC   PO466156  44.626  19.055   5.850
 8506POPC   GL166157  44.624  19.063   6.150
 8506POPC   GL266158  44.642  19.153   6.150
 8506POPC   C1A66159  44.681  19.084   6.450
 8506POPC   D2A66160  44.619  19.017   6.750
 8506POPC   C3A66161  44.688  19.035   7.050
 8506POPC   C4A66162  44.647  19.076   7.350
 8506POPC   C1B66163  44.570  19.278   6.450
 8506POPC   C2B66164  44.574  19.318   6.750
 8506POPC   C3B66165  44.612  19.255   7.050
 8506POPC   C4B66166  44.631  19.307   7.350
 8507POPC   NC366167  16.683  14.397   5.550
 8507POPC   PO466168  16.753  14.366   5.850
 8507POPC   GL166169  16.692  14.445   6.150
 8507POPC   GL266170  16.698  14.259   6.150
 8507POPC   C1A66171  16.742  14.414   6.450
 8507POPC   D2A66172  16.714  14.417   6.750
 8507POPC   C3A66173  16.745  14.432   7.050
 8507POPC   C4A66174  16.737  14.356   7.350
 8507POPC   C1B66175  16.568  14.225   6.450
 8507POPC   C2B66176  16.559  14.169   6.750
 8507POPC   C3B66177  16.655  14.194   7.050
 8507POPC   C4B66178  16.584  14.168   7.350
 8508POPC   NC366179  31.504   5.093   5.550
 8508POPC   PO466180  31.499   5.051   5.850
 8508POPC   GL166181  31.492   5.113   6.150
 8508POPC   GL266182  31.579   4.994   6.150
 8508POPC   C1A66183  31.436   5.143   6.450
 8508POPC   D2A66184  31.449   5.109   6.750
 8508POPC   C3A66185  31.423   5.066   7.050
 8508POPC   C4A66186  31.443   5.133   7.350
 8508POPC   C1B66187  31.614   4.847   6.450
 8508POPC   C2B66188  31.620   4.857   6.750
 8508POPC   C3B66189  31.642   4.890   7.050
 8508POPC   C4B66190  31.659   4.896   7.350
 8509POPC   NC366191  19.088  27.623   5.550
 8509POPC   PO466192  19.043  27.567   5.850
 8509POPC   GL166193  19.099  27.629   6.150
 8509POPC   GL266194  19.162  27.648   6.150
 8509POPC   C1A66195  19.074  27.556   6.450
 8509POPC   D2A66196  19.044  27.584   6.750
 8509POPC   C3A66197  19.055  27.608   7.050
 8509POPC   C4A66198  19.089  27.580   7.350
 8509POPC   C1B66199  19.204  27.746   6.450
 8509POPC   C2B66200  19.296  27.790   6.750
 8509POPC   C3B66201  19.216  27.747   7.050
 8509POPC   C4B66202  19.240  27.770   7.350
 8510POPC   NC366203   4.360  12.052   5.550
 8510POPC   PO466204   4.341  12.028   5.850
 8510POPC   GL166205   4.295  12.066   6.150
 8510POPC   GL266206   4.380  11.996   6.150
 8510POPC   C1A66207   4.324  12.077   6.450
 8510POPC   D2A66208   4.331  12.068   6.750
 8510POPC   C3A66209   4.336  12.032   7.050
 8510POPC   C4A66210   4.285  12.090   7.350
 8510POPC   C1B66211   4.367  11.867   6.450
 8510POPC   C2B66212   4.455  11.813   6.750
 8510POPC   C3B66213   4.417  11.828   7.050
 8510POPC   C4B66214   4.377  11.798   7.350
 8511POPC   NC366215  12.869  15.198   5.550
 8511POPC   PO466216  12.816  15.180   5.850
 8511POPC   GL166217  12.862  15.138   6.150
 8511POPC   GL266218  13.018  15.095   6.150
 8511POPC   C1A66219  12.821  15.191   6.450
 8511POPC   D2A66220  12.847  15.177   6.750
 8511POPC   C3A66221  12.894  15.135   7.050
 8511POPC   C4A66222  12.845  15.224   7.350
 8511POPC   C1B66223  13.078  15.111   6.450
 8511POPC   C2B66224  13.106  15.101   6.750
 8511POPC   C3B66225  13.069  15.137   7.050
 8511POPC   C4B66226  13.116  15.093   7.350
 8512POPC   NC366227   0.428  32.261   5.550
 8512POPC   PO466228   0.462  32.243   5.850
 8512POPC   GL166229   0.479  32.235   6.150
 8512POPC   GL266230   0.350  32.128   6.150
 8512POPC   C1A66231   0.460  32.231   6.450
 8512POPC   D2A66232   0.437  32.294   6.750
 8512POPC   C3A66233   0.418  32.249   7.050
 8512POPC   C4A66234   0.418  32.293   7.350
 8512POPC   C1B66235   0.298  31.980   6.450
 8512POPC   C2B66236   0.321  32.047   6.750
 8512POPC   C3B66237   0.292  31.991   7.050
 8512POPC   C4B66238   0.302  31.975   7.350
 8513POPC   NC366239  22.939  29.942   5.550
 8513POPC   PO466240  22.961  29.888   5.850
 8513POPC   GL166241  22.900  29.894   6.150
 8513POPC   GL266242  23.015  29.829   6.150
 8513POPC   C1A66243  22.952  29.928   6.450
 8513POPC   D2A66244  22.962  29.920   6.750
 8513POPC   C3A66245  22.903  29.943   7.050
 8513POPC   C4A66246  22.904  29.876   7.350
 8513POPC   C1B66247  23.005  29.733   6.450
 8513POPC   C2B66248  23.055  29.708   6.750
 8513POPC   C3B66249  23.033  29.686   7.050
 8513POPC   C4B66250  23.018  29.669   7.350
 8514POPC   NC366251   5.902   1.254   5.550
 8514POPC   PO466252   5.892   1.225   5.850
 8514POPC   GL166253   5.848   1.181   6.150
 8514POPC   GL266254   5.851   1.309   6.150
 8514POPC   C1A66255   5.894   1.218   6.450
 8514POPC   D2A66256   5.893   1.211   6.750
 8514POPC   C3A66257   5.857   1.228   7.050
 8514POPC   C4A66258   5.876   1.170   7.350
 8514POPC   C1B66259   5.795   1.408   6.450
 8514POPC   C2B66260   5.790   1.438   6.750
 8514POPC   C3B66261   5.832   1.469   7.050
 8514POPC   C4B66262   5.839   1.414   7.350
 8515POPC   NC366263  19.055   5.819   5.550
 8515POPC   PO466264  19.108   5.867   5.850
 8515POPC   GL166265  19.064   5.821   6.150
 8515POPC   GL266266  18.986   5.759   6.150
 8515POPC   C1A66267  19.009   5.868   6.450
 8515POPC   D2A66268  19.046   5.866   6.750
 8515POPC   C3A66269  19.027   5.916   7.050
 8515POPC   C4A66270  19.040   5.825   7.350
 8515POPC   C1B66271  18.977   5.605   6.450
 8515POPC   C2B66272  18.947   5.651   6.750
 8515POPC   C3B66273  18.916   5.607   7.050
 8515POPC   C4B66274  18.990   5.653   7.350
 8516POPC   NC366275   1.260   0.459   5.550
 8516POPC   PO466276   1.165   0.423   5.850
 8516POPC   GL166277   1.209   0.392   6.150
 8516POPC   GL266278   1.290   0.365   6.150
 8516POPC   C1A66279   1.241   0.433   6.450
 8516POPC   D2A66280   1.203   0.487   6.750
 8516POPC   C3A66281   1.225   0.427   7.050
 8516POPC   C4A66282   1.175   0.449   7.350
 8516POPC   C1B66283   1.470   0.349   6.450
 8516POPC   C2B66284   1.468   0.305   6.750
 8516POPC   C3B66285   1.461   0.282   7.050
 8516POPC   C4B66286   1.396   0.350   7.350
 8517POPC   NC366287   8.175   3.541   5.550
 8517POPC   PO466288   8.242   3.533   5.850
 8517POPC   GL166289   8.178   3.512   6.150
 8517POPC   GL266290   8.173   3.467   6.150
 8517POPC   C1A66291   8.155   3.579   6.450
 8517POPC   D2A66292   8.148   3.502   6.750
 8517POPC   C3A66293   8.225   3.538   7.050
 8517POPC   C4A66294   8.216   3.503   7.350
 8517POPC   C1B66295   8.048   3.321   6.450
 8517POPC   C2B66296   8.092   3.320   6.750
 8517POPC   C3B66297   8.064   3.312   7.050
 8517POPC   C4B66298   8.133   3.346   7.350
 8518POPC   NC366299  33.059  24.539   5.550
 8518POPC   PO466300  33.009  24.525   5.850
 8518POPC   GL166301  33.031  24.480   6.150
 8518POPC   GL266302  33.129  24.409   6.150
 8518POPC   C1A66303  33.061  24.468   6.450
 8518POPC   D2A66304  32.978  24.453   6.750
 8518POPC   C3A66305  33.033  24.519   7.050
 8518POPC   C4A66306  32.996  24.486   7.350
 8518POPC   C1B66307  33.271  24.411   6.450
 8518POPC   C2B66308  33.231  24.448   6.750
 8518POPC   C3B66309  33.289  24.420   7.050
 8518POPC   C4B66310  33.265  24.363   7.350
 8519POPC   NC366311  15.977  44.679   5.550
 8519POPC   PO466312  15.999  44.647   5.850
 8519POPC   GL166313  15.977  44.684   6.150
 8519POPC   GL266314  15.939  44.792   6.150
 8519POPC   C1A66315  15.999  44.619   6.450
 8519POPC   D2A66316  15.971  44.709   6.750
 8519POPC   C3A66317  15.940  44.696   7.050
 8519POPC   C4A66318  15.990  44.661   7.350
 8519POPC   C1B66319  15.903  44.884   6.450
 8519POPC   C2B66320  15.829  44.917   6.750
 8519POPC   C3B66321  15.851  44.841   7.050
 8519POPC   C4B66322  15.829  44.932   7.350
 8520POPC   NC366323  10.569  26.080   5.550
 8520POPC   PO466324  10.542  26.044   5.850
 8520POPC   GL166325  10.537  26.014   6.150
 8520POPC   GL266326  10.678  25.954   6.150
 8520POPC   C1A66327  10.514  26.036   6.450
 8520POPC   D2A66328  10.504  25.994   6.750
 8520POPC   C3A66329  10.506  26.058   7.050
 8520POPC   C4A66330  10.486  26.087   7.350
 8520POPC   C1B66331  10.776  26.004   6.450
 8520POPC   C2B66332  10.747  25.988   6.750
 8520POPC   C3B66333  10.796  25.949   7.050
 8520POPC   C4B66334  10.738  25.930   7.350
 8521POPC   NC366335  12.854  38.447   5.550
 8521POPC   PO466336  12.850  38.492   5.850
 8521POPC   GL166337  12.836  38.479   6.150
 8521POPC   GL266338  12.884  38.368   6.150
 8521POPC   C1A66339  12.847  38.408   6.450
 8521POPC   D2A66340  12.868  38.485   6.750
 8521POPC   C3A66341  12.824  38.497   7.050
 8521POPC   C4A66342  12.891  38.490   7.350
 8521POPC   C1B66343  12.785  38.225   6.450
 8521POPC   C2B66344  12.863  38.193   6.750
 8521POPC   C3B66345  12.833  38.217   7.050
 8521POPC   C4B66346  12.826  38.159   7.350
 8522POPC   NC366347  43.865  40.736   5.550
 8522POPC   PO466348  43.878  40.733   5.850
 8522POPC   GL166349  43.882  40.814   6.150
 8522POPC   GL266350  43.935  40.940   6.150
 8522POPC   C1A66351  43.864  40.744   6.450
 8522POPC   D2A66352  43.922  40.792   6.750
 8522POPC   C3A66353  43.847  40.771   7.050
 8522POPC   C4A66354  43.878  40.823   7.350
 8522POPC   C1B66355  43.869  41.050   6.450
 8522POPC   C2B66356  43.952  41.065   6.750
 8522POPC   C3B66357  43.909  41.056   7.050
 8522POPC   C4B66358  43.876  40.988   7.350
 8523POPC   NC366359  25.282  19.853   5.550
 8523POPC   PO466360  25.306  19.786   5.850
 8523POPC   GL166361  25.288  19.881   6.150
 8523POPC   GL266362  25.203  19.698   6.150
 8523POPC   C1A66363  25.300  19.855   6.450
 8523POPC   D2A66364  25.284  19.833   6.750
 8523POPC   C3A66365  25.256  19.872   7.050
 8523POPC   C4A66366  25.221  19.857   7.350
 8523POPC   C1B66367  25.184  19.604   6.450
 8523POPC   C2B66368  25.107  19.583   6.750
 8523POPC   C3B66369  25.110  19.590   7.050
 8523POPC   C4B66370  25.157  19.586   7.350
 8524POPC   NC366371  34.598  36.887   5.550
 8524POPC   PO466372  34.612  36.931   5.850
 8524POPC   GL166373  34.613  36.886   6.150
 8524POPC   GL266374  34.653  36.970   6.150
 8524POPC   C1A66375  34.533  36.869   6.450
 8524POPC   D2A66376  34.562  36.948   6.750
 8524POPC   C3A66377  34.543  36.861   7.050
 8524POPC   C4A66378  34.607  36.909   7.350
 8524POPC   C1B66379  34.774  37.022   6.450
 8524POPC   C2B66380  34.810  36.946   6.750
 8524POPC   C3B66381  34.805  36.994   7.050
 8524POPC   C4B66382  34.784  36.951   7.350
 8525POPC   NC366383  19.072  33.059   5.550
 8525POPC   PO466384  19.059  32.997   5.850
 8525POPC   GL166385  19.056  33.045   6.150
 8525POPC   GL266386  19.154  32.925   6.150
 8525POPC   C1A66387  19.071  32.977   6.450
 8525POPC   D2A66388  19.076  33.057   6.750
 8525POPC   C3A66389  19.053  33.061   7.050
 8525POPC   C4A66390  19.040  33.073   7.350
 8525POPC   C1B66391  19.273  32.871   6.450
 8525POPC   C2B66392  19.231  32.893   6.750
 8525POPC   C3B66393  19.232  32.900   7.050
 8525POPC   C4B66394  19.294  32.943   7.350
 8526POPC   NC366395  40.803  43.148   5.550
 8526POPC   PO466396  40.736  43.131   5.850
 8526POPC   GL166397  40.775  43.105   6.150
 8526POPC   GL266398  40.679  43.027   6.150
 8526POPC   C1A66399  40.825  43.107   6.450
 8526POPC   D2A66400  40.765  43.144   6.750
 8526POPC   C3A66401  40.787  43.115   7.050
 8526POPC   C4A66402  40.778  43.152   7.350
 8526POPC   C1B66403  40.690  42.915   6.450
 8526POPC   C2B66404  40.690  42.935   6.750
 8526POPC   C3B66405  40.631  42.856   7.050
 8526POPC   C4B66406  40.651  42.927   7.350
 8527POPC   NC366407   4.279  29.120   5.550
 8527POPC   PO466408   4.282  29.108   5.850
 8527POPC   GL166409   4.302  29.096   6.150
 8527POPC   GL266410   4.470  29.083   6.150
 8527POPC   C1A66411   4.363  29.116   6.450
 8527POPC   D2A66412   4.363  29.169   6.750
 8527POPC   C3A66413   4.333  29.173   7.050
 8527POPC   C4A66414   4.315  29.118   7.350
 8527POPC   C1B66415   4.521  29.043   6.450
 8527POPC   C2B66416   4.573  29.041   6.750
 8527POPC   C3B66417   4.518  28.968   7.050
 8527POPC   C4B66418   4.505  28.964   7.350
 8528POPC   NC366419  25.310  16.754   5.550
 8528POPC   PO466420  25.277  16.686   5.850
 8528POPC   GL166421  25.220  16.748   6.150
 8528POPC   GL266422  25.222  16.785   6.150
 8528POPC   C1A66423  25.311  16.695   6.450
 8528POPC   D2A66424  25.275  16.723   6.750
 8528POPC   C3A66425  25.222  16.707   7.050
 8528POPC   C4A66426  25.270  16.695   7.350
 8528POPC   C1B66427  25.137  16.895   6.450
 8528POPC   C2B66428  25.095  16.969   6.750
 8528POPC   C3B66429  25.098  16.960   7.050
 8528POPC   C4B66430  25.152  16.945   7.350
 8529POPC   NC366431  29.150  15.224   5.550
 8529POPC   PO466432  29.097  15.139   5.850
 8529POPC   GL166433  29.095  15.145   6.150
 8529POPC   GL266434  29.050  15.169   6.150
 8529POPC   C1A66435  29.178  15.186   6.450
 8529POPC   D2A66436  29.182  15.152   6.750
 8529POPC   C3A66437  29.115  15.173   7.050
 8529POPC   C4A66438  29.102  15.158   7.350
 8529POPC   C1B66439  28.893  15.173   6.450
 8529POPC   C2B66440  28.935  15.260   6.750
 8529POPC   C3B66441  28.925  15.253   7.050
 8529POPC   C4B66442  28.935  15.242   7.350
 8530POPC   NC366443  44.631  10.547   5.550
 8530POPC   PO466444  44.633  10.503   5.850
 8530POPC   GL166445  44.680  10.506   6.150
 8530POPC   GL266446  44.803  10.566   6.150
 8530POPC   C1A66447  44.673  10.567   6.450
 8530POPC   D2A66448  44.678  10.544   6.750
 8530POPC   C3A66449  44.686  10.559   7.050
 8530POPC   C4A66450  44.695  10.547   7.350
 8530POPC   C1B66451  44.936  10.560   6.450
 8530POPC   C2B66452  44.911  10.526   6.750
 8530POPC   C3B66453  44.890  10.463   7.050
 8530POPC   C4B66454  44.902  10.527   7.350
 8531POPC   NC366455  39.979  38.437   5.550
 8531POPC   PO466456  40.007  38.408   5.850
 8531POPC   GL166457  40.028  38.456   6.150
 8531POPC   GL266458  39.891  38.456   6.150
 8531POPC   C1A66459  39.985  38.480   6.450
 8531POPC   D2A66460  39.969  38.450   6.750
 8531POPC   C3A66461  39.967  38.481   7.050
 8531POPC   C4A66462  40.023  38.406   7.350
 8531POPC   C1B66463  39.799  38.401   6.450
 8531POPC   C2B66464  39.776  38.460   6.750
 8531POPC   C3B66465  39.775  38.433   7.050
 8531POPC   C4B66466  39.727  38.406   7.350
 8532POPC   NC366467   5.100  44.659   5.550
 8532POPC   PO466468   5.102  44.674   5.850
 8532POPC   GL166469   5.096  44.682   6.150
 8532POPC   GL266470   5.076  44.598   6.150
 8532POPC   C1A66471   5.132  44.661   6.450
 8532POPC   D2A66472   5.056  44.700   6.750
 8532POPC   C3A66473   5.134  44.700   7.050
 8532POPC   C4A66474   5.098  44.620   7.350
 8532POPC   C1B66475   4.938  44.466   6.450
 8532POPC   C2B66476   4.966  44.438   6.750
 8532POPC   C3B66477   4.971  44.471   7.050
 8532POPC   C4B66478   4.998  44.423   7.350
 8533POPC   NC366479  15.154  28.380   5.550
 8533POPC   PO466480  15.226  28.405   5.850
 8533POPC   GL166481  15.172  28.342   6.150
 8533POPC   GL266482  15.098  28.477   6.150
 8533POPC   C1A66483  15.216  28.362   6.450
 8533POPC   D2A66484  15.160  28.418   6.750
 8533POPC   C3A66485  15.224  28.411   7.050
 8533POPC   C4A66486  15.194  28.367   7.350
 8533POPC   C1B66487  14.971  28.491   6.450
 8533POPC   C2B66488  14.989  28.479   6.750
 8533POPC   C3B66489  15.012  28.564   7.050
 8533POPC   C4B66490  15.012  28.486   7.350
 8534POPC   NC366491  40.819   3.535   5.550
 8534POPC   PO466492  40.768   3.563   5.850
 8534POPC   GL166493  40.760   3.523   6.150
 8534POPC   GL266494  40.660   3.549   6.150
 8534POPC   C1A66495  40.825   3.498   6.450
 8534POPC   D2A66496  40.766   3.570   6.750
 8534POPC   C3A66497  40.765   3.527   7.050
 8534POPC   C4A66498  40.740   3.506   7.350
 8534POPC   C1B66499  40.582   3.504   6.450
 8534POPC   C2B66500  40.532   3.432   6.750
 8534POPC   C3B66501  40.494   3.458   7.050
 8534POPC   C4B66502  40.591   3.496   7.350
 8535POPC   NC366503  32.260  37.671   5.550
 8535POPC   PO466504  32.249  37.727   5.850
 8535POPC   GL166505  32.290  37.723   6.150
 8535POPC   GL266506  32.336  37.673   6.150
 8535POPC   C1A66507  32.251  37.728   6.450
 8535POPC   D2A66508  32.223  37.700   6.750
 8535POPC   C3A66509  32.278  37.634   7.050
 8535POPC   C4A66510  32.279  37.637   7.350
 8535POPC   C1B66511  32.438  37.715   6.450
 8535POPC   C2B66512  32.482  37.735   6.750
 8535POPC   C3B66513  32.478  37.801   7.050
 8535POPC   C4B66514  32.531  37.779   7.350
 8536POPC   NC366515  43.912  12.124   5.550
 8536POPC   PO466516  43.936  12.112   5.850
 8536POPC   GL166517  43.929  12.090   6.150
 8536POPC   GL266518  43.895  11.972   6.150
 8536POPC   C1A66519  43.852  12.105   6.450
 8536POPC   D2A66520  43.837  12.126   6.750
 8536POPC   C3A66521  43.934  12.049   7.050
 8536POPC   C4A66522  43.869  12.051   7.350
 8536POPC   C1B66523  43.930  11.845   6.450
 8536POPC   C2B66524  43.939  11.832   6.750
 8536POPC   C3B66525  43.876  11.870   7.050
 8536POPC   C4B66526  43.919  11.822   7.350
 8537POPC   NC366527  27.566  30.741   5.550
 8537POPC   PO466528  27.555  30.723   5.850
 8537POPC   GL166529  27.584  30.687   6.150
 8537POPC   GL266530  27.752  30.640   6.150
 8537POPC   C1A66531  27.592  30.694   6.450
 8537POPC   D2A66532  27.546  30.653   6.750
 8537POPC   C3A66533  27.635  30.672   7.050
 8537POPC   C4A66534  27.557  30.688   7.350
 8537POPC   C1B66535  27.838  30.659   6.450
 8537POPC   C2B66536  27.803  30.649   6.750
 8537POPC   C3B66537  27.804  30.599   7.050
 8537POPC   C4B66538  27.821  30.597   7.350
 8538POPC   NC366539  19.055  20.653   5.550
 8538POPC   PO466540  19.097  20.568   5.850
 8538POPC   GL166541  19.038  20.587   6.150
 8538POPC   GL266542  19.091  20.691   6.150
 8538POPC   C1A66543  19.032  20.575   6.450
 8538POPC   D2A66544  19.107  20.642   6.750
 8538POPC   C3A66545  19.010  20.568   7.050
 8538POPC   C4A66546  19.011  20.581   7.350
 8538POPC   C1B66547  19.164  20.801   6.450
 8538POPC   C2B66548  19.196  20.815   6.750
 8538POPC   C3B66549  19.204  20.828   7.050
 8538POPC   C4B66550  19.173  20.863   7.350
 8539POPC   NC366551  14.362  40.801   5.550
 8539POPC   PO466552  14.439  40.764   5.850
 8539POPC   GL166553  14.443  40.800   6.150
 8539POPC   GL266554  14.485  40.830   6.150
 8539POPC   C1A66555  14.375  40.801   6.450
 8539POPC   D2A66556  14.392  40.825   6.750
 8539POPC   C3A66557  14.453  40.783   7.050
 8539POPC   C4A66558  14.363  40.831   7.350
 8539POPC   C1B66559  14.667  40.853   6.450
 8539POPC   C2B66560  14.631  40.891   6.750
 8539POPC   C3B66561  14.670  40.837   7.050
 8539POPC   C4B66562  14.678  40.826   7.350
 8540POPC   NC366563  36.901   0.482   5.550
 8540POPC   PO466564  36.953   0.464   5.850
 8540POPC   GL166565  36.855   0.482   6.150
 8540POPC   GL266566  36.895   0.287   6.150
 8540POPC   C1A66567  36.864   0.486   6.450
 8540POPC   D2A66568  36.938   0.460   6.750
 8540POPC   C3A66569  36.910   0.451   7.050
 8540POPC   C4A66570  36.883   0.389   7.350
 8540POPC   C1B66571  36.815   0.251   6.450
 8540POPC   C2B66572  36.851   0.223   6.750
 8540POPC   C3B66573  36.814   0.211   7.050
 8540POPC   C4B66574  36.776   0.179   7.350
 8541POPC   NC366575  36.931  42.299   5.550
 8541POPC   PO466576  36.925  42.294   5.850
 8541POPC   GL166577  36.860  42.355   6.150
 8541POPC   GL266578  36.875  42.456   6.150
 8541POPC   C1A66579  36.911  42.383   6.450
 8541POPC   D2A66580  36.942  42.330   6.750
 8541POPC   C3A66581  36.949  42.321   7.050
 8541POPC   C4A66582  36.937  42.324   7.350
 8541POPC   C1B66583  36.855  42.567   6.450
 8541POPC   C2B66584  36.903  42.571   6.750
 8541POPC   C3B66585  36.896  42.558   7.050
 8541POPC   C4B66586  36.809  42.556   7.350
 8542POPC   NC366587  26.846  17.546   5.550
 8542POPC   PO466588  26.799  17.471   5.850
 8542POPC   GL166589  26.862  17.512   6.150
 8542POPC   GL266590  26.742  17.578   6.150
 8542POPC   C1A66591  26.828  17.545   6.450
 8542POPC   D2A66592  26.867  17.481   6.750
 8542POPC   C3A66593  26.828  17.504   7.050
 8542POPC   C4A66594  26.796  17.504   7.350
 8542POPC   C1B66595  26.711  17.726   6.450
 8542POPC   C2B66596  26.685  17.694   6.750
 8542POPC   C3B66597  26.625  17.753   7.050
 8542POPC   C4B66598  26.626  17.714   7.350
 8543POPC   NC366599  42.334  23.709   5.550
 8543POPC   PO466600  42.318  23.715   5.850
 8543POPC   GL166601  42.349  23.699   6.150
 8543POPC   GL266602  42.396  23.828   6.150
 8543POPC   C1A66603  42.316  23.688   6.450
 8543POPC   D2A66604  42.295  23.713   6.750
 8543POPC   C3A66605  42.335  23.721   7.050
 8543POPC   C4A66606  42.290  23.738   7.350
 8543POPC   C1B66607  42.402  23.988   6.450
 8543POPC   C2B66608  42.469  23.914   6.750
 8543POPC   C3B66609  42.392  23.931   7.050
 8543POPC   C4B66610  42.488  23.941   7.350
 8544POPC   NC366611   8.982  42.309   5.550
 8544POPC   PO466612   8.927  42.353   5.850
 8544POPC   GL166613   8.989  42.345   6.150
 8544POPC   GL266614   9.091  42.351   6.150
 8544POPC   C1A66615   9.016  42.359   6.450
 8544POPC   D2A66616   8.953  42.293   6.750
 8544POPC   C3A66617   9.017  42.337   7.050
 8544POPC   C4A66618   8.999  42.311   7.350
 8544POPC   C1B66619   9.238  42.403   6.450
 8544POPC   C2B66620   9.218  42.419   6.750
 8544POPC   C3B66621   9.228  42.454   7.050
 8544POPC   C4B66622   9.179  42.414   7.350
 8545POPC   NC366623  35.398  15.967   5.550
 8545POPC   PO466624  35.357  15.930   5.850
 8545POPC   GL166625  35.374  16.000   6.150
 8545POPC   GL266626  35.191  15.976   6.150
 8545POPC   C1A66627  35.381  15.917   6.450
 8545POPC   D2A66628  35.310  15.933   6.750
 8545POPC   C3A66629  35.354  15.957   7.050
 8545POPC   C4A66630  35.337  15.996   7.350
 8545POPC   C1B66631  35.113  16.001   6.450
 8545POPC   C2B66632  35.072  16.056   6.750
 8545POPC   C3B66633  35.136  16.053   7.050
 8545POPC   C4B66634  35.121  16.062   7.350
 8546POPC   NC366635  39.989  20.611   5.550
 8546POPC   PO466636  40.044  20.588   5.850
 8546POPC   GL166637  40.015  20.650   6.150
 8546POPC   GL266638  40.155  20.693   6.150
 8546POPC   C1A66639  39.994  20.642   6.450
 8546POPC   D2A66640  40.012  20.590   6.750
 8546POPC   C3A66641  40.046  20.601   7.050
 8546POPC   C4A66642  40.040  20.578   7.350
 8546POPC   C1B66643  40.266  20.727   6.450
 8546POPC   C2B66644  40.225  20.719   6.750
 8546POPC   C3B66645  40.262  20.657   7.050
 8546POPC   C4B66646  40.281  20.694   7.350
 8547POPC   NC366647   3.568  12.070   5.550
 8547POPC   PO466648   3.500  12.091   5.850
 8547POPC   GL166649   3.494  12.094   6.150
 8547POPC   GL266650   3.624  12.051   6.150
 8547POPC   C1A66651   3.527  12.073   6.450
 8547POPC   D2A66652   3.577  12.032   6.750
 8547POPC   C3A66653   3.567  12.102   7.050
 8547POPC   C4A66654   3.507  12.109   7.350
 8547POPC   C1B66655   3.741  12.133   6.450
 8547POPC   C2B66656   3.765  12.158   6.750
 8547POPC   C3B66657   3.805  12.136   7.050
 8547POPC   C4B66658   3.832  12.073   7.350
 8548POPC   NC366659  29.888   0.418   5.550
 8548POPC   PO466660  29.933   0.446   5.850
 8548POPC   GL166661  29.889   0.412   6.150
 8548POPC   GL266662  29.919   0.568   6.150
 8548POPC   C1A66663  29.949   0.449   6.450
 8548POPC   D2A66664  29.909   0.465   6.750
 8548POPC   C3A66665  29.943   0.447   7.050
 8548POPC   C4A66666  29.880   0.406   7.350
 8548POPC   C1B66667  29.939   0.733   6.450
 8548POPC   C2B66668  29.883   0.719   6.750
 8548POPC   C3B66669  29.938   0.724   7.050
 8548POPC   C4B66670  29.884   0.676   7.350
 8549POPC   NC366671  39.972   1.978   5.550
 8549POPC   PO466672  40.023   1.971   5.850
 8549POPC   GL166673  40.055   2.003   6.150
 8549POPC   GL266674  39.875   1.915   6.150
 8549POPC   C1A66675  39.996   1.979   6.450
 8549POPC   D2A66676  40.013   2.018   6.750
 8549POPC   C3A66677  40.040   1.993   7.050
 8549POPC   C4A66678  40.032   1.974   7.350
 8549POPC   C1B66679  39.800   1.884   6.450
 8549POPC   C2B66680  39.821   1.840   6.750
 8549POPC   C3B66681  39.790   1.888   7.050
 8549POPC   C4B66682  39.769   1.850   7.350
 8550POPC   NC366683   4.298  21.372   5.550
 8550POPC   PO466684   4.276  21.365   5.850
 8550POPC   GL166685   4.344  21.434   6.150
 8550POPC   GL266686   4.246  21.469   6.150
 8550POPC   C1A66687   4.274  21.392   6.450
 8550POPC   D2A66688   4.321  21.358   6.750
 8550POPC   C3A66689   4.283  21.398   7.050
 8550POPC   C4A66690   4.364  21.379   7.350
 8550POPC   C1B66691   4.035  21.488   6.450
 8550POPC   C2B66692   4.084  21.414   6.750
 8550POPC   C3B66693   4.123  21.500   7.050
 8550POPC   C4B66694   4.108  21.477   7.350
 8551POPC   NC366695  38.504   8.228   5.550
 8551POPC   PO466696  38.450   8.176   5.850
 8551POPC   GL166697  38.432   8.204   6.150
 8551POPC   GL266698  38.548   8.328   6.150
 8551POPC   C1A66699  38.460   8.171   6.450
 8551POPC   D2A66700  38.473   8.168   6.750
 8551POPC   C3A66701  38.428   8.186   7.050
 8551POPC   C4A66702  38.454   8.161   7.350
 8551POPC   C1B66703  38.658   8.381   6.450
 8551POPC   C2B66704  38.651   8.375   6.750
 8551POPC   C3B66705  38.663   8.385   7.050
 8551POPC   C4B66706  38.569   8.408   7.350
 8552POPC   NC366707  28.401  25.251   5.550
 8552POPC   PO466708  28.359  25.254   5.850
 8552POPC   GL166709  28.380  25.268   6.150
 8552POPC   GL266710  28.263  25.379   6.150
 8552POPC   C1A66711  28.414  25.279   6.450
 8552POPC   D2A66712  28.395  25.309   6.750
 8552POPC   C3A66713  28.326  25.302   7.050
 8552POPC   C4A66714  28.371  25.303   7.350
 8552POPC   C1B66715  28.262  25.488   6.450
 8552POPC   C2B66716  28.204  25.443   6.750
 8552POPC   C3B66717  28.216  25.487   7.050
 8552POPC   C4B66718  28.232  25.483   7.350
 8553POPC   NC366719  43.891  15.203   5.550
 8553POPC   PO466720  43.851  15.213   5.850
 8553POPC   GL166721  43.861  15.141   6.150
 8553POPC   GL266722  43.934  15.271   6.150
 8553POPC   C1A66723  43.897  15.188   6.450
 8553POPC   D2A66724  43.909  15.138   6.750
 8553POPC   C3A66725  43.934  15.216   7.050
 8553POPC   C4A66726  43.932  15.163   7.350
 8553POPC   C1B66727  44.001  15.382   6.450
 8553POPC   C2B66728  43.953  15.460   6.750
 8553POPC   C3B66729  43.933  15.385   7.050
 8553POPC   C4B66730  43.935  15.432   7.350
 8554POPC   NC366731  40.799   1.989   5.550
 8554POPC   PO466732  40.797   2.023   5.850
 8554POPC   GL166733  40.768   1.986   6.150
 8554POPC   GL266734  40.804   1.857   6.150
 8554POPC   C1A66735  40.799   1.956   6.450
 8554POPC   D2A66736  40.771   2.035   6.750
 8554POPC   C3A66737  40.775   2.005   7.050
 8554POPC   C4A66738  40.742   2.026   7.350
 8554POPC   C1B66739  40.708   1.722   6.450
 8554POPC   C2B66740  40.787   1.732   6.750
 8554POPC   C3B66741  40.733   1.732   7.050
 8554POPC   C4B66742  40.767   1.778   7.350
 8555POPC   NC366743  43.109  38.407   5.550
 8555POPC   PO466744  43.100  38.451   5.850
 8555POPC   GL166745  43.145  38.499   6.150
 8555POPC   GL266746  43.047  38.536   6.150
 8555POPC   C1A66747  43.134  38.419   6.450
 8555POPC   D2A66748  43.113  38.420   6.750
 8555POPC   C3A66749  43.066  38.456   7.050
 8555POPC   C4A66750  43.085  38.493   7.350
 8555POPC   C1B66751  42.868  38.543   6.450
 8555POPC   C2B66752  42.834  38.512   6.750
 8555POPC   C3B66753  42.912  38.569   7.050
 8555POPC   C4B66754  42.899  38.584   7.350
 8556POPC   NC366755  23.752  41.556   5.550
 8556POPC   PO466756  23.677  41.592   5.850
 8556POPC   GL166757  23.698  41.549   6.150
 8556POPC   GL266758  23.663  41.442   6.150
 8556POPC   C1A66759  23.693  41.588   6.450
 8556POPC   D2A66760  23.745  41.530   6.750
 8556POPC   C3A66761  23.666  41.594   7.050
 8556POPC   C4A66762  23.718  41.600   7.350
 8556POPC   C1B66763  23.684  41.301   6.450
 8556POPC   C2B66764  23.675  41.297   6.750
 8556POPC   C3B66765  23.700  41.272   7.050
 8556POPC   C4B66766  23.679  41.285   7.350
 8557POPC   NC366767  42.376   8.155   5.550
 8557POPC   PO466768  42.294   8.210   5.850
 8557POPC   GL166769  42.317   8.147   6.150
 8557POPC   GL266770  42.214   8.206   6.150
 8557POPC   C1A66771  42.356   8.171   6.450
 8557POPC   D2A66772  42.315   8.168   6.750
 8557POPC   C3A66773  42.365   8.150   7.050
 8557POPC   C4A66774  42.334   8.157   7.350
 8557POPC   C1B66775  42.052   8.236   6.450
 8557POPC   C2B66776  42.110   8.216   6.750
 8557POPC   C3B66777  42.120   8.170   7.050
 8557POPC   C4B66778  42.098   8.181   7.350
 8558POPC   NC366779   1.988  22.191   5.550
 8558POPC   PO466780   2.033  22.154   5.850
 8558POPC   GL166781   2.011  22.124   6.150
 8558POPC   GL266782   1.953  22.094   6.150
 8558POPC   C1A66783   2.032  22.115   6.450
 8558POPC   D2A66784   1.969  22.158   6.750
 8558POPC   C3A66785   1.952  22.165   7.050
 8558POPC   C4A66786   1.946  22.180   7.350
 8558POPC   C1B66787   1.864  21.891   6.450
 8558POPC   C2B66788   1.939  21.944   6.750
 8558POPC   C3B66789   1.900  21.914   7.050
 8558POPC   C4B66790   1.922  21.908   7.350
 8559POPC   NC366791  12.091  23.719   5.550
 8559POPC   PO466792  12.070  23.716   5.850
 8559POPC   GL166793  12.050  23.704   6.150
 8559POPC   GL266794  12.242  23.673   6.150
 8559POPC   C1A66795  12.098  23.667   6.450
 8559POPC   D2A66796  12.095  23.729   6.750
 8559POPC   C3A66797  12.122  23.749   7.050
 8559POPC   C4A66798  12.040  23.725   7.350
 8559POPC   C1B66799  12.370  23.675   6.450
 8559POPC   C2B66800  12.327  23.724   6.750
 8559POPC   C3B66801  12.288  23.636   7.050
 8559POPC   C4B66802  12.280  23.701   7.350
 8560POPC   NC366803  37.640   6.666   5.550
 8560POPC   PO466804  37.683   6.613   5.850
 8560POPC   GL166805  37.719   6.674   6.150
 8560POPC   GL266806  37.608   6.530   6.150
 8560POPC   C1A66807  37.693   6.656   6.450
 8560POPC   D2A66808  37.725   6.670   6.750
 8560POPC   C3A66809  37.649   6.651   7.050
 8560POPC   C4A66810  37.697   6.657   7.350
 8560POPC   C1B66811  37.546   6.477   6.450
 8560POPC   C2B66812  37.507   6.501   6.750
 8560POPC   C3B66813  37.545   6.489   7.050
 8560POPC   C4B66814  37.540   6.437   7.350
 8561POPC   NC366815   3.586  33.041   5.550
 8561POPC   PO466816   3.533  33.058   5.850
 8561POPC   GL166817   3.526  32.977   6.150
 8561POPC   GL266818   3.655  32.872   6.150
 8561POPC   C1A66819   3.582  33.059   6.450
 8561POPC   D2A66820   3.538  32.987   6.750
 8561POPC   C3A66821   3.532  33.018   7.050
 8561POPC   C4A66822   3.505  33.026   7.350
 8561POPC   C1B66823   3.691  32.859   6.450
 8561POPC   C2B66824   3.648  32.773   6.750
 8561POPC   C3B66825   3.687  32.799   7.050
 8561POPC   C4B66826   3.657  32.832   7.350
 8562POPC   NC366827   3.571   9.749   5.550
 8562POPC   PO466828   3.504   9.777   5.850
 8562POPC   GL166829   3.492   9.738   6.150
 8562POPC   GL266830   3.513   9.888   6.150
 8562POPC   C1A66831   3.517   9.736   6.450
 8562POPC   D2A66832   3.581   9.714   6.750
 8562POPC   C3A66833   3.546   9.729   7.050
 8562POPC   C4A66834   3.590   9.730   7.350
 8562POPC   C1B66835   3.549  10.010   6.450
 8562POPC   C2B66836   3.593  10.003   6.750
 8562POPC   C3B66837   3.547  10.035   7.050
 8562POPC   C4B66838   3.558   9.983   7.350
 8563POPC   NC366839  25.286  39.249   5.550
 8563POPC   PO466840  25.261  39.226   5.850
 8563POPC   GL166841  25.246  39.236   6.150
 8563POPC   GL266842  25.222  39.168   6.150
 8563POPC   C1A66843  25.298  39.269   6.450
 8563POPC   D2A66844  25.270  39.247   6.750
 8563POPC   C3A66845  25.307  39.263   7.050
 8563POPC   C4A66846  25.263  39.265   7.350
 8563POPC   C1B66847  25.132  38.969   6.450
 8563POPC   C2B66848  25.112  39.062   6.750
 8563POPC   C3B66849  25.152  39.046   7.050
 8563POPC   C4B66850  25.139  39.008   7.350
 8564POPC   NC366851   7.470  36.087   5.550
 8564POPC   PO466852   7.443  36.149   5.850
 8564POPC   GL166853   7.393  36.168   6.150
 8564POPC   GL266854   7.325  36.242   6.150
 8564POPC   C1A66855   7.390  36.154   6.450
 8564POPC   D2A66856   7.379  36.101   6.750
 8564POPC   C3A66857   7.464  36.089   7.050
 8564POPC   C4A66858   7.406  36.138   7.350
 8564POPC   C1B66859   7.262  36.324   6.450
 8564POPC   C2B66860   7.284  36.343   6.750
 8564POPC   C3B66861   7.204  36.302   7.050
 8564POPC   C4B66862   7.263  36.310   7.350
 8565POPC   NC366863  28.379   1.977   5.550
 8565POPC   PO466864  28.399   1.956   5.850
 8565POPC   GL166865  28.415   1.977   6.150
 8565POPC   GL266866  28.463   2.100   6.150
 8565POPC   C1A66867  28.362   1.987   6.450
 8565POPC   D2A66868  28.348   2.033   6.750
 8565POPC   C3A66869  28.371   1.954   7.050
 8565POPC   C4A66870  28.328   2.024   7.350
 8565POPC   C1B66871  28.484   2.206   6.450
 8565POPC   C2B66872  28.494   2.186   6.750
 8565POPC   C3B66873  28.521   2.224   7.050
 8565POPC   C4B66874  28.472   2.239   7.350
 8566POPC   NC366875  44.667  36.120   5.550
 8566POPC   PO466876  44.660  36.126   5.850
 8566POPC   GL166877  44.656  36.105   6.150
 8566POPC   GL266878  44.572  36.071   6.150
 8566POPC   C1A66879  44.642  36.114   6.450
 8566POPC   D2A66880  44.630  36.131   6.750
 8566POPC   C3A66881  44.663  36.080   7.050
 8566POPC   C4A66882  44.624  36.109   7.350
 8566POPC   C1B66883  44.533  35.975   6.450
 8566POPC   C2B66884  44.514  35.888   6.750
 8566POPC   C3B66885  44.491  35.980   7.050
 8566POPC   C4B66886  44.507  35.892   7.350
 8567POPC   NC366887  31.477  35.347   5.550
 8567POPC   PO466888  31.446  35.384   5.850
 8567POPC   GL166889  31.518  35.385   6.150
 8567POPC   GL266890  31.482  35.495   6.150
 8567POPC   C1A66891  31.507  35.339   6.450
 8567POPC   D2A66892  31.509  35.377   6.750
 8567POPC   C3A66893  31.465  35.368   7.050
 8567POPC   C4A66894  31.514  35.377   7.350
 8567POPC   C1B66895  31.568  35.612   6.450
 8567POPC   C2B66896  31.571  35.564   6.750
 8567POPC   C3B66897  31.579  35.605   7.050
 8567POPC   C4B66898  31.510  35.566   7.350
 8568POPC   NC366899  20.603  16.719   5.550
 8568POPC   PO466900  20.636  16.768   5.850
 8568POPC   GL166901  20.658  16.707   6.150
 8568POPC   GL266902  20.731  16.716   6.150
 8568POPC   C1A66903  20.583  16.731   6.450
 8568POPC   D2A66904  20.640  16.719   6.750
 8568POPC   C3A66905  20.658  16.757   7.050
 8568POPC   C4A66906  20.579  16.734   7.350
 8568POPC   C1B66907  20.790  16.660   6.450
 8568POPC   C2B66908  20.857  16.613   6.750
 8568POPC   C3B66909  20.878  16.654   7.050
 8568POPC   C4B66910  20.809  16.572   7.350
 8569POPC   NC366911  40.817   0.391   5.550
 8569POPC   PO466912  40.758   0.390   5.850
 8569POPC   GL166913  40.761   0.454   6.150
 8569POPC   GL266914  40.772   0.324   6.150
 8569POPC   C1A66915  40.771   0.394   6.450
 8569POPC   D2A66916  40.821   0.464   6.750
 8569POPC   C3A66917  40.831   0.402   7.050
 8569POPC   C4A66918  40.802   0.480   7.350
 8569POPC   C1B66919  40.730   0.210   6.450
 8569POPC   C2B66920  40.729   0.177   6.750
 8569POPC   C3B66921  40.706   0.216   7.050
 8569POPC   C4B66922  40.665   0.193   7.350
 8570POPC   NC366923  21.407  44.631   5.550
 8570POPC   PO466924  21.386  44.651   5.850
 8570POPC   GL166925  21.423  44.658   6.150
 8570POPC   GL266926  21.438  44.729   6.150
 8570POPC   C1A66927  21.377  44.649   6.450
 8570POPC   D2A66928  21.392  44.635   6.750
 8570POPC   C3A66929  21.418  44.708   7.050
 8570POPC   C4A66930  21.416  44.630   7.350
 8570POPC   C1B66931  21.528  44.833   6.450
 8570POPC   C2B66932  21.590  44.801   6.750
 8570POPC   C3B66933  21.602  44.843   7.050
 8570POPC   C4B66934  21.511  44.853   7.350
 8571POPC   NC366935  13.666  16.731   5.550
 8571POPC   PO466936  13.601  16.764   5.850
 8571POPC   GL166937  13.588  16.741   6.150
 8571POPC   GL266938  13.479  16.690   6.150
 8571POPC   C1A66939  13.642  16.699   6.450
 8571POPC   D2A66940  13.624  16.779   6.750
 8571POPC   C3A66941  13.610  16.774   7.050
 8571POPC   C4A66942  13.594  16.682   7.350
 8571POPC   C1B66943  13.356  16.735   6.450
 8571POPC   C2B66944  13.420  16.678   6.750
 8571POPC   C3B66945  13.395  16.713   7.050
 8571POPC   C4B66946  13.361  16.754   7.350
 8572POPC   NC366947  29.157  38.467   5.550
 8572POPC   PO466948  29.190  38.422   5.850
 8572POPC   GL166949  29.115  38.444   6.150
 8572POPC   GL266950  29.182  38.597   6.150
 8572POPC   C1A66951  29.127  38.409   6.450
 8572POPC   D2A66952  29.156  38.451   6.750
 8572POPC   C3A66953  29.137  38.462   7.050
 8572POPC   C4A66954  29.137  38.504   7.350
 8572POPC   C1B66955  29.161  38.659   6.450
 8572POPC   C2B66956  29.180  38.689   6.750
 8572POPC   C3B66957  29.189  38.669   7.050
 8572POPC   C4B66958  29.211  38.677   7.350
 8573POPC   NC366959  41.561   0.456   5.550
 8573POPC   PO466960  41.523   0.423   5.850
 8573POPC   GL166961  41.537   0.410   6.150
 8573POPC   GL266962  41.695   0.364   6.150
 8573POPC   C1A66963  41.519   0.419   6.450
 8573POPC   D2A66964  41.522   0.419   6.750
 8573POPC   C3A66965  41.527   0.419   7.050
 8573POPC   C4A66966  41.555   0.419   7.350
 8573POPC   C1B66967  41.810   0.368   6.450
 8573POPC   C2B66968  41.760   0.315   6.750
 8573POPC   C3B66969  41.824   0.273   7.050
 8573POPC   C4B66970  41.761   0.272   7.350
 8574POPC   NC366971  37.646   4.333   5.550
 8574POPC   PO466972  37.631   4.297   5.850
 8574POPC   GL166973  37.725   4.275   6.150
 8574POPC   GL266974  37.757   4.431   6.150
 8574POPC   C1A66975  37.653   4.360   6.450
 8574POPC   D2A66976  37.669   4.311   6.750
 8574POPC   C3A66977  37.637   4.338   7.050
 8574POPC   C4A66978  37.702   4.312   7.350
 8574POPC   C1B66979  37.753   4.575   6.450
 8574POPC   C2B66980  37.785   4.542   6.750
 8574POPC   C3B66981  37.795   4.560   7.050
 8574POPC   C4B66982  37.709   4.587   7.350
 8575POPC   NC366983  43.076  31.515   5.550
 8575POPC   PO466984  43.109  31.425   5.850
 8575POPC   GL166985  43.078  31.484   6.150
 8575POPC   GL266986  43.028  31.461   6.150
 8575POPC   C1A66987  43.079  31.449   6.450
 8575POPC   D2A66988  43.125  31.458   6.750
 8575POPC   C3A66989  43.144  31.487   7.050
 8575POPC   C4A66990  43.153  31.423   7.350
 8575POPC   C1B66991  42.859  31.493   6.450
 8575POPC   C2B66992  42.884  31.560   6.750
 8575POPC   C3B66993  42.876  31.502   7.050
 8575POPC   C4B66994  42.915  31.566   7.350
 8576POPC   NC366995  12.042  21.397   5.550
 8576POPC   PO466996  12.100  21.435   5.850
 8576POPC   GL166997  12.105  21.409   6.150
 8576POPC   GL266998  12.158  21.345   6.150
 8576POPC   C1A66999  12.061  21.435   6.450
 8576POPC   D2A67000  12.105  21.383   6.750
 8576POPC   C3A67001  12.038  21.410   7.050
 8576POPC   C4A67002  12.030  21.420   7.350
 8576POPC   C1B67003  12.318  21.347   6.450
 8576POPC   C2B67004  12.346  21.316   6.750
 8576POPC   C3B67005  12.268  21.308   7.050
 8576POPC   C4B67006  12.305  21.302   7.350
 8577POPC   NC367007  26.863  22.986   5.550
 8577POPC   PO467008  26.813  22.967   5.850
 8577POPC   GL167009  26.781  22.911   6.150
 8577POPC   GL267010  26.792  23.036   6.150
 8577POPC   C1A67011  26.836  22.959   6.450
 8577POPC   D2A67012  26.817  22.965   6.750
 8577POPC   C3A67013  26.848  22.984   7.050
 8577POPC   C4A67014  26.777  22.982   7.350
 8577POPC   C1B67015  26.765  23.158   6.450
 8577POPC   C2B67016  26.683  23.170   6.750
 8577POPC   C3B67017  26.752  23.183   7.050
 8577POPC   C4B67018  26.690  23.186   7.350
 8578POPC   NC367019   8.926   8.983   5.550
 8578POPC   PO467020   8.970   8.952   5.850
 8578POPC   GL167021   9.007   8.946   6.150
 8578POPC   GL267022   9.135   9.016   6.150
 8578POPC   C1A67023   9.015   9.001   6.450
 8578POPC   D2A67024   8.961   8.987   6.750
 8578POPC   C3A67025   8.940   8.995   7.050
 8578POPC   C4A67026   8.940   9.012   7.350
 8578POPC   C1B67027   9.187   8.953   6.450
 8578POPC   C2B67028   9.251   9.004   6.750
 8578POPC   C3B67029   9.199   9.019   7.050
 8578POPC   C4B67030   9.209   9.018   7.350
 8579POPC   NC367031  11.295   5.121   5.550
 8579POPC   PO467032  11.344   5.115   5.850
 8579POPC   GL167033  11.280   5.044   6.150
 8579POPC   GL267034  11.321   5.161   6.150
 8579POPC   C1A67035  11.272   5.104   6.450
 8579POPC   D2A67036  11.303   5.060   6.750
 8579POPC   C3A67037  11.291   5.057   7.050
 8579POPC   C4A67038  11.347   5.132   7.350
 8579POPC   C1B67039  11.395   5.330   6.450
 8579POPC   C2B67040  11.384   5.310   6.750
 8579POPC   C3B67041  11.455   5.270   7.050
 8579POPC   C4B67042  11.400   5.264   7.350
 8580POPC   NC367043  21.392  17.517   5.550
 8580POPC   PO467044  21.416  17.507   5.850
 8580POPC   GL167045  21.368  17.470   6.150
 8580POPC   GL267046  21.542  17.408   6.150
 8580POPC   C1A67047  21.337  17.469   6.450
 8580POPC   D2A67048  21.418  17.550   6.750
 8580POPC   C3A67049  21.432  17.533   7.050
 8580POPC   C4A67050  21.430  17.550   7.350
 8580POPC   C1B67051  21.628  17.452   6.450
 8580POPC   C2B67052  21.643  17.380   6.750
 8580POPC   C3B67053  21.657  17.370   7.050
 8580POPC   C4B67054  21.571  17.438   7.350
 8581POPC   NC367055  19.108   1.991   5.550
 8581POPC   PO467056  19.038   2.004   5.850
 8581POPC   GL167057  19.023   1.973   6.150
 8581POPC   GL267058  19.186   1.996   6.150
 8581POPC   C1A67059  19.067   2.033   6.450
 8581POPC   D2A67060  19.034   2.035   6.750
 8581POPC   C3A67061  19.064   2.010   7.050
 8581POPC   C4A67062  19.029   1.959   7.350
 8581POPC   C1B67063  19.285   2.068   6.450
 8581POPC   C2B67064  19.249   2.075   6.750
 8581POPC   C3B67065  19.301   2.048   7.050
 8581POPC   C4B67066  19.312   2.083   7.350
 8582POPC   NC367067  41.586  20.589   5.550
 8582POPC   PO467068  41.589  20.567   5.850
 8582POPC   GL167069  41.605  20.632   6.150
 8582POPC   GL267070  41.623  20.469   6.150
 8582POPC   C1A67071  41.547  20.604   6.450
 8582POPC   D2A67072  41.536  20.591   6.750
 8582POPC   C3A67073  41.525  20.565   7.050
 8582POPC   C4A67074  41.596  20.630   7.350
 8582POPC   C1B67075  41.708  20.406   6.450
 8582POPC   C2B67076  41.754  20.424   6.750
 8582POPC   C3B67077  41.682  20.451   7.050
 8582POPC   C4B67078  41.731  20.411   7.350
 8583POPC   NC367079  21.349  31.495   5.550
 8583POPC   PO467080  21.365  31.493   5.850
 8583POPC   GL167081  21.387  31.506   6.150
 8583POPC   GL267082  21.460  31.391   6.150
 8583POPC   C1A67083  21.428  31.514   6.450
 8583POPC   D2A67084  21.424  31.433   6.750
 8583POPC   C3A67085  21.421  31.450   7.050
 8583POPC   C4A67086  21.399  31.435   7.350
 8583POPC   C1B67087  21.528  31.231   6.450
 8583POPC   C2B67088  21.524  31.246   6.750
 8583POPC   C3B67089  21.541  31.270   7.050
 8583POPC   C4B67090  21.576  31.280   7.350
 8584POPC   NC367091  43.898  16.780   5.550
 8584POPC   PO467092  43.900  16.716   5.850
 8584POPC   GL167093  43.837  16.687   6.150
 8584POPC   GL267094  43.798  16.790   6.150
 8584POPC   C1A67095  43.869  16.716   6.450
 8584POPC   D2A67096  43.883  16.689   6.750
 8584POPC   C3A67097  43.913  16.687   7.050
 8584POPC   C4A67098  43.886  16.715   7.350
 8584POPC   C1B67099  43.699  16.797   6.450
 8584POPC   C2B67100  43.614  16.787   6.750
 8584POPC   C3B67101  43.654  16.792   7.050
 8584POPC   C4B67102  43.629  16.768   7.350
 8585POPC   NC367103  44.682   2.770   5.550
 8585POPC   PO467104  44.636   2.756   5.850
 8585POPC   GL167105  44.699   2.807   6.150
 8585POPC   GL267106  44.732   2.850   6.150
 8585POPC   C1A67107  44.695   2.780   6.450
 8585POPC   D2A67108  44.644   2.718   6.750
 8585POPC   C3A67109  44.691   2.749   7.050
 8585POPC   C4A67110  44.670   2.801   7.350
 8585POPC   C1B67111  44.790   3.011   6.450
 8585POPC   C2B67112  44.803   3.010   6.750
 8585POPC   C3B67113  44.744   3.016   7.050
 8585POPC   C4B67114  44.825   3.015   7.350
 8586POPC   NC367115   2.731  15.152   5.550
 8586POPC   PO467116   2.798  15.195   5.850
 8586POPC   GL167117   2.762  15.193   6.150
 8586POPC   GL267118   2.677  15.259   6.150
 8586POPC   C1A67119   2.731  15.220   6.450
 8586POPC   D2A67120   2.812  15.133   6.750
 8586POPC   C3A67121   2.769  15.137   7.050
 8586POPC   C4A67122   2.749  15.175   7.350
 8586POPC   C1B67123   2.541  15.339   6.450
 8586POPC   C2B67124   2.578  15.320   6.750
 8586POPC   C3B67125   2.548  15.341   7.050
 8586POPC   C4B67126   2.561  15.360   7.350
 8587POPC   NC367127  25.290  35.396   5.550
 8587POPC   PO467128  25.217  35.336   5.850
 8587POPC   GL167129  25.314  35.369   6.150
 8587POPC   GL267130  25.171  35.248   6.150
 8587POPC   C1A67131  25.289  35.380   6.450
 8587POPC   D2A67132  25.239  35.340   6.750
 8587POPC   C3A67133  25.227  35.355   7.050
 8587POPC   C4A67134  25.251  35.302   7.350
 8587POPC   C1B67135  25.198  35.094   6.450
 8587POPC   C2B67136  25.142  35.131   6.750
 8587POPC   C3B67137  25.212  35.099   7.050
 8587POPC   C4B67138  25.155  35.155   7.350
 8588POPC   NC367139  30.696   0.410   5.550
 8588POPC   PO467140  30.742   0.475   5.850
 8588POPC   GL167141  30.727   0.399   6.150
 8588POPC   GL267142  30.747   0.287   6.150
 8588POPC   C1A67143  30.689   0.405   6.450
 8588POPC   D2A67144  30.686   0.403   6.750
 8588POPC   C3A67145  30.711   0.434   7.050
 8588POPC   C4A67146  30.717   0.409   7.350
 8588POPC   C1B67147  30.853   0.266   6.450
 8588POPC   C2B67148  30.876   0.258   6.750
 8588POPC   C3B67149  30.798   0.271   7.050
 8588POPC   C4B67150  30.857   0.267   7.350
 8589POPC   NC367151   0.444  15.218   5.550
 8589POPC   PO467152   0.443  15.209   5.850
 8589POPC   GL167153   0.483  15.201   6.150
 8589POPC   GL267154   0.363  15.223   6.150
 8589POPC   C1A67155   0.457  15.220   6.450
 8589POPC   D2A67156   0.457  15.187   6.750
 8589POPC   C3A67157   0.472  15.222   7.050
 8589POPC   C4A67158   0.426  15.147   7.350
 8589POPC   C1B67159   0.251  15.358   6.450
 8589POPC   C2B67160   0.204  15.346   6.750
 8589POPC   C3B67161   0.273  15.296   7.050
 8589POPC   C4B67162   0.240  15.340   7.350
 8590POPC   NC367163  24.523  33.029   5.550
 8590POPC   PO467164  24.441  33.072   5.850
 8590POPC   GL167165  24.452  33.071   6.150
 8590POPC   GL267166  24.561  33.139   6.150
 8590POPC   C1A67167  24.504  33.019   6.450
 8590POPC   D2A67168  24.484  33.033   6.750
 8590POPC   C3A67169  24.532  33.027   7.050
 8590POPC   C4A67170  24.538  33.025   7.350
 8590POPC   C1B67171  24.512  33.226   6.450
 8590POPC   C2B67172  24.572  33.252   6.750
 8590POPC   C3B67173  24.561  33.279   7.050
 8590POPC   C4B67174  24.543  33.246   7.350
 8591POPC   NC367175  13.635  15.215   5.550
 8591POPC   PO467176  13.663  15.185   5.850
 8591POPC   GL167177  13.648  15.178   6.150
 8591POPC   GL267178  13.522  15.131   6.150
 8591POPC   C1A67179  13.582  15.157   6.450
 8591POPC   D2A67180  13.647  15.213   6.750
 8591POPC   C3A67181  13.677  15.199   7.050
 8591POPC   C4A67182  13.659  15.220   7.350
 8591POPC   C1B67183  13.362  15.187   6.450
 8591POPC   C2B67184  13.384  15.225   6.750
 8591POPC   C3B67185  13.424  15.200   7.050
 8591POPC   C4B67186  13.356  15.177   7.350
 8592POPC   NC367187  17.521  21.342   5.550
 8592POPC   PO467188  17.503  21.405   5.850
 8592POPC   GL167189  17.486  21.357   6.150
 8592POPC   GL267190  17.602  21.465   6.150
 8592POPC   C1A67191  17.536  21.378   6.450
 8592POPC   D2A67192  17.529  21.344   6.750
 8592POPC   C3A67193  17.542  21.354   7.050
 8592POPC   C4A67194  17.507  21.406   7.350
 8592POPC   C1B67195  17.705  21.559   6.450
 8592POPC   C2B67196  17.659  21.584   6.750
 8592POPC   C3B67197  17.651  21.600   7.050
 8592POPC   C4B67198  17.644  21.570   7.350
 8593POPC   NC367199  22.948   3.543   5.550
 8593POPC   PO467200  22.967   3.574   5.850
 8593POPC   GL167201  22.909   3.531   6.150
 8593POPC   GL267202  22.850   3.619   6.150
 8593POPC   C1A67203  22.954   3.521   6.450
 8593POPC   D2A67204  22.980   3.564   6.750
 8593POPC   C3A67205  22.941   3.506   7.050
 8593POPC   C4A67206  22.910   3.494   7.350
 8593POPC   C1B67207  22.727   3.643   6.450
 8593POPC   C2B67208  22.691   3.604   6.750
 8593POPC   C3B67209  22.741   3.692   7.050
 8593POPC   C4B67210  22.708   3.688   7.350
 8594POPC   NC367211  12.039  22.113   5.550
 8594POPC   PO467212  12.106  22.198   5.850
 8594POPC   GL167213  12.076  22.147   6.150
 8594POPC   GL267214  12.218  22.056   6.150
 8594POPC   C1A67215  12.111  22.183   6.450
 8594POPC   D2A67216  12.076  22.173   6.750
 8594POPC   C3A67217  12.086  22.131   7.050
 8594POPC   C4A67218  12.027  22.187   7.350
 8594POPC   C1B67219  12.310  22.039   6.450
 8594POPC   C2B67220  12.316  21.997   6.750
 8594POPC   C3B67221  12.324  22.079   7.050
 8594POPC   C4B67222  12.254  22.043   7.350
 8595POPC   NC367223  38.475  26.808   5.550
 8595POPC   PO467224  38.485  26.796   5.850
 8595POPC   GL167225  38.503  26.847   6.150
 8595POPC   GL267226  38.456  26.964   6.150
 8595POPC   C1A67227  38.435  26.812   6.450
 8595POPC   D2A67228  38.408  26.847   6.750
 8595POPC   C3A67229  38.416  26.804   7.050
 8595POPC   C4A67230  38.462  26.819   7.350
 8595POPC   C1B67231  38.372  27.036   6.450
 8595POPC   C2B67232  38.362  27.039   6.750
 8595POPC   C3B67233  38.405  27.078   7.050
 8595POPC   C4B67234  38.404  27.004   7.350
 8596POPC   NC367235  32.205  10.515   5.550
 8596POPC   PO467236  32.288  10.574   5.850
 8596POPC   GL167237  32.262  10.567   6.150
 8596POPC   GL267238  32.345  10.501   6.150
 8596POPC   C1A67239  32.220  10.549   6.450
 8596POPC   D2A67240  32.278  10.533   6.750
 8596POPC   C3A67241  32.296  10.488   7.050
 8596POPC   C4A67242  32.283  10.496   7.350
 8596POPC   C1B67243  32.455  10.419   6.450
 8596POPC   C2B67244  32.452  10.385   6.750
 8596POPC   C3B67245  32.452  10.342   7.050
 8596POPC   C4B67246  32.488  10.376   7.350
 8597POPC   NC367247  27.620  39.235   5.550
 8597POPC   PO467248  27.583  39.190   5.850
 8597POPC   GL167249  27.619  39.200   6.150
 8597POPC   GL267250  27.562  39.146   6.150
 8597POPC   C1A67251  27.571  39.276   6.450
 8597POPC   D2A67252  27.550  39.240   6.750
 8597POPC   C3A67253  27.571  39.271   7.050
 8597POPC   C4A67254  27.588  39.207   7.350
 8597POPC   C1B67255  27.516  38.986   6.450
 8597POPC   C2B67256  27.467  39.026   6.750
 8597POPC   C3B67257  27.503  38.962   7.050
 8597POPC   C4B67258  27.495  39.032   7.350
 8598POPC   NC367259  19.068  36.893   5.550
 8598POPC   PO467260  19.107  36.876   5.850
 8598POPC   GL167261  19.029  36.947   6.150
 8598POPC   GL267262  19.155  36.814   6.150
 8598POPC   C1A67263  19.045  36.922   6.450
 8598POPC   D2A67264  19.027  36.894   6.750
 8598POPC   C3A67265  19.024  36.950   7.050
 8598POPC   C4A67266  19.058  36.884   7.350
 8598POPC   C1B67267  19.214  36.752   6.450
 8598POPC   C2B67268  19.240  36.772   6.750
 8598POPC   C3B67269  19.235  36.781   7.050
 8598POPC   C4B67270  19.256  36.755   7.350
 8599POPC   NC367271  10.527   5.911   5.550
 8599POPC   PO467272  10.530   5.834   5.850
 8599POPC   GL167273  10.524   5.875   6.150
 8599POPC   GL267274  10.650   5.737   6.150
 8599POPC   C1A67275  10.571   5.903   6.450
 8599POPC   D2A67276  10.562   5.889   6.750
 8599POPC   C3A67277  10.486   5.857   7.050
 8599POPC   C4A67278  10.552   5.858   7.350
 8599POPC   C1B67279  10.761   5.703   6.450
 8599POPC   C2B67280  10.762   5.736   6.750
 8599POPC   C3B67281  10.665   5.754   7.050
 8599POPC   C4B67282  10.725   5.708   7.350
 8600POPC   NC367283   5.138  21.395   5.550
 8600POPC   PO467284   5.141  21.396   5.850
 8600POPC   GL167285   5.126  21.387   6.150
 8600POPC   GL267286   5.040  21.503   6.150
 8600POPC   C1A67287   5.113  21.387   6.450
 8600POPC   D2A67288   5.050  21.401   6.750
 8600POPC   C3A67289   5.085  21.389   7.050
 8600POPC   C4A67290   5.142  21.425   7.350
 8600POPC   C1B67291   5.036  21.631   6.450
 8600POPC   C2B67292   4.986  21.608   6.750
 8600POPC   C3B67293   5.027  21.611   7.050
 8600POPC   C4B67294   5.053  21.642   7.350
 8601POPC   NC367295  10.544  38.448   5.550
 8601POPC   PO467296  10.493  38.497   5.850
 8601POPC   GL167297  10.543  38.487   6.150
 8601POPC   GL267298  10.492  38.618   6.150
 8601POPC   C1A67299  10.527  38.426   6.450
 8601POPC   D2A67300  10.566  38.414   6.750
 8601POPC   C3A67301  10.480  38.468   7.050
 8601POPC   C4A67302  10.544  38.454   7.350
 8601POPC   C1B67303  10.390  38.715   6.450
 8601POPC   C2B67304  10.449  38.736   6.750
 8601POPC   C3B67305  10.465  38.725   7.050
 8601POPC   C4B67306  10.458  38.728   7.350
 8602POPC   NC367307  22.131  33.023   5.550
 8602POPC   PO467308  22.205  33.002   5.850
 8602POPC   GL167309  22.149  33.048   6.150
 8602POPC   GL267310  22.189  33.175   6.150
 8602POPC   C1A67311  22.195  33.060   6.450
 8602POPC   D2A67312  22.171  33.022   6.750
 8602POPC   C3A67313  22.171  33.052   7.050
 8602POPC   C4A67314  22.156  33.019   7.350
 8602POPC   C1B67315  22.286  33.270   6.450
 8602POPC   C2B67316  22.292  33.267   6.750
 8602POPC   C3B67317  22.266  33.190   7.050
 8602POPC   C4B67318  22.333  33.279   7.350
 8603POPC   NC367319   9.765  17.499   5.550
 8603POPC   PO467320   9.790  17.507   5.850
 8603POPC   GL167321   9.728  17.501   6.150
 8603POPC   GL267322   9.761  17.647   6.150
 8603POPC   C1A67323   9.701  17.510   6.450
 8603POPC   D2A67324   9.772  17.501   6.750
 8603POPC   C3A67325   9.765  17.518   7.050
 8603POPC   C4A67326   9.732  17.496   7.350
 8603POPC   C1B67327   9.811  17.790   6.450
 8603POPC   C2B67328   9.797  17.770   6.750
 8603POPC   C3B67329   9.830  17.794   7.050
 8603POPC   C4B67330   9.777  17.720   7.350
 8604POPC   NC367331  21.343   9.763   5.550
 8604POPC   PO467332  21.371   9.789   5.850
 8604POPC   GL167333  21.425   9.748   6.150
 8604POPC   GL267334  21.549   9.804   6.150
 8604POPC   C1A67335  21.365   9.795   6.450
 8604POPC   D2A67336  21.386   9.732   6.750
 8604POPC   C3A67337  21.362   9.757   7.050
 8604POPC   C4A67338  21.363   9.726   7.350
 8604POPC   C1B67339  21.659   9.806   6.450
 8604POPC   C2B67340  21.648   9.801   6.750
 8604POPC   C3B67341  21.638   9.853   7.050
 8604POPC   C4B67342  21.576   9.840   7.350
 8605POPC   NC367343   1.957  26.773   5.550
 8605POPC   PO467344   2.032  26.781   5.850
 8605POPC   GL167345   2.011  26.835   6.150
 8605POPC   GL267346   2.093  26.822   6.150
 8605POPC   C1A67347   1.964  26.837   6.450
 8605POPC   D2A67348   1.966  26.801   6.750
 8605POPC   C3A67349   2.006  26.791   7.050
 8605POPC   C4A67350   2.004  26.767   7.350
 8605POPC   C1B67351   2.191  26.744   6.450
 8605POPC   C2B67352   2.251  26.720   6.750
 8605POPC   C3B67353   2.210  26.789   7.050
 8605POPC   C4B67354   2.201  26.764   7.350
 8606POPC   NC367355  12.076  12.045   5.550
 8606POPC   PO467356  12.030  12.060   5.850
 8606POPC   GL167357  12.071  12.073   6.150
 8606POPC   GL267358  11.972  12.099   6.150
 8606POPC   C1A67359  12.105  12.029   6.450
 8606POPC   D2A67360  12.085  12.070   6.750
 8606POPC   C3A67361  12.093  12.091   7.050
 8606POPC   C4A67362  12.042  12.118   7.350
 8606POPC   C1B67363  11.869  12.008   6.450
 8606POPC   C2B67364  11.821  12.034   6.750
 8606POPC   C3B67365  11.813  12.020   7.050
 8606POPC   C4B67366  11.785  11.998   7.350
 8607POPC   NC367367  18.290  27.578   5.550
 8607POPC   PO467368  18.287  27.627   5.850
 8607POPC   GL167369  18.288  27.574   6.150
 8607POPC   GL267370  18.343  27.739   6.150
 8607POPC   C1A67371  18.320  27.620   6.450
 8607POPC   D2A67372  18.300  27.610   6.750
 8607POPC   C3A67373  18.311  27.629   7.050
 8607POPC   C4A67374  18.234  27.565   7.350
 8607POPC   C1B67375  18.392  27.833   6.450
 8607POPC   C2B67376  18.384  27.763   6.750
 8607POPC   C3B67377  18.385  27.804   7.050
 8607POPC   C4B67378  18.465  27.764   7.350
 8608POPC   NC367379  12.065  10.481   5.550
 8608POPC   PO467380  12.117  10.558   5.850
 8608POPC   GL167381  12.069  10.538   6.150
 8608POPC   GL267382  11.960  10.660   6.150
 8608POPC   C1A67383  12.058  10.525   6.450
 8608POPC   D2A67384  12.032  10.523   6.750
 8608POPC   C3A67385  12.107  10.535   7.050
 8608POPC   C4A67386  12.098  10.501   7.350
 8608POPC   C1B67387  11.896  10.714   6.450
 8608POPC   C2B67388  11.899  10.684   6.750
 8608POPC   C3B67389  11.852  10.685   7.050
 8608POPC   C4B67390  11.921  10.686   7.350
 8609POPC   NC367391  33.073  11.252   5.550
 8609POPC   PO467392  33.049  11.260   5.850
 8609POPC   GL167393  33.032  11.306   6.150
 8609POPC   GL267394  32.966  11.431   6.150
 8609POPC   C1A67395  33.040  11.269   6.450
 8609POPC   D2A67396  32.993  11.278   6.750
 8609POPC   C3A67397  33.023  11.305   7.050
 8609POPC   C4A67398  32.991  11.302   7.350
 8609POPC   C1B67399  32.860  11.483   6.450
 8609POPC   C2B67400  32.927  11.478   6.750
 8609POPC   C3B67401  32.839  11.525   7.050
 8609POPC   C4B67402  32.931  11.525   7.350
 8610POPC   NC367403  23.742  10.571   5.550
 8610POPC   PO467404  23.722  10.479   5.850
 8610POPC   GL167405  23.679  10.508   6.150
 8610POPC   GL267406  23.821  10.599   6.150
 8610POPC   C1A67407  23.737  10.486   6.450
 8610POPC   D2A67408  23.733  10.557   6.750
 8610POPC   C3A67409  23.743  10.553   7.050
 8610POPC   C4A67410  23.687  10.546   7.350
 8610POPC   C1B67411  23.890  10.734   6.450
 8610POPC   C2B67412  23.841  10.774   6.750
 8610POPC   C3B67413  23.858  10.743   7.050
 8610POPC   C4B67414  23.887  10.755   7.350
 8611POPC   NC367415  30.648   2.759   5.550
 8611POPC   PO467416  30.708   2.752   5.850
 8611POPC   GL167417  30.728   2.740   6.150
 8611POPC   GL267418  30.739   2.860   6.150
 8611POPC   C1A67419  30.694   2.801   6.450
 8611POPC   D2A67420  30.647   2.800   6.750
 8611POPC   C3A67421  30.710   2.731   7.050
 8611POPC   C4A67422  30.744   2.718   7.350
 8611POPC   C1B67423  30.698   2.993   6.450
 8611POPC   C2B67424  30.704   2.979   6.750
 8611POPC   C3B67425  30.706   3.008   7.050
 8611POPC   C4B67426  30.642   3.024   7.350
 8612POPC   NC367427  21.342  38.457   5.550
 8612POPC   PO467428  21.405  38.489   5.850
 8612POPC   GL167429  21.348  38.486   6.150
 8612POPC   GL267430  21.311  38.535   6.150
 8612POPC   C1A67431  21.339  38.505   6.450
 8612POPC   D2A67432  21.433  38.465   6.750
 8612POPC   C3A67433  21.423  38.475   7.050
 8612POPC   C4A67434  21.364  38.460   7.350
 8612POPC   C1B67435  21.157  38.561   6.450
 8612POPC   C2B67436  21.196  38.584   6.750
 8612POPC   C3B67437  21.148  38.563   7.050
 8612POPC   C4B67438  21.121  38.597   7.350
 8613POPC   NC367439  26.030  16.691   5.550
 8613POPC   PO467440  26.050  16.711   5.850
 8613POPC   GL167441  26.047  16.721   6.150
 8613POPC   GL267442  26.004  16.593   6.150
 8613POPC   C1A67443  25.995  16.728   6.450
 8613POPC   D2A67444  25.996  16.780   6.750
 8613POPC   C3A67445  26.031  16.735   7.050
 8613POPC   C4A67446  26.062  16.687   7.350
 8613POPC   C1B67447  25.957  16.492   6.450
 8613POPC   C2B67448  26.014  16.506   6.750
 8613POPC   C3B67449  25.945  16.475   7.050
 8613POPC   C4B67450  26.006  16.504   7.350
 8614POPC   NC367451  28.383  19.880   5.550
 8614POPC   PO467452  28.322  19.857   5.850
 8614POPC   GL167453  28.372  19.805   6.150
 8614POPC   GL267454  28.450  19.812   6.150
 8614POPC   C1A67455  28.350  19.818   6.450
 8614POPC   D2A67456  28.413  19.819   6.750
 8614POPC   C3A67457  28.405  19.881   7.050
 8614POPC   C4A67458  28.324  19.808   7.350
 8614POPC   C1B67459  28.644  19.855   6.450
 8614POPC   C2B67460  28.653  19.858   6.750
 8614POPC   C3B67461  28.579  19.861   7.050
 8614POPC   C4B67462  28.624  19.860   7.350
 8615POPC   NC367463  43.101  36.858   5.550
 8615POPC   PO467464  43.118  36.888   5.850
 8615POPC   GL167465  43.143  36.879   6.150
 8615POPC   GL267466  43.222  36.962   6.150
 8615POPC   C1A67467  43.069  36.933   6.450
 8615POPC   D2A67468  43.095  36.918   6.750
 8615POPC   C3A67469  43.067  36.873   7.050
 8615POPC   C4A67470  43.064  36.916   7.350
 8615POPC   C1B67471  43.310  37.092   6.450
 8615POPC   C2B67472  43.266  37.041   6.750
 8615POPC   C3B67473  43.274  37.045   7.050
 8615POPC   C4B67474  43.250  37.062   7.350
 8616POPC   NC367475  37.719   3.560   5.550
 8616POPC   PO467476  37.700   3.528   5.850
 8616POPC   GL167477  37.658   3.514   6.150
 8616POPC   GL267478  37.833   3.484   6.150
 8616POPC   C1A67479  37.690   3.517   6.450
 8616POPC   D2A67480  37.711   3.509   6.750
 8616POPC   C3A67481  37.636   3.519   7.050
 8616POPC   C4A67482  37.665   3.551   7.350
 8616POPC   C1B67483  37.916   3.469   6.450
 8616POPC   C2B67484  37.923   3.540   6.750
 8616POPC   C3B67485  37.886   3.477   7.050
 8616POPC   C4B67486  37.922   3.521   7.350
 8617POPC   NC367487  36.120  36.171   5.550
 8617POPC   PO467488  36.120  36.116   5.850
 8617POPC   GL167489  36.145  36.110   6.150
 8617POPC   GL267490  36.127  36.291   6.150
 8617POPC   C1A67491  36.111  36.172   6.450
 8617POPC   D2A67492  36.144  36.101   6.750
 8617POPC   C3A67493  36.131  36.111   7.050
 8617POPC   C4A67494  36.138  36.148   7.350
 8617POPC   C1B67495  36.063  36.387   6.450
 8617POPC   C2B67496  36.108  36.356   6.750
 8617POPC   C3B67497  36.099  36.364   7.050
 8617POPC   C4B67498  36.145  36.410   7.350
 8618POPC   NC367499  34.595  26.833   5.550
 8618POPC   PO467500  34.529  26.849   5.850
 8618POPC   GL167501  34.570  26.807   6.150
 8618POPC   GL267502  34.523  26.928   6.150
 8618POPC   C1A67503  34.597  26.842   6.450
 8618POPC   D2A67504  34.614  26.841   6.750
 8618POPC   C3A67505  34.533  26.806   7.050
 8618POPC   C4A67506  34.573  26.848   7.350
 8618POPC   C1B67507  34.473  27.024   6.450
 8618POPC   C2B67508  34.532  27.011   6.750
 8618POPC   C3B67509  34.555  27.090   7.050
 8618POPC   C4B67510  34.466  27.031   7.350
 8619POPC   NC367511  36.090  15.152   5.550
 8619POPC   PO467512  36.152  15.217   5.850
 8619POPC   GL167513  36.168  15.133   6.150
 8619POPC   GL267514  36.029  15.143   6.150
 8619POPC   C1A67515  36.163  15.167   6.450
 8619POPC   D2A67516  36.104  15.146   6.750
 8619POPC   C3A67517  36.162  15.219   7.050
 8619POPC   C4A67518  36.084  15.167   7.350
 8619POPC   C1B67519  35.928  15.169   6.450
 8619POPC   C2B67520  35.915  15.160   6.750
 8619POPC   C3B67521  35.927  15.138   7.050
 8619POPC   C4B67522  35.840  15.166   7.350
 8620POPC   NC367523  22.894   5.904   5.550
 8620POPC   PO467524  22.901   5.910   5.850
 8620POPC   GL167525  22.952   5.861   6.150
 8620POPC   GL267526  22.847   5.797   6.150
 8620POPC   C1A67527  22.913   5.898   6.450
 8620POPC   D2A67528  22.933   5.895   6.750
 8620POPC   C3A67529  22.921   5.845   7.050
 8620POPC   C4A67530  22.902   5.873   7.350
 8620POPC   C1B67531  22.788   5.658   6.450
 8620POPC   C2B67532  22.747   5.623   6.750
 8620POPC   C3B67533  22.790   5.646   7.050
 8620POPC   C4B67534  22.823   5.690   7.350
 8621POPC   NC367535   6.596  41.547   5.550
 8621POPC   PO467536   6.657  41.578   5.850
 8621POPC   GL167537   6.615  41.596   6.150
 8621POPC   GL267538   6.628  41.472   6.150
 8621POPC   C1A67539   6.637  41.512   6.450
 8621POPC   D2A67540   6.676  41.604   6.750
 8621POPC   C3A67541   6.621  41.566   7.050
 8621POPC   C4A67542   6.683  41.585   7.350
 8621POPC   C1B67543   6.724  41.343   6.450
 8621POPC   C2B67544   6.686  41.323   6.750
 8621POPC   C3B67545   6.703  41.279   7.050
 8621POPC   C4B67546   6.675  41.333   7.350
 8622POPC   NC367547   7.437  42.297   5.550
 8622POPC   PO467548   7.446  42.291   5.850
 8622POPC   GL167549   7.375  42.340   6.150
 8622POPC   GL267550   7.581  42.260   6.150
 8622POPC   C1A67551   7.413  42.302   6.450
 8622POPC   D2A67552   7.460  42.360   6.750
 8622POPC   C3A67553   7.381  42.289   7.050
 8622POPC   C4A67554   7.404  42.346   7.350
 8622POPC   C1B67555   7.647  42.193   6.450
 8622POPC   C2B67556   7.625  42.184   6.750
 8622POPC   C3B67557   7.672  42.265   7.050
 8622POPC   C4B67558   7.656  42.196   7.350
 8623POPC   NC367559  14.367   0.394   5.550
 8623POPC   PO467560  14.387   0.440   5.850
 8623POPC   GL167561  14.444   0.458   6.150
 8623POPC   GL267562  14.291   0.337   6.150
 8623POPC   C1A67563  14.429   0.413   6.450
 8623POPC   D2A67564  14.428   0.461   6.750
 8623POPC   C3A67565  14.407   0.455   7.050
 8623POPC   C4A67566  14.367   0.461   7.350
 8623POPC   C1B67567  14.145   0.340   6.450
 8623POPC   C2B67568  14.211   0.352   6.750
 8623POPC   C3B67569  14.141   0.372   7.050
 8623POPC   C4B67570  14.137   0.330   7.350
 8624POPC   NC367571  41.579  32.269   5.550
 8624POPC   PO467572  41.583  32.229   5.850
 8624POPC   GL167573  41.544  32.237   6.150
 8624POPC   GL267574  41.472  32.259   6.150
 8624POPC   C1A67575  41.580  32.253   6.450
 8624POPC   D2A67576  41.509  32.270   6.750
 8624POPC   C3A67577  41.608  32.262   7.050
 8624POPC   C4A67578  41.578  32.214   7.350
 8624POPC   C1B67579  41.276  32.183   6.450
 8624POPC   C2B67580  41.334  32.194   6.750
 8624POPC   C3B67581  41.309  32.217   7.050
 8624POPC   C4B67582  41.355  32.146   7.350
 8625POPC   NC367583  15.167  10.522   5.550
 8625POPC   PO467584  15.225  10.515   5.850
 8625POPC   GL167585  15.205  10.533   6.150
 8625POPC   GL267586  15.066  10.421   6.150
 8625POPC   C1A67587  15.158  10.518   6.450
 8625POPC   D2A67588  15.213  10.530   6.750
 8625POPC   C3A67589  15.169  10.484   7.050
 8625POPC   C4A67590  15.186  10.511   7.350
 8625POPC   C1B67591  15.014  10.438   6.450
 8625POPC   C2B67592  14.974  10.365   6.750
 8625POPC   C3B67593  14.932  10.352   7.050
 8625POPC   C4B67594  14.963  10.378   7.350
 8626POPC   NC367595  23.749  38.421   5.550
 8626POPC   PO467596  23.755  38.463   5.850
 8626POPC   GL167597  23.753  38.496   6.150
 8626POPC   GL267598  23.839  38.451   6.150
 8626POPC   C1A67599  23.761  38.407   6.450
 8626POPC   D2A67600  23.745  38.430   6.750
 8626POPC   C3A67601  23.741  38.478   7.050
 8626POPC   C4A67602  23.756  38.482   7.350
 8626POPC   C1B67603  23.926  38.536   6.450
 8626POPC   C2B67604  23.945  38.522   6.750
 8626POPC   C3B67605  23.954  38.509   7.050
 8626POPC   C4B67606  23.985  38.551   7.350
 8627POPC   NC367607   1.971   3.577   5.550
 8627POPC   PO467608   1.991   3.493   5.850
 8627POPC   GL167609   2.020   3.566   6.150
 8627POPC   GL267610   1.888   3.664   6.150
 8627POPC   C1A67611   2.003   3.498   6.450
 8627POPC   D2A67612   2.030   3.525   6.750
 8627POPC   C3A67613   2.030   3.562   7.050
 8627POPC   C4A67614   1.955   3.583   7.350
 8627POPC   C1B67615   1.853   3.698   6.450
 8627POPC   C2B67616   1.872   3.714   6.750
 8627POPC   C3B67617   1.803   3.736   7.050
 8627POPC   C4B67618   1.798   3.787   7.350
 8628POPC   NC367619  31.425  18.300   5.550
 8628POPC   PO467620  31.438  18.325   5.850
 8628POPC   GL167621  31.511  18.258   6.150
 8628POPC   GL267622  31.592  18.258   6.150
 8628POPC   C1A67623  31.517  18.247   6.450
 8628POPC   D2A67624  31.516  18.244   6.750
 8628POPC   C3A67625  31.501  18.280   7.050
 8628POPC   C4A67626  31.423  18.299   7.350
 8628POPC   C1B67627  31.746  18.308   6.450
 8628POPC   C2B67628  31.689  18.366   6.750
 8628POPC   C3B67629  31.753  18.310   7.050
 8628POPC   C4B67630  31.741  18.285   7.350
 8629POPC   NC367631  41.571   8.232   5.550
 8629POPC   PO467632  41.605   8.224   5.850
 8629POPC   GL167633  41.558   8.165   6.150
 8629POPC   GL267634  41.539   8.274   6.150
 8629POPC   C1A67635  41.529   8.153   6.450
 8629POPC   D2A67636  41.606   8.185   6.750
 8629POPC   C3A67637  41.568   8.162   7.050
 8629POPC   C4A67638  41.530   8.177   7.350
 8629POPC   C1B67639  41.419   8.411   6.450
 8629POPC   C2B67640  41.410   8.378   6.750
 8629POPC   C3B67641  41.454   8.364   7.050
 8629POPC   C4B67642  41.431   8.415   7.350
 8630POPC   NC367643   7.417  31.451   5.550
 8630POPC   PO467644   7.441  31.503   5.850
 8630POPC   GL167645   7.465  31.443   6.150
 8630POPC   GL267646   7.390  31.635   6.150
 8630POPC   C1A67647   7.462  31.440   6.450
 8630POPC   D2A67648   7.373  31.519   6.750
 8630POPC   C3A67649   7.416  31.486   7.050
 8630POPC   C4A67650   7.463  31.518   7.350
 8630POPC   C1B67651   7.327  31.743   6.450
 8630POPC   C2B67652   7.355  31.701   6.750
 8630POPC   C3B67653   7.362  31.755   7.050
 8630POPC   C4B67654   7.329  31.759   7.350
 8631POPC   NC367655  39.988   4.344   5.550
 8631POPC   PO467656  39.957   4.322   5.850
 8631POPC   GL167657  40.012   4.356   6.150
 8631POPC   GL267658  39.952   4.448   6.150
 8631POPC   C1A67659  39.986   4.295   6.450
 8631POPC   D2A67660  40.019   4.351   6.750
 8631POPC   C3A67661  39.959   4.321   7.050
 8631POPC   C4A67662  40.042   4.274   7.350
 8631POPC   C1B67663  39.862   4.455   6.450
 8631POPC   C2B67664  39.882   4.476   6.750
 8631POPC   C3B67665  39.794   4.547   7.050
 8631POPC   C4B67666  39.813   4.507   7.350
 8632POPC   NC367667  39.255  11.296   5.550
 8632POPC   PO467668  39.273  11.259   5.850
 8632POPC   GL167669  39.251  11.281   6.150
 8632POPC   GL267670  39.232  11.407   6.150
 8632POPC   C1A67671  39.268  11.266   6.450
 8632POPC   D2A67672  39.183  11.295   6.750
 8632POPC   C3A67673  39.255  11.264   7.050
 8632POPC   C4A67674  39.235  11.251   7.350
 8632POPC   C1B67675  39.353  11.555   6.450
 8632POPC   C2B67676  39.313  11.536   6.750
 8632POPC   C3B67677  39.289  11.514   7.050
 8632POPC   C4B67678  39.325  11.555   7.350
 8633POPC   NC367679  43.886  10.569   5.550
 8633POPC   PO467680  43.936  10.546   5.850
 8633POPC   GL167681  43.884  10.561   6.150
 8633POPC   GL267682  43.964  10.365   6.150
 8633POPC   C1A67683  43.855  10.533   6.450
 8633POPC   D2A67684  43.899  10.484   6.750
 8633POPC   C3A67685  43.926  10.566   7.050
 8633POPC   C4A67686  43.875  10.506   7.350
 8633POPC   C1B67687  43.950  10.317   6.450
 8633POPC   C2B67688  43.946  10.270   6.750
 8633POPC   C3B67689  44.007  10.303   7.050
 8633POPC   C4B67690  43.971  10.319   7.350
 8634POPC   NC367691   5.903  26.035   5.550
 8634POPC   PO467692   5.867  26.044   5.850
 8634POPC   GL167693   5.846  26.036   6.150
 8634POPC   GL267694   5.833  25.882   6.150
 8634POPC   C1A67695   5.831  26.024   6.450
 8634POPC   D2A67696   5.905  26.053   6.750
 8634POPC   C3A67697   5.838  26.038   7.050
 8634POPC   C4A67698   5.901  26.075   7.350
 8634POPC   C1B67699   5.809  25.841   6.450
 8634POPC   C2B67700   5.796  25.782   6.750
 8634POPC   C3B67701   5.737  25.788   7.050
 8634POPC   C4B67702   5.731  25.824   7.350
 8635POPC   NC367703   1.254  30.676   5.550
 8635POPC   PO467704   1.199  30.663   5.850
 8635POPC   GL167705   1.207  30.723   6.150
 8635POPC   GL267706   1.322  30.611   6.150
 8635POPC   C1A67707   1.238  30.731   6.450
 8635POPC   D2A67708   1.197  30.708   6.750
 8635POPC   C3A67709   1.213  30.726   7.050
 8635POPC   C4A67710   1.243  30.654   7.350
 8635POPC   C1B67711   1.385  30.546   6.450
 8635POPC   C2B67712   1.393  30.559   6.750
 8635POPC   C3B67713   1.422  30.480   7.050
 8635POPC   C4B67714   1.384  30.498   7.350
 8636POPC   NC367715  24.482   9.779   5.550
 8636POPC   PO467716  24.470   9.788   5.850
 8636POPC   GL167717  24.483   9.722   6.150
 8636POPC   GL267718  24.472   9.815   6.150
 8636POPC   C1A67719  24.494   9.744   6.450
 8636POPC   D2A67720  24.518   9.708   6.750
 8636POPC   C3A67721  24.493   9.794   7.050
 8636POPC   C4A67722  24.445   9.716   7.350
 8636POPC   C1B67723  24.404   9.942   6.450
 8636POPC   C2B67724  24.331   9.932   6.750
 8636POPC   C3B67725  24.352   9.967   7.050
 8636POPC   C4B67726  24.351  10.021   7.350
 8637POPC   NC367727   5.055   3.530   5.550
 8637POPC   PO467728   5.113   3.514   5.850
 8637POPC   GL167729   5.122   3.575   6.150
 8637POPC   GL267730   5.123   3.478   6.150
 8637POPC   C1A67731   5.078   3.517   6.450
 8637POPC   D2A67732   5.076   3.525   6.750
 8637POPC   C3A67733   5.135   3.492   7.050
 8637POPC   C4A67734   5.133   3.546   7.350
 8637POPC   C1B67735   5.268   3.346   6.450
 8637POPC   C2B67736   5.274   3.345   6.750
 8637POPC   C3B67737   5.234   3.286   7.050
 8637POPC   C4B67738   5.252   3.361   7.350
 8638POPC   NC367739   1.177  13.665   5.550
 8638POPC   PO467740   1.247  13.645   5.850
 8638POPC   GL167741   1.192  13.595   6.150
 8638POPC   GL267742   1.173  13.762   6.150
 8638POPC   C1A67743   1.185  13.609   6.450
 8638POPC   D2A67744   1.235  13.659   6.750
 8638POPC   C3A67745   1.185  13.615   7.050
 8638POPC   C4A67746   1.197  13.676   7.350
 8638POPC   C1B67747   1.092  13.856   6.450
 8638POPC   C2B67748   1.085  13.865   6.750
 8638POPC   C3B67749   1.110  13.864   7.050
 8638POPC   C4B67750   1.122  13.843   7.350
 8639POPC   NC367751  36.855  39.235   5.550
 8639POPC   PO467752  36.866  39.234   5.850
 8639POPC   GL167753  36.913  39.200   6.150
 8639POPC   GL267754  36.929  39.098   6.150
 8639POPC   C1A67755  36.918  39.188   6.450
 8639POPC   D2A67756  36.930  39.254   6.750
 8639POPC   C3A67757  36.927  39.238   7.050
 8639POPC   C4A67758  36.951  39.246   7.350
 8639POPC   C1B67759  37.044  39.010   6.450
 8639POPC   C2B67760  37.008  38.996   6.750
 8639POPC   C3B67761  37.017  38.988   7.050
 8639POPC   C4B67762  37.006  39.004   7.350
 8640POPC   NC367763  15.158  29.098   5.550
 8640POPC   PO467764  15.172  29.174   5.850
 8640POPC   GL167765  15.174  29.142   6.150
 8640POPC   GL267766  15.231  29.008   6.150
 8640POPC   C1A67767  15.183  29.109   6.450
 8640POPC   D2A67768  15.218  29.166   6.750
 8640POPC   C3A67769  15.163  29.174   7.050
 8640POPC   C4A67770  15.176  29.165   7.350
 8640POPC   C1B67771  15.259  28.891   6.450
 8640POPC   C2B67772  15.311  28.949   6.750
 8640POPC   C3B67773  15.238  28.894   7.050
 8640POPC   C4B67774  15.306  28.958   7.350
 8641POPC   NC367775  37.641  20.602   5.550
 8641POPC   PO467776  37.717  20.599   5.850
 8641POPC   GL167777  37.727  20.605   6.150
 8641POPC   GL267778  37.564  20.602   6.150
 8641POPC   C1A67779  37.658  20.576   6.450
 8641POPC   D2A67780  37.647  20.607   6.750
 8641POPC   C3A67781  37.729  20.589   7.050
 8641POPC   C4A67782  37.699  20.571   7.350
 8641POPC   C1B67783  37.392  20.598   6.450
 8641POPC   C2B67784  37.462  20.628   6.750
 8641POPC   C3B67785  37.458  20.670   7.050
 8641POPC   C4B67786  37.384  20.654   7.350
 8642POPC   NC367787  27.603   4.271   5.550
 8642POPC   PO467788  27.554   4.359   5.850
 8642POPC   GL167789  27.600   4.272   6.150
 8642POPC   GL267790  27.570   4.429   6.150
 8642POPC   C1A67791  27.617   4.274   6.450
 8642POPC   D2A67792  27.560   4.356   6.750
 8642POPC   C3A67793  27.593   4.268   7.050
 8642POPC   C4A67794  27.600   4.288   7.350
 8642POPC   C1B67795  27.470   4.508   6.450
 8642POPC   C2B67796  27.555   4.543   6.750
 8642POPC   C3B67797  27.469   4.567   7.050
 8642POPC   C4B67798  27.506   4.601   7.350
 8643POPC   NC367799   9.747  19.048   5.550
 8643POPC   PO467800   9.771  19.096   5.850
 8643POPC   GL167801   9.747  19.065   6.150
 8643POPC   GL267802   9.742  18.975   6.150
 8643POPC   C1A67803   9.793  19.052   6.450
 8643POPC   D2A67804   9.740  19.054   6.750
 8643POPC   C3A67805   9.703  19.036   7.050
 8643POPC   C4A67806   9.733  19.072   7.350
 8643POPC   C1B67807   9.674  18.847   6.450
 8643POPC   C2B67808   9.633  18.850   6.750
 8643POPC   C3B67809   9.623  18.848   7.050
 8643POPC   C4B67810   9.655  18.786   7.350
 8644POPC   NC367811  12.878  35.330   5.550
 8644POPC   PO467812  12.809  35.340   5.850
 8644POPC   GL167813  12.879  35.358   6.150
 8644POPC   GL267814  12.867  35.220   6.150
 8644POPC   C1A67815  12.897  35.376   6.450
 8644POPC   D2A67816  12.815  35.383   6.750
 8644POPC   C3A67817  12.822  35.302   7.050
 8644POPC   C4A67818  12.890  35.393   7.350
 8644POPC   C1B67819  12.833  35.138   6.450
 8644POPC   C2B67820  12.860  35.055   6.750
 8644POPC   C3B67821  12.929  35.055   7.050
 8644POPC   C4B67822  12.891  35.126   7.350
 8645POPC   NC367823  25.291  23.712   5.550
 8645POPC   PO467824  25.277  23.747   5.850
 8645POPC   GL167825  25.303  23.675   6.150
 8645POPC   GL267826  25.147  23.840   6.150
 8645POPC   C1A67827  25.295  23.758   6.450
 8645POPC   D2A67828  25.294  23.713   6.750
 8645POPC   C3A67829  25.223  23.729   7.050
 8645POPC   C4A67830  25.282  23.726   7.350
 8645POPC   C1B67831  25.081  23.888   6.450
 8645POPC   C2B67832  25.121  23.887   6.750
 8645POPC   C3B67833  25.127  23.906   7.050
 8645POPC   C4B67834  25.132  23.858   7.350
 8646POPC   NC367835  39.961  26.829   5.550
 8646POPC   PO467836  40.007  26.822   5.850
 8646POPC   GL167837  40.027  26.778   6.150
 8646POPC   GL267838  40.041  26.915   6.150
 8646POPC   C1A67839  40.054  26.772   6.450
 8646POPC   D2A67840  39.994  26.813   6.750
 8646POPC   C3A67841  40.037  26.812   7.050
 8646POPC   C4A67842  40.055  26.771   7.350
 8646POPC   C1B67843  40.028  27.042   6.450
 8646POPC   C2B67844  40.071  27.039   6.750
 8646POPC   C3B67845  40.107  27.020   7.050
 8646POPC   C4B67846  40.085  27.103   7.350
 8647POPC   NC367847  41.523  37.695   5.550
 8647POPC   PO467848  41.525  37.718   5.850
 8647POPC   GL167849  41.563  37.634   6.150
 8647POPC   GL267850  41.557  37.527   6.150
 8647POPC   C1A67851  41.583  37.644   6.450
 8647POPC   D2A67852  41.552  37.702   6.750
 8647POPC   C3A67853  41.532  37.706   7.050
 8647POPC   C4A67854  41.522  37.651   7.350
 8647POPC   C1B67855  41.515  37.482   6.450
 8647POPC   C2B67856  41.505  37.456   6.750
 8647POPC   C3B67857  41.507  37.462   7.050
 8647POPC   C4B67858  41.476  37.394   7.350
 8648POPC   NC367859   3.536  19.082   5.550
 8648POPC   PO467860   3.589  19.039   5.850
 8648POPC   GL167861   3.546  19.067   6.150
 8648POPC   GL267862   3.412  18.979   6.150
 8648POPC   C1A67863   3.503  19.022   6.450
 8648POPC   D2A67864   3.496  19.026   6.750
 8648POPC   C3A67865   3.538  19.017   7.050
 8648POPC   C4A67866   3.516  19.016   7.350
 8648POPC   C1B67867   3.404  18.910   6.450
 8648POPC   C2B67868   3.365  18.880   6.750
 8648POPC   C3B67869   3.361  18.855   7.050
 8648POPC   C4B67870   3.352  18.856   7.350
 8649POPC   NC367871  33.060  22.158   5.550
 8649POPC   PO467872  33.014  22.115   5.850
 8649POPC   GL167873  33.039  22.191   6.150
 8649POPC   GL267874  33.057  22.074   6.150
 8649POPC   C1A67875  33.048  22.209   6.450
 8649POPC   D2A67876  32.985  22.152   6.750
 8649POPC   C3A67877  33.046  22.115   7.050
 8649POPC   C4A67878  32.975  22.190   7.350
 8649POPC   C1B67879  33.132  21.950   6.450
 8649POPC   C2B67880  33.131  21.943   6.750
 8649POPC   C3B67881  33.123  21.933   7.050
 8649POPC   C4B67882  33.121  21.953   7.350
 8650POPC   NC367883   2.731  18.257   5.550
 8650POPC   PO467884   2.792  18.266   5.850
 8650POPC   GL167885   2.792  18.235   6.150
 8650POPC   GL267886   2.671  18.232   6.150
 8650POPC   C1A67887   2.776  18.289   6.450
 8650POPC   D2A67888   2.798  18.293   6.750
 8650POPC   C3A67889   2.766  18.242   7.050
 8650POPC   C4A67890   2.735  18.293   7.350
 8650POPC   C1B67891   2.629  18.107   6.450
 8650POPC   C2B67892   2.648  18.049   6.750
 8650POPC   C3B67893   2.604  18.058   7.050
 8650POPC   C4B67894   2.609  18.115   7.350
 8651POPC   NC367895  41.513  29.102   5.550
 8651POPC   PO467896  41.555  29.163   5.850
 8651POPC   GL167897  41.539  29.191   6.150
 8651POPC   GL267898  41.500  29.231   6.150
 8651POPC   C1A67899  41.609  29.194   6.450
 8651POPC   D2A67900  41.543  29.123   6.750
 8651POPC   C3A67901  41.563  29.132   7.050
 8651POPC   C4A67902  41.599  29.152   7.350
 8651POPC   C1B67903  41.546  29.373   6.450
 8651POPC   C2B67904  41.538  29.374   6.750
 8651POPC   C3B67905  41.534  29.403   7.050
 8651POPC   C4B67906  41.554  29.416   7.350
 8652POPC   NC367907  29.123  40.046   5.550
 8652POPC   PO467908  29.175  39.959   5.850
 8652POPC   GL167909  29.180  40.051   6.150
 8652POPC   GL267910  29.084  40.099   6.150
 8652POPC   C1A67911  29.140  40.015   6.450
 8652POPC   D2A67912  29.169  40.016   6.750
 8652POPC   C3A67913  29.155  40.049   7.050
 8652POPC   C4A67914  29.116  40.026   7.350
 8652POPC   C1B67915  28.911  40.112   6.450
 8652POPC   C2B67916  28.965  40.084   6.750
 8652POPC   C3B67917  28.946  40.094   7.050
 8652POPC   C4B67918  28.926  40.161   7.350
 8653POPC   NC367919  33.753  26.857   5.550
 8653POPC   PO467920  33.810  26.810   5.850
 8653POPC   GL167921  33.846  26.772   6.150
 8653POPC   GL267922  33.707  26.909   6.150
 8653POPC   C1A67923  33.808  26.806   6.450
 8653POPC   D2A67924  33.825  26.788   6.750
 8653POPC   C3A67925  33.785  26.791   7.050
 8653POPC   C4A67926  33.810  26.865   7.350
 8653POPC   C1B67927  33.699  27.069   6.450
 8653POPC   C2B67928  33.711  27.028   6.750
 8653POPC   C3B67929  33.657  27.011   7.050
 8653POPC   C4B67930  33.680  27.057   7.350
 8654POPC   NC367931   6.680  36.133   5.550
 8654POPC   PO467932   6.667  36.092   5.850
 8654POPC   GL167933   6.599  36.131   6.150
 8654POPC   GL267934   6.630  36.005   6.150
 8654POPC   C1A67935   6.616  36.095   6.450
 8654POPC   D2A67936   6.627  36.098   6.750
 8654POPC   C3A67937   6.620  36.166   7.050
 8654POPC   C4A67938   6.623  36.159   7.350
 8654POPC   C1B67939   6.555  35.858   6.450
 8654POPC   C2B67940   6.592  35.909   6.750
 8654POPC   C3B67941   6.573  35.899   7.050
 8654POPC   C4B67942   6.544  35.938   7.350
 8655POPC   NC367943  36.892  32.978   5.550
 8655POPC   PO467944  36.863  33.056   5.850
 8655POPC   GL167945  36.898  33.001   6.150
 8655POPC   GL267946  36.896  32.933   6.150
 8655POPC   C1A67947  36.946  32.975   6.450
 8655POPC   D2A67948  36.878  32.997   6.750
 8655POPC   C3A67949  36.893  33.072   7.050
 8655POPC   C4A67950  36.903  33.030   7.350
 8655POPC   C1B67951  36.764  32.786   6.450
 8655POPC   C2B67952  36.838  32.784   6.750
 8655POPC   C3B67953  36.784  32.757   7.050
 8655POPC   C4B67954  36.780  32.824   7.350
 8656POPC   NC367955  31.477  33.800   5.550
 8656POPC   PO467956  31.463  33.833   5.850
 8656POPC   GL167957  31.507  33.752   6.150
 8656POPC   GL267958  31.411  33.686   6.150
 8656POPC   C1A67959  31.505  33.789   6.450
 8656POPC   D2A67960  31.426  33.844   6.750
 8656POPC   C3A67961  31.514  33.770   7.050
 8656POPC   C4A67962  31.456  33.793   7.350
 8656POPC   C1B67963  31.430  33.606   6.450
 8656POPC   C2B67964  31.357  33.512   6.750
 8656POPC   C3B67965  31.412  33.576   7.050
 8656POPC   C4B67966  31.402  33.568   7.350
 8657POPC   NC367967  13.666   8.931   5.550
 8657POPC   PO467968  13.604   9.019   5.850
 8657POPC   GL167969  13.667   8.995   6.150
 8657POPC   GL267970  13.688   9.088   6.150
 8657POPC   C1A67971  13.608   8.948   6.450
 8657POPC   D2A67972  13.624   8.986   6.750
 8657POPC   C3A67973  13.580   8.932   7.050
 8657POPC   C4A67974  13.622   8.929   7.350
 8657POPC   C1B67975  13.753   9.169   6.450
 8657POPC   C2B67976  13.740   9.242   6.750
 8657POPC   C3B67977  13.754   9.230   7.050
 8657POPC   C4B67978  13.682   9.168   7.350
 8658POPC   NC367979   1.998  17.526   5.550
 8658POPC   PO467980   1.960  17.473   5.850
 8658POPC   GL167981   2.006  17.539   6.150
 8658POPC   GL267982   1.918  17.626   6.150
 8658POPC   C1A67983   1.994  17.511   6.450
 8658POPC   D2A67984   1.944  17.464   6.750
 8658POPC   C3A67985   2.009  17.537   7.050
 8658POPC   C4A67986   2.027  17.500   7.350
 8658POPC   C1B67987   1.800  17.697   6.450
 8658POPC   C2B67988   1.845  17.749   6.750
 8658POPC   C3B67989   1.874  17.661   7.050
 8658POPC   C4B67990   1.833  17.701   7.350
 8659POPC   NC367991  27.599  37.721   5.550
 8659POPC   PO467992  27.597  37.668   5.850
 8659POPC   GL167993  27.549  37.646   6.150
 8659POPC   GL267994  27.518  37.753   6.150
 8659POPC   C1A67995  27.592  37.662   6.450
 8659POPC   D2A67996  27.561  37.703   6.750
 8659POPC   C3A67997  27.576  37.660   7.050
 8659POPC   C4A67998  27.631  37.630   7.350
 8659POPC   C1B67999  27.357  37.827   6.450
 8659POPC   C2B68000  27.341  37.736   6.750
 8659POPC   C3B68001  27.350  37.781   7.050
 8659POPC   C4B68002  27.366  37.745   7.350
 8660POPC   NC368003  12.830   5.893   5.550
 8660POPC   PO468004  12.868   5.887   5.850
 8660POPC   GL168005  12.825   5.851   6.150
 8660POPC   GL268006  12.980   5.855   6.150
 8660POPC   C1A68007  12.839   5.843   6.450
 8660POPC   D2A68008  12.891   5.833   6.750
 8660POPC   C3A68009  12.900   5.843   7.050
 8660POPC   C4A68010  12.851   5.905   7.350
 8660POPC   C1B68011  13.101   5.758   6.450
 8660POPC   C2B68012  13.106   5.743   6.750
 8660POPC   C3B68013  13.059   5.801   7.050
 8660POPC   C4B68014  13.131   5.801   7.350
 8661POPC   NC368015   2.795  41.599   5.550
 8661POPC   PO468016   2.740  41.521   5.850
 8661POPC   GL168017   2.751  41.558   6.150
 8661POPC   GL268018   2.897  41.489   6.150
 8661POPC   C1A68019   2.776  41.523   6.450
 8661POPC   D2A68020   2.786  41.557   6.750
 8661POPC   C3A68021   2.727  41.549   7.050
 8661POPC   C4A68022   2.774  41.603   7.350
 8661POPC   C1B68023   3.045  41.491   6.450
 8661POPC   C2B68024   2.984  41.518   6.750
 8661POPC   C3B68025   3.046  41.523   7.050
 8661POPC   C4B68026   2.965  41.471   7.350
 8662POPC   NC368027   2.730  35.389   5.550
 8662POPC   PO468028   2.776  35.333   5.850
 8662POPC   GL168029   2.746  35.339   6.150
 8662POPC   GL268030   2.863  35.333   6.150
 8662POPC   C1A68031   2.786  35.330   6.450
 8662POPC   D2A68032   2.805  35.361   6.750
 8662POPC   C3A68033   2.807  35.395   7.050
 8662POPC   C4A68034   2.750  35.303   7.350
 8662POPC   C1B68035   3.025  35.345   6.450
 8662POPC   C2B68036   3.065  35.320   6.750
 8662POPC   C3B68037   2.993  35.375   7.050
 8662POPC   C4B68038   2.982  35.376   7.350
 8663POPC   NC368039   2.022  43.138   5.550
 8663POPC   PO468040   2.007  43.158   5.850
 8663POPC   GL168041   1.940  43.109   6.150
 8663POPC   GL268042   2.097  43.159   6.150
 8663POPC   C1A68043   1.972  43.155   6.450
 8663POPC   D2A68044   1.949  43.081   6.750
 8663POPC   C3A68045   1.997  43.088   7.050
 8663POPC   C4A68046   2.008  43.082   7.350
 8663POPC   C1B68047   2.213  43.126   6.450
 8663POPC   C2B68048   2.242  43.195   6.750
 8663POPC   C3B68049   2.252  43.159   7.050
 8663POPC   C4B68050   2.213  43.171   7.350
 8664POPC   NC368051   4.273  43.071   5.550
 8664POPC   PO468052   4.341  43.128   5.850
 8664POPC   GL168053   4.330  43.104   6.150
 8664POPC   GL268054   4.249  43.008   6.150
 8664POPC   C1A68055   4.292  43.137   6.450
 8664POPC   D2A68056   4.282  43.101   6.750
 8664POPC   C3A68057   4.304  43.072   7.050
 8664POPC   C4A68058   4.346  43.151   7.350
 8664POPC   C1B68059   4.233  42.852   6.450
 8664POPC   C2B68060   4.219  42.872   6.750
 8664POPC   C3B68061   4.186  42.906   7.050
 8664POPC   C4B68062   4.263  42.907   7.350
 8665POPC   NC368063  25.228   2.007   5.550
 8665POPC   PO468064  25.260   1.979   5.850
 8665POPC   GL168065  25.289   2.039   6.150
 8665POPC   GL268066  25.171   2.066   6.150
 8665POPC   C1A68067  25.224   2.027   6.450
 8665POPC   D2A68068  25.216   2.024   6.750
 8665POPC   C3A68069  25.303   1.993   7.050
 8665POPC   C4A68070  25.303   1.953   7.350
 8665POPC   C1B68071  25.056   2.205   6.450
 8665POPC   C2B68072  25.122   2.134   6.750
 8665POPC   C3B68073  25.063   2.183   7.050
 8665POPC   C4B68074  25.080   2.130   7.350
 8666POPC   NC368075  35.307   2.796   5.550
 8666POPC   PO468076  35.323   2.743   5.850
 8666POPC   GL168077  35.378   2.732   6.150
 8666POPC   GL268078  35.209   2.804   6.150
 8666POPC   C1A68079  35.398   2.805   6.450
 8666POPC   D2A68080  35.332   2.756   6.750
 8666POPC   C3A68081  35.394   2.796   7.050
 8666POPC   C4A68082  35.399   2.796   7.350
 8666POPC   C1B68083  35.123   2.918   6.450
 8666POPC   C2B68084  35.100   2.859   6.750
 8666POPC   C3B68085  35.110   2.897   7.050
 8666POPC   C4B68086  35.179   2.888   7.350
 8667POPC   NC368087  11.328  15.954   5.550
 8667POPC   PO468088  11.314  15.965   5.850
 8667POPC   GL168089  11.252  15.932   6.150
 8667POPC   GL268090  11.185  15.963   6.150
 8667POPC   C1A68091  11.309  15.996   6.450
 8667POPC   D2A68092  11.291  15.956   6.750
 8667POPC   C3A68093  11.325  15.937   7.050
 8667POPC   C4A68094  11.333  15.991   7.350
 8667POPC   C1B68095  11.040  16.067   6.450
 8667POPC   C2B68096  11.099  16.026   6.750
 8667POPC   C3B68097  11.066  16.036   7.050
 8667POPC   C4B68098  11.106  16.059   7.350
 8668POPC   NC368099   1.965  15.986   5.550
 8668POPC   PO468100   1.961  15.954   5.850
 8668POPC   GL168101   2.016  15.931   6.150
 8668POPC   GL268102   1.934  15.842   6.150
 8668POPC   C1A68103   1.976  15.908   6.450
 8668POPC   D2A68104   2.008  15.952   6.750
 8668POPC   C3A68105   1.971  15.972   7.050
 8668POPC   C4A68106   1.961  15.964   7.350
 8668POPC   C1B68107   1.970  15.700   6.450
 8668POPC   C2B68108   1.943  15.698   6.750
 8668POPC   C3B68109   1.910  15.674   7.050
 8668POPC   C4B68110   1.940  15.763   7.350
 8669POPC   NC368111  43.080  18.324   5.550
 8669POPC   PO468112  43.080  18.277   5.850
 8669POPC   GL168113  43.144  18.271   6.150
 8669POPC   GL268114  43.237  18.268   6.150
 8669POPC   C1A68115  43.156  18.250   6.450
 8669POPC   D2A68116  43.113  18.233   6.750
 8669POPC   C3A68117  43.156  18.326   7.050
 8669POPC   C4A68118  43.100  18.317   7.350
 8669POPC   C1B68119  43.356  18.139   6.450
 8669POPC   C2B68120  43.293  18.137   6.750
 8669POPC   C3B68121  43.341  18.179   7.050
 8669POPC   C4B68122  43.295  18.136   7.350
 8670POPC   NC368123   3.576  43.092   5.550
 8670POPC   PO468124   3.503  43.076   5.850
 8670POPC   GL168125   3.506  43.157   6.150
 8670POPC   GL268126   3.478  43.044   6.150
 8670POPC   C1A68127   3.570  43.122   6.450
 8670POPC   D2A68128   3.517  43.119   6.750
 8670POPC   C3A68129   3.516  43.111   7.050
 8670POPC   C4A68130   3.549  43.109   7.350
 8670POPC   C1B68131   3.384  42.947   6.450
 8670POPC   C2B68132   3.368  42.928   6.750
 8670POPC   C3B68133   3.449  42.882   7.050
 8670POPC   C4B68134   3.369  42.938   7.350
 8671POPC   NC368135  28.324  22.918   5.550
 8671POPC   PO468136  28.334  22.901   5.850
 8671POPC   GL168137  28.396  22.932   6.150
 8671POPC   GL268138  28.199  22.950   6.150
 8671POPC   C1A68139  28.371  22.896   6.450
 8671POPC   D2A68140  28.372  22.969   6.750
 8671POPC   C3A68141  28.386  22.920   7.050
 8671POPC   C4A68142  28.357  22.962   7.350
 8671POPC   C1B68143  28.104  22.873   6.450
 8671POPC   C2B68144  28.139  22.857   6.750
 8671POPC   C3B68145  28.122  22.917   7.050
 8671POPC   C4B68146  28.129  22.877   7.350
 8672POPC   NC368147  20.650  34.617   5.550
 8672POPC   PO468148  20.563  34.527   5.850
 8672POPC   GL168149  20.601  34.603   6.150
 8672POPC   GL268150  20.574  34.458   6.150
 8672POPC   C1A68151  20.638  34.563   6.450
 8672POPC   D2A68152  20.635  34.561   6.750
 8672POPC   C3A68153  20.602  34.610   7.050
 8672POPC   C4A68154  20.563  34.574   7.350
 8672POPC   C1B68155  20.465  34.398   6.450
 8672POPC   C2B68156  20.509  34.380   6.750
 8672POPC   C3B68157  20.450  34.378   7.050
 8672POPC   C4B68158  20.479  34.341   7.350
 8673POPC   NC368159   0.405   5.851   5.550
 8673POPC   PO468160   0.467   5.848   5.850
 8673POPC   GL168161   0.459   5.890   6.150
 8673POPC   GL268162   0.549   5.913   6.150
 8673POPC   C1A68163   0.433   5.886   6.450
 8673POPC   D2A68164   0.478   5.913   6.750
 8673POPC   C3A68165   0.404   5.854   7.050
 8673POPC   C4A68166   0.479   5.904   7.350
 8673POPC   C1B68167   0.632   5.933   6.450
 8673POPC   C2B68168   0.625   5.958   6.750
 8673POPC   C3B68169   0.710   6.010   7.050
 8673POPC   C4B68170   0.674   5.974   7.350
 8674POPC   NC368171  20.659  44.616   5.550
 8674POPC   PO468172  20.615  44.663   5.850
 8674POPC   GL168173  20.651  44.636   6.150
 8674POPC   GL268174  20.520  44.604   6.150
 8674POPC   C1A68175  20.604  44.650   6.450
 8674POPC   D2A68176  20.608  44.677   6.750
 8674POPC   C3A68177  20.655  44.665   7.050
 8674POPC   C4A68178  20.599  44.672   7.350
 8674POPC   C1B68179  20.432  44.444   6.450
 8674POPC   C2B68180  20.476  44.479   6.750
 8674POPC   C3B68181  20.467  44.487   7.050
 8674POPC   C4B68182  20.451  44.524   7.350
 8675POPC   NC368183  37.669  38.451   5.550
 8675POPC   PO468184  37.651  38.433   5.850
 8675POPC   GL168185  37.658  38.476   6.150
 8675POPC   GL268186  37.764  38.308   6.150
 8675POPC   C1A68187  37.638  38.482   6.450
 8675POPC   D2A68188  37.638  38.458   6.750
 8675POPC   C3A68189  37.706  38.492   7.050
 8675POPC   C4A68190  37.728  38.435   7.350
 8675POPC   C1B68191  37.869  38.248   6.450
 8675POPC   C2B68192  37.798  38.213   6.750
 8675POPC   C3B68193  37.834  38.252   7.050
 8675POPC   C4B68194  37.836  38.215   7.350
 8676POPC   NC368195  13.661  33.770   5.550
 8676POPC   PO468196  13.598  33.778   5.850
 8676POPC   GL168197  13.669  33.793   6.150
 8676POPC   GL268198  13.603  33.728   6.150
 8676POPC   C1A68199  13.675  33.844   6.450
 8676POPC   D2A68200  13.625  33.832   6.750
 8676POPC   C3A68201  13.662  33.825   7.050
 8676POPC   C4A68202  13.635  33.815   7.350
 8676POPC   C1B68203  13.560  33.611   6.450
 8676POPC   C2B68204  13.541  33.607   6.750
 8676POPC   C3B68205  13.524  33.561   7.050
 8676POPC   C4B68206  13.527  33.611   7.350
 8677POPC   NC368207  29.162  15.909   5.550
 8677POPC   PO468208  29.103  16.003   5.850
 8677POPC   GL168209  29.098  15.979   6.150
 8677POPC   GL268210  29.044  15.850   6.150
 8677POPC   C1A68211  29.123  15.979   6.450
 8677POPC   D2A68212  29.106  15.935   6.750
 8677POPC   C3A68213  29.168  15.962   7.050
 8677POPC   C4A68214  29.162  15.909   7.350
 8677POPC   C1B68215  28.961  15.780   6.450
 8677POPC   C2B68216  28.963  15.738   6.750
 8677POPC   C3B68217  28.995  15.772   7.050
 8677POPC   C4B68218  28.916  15.802   7.350
 8678POPC   NC368219   8.217  40.755   5.550
 8678POPC   PO468220   8.162  40.822   5.850
 8678POPC   GL168221   8.206  40.798   6.150
 8678POPC   GL268222   8.208  40.881   6.150
 8678POPC   C1A68223   8.206  40.788   6.450
 8678POPC   D2A68224   8.181  40.826   6.750
 8678POPC   C3A68225   8.201  40.827   7.050
 8678POPC   C4A68226   8.161  40.775   7.350
 8678POPC   C1B68227   8.331  40.964   6.450
 8678POPC   C2B68228   8.266  41.055   6.750
 8678POPC   C3B68229   8.340  40.980   7.050
 8678POPC   C4B68230   8.307  41.001   7.350
 8679POPC   NC368231  39.278  19.802   5.550
 8679POPC   PO468232  39.246  19.792   5.850
 8679POPC   GL168233  39.260  19.849   6.150
 8679POPC   GL268234  39.230  19.931   6.150
 8679POPC   C1A68235  39.242  19.878   6.450
 8679POPC   D2A68236  39.237  19.858   6.750
 8679POPC   C3A68237  39.234  19.882   7.050
 8679POPC   C4A68238  39.275  19.855   7.350
 8679POPC   C1B68239  39.211  20.111   6.450
 8679POPC   C2B68240  39.214  20.099   6.750
 8679POPC   C3B68241  39.277  20.077   7.050
 8679POPC   C4B68242  39.215  20.039   7.350
 8680POPC   NC368243  40.756  33.028   5.550
 8680POPC   PO468244  40.733  32.975   5.850
 8680POPC   GL168245  40.832  32.977   6.150
 8680POPC   GL268246  40.685  33.083   6.150
 8680POPC   C1A68247  40.767  32.993   6.450
 8680POPC   D2A68248  40.806  33.041   6.750
 8680POPC   C3A68249  40.756  33.033   7.050
 8680POPC   C4A68250  40.823  33.044   7.350
 8680POPC   C1B68251  40.560  33.057   6.450
 8680POPC   C2B68252  40.508  33.050   6.750
 8680POPC   C3B68253  40.500  33.045   7.050
 8680POPC   C4B68254  40.490  33.060   7.350
 8681POPC   NC368255  19.030  44.619   5.550
 8681POPC   PO468256  19.086  44.650   5.850
 8681POPC   GL168257  19.044  44.635   6.150
 8681POPC   GL268258  18.981  44.775   6.150
 8681POPC   C1A68259  19.012  44.641   6.450
 8681POPC   D2A68260  19.090  44.692   6.750
 8681POPC   C3A68261  19.109  44.646   7.050
 8681POPC   C4A68262  19.056  44.697   7.350
 8681POPC   C1B68263  18.964  44.914   6.450
 8681POPC   C2B68264  18.973  44.858   6.750
 8681POPC   C3B68265  18.982  44.859   7.050
 8681POPC   C4B68266  18.977  44.866   7.350
 8682POPC   NC368267   8.961  10.505   5.550
 8682POPC   PO468268   8.955  10.513   5.850
 8682POPC   GL168269   8.926  10.512   6.150
 8682POPC   GL268270   9.021  10.608   6.150
 8682POPC   C1A68271   8.965  10.551   6.450
 8682POPC   D2A68272   9.011  10.498   6.750
 8682POPC   C3A68273   8.938  10.502   7.050
 8682POPC   C4A68274   8.967  10.542   7.350
 8682POPC   C1B68275   9.083  10.713   6.450
 8682POPC   C2B68276   9.078  10.789   6.750
 8682POPC   C3B68277   9.078  10.715   7.050
 8682POPC   C4B68278   9.042  10.737   7.350
 8683POPC   NC368279  22.171  21.376   5.550
 8683POPC   PO468280  22.201  21.423   5.850
 8683POPC   GL168281  22.175  21.340   6.150
 8683POPC   GL268282  22.271  21.475   6.150
 8683POPC   C1A68283  22.185  21.408   6.450
 8683POPC   D2A68284  22.143  21.420   6.750
 8683POPC   C3A68285  22.190  21.406   7.050
 8683POPC   C4A68286  22.123  21.426   7.350
 8683POPC   C1B68287  22.325  21.538   6.450
 8683POPC   C2B68288  22.418  21.541   6.750
 8683POPC   C3B68289  22.381  21.488   7.050
 8683POPC   C4B68290  22.385  21.504   7.350
 8684POPC   NC368291  37.634  29.960   5.550
 8684POPC   PO468292  37.696  29.908   5.850
 8684POPC   GL168293  37.719  29.933   6.150
 8684POPC   GL268294  37.704  29.825   6.150
 8684POPC   C1A68295  37.663  29.912   6.450
 8684POPC   D2A68296  37.727  29.928   6.750
 8684POPC   C3A68297  37.723  29.961   7.050
 8684POPC   C4A68298  37.660  29.899   7.350
 8684POPC   C1B68299  37.743  29.709   6.450
 8684POPC   C2B68300  37.770  29.738   6.750
 8684POPC   C3B68301  37.817  29.683   7.050
 8684POPC   C4B68302  37.751  29.728   7.350
 8685POPC   NC368303  36.918  43.113   5.550
 8685POPC   PO468304  36.945  43.128   5.850
 8685POPC   GL168305  36.873  43.067   6.150
 8685POPC   GL268306  37.015  43.016   6.150
 8685POPC   C1A68307  36.855  43.130   6.450
 8685POPC   D2A68308  36.861  43.113   6.750
 8685POPC   C3A68309  36.884  43.088   7.050
 8685POPC   C4A68310  36.867  43.130   7.350
 8685POPC   C1B68311  37.076  42.907   6.450
 8685POPC   C2B68312  37.081  42.936   6.750
 8685POPC   C3B68313  37.029  42.859   7.050
 8685POPC   C4B68314  37.040  42.901   7.350
 8686POPC   NC368315   2.014   7.422   5.550
 8686POPC   PO468316   1.954   7.396   5.850
 8686POPC   GL168317   1.947   7.437   6.150
 8686POPC   GL268318   2.025   7.589   6.150
 8686POPC   C1A68319   1.977   7.455   6.450
 8686POPC   D2A68320   1.956   7.382   6.750
 8686POPC   C3A68321   1.955   7.410   7.050
 8686POPC   C4A68322   2.028   7.452   7.350
 8686POPC   C1B68323   1.982   7.647   6.450
 8686POPC   C2B68324   1.985   7.671   6.750
 8686POPC   C3B68325   1.975   7.680   7.050
 8686POPC   C4B68326   1.985   7.715   7.350
 8687POPC   NC368327  23.726  33.030   5.550
 8687POPC   PO468328  23.747  33.032   5.850
 8687POPC   GL168329  23.695  33.046   6.150
 8687POPC   GL268330  23.816  33.089   6.150
 8687POPC   C1A68331  23.690  33.023   6.450
 8687POPC   D2A68332  23.705  32.982   6.750
 8687POPC   C3A68333  23.728  33.013   7.050
 8687POPC   C4A68334  23.694  33.020   7.350
 8687POPC   C1B68335  23.888  33.216   6.450
 8687POPC   C2B68336  23.867  33.157   6.750
 8687POPC   C3B68337  23.922  33.129   7.050
 8687POPC   C4B68338  23.928  33.127   7.350
 8688POPC   NC368339  10.502  33.015   5.550
 8688POPC   PO468340  10.522  32.979   5.850
 8688POPC   GL168341  10.546  32.977   6.150
 8688POPC   GL268342  10.405  32.914   6.150
 8688POPC   C1A68343  10.536  33.050   6.450
 8688POPC   D2A68344  10.535  33.043   6.750
 8688POPC   C3A68345  10.549  33.037   7.050
 8688POPC   C4A68346  10.557  33.066   7.350
 8688POPC   C1B68347  10.365  32.851   6.450
 8688POPC   C2B68348  10.360  32.812   6.750
 8688POPC   C3B68349  10.324  32.832   7.050
 8688POPC   C4B68350  10.404  32.833   7.350
 8689POPC   NC368351   9.782   0.458   5.550
 8689POPC   PO468352   9.771   0.399   5.850
 8689POPC   GL168353   9.727   0.437   6.150
 8689POPC   GL268354   9.838   0.371   6.150
 8689POPC   C1A68355   9.705   0.426   6.450
 8689POPC   D2A68356   9.773   0.463   6.750
 8689POPC   C3A68357   9.770   0.403   7.050
 8689POPC   C4A68358   9.710   0.436   7.350
 8689POPC   C1B68359   9.956   0.292   6.450
 8689POPC   C2B68360   9.966   0.336   6.750
 8689POPC   C3B68361  10.001   0.310   7.050
 8689POPC   C4B68362   9.978   0.337   7.350
 8690POPC   NC368363  23.729   4.321   5.550
 8690POPC   PO468364  23.665   4.299   5.850
 8690POPC   GL168365  23.738   4.290   6.150
 8690POPC   GL268366  23.779   4.194   6.150
 8690POPC   C1A68367  23.699   4.306   6.450
 8690POPC   D2A68368  23.688   4.361   6.750
 8690POPC   C3A68369  23.742   4.339   7.050
 8690POPC   C4A68370  23.691   4.344   7.350
 8690POPC   C1B68371  23.811   4.052   6.450
 8690POPC   C2B68372  23.830   4.108   6.750
 8690POPC   C3B68373  23.786   4.089   7.050
 8690POPC   C4B68374  23.786   4.078   7.350
 8691POPC   NC368375  22.156   9.717   5.550
 8691POPC   PO468376  22.161   9.777   5.850
 8691POPC   GL168377  22.208   9.752   6.150
 8691POPC   GL268378  22.145   9.615   6.150
 8691POPC   C1A68379  22.148   9.727   6.450
 8691POPC   D2A68380  22.183   9.715   6.750
 8691POPC   C3A68381  22.208   9.770   7.050
 8691POPC   C4A68382  22.160   9.731   7.350
 8691POPC   C1B68383  22.023   9.544   6.450
 8691POPC   C2B68384  21.992   9.512   6.750
 8691POPC   C3B68385  22.014   9.516   7.050
 8691POPC   C4B68386  21.995   9.551   7.350
 8692POPC   NC368387  30.659   5.909   5.550
 8692POPC   PO468388  30.732   5.918   5.850
 8692POPC   GL168389  30.743   5.846   6.150
 8692POPC   GL268390  30.599   5.888   6.150
 8692POPC   C1A68391  30.652   5.837   6.450
 8692POPC   D2A68392  30.661   5.909   6.750
 8692POPC   C3A68393  30.726   5.856   7.050
 8692POPC   C4A68394  30.700   5.890   7.350
 8692POPC   C1B68395  30.420   5.927   6.450
 8692POPC   C2B68396  30.436   5.882   6.750
 8692POPC   C3B68397  30.428   5.887   7.050
 8692POPC   C4B68398  30.424   5.916   7.350
 8693POPC   NC368399   4.329  35.389   5.550
 8693POPC   PO468400   4.361  35.329   5.850
 8693POPC   GL168401   4.336  35.387   6.150
 8693POPC   GL268402   4.310  35.279   6.150
 8693POPC   C1A68403   4.272  35.393   6.450
 8693POPC   D2A68404   4.273  35.398   6.750
 8693POPC   C3A68405   4.327  35.321   7.050
 8693POPC   C4A68406   4.270  35.303   7.350
 8693POPC   C1B68407   4.409  35.093   6.450
 8693POPC   C2B68408   4.363  35.063   6.750
 8693POPC   C3B68409   4.382  35.116   7.050
 8693POPC   C4B68410   4.344  35.137   7.350
 8694POPC   NC368411  15.935  13.581   5.550
 8694POPC   PO468412  15.907  13.660   5.850
 8694POPC   GL168413  15.938  13.669   6.150
 8694POPC   GL268414  15.848  13.492   6.150
 8694POPC   C1A68415  16.005  13.606   6.450
 8694POPC   D2A68416  15.972  13.605   6.750
 8694POPC   C3A68417  15.977  13.583   7.050
 8694POPC   C4A68418  15.941  13.657   7.350
 8694POPC   C1B68419  15.782  13.380   6.450
 8694POPC   C2B68420  15.805  13.381   6.750
 8694POPC   C3B68421  15.849  13.457   7.050
 8694POPC   C4B68422  15.763  13.383   7.350
 8695POPC   NC368423   5.082  30.680   5.550
 8695POPC   PO468424   5.113  30.691   5.850
 8695POPC   GL168425   5.082  30.730   6.150
 8695POPC   GL268426   5.194  30.551   6.150
 8695POPC   C1A68427   5.072  30.653   6.450
 8695POPC   D2A68428   5.124  30.668   6.750
 8695POPC   C3A68429   5.102  30.736   7.050
 8695POPC   C4A68430   5.125  30.740   7.350
 8695POPC   C1B68431   5.229  30.519   6.450
 8695POPC   C2B68432   5.245  30.494   6.750
 8695POPC   C3B68433   5.177  30.505   7.050
 8695POPC   C4B68434   5.252  30.445   7.350
 8696POPC   NC368435  32.214  26.810   5.550
 8696POPC   PO468436  32.244  26.801   5.850
 8696POPC   GL168437  32.230  26.845   6.150
 8696POPC   GL268438  32.138  26.682   6.150
 8696POPC   C1A68439  32.279  26.830   6.450
 8696POPC   D2A68440  32.261  26.791   6.750
 8696POPC   C3A68441  32.228  26.841   7.050
 8696POPC   C4A68442  32.260  26.848   7.350
 8696POPC   C1B68443  32.126  26.630   6.450
 8696POPC   C2B68444  32.099  26.590   6.750
 8696POPC   C3B68445  32.083  26.592   7.050
 8696POPC   C4B68446  32.075  26.641   7.350
 8697POPC   NC368447  31.497  27.624   5.550
 8697POPC   PO468448  31.512  27.629   5.850
 8697POPC   GL168449  31.461  27.546   6.150
 8697POPC   GL268450  31.476  27.760   6.150
 8697POPC   C1A68451  31.501  27.553   6.450
 8697POPC   D2A68452  31.462  27.554   6.750
 8697POPC   C3A68453  31.434  27.543   7.050
 8697POPC   C4A68454  31.446  27.562   7.350
 8697POPC   C1B68455  31.408  27.853   6.450
 8697POPC   C2B68456  31.391  27.839   6.750
 8697POPC   C3B68457  31.406  27.831   7.050
 8697POPC   C4B68458  31.449  27.810   7.350
 8698POPC   NC368459  33.814  44.684   5.550
 8698POPC   PO468460  33.846  44.659   5.850
 8698POPC   GL168461  33.809  44.691   6.150
 8698POPC   GL268462  33.915  44.792   6.150
 8698POPC   C1A68463  33.788  44.636   6.450
 8698POPC   D2A68464  33.838  44.696   6.750
 8698POPC   C3A68465  33.777  44.635   7.050
 8698POPC   C4A68466  33.752  44.678   7.350
 8698POPC   C1B68467  33.976  44.783   6.450
 8698POPC   C2B68468  34.024  44.788   6.750
 8698POPC   C3B68469  33.934  44.800   7.050
 8698POPC   C4B68470  34.009  44.877   7.350
 8699POPC   NC368471  43.930  35.363   5.550
 8699POPC   PO468472  43.933  35.361   5.850
 8699POPC   GL168473  43.844  35.322   6.150
 8699POPC   GL268474  44.019  35.432   6.150
 8699POPC   C1A68475  43.890  35.343   6.450
 8699POPC   D2A68476  43.930  35.340   6.750
 8699POPC   C3A68477  43.921  35.348   7.050
 8699POPC   C4A68478  43.891  35.328   7.350
 8699POPC   C1B68479  44.174  35.386   6.450
 8699POPC   C2B68480  44.147  35.393   6.750
 8699POPC   C3B68481  44.138  35.405   7.050
 8699POPC   C4B68482  44.150  35.383   7.350
 8700POPC   NC368483  39.985  13.675   5.550
 8700POPC   PO468484  39.994  13.595   5.850
 8700POPC   GL168485  39.998  13.618   6.150
 8700POPC   GL268486  39.884  13.555   6.150
 8700POPC   C1A68487  40.029  13.647   6.450
 8700POPC   D2A68488  40.016  13.653   6.750
 8700POPC   C3A68489  40.015  13.617   7.050
 8700POPC   C4A68490  40.009  13.587   7.350
 8700POPC   C1B68491  39.821  13.436   6.450
 8700POPC   C2B68492  39.805  13.470   6.750
 8700POPC   C3B68493  39.846  13.453   7.050
 8700POPC   C4B68494  39.856  13.467   7.350
 8701POPC   NC368495   6.625  32.992   5.550
 8701POPC   PO468496   6.638  33.029   5.850
 8701POPC   GL168497   6.638  32.980   6.150
 8701POPC   GL268498   6.526  32.886   6.150
 8701POPC   C1A68499   6.614  32.998   6.450
 8701POPC   D2A68500   6.631  32.977   6.750
 8701POPC   C3A68501   6.613  33.024   7.050
 8701POPC   C4A68502   6.642  32.976   7.350
 8701POPC   C1B68503   6.469  32.812   6.450
 8701POPC   C2B68504   6.449  32.800   6.750
 8701POPC   C3B68505   6.462  32.853   7.050
 8701POPC   C4B68506   6.499  32.802   7.350
 8702POPC   NC368507  19.811  39.195   5.550
 8702POPC   PO468508  19.814  39.215   5.850
 8702POPC   GL168509  19.857  39.240   6.150
 8702POPC   GL268510  19.994  39.209   6.150
 8702POPC   C1A68511  19.829  39.194   6.450
 8702POPC   D2A68512  19.877  39.197   6.750
 8702POPC   C3A68513  19.792  39.204   7.050
 8702POPC   C4A68514  19.819  39.263   7.350
 8702POPC   C1B68515  20.075  39.090   6.450
 8702POPC   C2B68516  20.099  39.110   6.750
 8702POPC   C3B68517  20.022  39.109   7.050
 8702POPC   C4B68518  20.017  39.105   7.350
 8703POPC   NC368519   1.960  13.601   5.550
 8703POPC   PO468520   2.039  13.626   5.850
 8703POPC   GL168521   1.954  13.635   6.150
 8703POPC   GL268522   1.967  13.500   6.150
 8703POPC   C1A68523   2.031  13.588   6.450
 8703POPC   D2A68524   1.973  13.663   6.750
 8703POPC   C3A68525   2.039  13.625   7.050
 8703POPC   C4A68526   2.038  13.667   7.350
 8703POPC   C1B68527   1.902  13.391   6.450
 8703POPC   C2B68528   1.907  13.367   6.750
 8703POPC   C3B68529   1.913  13.407   7.050
 8703POPC   C4B68530   1.889  13.371   7.350
 8704POPC   NC368531  24.493  13.666   5.550
 8704POPC   PO468532  24.455  13.628   5.850
 8704POPC   GL168533  24.498  13.640   6.150
 8704POPC   GL268534  24.401  13.715   6.150
 8704POPC   C1A68535  24.489  13.614   6.450
 8704POPC   D2A68536  24.481  13.629   6.750
 8704POPC   C3A68537  24.521  13.588   7.050
 8704POPC   C4A68538  24.457  13.583   7.350
 8704POPC   C1B68539  24.383  13.902   6.450
 8704POPC   C2B68540  24.379  13.903   6.750
 8704POPC   C3B68541  24.412  13.904   7.050
 8704POPC   C4B68542  24.394  13.833   7.350
 8705POPC   NC368543   6.597   9.735   5.550
 8705POPC   PO468544   6.688   9.777   5.850
 8705POPC   GL168545   6.665   9.789   6.150
 8705POPC   GL268546   6.629   9.642   6.150
 8705POPC   C1A68547   6.644   9.741   6.450
 8705POPC   D2A68548   6.634   9.715   6.750
 8705POPC   C3A68549   6.683   9.709   7.050
 8705POPC   C4A68550   6.644   9.797   7.350
 8705POPC   C1B68551   6.612   9.464   6.450
 8705POPC   C2B68552   6.657   9.542   6.750
 8705POPC   C3B68553   6.612   9.493   7.050
 8705POPC   C4B68554   6.658   9.495   7.350
 8706POPC   NC368555  42.325  27.580   5.550
 8706POPC   PO468556  42.374  27.607   5.850
 8706POPC   GL168557  42.293  27.582   6.150
 8706POPC   GL268558  42.405  27.595   6.150
 8706POPC   C1A68559  42.287  27.579   6.450
 8706POPC   D2A68560  42.286  27.620   6.750
 8706POPC   C3A68561  42.370  27.588   7.050
 8706POPC   C4A68562  42.294  27.640   7.350
 8706POPC   C1B68563  42.611  27.526   6.450
 8706POPC   C2B68564  42.595  27.459   6.750
 8706POPC   C3B68565  42.580  27.472   7.050
 8706POPC   C4B68566  42.560  27.467   7.350
 8707POPC   NC368567   2.735  31.461   5.550
 8707POPC   PO468568   2.754  31.438   5.850
 8707POPC   GL168569   2.726  31.438   6.150
 8707POPC   GL268570   2.714  31.609   6.150
 8707POPC   C1A68571   2.732  31.438   6.450
 8707POPC   D2A68572   2.772  31.455   6.750
 8707POPC   C3A68573   2.777  31.506   7.050
 8707POPC   C4A68574   2.748  31.474   7.350
 8707POPC   C1B68575   2.620  31.668   6.450
 8707POPC   C2B68576   2.645  31.655   6.750
 8707POPC   C3B68577   2.660  31.651   7.050
 8707POPC   C4B68578   2.643  31.677   7.350
 8708POPC   NC368579  31.498  17.525   5.550
 8708POPC   PO468580  31.442  17.555   5.850
 8708POPC   GL168581  31.477  17.533   6.150
 8708POPC   GL268582  31.479  17.352   6.150
 8708POPC   C1A68583  31.424  17.480   6.450
 8708POPC   D2A68584  31.458  17.529   6.750
 8708POPC   C3A68585  31.522  17.499   7.050
 8708POPC   C4A68586  31.456  17.536   7.350
 8708POPC   C1B68587  31.547  17.278   6.450
 8708POPC   C2B68588  31.509  17.231   6.750
 8708POPC   C3B68589  31.529  17.247   7.050
 8708POPC   C4B68590  31.509  17.316   7.350
 8709POPC   NC368591   2.753   4.310   5.550
 8709POPC   PO468592   2.788   4.329   5.850
 8709POPC   GL168593   2.731   4.289   6.150
 8709POPC   GL268594   2.881   4.280   6.150
 8709POPC   C1A68595   2.802   4.359   6.450
 8709POPC   D2A68596   2.722   4.303   6.750
 8709POPC   C3A68597   2.811   4.306   7.050
 8709POPC   C4A68598   2.764   4.342   7.350
 8709POPC   C1B68599   2.996   4.204   6.450
 8709POPC   C2B68600   2.978   4.269   6.750
 8709POPC   C3B68601   3.030   4.276   7.050
 8709POPC   C4B68602   3.032   4.241   7.350
 8710POPC   NC368603  28.406  15.950   5.550
 8710POPC   PO468604  28.393  15.935   5.850
 8710POPC   GL168605  28.386  15.987   6.150
 8710POPC   GL268606  28.518  16.017   6.150
 8710POPC   C1A68607  28.418  15.998   6.450
 8710POPC   D2A68608  28.364  15.963   6.750
 8710POPC   C3A68609  28.412  15.963   7.050
 8710POPC   C4A68610  28.389  15.938   7.350
 8710POPC   C1B68611  28.569  16.108   6.450
 8710POPC   C2B68612  28.599  16.115   6.750
 8710POPC   C3B68613  28.575  16.123   7.050
 8710POPC   C4B68614  28.583  16.080   7.350
 8711POPC   NC368615  29.922   6.642   5.550
 8711POPC   PO468616  29.911   6.689   5.850
 8711POPC   GL168617  29.883   6.682   6.150
 8711POPC   GL268618  29.851   6.556   6.150
 8711POPC   C1A68619  29.965   6.683   6.450
 8711POPC   D2A68620  29.911   6.676   6.750
 8711POPC   C3A68621  29.937   6.672   7.050
 8711POPC   C4A68622  29.879   6.609   7.350
 8711POPC   C1B68623  29.833   6.373   6.450
 8711POPC   C2B68624  29.829   6.382   6.750
 8711POPC   C3B68625  29.775   6.445   7.050
 8711POPC   C4B68626  29.830   6.368   7.350
 8712POPC   NC368627  20.571   1.219   5.550
 8712POPC   PO468628  20.658   1.263   5.850
 8712POPC   GL168629  20.626   1.254   6.150
 8712POPC   GL268630  20.488   1.294   6.150
 8712POPC   C1A68631  20.599   1.246   6.450
 8712POPC   D2A68632  20.658   1.219   6.750
 8712POPC   C3A68633  20.627   1.199   7.050
 8712POPC   C4A68634  20.608   1.235   7.350
 8712POPC   C1B68635  20.379   1.355   6.450
 8712POPC   C2B68636  20.375   1.293   6.750
 8712POPC   C3B68637  20.354   1.308   7.050
 8712POPC   C4B68638  20.372   1.371   7.350
 8713POPC   NC368639   9.699   5.076   5.550
 8713POPC   PO468640   9.701   5.108   5.850
 8713POPC   GL168641   9.753   5.061   6.150
 8713POPC   GL268642   9.776   5.222   6.150
 8713POPC   C1A68643   9.766   5.082   6.450
 8713POPC   D2A68644   9.794   5.061   6.750
 8713POPC   C3A68645   9.777   5.099   7.050
 8713POPC   C4A68646   9.767   5.115   7.350
 8713POPC   C1B68647   9.849   5.355   6.450
 8713POPC   C2B68648   9.827   5.281   6.750
 8713POPC   C3B68649   9.812   5.344   7.050
 8713POPC   C4B68650   9.822   5.366   7.350
 8714POPC   NC368651   7.439  37.645   5.550
 8714POPC   PO468652   7.388  37.719   5.850
 8714POPC   GL168653   7.410  37.709   6.150
 8714POPC   GL268654   7.460  37.783   6.150
 8714POPC   C1A68655   7.405  37.636   6.450
 8714POPC   D2A68656   7.392  37.672   6.750
 8714POPC   C3A68657   7.456  37.706   7.050
 8714POPC   C4A68658   7.434  37.706   7.350
 8714POPC   C1B68659   7.451  37.924   6.450
 8714POPC   C2B68660   7.477  37.901   6.750
 8714POPC   C3B68661   7.400  37.917   7.050
 8714POPC   C4B68662   7.465  37.937   7.350
 8715POPC   NC368663  43.905  36.094   5.550
 8715POPC   PO468664  43.856  36.169   5.850
 8715POPC   GL168665  43.912  36.090   6.150
 8715POPC   GL268666  43.896  36.254   6.150
 8715POPC   C1A68667  43.934  36.110   6.450
 8715POPC   D2A68668  43.922  36.101   6.750
 8715POPC   C3A68669  43.893  36.080   7.050
 8715POPC   C4A68670  43.882  36.139   7.350
 8715POPC   C1B68671  44.018  36.358   6.450
 8715POPC   C2B68672  43.969  36.371   6.750
 8715POPC   C3B68673  43.949  36.383   7.050
 8715POPC   C4B68674  44.010  36.390   7.350
 8716POPC   NC368675  42.305   5.859   5.550
 8716POPC   PO468676  42.285   5.833   5.850
 8716POPC   GL168677  42.351   5.861   6.150
 8716POPC   GL268678  42.390   5.988   6.150
 8716POPC   C1A68679  42.334   5.910   6.450
 8716POPC   D2A68680  42.319   5.854   6.750
 8716POPC   C3A68681  42.305   5.838   7.050
 8716POPC   C4A68682  42.288   5.907   7.350
 8716POPC   C1B68683  42.482   6.049   6.450
 8716POPC   C2B68684  42.404   6.071   6.750
 8716POPC   C3B68685  42.489   6.071   7.050
 8716POPC   C4B68686  42.446   6.137   7.350
 8717POPC   NC368687  18.314   6.665   5.550
 8717POPC   PO468688  18.260   6.621   5.850
 8717POPC   GL168689  18.255   6.634   6.150
 8717POPC   GL268690  18.165   6.595   6.150
 8717POPC   C1A68691  18.258   6.692   6.450
 8717POPC   D2A68692  18.287   6.636   6.750
 8717POPC   C3A68693  18.261   6.608   7.050
 8717POPC   C4A68694  18.296   6.678   7.350
 8717POPC   C1B68695  18.061   6.589   6.450
 8717POPC   C2B68696  18.068   6.620   6.750
 8717POPC   C3B68697  18.032   6.553   7.050
 8717POPC   C4B68698  18.042   6.609   7.350
 8718POPC   NC368699  36.891  34.601   5.550
 8718POPC   PO468700  36.900  34.589   5.850
 8718POPC   GL168701  36.934  34.527   6.150
 8718POPC   GL268702  37.046  34.512   6.150
 8718POPC   C1A68703  36.944  34.541   6.450
 8718POPC   D2A68704  36.932  34.580   6.750
 8718POPC   C3A68705  36.917  34.566   7.050
 8718POPC   C4A68706  36.930  34.526   7.350
 8718POPC   C1B68707  37.082  34.440   6.450
 8718POPC   C2B68708  37.136  34.453   6.750
 8718POPC   C3B68709  37.107  34.454   7.050
 8718POPC   C4B68710  37.091  34.416   7.350
 8719POPC   NC368711  40.054  14.378   5.550
 8719POPC   PO468712  40.013  14.384   5.850
 8719POPC   GL168713  40.044  14.446   6.150
 8719POPC   GL268714  39.943  14.273   6.150
 8719POPC   C1A68715  39.971  14.393   6.450
 8719POPC   D2A68716  40.003  14.401   6.750
 8719POPC   C3A68717  40.053  14.369   7.050
 8719POPC   C4A68718  39.963  14.440   7.350
 8719POPC   C1B68719  39.793  14.245   6.450
 8719POPC   C2B68720  39.872  14.243   6.750
 8719POPC   C3B68721  39.832  14.259   7.050
 8719POPC   C4B68722  39.829  14.229   7.350
 8720POPC   NC368723   0.416  28.415   5.550
 8720POPC   PO468724   0.462  28.415   5.850
 8720POPC   GL168725   0.435  28.339   6.150
 8720POPC   GL268726   0.277  28.311   6.150
 8720POPC   C1A68727   0.390  28.386   6.450
 8720POPC   D2A68728   0.465  28.385   6.750
 8720POPC   C3A68729   0.470  28.331   7.050
 8720POPC   C4A68730   0.413  28.350   7.350
 8720POPC   C1B68731   0.238  28.256   6.450
 8720POPC   C2B68732   0.242  28.300   6.750
 8720POPC   C3B68733   0.232  28.270   7.050
 8720POPC   C4B68734   0.234  28.292   7.350
 8721POPC   NC368735  29.179  33.815   5.550
 8721POPC   PO468736  29.137  33.840   5.850
 8721POPC   GL168737  29.151  33.837   6.150
 8721POPC   GL268738  29.260  33.840   6.150
 8721POPC   C1A68739  29.130  33.815   6.450
 8721POPC   D2A68740  29.173  33.784   6.750
 8721POPC   C3A68741  29.160  33.845   7.050
 8721POPC   C4A68742  29.120  33.815   7.350
 8721POPC   C1B68743  29.321  33.917   6.450
 8721POPC   C2B68744  29.395  33.941   6.750
 8721POPC   C3B68745  29.403  33.949   7.050
 8721POPC   C4B68746  29.339  33.892   7.350
 8722POPC   NC368747  24.537  32.212   5.550
 8722POPC   PO468748  24.448  32.222   5.850
 8722POPC   GL168749  24.451  32.242   6.150
 8722POPC   GL268750  24.406  32.294   6.150
 8722POPC   C1A68751  24.465  32.262   6.450
 8722POPC   D2A68752  24.503  32.246   6.750
 8722POPC   C3A68753  24.538  32.247   7.050
 8722POPC   C4A68754  24.529  32.292   7.350
 8722POPC   C1B68755  24.275  32.321   6.450
 8722POPC   C2B68756  24.245  32.367   6.750
 8722POPC   C3B68757  24.245  32.329   7.050
 8722POPC   C4B68758  24.213  32.371   7.350
 8723POPC   NC368759   0.439  20.561   5.550
 8723POPC   PO468760   0.400  20.607   5.850
 8723POPC   GL168761   0.478  20.642   6.150
 8723POPC   GL268762   0.500  20.731   6.150
 8723POPC   C1A68763   0.482  20.631   6.450
 8723POPC   D2A68764   0.390  20.644   6.750
 8723POPC   C3A68765   0.420  20.645   7.050
 8723POPC   C4A68766   0.392  20.567   7.350
 8723POPC   C1B68767   0.593  20.784   6.450
 8723POPC   C2B68768   0.626  20.780   6.750
 8723POPC   C3B68769   0.598  20.758   7.050
 8723POPC   C4B68770   0.590  20.780   7.350
 8724POPC   NC368771  33.812  38.453   5.550
 8724POPC   PO468772  33.775  38.479   5.850
 8724POPC   GL168773  33.815  38.450   6.150
 8724POPC   GL268774  33.763  38.557   6.150
 8724POPC   C1A68775  33.771  38.432   6.450
 8724POPC   D2A68776  33.810  38.438   6.750
 8724POPC   C3A68777  33.797  38.433   7.050
 8724POPC   C4A68778  33.837  38.422   7.350
 8724POPC   C1B68779  33.846  38.727   6.450
 8724POPC   C2B68780  33.770  38.754   6.750
 8724POPC   C3B68781  33.781  38.683   7.050
 8724POPC   C4B68782  33.831  38.739   7.350
 8725POPC   NC368783  42.305  26.818   5.550
 8725POPC   PO468784  42.286  26.820   5.850
 8725POPC   GL168785  42.382  26.840   6.150
 8725POPC   GL268786  42.330  26.676   6.150
 8725POPC   C1A68787  42.384  26.856   6.450
 8725POPC   D2A68788  42.347  26.852   6.750
 8725POPC   C3A68789  42.354  26.799   7.050
 8725POPC   C4A68790  42.306  26.853   7.350
 8725POPC   C1B68791  42.319  26.548   6.450
 8725POPC   C2B68792  42.303  26.597   6.750
 8725POPC   C3B68793  42.301  26.575   7.050
 8725POPC   C4B68794  42.332  26.584   7.350
 8726POPC   NC368795  36.119  43.908   5.550
 8726POPC   PO468796  36.144  43.925   5.850
 8726POPC   GL168797  36.088  43.863   6.150
 8726POPC   GL268798  36.205  43.986   6.150
 8726POPC   C1A68799  36.159  43.839   6.450
 8726POPC   D2A68800  36.122  43.857   6.750
 8726POPC   C3A68801  36.092  43.866   7.050
 8726POPC   C4A68802  36.126  43.927   7.350
 8726POPC   C1B68803  36.273  44.077   6.450
 8726POPC   C2B68804  36.279  44.067   6.750
 8726POPC   C3B68805  36.345  44.049   7.050
 8726POPC   C4B68806  36.302  44.028   7.350
 8727POPC   NC368807  33.764   0.440   5.550
 8727POPC   PO468808  33.758   0.481   5.850
 8727POPC   GL168809  33.811   0.394   6.150
 8727POPC   GL268810  33.702   0.340   6.150
 8727POPC   C1A68811  33.797   0.431   6.450
 8727POPC   D2A68812  33.791   0.464   6.750
 8727POPC   C3A68813  33.756   0.484   7.050
 8727POPC   C4A68814  33.798   0.406   7.350
 8727POPC   C1B68815  33.665   0.219   6.450
 8727POPC   C2B68816  33.724   0.206   6.750
 8727POPC   C3B68817  33.710   0.211   7.050
 8727POPC   C4B68818  33.715   0.195   7.350
 8728POPC   NC368819  19.786  38.472   5.550
 8728POPC   PO468820  19.793  38.488   5.850
 8728POPC   GL168821  19.817  38.417   6.150
 8728POPC   GL268822  19.988  38.453   6.150
 8728POPC   C1A68823  19.828  38.449   6.450
 8728POPC   D2A68824  19.803  38.467   6.750
 8728POPC   C3A68825  19.820  38.423   7.050
 8728POPC   C4A68826  19.861  38.429   7.350
 8728POPC   C1B68827  20.090  38.390   6.450
 8728POPC   C2B68828  20.034  38.322   6.750
 8728POPC   C3B68829  20.034  38.381   7.050
 8728POPC   C4B68830  20.043  38.356   7.350
 8729POPC   NC368831  16.735  22.976   5.550
 8729POPC   PO468832  16.694  22.920   5.850
 8729POPC   GL168833  16.716  22.941   6.150
 8729POPC   GL268834  16.860  22.824   6.150
 8729POPC   C1A68835  16.714  22.968   6.450
 8729POPC   D2A68836  16.779  22.943   6.750
 8729POPC   C3A68837  16.691  22.981   7.050
 8729POPC   C4A68838  16.702  22.956   7.350
 8729POPC   C1B68839  16.915  22.748   6.450
 8729POPC   C2B68840  16.938  22.782   6.750
 8729POPC   C3B68841  16.884  22.780   7.050
 8729POPC   C4B68842  16.894  22.793   7.350
 8730POPC   NC368843   4.349   2.031   5.550
 8730POPC   PO468844   4.366   1.966   5.850
 8730POPC   GL168845   4.360   1.946   6.150
 8730POPC   GL268846   4.418   2.077   6.150
 8730POPC   C1A68847   4.299   1.988   6.450
 8730POPC   D2A68848   4.355   1.940   6.750
 8730POPC   C3A68849   4.338   1.992   7.050
 8730POPC   C4A68850   4.299   2.026   7.350
 8730POPC   C1B68851   4.561   2.068   6.450
 8730POPC   C2B68852   4.512   2.105   6.750
 8730POPC   C3B68853   4.540   2.108   7.050
 8730POPC   C4B68854   4.552   2.158   7.350
 8731POPC   NC368855  40.813  43.893   5.550
 8731POPC   PO468856  40.733  43.924   5.850
 8731POPC   GL168857  40.805  43.899   6.150
 8731POPC   GL268858  40.830  43.768   6.150
 8731POPC   C1A68859  40.793  43.896   6.450
 8731POPC   D2A68860  40.739  43.906   6.750
 8731POPC   C3A68861  40.767  43.849   7.050
 8731POPC   C4A68862  40.786  43.862   7.350
 8731POPC   C1B68863  40.970  43.754   6.450
 8731POPC   C2B68864  40.981  43.705   6.750
 8731POPC   C3B68865  40.976  43.767   7.050
 8731POPC   C4B68866  40.965  43.709   7.350
 8732POPC   NC368867  29.919   1.261   5.550
 8732POPC   PO468868  29.965   1.192   5.850
 8732POPC   GL168869  29.878   1.218   6.150
 8732POPC   GL268870  30.075   1.248   6.150
 8732POPC   C1A68871  29.935   1.254   6.450
 8732POPC   D2A68872  29.873   1.179   6.750
 8732POPC   C3A68873  29.935   1.181   7.050
 8732POPC   C4A68874  29.937   1.171   7.350
 8732POPC   C1B68875  30.139   1.212   6.450
 8732POPC   C2B68876  30.134   1.293   6.750
 8732POPC   C3B68877  30.193   1.205   7.050
 8732POPC   C4B68878  30.159   1.218   7.350
 8733POPC   NC368879   8.956  15.162   5.550
 8733POPC   PO468880   9.017  15.136   5.850
 8733POPC   GL168881   8.998  15.175   6.150
 8733POPC   GL268882   9.009  15.055   6.150
 8733POPC   C1A68883   9.018  15.158   6.450
 8733POPC   D2A68884   8.931  15.214   6.750
 8733POPC   C3A68885   9.016  15.228   7.050
 8733POPC   C4A68886   8.982  15.229   7.350
 8733POPC   C1B68887   9.041  14.917   6.450
 8733POPC   C2B68888   8.967  14.922   6.750
 8733POPC   C3B68889   8.987  14.944   7.050
 8733POPC   C4B68890   9.030  14.981   7.350
 8734POPC   NC368891  26.079  39.241   5.550
 8734POPC   PO468892  26.024  39.240   5.850
 8734POPC   GL168893  26.058  39.255   6.150
 8734POPC   GL268894  26.141  39.114   6.150
 8734POPC   C1A68895  26.021  39.206   6.450
 8734POPC   D2A68896  26.009  39.274   6.750
 8734POPC   C3A68897  26.033  39.273   7.050
 8734POPC   C4A68898  26.038  39.242   7.350
 8734POPC   C1B68899  26.137  39.052   6.450
 8734POPC   C2B68900  26.139  39.004   6.750
 8734POPC   C3B68901  26.133  38.961   7.050
 8734POPC   C4B68902  26.110  38.984   7.350
 8735POPC   NC368903  39.223  31.434   5.550
 8735POPC   PO468904  39.183  31.479   5.850
 8735POPC   GL168905  39.182  31.468   6.150
 8735POPC   GL268906  39.304  31.574   6.150
 8735POPC   C1A68907  39.222  31.441   6.450
 8735POPC   D2A68908  39.226  31.468   6.750
 8735POPC   C3A68909  39.204  31.460   7.050
 8735POPC   C4A68910  39.228  31.510   7.350
 8735POPC   C1B68911  39.307  31.726   6.450
 8735POPC   C2B68912  39.265  31.688   6.750
 8735POPC   C3B68913  39.315  31.694   7.050
 8735POPC   C4B68914  39.297  31.699   7.350
 8736POPC   NC368915  11.334  22.204   5.550
 8736POPC   PO468916  11.326  22.141   5.850
 8736POPC   GL168917  11.252  22.183   6.150
 8736POPC   GL268918  11.395  22.071   6.150
 8736POPC   C1A68919  11.350  22.182   6.450
 8736POPC   D2A68920  11.328  22.138   6.750
 8736POPC   C3A68921  11.272  22.141   7.050
 8736POPC   C4A68922  11.296  22.209   7.350
 8736POPC   C1B68923  11.525  22.007   6.450
 8736POPC   C2B68924  11.569  21.998   6.750
 8736POPC   C3B68925  11.541  22.039   7.050
 8736POPC   C4B68926  11.502  22.016   7.350
 8737POPC   NC368927  14.354  26.070   5.550
 8737POPC   PO468928  14.385  26.091   5.850
 8737POPC   GL168929  14.381  26.081   6.150
 8737POPC   GL268930  14.277  26.006   6.150
 8737POPC   C1A68931  14.429  26.010   6.450
 8737POPC   D2A68932  14.441  26.007   6.750
 8737POPC   C3A68933  14.422  26.036   7.050
 8737POPC   C4A68934  14.410  26.032   7.350
 8737POPC   C1B68935  14.131  25.927   6.450
 8737POPC   C2B68936  14.209  25.966   6.750
 8737POPC   C3B68937  14.177  25.993   7.050
 8737POPC   C4B68938  14.216  25.931   7.350
 8738POPC   NC368939   6.624  38.467   5.550
 8738POPC   PO468940   6.646  38.448   5.850
 8738POPC   GL168941   6.644  38.437   6.150
 8738POPC   GL268942   6.797  38.500   6.150
 8738POPC   C1A68943   6.612  38.468   6.450
 8738POPC   D2A68944   6.667  38.467   6.750
 8738POPC   C3A68945   6.620  38.499   7.050
 8738POPC   C4A68946   6.610  38.505   7.350
 8738POPC   C1B68947   6.927  38.516   6.450
 8738POPC   C2B68948   6.871  38.427   6.750
 8738POPC   C3B68949   6.879  38.441   7.050
 8738POPC   C4B68950   6.935  38.477   7.350
 8739POPC   NC368951  43.899   6.664   5.550
 8739POPC   PO468952  43.883   6.641   5.850
 8739POPC   GL168953  43.872   6.689   6.150
 8739POPC   GL268954  43.847   6.773   6.150
 8739POPC   C1A68955  43.856   6.613   6.450
 8739POPC   D2A68956  43.930   6.629   6.750
 8739POPC   C3A68957  43.859   6.692   7.050
 8739POPC   C4A68958  43.929   6.693   7.350
 8739POPC   C1B68959  43.836   6.831   6.450
 8739POPC   C2B68960  43.818   6.916   6.750
 8739POPC   C3B68961  43.831   6.844   7.050
 8739POPC   C4B68962  43.737   6.858   7.350
 8740POPC   NC368963  12.868   3.523   5.550
 8740POPC   PO468964  12.851   3.498   5.850
 8740POPC   GL168965  12.865   3.552   6.150
 8740POPC   GL268966  12.914   3.625   6.150
 8740POPC   C1A68967  12.818   3.534   6.450
 8740POPC   D2A68968  12.809   3.523   6.750
 8740POPC   C3A68969  12.855   3.501   7.050
 8740POPC   C4A68970  12.902   3.508   7.350
 8740POPC   C1B68971  12.935   3.795   6.450
 8740POPC   C2B68972  12.948   3.759   6.750
 8740POPC   C3B68973  12.947   3.813   7.050
 8740POPC   C4B68974  12.944   3.731   7.350
 8741POPC   NC368975  15.941   8.243   5.550
 8741POPC   PO468976  15.931   8.212   5.850
 8741POPC   GL168977  15.928   8.155   6.150
 8741POPC   GL268978  16.086   8.167   6.150
 8741POPC   C1A68979  15.945   8.159   6.450
 8741POPC   D2A68980  15.956   8.190   6.750
 8741POPC   C3A68981  15.968   8.204   7.050
 8741POPC   C4A68982  15.984   8.174   7.350
 8741POPC   C1B68983  16.118   8.059   6.450
 8741POPC   C2B68984  16.185   8.035   6.750
 8741POPC   C3B68985  16.174   8.059   7.050
 8741POPC   C4B68986  16.146   8.028   7.350
 8742POPC   NC368987  15.996  20.614   5.550
 8742POPC   PO468988  15.915  20.611   5.850
 8742POPC   GL168989  15.976  20.651   6.150
 8742POPC   GL268990  15.887  20.571   6.150
 8742POPC   C1A68991  15.912  20.578   6.450
 8742POPC   D2A68992  15.951  20.588   6.750
 8742POPC   C3A68993  15.914  20.644   7.050
 8742POPC   C4A68994  15.989  20.613   7.350
 8742POPC   C1B68995  15.695  20.534   6.450
 8742POPC   C2B68996  15.703  20.532   6.750
 8742POPC   C3B68997  15.765  20.470   7.050
 8742POPC   C4B68998  15.681  20.561   7.350
 8743POPC   NC368999  34.527  40.040   5.550
 8743POPC   PO469000  34.592  40.023   5.850
 8743POPC   GL169001  34.599  40.000   6.150
 8743POPC   GL269002  34.562  39.845   6.150
 8743POPC   C1A69003  34.594  40.016   6.450
 8743POPC   D2A69004  34.536  40.022   6.750
 8743POPC   C3A69005  34.579  40.035   7.050
 8743POPC   C4A69006  34.625  39.977   7.350
 8743POPC   C1B69007  34.619  39.757   6.450
 8743POPC   C2B69008  34.554  39.739   6.750
 8743POPC   C3B69009  34.581  39.803   7.050
 8743POPC   C4B69010  34.624  39.742   7.350
 8744POPC   NC369011  34.576  19.817   5.550
 8744POPC   PO469012  34.605  19.865   5.850
 8744POPC   GL169013  34.537  19.792   6.150
 8744POPC   GL269014  34.538  19.709   6.150
 8744POPC   C1A69015  34.552  19.844   6.450
 8744POPC   D2A69016  34.556  19.866   6.750
 8744POPC   C3A69017  34.565  19.851   7.050
 8744POPC   C4A69018  34.611  19.861   7.350
 8744POPC   C1B69019  34.490  19.572   6.450
 8744POPC   C2B69020  34.531  19.593   6.750
 8744POPC   C3B69021  34.530  19.637   7.050
 8744POPC   C4B69022  34.537  19.601   7.350
 8745POPC   NC369023  19.035  37.716   5.550
 8745POPC   PO469024  19.015  37.673   5.850
 8745POPC   GL169025  19.050  37.653   6.150
 8745POPC   GL269026  19.044  37.589   6.150
 8745POPC   C1A69027  19.010  37.703   6.450
 8745POPC   D2A69028  19.098  37.652   6.750
 8745POPC   C3A69029  19.082  37.716   7.050
 8745POPC   C4A69030  19.067  37.645   7.350
 8745POPC   C1B69031  19.045  37.438   6.450
 8745POPC   C2B69032  19.109  37.462   6.750
 8745POPC   C3B69033  19.038  37.417   7.050
 8745POPC   C4B69034  19.057  37.432   7.350
 8746POPC   NC369035  39.214  22.965   5.550
 8746POPC   PO469036  39.255  22.901   5.850
 8746POPC   GL169037  39.189  22.953   6.150
 8746POPC   GL269038  39.307  23.003   6.150
 8746POPC   C1A69039  39.189  22.899   6.450
 8746POPC   D2A69040  39.238  22.981   6.750
 8746POPC   C3A69041  39.228  22.922   7.050
 8746POPC   C4A69042  39.248  22.903   7.350
 8746POPC   C1B69043  39.313  23.140   6.450
 8746POPC   C2B69044  39.361  23.118   6.750
 8746POPC   C3B69045  39.332  23.199   7.050
 8746POPC   C4B69046  39.352  23.198   7.350
 8747POPC   NC369047  29.873  43.084   5.550
 8747POPC   PO469048  29.947  43.087   5.850
 8747POPC   GL169049  29.948  43.119   6.150
 8747POPC   GL269050  29.910  43.265   6.150
 8747POPC   C1A69051  29.911  43.159   6.450
 8747POPC   D2A69052  29.932  43.102   6.750
 8747POPC   C3A69053  29.918  43.063   7.050
 8747POPC   C4A69054  29.970  43.085   7.350
 8747POPC   C1B69055  29.884  43.380   6.450
 8747POPC   C2B69056  29.867  43.399   6.750
 8747POPC   C3B69057  29.901  43.334   7.050
 8747POPC   C4B69058  29.875  43.335   7.350
 8748POPC   NC369059  19.039   1.202   5.550
 8748POPC   PO469060  19.039   1.219   5.850
 8748POPC   GL169061  19.045   1.239   6.150
 8748POPC   GL269062  19.014   1.325   6.150
 8748POPC   C1A69063  19.081   1.202   6.450
 8748POPC   D2A69064  19.063   1.216   6.750
 8748POPC   C3A69065  19.016   1.239   7.050
 8748POPC   C4A69066  19.019   1.223   7.350
 8748POPC   C1B69067  18.833   1.421   6.450
 8748POPC   C2B69068  18.868   1.359   6.750
 8748POPC   C3B69069  18.846   1.371   7.050
 8748POPC   C4B69070  18.916   1.423   7.350
 8749POPC   NC369071  40.016  15.148   5.550
 8749POPC   PO469072  40.004  15.158   5.850
 8749POPC   GL169073  40.041  15.134   6.150
 8749POPC   GL269074  39.977  15.267   6.150
 8749POPC   C1A69075  40.029  15.193   6.450
 8749POPC   D2A69076  40.001  15.192   6.750
 8749POPC   C3A69077  39.962  15.177   7.050
 8749POPC   C4A69078  40.032  15.211   7.350
 8749POPC   C1B69079  39.918  15.404   6.450
 8749POPC   C2B69080  39.938  15.416   6.750
 8749POPC   C3B69081  39.889  15.419   7.050
 8749POPC   C4B69082  39.955  15.382   7.350
 8750POPC   NC369083  40.816  36.866   5.550
 8750POPC   PO469084  40.816  36.928   5.850
 8750POPC   GL169085  40.771  36.871   6.150
 8750POPC   GL269086  40.777  37.070   6.150
 8750POPC   C1A69087  40.812  36.890   6.450
 8750POPC   D2A69088  40.765  36.856   6.750
 8750POPC   C3A69089  40.734  36.865   7.050
 8750POPC   C4A69090  40.765  36.896   7.350
 8750POPC   C1B69091  40.790  37.170   6.450
 8750POPC   C2B69092  40.756  37.173   6.750
 8750POPC   C3B69093  40.776  37.119   7.050
 8750POPC   C4B69094  40.769  37.198   7.350
 8751POPC   NC369095  33.797  30.661   5.550
 8751POPC   PO469096  33.750  30.683   5.850
 8751POPC   GL169097  33.788  30.666   6.150
 8751POPC   GL269098  33.676  30.712   6.150
 8751POPC   C1A69099  33.771  30.673   6.450
 8751POPC   D2A69100  33.758  30.708   6.750
 8751POPC   C3A69101  33.821  30.736   7.050
 8751POPC   C4A69102  33.804  30.688   7.350
 8751POPC   C1B69103  33.608  30.823   6.450
 8751POPC   C2B69104  33.534  30.776   6.750
 8751POPC   C3B69105  33.540  30.749   7.050
 8751POPC   C4B69106  33.566  30.765   7.350
 8752POPC   NC369107   9.734  41.548   5.550
 8752POPC   PO469108   9.753  41.540   5.850
 8752POPC   GL169109   9.741  41.548   6.150
 8752POPC   GL269110   9.689  41.398   6.150
 8752POPC   C1A69111   9.741  41.581   6.450
 8752POPC   D2A69112   9.731  41.583   6.750
 8752POPC   C3A69113   9.754  41.517   7.050
 8752POPC   C4A69114   9.776  41.588   7.350
 8752POPC   C1B69115   9.716  41.299   6.450
 8752POPC   C2B69116   9.734  41.270   6.750
 8752POPC   C3B69117   9.704  41.304   7.050
 8752POPC   C4B69118   9.659  41.285   7.350
 8753POPC   NC369119   1.194  22.976   5.550
 8753POPC   PO469120   1.222  22.954   5.850
 8753POPC   GL169121   1.217  22.958   6.150
 8753POPC   GL269122   1.282  22.961   6.150
 8753POPC   C1A69123   1.216  22.907   6.450
 8753POPC   D2A69124   1.199  22.961   6.750
 8753POPC   C3A69125   1.194  22.949   7.050
 8753POPC   C4A69126   1.168  22.940   7.350
 8753POPC   C1B69127   1.427  23.099   6.450
 8753POPC   C2B69128   1.453  23.107   6.750
 8753POPC   C3B69129   1.379  23.115   7.050
 8753POPC   C4B69130   1.430  23.047   7.350
 8754POPC   NC369131   8.992  21.353   5.550
 8754POPC   PO469132   8.928  21.426   5.850
 8754POPC   GL169133   8.964  21.368   6.150
 8754POPC   GL269134   8.952  21.505   6.150
 8754POPC   C1A69135   9.016  21.340   6.450
 8754POPC   D2A69136   8.992  21.353   6.750
 8754POPC   C3A69137   8.928  21.376   7.050
 8754POPC   C4A69138   8.933  21.428   7.350
 8754POPC   C1B69139   8.879  21.670   6.450
 8754POPC   C2B69140   8.908  21.627   6.750
 8754POPC   C3B69141   8.904  21.589   7.050
 8754POPC   C4B69142   8.896  21.612   7.350
 8755POPC   NC369143  19.049  17.486   5.550
 8755POPC   PO469144  19.103  17.472   5.850
 8755POPC   GL169145  19.056  17.459   6.150
 8755POPC   GL269146  18.962  17.453   6.150
 8755POPC   C1A69147  19.057  17.518   6.450
 8755POPC   D2A69148  19.098  17.463   6.750
 8755POPC   C3A69149  19.023  17.460   7.050
 8755POPC   C4A69150  19.091  17.510   7.350
 8755POPC   C1B69151  18.810  17.363   6.450
 8755POPC   C2B69152  18.800  17.392   6.750
 8755POPC   C3B69153  18.863  17.444   7.050
 8755POPC   C4B69154  18.804  17.409   7.350
 8756POPC   NC369155  27.602  22.903   5.550
 8756POPC   PO469156  27.576  22.905   5.850
 8756POPC   GL169157  27.559  22.969   6.150
 8756POPC   GL269158  27.434  22.934   6.150
 8756POPC   C1A69159  27.552  22.983   6.450
 8756POPC   D2A69160  27.616  22.959   6.750
 8756POPC   C3A69161  27.619  22.956   7.050
 8756POPC   C4A69162  27.613  22.965   7.350
 8756POPC   C1B69163  27.377  22.882   6.450
 8756POPC   C2B69164  27.367  22.875   6.750
 8756POPC   C3B69165  27.388  22.861   7.050
 8756POPC   C4B69166  27.375  22.850   7.350
 8757POPC   NC369167  11.292  38.478   5.550
 8757POPC   PO469168  11.307  38.493   5.850
 8757POPC   GL169169  11.269  38.466   6.150
 8757POPC   GL269170  11.244  38.518   6.150
 8757POPC   C1A69171  11.332  38.484   6.450
 8757POPC   D2A69172  11.314  38.406   6.750
 8757POPC   C3A69173  11.268  38.420   7.050
 8757POPC   C4A69174  11.281  38.435   7.350
 8757POPC   C1B69175  11.177  38.669   6.450
 8757POPC   C2B69176  11.193  38.627   6.750
 8757POPC   C3B69177  11.156  38.682   7.050
 8757POPC   C4B69178  11.141  38.619   7.350
 8758POPC   NC369179  12.064   2.029   5.550
 8758POPC   PO469180  12.046   1.943   5.850
 8758POPC   GL169181  12.058   1.992   6.150
 8758POPC   GL269182  12.241   1.988   6.150
 8758POPC   C1A69183  12.116   1.985   6.450
 8758POPC   D2A69184  12.059   2.006   6.750
 8758POPC   C3A69185  12.040   1.978   7.050
 8758POPC   C4A69186  12.103   2.016   7.350
 8758POPC   C1B69187  12.283   1.991   6.450
 8758POPC   C2B69188  12.358   1.966   6.750
 8758POPC   C3B69189  12.321   1.943   7.050
 8758POPC   C4B69190  12.356   1.932   7.350
 8759POPC   NC369191  24.499  36.164   5.550
 8759POPC   PO469192  24.509  36.086   5.850
 8759POPC   GL169193  24.514  36.161   6.150
 8759POPC   GL269194  24.349  36.190   6.150
 8759POPC   C1A69195  24.503  36.144   6.450
 8759POPC   D2A69196  24.519  36.144   6.750
 8759POPC   C3A69197  24.508  36.176   7.050
 8759POPC   C4A69198  24.536  36.089   7.350
 8759POPC   C1B69199  24.254  36.172   6.450
 8759POPC   C2B69200  24.235  36.159   6.750
 8759POPC   C3B69201  24.269  36.184   7.050
 8759POPC   C4B69202  24.248  36.154   7.350
 8760POPC   NC369203  29.943   8.991   5.550
 8760POPC   PO469204  29.901   9.016   5.850
 8760POPC   GL169205  29.899   9.005   6.150
 8760POPC   GL269206  29.833   8.928   6.150
 8760POPC   C1A69207  29.950   8.998   6.450
 8760POPC   D2A69208  29.901   8.975   6.750
 8760POPC   C3A69209  29.891   8.971   7.050
 8760POPC   C4A69210  29.917   8.959   7.350
 8760POPC   C1B69211  29.723   8.918   6.450
 8760POPC   C2B69212  29.656   8.866   6.750
 8760POPC   C3B69213  29.701   8.945   7.050
 8760POPC   C4B69214  29.631   8.943   7.350
 8761POPC   NC369215   9.752  30.675   5.550
 8761POPC   PO469216   9.792  30.668   5.850
 8761POPC   GL169217   9.770  30.691   6.150
 8761POPC   GL269218   9.891  30.686   6.150
 8761POPC   C1A69219   9.741  30.717   6.450
 8761POPC   D2A69220   9.713  30.662   6.750
 8761POPC   C3A69221   9.726  30.725   7.050
 8761POPC   C4A69222   9.767  30.715   7.350
 8761POPC   C1B69223   9.957  30.609   6.450
 8761POPC   C2B69224   9.942  30.617   6.750
 8761POPC   C3B69225   9.976  30.613   7.050
 8761POPC   C4B69226   9.952  30.643   7.350
 8762POPC   NC369227  22.964  20.612   5.550
 8762POPC   PO469228  22.892  20.648   5.850
 8762POPC   GL169229  22.913  20.645   6.150
 8762POPC   GL269230  22.996  20.485   6.150
 8762POPC   C1A69231  22.888  20.644   6.450
 8762POPC   D2A69232  22.980  20.658   6.750
 8762POPC   C3A69233  22.980  20.565   7.050
 8762POPC   C4A69234  22.970  20.648   7.350
 8762POPC   C1B69235  23.002  20.410   6.450
 8762POPC   C2B69236  22.992  20.374   6.750
 8762POPC   C3B69237  22.993  20.346   7.050
 8762POPC   C4B69238  22.957  20.408   7.350
 8763POPC   NC369239  44.693  33.009   5.550
 8763POPC   PO469240  44.701  33.016   5.850
 8763POPC   GL169241  44.649  33.024   6.150
 8763POPC   GL269242  44.508  33.070   6.150
 8763POPC   C1A69243  44.645  33.044   6.450
 8763POPC   D2A69244  44.659  33.055   6.750
 8763POPC   C3A69245  44.625  33.055   7.050
 8763POPC   C4A69246  44.614  33.026   7.350
 8763POPC   C1B69247  44.392  33.079   6.450
 8763POPC   C2B69248  44.461  33.117   6.750
 8763POPC   C3B69249  44.387  33.075   7.050
 8763POPC   C4B69250  44.440  33.153   7.350
 8764POPC   NC369251  25.306  40.745   5.550
 8764POPC   PO469252  25.278  40.778   5.850
 8764POPC   GL169253  25.282  40.751   6.150
 8764POPC   GL269254  25.214  40.661   6.150
 8764POPC   C1A69255  25.281  40.799   6.450
 8764POPC   D2A69256  25.241  40.795   6.750
 8764POPC   C3A69257  25.303  40.778   7.050
 8764POPC   C4A69258  25.274  40.797   7.350
 8764POPC   C1B69259  25.151  40.576   6.450
 8764POPC   C2B69260  25.161  40.562   6.750
 8764POPC   C3B69261  25.105  40.512   7.050
 8764POPC   C4B69262  25.177  40.592   7.350
 8765POPC   NC369263  40.036   8.237   5.550
 8765POPC   PO469264  40.010   8.244   5.850
 8765POPC   GL169265  40.012   8.197   6.150
 8765POPC   GL269266  40.170   8.244   6.150
 8765POPC   C1A69267  40.039   8.227   6.450
 8765POPC   D2A69268  40.040   8.171   6.750
 8765POPC   C3A69269  39.997   8.206   7.050
 8765POPC   C4A69270  39.988   8.225   7.350
 8765POPC   C1B69271  40.227   8.324   6.450
 8765POPC   C2B69272  40.276   8.252   6.750
 8765POPC   C3B69273  40.251   8.300   7.050
 8765POPC   C4B69274  40.231   8.295   7.350
 8766POPC   NC369275  35.325  34.539   5.550
 8766POPC   PO469276  35.340  34.559   5.850
 8766POPC   GL169277  35.395  34.550   6.150
 8766POPC   GL269278  35.274  34.536   6.150
 8766POPC   C1A69279  35.399  34.622   6.450
 8766POPC   D2A69280  35.320  34.569   6.750
 8766POPC   C3A69281  35.348  34.546   7.050
 8766POPC   C4A69282  35.346  34.538   7.350
 8766POPC   C1B69283  35.178  34.460   6.450
 8766POPC   C2B69284  35.147  34.467   6.750
 8766POPC   C3B69285  35.113  34.399   7.050
 8766POPC   C4B69286  35.114  34.394   7.350
 8767POPC   NC369287  19.064  43.140   5.550
 8767POPC   PO469288  19.058  43.065   5.850
 8767POPC   GL169289  19.074  43.084   6.150
 8767POPC   GL269290  19.137  43.157   6.150
 8767POPC   C1A69291  19.053  43.077   6.450
 8767POPC   D2A69292  19.062  43.083   6.750
 8767POPC   C3A69293  19.063  43.107   7.050
 8767POPC   C4A69294  19.045  43.067   7.350
 8767POPC   C1B69295  19.225  43.326   6.450
 8767POPC   C2B69296  19.239  43.288   6.750
 8767POPC   C3B69297  19.203  43.277   7.050
 8767POPC   C4B69298  19.277  43.340   7.350
 8768POPC   NC369299   2.812  11.309   5.550
 8768POPC   PO469300   2.729  11.308   5.850
 8768POPC   GL169301   2.778  11.317   6.150
 8768POPC   GL269302   2.715  11.450   6.150
 8768POPC   C1A69303   2.730  11.319   6.450
 8768POPC   D2A69304   2.731  11.268   6.750
 8768POPC   C3A69305   2.778  11.319   7.050
 8768POPC   C4A69306   2.757  11.291   7.350
 8768POPC   C1B69307   2.758  11.504   6.450
 8768POPC   C2B69308   2.737  11.560   6.750
 8768POPC   C3B69309   2.740  11.566   7.050
 8768POPC   C4B69310   2.740  11.593   7.350
 8769POPC   NC369311  35.309  36.115   5.550
 8769POPC   PO469312  35.335  36.143   5.850
 8769POPC   GL169313  35.336  36.129   6.150
 8769POPC   GL269314  35.409  36.261   6.150
 8769POPC   C1A69315  35.381  36.097   6.450
 8769POPC   D2A69316  35.316  36.118   6.750
 8769POPC   C3A69317  35.340  36.122   7.050
 8769POPC   C4A69318  35.313  36.136   7.350
 8769POPC   C1B69319  35.466  36.351   6.450
 8769POPC   C2B69320  35.374  36.333   6.750
 8769POPC   C3B69321  35.372  36.339   7.050
 8769POPC   C4B69322  35.458  36.322   7.350
 8770POPC   NC369323  13.671   9.774   5.550
 8770POPC   PO469324  13.615   9.795   5.850
 8770POPC   GL169325  13.589   9.782   6.150
 8770POPC   GL269326  13.673   9.624   6.150
 8770POPC   C1A69327  13.670   9.795   6.450
 8770POPC   D2A69328  13.578   9.728   6.750
 8770POPC   C3A69329  13.648   9.702   7.050
 8770POPC   C4A69330  13.677   9.754   7.350
 8770POPC   C1B69331  13.652   9.525   6.450
 8770POPC   C2B69332  13.726   9.464   6.750
 8770POPC   C3B69333  13.691   9.548   7.050
 8770POPC   C4B69334  13.709   9.480   7.350
 8771POPC   NC369335  35.375  14.409   5.550
 8771POPC   PO469336  35.390  14.397   5.850
 8771POPC   GL169337  35.395  14.447   6.150
 8771POPC   GL269338  35.468  14.346   6.150
 8771POPC   C1A69339  35.305  14.435   6.450
 8771POPC   D2A69340  35.381  14.405   6.750
 8771POPC   C3A69341  35.396  14.428   7.050
 8771POPC   C4A69342  35.325  14.435   7.350
 8771POPC   C1B69343  35.625  14.373   6.450
 8771POPC   C2B69344  35.551  14.347   6.750
 8771POPC   C3B69345  35.573  14.410   7.050
 8771POPC   C4B69346  35.587  14.382   7.350
 8772POPC   NC369347  35.316   5.904   5.550
 8772POPC   PO469348  35.395   5.838   5.850
 8772POPC   GL169349  35.319   5.886   6.150
 8772POPC   GL269350  35.488   5.806   6.150
 8772POPC   C1A69351  35.373   5.823   6.450
 8772POPC   D2A69352  35.349   5.883   6.750
 8772POPC   C3A69353  35.382   5.861   7.050
 8772POPC   C4A69354  35.341   5.855   7.350
 8772POPC   C1B69355  35.591   5.782   6.450
 8772POPC   C2B69356  35.585   5.759   6.750
 8772POPC   C3B69357  35.592   5.762   7.050
 8772POPC   C4B69358  35.640   5.816   7.350
 8773POPC   NC369359   4.306  36.899   5.550
 8773POPC   PO469360   4.358  36.914   5.850
 8773POPC   GL169361   4.361  36.883   6.150
 8773POPC   GL269362   4.387  36.848   6.150
 8773POPC   C1A69363   4.269  36.893   6.450
 8773POPC   D2A69364   4.307  36.854   6.750
 8773POPC   C3A69365   4.363  36.913   7.050
 8773POPC   C4A69366   4.336  36.918   7.350
 8773POPC   C1B69367   4.474  36.668   6.450
 8773POPC   C2B69368   4.486  36.681   6.750
 8773POPC   C3B69369   4.489  36.765   7.050
 8773POPC   C4B69370   4.437  36.745   7.350
 8774POPC   NC369371  32.275  30.680   5.550
 8774POPC   PO469372  32.283  30.720   5.850
 8774POPC   GL169373  32.287  30.666   6.150
 8774POPC   GL269374  32.193  30.556   6.150
 8774POPC   C1A69375  32.234  30.730   6.450
 8774POPC   D2A69376  32.265  30.712   6.750
 8774POPC   C3A69377  32.289  30.649   7.050
 8774POPC   C4A69378  32.280  30.703   7.350
 8774POPC   C1B69379  32.193  30.430   6.450
 8774POPC   C2B69380  32.179  30.467   6.750
 8774POPC   C3B69381  32.132  30.472   7.050
 8774POPC   C4B69382  32.140  30.457   7.350
 8775POPC   NC369383  15.166  11.325   5.550
 8775POPC   PO469384  15.227  11.296   5.850
 8775POPC   GL169385  15.188  11.259   6.150
 8775POPC   GL269386  15.203  11.161   6.150
 8775POPC   C1A69387  15.157  11.329   6.450
 8775POPC   D2A69388  15.156  11.339   6.750
 8775POPC   C3A69389  15.203  11.290   7.050
 8775POPC   C4A69390  15.194  11.256   7.350
 8775POPC   C1B69391  15.188  11.095   6.450
 8775POPC   C2B69392  15.217  11.013   6.750
 8775POPC   C3B69393  15.248  11.093   7.050
 8775POPC   C4B69394  15.195  11.081   7.350
 8776POPC   NC369395  34.526  28.321   5.550
 8776POPC   PO469396  34.528  28.414   5.850
 8776POPC   GL169397  34.561  28.363   6.150
 8776POPC   GL269398  34.489  28.317   6.150
 8776POPC   C1A69399  34.598  28.353   6.450
 8776POPC   D2A69400  34.622  28.407   6.750
 8776POPC   C3A69401  34.611  28.368   7.050
 8776POPC   C4A69402  34.626  28.346   7.350
 8776POPC   C1B69403  34.350  28.237   6.450
 8776POPC   C2B69404  34.418  28.259   6.750
 8776POPC   C3B69405  34.372  28.173   7.050
 8776POPC   C4B69406  34.337  28.169   7.350
 8777POPC   NC369407  36.083   6.661   5.550
 8777POPC   PO469408  36.159   6.629   5.850
 8777POPC   GL169409  36.129   6.631   6.150
 8777POPC   GL269410  36.043   6.661   6.150
 8777POPC   C1A69411  36.096   6.641   6.450
 8777POPC   D2A69412  36.145   6.674   6.750
 8777POPC   C3A69413  36.165   6.618   7.050
 8777POPC   C4A69414  36.174   6.659   7.350
 8777POPC   C1B69415  35.887   6.583   6.450
 8777POPC   C2B69416  35.931   6.614   6.750
 8777POPC   C3B69417  35.892   6.587   7.050
 8777POPC   C4B69418  35.927   6.605   7.350
 8778POPC   NC369419  25.255  25.243   5.550
 8778POPC   PO469420  25.242  25.222   5.850
 8778POPC   GL169421  25.284  25.218   6.150
 8778POPC   GL269422  25.271  25.359   6.150
 8778POPC   C1A69423  25.242  25.302   6.450
 8778POPC   D2A69424  25.265  25.236   6.750
 8778POPC   C3A69425  25.223  25.233   7.050
 8778POPC   C4A69426  25.248  25.245   7.350
 8778POPC   C1B69427  25.340  25.484   6.450
 8778POPC   C2B69428  25.264  25.555   6.750
 8778POPC   C3B69429  25.299  25.543   7.050
 8778POPC   C4B69430  25.288  25.554   7.350
 8779POPC   NC369431  33.069   0.485   5.550
 8779POPC   PO469432  33.020   0.417   5.850
 8779POPC   GL169433  33.057   0.414   6.150
 8779POPC   GL269434  32.906   0.455   6.150
 8779POPC   C1A69435  33.006   0.452   6.450
 8779POPC   D2A69436  33.074   0.418   6.750
 8779POPC   C3A69437  33.053   0.390   7.050
 8779POPC   C4A69438  33.038   0.418   7.350
 8779POPC   C1B69439  32.787   0.548   6.450
 8779POPC   C2B69440  32.838   0.597   6.750
 8779POPC   C3B69441  32.783   0.601   7.050
 8779POPC   C4B69442  32.818   0.585   7.350
 8780POPC   NC369443  27.572  11.312   5.550
 8780POPC   PO469444  27.630  11.290   5.850
 8780POPC   GL169445  27.572  11.313   6.150
 8780POPC   GL269446  27.577  11.187   6.150
 8780POPC   C1A69447  27.557  11.286   6.450
 8780POPC   D2A69448  27.642  11.274   6.750
 8780POPC   C3A69449  27.617  11.280   7.050
 8780POPC   C4A69450  27.601  11.310   7.350
 8780POPC   C1B69451  27.490  11.108   6.450
 8780POPC   C2B69452  27.522  11.088   6.750
 8780POPC   C3B69453  27.524  11.085   7.050
 8780POPC   C4B69454  27.454  11.100   7.350
 8781POPC   NC369455   8.969  32.280   5.550
 8781POPC   PO469456   8.952  32.206   5.850
 8781POPC   GL169457   8.968  32.273   6.150
 8781POPC   GL269458   9.061  32.204   6.150
 8781POPC   C1A69459   8.933  32.294   6.450
 8781POPC   D2A69460   8.989  32.242   6.750
 8781POPC   C3A69461   8.972  32.273   7.050
 8781POPC   C4A69462   8.929  32.248   7.350
 8781POPC   C1B69463   9.223  32.113   6.450
 8781POPC   C2B69464   9.140  32.129   6.750
 8781POPC   C3B69465   9.212  32.096   7.050
 8781POPC   C4B69466   9.204  32.083   7.350
 8782POPC   NC369467  19.873  19.865   5.550
 8782POPC   PO469468  19.810  19.800   5.850
 8782POPC   GL169469  19.875  19.879   6.150
 8782POPC   GL269470  19.984  19.776   6.150
 8782POPC   C1A69471  19.789  19.868   6.450
 8782POPC   D2A69472  19.858  19.814   6.750
 8782POPC   C3A69473  19.836  19.791   7.050
 8782POPC   C4A69474  19.824  19.794   7.350
 8782POPC   C1B69475  20.048  19.754   6.450
 8782POPC   C2B69476  20.039  19.788   6.750
 8782POPC   C3B69477  20.036  19.791   7.050
 8782POPC   C4B69478  20.064  19.774   7.350
 8783POPC   NC369479   5.908  33.820   5.550
 8783POPC   PO469480   5.867  33.850   5.850
 8783POPC   GL169481   5.904  33.782   6.150
 8783POPC   GL269482   5.930  33.834   6.150
 8783POPC   C1A69483   5.828  33.822   6.450
 8783POPC   D2A69484   5.884  33.806   6.750
 8783POPC   C3A69485   5.844  33.766   7.050
 8783POPC   C4A69486   5.896  33.811   7.350
 8783POPC   C1B69487   6.103  33.929   6.450
 8783POPC   C2B69488   6.091  33.969   6.750
 8783POPC   C3B69489   6.119  33.963   7.050
 8783POPC   C4B69490   6.062  33.892   7.350
 8784POPC   NC369491   4.281   1.179   5.550
 8784POPC   PO469492   4.273   1.203   5.850
 8784POPC   GL169493   4.324   1.197   6.150
 8784POPC   GL269494   4.188   1.227   6.150
 8784POPC   C1A69495   4.277   1.176   6.450
 8784POPC   D2A69496   4.310   1.183   6.750
 8784POPC   C3A69497   4.317   1.172   7.050
 8784POPC   C4A69498   4.326   1.251   7.350
 8784POPC   C1B69499   4.066   1.342   6.450
 8784POPC   C2B69500   4.049   1.326   6.750
 8784POPC   C3B69501   4.047   1.324   7.050
 8784POPC   C4B69502   4.135   1.313   7.350
 8785POPC   NC369503  26.812  37.635   5.550
 8785POPC   PO469504  26.822  37.649   5.850
 8785POPC   GL169505  26.777  37.659   6.150
 8785POPC   GL269506  26.932  37.611   6.150
 8785POPC   C1A69507  26.771  37.675   6.450
 8785POPC   D2A69508  26.780  37.678   6.750
 8785POPC   C3A69509  26.803  37.631   7.050
 8785POPC   C4A69510  26.835  37.709   7.350
 8785POPC   C1B69511  27.066  37.509   6.450
 8785POPC   C2B69512  26.995  37.595   6.750
 8785POPC   C3B69513  27.053  37.549   7.050
 8785POPC   C4B69514  27.013  37.582   7.350
 8786POPC   NC369515  13.671  20.622   5.550
 8786POPC   PO469516  13.606  20.566   5.850
 8786POPC   GL169517  13.582  20.614   6.150
 8786POPC   GL269518  13.525  20.637   6.150
 8786POPC   C1A69519  13.578  20.567   6.450
 8786POPC   D2A69520  13.584  20.644   6.750
 8786POPC   C3A69521  13.675  20.597   7.050
 8786POPC   C4A69522  13.665  20.607   7.350
 8786POPC   C1B69523  13.402  20.758   6.450
 8786POPC   C2B69524  13.368  20.714   6.750
 8786POPC   C3B69525  13.374  20.681   7.050
 8786POPC   C4B69526  13.420  20.739   7.350
 8787POPC   NC369527  11.278  15.193   5.550
 8787POPC   PO469528  11.309  15.160   5.850
 8787POPC   GL169529  11.321  15.188   6.150
 8787POPC   GL269530  11.398  15.179   6.150
 8787POPC   C1A69531  11.263  15.194   6.450
 8787POPC   D2A69532  11.339  15.195   6.750
 8787POPC   C3A69533  11.298  15.159   7.050
 8787POPC   C4A69534  11.291  15.210   7.350
 8787POPC   C1B69535  11.585  15.072   6.450
 8787POPC   C2B69536  11.506  15.095   6.750
 8787POPC   C3B69537  11.566  15.082   7.050
 8787POPC   C4B69538  11.542  15.097   7.350
 8788POPC   NC369539  16.709  32.987   5.550
 8788POPC   PO469540  16.690  33.015   5.850
 8788POPC   GL169541  16.712  32.990   6.150
 8788POPC   GL269542  16.710  32.882   6.150
 8788POPC   C1A69543  16.699  33.069   6.450
 8788POPC   D2A69544  16.690  33.032   6.750
 8788POPC   C3A69545  16.763  32.994   7.050
 8788POPC   C4A69546  16.715  33.049   7.350
 8788POPC   C1B69547  16.703  32.739   6.450
 8788POPC   C2B69548  16.698  32.766   6.750
 8788POPC   C3B69549  16.770  32.763   7.050
 8788POPC   C4B69550  16.742  32.759   7.350
 8789POPC   NC369551  36.921  32.247   5.550
 8789POPC   PO469552  36.920  32.260   5.850
 8789POPC   GL169553  36.939  32.249   6.150
 8789POPC   GL269554  37.014  32.261   6.150
 8789POPC   C1A69555  36.902  32.292   6.450
 8789POPC   D2A69556  36.868  32.252   6.750
 8789POPC   C3A69557  36.945  32.208   7.050
 8789POPC   C4A69558  36.885  32.210   7.350
 8789POPC   C1B69559  37.119  32.350   6.450
 8789POPC   C2B69560  37.140  32.368   6.750
 8789POPC   C3B69561  37.075  32.388   7.050
 8789POPC   C4B69562  37.158  32.406   7.350
 8790POPC   NC369563  19.803  31.450   5.550
 8790POPC   PO469564  19.872  31.432   5.850
 8790POPC   GL169565  19.838  31.485   6.150
 8790POPC   GL269566  19.680  31.425   6.150
 8790POPC   C1A69567  19.792  31.468   6.450
 8790POPC   D2A69568  19.845  31.460   6.750
 8790POPC   C3A69569  19.823  31.475   7.050
 8790POPC   C4A69570  19.821  31.486   7.350
 8790POPC   C1B69571  19.625  31.469   6.450
 8790POPC   C2B69572  19.555  31.390   6.750
 8790POPC   C3B69573  19.605  31.389   7.050
 8790POPC   C4B69574  19.606  31.421   7.350
 8791POPC   NC369575  32.246  18.256   5.550
 8791POPC   PO469576  32.212  18.235   5.850
 8791POPC   GL169577  32.270  18.309   6.150
 8791POPC   GL269578  32.292  18.175   6.150
 8791POPC   C1A69579  32.233  18.289   6.450
 8791POPC   D2A69580  32.271  18.330   6.750
 8791POPC   C3A69581  32.248  18.309   7.050
 8791POPC   C4A69582  32.203  18.288   7.350
 8791POPC   C1B69583  32.366  18.066   6.450
 8791POPC   C2B69584  32.406  18.056   6.750
 8791POPC   C3B69585  32.351  18.125   7.050
 8791POPC   C4B69586  32.375  18.092   7.350
 8792POPC   NC369587  17.526  41.561   5.550
 8792POPC   PO469588  17.499  41.522   5.850
 8792POPC   GL169589  17.526  41.555   6.150
 8792POPC   GL269590  17.625  41.626   6.150
 8792POPC   C1A69591  17.552  41.563   6.450
 8792POPC   D2A69592  17.557  41.603   6.750
 8792POPC   C3A69593  17.546  41.519   7.050
 8792POPC   C4A69594  17.532  41.595   7.350
 8792POPC   C1B69595  17.737  41.708   6.450
 8792POPC   C2B69596  17.706  41.679   6.750
 8792POPC   C3B69597  17.644  41.715   7.050
 8792POPC   C4B69598  17.679  41.725   7.350
 8793POPC   NC369599  43.897  22.888   5.550
 8793POPC   PO469600  43.929  22.975   5.850
 8793POPC   GL169601  43.889  22.979   6.150
 8793POPC   GL269602  43.812  22.833   6.150
 8793POPC   C1A69603  43.925  22.933   6.450
 8793POPC   D2A69604  43.928  22.924   6.750
 8793POPC   C3A69605  43.858  22.905   7.050
 8793POPC   C4A69606  43.903  22.948   7.350
 8793POPC   C1B69607  43.720  22.711   6.450
 8793POPC   C2B69608  43.781  22.713   6.750
 8793POPC   C3B69609  43.684  22.731   7.050
 8793POPC   C4B69610  43.751  22.697   7.350
 8794POPC   NC369611  14.366  22.148   5.550
 8794POPC   PO469612  14.419  22.157   5.850
 8794POPC   GL169613  14.356  22.154   6.150
 8794POPC   GL269614  14.493  22.145   6.150
 8794POPC   C1A69615  14.441  22.171   6.450
 8794POPC   D2A69616  14.401  22.161   6.750
 8794POPC   C3A69617  14.396  22.196   7.050
 8794POPC   C4A69618  14.449  22.169   7.350
 8794POPC   C1B69619  14.641  22.210   6.450
 8794POPC   C2B69620  14.680  22.226   6.750
 8794POPC   C3B69621  14.682  22.202   7.050
 8794POPC   C4B69622  14.673  22.172   7.350
 8795POPC   NC369623  26.843  35.381   5.550
 8795POPC   PO469624  26.806  35.346   5.850
 8795POPC   GL169625  26.805  35.316   6.150
 8795POPC   GL269626  26.915  35.329   6.150
 8795POPC   C1A69627  26.830  35.309   6.450
 8795POPC   D2A69628  26.818  35.350   6.750
 8795POPC   C3A69629  26.859  35.317   7.050
 8795POPC   C4A69630  26.790  35.316   7.350
 8795POPC   C1B69631  27.027  35.251   6.450
 8795POPC   C2B69632  27.052  35.242   6.750
 8795POPC   C3B69633  26.990  35.230   7.050
 8795POPC   C4B69634  27.049  35.206   7.350
 8796POPC   NC369635  19.796   4.314   5.550
 8796POPC   PO469636  19.788   4.314   5.850
 8796POPC   GL169637  19.816   4.273   6.150
 8796POPC   GL269638  19.746   4.336   6.150
 8796POPC   C1A69639  19.795   4.341   6.450
 8796POPC   D2A69640  19.837   4.330   6.750
 8796POPC   C3A69641  19.819   4.360   7.050
 8796POPC   C4A69642  19.825   4.341   7.350
 8796POPC   C1B69643  19.616   4.417   6.450
 8796POPC   C2B69644  19.590   4.432   6.750
 8796POPC   C3B69645  19.603   4.417   7.050
 8796POPC   C4B69646  19.626   4.344   7.350
 8797POPC   NC369647  27.600  14.376   5.550
 8797POPC   PO469648  27.635  14.413   5.850
 8797POPC   GL169649  27.595  14.362   6.150
 8797POPC   GL269650  27.534  14.516   6.150
 8797POPC   C1A69651  27.573  14.409   6.450
 8797POPC   D2A69652  27.632  14.396   6.750
 8797POPC   C3A69653  27.588  14.380   7.050
 8797POPC   C4A69654  27.584  14.449   7.350
 8797POPC   C1B69655  27.573  14.666   6.450
 8797POPC   C2B69656  27.518  14.667   6.750
 8797POPC   C3B69657  27.586  14.635   7.050
 8797POPC   C4B69658  27.578  14.623   7.350
 8798POPC   NC369659  33.020  32.201   5.550
 8798POPC   PO469660  32.998  32.277   5.850
 8798POPC   GL169661  32.980  32.236   6.150
 8798POPC   GL269662  33.081  32.340   6.150
 8798POPC   C1A69663  33.067  32.225   6.450
 8798POPC   D2A69664  33.027  32.209   6.750
 8798POPC   C3A69665  33.046  32.222   7.050
 8798POPC   C4A69666  33.066  32.286   7.350
 8798POPC   C1B69667  33.097  32.505   6.450
 8798POPC   C2B69668  33.054  32.488   6.750
 8798POPC   C3B69669  33.081  32.472   7.050
 8798POPC   C4B69670  33.067  32.493   7.350
 8799POPC   NC369671  19.108   0.388   5.550
 8799POPC   PO469672  19.019   0.434   5.850
 8799POPC   GL169673  19.100   0.450   6.150
 8799POPC   GL269674  19.027   0.497   6.150
 8799POPC   C1A69675  19.083   0.405   6.450
 8799POPC   D2A69676  19.066   0.479   6.750
 8799POPC   C3A69677  19.019   0.408   7.050
 8799POPC   C4A69678  19.078   0.403   7.350
 8799POPC   C1B69679  18.915   0.677   6.450
 8799POPC   C2B69680  18.903   0.613   6.750
 8799POPC   C3B69681  18.889   0.643   7.050
 8799POPC   C4B69682  18.922   0.695   7.350
 8800POPC   NC369683   8.206  13.656   5.550
 8800POPC   PO469684   8.203  13.626   5.850
 8800POPC   GL169685   8.148  13.618   6.150
 8800POPC   GL269686   8.139  13.573   6.150
 8800POPC   C1A69687   8.182  13.663   6.450
 8800POPC   D2A69688   8.147  13.632   6.750
 8800POPC   C3A69689   8.176  13.614   7.050
 8800POPC   C4A69690   8.210  13.623   7.350
 8800POPC   C1B69691   8.063  13.467   6.450
 8800POPC   C2B69692   8.038  13.413   6.750
 8800POPC   C3B69693   8.023  13.464   7.050
 8800POPC   C4B69694   7.998  13.410   7.350
 8801POPC   NC369695  35.372  12.845   5.550
 8801POPC   PO469696  35.366  12.870   5.850
 8801POPC   GL169697  35.324  12.809   6.150
 8801POPC   GL269698  35.356  12.707   6.150
 8801POPC   C1A69699  35.390  12.831   6.450
 8801POPC   D2A69700  35.350  12.817   6.750
 8801POPC   C3A69701  35.343  12.814   7.050
 8801POPC   C4A69702  35.310  12.890   7.350
 8801POPC   C1B69703  35.455  12.581   6.450
 8801POPC   C2B69704  35.429  12.577   6.750
 8801POPC   C3B69705  35.405  12.612   7.050
 8801POPC   C4B69706  35.435  12.660   7.350
 8802POPC   NC369707   2.809   9.758   5.550
 8802POPC   PO469708   2.806   9.730   5.850
 8802POPC   GL169709   2.807   9.776   6.150
 8802POPC   GL269710   2.747   9.668   6.150
 8802POPC   C1A69711   2.813   9.776   6.450
 8802POPC   D2A69712   2.729   9.763   6.750
 8802POPC   C3A69713   2.736   9.711   7.050
 8802POPC   C4A69714   2.719   9.796   7.350
 8802POPC   C1B69715   2.721   9.462   6.450
 8802POPC   C2B69716   2.738   9.509   6.750
 8802POPC   C3B69717   2.756   9.481   7.050
 8802POPC   C4B69718   2.722   9.515   7.350
 8803POPC   NC369719   1.231   9.765   5.550
 8803POPC   PO469720   1.251   9.793   5.850
 8803POPC   GL169721   1.197   9.745   6.150
 8803POPC   GL269722   1.182   9.664   6.150
 8803POPC   C1A69723   1.179   9.769   6.450
 8803POPC   D2A69724   1.226   9.777   6.750
 8803POPC   C3A69725   1.252   9.729   7.050
 8803POPC   C4A69726   1.195   9.767   7.350
 8803POPC   C1B69727   1.231   9.460   6.450
 8803POPC   C2B69728   1.289   9.456   6.750
 8803POPC   C3B69729   1.215   9.455   7.050
 8803POPC   C4B69730   1.247   9.456   7.350
 8804POPC   NC369731  43.089  32.272   5.550
 8804POPC   PO469732  43.149  32.252   5.850
 8804POPC   GL169733  43.089  32.292   6.150
 8804POPC   GL269734  42.951  32.198   6.150
 8804POPC   C1A69735  43.096  32.199   6.450
 8804POPC   D2A69736  43.074  32.207   6.750
 8804POPC   C3A69737  43.070  32.242   7.050
 8804POPC   C4A69738  43.084  32.269   7.350
 8804POPC   C1B69739  42.841  32.193   6.450
 8804POPC   C2B69740  42.861  32.173   6.750
 8804POPC   C3B69741  42.895  32.239   7.050
 8804POPC   C4B69742  42.833  32.225   7.350
 8805POPC   NC369743   0.442  29.177   5.550
 8805POPC   PO469744   0.462  29.152   5.850
 8805POPC   GL169745   0.411  29.179   6.150
 8805POPC   GL269746   0.381  29.230   6.150
 8805POPC   C1A69747   0.389  29.141   6.450
 8805POPC   D2A69748   0.423  29.188   6.750
 8805POPC   C3A69749   0.450  29.099   7.050
 8805POPC   C4A69750   0.469  29.143   7.350
 8805POPC   C1B69751   0.326  29.343   6.450
 8805POPC   C2B69752   0.305  29.412   6.750
 8805POPC   C3B69753   0.393  29.344   7.050
 8805POPC   C4B69754   0.363  29.390   7.350
 8806POPC   NC369755   6.616  11.322   5.550
 8806POPC   PO469756   6.680  11.335   5.850
 8806POPC   GL169757   6.681  11.346   6.150
 8806POPC   GL269758   6.759  11.269   6.150
 8806POPC   C1A69759   6.608  11.252   6.450
 8806POPC   D2A69760   6.595  11.270   6.750
 8806POPC   C3A69761   6.669  11.319   7.050
 8806POPC   C4A69762   6.597  11.330   7.350
 8806POPC   C1B69763   6.885  11.142   6.450
 8806POPC   C2B69764   6.844  11.160   6.750
 8806POPC   C3B69765   6.793  11.125   7.050
 8806POPC   C4B69766   6.860  11.105   7.350
 8807POPC   NC369767  19.850  43.148   5.550
 8807POPC   PO469768  19.860  43.130   5.850
 8807POPC   GL169769  19.821  43.102   6.150
 8807POPC   GL269770  19.823  43.042   6.150
 8807POPC   C1A69771  19.811  43.128   6.450
 8807POPC   D2A69772  19.861  43.127   6.750
 8807POPC   C3A69773  19.837  43.148   7.050
 8807POPC   C4A69774  19.854  43.088   7.350
 8807POPC   C1B69775  19.780  42.852   6.450
 8807POPC   C2B69776  19.761  42.831   6.750
 8807POPC   C3B69777  19.715  42.830   7.050
 8807POPC   C4B69778  19.744  42.838   7.350
 8808POPC   NC369779  10.560  32.289   5.550
 8808POPC   PO469780  10.512  32.227   5.850
 8808POPC   GL169781  10.526  32.233   6.150
 8808POPC   GL269782  10.634  32.240   6.150
 8808POPC   C1A69783  10.530  32.201   6.450
 8808POPC   D2A69784  10.570  32.279   6.750
 8808POPC   C3A69785  10.484  32.203   7.050
 8808POPC   C4A69786  10.508  32.201   7.350
 8808POPC   C1B69787  10.821  32.228   6.450
 8808POPC   C2B69788  10.727  32.275   6.750
 8808POPC   C3B69789  10.758  32.266   7.050
 8808POPC   C4B69790  10.805  32.279   7.350
 8809POPC   NC369791  11.287  12.065   5.550
 8809POPC   PO469792  11.283  12.030   5.850
 8809POPC   GL169793  11.260  12.068   6.150
 8809POPC   GL269794  11.161  12.136   6.150
 8809POPC   C1A69795  11.263  12.043   6.450
 8809POPC   D2A69796  11.278  12.067   6.750
 8809POPC   C3A69797  11.341  12.096   7.050
 8809POPC   C4A69798  11.259  12.061   7.350
 8809POPC   C1B69799  11.049  12.156   6.450
 8809POPC   C2B69800  11.032  12.097   6.750
 8809POPC   C3B69801  11.053  12.102   7.050
 8809POPC   C4B69802  11.040  12.075   7.350
 8810POPC   NC369803  10.481   0.402   5.550
 8810POPC   PO469804  10.522   0.403   5.850
 8810POPC   GL169805  10.525   0.473   6.150
 8810POPC   GL269806  10.473   0.547   6.150
 8810POPC   C1A69807  10.520   0.474   6.450
 8810POPC   D2A69808  10.512   0.405   6.750
 8810POPC   C3A69809  10.504   0.470   7.050
 8810POPC   C4A69810  10.499   0.394   7.350
 8810POPC   C1B69811  10.327   0.655   6.450
 8810POPC   C2B69812  10.317   0.560   6.750
 8810POPC   C3B69813  10.299   0.590   7.050
 8810POPC   C4B69814  10.384   0.635   7.350
 8811POPC   NC369815  16.725   1.991   5.550
 8811POPC   PO469816  16.701   2.000   5.850
 8811POPC   GL169817  16.766   2.035   6.150
 8811POPC   GL269818  16.772   1.838   6.150
 8811POPC   C1A69819  16.734   1.989   6.450
 8811POPC   D2A69820  16.687   1.970   6.750
 8811POPC   C3A69821  16.716   1.952   7.050
 8811POPC   C4A69822  16.703   1.961   7.350
 8811POPC   C1B69823  16.859   1.776   6.450
 8811POPC   C2B69824  16.837   1.762   6.750
 8811POPC   C3B69825  16.793   1.718   7.050
 8811POPC   C4B69826  16.825   1.716   7.350
 8812POPC   NC369827  11.267  21.364   5.550
 8812POPC   PO469828  11.253  21.416   5.850
 8812POPC   GL169829  11.310  21.429   6.150
 8812POPC   GL269830  11.176  21.388   6.150
 8812POPC   C1A69831  11.319  21.358   6.450
 8812POPC   D2A69832  11.310  21.418   6.750
 8812POPC   C3A69833  11.257  21.389   7.050
 8812POPC   C4A69834  11.281  21.376   7.350
 8812POPC   C1B69835  11.068  21.399   6.450
 8812POPC   C2B69836  11.044  21.381   6.750
 8812POPC   C3B69837  11.087  21.452   7.050
 8812POPC   C4B69838  11.049  21.432   7.350
 8813POPC   NC369839  26.850  10.508   5.550
 8813POPC   PO469840  26.808  10.488   5.850
 8813POPC   GL169841  26.838  10.571   6.150
 8813POPC   GL269842  26.762  10.382   6.150
 8813POPC   C1A69843  26.855  10.516   6.450
 8813POPC   D2A69844  26.867  10.558   6.750
 8813POPC   C3A69845  26.777  10.475   7.050
 8813POPC   C4A69846  26.857  10.476   7.350
 8813POPC   C1B69847  26.762  10.323   6.450
 8813POPC   C2B69848  26.778  10.294   6.750
 8813POPC   C3B69849  26.800  10.271   7.050
 8813POPC   C4B69850  26.767  10.228   7.350
 8814POPC   NC369851  11.321   8.232   5.550
 8814POPC   PO469852  11.322   8.200   5.850
 8814POPC   GL169853  11.327   8.194   6.150
 8814POPC   GL269854  11.240   8.307   6.150
 8814POPC   C1A69855  11.274   8.193   6.450
 8814POPC   D2A69856  11.293   8.159   6.750
 8814POPC   C3A69857  11.333   8.198   7.050
 8814POPC   C4A69858  11.306   8.238   7.350
 8814POPC   C1B69859  11.286   8.425   6.450
 8814POPC   C2B69860  11.257   8.460   6.750
 8814POPC   C3B69861  11.325   8.427   7.050
 8814POPC   C4B69862  11.226   8.438   7.350
 8815POPC   NC369863  15.158  14.414   5.550
 8815POPC   PO469864  15.182  14.436   5.850
 8815POPC   GL169865  15.132  14.417   6.150
 8815POPC   GL269866  15.286  14.523   6.150
 8815POPC   C1A69867  15.167  14.368   6.450
 8815POPC   D2A69868  15.196  14.405   6.750
 8815POPC   C3A69869  15.191  14.435   7.050
 8815POPC   C4A69870  15.227  14.386   7.350
 8815POPC   C1B69871  15.368  14.540   6.450
 8815POPC   C2B69872  15.320  14.536   6.750
 8815POPC   C3B69873  15.338  14.570   7.050
 8815POPC   C4B69874  15.335  14.522   7.350
 8816POPC   NC369875  41.575  19.800   5.550
 8816POPC   PO469876  41.544  19.827   5.850
 8816POPC   GL169877  41.546  19.805   6.150
 8816POPC   GL269878  41.483  19.776   6.150
 8816POPC   C1A69879  41.560  19.817   6.450
 8816POPC   D2A69880  41.553  19.792   6.750
 8816POPC   C3A69881  41.604  19.870   7.050
 8816POPC   C4A69882  41.509  19.845   7.350
 8816POPC   C1B69883  41.362  19.622   6.450
 8816POPC   C2B69884  41.428  19.682   6.750
 8816POPC   C3B69885  41.432  19.643   7.050
 8816POPC   C4B69886  41.373  19.672   7.350
 8817POPC   NC369887  14.450  27.585   5.550
 8817POPC   PO469888  14.411  27.607   5.850
 8817POPC   GL169889  14.398  27.591   6.150
 8817POPC   GL269890  14.451  27.679   6.150
 8817POPC   C1A69891  14.399  27.570   6.450
 8817POPC   D2A69892  14.447  27.588   6.750
 8817POPC   C3A69893  14.453  27.583   7.050
 8817POPC   C4A69894  14.394  27.551   7.350
 8817POPC   C1B69895  14.581  27.738   6.450
 8817POPC   C2B69896  14.578  27.824   6.750
 8817POPC   C3B69897  14.569  27.792   7.050
 8817POPC   C4B69898  14.553  27.732   7.350
 8818POPC   NC369899  29.121  29.155   5.550
 8818POPC   PO469900  29.148  29.128   5.850
 8818POPC   GL169901  29.150  29.102   6.150
 8818POPC   GL269902  29.019  29.098   6.150
 8818POPC   C1A69903  29.155  29.165   6.450
 8818POPC   D2A69904  29.170  29.178   6.750
 8818POPC   C3A69905  29.138  29.174   7.050
 8818POPC   C4A69906  29.162  29.140   7.350
 8818POPC   C1B69907  28.907  29.016   6.450
 8818POPC   C2B69908  28.953  29.016   6.750
 8818POPC   C3B69909  28.960  28.997   7.050
 8818POPC   C4B69910  28.908  29.038   7.350
 8819POPC   NC369911  20.589   7.454   5.550
 8819POPC   PO469912  20.615   7.409   5.850
 8819POPC   GL169913  20.586   7.426   6.150
 8819POPC   GL269914  20.586   7.248   6.150
 8819POPC   C1A69915  20.561   7.434   6.450
 8819POPC   D2A69916  20.570   7.408   6.750
 8819POPC   C3A69917  20.563   7.407   7.050
 8819POPC   C4A69918  20.576   7.392   7.350
 8819POPC   C1B69919  20.529   7.175   6.450
 8819POPC   C2B69920  20.517   7.132   6.750
 8819POPC   C3B69921  20.570   7.209   7.050
 8819POPC   C4B69922  20.577   7.188   7.350
 8820POPC   NC369923  29.947  30.740   5.550
 8820POPC   PO469924  29.890  30.662   5.850
 8820POPC   GL169925  29.899  30.686   6.150
 8820POPC   GL269926  30.053  30.738   6.150
 8820POPC   C1A69927  29.877  30.668   6.450
 8820POPC   D2A69928  29.871  30.675   6.750
 8820POPC   C3A69929  29.897  30.743   7.050
 8820POPC   C4A69930  29.915  30.651   7.350
 8820POPC   C1B69931  30.119  30.836   6.450
 8820POPC   C2B69932  30.159  30.835   6.750
 8820POPC   C3B69933  30.129  30.845   7.050
 8820POPC   C4B69934  30.141  30.802   7.350
 8821POPC   NC369935  37.722  33.066   5.550
 8821POPC   PO469936  37.642  33.037   5.850
 8821POPC   GL169937  37.725  33.030   6.150
 8821POPC   GL269938  37.694  32.907   6.150
 8821POPC   C1A69939  37.674  32.979   6.450
 8821POPC   D2A69940  37.695  33.050   6.750
 8821POPC   C3A69941  37.670  32.983   7.050
 8821POPC   C4A69942  37.701  33.070   7.350
 8821POPC   C1B69943  37.637  32.732   6.450
 8821POPC   C2B69944  37.697  32.803   6.750
 8821POPC   C3B69945  37.702  32.804   7.050
 8821POPC   C4B69946  37.660  32.734   7.350
 8822POPC   NC369947  35.387  13.652   5.550
 8822POPC   PO469948  35.399  13.616   5.850
 8822POPC   GL169949  35.370  13.664   6.150
 8822POPC   GL269950  35.337  13.692   6.150
 8822POPC   C1A69951  35.379  13.633   6.450
 8822POPC   D2A69952  35.348  13.587   6.750
 8822POPC   C3A69953  35.353  13.616   7.050
 8822POPC   C4A69954  35.323  13.592   7.350
 8822POPC   C1B69955  35.268  13.862   6.450
 8822POPC   C2B69956  35.240  13.829   6.750
 8822POPC   C3B69957  35.241  13.821   7.050
 8822POPC   C4B69958  35.200  13.801   7.350
 8823POPC   NC369959  28.359   0.478   5.550
 8823POPC   PO469960  28.415   0.388   5.850
 8823POPC   GL169961  28.334   0.471   6.150
 8823POPC   GL269962  28.235   0.441   6.150
 8823POPC   C1A69963  28.408   0.420   6.450
 8823POPC   D2A69964  28.321   0.393   6.750
 8823POPC   C3A69965  28.330   0.427   7.050
 8823POPC   C4A69966  28.366   0.412   7.350
 8823POPC   C1B69967  28.112   0.375   6.450
 8823POPC   C2B69968  28.127   0.388   6.750
 8823POPC   C3B69969  28.145   0.381   7.050
 8823POPC   C4B69970  28.137   0.385   7.350
 8824POPC   NC369971  38.465  40.018   5.550
 8824POPC   PO469972  38.492  40.015   5.850
 8824POPC   GL169973  38.463  40.020   6.150
 8824POPC   GL269974  38.303  40.021   6.150
 8824POPC   C1A69975  38.452  40.048   6.450
 8824POPC   D2A69976  38.448  40.023   6.750
 8824POPC   C3A69977  38.440  39.987   7.050
 8824POPC   C4A69978  38.414  39.964   7.350
 8824POPC   C1B69979  38.183  40.043   6.450
 8824POPC   C2B69980  38.191  40.098   6.750
 8824POPC   C3B69981  38.210  40.107   7.050
 8824POPC   C4B69982  38.245  40.062   7.350
 8825POPC   NC369983  39.253  36.168   5.550
 8825POPC   PO469984  39.194  36.080   5.850
 8825POPC   GL169985  39.236  36.090   6.150
 8825POPC   GL269986  39.109  36.031   6.150
 8825POPC   C1A69987  39.255  36.091   6.450
 8825POPC   D2A69988  39.271  36.132   6.750
 8825POPC   C3A69989  39.246  36.129   7.050
 8825POPC   C4A69990  39.236  36.127   7.350
 8825POPC   C1B69991  39.009  35.978   6.450
 8825POPC   C2B69992  38.990  36.008   6.750
 8825POPC   C3B69993  39.000  36.023   7.050
 8825POPC   C4B69994  38.972  35.996   7.350
 8826POPC   NC369995  31.509  38.432   5.550
 8826POPC   PO469996  31.472  38.496   5.850
 8826POPC   GL169997  31.507  38.481   6.150
 8826POPC   GL269998  31.413  38.346   6.150
 8826POPC   C1A69999  31.450  38.440   6.450
 8826POPC   D2A70000  31.432  38.503   6.750
 8826POPC   C3A70001  31.433  38.475   7.050
 8826POPC   C4A70002  31.475  38.460   7.350
 8826POPC   C1B70003  31.327  38.313   6.450
 8826POPC   C2B70004  31.316  38.266   6.750
 8826POPC   C3B70005  31.286  38.252   7.050
 8826POPC   C4B70006  31.303  38.319   7.350
 8827POPC   NC370007  40.054  19.073   5.550
 8827POPC   PO470008  40.015  19.080   5.850
 8827POPC   GL170009  39.968  19.033   6.150
 8827POPC   GL270010  40.156  19.037   6.150
 8827POPC   C1A70011  40.012  19.015   6.450
 8827POPC   D2A70012  39.971  19.023   6.750
 8827POPC   C3A70013  40.032  19.074   7.050
 8827POPC   C4A70014  40.004  19.105   7.350
 8827POPC   C1B70015  40.265  18.961   6.450
 8827POPC   C2B70016  40.259  18.996   6.750
 8827POPC   C3B70017  40.288  19.010   7.050
 8827POPC   C4B70018  40.269  18.935   7.350
 8828POPC   NC370019  17.500   1.973   5.550
 8828POPC   PO470020  17.514   1.967   5.850
 8828POPC   GL170021  17.534   1.983   6.150
 8828POPC   GL270022  17.588   1.979   6.150
 8828POPC   C1A70023  17.556   1.964   6.450
 8828POPC   D2A70024  17.554   1.968   6.750
 8828POPC   C3A70025  17.500   2.001   7.050
 8828POPC   C4A70026  17.524   2.028   7.350
 8828POPC   C1B70027  17.771   1.977   6.450
 8828POPC   C2B70028  17.736   1.947   6.750
 8828POPC   C3B70029  17.723   2.025   7.050
 8828POPC   C4B70030  17.807   2.025   7.350
 8829POPC   NC370031   6.620  39.997   5.550
 8829POPC   PO470032   6.672  40.001   5.850
 8829POPC   GL170033   6.682  40.021   6.150
 8829POPC   GL270034   6.715  40.095   6.150
 8829POPC   C1A70035   6.596  40.007   6.450
 8829POPC   D2A70036   6.601  39.981   6.750
 8829POPC   C3A70037   6.688  40.038   7.050
 8829POPC   C4A70038   6.676  40.010   7.350
 8829POPC   C1B70039   6.885  40.061   6.450
 8829POPC   C2B70040   6.901  40.071   6.750
 8829POPC   C3B70041   6.917  40.140   7.050
 8829POPC   C4B70042   6.915  40.123   7.350
 8830POPC   NC370043  26.865  25.252   5.550
 8830POPC   PO470044  26.784  25.303   5.850
 8830POPC   GL170045  26.825  25.244   6.150
 8830POPC   GL270046  26.760  25.393   6.150
 8830POPC   C1A70047  26.774  25.225   6.450
 8830POPC   D2A70048  26.768  25.232   6.750
 8830POPC   C3A70049  26.822  25.313   7.050
 8830POPC   C4A70050  26.812  25.232   7.350
 8830POPC   C1B70051  26.687  25.507   6.450
 8830POPC   C2B70052  26.720  25.502   6.750
 8830POPC   C3B70053  26.697  25.458   7.050
 8830POPC   C4B70054  26.684  25.500   7.350
 8831POPC   NC370055  34.533  31.484   5.550
 8831POPC   PO470056  34.534  31.456   5.850
 8831POPC   GL170057  34.530  31.507   6.150
 8831POPC   GL270058  34.679  31.584   6.150
 8831POPC   C1A70059  34.612  31.473   6.450
 8831POPC   D2A70060  34.589  31.496   6.750
 8831POPC   C3A70061  34.561  31.439   7.050
 8831POPC   C4A70062  34.619  31.479   7.350
 8831POPC   C1B70063  34.745  31.587   6.450
 8831POPC   C2B70064  34.769  31.677   6.750
 8831POPC   C3B70065  34.793  31.587   7.050
 8831POPC   C4B70066  34.777  31.641   7.350
 8832POPC   NC370067  41.524  30.688   5.550
 8832POPC   PO470068  41.606  30.716   5.850
 8832POPC   GL170069  41.533  30.678   6.150
 8832POPC   GL270070  41.497  30.810   6.150
 8832POPC   C1A70071  41.513  30.726   6.450
 8832POPC   D2A70072  41.559  30.712   6.750
 8832POPC   C3A70073  41.568  30.706   7.050
 8832POPC   C4A70074  41.534  30.737   7.350
 8832POPC   C1B70075  41.354  30.911   6.450
 8832POPC   C2B70076  41.385  30.933   6.750
 8832POPC   C3B70077  41.390  30.927   7.050
 8832POPC   C4B70078  41.435  30.908   7.350
 8833POPC   NC370079  20.627   3.505   5.550
 8833POPC   PO470080  20.607   3.573   5.850
 8833POPC   GL170081  20.602   3.496   6.150
 8833POPC   GL270082  20.693   3.457   6.150
 8833POPC   C1A70083  20.569   3.511   6.450
 8833POPC   D2A70084  20.636   3.535   6.750
 8833POPC   C3A70085  20.595   3.535   7.050
 8833POPC   C4A70086  20.639   3.549   7.350
 8833POPC   C1B70087  20.864   3.465   6.450
 8833POPC   C2B70088  20.830   3.429   6.750
 8833POPC   C3B70089  20.836   3.429   7.050
 8833POPC   C4B70090  20.805   3.413   7.350
 8834POPC   NC370091   8.984  43.133   5.550
 8834POPC   PO470092   8.968  43.124   5.850
 8834POPC   GL170093   8.962  43.078   6.150
 8834POPC   GL270094   8.900  43.099   6.150
 8834POPC   C1A70095   8.969  43.112   6.450
 8834POPC   D2A70096   8.978  43.147   6.750
 8834POPC   C3A70097   8.946  43.115   7.050
 8834POPC   C4A70098   8.924  43.133   7.350
 8834POPC   C1B70099   8.767  43.035   6.450
 8834POPC   C2B70100   8.749  43.085   6.750
 8834POPC   C3B70101   8.714  43.018   7.050
 8834POPC   C4B70102   8.714  42.997   7.350
 8835POPC   NC370103  40.008  16.000   5.550
 8835POPC   PO470104  40.049  15.949   5.850
 8835POPC   GL170105  39.984  15.936   6.150
 8835POPC   GL270106  39.976  16.083   6.150
 8835POPC   C1A70107  39.989  15.961   6.450
 8835POPC   D2A70108  40.041  15.930   6.750
 8835POPC   C3A70109  40.025  15.962   7.050
 8835POPC   C4A70110  39.959  15.999   7.350
 8835POPC   C1B70111  39.954  16.225   6.450
 8835POPC   C2B70112  39.968  16.201   6.750
 8835POPC   C3B70113  39.931  16.195   7.050
 8835POPC   C4B70114  39.956  16.164   7.350
 8836POPC   NC370115  29.158  36.107   5.550
 8836POPC   PO470116  29.135  36.100   5.850
 8836POPC   GL170117  29.143  36.115   6.150
 8836POPC   GL270118  29.303  36.178   6.150
 8836POPC   C1A70119  29.171  36.162   6.450
 8836POPC   D2A70120  29.099  36.154   6.750
 8836POPC   C3A70121  29.099  36.111   7.050
 8836POPC   C4A70122  29.125  36.117   7.350
 8836POPC   C1B70123  29.437  36.201   6.450
 8836POPC   C2B70124  29.403  36.165   6.750
 8836POPC   C3B70125  29.442  36.193   7.050
 8836POPC   C4B70126  29.437  36.122   7.350
 8837POPC   NC370127  43.064  33.042   5.550
 8837POPC   PO470128  43.105  32.988   5.850
 8837POPC   GL170129  43.139  33.042   6.150
 8837POPC   GL270130  43.041  32.894   6.150
 8837POPC   C1A70131  43.083  33.023   6.450
 8837POPC   D2A70132  43.063  33.013   6.750
 8837POPC   C3A70133  43.156  32.984   7.050
 8837POPC   C4A70134  43.081  33.058   7.350
 8837POPC   C1B70135  43.015  32.774   6.450
 8837POPC   C2B70136  43.079  32.816   6.750
 8837POPC   C3B70137  42.998  32.745   7.050
 8837POPC   C4B70138  43.017  32.739   7.350
 8838POPC   NC370139  22.164  39.190   5.550
 8838POPC   PO470140  22.167  39.188   5.850
 8838POPC   GL170141  22.200  39.275   6.150
 8838POPC   GL270142  22.235  39.183   6.150
 8838POPC   C1A70143  22.197  39.196   6.450
 8838POPC   D2A70144  22.166  39.249   6.750
 8838POPC   C3A70145  22.138  39.225   7.050
 8838POPC   C4A70146  22.175  39.189   7.350
 8838POPC   C1B70147  22.324  39.036   6.450
 8838POPC   C2B70148  22.354  39.043   6.750
 8838POPC   C3B70149  22.307  39.019   7.050
 8838POPC   C4B70150  22.316  39.072   7.350
 8839POPC   NC370151  12.055  29.957   5.550
 8839POPC   PO470152  12.097  29.903   5.850
 8839POPC   GL170153  12.093  29.969   6.150
 8839POPC   GL270154  12.120  30.061   6.150
 8839POPC   C1A70155  12.029  29.874   6.450
 8839POPC   D2A70156  12.027  29.941   6.750
 8839POPC   C3A70157  12.031  29.925   7.050
 8839POPC   C4A70158  12.068  29.929   7.350
 8839POPC   C1B70159  12.255  30.143   6.450
 8839POPC   C2B70160  12.233  30.078   6.750
 8839POPC   C3B70161  12.246  30.080   7.050
 8839POPC   C4B70162  12.177  30.144   7.350
 8840POPC   NC370163   8.224  22.130   5.550
 8840POPC   PO470164   8.164  22.188   5.850
 8840POPC   GL170165   8.238  22.199   6.150
 8840POPC   GL270166   8.308  22.200   6.150
 8840POPC   C1A70167   8.216  22.121   6.450
 8840POPC   D2A70168   8.228  22.121   6.750
 8840POPC   C3A70169   8.226  22.188   7.050
 8840POPC   C4A70170   8.205  22.190   7.350
 8840POPC   C1B70171   8.483  22.188   6.450
 8840POPC   C2B70172   8.470  22.211   6.750
 8840POPC   C3B70173   8.413  22.153   7.050
 8840POPC   C4B70174   8.495  22.223   7.350
 8841POPC   NC370175  15.966  31.496   5.550
 8841POPC   PO470176  15.994  31.504   5.850
 8841POPC   GL170177  15.969  31.505   6.150
 8841POPC   GL270178  15.840  31.558   6.150
 8841POPC   C1A70179  15.954  31.454   6.450
 8841POPC   D2A70180  15.965  31.487   6.750
 8841POPC   C3A70181  15.926  31.486   7.050
 8841POPC   C4A70182  15.979  31.475   7.350
 8841POPC   C1B70183  15.780  31.666   6.450
 8841POPC   C2B70184  15.774  31.649   6.750
 8841POPC   C3B70185  15.831  31.651   7.050
 8841POPC   C4B70186  15.844  31.665   7.350
 8842POPC   NC370187   8.178  19.013   5.550
 8842POPC   PO470188   8.223  19.096   5.850
 8842POPC   GL170189   8.155  19.039   6.150
 8842POPC   GL270190   8.149  19.165   6.150
 8842POPC   C1A70191   8.201  19.027   6.450
 8842POPC   D2A70192   8.228  19.098   6.750
 8842POPC   C3A70193   8.150  19.055   7.050
 8842POPC   C4A70194   8.181  19.052   7.350
 8842POPC   C1B70195   8.119  19.259   6.450
 8842POPC   C2B70196   8.148  19.292   6.750
 8842POPC   C3B70197   8.170  19.305   7.050
 8842POPC   C4B70198   8.125  19.275   7.350
 8843POPC   NC370199  36.089  38.496   5.550
 8843POPC   PO470200  36.159  38.457   5.850
 8843POPC   GL170201  36.160  38.454   6.150
 8843POPC   GL270202  36.198  38.385   6.150
 8843POPC   C1A70203  36.091  38.496   6.450
 8843POPC   D2A70204  36.079  38.458   6.750
 8843POPC   C3A70205  36.139  38.456   7.050
 8843POPC   C4A70206  36.078  38.497   7.350
 8843POPC   C1B70207  36.256  38.278   6.450
 8843POPC   C2B70208  36.258  38.284   6.750
 8843POPC   C3B70209  36.307  38.223   7.050
 8843POPC   C4B70210  36.278  38.240   7.350
 8844POPC   NC370211   6.654  26.826   5.550
 8844POPC   PO470212   6.615  26.852   5.850
 8844POPC   GL170213   6.608  26.849   6.150
 8844POPC   GL270214   6.684  26.895   6.150
 8844POPC   C1A70215   6.600  26.843   6.450
 8844POPC   D2A70216   6.636  26.791   6.750
 8844POPC   C3A70217   6.598  26.827   7.050
 8844POPC   C4A70218   6.649  26.772   7.350
 8844POPC   C1B70219   6.795  27.047   6.450
 8844POPC   C2B70220   6.849  26.977   6.750
 8844POPC   C3B70221   6.811  27.040   7.050
 8844POPC   C4B70222   6.787  26.990   7.350
 8845POPC   NC370223   1.253  39.224   5.550
 8845POPC   PO470224   1.210  39.216   5.850
 8845POPC   GL170225   1.245  39.219   6.150
 8845POPC   GL270226   1.281  39.125   6.150
 8845POPC   C1A70227   1.192  39.198   6.450
 8845POPC   D2A70228   1.196  39.249   6.750
 8845POPC   C3A70229   1.176  39.268   7.050
 8845POPC   C4A70230   1.240  39.280   7.350
 8845POPC   C1B70231   1.402  39.029   6.450
 8845POPC   C2B70232   1.385  39.113   6.750
 8845POPC   C3B70233   1.441  39.029   7.050
 8845POPC   C4B70234   1.382  39.117   7.350
 8846POPC   NC370235  35.313  44.665   5.550
 8846POPC   PO470236  35.353  44.634   5.850
 8846POPC   GL170237  35.361  44.692   6.150
 8846POPC   GL270238  35.274  44.638   6.150
 8846POPC   C1A70239  35.313  44.675   6.450
 8846POPC   D2A70240  35.388  44.662   6.750
 8846POPC   C3A70241  35.358  44.702   7.050
 8846POPC   C4A70242  35.319  44.707   7.350
 8846POPC   C1B70243  35.133  44.565   6.450
 8846POPC   C2B70244  35.160  44.622   6.750
 8846POPC   C3B70245  35.115  44.552   7.050
 8846POPC   C4B70246  35.075  44.619   7.350
 8847POPC   NC370247   5.049  11.341   5.550
 8847POPC   PO470248   5.069  11.274   5.850
 8847POPC   GL170249   5.100  11.258   6.150
 8847POPC   GL270250   5.046  11.351   6.150
 8847POPC   C1A70251   5.098  11.334   6.450
 8847POPC   D2A70252   5.080  11.297   6.750
 8847POPC   C3A70253   5.057  11.283   7.050
 8847POPC   C4A70254   5.138  11.327   7.350
 8847POPC   C1B70255   4.922  11.455   6.450
 8847POPC   C2B70256   4.913  11.433   6.750
 8847POPC   C3B70257   4.912  11.478   7.050
 8847POPC   C4B70258   4.954  11.496   7.350
 8848POPC   NC370259   9.797   8.205   5.550
 8848POPC   PO470260   9.789   8.219   5.850
 8848POPC   GL170261   9.699   8.166   6.150
 8848POPC   GL270262   9.602   8.163   6.150
 8848POPC   C1A70263   9.776   8.155   6.450
 8848POPC   D2A70264   9.791   8.181   6.750
 8848POPC   C3A70265   9.706   8.199   7.050
 8848POPC   C4A70266   9.741   8.177   7.350
 8848POPC   C1B70267   9.545   8.104   6.450
 8848POPC   C2B70268   9.500   8.081   6.750
 8848POPC   C3B70269   9.544   8.084   7.050
 8848POPC   C4B70270   9.553   8.143   7.350
 8849POPC   NC370271   9.793  29.102   5.550
 8849POPC   PO470272   9.744  29.123   5.850
 8849POPC   GL170273   9.754  29.177   6.150
 8849POPC   GL270274   9.823  29.150   6.150
 8849POPC   C1A70275   9.703  29.098   6.450
 8849POPC   D2A70276   9.743  29.179   6.750
 8849POPC   C3A70277   9.723  29.129   7.050
 8849POPC   C4A70278   9.752  29.162   7.350
 8849POPC   C1B70279  10.027  29.160   6.450
 8849POPC   C2B70280  10.042  29.162   6.750
 8849POPC   C3B70281  10.008  29.159   7.050
 8849POPC   C4B70282  10.034  29.222   7.350
 8850POPC   NC370283  29.122  31.473   5.550
 8850POPC   PO470284  29.157  31.507   5.850
 8850POPC   GL170285  29.161  31.487   6.150
 8850POPC   GL270286  29.046  31.412   6.150
 8850POPC   C1A70287  29.152  31.467   6.450
 8850POPC   D2A70288  29.126  31.499   6.750
 8850POPC   C3A70289  29.189  31.459   7.050
 8850POPC   C4A70290  29.121  31.462   7.350
 8850POPC   C1B70291  28.910  31.325   6.450
 8850POPC   C2B70292  28.933  31.269   6.750
 8850POPC   C3B70293  28.926  31.324   7.050
 8850POPC   C4B70294  28.908  31.302   7.350
 8851POPC   NC370295  27.607  19.796   5.550
 8851POPC   PO470296  27.603  19.786   5.850
 8851POPC   GL170297  27.612  19.785   6.150
 8851POPC   GL270298  27.652  19.702   6.150
 8851POPC   C1A70299  27.569  19.792   6.450
 8851POPC   D2A70300  27.554  19.805   6.750
 8851POPC   C3A70301  27.600  19.881   7.050
 8851POPC   C4A70302  27.595  19.873   7.350
 8851POPC   C1B70303  27.692  19.643   6.450
 8851POPC   C2B70304  27.627  19.573   6.750
 8851POPC   C3B70305  27.626  19.549   7.050
 8851POPC   C4B70306  27.625  19.571   7.350
 8852POPC   NC370307   2.761  28.382   5.550
 8852POPC   PO470308   2.735  28.356   5.850
 8852POPC   GL170309   2.735  28.396   6.150
 8852POPC   GL270310   2.719  28.513   6.150
 8852POPC   C1A70311   2.790  28.341   6.450
 8852POPC   D2A70312   2.802  28.372   6.750
 8852POPC   C3A70313   2.763  28.352   7.050
 8852POPC   C4A70314   2.725  28.345   7.350
 8852POPC   C1B70315   2.759  28.597   6.450
 8852POPC   C2B70316   2.798  28.596   6.750
 8852POPC   C3B70317   2.779  28.656   7.050
 8852POPC   C4B70318   2.779  28.666   7.350
 8853POPC   NC370319  12.890  29.922   5.550
 8853POPC   PO470320  12.843  29.959   5.850
 8853POPC   GL170321  12.880  29.923   6.150
 8853POPC   GL270322  12.884  30.044   6.150
 8853POPC   C1A70323  12.811  29.923   6.450
 8853POPC   D2A70324  12.886  29.939   6.750
 8853POPC   C3A70325  12.877  29.891   7.050
 8853POPC   C4A70326  12.875  29.939   7.350
 8853POPC   C1B70327  12.948  30.109   6.450
 8853POPC   C2B70328  12.989  30.188   6.750
 8853POPC   C3B70329  12.964  30.123   7.050
 8853POPC   C4B70330  13.003  30.194   7.350
 8854POPC   NC370331  12.847  26.857   5.550
 8854POPC   PO470332  12.805  26.824   5.850
 8854POPC   GL170333  12.835  26.806   6.150
 8854POPC   GL270334  12.793  26.684   6.150
 8854POPC   C1A70335  12.819  26.858   6.450
 8854POPC   D2A70336  12.885  26.787   6.750
 8854POPC   C3A70337  12.825  26.836   7.050
 8854POPC   C4A70338  12.836  26.845   7.350
 8854POPC   C1B70339  12.824  26.546   6.450
 8854POPC   C2B70340  12.771  26.585   6.750
 8854POPC   C3B70341  12.765  26.533   7.050
 8854POPC   C4B70342  12.813  26.596   7.350
 8855POPC   NC370343   1.173   5.854   5.550
 8855POPC   PO470344   1.249   5.821   5.850
 8855POPC   GL170345   1.177   5.882   6.150
 8855POPC   GL270346   1.065   5.896   6.150
 8855POPC   C1A70347   1.245   5.868   6.450
 8855POPC   D2A70348   1.214   5.825   6.750
 8855POPC   C3A70349   1.199   5.821   7.050
 8855POPC   C4A70350   1.186   5.834   7.350
 8855POPC   C1B70351   0.918   5.871   6.450
 8855POPC   C2B70352   1.013   5.922   6.750
 8855POPC   C3B70353   0.998   5.921   7.050
 8855POPC   C4B70354   0.929   5.855   7.350
 8856POPC   NC370355   2.778  43.101   5.550
 8856POPC   PO470356   2.789  43.108   5.850
 8856POPC   GL170357   2.802  43.072   6.150
 8856POPC   GL270358   2.828  43.244   6.150
 8856POPC   C1A70359   2.739  43.096   6.450
 8856POPC   D2A70360   2.796  43.121   6.750
 8856POPC   C3A70361   2.781  43.090   7.050
 8856POPC   C4A70362   2.789  43.124   7.350
 8856POPC   C1B70363   2.935  43.297   6.450
 8856POPC   C2B70364   2.856  43.288   6.750
 8856POPC   C3B70365   2.890  43.282   7.050
 8856POPC   C4B70366   2.912  43.299   7.350
 8857POPC   NC370367  26.058  11.269   5.550
 8857POPC   PO470368  26.046  11.256   5.850
 8857POPC   GL170369  26.021  11.324   6.150
 8857POPC   GL270370  26.076  11.130   6.150
 8857POPC   C1A70371  26.008  11.291   6.450
 8857POPC   D2A70372  25.997  11.334   6.750
 8857POPC   C3A70373  26.066  11.342   7.050
 8857POPC   C4A70374  26.083  11.346   7.350
 8857POPC   C1B70375  26.035  11.015   6.450
 8857POPC   C2B70376  26.086  11.098   6.750
 8857POPC   C3B70377  26.055  11.052   7.050
 8857POPC   C4B70378  26.073  11.073   7.350
 8858POPC   NC370379   2.023  41.547   5.550
 8858POPC   PO470380   2.009  41.573   5.850
 8858POPC   GL170381   2.035  41.554   6.150
 8858POPC   GL270382   1.906  41.546   6.150
 8858POPC   C1A70383   1.975  41.598   6.450
 8858POPC   D2A70384   1.989  41.593   6.750
 8858POPC   C3A70385   1.974  41.545   7.050
 8858POPC   C4A70386   1.974  41.533   7.350
 8858POPC   C1B70387   1.733  41.531   6.450
 8858POPC   C2B70388   1.757  41.468   6.750
 8858POPC   C3B70389   1.793  41.545   7.050
 8858POPC   C4B70390   1.742  41.488   7.350
 8859POPC   NC370391  11.299  29.173   5.550
 8859POPC   PO470392  11.256  29.130   5.850
 8859POPC   GL170393  11.321  29.105   6.150
 8859POPC   GL270394  11.439  29.126   6.150
 8859POPC   C1A70395  11.308  29.124   6.450
 8859POPC   D2A70396  11.317  29.120   6.750
 8859POPC   C3A70397  11.255  29.164   7.050
 8859POPC   C4A70398  11.293  29.151   7.350
 8859POPC   C1B70399  11.512  28.988   6.450
 8859POPC   C2B70400  11.500  28.985   6.750
 8859POPC   C3B70401  11.533  29.015   7.050
 8859POPC   C4B70402  11.505  29.021   7.350
 8860POPC   NC370403  12.098  15.990   5.550
 8860POPC   PO470404  12.090  15.934   5.850
 8860POPC   GL170405  12.119  15.988   6.150
 8860POPC   GL270406  12.091  16.095   6.150
 8860POPC   C1A70407  12.111  15.993   6.450
 8860POPC   D2A70408  12.108  15.922   6.750
 8860POPC   C3A70409  12.092  15.969   7.050
 8860POPC   C4A70410  12.122  15.949   7.350
 8860POPC   C1B70411  12.193  16.146   6.450
 8860POPC   C2B70412  12.185  16.222   6.750
 8860POPC   C3B70413  12.140  16.156   7.050
 8860POPC   C4B70414  12.151  16.205   7.350
 8861POPC   NC370415  38.495  21.350   5.550
 8861POPC   PO470416  38.461  21.403   5.850
 8861POPC   GL170417  38.498  21.341   6.150
 8861POPC   GL270418  38.405  21.465   6.150
 8861POPC   C1A70419  38.486  21.394   6.450
 8861POPC   D2A70420  38.464  21.434   6.750
 8861POPC   C3A70421  38.446  21.342   7.050
 8861POPC   C4A70422  38.501  21.411   7.350
 8861POPC   C1B70423  38.454  21.667   6.450
 8861POPC   C2B70424  38.396  21.633   6.750
 8861POPC   C3B70425  38.448  21.601   7.050
 8861POPC   C4B70426  38.447  21.633   7.350
 8862POPC   NC370427  32.280  12.865   5.550
 8862POPC   PO470428  32.275  12.831   5.850
 8862POPC   GL170429  32.265  12.813   6.150
 8862POPC   GL270430  32.338  12.819   6.150
 8862POPC   C1A70431  32.256  12.816   6.450
 8862POPC   D2A70432  32.202  12.843   6.750
 8862POPC   C3A70433  32.252  12.876   7.050
 8862POPC   C4A70434  32.255  12.881   7.350
 8862POPC   C1B70435  32.431  12.725   6.450
 8862POPC   C2B70436  32.518  12.791   6.750
 8862POPC   C3B70437  32.477  12.731   7.050
 8862POPC   C4B70438  32.494  12.733   7.350
 8863POPC   NC370439  43.109  26.020   5.550
 8863POPC   PO470440  43.101  25.997   5.850
 8863POPC   GL170441  43.120  26.021   6.150
 8863POPC   GL270442  42.985  26.043   6.150
 8863POPC   C1A70443  43.127  26.078   6.450
 8863POPC   D2A70444  43.118  26.014   6.750
 8863POPC   C3A70445  43.105  26.018   7.050
 8863POPC   C4A70446  43.122  26.026   7.350
 8863POPC   C1B70447  42.834  26.102   6.450
 8863POPC   C2B70448  42.883  26.148   6.750
 8863POPC   C3B70449  42.921  26.129   7.050
 8863POPC   C4B70450  42.841  26.153   7.350
 8864POPC   NC370451   1.947   2.010   5.550
 8864POPC   PO470452   2.006   1.959   5.850
 8864POPC   GL170453   2.033   2.025   6.150
 8864POPC   GL270454   2.068   1.882   6.150
 8864POPC   C1A70455   2.013   1.962   6.450
 8864POPC   D2A70456   2.028   1.956   6.750
 8864POPC   C3A70457   2.011   1.986   7.050
 8864POPC   C4A70458   2.016   2.010   7.350
 8864POPC   C1B70459   2.107   1.806   6.450
 8864POPC   C2B70460   2.079   1.817   6.750
 8864POPC   C3B70461   2.081   1.800   7.050
 8864POPC   C4B70462   2.124   1.779   7.350
 8865POPC   NC370463  44.694  37.729   5.550
 8865POPC   PO470464  44.615  37.634   5.850
 8865POPC   GL170465  44.692  37.646   6.150
 8865POPC   GL270466  44.601  37.815   6.150
 8865POPC   C1A70467  44.692  37.636   6.450
 8865POPC   D2A70468  44.660  37.708   6.750
 8865POPC   C3A70469  44.613  37.631   7.050
 8865POPC   C4A70470  44.698  37.629   7.350
 8865POPC   C1B70471  44.496  37.823   6.450
 8865POPC   C2B70472  44.545  37.835   6.750
 8865POPC   C3B70473  44.541  37.894   7.050
 8865POPC   C4B70474  44.540  37.881   7.350
 8866POPC   NC370475  41.518  16.690   5.550
 8866POPC   PO470476  41.530  16.747   5.850
 8866POPC   GL170477  41.549  16.709   6.150
 8866POPC   GL270478  41.552  16.652   6.150
 8866POPC   C1A70479  41.544  16.776   6.450
 8866POPC   D2A70480  41.597  16.745   6.750
 8866POPC   C3A70481  41.542  16.722   7.050
 8866POPC   C4A70482  41.542  16.732   7.350
 8866POPC   C1B70483  41.421  16.505   6.450
 8866POPC   C2B70484  41.427  16.455   6.750
 8866POPC   C3B70485  41.451  16.526   7.050
 8866POPC   C4B70486  41.477  16.525   7.350
 8867POPC   NC370487  17.544  17.538   5.550
 8867POPC   PO470488  17.545  17.540   5.850
 8867POPC   GL170489  17.480  17.518   6.150
 8867POPC   GL270490  17.446  17.597   6.150
 8867POPC   C1A70491  17.463  17.506   6.450
 8867POPC   D2A70492  17.478  17.462   6.750
 8867POPC   C3A70493  17.459  17.532   7.050
 8867POPC   C4A70494  17.491  17.508   7.350
 8867POPC   C1B70495  17.359  17.642   6.450
 8867POPC   C2B70496  17.279  17.633   6.750
 8867POPC   C3B70497  17.362  17.720   7.050
 8867POPC   C4B70498  17.325  17.639   7.350
 8868POPC   NC370499  44.672  11.299   5.550
 8868POPC   PO470500  44.693  11.326   5.850
 8868POPC   GL170501  44.663  11.326   6.150
 8868POPC   GL270502  44.747  11.387   6.150
 8868POPC   C1A70503  44.712  11.333   6.450
 8868POPC   D2A70504  44.646  11.327   6.750
 8868POPC   C3A70505  44.673  11.263   7.050
 8868POPC   C4A70506  44.668  11.331   7.350
 8868POPC   C1B70507  44.897  11.356   6.450
 8868POPC   C2B70508  44.901  11.383   6.750
 8868POPC   C3B70509  44.856  11.378   7.050
 8868POPC   C4B70510  44.867  11.379   7.350
 8869POPC   NC370511  32.234   2.007   5.550
 8869POPC   PO470512  32.289   1.948   5.850
 8869POPC   GL170513  32.281   2.000   6.150
 8869POPC   GL270514  32.276   2.103   6.150
 8869POPC   C1A70515  32.239   2.030   6.450
 8869POPC   D2A70516  32.215   1.988   6.750
 8869POPC   C3A70517  32.290   2.022   7.050
 8869POPC   C4A70518  32.252   1.980   7.350
 8869POPC   C1B70519  32.266   2.261   6.450
 8869POPC   C2B70520  32.251   2.239   6.750
 8869POPC   C3B70521  32.236   2.259   7.050
 8869POPC   C4B70522  32.235   2.197   7.350
 8870POPC   NC370523  26.862   9.723   5.550
 8870POPC   PO470524  26.827   9.717   5.850
 8870POPC   GL170525  26.790   9.744   6.150
 8870POPC   GL270526  26.772   9.826   6.150
 8870POPC   C1A70527  26.814   9.796   6.450
 8870POPC   D2A70528  26.864   9.718   6.750
 8870POPC   C3A70529  26.834   9.745   7.050
 8870POPC   C4A70530  26.767   9.716   7.350
 8870POPC   C1B70531  26.611   9.902   6.450
 8870POPC   C2B70532  26.682   9.900   6.750
 8870POPC   C3B70533  26.600   9.962   7.050
 8870POPC   C4B70534  26.641   9.953   7.350
 8871POPC   NC370535  28.348  42.291   5.550
 8871POPC   PO470536  28.334  42.349   5.850
 8871POPC   GL170537  28.320  42.302   6.150
 8871POPC   GL270538  28.350  42.247   6.150
 8871POPC   C1A70539  28.350  42.310   6.450
 8871POPC   D2A70540  28.332  42.294   6.750
 8871POPC   C3A70541  28.410  42.332   7.050
 8871POPC   C4A70542  28.332  42.352   7.350
 8871POPC   C1B70543  28.387  42.080   6.450
 8871POPC   C2B70544  28.407  42.056   6.750
 8871POPC   C3B70545  28.372  42.113   7.050
 8871POPC   C4B70546  28.332  42.115   7.350
 8872POPC   NC370547  17.548  30.719   5.550
 8872POPC   PO470548  17.469  30.717   5.850
 8872POPC   GL170549  17.510  30.737   6.150
 8872POPC   GL270550  17.476  30.771   6.150
 8872POPC   C1A70551  17.505  30.662   6.450
 8872POPC   D2A70552  17.554  30.653   6.750
 8872POPC   C3A70553  17.467  30.723   7.050
 8872POPC   C4A70554  17.526  30.663   7.350
 8872POPC   C1B70555  17.471  30.924   6.450
 8872POPC   C2B70556  17.403  30.922   6.750
 8872POPC   C3B70557  17.480  30.894   7.050
 8872POPC   C4B70558  17.458  30.898   7.350
 8873POPC   NC370559  35.313  10.477   5.550
 8873POPC   PO470560  35.308  10.512   5.850
 8873POPC   GL170561  35.322  10.489   6.150
 8873POPC   GL270562  35.341  10.696   6.150
 8873POPC   C1A70563  35.399  10.504   6.450
 8873POPC   D2A70564  35.388  10.481   6.750
 8873POPC   C3A70565  35.330  10.488   7.050
 8873POPC   C4A70566  35.377  10.545   7.350
 8873POPC   C1B70567  35.328  10.768   6.450
 8873POPC   C2B70568  35.306  10.782   6.750
 8873POPC   C3B70569  35.370  10.815   7.050
 8873POPC   C4B70570  35.350  10.753   7.350
 8874POPC   NC370571  43.119   3.504   5.550
 8874POPC   PO470572  43.088   3.500   5.850
 8874POPC   GL170573  43.061   3.589   6.150
 8874POPC   GL270574  43.212   3.618   6.150
 8874POPC   C1A70575  43.130   3.492   6.450
 8874POPC   D2A70576  43.160   3.505   6.750
 8874POPC   C3A70577  43.137   3.551   7.050
 8874POPC   C4A70578  43.123   3.509   7.350
 8874POPC   C1B70579  43.314   3.631   6.450
 8874POPC   C2B70580  43.314   3.675   6.750
 8874POPC   C3B70581  43.378   3.639   7.050
 8874POPC   C4B70582  43.312   3.625   7.350
 8875POPC   NC370583  36.889  24.467   5.550
 8875POPC   PO470584  36.886  24.456   5.850
 8875POPC   GL170585  36.899  24.445   6.150
 8875POPC   GL270586  36.914  24.619   6.150
 8875POPC   C1A70587  36.872  24.441   6.450
 8875POPC   D2A70588  36.905  24.444   6.750
 8875POPC   C3A70589  36.891  24.501   7.050
 8875POPC   C4A70590  36.914  24.451   7.350
 8875POPC   C1B70591  36.923  24.741   6.450
 8875POPC   C2B70592  36.913  24.770   6.750
 8875POPC   C3B70593  36.908  24.750   7.050
 8875POPC   C4B70594  36.974  24.719   7.350
 8876POPC   NC370595  30.745  10.548   5.550
 8876POPC   PO470596  30.701  10.487   5.850
 8876POPC   GL170597  30.663  10.566   6.150
 8876POPC   GL270598  30.732  10.415   6.150
 8876POPC   C1A70599  30.711  10.512   6.450
 8876POPC   D2A70600  30.703  10.503   6.750
 8876POPC   C3A70601  30.663  10.496   7.050
 8876POPC   C4A70602  30.647  10.500   7.350
 8876POPC   C1B70603  30.776  10.330   6.450
 8876POPC   C2B70604  30.862  10.333   6.750
 8876POPC   C3B70605  30.826  10.355   7.050
 8876POPC   C4B70606  30.837  10.335   7.350
 8877POPC   NC370607  19.035   3.520   5.550
 8877POPC   PO470608  19.065   3.501   5.850
 8877POPC   GL170609  19.037   3.542   6.150
 8877POPC   GL270610  18.941   3.436   6.150
 8877POPC   C1A70611  19.037   3.563   6.450
 8877POPC   D2A70612  19.101   3.540   6.750
 8877POPC   C3A70613  19.096   3.519   7.050
 8877POPC   C4A70614  19.040   3.509   7.350
 8877POPC   C1B70615  18.934   3.351   6.450
 8877POPC   C2B70616  18.953   3.302   6.750
 8877POPC   C3B70617  18.968   3.366   7.050
 8877POPC   C4B70618  18.914   3.348   7.350
 8878POPC   NC370619   2.731  29.097   5.550
 8878POPC   PO470620   2.764  29.134   5.850
 8878POPC   GL170621   2.741  29.163   6.150
 8878POPC   GL270622   2.870  29.055   6.150
 8878POPC   C1A70623   2.761  29.102   6.450
 8878POPC   D2A70624   2.786  29.189   6.750
 8878POPC   C3A70625   2.742  29.185   7.050
 8878POPC   C4A70626   2.734  29.137   7.350
 8878POPC   C1B70627   2.900  28.934   6.450
 8878POPC   C2B70628   2.879  28.962   6.750
 8878POPC   C3B70629   2.932  28.972   7.050
 8878POPC   C4B70630   2.853  28.894   7.350
 8879POPC   NC370631  12.805  36.883   5.550
 8879POPC   PO470632  12.824  36.947   5.850
 8879POPC   GL170633  12.869  36.915   6.150
 8879POPC   GL270634  12.969  36.965   6.150
 8879POPC   C1A70635  12.865  36.856   6.450
 8879POPC   D2A70636  12.890  36.893   6.750
 8879POPC   C3A70637  12.893  36.940   7.050
 8879POPC   C4A70638  12.894  36.912   7.350
 8879POPC   C1B70639  13.068  36.984   6.450
 8879POPC   C2B70640  13.134  36.891   6.750
 8879POPC   C3B70641  13.067  36.959   7.050
 8879POPC   C4B70642  13.142  36.958   7.350
 8880POPC   NC370643  43.901  33.808   5.550
 8880POPC   PO470644  43.892  33.761   5.850
 8880POPC   GL170645  43.900  33.774   6.150
 8880POPC   GL270646  44.030  33.855   6.150
 8880POPC   C1A70647  43.843  33.790   6.450
 8880POPC   D2A70648  43.932  33.775   6.750
 8880POPC   C3A70649  43.876  33.803   7.050
 8880POPC   C4A70650  43.879  33.820   7.350
 8880POPC   C1B70651  44.173  33.799   6.450
 8880POPC   C2B70652  44.131  33.813   6.750
 8880POPC   C3B70653  44.173  33.791   7.050
 8880POPC   C4B70654  44.114  33.797   7.350
 8881POPC   NC370655  19.011  28.380   5.550
 8881POPC   PO470656  19.059  28.340   5.850
 8881POPC   GL170657  19.095  28.367   6.150
 8881POPC   GL270658  18.964  28.338   6.150
 8881POPC   C1A70659  19.088  28.392   6.450
 8881POPC   D2A70660  19.098  28.399   6.750
 8881POPC   C3A70661  19.076  28.345   7.050
 8881POPC   C4A70662  19.074  28.380   7.350
 8881POPC   C1B70663  18.857  28.279   6.450
 8881POPC   C2B70664  18.807  28.318   6.750
 8881POPC   C3B70665  18.787  28.282   7.050
 8881POPC   C4B70666  18.847  28.355   7.350
 8882POPC   NC370667  29.886  41.570   5.550
 8882POPC   PO470668  29.940  41.601   5.850
 8882POPC   GL170669  29.874  41.581   6.150
 8882POPC   GL270670  29.797  41.525   6.150
 8882POPC   C1A70671  29.888  41.572   6.450
 8882POPC   D2A70672  29.923  41.586   6.750
 8882POPC   C3A70673  29.932  41.546   7.050
 8882POPC   C4A70674  29.970  41.556   7.350
 8882POPC   C1B70675  29.663  41.590   6.450
 8882POPC   C2B70676  29.681  41.531   6.750
 8882POPC   C3B70677  29.635  41.569   7.050
 8882POPC   C4B70678  29.657  41.555   7.350
 8883POPC   NC370679  28.365  29.131   5.550
 8883POPC   PO470680  28.339  29.184   5.850
 8883POPC   GL170681  28.340  29.133   6.150
 8883POPC   GL270682  28.239  29.256   6.150
 8883POPC   C1A70683  28.330  29.151   6.450
 8883POPC   D2A70684  28.352  29.195   6.750
 8883POPC   C3A70685  28.409  29.113   7.050
 8883POPC   C4A70686  28.342  29.170   7.350
 8883POPC   C1B70687  28.221  29.279   6.450
 8883POPC   C2B70688  28.194  29.329   6.750
 8883POPC   C3B70689  28.199  29.346   7.050
 8883POPC   C4B70690  28.212  29.331   7.350
 8884POPC   NC370691  39.256  23.728   5.550
 8884POPC   PO470692  39.278  23.714   5.850
 8884POPC   GL170693  39.199  23.745   6.150
 8884POPC   GL270694  39.143  23.647   6.150
 8884POPC   C1A70695  39.260  23.700   6.450
 8884POPC   D2A70696  39.230  23.705   6.750
 8884POPC   C3A70697  39.194  23.683   7.050
 8884POPC   C4A70698  39.192  23.762   7.350
 8884POPC   C1B70699  39.000  23.581   6.450
 8884POPC   C2B70700  38.954  23.605   6.750
 8884POPC   C3B70701  39.033  23.659   7.050
 8884POPC   C4B70702  38.991  23.640   7.350
 8885POPC   NC370703  14.375  15.906   5.550
 8885POPC   PO470704  14.398  15.928   5.850
 8885POPC   GL170705  14.436  15.978   6.150
 8885POPC   GL270706  14.495  16.045   6.150
 8885POPC   C1A70707  14.432  15.951   6.450
 8885POPC   D2A70708  14.403  15.995   6.750
 8885POPC   C3A70709  14.438  15.943   7.050
 8885POPC   C4A70710  14.400  15.931   7.350
 8885POPC   C1B70711  14.675  16.094   6.450
 8885POPC   C2B70712  14.676  16.000   6.750
 8885POPC   C3B70713  14.677  16.023   7.050
 8885POPC   C4B70714  14.650  16.060   7.350
 8886POPC   NC370715  15.961  33.041   5.550
 8886POPC   PO470716  15.930  33.072   5.850
 8886POPC   GL170717  15.948  33.067   6.150
 8886POPC   GL270718  15.829  33.006   6.150
 8886POPC   C1A70719  15.982  33.024   6.450
 8886POPC   D2A70720  15.935  33.011   6.750
 8886POPC   C3A70721  15.971  33.052   7.050
 8886POPC   C4A70722  15.917  32.992   7.350
 8886POPC   C1B70723  15.764  32.883   6.450
 8886POPC   C2B70724  15.685  32.879   6.750
 8886POPC   C3B70725  15.771  32.902   7.050
 8886POPC   C4B70726  15.689  32.888   7.350
 8887POPC   NC370727  42.338  40.048   5.550
 8887POPC   PO470728  42.352  40.020   5.850
 8887POPC   GL170729  42.301  39.997   6.150
 8887POPC   GL270730  42.362  39.927   6.150
 8887POPC   C1A70731  42.342  39.977   6.450
 8887POPC   D2A70732  42.372  39.989   6.750
 8887POPC   C3A70733  42.321  40.039   7.050
 8887POPC   C4A70734  42.382  39.982   7.350
 8887POPC   C1B70735  42.485  39.769   6.450
 8887POPC   C2B70736  42.484  39.749   6.750
 8887POPC   C3B70737  42.461  39.815   7.050
 8887POPC   C4B70738  42.481  39.740   7.350
 8888POPC   NC370739  39.271  17.554   5.550
 8888POPC   PO470740  39.232  17.479   5.850
 8888POPC   GL170741  39.227  17.496   6.150
 8888POPC   GL270742  39.325  17.525   6.150
 8888POPC   C1A70743  39.281  17.548   6.450
 8888POPC   D2A70744  39.228  17.538   6.750
 8888POPC   C3A70745  39.274  17.499   7.050
 8888POPC   C4A70746  39.195  17.530   7.350
 8888POPC   C1B70747  39.421  17.650   6.450
 8888POPC   C2B70748  39.421  17.683   6.750
 8888POPC   C3B70749  39.412  17.667   7.050
 8888POPC   C4B70750  39.487  17.668   7.350
 8889POPC   NC370751  17.505  13.612   5.550
 8889POPC   PO470752  17.546  13.634   5.850
 8889POPC   GL170753  17.509  13.660   6.150
 8889POPC   GL270754  17.470  13.527   6.150
 8889POPC   C1A70755  17.517  13.642   6.450
 8889POPC   D2A70756  17.529  13.650   6.750
 8889POPC   C3A70757  17.549  13.614   7.050
 8889POPC   C4A70758  17.531  13.656   7.350
 8889POPC   C1B70759  17.535  13.334   6.450
 8889POPC   C2B70760  17.536  13.367   6.750
 8889POPC   C3B70761  17.550  13.340   7.050
 8889POPC   C4B70762  17.558  13.428   7.350
 8890POPC   NC370763  31.479  33.070   5.550
 8890POPC   PO470764  31.437  33.032   5.850
 8890POPC   GL170765  31.507  33.070   6.150
 8890POPC   GL270766  31.548  33.119   6.150
 8890POPC   C1A70767  31.475  32.990   6.450
 8890POPC   D2A70768  31.426  33.014   6.750
 8890POPC   C3A70769  31.482  33.042   7.050
 8890POPC   C4A70770  31.440  33.042   7.350
 8890POPC   C1B70771  31.738  33.110   6.450
 8890POPC   C2B70772  31.724  33.124   6.750
 8890POPC   C3B70773  31.701  33.110   7.050
 8890POPC   C4B70774  31.740  33.143   7.350
 8891POPC   NC370775   1.227   7.447   5.550
 8891POPC   PO470776   1.170   7.378   5.850
 8891POPC   GL170777   1.233   7.405   6.150
 8891POPC   GL270778   1.236   7.588   6.150
 8891POPC   C1A70779   1.202   7.397   6.450
 8891POPC   D2A70780   1.246   7.461   6.750
 8891POPC   C3A70781   1.183   7.383   7.050
 8891POPC   C4A70782   1.236   7.402   7.350
 8891POPC   C1B70783   1.263   7.677   6.450
 8891POPC   C2B70784   1.174   7.685   6.750
 8891POPC   C3B70785   1.167   7.683   7.050
 8891POPC   C4B70786   1.209   7.699   7.350
 8892POPC   NC370787  14.375  43.150   5.550
 8892POPC   PO470788  14.407  43.088   5.850
 8892POPC   GL170789  14.399  43.094   6.150
 8892POPC   GL270790  14.455  43.013   6.150
 8892POPC   C1A70791  14.378  43.091   6.450
 8892POPC   D2A70792  14.418  43.134   6.750
 8892POPC   C3A70793  14.377  43.064   7.050
 8892POPC   C4A70794  14.387  43.082   7.350
 8892POPC   C1B70795  14.556  42.880   6.450
 8892POPC   C2B70796  14.529  42.936   6.750
 8892POPC   C3B70797  14.577  42.919   7.050
 8892POPC   C4B70798  14.511  42.859   7.350
 8893POPC   NC370799  38.489  43.136   5.550
 8893POPC   PO470800  38.456  43.069   5.850
 8893POPC   GL170801  38.478  43.143   6.150
 8893POPC   GL270802  38.463  43.244   6.150
 8893POPC   C1A70803  38.422  43.151   6.450
 8893POPC   D2A70804  38.493  43.068   6.750
 8893POPC   C3A70805  38.460  43.088   7.050
 8893POPC   C4A70806  38.478  43.108   7.350
 8893POPC   C1B70807  38.583  43.311   6.450
 8893POPC   C2B70808  38.514  43.333   6.750
 8893POPC   C3B70809  38.554  43.314   7.050
 8893POPC   C4B70810  38.515  43.372   7.350
 8894POPC   NC370811  13.647  34.586   5.550
 8894POPC   PO470812  13.582  34.542   5.850
 8894POPC   GL170813  13.629  34.601   6.150
 8894POPC   GL270814  13.557  34.512   6.150
 8894POPC   C1A70815  13.579  34.527   6.450
 8894POPC   D2A70816  13.633  34.612   6.750
 8894POPC   C3A70817  13.653  34.528   7.050
 8894POPC   C4A70818  13.585  34.625   7.350
 8894POPC   C1B70819  13.568  34.385   6.450
 8894POPC   C2B70820  13.471  34.337   6.750
 8894POPC   C3B70821  13.570  34.332   7.050
 8894POPC   C4B70822  13.565  34.309   7.350
 8895POPC   NC370823   2.764  22.890   5.550
 8895POPC   PO470824   2.724  22.955   5.850
 8895POPC   GL170825   2.774  22.927   6.150
 8895POPC   GL270826   2.733  23.069   6.150
 8895POPC   C1A70827   2.716  22.963   6.450
 8895POPC   D2A70828   2.811  22.906   6.750
 8895POPC   C3A70829   2.814  22.975   7.050
 8895POPC   C4A70830   2.810  22.951   7.350
 8895POPC   C1B70831   2.602  23.101   6.450
 8895POPC   C2B70832   2.579  23.164   6.750
 8895POPC   C3B70833   2.606  23.174   7.050
 8895POPC   C4B70834   2.608  23.128   7.350
 8896POPC   NC370835  23.696   8.975   5.550
 8896POPC   PO470836  23.694   8.927   5.850
 8896POPC   GL170837  23.705   8.990   6.150
 8896POPC   GL270838  23.779   8.923   6.150
 8896POPC   C1A70839  23.668   8.943   6.450
 8896POPC   D2A70840  23.694   8.943   6.750
 8896POPC   C3A70841  23.733   8.958   7.050
 8896POPC   C4A70842  23.758   9.009   7.350
 8896POPC   C1B70843  23.880   8.749   6.450
 8896POPC   C2B70844  23.856   8.778   6.750
 8896POPC   C3B70845  23.910   8.769   7.050
 8896POPC   C4B70846  23.911   8.754   7.350
 8897POPC   NC370847  42.346  43.091   5.550
 8897POPC   PO470848  42.342  43.083   5.850
 8897POPC   GL170849  42.374  43.074   6.150
 8897POPC   GL270850  42.474  43.161   6.150
 8897POPC   C1A70851  42.321  43.144   6.450
 8897POPC   D2A70852  42.297  43.122   6.750
 8897POPC   C3A70853  42.292  43.093   7.050
 8897POPC   C4A70854  42.304  43.114   7.350
 8897POPC   C1B70855  42.550  43.255   6.450
 8897POPC   C2B70856  42.547  43.213   6.750
 8897POPC   C3B70857  42.606  43.201   7.050
 8897POPC   C4B70858  42.531  43.201   7.350
 8898POPC   NC370859  30.711  17.492   5.550
 8898POPC   PO470860  30.725  17.551   5.850
 8898POPC   GL170861  30.675  17.551   6.150
 8898POPC   GL270862  30.803  17.527   6.150
 8898POPC   C1A70863  30.680  17.513   6.450
 8898POPC   D2A70864  30.713  17.553   6.750
 8898POPC   C3A70865  30.698  17.518   7.050
 8898POPC   C4A70866  30.678  17.553   7.350
 8898POPC   C1B70867  30.901  17.523   6.450
 8898POPC   C2B70868  30.930  17.524   6.750
 8898POPC   C3B70869  30.932  17.511   7.050
 8898POPC   C4B70870  30.896  17.520   7.350
 8899POPC   NC370871  11.304  32.205   5.550
 8899POPC   PO470872  11.273  32.278   5.850
 8899POPC   GL170873  11.255  32.281   6.150
 8899POPC   GL270874  11.295  32.158   6.150
 8899POPC   C1A70875  11.323  32.237   6.450
 8899POPC   D2A70876  11.299  32.248   6.750
 8899POPC   C3A70877  11.299  32.200   7.050
 8899POPC   C4A70878  11.316  32.214   7.350
 8899POPC   C1B70879  11.355  31.999   6.450
 8899POPC   C2B70880  11.409  31.972   6.750
 8899POPC   C3B70881  11.401  32.012   7.050
 8899POPC   C4B70882  11.394  32.035   7.350
 8900POPC   NC370883  25.217  37.701   5.550
 8900POPC   PO470884  25.265  37.649   5.850
 8900POPC   GL170885  25.254  37.706   6.150
 8900POPC   GL270886  25.146  37.783   6.150
 8900POPC   C1A70887  25.260  37.719   6.450
 8900POPC   D2A70888  25.291  37.644   6.750
 8900POPC   C3A70889  25.297  37.658   7.050
 8900POPC   C4A70890  25.233  37.632   7.350
 8900POPC   C1B70891  25.116  37.860   6.450
 8900POPC   C2B70892  25.112  37.868   6.750
 8900POPC   C3B70893  25.112  37.919   7.050
 8900POPC   C4B70894  25.122  37.893   7.350
 8901POPC   NC370895  38.432  38.444   5.550
 8901POPC   PO470896  38.447  38.489   5.850
 8901POPC   GL170897  38.411  38.450   6.150
 8901POPC   GL270898  38.316  38.358   6.150
 8901POPC   C1A70899  38.424  38.466   6.450
 8901POPC   D2A70900  38.451  38.451   6.750
 8901POPC   C3A70901  38.451  38.433   7.050
 8901POPC   C4A70902  38.425  38.409   7.350
 8901POPC   C1B70903  38.225  38.339   6.450
 8901POPC   C2B70904  38.274  38.300   6.750
 8901POPC   C3B70905  38.206  38.279   7.050
 8901POPC   C4B70906  38.237  38.321   7.350
 8902POPC   NC370907  22.174  32.244   5.550
 8902POPC   PO470908  22.169  32.271   5.850
 8902POPC   GL170909  22.127  32.255   6.150
 8902POPC   GL270910  22.268  32.132   6.150
 8902POPC   C1A70911  22.209  32.247   6.450
 8902POPC   D2A70912  22.189  32.217   6.750
 8902POPC   C3A70913  22.190  32.274   7.050
 8902POPC   C4A70914  22.208  32.240   7.350
 8902POPC   C1B70915  22.231  31.980   6.450
 8902POPC   C2B70916  22.241  32.015   6.750
 8902POPC   C3B70917  22.272  32.002   7.050
 8902POPC   C4B70918  22.278  32.064   7.350
 8903POPC   NC370919  41.522  12.068   5.550
 8903POPC   PO470920  41.559  12.075   5.850
 8903POPC   GL170921  41.533  12.077   6.150
 8903POPC   GL270922  41.412  12.115   6.150
 8903POPC   C1A70923  41.606  12.067   6.450
 8903POPC   D2A70924  41.565  12.052   6.750
 8903POPC   C3A70925  41.539  12.054   7.050
 8903POPC   C4A70926  41.573  12.080   7.350
 8903POPC   C1B70927  41.284  12.167   6.450
 8903POPC   C2B70928  41.347  12.127   6.750
 8903POPC   C3B70929  41.317  12.169   7.050
 8903POPC   C4B70930  41.352  12.151   7.350
 8904POPC   NC370931   8.990   3.557   5.550
 8904POPC   PO470932   8.932   3.531   5.850
 8904POPC   GL170933   8.996   3.529   6.150
 8904POPC   GL270934   9.001   3.421   6.150
 8904POPC   C1A70935   8.990   3.514   6.450
 8904POPC   D2A70936   8.969   3.492   6.750
 8904POPC   C3A70937   9.003   3.528   7.050
 8904POPC   C4A70938   8.994   3.532   7.350
 8904POPC   C1B70939   9.001   3.280   6.450
 8904POPC   C2B70940   8.960   3.338   6.750
 8904POPC   C3B70941   8.933   3.334   7.050
 8904POPC   C4B70942   8.925   3.295   7.350
 8905POPC   NC370943  40.792  36.151   5.550
 8905POPC   PO470944  40.796  36.119   5.850
 8905POPC   GL170945  40.762  36.169   6.150
 8905POPC   GL270946  40.751  36.266   6.150
 8905POPC   C1A70947  40.799  36.131   6.450
 8905POPC   D2A70948  40.781  36.159   6.750
 8905POPC   C3A70949  40.747  36.119   7.050
 8905POPC   C4A70950  40.810  36.162   7.350
 8905POPC   C1B70951  40.775  36.417   6.450
 8905POPC   C2B70952  40.798  36.384   6.750
 8905POPC   C3B70953  40.824  36.349   7.050
 8905POPC   C4B70954  40.749  36.369   7.350
 8906POPC   NC370955   5.838  17.477   5.550
 8906POPC   PO470956   5.877  17.498   5.850
 8906POPC   GL170957   5.835  17.555   6.150
 8906POPC   GL270958   5.937  17.526   6.150
 8906POPC   C1A70959   5.910  17.501   6.450
 8906POPC   D2A70960   5.837  17.551   6.750
 8906POPC   C3A70961   5.909  17.540   7.050
 8906POPC   C4A70962   5.824  17.515   7.350
 8906POPC   C1B70963   6.092  17.596   6.450
 8906POPC   C2B70964   6.105  17.574   6.750
 8906POPC   C3B70965   6.087  17.580   7.050
 8906POPC   C4B70966   6.107  17.569   7.350
 8907POPC   NC370967  29.948  15.165   5.550
 8907POPC   PO470968  29.905  15.151   5.850
 8907POPC   GL170969  29.887  15.213   6.150
 8907POPC   GL270970  30.042  15.184   6.150
 8907POPC   C1A70971  29.918  15.226   6.450
 8907POPC   D2A70972  29.876  15.183   6.750
 8907POPC   C3A70973  29.961  15.198   7.050
 8907POPC   C4A70974  29.968  15.171   7.350
 8907POPC   C1B70975  30.112  15.155   6.450
 8907POPC   C2B70976  30.139  15.112   6.750
 8907POPC   C3B70977  30.138  15.085   7.050
 8907POPC   C4B70978  30.210  15.100   7.350
 8908POPC   NC370979  29.102  36.856   5.550
 8908POPC   PO470980  29.189  36.886   5.850
 8908POPC   GL170981  29.195  36.891   6.150
 8908POPC   GL270982  29.048  36.850   6.150
 8908POPC   C1A70983  29.101  36.888   6.450
 8908POPC   D2A70984  29.117  36.872   6.750
 8908POPC   C3A70985  29.114  36.903   7.050
 8908POPC   C4A70986  29.149  36.879   7.350
 8908POPC   C1B70987  28.983  36.681   6.450
 8908POPC   C2B70988  28.937  36.678   6.750
 8908POPC   C3B70989  28.960  36.700   7.050
 8908POPC   C4B70990  28.985  36.668   7.350
 8909POPC   NC370991  25.296  26.066   5.550
 8909POPC   PO470992  25.284  26.002   5.850
 8909POPC   GL170993  25.243  26.048   6.150
 8909POPC   GL270994  25.338  25.992   6.150
 8909POPC   C1A70995  25.267  26.085   6.450
 8909POPC   D2A70996  25.222  26.023   6.750
 8909POPC   C3A70997  25.257  26.083   7.050
 8909POPC   C4A70998  25.267  26.037   7.350
 8909POPC   C1B70999  25.468  25.894   6.450
 8909POPC   C2B71000  25.417  25.828   6.750
 8909POPC   C3B71001  25.431  25.809   7.050
 8909POPC   C4B71002  25.465  25.819   7.350
 8910POPC   NC371003  10.530   8.943   5.550
 8910POPC   PO471004  10.491   8.944   5.850
 8910POPC   GL171005  10.495   8.939   6.150
 8910POPC   GL271006  10.497   8.863   6.150
 8910POPC   C1A71007  10.493   8.941   6.450
 8910POPC   D2A71008  10.490   8.930   6.750
 8910POPC   C3A71009  10.561   9.022   7.050
 8910POPC   C4A71010  10.499   9.006   7.350
 8910POPC   C1B71011  10.429   8.722   6.450
 8910POPC   C2B71012  10.459   8.737   6.750
 8910POPC   C3B71013  10.397   8.790   7.050
 8910POPC   C4B71014  10.379   8.701   7.350
 8911POPC   NC371015   0.428  35.327   5.550
 8911POPC   PO471016   0.390  35.397   5.850
 8911POPC   GL171017   0.477  35.321   6.150
 8911POPC   GL271018   0.400  35.454   6.150
 8911POPC   C1A71019   0.450  35.367   6.450
 8911POPC   D2A71020   0.412  35.344   6.750
 8911POPC   C3A71021   0.444  35.364   7.050
 8911POPC   C4A71022   0.468  35.379   7.350
 8911POPC   C1B71023   0.463  35.578   6.450
 8911POPC   C2B71024   0.404  35.586   6.750
 8911POPC   C3B71025   0.490  35.576   7.050
 8911POPC   C4B71026   0.421  35.561   7.350
 8912POPC   NC371027  12.033  14.382   5.550
 8912POPC   PO471028  12.085  14.451   5.850
 8912POPC   GL171029  12.110  14.417   6.150
 8912POPC   GL271030  12.092  14.532   6.150
 8912POPC   C1A71031  12.071  14.394   6.450
 8912POPC   D2A71032  12.075  14.408   6.750
 8912POPC   C3A71033  12.082  14.372   7.050
 8912POPC   C4A71034  12.065  14.428   7.350
 8912POPC   C1B71035  12.155  14.673   6.450
 8912POPC   C2B71036  12.113  14.631   6.750
 8912POPC   C3B71037  12.170  14.636   7.050
 8912POPC   C4B71038  12.140  14.648   7.350
 8913POPC   NC371039  14.378  19.024   5.550
 8913POPC   PO471040  14.380  19.069   5.850
 8913POPC   GL171041  14.406  19.019   6.150
 8913POPC   GL271042  14.384  19.169   6.150
 8913POPC   C1A71043  14.422  19.053   6.450
 8913POPC   D2A71044  14.423  19.046   6.750
 8913POPC   C3A71045  14.362  19.026   7.050
 8913POPC   C4A71046  14.370  19.057   7.350
 8913POPC   C1B71047  14.299  19.256   6.450
 8913POPC   C2B71048  14.301  19.332   6.750
 8913POPC   C3B71049  14.302  19.243   7.050
 8913POPC   C4B71050  14.277  19.277   7.350
 8914POPC   NC371051  22.954  15.973   5.550
 8914POPC   PO471052  22.912  15.942   5.850
 8914POPC   GL171053  22.976  15.987   6.150
 8914POPC   GL271054  23.088  15.921   6.150
 8914POPC   C1A71055  22.983  15.959   6.450
 8914POPC   D2A71056  22.896  15.932   6.750
 8914POPC   C3A71057  22.947  15.952   7.050
 8914POPC   C4A71058  22.894  15.966   7.350
 8914POPC   C1B71059  23.153  15.829   6.450
 8914POPC   C2B71060  23.179  15.866   6.750
 8914POPC   C3B71061  23.171  15.818   7.050
 8914POPC   C4B71062  23.140  15.869   7.350
 8915POPC   NC371063  15.140  32.218   5.550
 8915POPC   PO471064  15.181  32.250   5.850
 8915POPC   GL171065  15.229  32.212   6.150
 8915POPC   GL271066  15.218  32.126   6.150
 8915POPC   C1A71067  15.178  32.265   6.450
 8915POPC   D2A71068  15.183  32.265   6.750
 8915POPC   C3A71069  15.207  32.212   7.050
 8915POPC   C4A71070  15.199  32.230   7.350
 8915POPC   C1B71071  15.259  32.046   6.450
 8915POPC   C2B71072  15.245  31.982   6.750
 8915POPC   C3B71073  15.305  32.009   7.050
 8915POPC   C4B71074  15.213  31.976   7.350
 8916POPC   NC371075  40.763  20.639   5.550
 8916POPC   PO471076  40.811  20.594   5.850
 8916POPC   GL171077  40.786  20.652   6.150
 8916POPC   GL271078  40.780  20.509   6.150
 8916POPC   C1A71079  40.827  20.646   6.450
 8916POPC   D2A71080  40.746  20.655   6.750
 8916POPC   C3A71081  40.741  20.622   7.050
 8916POPC   C4A71082  40.762  20.569   7.350
 8916POPC   C1B71083  40.829  20.334   6.450
 8916POPC   C2B71084  40.836  20.371   6.750
 8916POPC   C3B71085  40.917  20.397   7.050
 8916POPC   C4B71086  40.843  20.384   7.350
 8917POPC   NC371087  35.344  27.629   5.550
 8917POPC   PO471088  35.312  27.633   5.850
 8917POPC   GL171089  35.383  27.617   6.150
 8917POPC   GL271090  35.336  27.716   6.150
 8917POPC   C1A71091  35.397  27.593   6.450
 8917POPC   D2A71092  35.333  27.584   6.750
 8917POPC   C3A71093  35.384  27.573   7.050
 8917POPC   C4A71094  35.393  27.562   7.350
 8917POPC   C1B71095  35.333  27.860   6.450
 8917POPC   C2B71096  35.362  27.871   6.750
 8917POPC   C3B71097  35.316  27.885   7.050
 8917POPC   C4B71098  35.367  27.810   7.350
 8918POPC   NC371099  36.911   5.896   5.550
 8918POPC   PO471100  36.918   5.854   5.850
 8918POPC   GL171101  36.889   5.826   6.150
 8918POPC   GL271102  36.956   5.993   6.150
 8918POPC   C1A71103  36.916   5.893   6.450
 8918POPC   D2A71104  36.866   5.887   6.750
 8918POPC   C3A71105  36.935   5.890   7.050
 8918POPC   C4A71106  36.943   5.884   7.350
 8918POPC   C1B71107  37.105   5.998   6.450
 8918POPC   C2B71108  37.087   6.055   6.750
 8918POPC   C3B71109  37.053   6.017   7.050
 8918POPC   C4B71110  37.080   5.997   7.350
 8919POPC   NC371111  26.859  19.011   5.550
 8919POPC   PO471112  26.865  19.072   5.850
 8919POPC   GL171113  26.818  19.023   6.150
 8919POPC   GL271114  26.831  19.139   6.150
 8919POPC   C1A71115  26.777  19.034   6.450
 8919POPC   D2A71116  26.794  19.081   6.750
 8919POPC   C3A71117  26.829  19.084   7.050
 8919POPC   C4A71118  26.813  19.029   7.350
 8919POPC   C1B71119  26.922  19.326   6.450
 8919POPC   C2B71120  26.923  19.292   6.750
 8919POPC   C3B71121  26.881  19.333   7.050
 8919POPC   C4B71122  26.855  19.266   7.350
 8920POPC   NC371123  23.669  22.959   5.550
 8920POPC   PO471124  23.685  22.979   5.850
 8920POPC   GL171125  23.716  22.985   6.150
 8920POPC   GL271126  23.843  22.909   6.150
 8920POPC   C1A71127  23.667  22.916   6.450
 8920POPC   D2A71128  23.722  22.947   6.750
 8920POPC   C3A71129  23.748  22.904   7.050
 8920POPC   C4A71130  23.724  22.951   7.350
 8920POPC   C1B71131  23.957  22.776   6.450
 8920POPC   C2B71132  23.904  22.766   6.750
 8920POPC   C3B71133  23.928  22.745   7.050
 8920POPC   C4B71134  23.884  22.784   7.350
 8921POPC   NC371135  27.642   5.868   5.550
 8921POPC   PO471136  27.600   5.821   5.850
 8921POPC   GL171137  27.591   5.847   6.150
 8921POPC   GL271138  27.503   5.920   6.150
 8921POPC   C1A71139  27.629   5.874   6.450
 8921POPC   D2A71140  27.589   5.827   6.750
 8921POPC   C3A71141  27.630   5.904   7.050
 8921POPC   C4A71142  27.611   5.876   7.350
 8921POPC   C1B71143  27.354   5.950   6.450
 8921POPC   C2B71144  27.311   5.877   6.750
 8921POPC   C3B71145  27.390   5.949   7.050
 8921POPC   C4B71146  27.359   5.896   7.350
 8922POPC   NC371147  13.666  43.867   5.550
 8922POPC   PO471148  13.585  43.856   5.850
 8922POPC   GL171149  13.608  43.871   6.150
 8922POPC   GL271150  13.582  43.949   6.150
 8922POPC   C1A71151  13.584  43.841   6.450
 8922POPC   D2A71152  13.644  43.920   6.750
 8922POPC   C3A71153  13.600  43.889   7.050
 8922POPC   C4A71154  13.578  43.891   7.350
 8922POPC   C1B71155  13.426  44.090   6.450
 8922POPC   C2B71156  13.451  44.083   6.750
 8922POPC   C3B71157  13.440  44.064   7.050
 8922POPC   C4B71158  13.503  44.126   7.350
 8923POPC   NC371159  13.598   1.208   5.550
 8923POPC   PO471160  13.582   1.230   5.850
 8923POPC   GL171161  13.584   1.171   6.150
 8923POPC   GL271162  13.541   1.317   6.150
 8923POPC   C1A71163  13.632   1.221   6.450
 8923POPC   D2A71164  13.637   1.180   6.750
 8923POPC   C3A71165  13.599   1.194   7.050
 8923POPC   C4A71166  13.656   1.225   7.350
 8923POPC   C1B71167  13.472   1.452   6.450
 8923POPC   C2B71168  13.440   1.435   6.750
 8923POPC   C3B71169  13.519   1.388   7.050
 8923POPC   C4B71170  13.451   1.384   7.350
 8924POPC   NC371171  17.457  22.893   5.550
 8924POPC   PO471172  17.483  22.896   5.850
 8924POPC   GL171173  17.503  22.924   6.150
 8924POPC   GL271174  17.620  22.986   6.150
 8924POPC   C1A71175  17.541  22.969   6.450
 8924POPC   D2A71176  17.463  22.923   6.750
 8924POPC   C3A71177  17.535  22.985   7.050
 8924POPC   C4A71178  17.486  22.891   7.350
 8924POPC   C1B71179  17.708  22.987   6.450
 8924POPC   C2B71180  17.770  22.999   6.750
 8924POPC   C3B71181  17.729  23.005   7.050
 8924POPC   C4B71182  17.736  23.007   7.350
 8925POPC   NC371183   7.420  11.328   5.550
 8925POPC   PO471184   7.444  11.299   5.850
 8925POPC   GL171185   7.458  11.279   6.150
 8925POPC   GL271186   7.555  11.179   6.150
 8925POPC   C1A71187   7.373  11.348   6.450
 8925POPC   D2A71188   7.426  11.315   6.750
 8925POPC   C3A71189   7.436  11.304   7.050
 8925POPC   C4A71190   7.463  11.294   7.350
 8925POPC   C1B71191   7.577  11.139   6.450
 8925POPC   C2B71192   7.637  11.099   6.750
 8925POPC   C3B71193   7.631  11.070   7.050
 8925POPC   C4B71194   7.595  11.135   7.350
 8926POPC   NC371195  40.036   1.242   5.550
 8926POPC   PO471196  40.003   1.210   5.850
 8926POPC   GL171197  39.988   1.209   6.150
 8926POPC   GL271198  40.083   1.221   6.150
 8926POPC   C1A71199  39.994   1.256   6.450
 8926POPC   D2A71200  40.002   1.167   6.750
 8926POPC   C3A71201  40.054   1.223   7.050
 8926POPC   C4A71202  40.034   1.192   7.350
 8926POPC   C1B71203  40.207   1.159   6.450
 8926POPC   C2B71204  40.268   1.106   6.750
 8926POPC   C3B71205  40.221   1.107   7.050
 8926POPC   C4B71206  40.257   1.152   7.350
 8927POPC   NC371207  17.475  20.622   5.550
 8927POPC   PO471208  17.531  20.567   5.850
 8927POPC   GL171209  17.464  20.566   6.150
 8927POPC   GL271210  17.666  20.574   6.150
 8927POPC   C1A71211  17.493  20.589   6.450
 8927POPC   D2A71212  17.495  20.615   6.750
 8927POPC   C3A71213  17.471  20.605   7.050
 8927POPC   C4A71214  17.535  20.658   7.350
 8927POPC   C1B71215  17.753  20.605   6.450
 8927POPC   C2B71216  17.749  20.533   6.750
 8927POPC   C3B71217  17.707  20.583   7.050
 8927POPC   C4B71218  17.749  20.562   7.350
 8928POPC   NC371219  23.733  11.305   5.550
 8928POPC   PO471220  23.739  11.327   5.850
 8928POPC   GL171221  23.723  11.273   6.150
 8928POPC   GL271222  23.668  11.350   6.150
 8928POPC   C1A71223  23.730  11.317   6.450
 8928POPC   D2A71224  23.703  11.294   6.750
 8928POPC   C3A71225  23.720  11.306   7.050
 8928POPC   C4A71226  23.752  11.339   7.350
 8928POPC   C1B71227  23.594  11.478   6.450
 8928POPC   C2B71228  23.595  11.505   6.750
 8928POPC   C3B71229  23.557  11.465   7.050
 8928POPC   C4B71230  23.520  11.465   7.350
 8929POPC   NC371231  43.914  25.992   5.550
 8929POPC   PO471232  43.857  26.088   5.850
 8929POPC   GL171233  43.924  26.017   6.150
 8929POPC   GL271234  43.852  26.127   6.150
 8929POPC   C1A71235  43.866  26.015   6.450
 8929POPC   D2A71236  43.853  26.010   6.750
 8929POPC   C3A71237  43.904  25.998   7.050
 8929POPC   C4A71238  43.909  26.000   7.350
 8929POPC   C1B71239  43.810  26.314   6.450
 8929POPC   C2B71240  43.772  26.228   6.750
 8929POPC   C3B71241  43.802  26.276   7.050
 8929POPC   C4B71242  43.781  26.261   7.350
 8930POPC   NC371243   9.000   1.263   5.550
 8930POPC   PO471244   8.932   1.207   5.850
 8930POPC   GL171245   8.983   1.200   6.150
 8930POPC   GL271246   8.882   1.218   6.150
 8930POPC   C1A71247   8.985   1.260   6.450
 8930POPC   D2A71248   8.969   1.220   6.750
 8930POPC   C3A71249   8.974   1.186   7.050
 8930POPC   C4A71250   8.978   1.220   7.350
 8930POPC   C1B71251   8.723   1.173   6.450
 8930POPC   C2B71252   8.677   1.164   6.750
 8930POPC   C3B71253   8.763   1.199   7.050
 8930POPC   C4B71254   8.689   1.184   7.350
 8931POPC   NC371255  12.036  26.031   5.550
 8931POPC   PO471256  12.081  26.046   5.850
 8931POPC   GL171257  12.064  26.034   6.150
 8931POPC   GL271258  12.008  26.163   6.150
 8931POPC   C1A71259  12.068  26.002   6.450
 8931POPC   D2A71260  12.027  26.044   6.750
 8931POPC   C3A71261  12.091  26.049   7.050
 8931POPC   C4A71262  12.088  25.996   7.350
 8931POPC   C1B71263  11.972  26.223   6.450
 8931POPC   C2B71264  12.005  26.297   6.750
 8931POPC   C3B71265  11.932  26.240   7.050
 8931POPC   C4B71266  12.004  26.272   7.350
 8932POPC   NC371267  29.879  39.965   5.550
 8932POPC   PO471268  29.885  39.995   5.850
 8932POPC   GL171269  29.966  39.985   6.150
 8932POPC   GL271270  29.935  40.156   6.150
 8932POPC   C1A71271  29.895  39.975   6.450
 8932POPC   D2A71272  29.970  40.029   6.750
 8932POPC   C3A71273  29.940  39.958   7.050
 8932POPC   C4A71274  29.915  40.031   7.350
 8932POPC   C1B71275  30.042  40.212   6.450
 8932POPC   C2B71276  30.011  40.204   6.750
 8932POPC   C3B71277  30.040  40.201   7.050
 8932POPC   C4B71278  29.986  40.271   7.350
 8933POPC   NC371279   9.712  27.593   5.550
 8933POPC   PO471280   9.762  27.629   5.850
 8933POPC   GL171281   9.730  27.583   6.150
 8933POPC   GL271282   9.770  27.513   6.150
 8933POPC   C1A71283   9.759  27.638   6.450
 8933POPC   D2A71284   9.758  27.635   6.750
 8933POPC   C3A71285   9.730  27.596   7.050
 8933POPC   C4A71286   9.796  27.563   7.350
 8933POPC   C1B71287   9.810  27.329   6.450
 8933POPC   C2B71288   9.736  27.378   6.750
 8933POPC   C3B71289   9.751  27.326   7.050
 8933POPC   C4B71290   9.771  27.319   7.350
 8934POPC   NC371291   5.128  31.452   5.550
 8934POPC   PO471292   5.059  31.494   5.850
 8934POPC   GL171293   5.130  31.448   6.150
 8934POPC   GL271294   5.231  31.482   6.150
 8934POPC   C1A71295   5.086  31.463   6.450
 8934POPC   D2A71296   5.131  31.424   6.750
 8934POPC   C3A71297   5.074  31.513   7.050
 8934POPC   C4A71298   5.140  31.453   7.350
 8934POPC   C1B71299   5.354  31.441   6.450
 8934POPC   C2B71300   5.305  31.446   6.750
 8934POPC   C3B71301   5.330  31.383   7.050
 8934POPC   C4B71302   5.381  31.379   7.350
 8935POPC   NC371303   0.403  13.614   5.550
 8935POPC   PO471304   0.405  13.650   5.850
 8935POPC   GL171305   0.404  13.592   6.150
 8935POPC   GL271306   0.270  13.625   6.150
 8935POPC   C1A71307   0.476  13.666   6.450
 8935POPC   D2A71308   0.444  13.643   6.750
 8935POPC   C3A71309   0.425  13.592   7.050
 8935POPC   C4A71310   0.435  13.630   7.350
 8935POPC   C1B71311   0.185  13.532   6.450
 8935POPC   C2B71312   0.214  13.602   6.750
 8935POPC   C3B71313   0.213  13.604   7.050
 8935POPC   C4B71314   0.205  13.614   7.350
 8936POPC   NC371315  38.421  20.583   5.550
 8936POPC   PO471316  38.464  20.573   5.850
 8936POPC   GL171317  38.499  20.633   6.150
 8936POPC   GL271318  38.525  20.689   6.150
 8936POPC   C1A71319  38.409  20.631   6.450
 8936POPC   D2A71320  38.492  20.576   6.750
 8936POPC   C3A71321  38.440  20.647   7.050
 8936POPC   C4A71322  38.447  20.588   7.350
 8936POPC   C1B71323  38.604  20.809   6.450
 8936POPC   C2B71324  38.576  20.795   6.750
 8936POPC   C3B71325  38.591  20.785   7.050
 8936POPC   C4B71326  38.604  20.791   7.350
 8937POPC   NC371327  25.265  13.660   5.550
 8937POPC   PO471328  25.313  13.644   5.850
 8937POPC   GL171329  25.309  13.614   6.150
 8937POPC   GL271330  25.207  13.771   6.150
 8937POPC   C1A71331  25.246  13.639   6.450
 8937POPC   D2A71332  25.241  13.582   6.750
 8937POPC   C3A71333  25.255  13.643   7.050
 8937POPC   C4A71334  25.241  13.580   7.350
 8937POPC   C1B71335  25.180  13.824   6.450
 8937POPC   C2B71336  25.226  13.827   6.750
 8937POPC   C3B71337  25.186  13.900   7.050
 8937POPC   C4B71338  25.257  13.871   7.350
 8938POPC   NC371339  24.500  37.631   5.550
 8938POPC   PO471340  24.531  37.682   5.850
 8938POPC   GL171341  24.515  37.643   6.150
 8938POPC   GL271342  24.611  37.739   6.150
 8938POPC   C1A71343  24.510  37.655   6.450
 8938POPC   D2A71344  24.461  37.700   6.750
 8938POPC   C3A71345  24.475  37.636   7.050
 8938POPC   C4A71346  24.449  37.658   7.350
 8938POPC   C1B71347  24.641  37.795   6.450
 8938POPC   C2B71348  24.727  37.814   6.750
 8938POPC   C3B71349  24.717  37.795   7.050
 8938POPC   C4B71350  24.688  37.870   7.350
 8939POPC   NC371351  17.557  28.400   5.550
 8939POPC   PO471352  17.497  28.415   5.850
 8939POPC   GL171353  17.511  28.357   6.150
 8939POPC   GL271354  17.408  28.298   6.150
 8939POPC   C1A71355  17.467  28.416   6.450
 8939POPC   D2A71356  17.478  28.346   6.750
 8939POPC   C3A71357  17.467  28.357   7.050
 8939POPC   C4A71358  17.521  28.333   7.350
 8939POPC   C1B71359  17.286  28.197   6.450
 8939POPC   C2B71360  17.290  28.225   6.750
 8939POPC   C3B71361  17.281  28.264   7.050
 8939POPC   C4B71362  17.330  28.240   7.350
 8940POPC   NC371363  34.565  11.341   5.550
 8940POPC   PO471364  34.546  11.276   5.850
 8940POPC   GL171365  34.604  11.302   6.150
 8940POPC   GL271366  34.489  11.213   6.150
 8940POPC   C1A71367  34.553  11.291   6.450
 8940POPC   D2A71368  34.549  11.251   6.750
 8940POPC   C3A71369  34.535  11.322   7.050
 8940POPC   C4A71370  34.580  11.332   7.350
 8940POPC   C1B71371  34.400  11.086   6.450
 8940POPC   C2B71372  34.469  11.097   6.750
 8940POPC   C3B71373  34.425  11.089   7.050
 8940POPC   C4B71374  34.417  11.095   7.350
 8941POPC   NC371375  33.751  16.699   5.550
 8941POPC   PO471376  33.784  16.730   5.850
 8941POPC   GL171377  33.803  16.730   6.150
 8941POPC   GL271378  33.879  16.691   6.150
 8941POPC   C1A71379  33.761  16.768   6.450
 8941POPC   D2A71380  33.791  16.770   6.750
 8941POPC   C3A71381  33.828  16.778   7.050
 8941POPC   C4A71382  33.805  16.727   7.350
 8941POPC   C1B71383  34.080  16.736   6.450
 8941POPC   C2B71384  34.085  16.720   6.750
 8941POPC   C3B71385  34.073  16.746   7.050
 8941POPC   C4B71386  34.044  16.651   7.350
 8942POPC   NC371387  26.842  36.951   5.550
 8942POPC   PO471388  26.859  36.927   5.850
 8942POPC   GL171389  26.821  36.868   6.150
 8942POPC   GL271390  26.690  36.823   6.150
 8942POPC   C1A71391  26.791  36.854   6.450
 8942POPC   D2A71392  26.787  36.884   6.750
 8942POPC   C3A71393  26.798  36.880   7.050
 8942POPC   C4A71394  26.859  36.887   7.350
 8942POPC   C1B71395  26.611  36.807   6.450
 8942POPC   C2B71396  26.591  36.804   6.750
 8942POPC   C3B71397  26.543  36.794   7.050
 8942POPC   C4B71398  26.619  36.828   7.350
 8943POPC   NC371399  39.205   7.436   5.550
 8943POPC   PO471400  39.239   7.399   5.850
 8943POPC   GL171401  39.201   7.411   6.150
 8943POPC   GL271402  39.181   7.533   6.150
 8943POPC   C1A71403  39.234   7.411   6.450
 8943POPC   D2A71404  39.200   7.397   6.750
 8943POPC   C3A71405  39.239   7.394   7.050
 8943POPC   C4A71406  39.254   7.468   7.350
 8943POPC   C1B71407  39.128   7.623   6.450
 8943POPC   C2B71408  39.207   7.711   6.750
 8943POPC   C3B71409  39.153   7.647   7.050
 8943POPC   C4B71410  39.164   7.701   7.350
 8944POPC   NC371411  12.046  33.046   5.550
 8944POPC   PO471412  12.026  33.012   5.850
 8944POPC   GL171413  12.106  33.004   6.150
 8944POPC   GL271414  12.176  33.075   6.150
 8944POPC   C1A71415  12.097  33.048   6.450
 8944POPC   D2A71416  12.049  32.980   6.750
 8944POPC   C3A71417  12.069  32.988   7.050
 8944POPC   C4A71418  12.048  32.995   7.350
 8944POPC   C1B71419  12.261  33.147   6.450
 8944POPC   C2B71420  12.251  33.179   6.750
 8944POPC   C3B71421  12.320  33.136   7.050
 8944POPC   C4B71422  12.251  33.185   7.350
 8945POPC   NC371423  22.187   1.219   5.550
 8945POPC   PO471424  22.167   1.258   5.850
 8945POPC   GL171425  22.190   1.203   6.150
 8945POPC   GL271426  22.121   1.297   6.150
 8945POPC   C1A71427  22.207   1.238   6.450
 8945POPC   D2A71428  22.146   1.221   6.750
 8945POPC   C3A71429  22.115   1.240   7.050
 8945POPC   C4A71430  22.178   1.175   7.350
 8945POPC   C1B71431  22.043   1.422   6.450
 8945POPC   C2B71432  22.122   1.497   6.750
 8945POPC   C3B71433  22.035   1.429   7.050
 8945POPC   C4B71434  22.031   1.484   7.350
 8946POPC   NC371435  36.089  12.044   5.550
 8946POPC   PO471436  36.089  12.034   5.850
 8946POPC   GL171437  36.135  12.073   6.150
 8946POPC   GL271438  36.119  12.249   6.150
 8946POPC   C1A71439  36.096  12.027   6.450
 8946POPC   D2A71440  36.127  12.114   6.750
 8946POPC   C3A71441  36.177  12.106   7.050
 8946POPC   C4A71442  36.095  12.096   7.350
 8946POPC   C1B71443  36.126  12.334   6.450
 8946POPC   C2B71444  36.125  12.284   6.750
 8946POPC   C3B71445  36.152  12.292   7.050
 8946POPC   C4B71446  36.174  12.347   7.350
 8947POPC   NC371447   1.198  37.652   5.550
 8947POPC   PO471448   1.254  37.696   5.850
 8947POPC   GL171449   1.222  37.660   6.150
 8947POPC   GL271450   1.166  37.549   6.150
 8947POPC   C1A71451   1.259  37.687   6.450
 8947POPC   D2A71452   1.192  37.642   6.750
 8947POPC   C3A71453   1.218  37.653   7.050
 8947POPC   C4A71454   1.189  37.642   7.350
 8947POPC   C1B71455   1.206  37.480   6.450
 8947POPC   C2B71456   1.141  37.395   6.750
 8947POPC   C3B71457   1.152  37.405   7.050
 8947POPC   C4B71458   1.233  37.401   7.350
 8948POPC   NC371459  12.898  40.824   5.550
 8948POPC   PO471460  12.840  40.752   5.850
 8948POPC   GL171461  12.816  40.826   6.150
 8948POPC   GL271462  12.789  40.742   6.150
 8948POPC   C1A71463  12.890  40.805   6.450
 8948POPC   D2A71464  12.898  40.764   6.750
 8948POPC   C3A71465  12.893  40.759   7.050
 8948POPC   C4A71466  12.901  40.736   7.350
 8948POPC   C1B71467  12.704  40.589   6.450
 8948POPC   C2B71468  12.671  40.653   6.750
 8948POPC   C3B71469  12.700  40.584   7.050
 8948POPC   C4B71470  12.672  40.557   7.350
 8949POPC   NC371471  20.569  17.499   5.550
 8949POPC   PO471472  20.592  17.548   5.850
 8949POPC   GL171473  20.629  17.478   6.150
 8949POPC   GL271474  20.694  17.422   6.150
 8949POPC   C1A71475  20.591  17.542   6.450
 8949POPC   D2A71476  20.598  17.518   6.750
 8949POPC   C3A71477  20.644  17.518   7.050
 8949POPC   C4A71478  20.589  17.493   7.350
 8949POPC   C1B71479  20.829  17.310   6.450
 8949POPC   C2B71480  20.751  17.336   6.750
 8949POPC   C3B71481  20.766  17.311   7.050
 8949POPC   C4B71482  20.766  17.351   7.350
 8950POPC   NC371483  15.949  19.845   5.550
 8950POPC   PO471484  15.973  19.872   5.850
 8950POPC   GL171485  15.925  19.851   6.150
 8950POPC   GL271486  15.897  19.815   6.150
 8950POPC   C1A71487  15.998  19.809   6.450
 8950POPC   D2A71488  15.925  19.858   6.750
 8950POPC   C3A71489  16.004  19.854   7.050
 8950POPC   C4A71490  15.966  19.867   7.350
 8950POPC   C1B71491  15.717  19.717   6.450
 8950POPC   C2B71492  15.749  19.692   6.750
 8950POPC   C3B71493  15.756  19.667   7.050
 8950POPC   C4B71494  15.739  19.691   7.350
 8951POPC   NC371495  15.224  26.771   5.550
 8951POPC   PO471496  15.183  26.816   5.850
 8951POPC   GL171497  15.190  26.788   6.150
 8951POPC   GL271498  15.142  26.740   6.150
 8951POPC   C1A71499  15.181  26.800   6.450
 8951POPC   D2A71500  15.229  26.825   6.750
 8951POPC   C3A71501  15.217  26.839   7.050
 8951POPC   C4A71502  15.212  26.812   7.350
 8951POPC   C1B71503  15.214  26.573   6.450
 8951POPC   C2B71504  15.155  26.555   6.750
 8951POPC   C3B71505  15.209  26.523   7.050
 8951POPC   C4B71506  15.218  26.605   7.350
 8952POPC   NC371507  42.325  26.016   5.550
 8952POPC   PO471508  42.296  26.081   5.850
 8952POPC   GL171509  42.329  26.085   6.150
 8952POPC   GL271510  42.232  25.958   6.150
 8952POPC   C1A71511  42.381  26.021   6.450
 8952POPC   D2A71512  42.342  26.054   6.750
 8952POPC   C3A71513  42.329  26.050   7.050
 8952POPC   C4A71514  42.381  26.043   7.350
 8952POPC   C1B71515  42.162  25.933   6.450
 8952POPC   C2B71516  42.161  25.951   6.750
 8952POPC   C3B71517  42.137  25.939   7.050
 8952POPC   C4B71518  42.096  25.874   7.350
 8953POPC   NC371519  27.623  35.394   5.550
 8953POPC   PO471520  27.642  35.362   5.850
 8953POPC   GL171521  27.640  35.324   6.150
 8953POPC   GL271522  27.731  35.321   6.150
 8953POPC   C1A71523  27.553  35.371   6.450
 8953POPC   D2A71524  27.632  35.363   6.750
 8953POPC   C3A71525  27.564  35.369   7.050
 8953POPC   C4A71526  27.588  35.354   7.350
 8953POPC   C1B71527  27.794  35.282   6.450
 8953POPC   C2B71528  27.863  35.275   6.750
 8953POPC   C3B71529  27.801  35.306   7.050
 8953POPC   C4B71530  27.809  35.334   7.350
 8954POPC   NC371531   1.164  26.021   5.550
 8954POPC   PO471532   1.244  26.021   5.850
 8954POPC   GL171533   1.196  26.089   6.150
 8954POPC   GL271534   1.129  25.920   6.150
 8954POPC   C1A71535   1.165  26.049   6.450
 8954POPC   D2A71536   1.179  26.002   6.750
 8954POPC   C3A71537   1.188  26.061   7.050
 8954POPC   C4A71538   1.240  25.996   7.350
 8954POPC   C1B71539   1.095  25.820   6.450
 8954POPC   C2B71540   1.154  25.827   6.750
 8954POPC   C3B71541   1.098  25.835   7.050
 8954POPC   C4B71542   1.170  25.813   7.350
 8955POPC   NC371543  12.829  22.889   5.550
 8955POPC   PO471544  12.833  22.972   5.850
 8955POPC   GL171545  12.864  22.954   6.150
 8955POPC   GL271546  12.873  23.018   6.150
 8955POPC   C1A71547  12.819  22.900   6.450
 8955POPC   D2A71548  12.894  22.979   6.750
 8955POPC   C3A71549  12.869  22.956   7.050
 8955POPC   C4A71550  12.812  22.987   7.350
 8955POPC   C1B71551  12.903  23.230   6.450
 8955POPC   C2B71552  12.882  23.231   6.750
 8955POPC   C3B71553  12.907  23.138   7.050
 8955POPC   C4B71554  12.916  23.223   7.350
 8956POPC   NC371555  36.861   4.286   5.550
 8956POPC   PO471556  36.884   4.328   5.850
 8956POPC   GL171557  36.938   4.278   6.150
 8956POPC   GL271558  36.859   4.383   6.150
 8956POPC   C1A71559  36.925   4.352   6.450
 8956POPC   D2A71560  36.905   4.340   6.750
 8956POPC   C3A71561  36.883   4.362   7.050
 8956POPC   C4A71562  36.895   4.348   7.350
 8956POPC   C1B71563  36.692   4.458   6.450
 8956POPC   C2B71564  36.697   4.526   6.750
 8956POPC   C3B71565  36.744   4.472   7.050
 8956POPC   C4B71566  36.733   4.451   7.350
 8957POPC   NC371567  28.330  14.446   5.550
 8957POPC   PO471568  28.379  14.402   5.850
 8957POPC   GL171569  28.378  14.405   6.150
 8957POPC   GL271570  28.536  14.381   6.150
 8957POPC   C1A71571  28.388  14.401   6.450
 8957POPC   D2A71572  28.357  14.388   6.750
 8957POPC   C3A71573  28.411  14.424   7.050
 8957POPC   C4A71574  28.414  14.380   7.350
 8957POPC   C1B71575  28.611  14.393   6.450
 8957POPC   C2B71576  28.647  14.397   6.750
 8957POPC   C3B71577  28.605  14.442   7.050
 8957POPC   C4B71578  28.597  14.390   7.350
 8958POPC   NC371579  36.148   8.995   5.550
 8958POPC   PO471580  36.090   9.006   5.850
 8958POPC   GL171581  36.175   8.938   6.150
 8958POPC   GL271582  36.131   8.887   6.150
 8958POPC   C1A71583  36.095   9.007   6.450
 8958POPC   D2A71584  36.136   8.926   6.750
 8958POPC   C3A71585  36.097   8.930   7.050
 8958POPC   C4A71586  36.168   8.965   7.350
 8958POPC   C1B71587  36.130   8.758   6.450
 8958POPC   C2B71588  36.070   8.720   6.750
 8958POPC   C3B71589  36.080   8.676   7.050
 8958POPC   C4B71590  36.066   8.713   7.350
 8959POPC   NC371591  18.238   0.457   5.550
 8959POPC   PO471592  18.246   0.479   5.850
 8959POPC   GL171593  18.295   0.445   6.150
 8959POPC   GL271594  18.305   0.584   6.150
 8959POPC   C1A71595  18.314   0.462   6.450
 8959POPC   D2A71596  18.327   0.392   6.750
 8959POPC   C3A71597  18.277   0.416   7.050
 8959POPC   C4A71598  18.308   0.423   7.350
 8959POPC   C1B71599  18.212   0.674   6.450
 8959POPC   C2B71600  18.230   0.651   6.750
 8959POPC   C3B71601  18.232   0.658   7.050
 8959POPC   C4B71602  18.210   0.715   7.350
 8960POPC   NC371603  30.665   7.400   5.550
 8960POPC   PO471604  30.740   7.448   5.850
 8960POPC   GL171605  30.673   7.406   6.150
 8960POPC   GL271606  30.779   7.332   6.150
 8960POPC   C1A71607  30.712   7.408   6.450
 8960POPC   D2A71608  30.742   7.379   6.750
 8960POPC   C3A71609  30.734   7.426   7.050
 8960POPC   C4A71610  30.720   7.426   7.350
 8960POPC   C1B71611  30.822   7.239   6.450
 8960POPC   C2B71612  30.791   7.224   6.750
 8960POPC   C3B71613  30.781   7.191   7.050
 8960POPC   C4B71614  30.873   7.191   7.350
 8961POPC   NC371615  34.597   4.367   5.550
 8961POPC   PO471616  34.550   4.337   5.850
 8961POPC   GL171617  34.573   4.292   6.150
 8961POPC   GL271618  34.476   4.317   6.150
 8961POPC   C1A71619  34.563   4.278   6.450
 8961POPC   D2A71620  34.616   4.304   6.750
 8961POPC   C3A71621  34.570   4.301   7.050
 8961POPC   C4A71622  34.531   4.323   7.350
 8961POPC   C1B71623  34.360   4.304   6.450
 8961POPC   C2B71624  34.313   4.352   6.750
 8961POPC   C3B71625  34.375   4.352   7.050
 8961POPC   C4B71626  34.301   4.297   7.350
 8962POPC   NC371627  36.865  19.063   5.550
 8962POPC   PO471628  36.886  19.098   5.850
 8962POPC   GL171629  36.917  19.097   6.150
 8962POPC   GL271630  36.938  18.940   6.150
 8962POPC   C1A71631  36.871  19.067   6.450
 8962POPC   D2A71632  36.865  19.027   6.750
 8962POPC   C3A71633  36.874  19.085   7.050
 8962POPC   C4A71634  36.952  19.108   7.350
 8962POPC   C1B71635  36.859  18.762   6.450
 8962POPC   C2B71636  36.851  18.839   6.750
 8962POPC   C3B71637  36.866  18.852   7.050
 8962POPC   C4B71638  36.854  18.837   7.350
 8963POPC   NC371639  22.969   1.983   5.550
 8963POPC   PO471640  22.943   1.973   5.850
 8963POPC   GL171641  22.904   1.956   6.150
 8963POPC   GL271642  23.001   1.860   6.150
 8963POPC   C1A71643  22.931   1.988   6.450
 8963POPC   D2A71644  22.931   1.956   6.750
 8963POPC   C3A71645  22.898   1.983   7.050
 8963POPC   C4A71646  22.905   2.006   7.350
 8963POPC   C1B71647  23.129   1.827   6.450
 8963POPC   C2B71648  23.060   1.784   6.750
 8963POPC   C3B71649  23.086   1.834   7.050
 8963POPC   C4B71650  23.050   1.834   7.350
 8964POPC   NC371651  33.843   4.346   5.550
 8964POPC   PO471652  33.809   4.279   5.850
 8964POPC   GL171653  33.773   4.356   6.150
 8964POPC   GL271654  33.747   4.476   6.150
 8964POPC   C1A71655  33.825   4.289   6.450
 8964POPC   D2A71656  33.798   4.303   6.750
 8964POPC   C3A71657  33.831   4.272   7.050
 8964POPC   C4A71658  33.809   4.349   7.350
 8964POPC   C1B71659  33.724   4.490   6.450
 8964POPC   C2B71660  33.636   4.524   6.750
 8964POPC   C3B71661  33.660   4.505   7.050
 8964POPC   C4B71662  33.659   4.543   7.350
 8965POPC   NC371663   5.884  40.783   5.550
 8965POPC   PO471664   5.902  40.775   5.850
 8965POPC   GL171665   5.858  40.824   6.150
 8965POPC   GL271666   5.950  40.652   6.150
 8965POPC   C1A71667   5.907  40.774   6.450
 8965POPC   D2A71668   5.881  40.775   6.750
 8965POPC   C3A71669   5.879  40.828   7.050
 8965POPC   C4A71670   5.830  40.814   7.350
 8965POPC   C1B71671   6.060  40.658   6.450
 8965POPC   C2B71672   6.069  40.619   6.750
 8965POPC   C3B71673   6.026  40.562   7.050
 8965POPC   C4B71674   6.085  40.621   7.350
 8966POPC   NC371675  25.297  42.320   5.550
 8966POPC   PO471676  25.296  42.381   5.850
 8966POPC   GL171677  25.309  42.335   6.150
 8966POPC   GL271678  25.402  42.447   6.150
 8966POPC   C1A71679  25.276  42.305   6.450
 8966POPC   D2A71680  25.302  42.312   6.750
 8966POPC   C3A71681  25.257  42.292   7.050
 8966POPC   C4A71682  25.231  42.353   7.350
 8966POPC   C1B71683  25.487  42.513   6.450
 8966POPC   C2B71684  25.446  42.469   6.750
 8966POPC   C3B71685  25.432  42.493   7.050
 8966POPC   C4B71686  25.414  42.486   7.350
 8967POPC   NC371687   5.819  34.592   5.550
 8967POPC   PO471688   5.896  34.574   5.850
 8967POPC   GL171689   5.918  34.564   6.150
 8967POPC   GL271690   5.805  34.651   6.150
 8967POPC   C1A71691   5.879  34.609   6.450
 8967POPC   D2A71692   5.908  34.539   6.750
 8967POPC   C3A71693   5.823  34.547   7.050
 8967POPC   C4A71694   5.841  34.583   7.350
 8967POPC   C1B71695   5.648  34.800   6.450
 8967POPC   C2B71696   5.718  34.720   6.750
 8967POPC   C3B71697   5.690  34.771   7.050
 8967POPC   C4B71698   5.743  34.778   7.350
 8968POPC   NC371699  25.282  12.895   5.550
 8968POPC   PO471700  25.286  12.838   5.850
 8968POPC   GL171701  25.292  12.901   6.150
 8968POPC   GL271702  25.332  12.717   6.150
 8968POPC   C1A71703  25.249  12.826   6.450
 8968POPC   D2A71704  25.238  12.862   6.750
 8968POPC   C3A71705  25.259  12.862   7.050
 8968POPC   C4A71706  25.282  12.834   7.350
 8968POPC   C1B71707  25.378  12.600   6.450
 8968POPC   C2B71708  25.372  12.572   6.750
 8968POPC   C3B71709  25.311  12.648   7.050
 8968POPC   C4B71710  25.367  12.583   7.350
 8969POPC   NC371711  17.510   9.008   5.550
 8969POPC   PO471712  17.539   8.968   5.850
 8969POPC   GL171713  17.475   8.994   6.150
 8969POPC   GL271714  17.396   9.031   6.150
 8969POPC   C1A71715  17.554   8.989   6.450
 8969POPC   D2A71716  17.537   8.992   6.750
 8969POPC   C3A71717  17.492   8.995   7.050
 8969POPC   C4A71718  17.500   8.968   7.350
 8969POPC   C1B71719  17.336   9.174   6.450
 8969POPC   C2B71720  17.332   9.147   6.750
 8969POPC   C3B71721  17.333   9.137   7.050
 8969POPC   C4B71722  17.329   9.190   7.350
 8970POPC   NC371723  15.199  43.886   5.550
 8970POPC   PO471724  15.183  43.855   5.850
 8970POPC   GL171725  15.207  43.934   6.150
 8970POPC   GL271726  15.237  44.006   6.150
 8970POPC   C1A71727  15.135  43.884   6.450
 8970POPC   D2A71728  15.209  43.902   6.750
 8970POPC   C3A71729  15.130  43.850   7.050
 8970POPC   C4A71730  15.187  43.869   7.350
 8970POPC   C1B71731  15.330  44.078   6.450
 8970POPC   C2B71732  15.318  44.100   6.750
 8970POPC   C3B71733  15.366  44.043   7.050
 8970POPC   C4B71734  15.356  44.027   7.350
 8971POPC   NC371735  36.922   2.737   5.550
 8971POPC   PO471736  36.939   2.796   5.850
 8971POPC   GL171737  36.936   2.748   6.150
 8971POPC   GL271738  37.030   2.695   6.150
 8971POPC   C1A71739  36.939   2.781   6.450
 8971POPC   D2A71740  36.946   2.754   6.750
 8971POPC   C3A71741  36.863   2.761   7.050
 8971POPC   C4A71742  36.879   2.728   7.350
 8971POPC   C1B71743  37.055   2.579   6.450
 8971POPC   C2B71744  37.089   2.584   6.750
 8971POPC   C3B71745  37.036   2.572   7.050
 8971POPC   C4B71746  37.053   2.602   7.350
 8972POPC   NC371747  38.498  13.657   5.550
 8972POPC   PO471748  38.475  13.613   5.850
 8972POPC   GL171749  38.450  13.647   6.150
 8972POPC   GL271750  38.576  13.690   6.150
 8972POPC   C1A71751  38.461  13.664   6.450
 8972POPC   D2A71752  38.481  13.637   6.750
 8972POPC   C3A71753  38.454  13.664   7.050
 8972POPC   C4A71754  38.456  13.668   7.350
 8972POPC   C1B71755  38.740  13.673   6.450
 8972POPC   C2B71756  38.707  13.699   6.750
 8972POPC   C3B71757  38.662  13.689   7.050
 8972POPC   C4B71758  38.669  13.711   7.350
 8973POPC   NC371759  41.557   5.872   5.550
 8973POPC   PO471760  41.515   5.872   5.850
 8973POPC   GL171761  41.552   5.860   6.150
 8973POPC   GL271762  41.450   5.848   6.150
 8973POPC   C1A71763  41.516   5.908   6.450
 8973POPC   D2A71764  41.560   5.840   6.750
 8973POPC   C3A71765  41.589   5.907   7.050
 8973POPC   C4A71766  41.584   5.858   7.350
 8973POPC   C1B71767  41.352   5.924   6.450
 8973POPC   C2B71768  41.292   5.880   6.750
 8973POPC   C3B71769  41.331   5.916   7.050
 8973POPC   C4B71770  41.303   5.935   7.350
 8974POPC   NC371771  22.124  11.314   5.550
 8974POPC   PO471772  22.114  11.337   5.850
 8974POPC   GL171773  22.167  11.257   6.150
 8974POPC   GL271774  22.169  11.210   6.150
 8974POPC   C1A71775  22.178  11.329   6.450
 8974POPC   D2A71776  22.156  11.349   6.750
 8974POPC   C3A71777  22.159  11.333   7.050
 8974POPC   C4A71778  22.144  11.272   7.350
 8974POPC   C1B71779  22.190  11.057   6.450
 8974POPC   C2B71780  22.275  11.017   6.750
 8974POPC   C3B71781  22.198  11.065   7.050
 8974POPC   C4B71782  22.254  11.046   7.350
 8975POPC   NC371783  27.575  15.151   5.550
 8975POPC   PO471784  27.552  15.134   5.850
 8975POPC   GL171785  27.586  15.219   6.150
 8975POPC   GL271786  27.489  15.264   6.150
 8975POPC   C1A71787  27.620  15.178   6.450
 8975POPC   D2A71788  27.553  15.137   6.750
 8975POPC   C3A71789  27.608  15.151   7.050
 8975POPC   C4A71790  27.568  15.170   7.350
 8975POPC   C1B71791  27.335  15.208   6.450
 8975POPC   C2B71792  27.338  15.232   6.750
 8975POPC   C3B71793  27.394  15.291   7.050
 8975POPC   C4B71794  27.400  15.248   7.350
 8976POPC   NC371795   8.186  17.480   5.550
 8976POPC   PO471796   8.210  17.553   5.850
 8976POPC   GL171797   8.243  17.509   6.150
 8976POPC   GL271798   8.089  17.421   6.150
 8976POPC   C1A71799   8.206  17.523   6.450
 8976POPC   D2A71800   8.204  17.499   6.750
 8976POPC   C3A71801   8.234  17.508   7.050
 8976POPC   C4A71802   8.241  17.490   7.350
 8976POPC   C1B71803   7.979  17.304   6.450
 8976POPC   C2B71804   8.042  17.302   6.750
 8976POPC   C3B71805   7.980  17.340   7.050
 8976POPC   C4B71806   7.967  17.380   7.350
 8977POPC   NC371807  36.122  39.249   5.550
 8977POPC   PO471808  36.140  39.183   5.850
 8977POPC   GL171809  36.098  39.230   6.150
 8977POPC   GL271810  36.286  39.195   6.150
 8977POPC   C1A71811  36.152  39.220   6.450
 8977POPC   D2A71812  36.094  39.278   6.750
 8977POPC   C3A71813  36.128  39.234   7.050
 8977POPC   C4A71814  36.164  39.244   7.350
 8977POPC   C1B71815  36.368  39.147   6.450
 8977POPC   C2B71816  36.311  39.182   6.750
 8977POPC   C3B71817  36.335  39.175   7.050
 8977POPC   C4B71818  36.345  39.135   7.350
 8978POPC   NC371819  28.413  21.344   5.550
 8978POPC   PO471820  28.413  21.342   5.850
 8978POPC   GL171821  28.400  21.337   6.150
 8978POPC   GL271822  28.325  21.514   6.150
 8978POPC   C1A71823  28.415  21.373   6.450
 8978POPC   D2A71824  28.375  21.358   6.750
 8978POPC   C3A71825  28.372  21.375   7.050
 8978POPC   C4A71826  28.353  21.361   7.350
 8978POPC   C1B71827  28.266  21.619   6.450
 8978POPC   C2B71828  28.245  21.625   6.750
 8978POPC   C3B71829  28.278  21.622   7.050
 8978POPC   C4B71830  28.289  21.593   7.350
 8979POPC   NC371831  36.925   2.013   5.550
 8979POPC   PO471832  36.950   2.004   5.850
 8979POPC   GL171833  36.883   1.993   6.150
 8979POPC   GL271834  36.988   1.894   6.150
 8979POPC   C1A71835  36.868   1.966   6.450
 8979POPC   D2A71836  36.873   1.989   6.750
 8979POPC   C3A71837  36.881   2.030   7.050
 8979POPC   C4A71838  36.917   2.025   7.350
 8979POPC   C1B71839  37.091   1.838   6.450
 8979POPC   C2B71840  37.065   1.840   6.750
 8979POPC   C3B71841  37.127   1.847   7.050
 8979POPC   C4B71842  37.070   1.804   7.350
 8980POPC   NC371843  14.428  36.107   5.550
 8980POPC   PO471844  14.384  36.158   5.850
 8980POPC   GL171845  14.366  36.137   6.150
 8980POPC   GL271846  14.387  36.287   6.150
 8980POPC   C1A71847  14.440  36.155   6.450
 8980POPC   D2A71848  14.420  36.161   6.750
 8980POPC   C3A71849  14.354  36.171   7.050
 8980POPC   C4A71850  14.427  36.155   7.350
 8980POPC   C1B71851  14.424  36.421   6.450
 8980POPC   C2B71852  14.442  36.354   6.750
 8980POPC   C3B71853  14.419  36.389   7.050
 8980POPC   C4B71854  14.444  36.352   7.350
 8981POPC   NC371855   6.650  20.618   5.550
 8981POPC   PO471856   6.628  20.623   5.850
 8981POPC   GL171857   6.634  20.648   6.150
 8981POPC   GL271858   6.756  20.646   6.150
 8981POPC   C1A71859   6.629  20.584   6.450
 8981POPC   D2A71860   6.666  20.610   6.750
 8981POPC   C3A71861   6.652  20.567   7.050
 8981POPC   C4A71862   6.616  20.606   7.350
 8981POPC   C1B71863   6.806  20.797   6.450
 8981POPC   C2B71864   6.874  20.720   6.750
 8981POPC   C3B71865   6.874  20.725   7.050
 8981POPC   C4B71866   6.873  20.767   7.350
 8982POPC   NC371867  13.653  39.991   5.550
 8982POPC   PO471868  13.637  39.982   5.850
 8982POPC   GL171869  13.636  39.966   6.150
 8982POPC   GL271870  13.517  40.030   6.150
 8982POPC   C1A71871  13.656  40.054   6.450
 8982POPC   D2A71872  13.636  39.974   6.750
 8982POPC   C3A71873  13.635  40.002   7.050
 8982POPC   C4A71874  13.618  39.971   7.350
 8982POPC   C1B71875  13.359  40.129   6.450
 8982POPC   C2B71876  13.368  40.070   6.750
 8982POPC   C3B71877  13.401  40.125   7.050
 8982POPC   C4B71878  13.441  40.077   7.350
 8983POPC   NC371879   2.030  10.573   5.550
 8983POPC   PO471880   1.962  10.567   5.850
 8983POPC   GL171881   2.033  10.534   6.150
 8983POPC   GL271882   1.906  10.513   6.150
 8983POPC   C1A71883   1.972  10.559   6.450
 8983POPC   D2A71884   1.979  10.549   6.750
 8983POPC   C3A71885   1.988  10.554   7.050
 8983POPC   C4A71886   1.999  10.499   7.350
 8983POPC   C1B71887   1.774  10.525   6.450
 8983POPC   C2B71888   1.773  10.588   6.750
 8983POPC   C3B71889   1.784  10.525   7.050
 8983POPC   C4B71890   1.791  10.547   7.350
 8984POPC   NC371891   7.423   0.393   5.550
 8984POPC   PO471892   7.376   0.417   5.850
 8984POPC   GL171893   7.409   0.458   6.150
 8984POPC   GL271894   7.342   0.454   6.150
 8984POPC   C1A71895   7.456   0.441   6.450
 8984POPC   D2A71896   7.412   0.437   6.750
 8984POPC   C3A71897   7.373   0.415   7.050
 8984POPC   C4A71898   7.461   0.434   7.350
 8984POPC   C1B71899   7.153   0.491   6.450
 8984POPC   C2B71900   7.157   0.528   6.750
 8984POPC   C3B71901   7.211   0.487   7.050
 8984POPC   C4B71902   7.173   0.498   7.350
 8985POPC   NC371903  42.341  10.547   5.550
 8985POPC   PO471904  42.306  10.513   5.850
 8985POPC   GL171905  42.323  10.509   6.150
 8985POPC   GL271906  42.261  10.581   6.150
 8985POPC   C1A71907  42.360  10.498   6.450
 8985POPC   D2A71908  42.327  10.503   6.750
 8985POPC   C3A71909  42.367  10.564   7.050
 8985POPC   C4A71910  42.296  10.530   7.350
 8985POPC   C1B71911  42.125  10.604   6.450
 8985POPC   C2B71912  42.055  10.604   6.750
 8985POPC   C3B71913  42.129  10.597   7.050
 8985POPC   C4B71914  42.044  10.546   7.350
 8986POPC   NC371915   1.988   5.913   5.550
 8986POPC   PO471916   2.036   5.823   5.850
 8986POPC   GL171917   2.016   5.871   6.150
 8986POPC   GL271918   1.897   5.770   6.150
 8986POPC   C1A71919   1.969   5.900   6.450
 8986POPC   D2A71920   1.962   5.897   6.750
 8986POPC   C3A71921   2.031   5.868   7.050
 8986POPC   C4A71922   2.016   5.897   7.350
 8986POPC   C1B71923   1.841   5.649   6.450
 8986POPC   C2B71924   1.817   5.652   6.750
 8986POPC   C3B71925   1.788   5.708   7.050
 8986POPC   C4B71926   1.798   5.695   7.350
 8987POPC   NC371927  31.506  36.144   5.550
 8987POPC   PO471928  31.459  36.161   5.850
 8987POPC   GL171929  31.441  36.093   6.150
 8987POPC   GL271930  31.498  36.006   6.150
 8987POPC   C1A71931  31.514  36.162   6.450
 8987POPC   D2A71932  31.443  36.098   6.750
 8987POPC   C3A71933  31.446  36.166   7.050
 8987POPC   C4A71934  31.446  36.135   7.350
 8987POPC   C1B71935  31.458  35.925   6.450
 8987POPC   C2B71936  31.523  35.842   6.750
 8987POPC   C3B71937  31.469  35.922   7.050
 8987POPC   C4B71938  31.486  35.896   7.350
 8988POPC   NC371939  28.339  15.216   5.550
 8988POPC   PO471940  28.358  15.178   5.850
 8988POPC   GL171941  28.339  15.174   6.150
 8988POPC   GL271942  28.293  15.259   6.150
 8988POPC   C1A71943  28.344  15.227   6.450
 8988POPC   D2A71944  28.374  15.157   6.750
 8988POPC   C3A71945  28.398  15.174   7.050
 8988POPC   C4A71946  28.416  15.154   7.350
 8988POPC   C1B71947  28.235  15.381   6.450
 8988POPC   C2B71948  28.232  15.359   6.750
 8988POPC   C3B71949  28.189  15.351   7.050
 8988POPC   C4B71950  28.180  15.364   7.350
 8989POPC   NC371951  33.826   6.641   5.550
 8989POPC   PO471952  33.792   6.647   5.850
 8989POPC   GL171953  33.793   6.613   6.150
 8989POPC   GL271954  33.958   6.624   6.150
 8989POPC   C1A71955  33.758   6.670   6.450
 8989POPC   D2A71956  33.846   6.610   6.750
 8989POPC   C3A71957  33.804   6.609   7.050
 8989POPC   C4A71958  33.783   6.695   7.350
 8989POPC   C1B71959  34.067   6.712   6.450
 8989POPC   C2B71960  34.039   6.660   6.750
 8989POPC   C3B71961  34.024   6.707   7.050
 8989POPC   C4B71962  34.088   6.708   7.350
 8990POPC   NC371963   1.231  42.293   5.550
 8990POPC   PO471964   1.232  42.324   5.850
 8990POPC   GL171965   1.218  42.308   6.150
 8990POPC   GL271966   1.218  42.496   6.150
 8990POPC   C1A71967   1.180  42.329   6.450
 8990POPC   D2A71968   1.246  42.372   6.750
 8990POPC   C3A71969   1.261  42.351   7.050
 8990POPC   C4A71970   1.256  42.331   7.350
 8990POPC   C1B71971   1.117  42.537   6.450
 8990POPC   C2B71972   1.149  42.623   6.750
 8990POPC   C3B71973   1.150  42.593   7.050
 8990POPC   C4B71974   1.203  42.591   7.350
 8991POPC   NC371975  39.259  43.866   5.550
 8991POPC   PO471976  39.262  43.915   5.850
 8991POPC   GL171977  39.198  43.902   6.150
 8991POPC   GL271978  39.201  43.787   6.150
 8991POPC   C1A71979  39.205  43.863   6.450
 8991POPC   D2A71980  39.219  43.919   6.750
 8991POPC   C3A71981  39.227  43.881   7.050
 8991POPC   C4A71982  39.258  43.921   7.350
 8991POPC   C1B71983  39.248  43.622   6.450
 8991POPC   C2B71984  39.191  43.654   6.750
 8991POPC   C3B71985  39.223  43.662   7.050
 8991POPC   C4B71986  39.169  43.636   7.350
 8992POPC   NC371987  32.258  13.588   5.550
 8992POPC   PO471988  32.238  13.578   5.850
 8992POPC   GL171989  32.255  13.632   6.150
 8992POPC   GL271990  32.215  13.477   6.150
 8992POPC   C1A71991  32.208  13.590   6.450
 8992POPC   D2A71992  32.269  13.616   6.750
 8992POPC   C3A71993  32.244  13.621   7.050
 8992POPC   C4A71994  32.201  13.647   7.350
 8992POPC   C1B71995  32.264  13.334   6.450
 8992POPC   C2B71996  32.252  13.422   6.750
 8992POPC   C3B71997  32.270  13.368   7.050
 8992POPC   C4B71998  32.253  13.406   7.350
 8993POPC   NC371999  29.924   4.313   5.550
 8993POPC   PO472000  29.924   4.285   5.850
 8993POPC   GL172001  29.940   4.339   6.150
 8993POPC   GL272002  29.825   4.319   6.150
 8993POPC   C1A72003  29.901   4.291   6.450
 8993POPC   D2A72004  29.948   4.271   6.750
 8993POPC   C3A72005  29.936   4.348   7.050
 8993POPC   C4A72006  29.879   4.337   7.350
 8993POPC   C1B72007  29.726   4.235   6.450
 8993POPC   C2B72008  29.702   4.283   6.750
 8993POPC   C3B72009  29.648   4.272   7.050
 8993POPC   C4B72010  29.632   4.211   7.350
 8994POPC   NC372011  15.977   5.838   5.550
 8994POPC   PO472012  15.986   5.898   5.850
 8994POPC   GL172013  15.944   5.897   6.150
 8994POPC   GL272014  15.913   5.967   6.150
 8994POPC   C1A72015  15.959   5.878   6.450
 8994POPC   D2A72016  16.000   5.895   6.750
 8994POPC   C3A72017  15.919   5.903   7.050
 8994POPC   C4A72018  15.983   5.829   7.350
 8994POPC   C1B72019  15.885   6.125   6.450
 8994POPC   C2B72020  15.888   6.082   6.750
 8994POPC   C3B72021  15.867   6.140   7.050
 8994POPC   C4B72022  15.930   6.124   7.350
 8995POPC   NC372023  31.486  20.658   5.550
 8995POPC   PO472024  31.504  20.579   5.850
 8995POPC   GL172025  31.476  20.643   6.150
 8995POPC   GL272026  31.458  20.708   6.150
 8995POPC   C1A72027  31.496  20.575   6.450
 8995POPC   D2A72028  31.433  20.587   6.750
 8995POPC   C3A72029  31.515  20.617   7.050
 8995POPC   C4A72030  31.450  20.642   7.350
 8995POPC   C1B72031  31.445  20.897   6.450
 8995POPC   C2B72032  31.454  20.861   6.750
 8995POPC   C3B72033  31.517  20.850   7.050
 8995POPC   C4B72034  31.498  20.851   7.350
 8996POPC   NC372035  37.721  16.747   5.550
 8996POPC   PO472036  37.654  16.732   5.850
 8996POPC   GL172037  37.654  16.688   6.150
 8996POPC   GL272038  37.756  16.854   6.150
 8996POPC   C1A72039  37.683  16.688   6.450
 8996POPC   D2A72040  37.704  16.712   6.750
 8996POPC   C3A72041  37.645  16.773   7.050
 8996POPC   C4A72042  37.648  16.763   7.350
 8996POPC   C1B72043  37.867  16.931   6.450
 8996POPC   C2B72044  37.897  16.892   6.750
 8996POPC   C3B72045  37.856  16.866   7.050
 8996POPC   C4B72046  37.815  16.907   7.350
 8997POPC   NC372047  25.279  29.178   5.550
 8997POPC   PO472048  25.315  29.145   5.850
 8997POPC   GL172049  25.306  29.107   6.150
 8997POPC   GL272050  25.420  29.168   6.150
 8997POPC   C1A72051  25.238  29.102   6.450
 8997POPC   D2A72052  25.245  29.180   6.750
 8997POPC   C3A72053  25.304  29.190   7.050
 8997POPC   C4A72054  25.280  29.167   7.350
 8997POPC   C1B72055  25.479  29.151   6.450
 8997POPC   C2B72056  25.518  29.145   6.750
 8997POPC   C3B72057  25.515  29.172   7.050
 8997POPC   C4B72058  25.487  29.164   7.350
 8998POPC   NC372059  13.662  26.089   5.550
 8998POPC   PO472060  13.615  25.991   5.850
 8998POPC   GL172061  13.645  26.044   6.150
 8998POPC   GL272062  13.572  26.182   6.150
 8998POPC   C1A72063  13.642  26.005   6.450
 8998POPC   D2A72064  13.578  26.054   6.750
 8998POPC   C3A72065  13.657  26.089   7.050
 8998POPC   C4A72066  13.594  26.053   7.350
 8998POPC   C1B72067  13.447  26.220   6.450
 8998POPC   C2B72068  13.436  26.263   6.750
 8998POPC   C3B72069  13.492  26.263   7.050
 8998POPC   C4B72070  13.441  26.256   7.350
 8999POPC   NC372071  15.943   5.101   5.550
 8999POPC   PO472072  15.942   5.134   5.850
 8999POPC   GL172073  15.916   5.058   6.150
 8999POPC   GL272074  15.896   4.986   6.150
 8999POPC   C1A72075  15.958   5.139   6.450
 8999POPC   D2A72076  15.993   5.140   6.750
 8999POPC   C3A72077  15.961   5.118   7.050
 8999POPC   C4A72078  15.931   5.071   7.350
 8999POPC   C1B72079  15.900   4.874   6.450
 8999POPC   C2B72080  15.900   4.870   6.750
 8999POPC   C3B72081  15.847   4.898   7.050
 8999POPC   C4B72082  15.879   4.851   7.350
 9000POPC   NC372083   6.599  17.515   5.550
 9000POPC   PO472084   6.693  17.514   5.850
 9000POPC   GL172085   6.672  17.464   6.150
 9000POPC   GL272086   6.627  17.343   6.150
 9000POPC   C1A72087   6.664  17.511   6.450
 9000POPC   D2A72088   6.617  17.536   6.750
 9000POPC   C3A72089   6.597  17.506   7.050
 9000POPC   C4A72090   6.687  17.471   7.350
 9000POPC   C1B72091   6.632  17.290   6.450
 9000POPC   C2B72092   6.614  17.299   6.750
 9000POPC   C3B72093   6.637  17.243   7.050
 9000POPC   C4B72094   6.614  17.219   7.350
 9001POPC   NC372095  25.311  30.648   5.550
 9001POPC   PO472096  25.290  30.660   5.850
 9001POPC   GL172097  25.256  30.716   6.150
 9001POPC   GL272098  25.224  30.627   6.150
 9001POPC   C1A72099  25.269  30.698   6.450
 9001POPC   D2A72100  25.300  30.683   6.750
 9001POPC   C3A72101  25.266  30.746   7.050
 9001POPC   C4A72102  25.246  30.673   7.350
 9001POPC   C1B72103  25.138  30.492   6.450
 9001POPC   C2B72104  25.141  30.444   6.750
 9001POPC   C3B72105  25.090  30.468   7.050
 9001POPC   C4B72106  25.178  30.440   7.350
 9002POPC   NC372107  26.858  12.838   5.550
 9002POPC   PO472108  26.797  12.862   5.850
 9002POPC   GL172109  26.816  12.834   6.150
 9002POPC   GL272110  26.747  12.964   6.150
 9002POPC   C1A72111  26.787  12.832   6.450
 9002POPC   D2A72112  26.814  12.807   6.750
 9002POPC   C3A72113  26.770  12.821   7.050
 9002POPC   C4A72114  26.830  12.827   7.350
 9002POPC   C1B72115  26.721  13.015   6.450
 9002POPC   C2B72116  26.697  13.079   6.750
 9002POPC   C3B72117  26.712  13.085   7.050
 9002POPC   C4B72118  26.686  13.013   7.350
 9003POPC   NC372119  29.123  21.344   5.550
 9003POPC   PO472120  29.106  21.414   5.850
 9003POPC   GL172121  29.111  21.428   6.150
 9003POPC   GL272122  29.046  21.445   6.150
 9003POPC   C1A72123  29.170  21.395   6.450
 9003POPC   D2A72124  29.116  21.406   6.750
 9003POPC   C3A72125  29.171  21.421   7.050
 9003POPC   C4A72126  29.173  21.381   7.350
 9003POPC   C1B72127  28.910  21.526   6.450
 9003POPC   C2B72128  28.929  21.538   6.750
 9003POPC   C3B72129  28.945  21.515   7.050
 9003POPC   C4B72130  28.944  21.509   7.350
 9004POPC   NC372131  10.510   6.614   5.550
 9004POPC   PO472132  10.484   6.621   5.850
 9004POPC   GL172133  10.518   6.613   6.150
 9004POPC   GL272134  10.543   6.570   6.150
 9004POPC   C1A72135  10.483   6.642   6.450
 9004POPC   D2A72136  10.552   6.626   6.750
 9004POPC   C3A72137  10.513   6.621   7.050
 9004POPC   C4A72138  10.486   6.596   7.350
 9004POPC   C1B72139  10.516   6.383   6.450
 9004POPC   C2B72140  10.514   6.425   6.750
 9004POPC   C3B72141  10.535   6.359   7.050
 9004POPC   C4B72142  10.507   6.408   7.350
 9005POPC   NC372143  22.118  19.049   5.550
 9005POPC   PO472144  22.187  19.074   5.850
 9005POPC   GL172145  22.119  19.098   6.150
 9005POPC   GL272146  22.297  19.036   6.150
 9005POPC   C1A72147  22.129  19.067   6.450
 9005POPC   D2A72148  22.177  19.041   6.750
 9005POPC   C3A72149  22.156  19.088   7.050
 9005POPC   C4A72150  22.180  19.076   7.350
 9005POPC   C1B72151  22.412  18.970   6.450
 9005POPC   C2B72152  22.404  18.959   6.750
 9005POPC   C3B72153  22.357  18.917   7.050
 9005POPC   C4B72154  22.351  18.945   7.350
 9006POPC   NC372155  21.344  10.488   5.550
 9006POPC   PO472156  21.368  10.506   5.850
 9006POPC   GL172157  21.341  10.485   6.150
 9006POPC   GL272158  21.291  10.464   6.150
 9006POPC   C1A72159  21.340  10.535   6.450
 9006POPC   D2A72160  21.338  10.478   6.750
 9006POPC   C3A72161  21.342  10.549   7.050
 9006POPC   C4A72162  21.363  10.500   7.350
 9006POPC   C1B72163  21.169  10.453   6.450
 9006POPC   C2B72164  21.182  10.455   6.750
 9006POPC   C3B72165  21.168  10.502   7.050
 9006POPC   C4B72166  21.112  10.522   7.350
 9007POPC   NC372167  39.250  34.621   5.550
 9007POPC   PO472168  39.268  34.528   5.850
 9007POPC   GL172169  39.191  34.577   6.150
 9007POPC   GL272170  39.148  34.440   6.150
 9007POPC   C1A72171  39.244  34.588   6.450
 9007POPC   D2A72172  39.221  34.605   6.750
 9007POPC   C3A72173  39.218  34.555   7.050
 9007POPC   C4A72174  39.278  34.557   7.350
 9007POPC   C1B72175  39.124  34.394   6.450
 9007POPC   C2B72176  39.140  34.406   6.750
 9007POPC   C3B72177  39.063  34.397   7.050
 9007POPC   C4B72178  39.068  34.402   7.350
 9008POPC   NC372179  43.912  30.718   5.550
 9008POPC   PO472180  43.930  30.699   5.850
 9008POPC   GL172181  43.918  30.677   6.150
 9008POPC   GL272182  43.747  30.813   6.150
 9008POPC   C1A72183  43.870  30.691   6.450
 9008POPC   D2A72184  43.900  30.734   6.750
 9008POPC   C3A72185  43.850  30.671   7.050
 9008POPC   C4A72186  43.873  30.718   7.350
 9008POPC   C1B72187  43.721  30.826   6.450
 9008POPC   C2B72188  43.651  30.889   6.750
 9008POPC   C3B72189  43.651  30.887   7.050
 9008POPC   C4B72190  43.645  30.895   7.350
 9009POPC   NC372191  30.730  35.355   5.550
 9009POPC   PO472192  30.670  35.396   5.850
 9009POPC   GL172193  30.730  35.391   6.150
 9009POPC   GL272194  30.638  35.276   6.150
 9009POPC   C1A72195  30.676  35.307   6.450
 9009POPC   D2A72196  30.684  35.341   6.750
 9009POPC   C3A72197  30.732  35.312   7.050
 9009POPC   C4A72198  30.650  35.362   7.350
 9009POPC   C1B72199  30.583  35.155   6.450
 9009POPC   C2B72200  30.492  35.158   6.750
 9009POPC   C3B72201  30.552  35.149   7.050
 9009POPC   C4B72202  30.569  35.169   7.350
 9010POPC   NC372203  34.578  26.029   5.550
 9010POPC   PO472204  34.594  26.009   5.850
 9010POPC   GL172205  34.583  26.058   6.150
 9010POPC   GL272206  34.647  25.996   6.150
 9010POPC   C1A72207  34.527  26.081   6.450
 9010POPC   D2A72208  34.553  26.020   6.750
 9010POPC   C3A72209  34.554  26.029   7.050
 9010POPC   C4A72210  34.610  26.004   7.350
 9010POPC   C1B72211  34.855  25.961   6.450
 9010POPC   C2B72212  34.832  25.896   6.750
 9010POPC   C3B72213  34.772  25.935   7.050
 9010POPC   C4B72214  34.790  25.955   7.350
 9011POPC   NC372215  37.698  11.292   5.550
 9011POPC   PO472216  37.654  11.316   5.850
 9011POPC   GL172217  37.728  11.337   6.150
 9011POPC   GL272218  37.726  11.193   6.150
 9011POPC   C1A72219  37.662  11.336   6.450
 9011POPC   D2A72220  37.726  11.250   6.750
 9011POPC   C3A72221  37.662  11.296   7.050
 9011POPC   C4A72222  37.715  11.294   7.350
 9011POPC   C1B72223  37.775  11.075   6.450
 9011POPC   C2B72224  37.720  11.101   6.750
 9011POPC   C3B72225  37.703  11.103   7.050
 9011POPC   C4B72226  37.753  11.024   7.350
 9012POPC   NC372227  33.800  12.835   5.550
 9012POPC   PO472228  33.847  12.860   5.850
 9012POPC   GL172229  33.771  12.888   6.150
 9012POPC   GL272230  33.844  12.955   6.150
 9012POPC   C1A72231  33.805  12.874   6.450
 9012POPC   D2A72232  33.761  12.885   6.750
 9012POPC   C3A72233  33.809  12.893   7.050
 9012POPC   C4A72234  33.781  12.893   7.350
 9012POPC   C1B72235  33.941  13.075   6.450
 9012POPC   C2B72236  33.988  13.068   6.750
 9012POPC   C3B72237  34.002  13.076   7.050
 9012POPC   C4B72238  33.970  13.078   7.350
 9013POPC   NC372239  42.339  12.863   5.550
 9013POPC   PO472240  42.296  12.823   5.850
 9013POPC   GL172241  42.336  12.893   6.150
 9013POPC   GL272242  42.491  12.817   6.150
 9013POPC   C1A72243  42.295  12.861   6.450
 9013POPC   D2A72244  42.366  12.873   6.750
 9013POPC   C3A72245  42.296  12.878   7.050
 9013POPC   C4A72246  42.312  12.850   7.350
 9013POPC   C1B72247  42.599  12.702   6.450
 9013POPC   C2B72248  42.589  12.719   6.750
 9013POPC   C3B72249  42.604  12.705   7.050
 9013POPC   C4B72250  42.547  12.749   7.350
 9014POPC   NC372251  19.787  10.520   5.550
 9014POPC   PO472252  19.818  10.557   5.850
 9014POPC   GL172253  19.846  10.503   6.150
 9014POPC   GL272254  19.760  10.406   6.150
 9014POPC   C1A72255  19.796  10.560   6.450
 9014POPC   D2A72256  19.800  10.538   6.750
 9014POPC   C3A72257  19.800  10.516   7.050
 9014POPC   C4A72258  19.874  10.525   7.350
 9014POPC   C1B72259  19.671  10.400   6.450
 9014POPC   C2B72260  19.648  10.389   6.750
 9014POPC   C3B72261  19.622  10.396   7.050
 9014POPC   C4B72262  19.605  10.402   7.350
 9015POPC   NC372263  40.820   9.776   5.550
 9015POPC   PO472264  40.814   9.787   5.850
 9015POPC   GL172265  40.750   9.723   6.150
 9015POPC   GL272266  40.695   9.684   6.150
 9015POPC   C1A72267  40.793   9.780   6.450
 9015POPC   D2A72268  40.757   9.747   6.750
 9015POPC   C3A72269  40.773   9.763   7.050
 9015POPC   C4A72270  40.815   9.775   7.350
 9015POPC   C1B72271  40.555   9.711   6.450
 9015POPC   C2B72272  40.504   9.741   6.750
 9015POPC   C3B72273  40.549   9.764   7.050
 9015POPC   C4B72274  40.565   9.741   7.350
 9016POPC   NC372275  34.624  29.916   5.550
 9016POPC   PO472276  34.530  29.934   5.850
 9016POPC   GL172277  34.594  29.957   6.150
 9016POPC   GL272278  34.453  29.819   6.150
 9016POPC   C1A72279  34.600  29.938   6.450
 9016POPC   D2A72280  34.626  29.929   6.750
 9016POPC   C3A72281  34.544  29.950   7.050
 9016POPC   C4A72282  34.537  29.955   7.350
 9016POPC   C1B72283  34.338  29.732   6.450
 9016POPC   C2B72284  34.351  29.813   6.750
 9016POPC   C3B72285  34.380  29.727   7.050
 9016POPC   C4B72286  34.417  29.745   7.350
 9017POPC   NC372287  41.539  28.350   5.550
 9017POPC   PO472288  41.558  28.325   5.850
 9017POPC   GL172289  41.570  28.356   6.150
 9017POPC   GL272290  41.447  28.468   6.150
 9017POPC   C1A72291  41.514  28.409   6.450
 9017POPC   D2A72292  41.541  28.360   6.750
 9017POPC   C3A72293  41.532  28.344   7.050
 9017POPC   C4A72294  41.514  28.381   7.350
 9017POPC   C1B72295  41.437  28.556   6.450
 9017POPC   C2B72296  41.418  28.527   6.750
 9017POPC   C3B72297  41.390  28.602   7.050
 9017POPC   C4B72298  41.433  28.575   7.350
 9018POPC   NC372299  29.104  12.044   5.550
 9018POPC   PO472300  29.106  12.069   5.850
 9018POPC   GL172301  29.193  12.062   6.150
 9018POPC   GL272302  29.030  11.956   6.150
 9018POPC   C1A72303  29.152  12.115   6.450
 9018POPC   D2A72304  29.177  12.037   6.750
 9018POPC   C3A72305  29.184  12.027   7.050
 9018POPC   C4A72306  29.116  12.071   7.350
 9018POPC   C1B72307  28.944  11.916   6.450
 9018POPC   C2B72308  28.951  11.840   6.750
 9018POPC   C3B72309  28.973  11.865   7.050
 9018POPC   C4B72310  28.985  11.836   7.350
 9019POPC   NC372311  28.332  12.898   5.550
 9019POPC   PO472312  28.351  12.831   5.850
 9019POPC   GL172313  28.417  12.830   6.150
 9019POPC   GL272314  28.491  12.910   6.150
 9019POPC   C1A72315  28.376  12.828   6.450
 9019POPC   D2A72316  28.412  12.867   6.750
 9019POPC   C3A72317  28.404  12.891   7.050
 9019POPC   C4A72318  28.363  12.872   7.350
 9019POPC   C1B72319  28.546  13.013   6.450
 9019POPC   C2B72320  28.580  13.010   6.750
 9019POPC   C3B72321  28.562  13.066   7.050
 9019POPC   C4B72322  28.505  13.016   7.350
 9020POPC   NC372323  31.432   1.224   5.550
 9020POPC   PO472324  31.512   1.260   5.850
 9020POPC   GL172325  31.479   1.199   6.150
 9020POPC   GL272326  31.533   1.061   6.150
 9020POPC   C1A72327  31.463   1.213   6.450
 9020POPC   D2A72328  31.519   1.183   6.750
 9020POPC   C3A72329  31.486   1.194   7.050
 9020POPC   C4A72330  31.504   1.210   7.350
 9020POPC   C1B72331  31.626   0.969   6.450
 9020POPC   C2B72332  31.637   1.038   6.750
 9020POPC   C3B72333  31.576   0.980   7.050
 9020POPC   C4B72334  31.632   0.976   7.350
 9021POPC   NC372335  22.901   9.792   5.550
 9021POPC   PO472336  22.984   9.770   5.850
 9021POPC   GL172337  22.935   9.727   6.150
 9021POPC   GL272338  23.040   9.793   6.150
 9021POPC   C1A72339  22.890   9.755   6.450
 9021POPC   D2A72340  22.904   9.707   6.750
 9021POPC   C3A72341  22.902   9.712   7.050
 9021POPC   C4A72342  22.894   9.705   7.350
 9021POPC   C1B72343  23.145   9.877   6.450
 9021POPC   C2B72344  23.131   9.908   6.750
 9021POPC   C3B72345  23.127   9.891   7.050
 9021POPC   C4B72346  23.121   9.864   7.350
 9022POPC   NC372347   5.130  19.796   5.550
 9022POPC   PO472348   5.045  19.832   5.850
 9022POPC   GL172349   5.092  19.807   6.150
 9022POPC   GL272350   5.189  19.951   6.150
 9022POPC   C1A72351   5.054  19.847   6.450
 9022POPC   D2A72352   5.126  19.879   6.750
 9022POPC   C3A72353   5.069  19.810   7.050
 9022POPC   C4A72354   5.123  19.806   7.350
 9022POPC   C1B72355   5.179  20.082   6.450
 9022POPC   C2B72356   5.238  20.071   6.750
 9022POPC   C3B72357   5.233  20.070   7.050
 9022POPC   C4B72358   5.213  20.062   7.350
 9023POPC   NC372359  11.343   4.367   5.550
 9023POPC   PO472360  11.333   4.352   5.850
 9023POPC   GL172361  11.265   4.350   6.150
 9023POPC   GL272362  11.442   4.369   6.150
 9023POPC   C1A72363  11.288   4.342   6.450
 9023POPC   D2A72364  11.350   4.269   6.750
 9023POPC   C3A72365  11.313   4.334   7.050
 9023POPC   C4A72366  11.334   4.272   7.350
 9023POPC   C1B72367  11.506   4.390   6.450
 9023POPC   C2B72368  11.523   4.406   6.750
 9023POPC   C3B72369  11.505   4.398   7.050
 9023POPC   C4B72370  11.565   4.416   7.350
 9024POPC   NC372371  30.742  13.601   5.550
 9024POPC   PO472372  30.726  13.624   5.850
 9024POPC   GL172373  30.675  13.605   6.150
 9024POPC   GL272374  30.722  13.801   6.150
 9024POPC   C1A72375  30.709  13.583   6.450
 9024POPC   D2A72376  30.722  13.592   6.750
 9024POPC   C3A72377  30.711  13.600   7.050
 9024POPC   C4A72378  30.732  13.628   7.350
 9024POPC   C1B72379  30.663  13.881   6.450
 9024POPC   C2B72380  30.652  13.880   6.750
 9024POPC   C3B72381  30.690  13.879   7.050
 9024POPC   C4B72382  30.645  13.901   7.350
 9025POPC   NC372383  15.171  41.598   5.550
 9025POPC   PO472384  15.160  41.571   5.850
 9025POPC   GL172385  15.198  41.607   6.150
 9025POPC   GL272386  15.025  41.518   6.150
 9025POPC   C1A72387  15.206  41.546   6.450
 9025POPC   D2A72388  15.206  41.591   6.750
 9025POPC   C3A72389  15.196  41.558   7.050
 9025POPC   C4A72390  15.131  41.524   7.350
 9025POPC   C1B72391  14.943  41.543   6.450
 9025POPC   C2B72392  14.940  41.457   6.750
 9025POPC   C3B72393  14.937  41.490   7.050
 9025POPC   C4B72394  14.975  41.518   7.350
 9026POPC   NC372395  14.361   1.986   5.550
 9026POPC   PO472396  14.396   1.960   5.850
 9026POPC   GL172397  14.370   1.978   6.150
 9026POPC   GL272398  14.508   2.054   6.150
 9026POPC   C1A72399  14.448   2.016   6.450
 9026POPC   D2A72400  14.393   1.972   6.750
 9026POPC   C3A72401  14.411   2.033   7.050
 9026POPC   C4A72402  14.399   1.971   7.350
 9026POPC   C1B72403  14.574   2.144   6.450
 9026POPC   C2B72404  14.518   2.197   6.750
 9026POPC   C3B72405  14.516   2.145   7.050
 9026POPC   C4B72406  14.576   2.139   7.350
 9027POPC   NC372407  13.606   0.466   5.550
 9027POPC   PO472408  13.579   0.395   5.850
 9027POPC   GL172409  13.589   0.467   6.150
 9027POPC   GL272410  13.507   0.307   6.150
 9027POPC   C1A72411  13.612   0.431   6.450
 9027POPC   D2A72412  13.670   0.477   6.750
 9027POPC   C3A72413  13.618   0.481   7.050
 9027POPC   C4A72414  13.632   0.450   7.350
 9027POPC   C1B72415  13.428   0.277   6.450
 9027POPC   C2B72416  13.504   0.269   6.750
 9027POPC   C3B72417  13.455   0.246   7.050
 9027POPC   C4B72418  13.477   0.243   7.350
 9028POPC   NC372419  14.404  29.147   5.550
 9028POPC   PO472420  14.408  29.175   5.850
 9028POPC   GL172421  14.357  29.188   6.150
 9028POPC   GL272422  14.307  29.234   6.150
 9028POPC   C1A72423  14.378  29.104   6.450
 9028POPC   D2A72424  14.422  29.149   6.750
 9028POPC   C3A72425  14.382  29.102   7.050
 9028POPC   C4A72426  14.438  29.191   7.350
 9028POPC   C1B72427  14.196  29.279   6.450
 9028POPC   C2B72428  14.227  29.262   6.750
 9028POPC   C3B72429  14.240  29.251   7.050
 9028POPC   C4B72430  14.166  29.297   7.350
 9029POPC   NC372431  28.332  41.549   5.550
 9029POPC   PO472432  28.397  41.604   5.850
 9029POPC   GL172433  28.361  41.608   6.150
 9029POPC   GL272434  28.216  41.581   6.150
 9029POPC   C1A72435  28.410  41.601   6.450
 9029POPC   D2A72436  28.327  41.539   6.750
 9029POPC   C3A72437  28.333  41.542   7.050
 9029POPC   C4A72438  28.380  41.518   7.350
 9029POPC   C1B72439  28.148  41.565   6.450
 9029POPC   C2B72440  28.172  41.478   6.750
 9029POPC   C3B72441  28.130  41.531   7.050
 9029POPC   C4B72442  28.167  41.515   7.350
 9030POPC   NC372443  25.286  31.485   5.550
 9030POPC   PO472444  25.267  31.432   5.850
 9030POPC   GL172445  25.249  31.484   6.150
 9030POPC   GL272446  25.381  31.424   6.150
 9030POPC   C1A72447  25.245  31.518   6.450
 9030POPC   D2A72448  25.234  31.507   6.750
 9030POPC   C3A72449  25.245  31.431   7.050
 9030POPC   C4A72450  25.219  31.475   7.350
 9030POPC   C1B72451  25.390  31.257   6.450
 9030POPC   C2B72452  25.473  31.318   6.750
 9030POPC   C3B72453  25.471  31.329   7.050
 9030POPC   C4B72454  25.391  31.301   7.350
 9031POPC   NC372455  13.662  19.017   5.550
 9031POPC   PO472456  13.675  19.015   5.850
 9031POPC   GL172457  13.658  19.107   6.150
 9031POPC   GL272458  13.514  19.103   6.150
 9031POPC   C1A72459  13.609  19.066   6.450
 9031POPC   D2A72460  13.593  19.081   6.750
 9031POPC   C3A72461  13.613  19.015   7.050
 9031POPC   C4A72462  13.643  19.033   7.350
 9031POPC   C1B72463  13.404  19.094   6.450
 9031POPC   C2B72464  13.420  19.075   6.750
 9031POPC   C3B72465  13.345  19.087   7.050
 9031POPC   C4B72466  13.342  19.121   7.350
 9032POPC   NC372467   5.850  22.135   5.550
 9032POPC   PO472468   5.857  22.196   5.850
 9032POPC   GL172469   5.915  22.154   6.150
 9032POPC   GL272470   5.943  22.192   6.150
 9032POPC   C1A72471   5.827  22.177   6.450
 9032POPC   D2A72472   5.902  22.146   6.750
 9032POPC   C3A72473   5.880  22.114   7.050
 9032POPC   C4A72474   5.890  22.208   7.350
 9032POPC   C1B72475   6.106  22.152   6.450
 9032POPC   C2B72476   6.068  22.210   6.750
 9032POPC   C3B72477   6.074  22.178   7.050
 9032POPC   C4B72478   6.113  22.220   7.350
 9033POPC   NC372479  11.304  37.682   5.550
 9033POPC   PO472480  11.315  37.636   5.850
 9033POPC   GL172481  11.297  37.694   6.150
 9033POPC   GL272482  11.427  37.661   6.150
 9033POPC   C1A72483  11.289  37.637   6.450
 9033POPC   D2A72484  11.274  37.713   6.750
 9033POPC   C3A72485  11.342  37.633   7.050
 9033POPC   C4A72486  11.270  37.670   7.350
 9033POPC   C1B72487  11.498  37.716   6.450
 9033POPC   C2B72488  11.583  37.689   6.750
 9033POPC   C3B72489  11.572  37.684   7.050
 9033POPC   C4B72490  11.585  37.683   7.350
 9034POPC   NC372491   7.385  33.031   5.550
 9034POPC   PO472492   7.421  32.984   5.850
 9034POPC   GL172493   7.469  33.042   6.150
 9034POPC   GL272494   7.516  33.109   6.150
 9034POPC   C1A72495   7.418  33.051   6.450
 9034POPC   D2A72496   7.465  33.002   6.750
 9034POPC   C3A72497   7.464  32.996   7.050
 9034POPC   C4A72498   7.403  33.001   7.350
 9034POPC   C1B72499   7.506  33.197   6.450
 9034POPC   C2B72500   7.566  33.213   6.750
 9034POPC   C3B72501   7.543  33.267   7.050
 9034POPC   C4B72502   7.502  33.274   7.350
 9035POPC   NC372503  30.735  18.321   5.550
 9035POPC   PO472504  30.745  18.261   5.850
 9035POPC   GL172505  30.743  18.316   6.150
 9035POPC   GL272506  30.543  18.385   6.150
 9035POPC   C1A72507  30.699  18.319   6.450
 9035POPC   D2A72508  30.700  18.268   6.750
 9035POPC   C3A72509  30.681  18.272   7.050
 9035POPC   C4A72510  30.677  18.275   7.350
 9035POPC   C1B72511  30.509  18.406   6.450
 9035POPC   C2B72512  30.504  18.441   6.750
 9035POPC   C3B72513  30.488  18.393   7.050
 9035POPC   C4B72514  30.450  18.446   7.350
 9036POPC   NC372515  27.549   6.673   5.550
 9036POPC   PO472516  27.592   6.674   5.850
 9036POPC   GL172517  27.603   6.625   6.150
 9036POPC   GL272518  27.528   6.557   6.150
 9036POPC   C1A72519  27.575   6.660   6.450
 9036POPC   D2A72520  27.544   6.659   6.750
 9036POPC   C3A72521  27.545   6.616   7.050
 9036POPC   C4A72522  27.610   6.691   7.350
 9036POPC   C1B72523  27.456   6.422   6.450
 9036POPC   C2B72524  27.464   6.441   6.750
 9036POPC   C3B72525  27.422   6.428   7.050
 9036POPC   C4B72526  27.442   6.394   7.350
 9037POPC   NC372527   2.743  26.807   5.550
 9037POPC   PO472528   2.808  26.843   5.850
 9037POPC   GL172529   2.760  26.857   6.150
 9037POPC   GL272530   2.930  26.786   6.150
 9037POPC   C1A72531   2.796  26.772   6.450
 9037POPC   D2A72532   2.764  26.828   6.750
 9037POPC   C3A72533   2.803  26.816   7.050
 9037POPC   C4A72534   2.748  26.802   7.350
 9037POPC   C1B72535   3.037  26.741   6.450
 9037POPC   C2B72536   2.981  26.760   6.750
 9037POPC   C3B72537   2.984  26.709   7.050
 9037POPC   C4B72538   3.003  26.764   7.350
 9038POPC   NC372539  39.280   3.543   5.550
 9038POPC   PO472540  39.272   3.494   5.850
 9038POPC   GL172541  39.224   3.501   6.150
 9038POPC   GL272542  39.222   3.425   6.150
 9038POPC   C1A72543  39.249   3.514   6.450
 9038POPC   D2A72544  39.192   3.538   6.750
 9038POPC   C3A72545  39.241   3.538   7.050
 9038POPC   C4A72546  39.250   3.568   7.350
 9038POPC   C1B72547  39.098   3.350   6.450
 9038POPC   C2B72548  39.158   3.278   6.750
 9038POPC   C3B72549  39.127   3.358   7.050
 9038POPC   C4B72550  39.148   3.267   7.350
 9039POPC   NC372551  37.700  27.624   5.550
 9039POPC   PO472552  37.663  27.580   5.850
 9039POPC   GL172553  37.673  27.572   6.150
 9039POPC   GL272554  37.842  27.591   6.150
 9039POPC   C1A72555  37.673  27.626   6.450
 9039POPC   D2A72556  37.688  27.601   6.750
 9039POPC   C3A72557  37.693  27.584   7.050
 9039POPC   C4A72558  37.667  27.565   7.350
 9039POPC   C1B72559  37.862  27.496   6.450
 9039POPC   C2B72560  37.918  27.445   6.750
 9039POPC   C3B72561  37.903  27.538   7.050
 9039POPC   C4B72562  37.891  27.507   7.350
 9040POPC   NC372563  20.628  24.537   5.550
 9040POPC   PO472564  20.588  24.533   5.850
 9040POPC   GL172565  20.613  24.448   6.150
 9040POPC   GL272566  20.605  24.652   6.150
 9040POPC   C1A72567  20.609  24.481   6.450
 9040POPC   D2A72568  20.622  24.512   6.750
 9040POPC   C3A72569  20.577  24.509   7.050
 9040POPC   C4A72570  20.644  24.451   7.350
 9040POPC   C1B72571  20.608  24.715   6.450
 9040POPC   C2B72572  20.648  24.748   6.750
 9040POPC   C3B72573  20.605  24.720   7.050
 9040POPC   C4B72574  20.617  24.714   7.350
 9041POPC   NC372575   8.974  16.735   5.550
 9041POPC   PO472576   8.951  16.761   5.850
 9041POPC   GL172577   8.959  16.711   6.150
 9041POPC   GL272578   9.078  16.733   6.150
 9041POPC   C1A72579   9.017  16.762   6.450
 9041POPC   D2A72580   9.003  16.708   6.750
 9041POPC   C3A72581   8.980  16.683   7.050
 9041POPC   C4A72582   8.929  16.770   7.350
 9041POPC   C1B72583   9.195  16.766   6.450
 9041POPC   C2B72584   9.230  16.821   6.750
 9041POPC   C3B72585   9.200  16.798   7.050
 9041POPC   C4B72586   9.244  16.749   7.350
 9042POPC   NC372587   1.253  41.581   5.550
 9042POPC   PO472588   1.221  41.587   5.850
 9042POPC   GL172589   1.205  41.538   6.150
 9042POPC   GL272590   1.301  41.398   6.150
 9042POPC   C1A72591   1.184  41.552   6.450
 9042POPC   D2A72592   1.220  41.552   6.750
 9042POPC   C3A72593   1.167  41.518   7.050
 9042POPC   C4A72594   1.247  41.510   7.350
 9042POPC   C1B72595   1.345  41.343   6.450
 9042POPC   C2B72596   1.288  41.355   6.750
 9042POPC   C3B72597   1.283  41.321   7.050
 9042POPC   C4B72598   1.264  41.364   7.350
 9043POPC   NC372599   3.566  19.865   5.550
 9043POPC   PO472600   3.544  19.840   5.850
 9043POPC   GL172601   3.492  19.868   6.150
 9043POPC   GL272602   3.525  19.929   6.150
 9043POPC   C1A72603   3.564  19.870   6.450
 9043POPC   D2A72604   3.542  19.815   6.750
 9043POPC   C3A72605   3.535  19.881   7.050
 9043POPC   C4A72606   3.574  19.841   7.350
 9043POPC   C1B72607   3.510  20.083   6.450
 9043POPC   C2B72608   3.545  20.132   6.750
 9043POPC   C3B72609   3.568  20.040   7.050
 9043POPC   C4B72610   3.493  20.128   7.350
 9044POPC   NC372611  44.695  36.930   5.550
 9044POPC   PO472612  44.682  36.928   5.850
 9044POPC   GL172613  44.627  36.873   6.150
 9044POPC   GL272614  44.764  36.757   6.150
 9044POPC   C1A72615  44.648  36.874   6.450
 9044POPC   D2A72616  44.687  36.920   6.750
 9044POPC   C3A72617  44.710  36.949   7.050
 9044POPC   C4A72618  44.640  36.933   7.350
 9044POPC   C1B72619  44.855  36.750   6.450
 9044POPC   C2B72620  44.854  36.680   6.750
 9044POPC   C3B72621  44.787  36.726   7.050
 9044POPC   C4B72622  44.856  36.686   7.350
 9045POPC   NC372623  34.561  36.147   5.550
 9045POPC   PO472624  34.566  36.159   5.850
 9045POPC   GL172625  34.593  36.078   6.150
 9045POPC   GL272626  34.731  36.092   6.150
 9045POPC   C1A72627  34.582  36.101   6.450
 9045POPC   D2A72628  34.583  36.121   6.750
 9045POPC   C3A72629  34.580  36.153   7.050
 9045POPC   C4A72630  34.526  36.131   7.350
 9045POPC   C1B72631  34.843  36.033   6.450
 9045POPC   C2B72632  34.764  35.981   6.750
 9045POPC   C3B72633  34.840  36.035   7.050
 9045POPC   C4B72634  34.801  36.043   7.350
 9046POPC   NC372635  15.973  12.038   5.550
 9046POPC   PO472636  15.919  12.057   5.850
 9046POPC   GL172637  15.926  12.032   6.150
 9046POPC   GL272638  15.899  12.137   6.150
 9046POPC   C1A72639  15.917  12.028   6.450
 9046POPC   D2A72640  15.985  12.112   6.750
 9046POPC   C3A72641  15.941  12.045   7.050
 9046POPC   C4A72642  15.983  12.115   7.350
 9046POPC   C1B72643  15.773  12.202   6.450
 9046POPC   C2B72644  15.803  12.207   6.750
 9046POPC   C3B72645  15.737  12.210   7.050
 9046POPC   C4B72646  15.801  12.229   7.350
 9047POPC   NC372647  18.244  21.378   5.550
 9047POPC   PO472648  18.302  21.352   5.850
 9047POPC   GL172649  18.320  21.423   6.150
 9047POPC   GL272650  18.355  21.480   6.150
 9047POPC   C1A72651  18.279  21.383   6.450
 9047POPC   D2A72652  18.253  21.433   6.750
 9047POPC   C3A72653  18.266  21.339   7.050
 9047POPC   C4A72654  18.238  21.433   7.350
 9047POPC   C1B72655  18.358  21.644   6.450
 9047POPC   C2B72656  18.366  21.645   6.750
 9047POPC   C3B72657  18.393  21.632   7.050
 9047POPC   C4B72658  18.383  21.638   7.350
 9048POPC   NC372659  11.325  17.457   5.550
 9048POPC   PO472660  11.279  17.497   5.850
 9048POPC   GL172661  11.250  17.538   6.150
 9048POPC   GL272662  11.192  17.548   6.150
 9048POPC   C1A72663  11.252  17.540   6.450
 9048POPC   D2A72664  11.331  17.468   6.750
 9048POPC   C3A72665  11.296  17.553   7.050
 9048POPC   C4A72666  11.344  17.484   7.350
 9048POPC   C1B72667  11.079  17.537   6.450
 9048POPC   C2B72668  11.069  17.471   6.750
 9048POPC   C3B72669  11.064  17.492   7.050
 9048POPC   C4B72670  11.081  17.489   7.350
 9049POPC   NC372671  40.763   8.209   5.550
 9049POPC   PO472672  40.748   8.197   5.850
 9049POPC   GL172673  40.787   8.227   6.150
 9049POPC   GL272674  40.740   8.290   6.150
 9049POPC   C1A72675  40.741   8.210   6.450
 9049POPC   D2A72676  40.825   8.152   6.750
 9049POPC   C3A72677  40.761   8.190   7.050
 9049POPC   C4A72678  40.818   8.230   7.350
 9049POPC   C1B72679  40.672   8.415   6.450
 9049POPC   C2B72680  40.633   8.424   6.750
 9049POPC   C3B72681  40.687   8.448   7.050
 9049POPC   C4B72682  40.649   8.410   7.350
 9050POPC   NC372683  22.985  39.248   5.550
 9050POPC   PO472684  22.937  39.203   5.850
 9050POPC   GL172685  22.888  39.196   6.150
 9050POPC   GL272686  22.827  39.239   6.150
 9050POPC   C1A72687  22.945  39.211   6.450
 9050POPC   D2A72688  22.971  39.265   6.750
 9050POPC   C3A72689  22.906  39.270   7.050
 9050POPC   C4A72690  22.926  39.269   7.350
 9050POPC   C1B72691  22.670  39.268   6.450
 9050POPC   C2B72692  22.649  39.246   6.750
 9050POPC   C3B72693  22.706  39.258   7.050
 9050POPC   C4B72694  22.669  39.281   7.350
 9051POPC   NC372695  35.378  30.696   5.550
 9051POPC   PO472696  35.308  30.721   5.850
 9051POPC   GL172697  35.330  30.735   6.150
 9051POPC   GL272698  35.293  30.624   6.150
 9051POPC   C1A72699  35.382  30.663   6.450
 9051POPC   D2A72700  35.331  30.660   6.750
 9051POPC   C3A72701  35.380  30.708   7.050
 9051POPC   C4A72702  35.334  30.682   7.350
 9051POPC   C1B72703  35.193  30.459   6.450
 9051POPC   C2B72704  35.231  30.522   6.750
 9051POPC   C3B72705  35.236  30.514   7.050
 9051POPC   C4B72706  35.213  30.521   7.350
 9052POPC   NC372707  36.105  29.879   5.550
 9052POPC   PO472708  36.078  29.880   5.850
 9052POPC   GL172709  36.114  29.879   6.150
 9052POPC   GL272710  36.206  29.974   6.150
 9052POPC   C1A72711  36.110  29.908   6.450
 9052POPC   D2A72712  36.155  29.940   6.750
 9052POPC   C3A72713  36.137  29.946   7.050
 9052POPC   C4A72714  36.092  29.899   7.350
 9052POPC   C1B72715  36.350  30.071   6.450
 9052POPC   C2B72716  36.396  30.085   6.750
 9052POPC   C3B72717  36.348  30.071   7.050
 9052POPC   C4B72718  36.361  30.066   7.350
 9053POPC   NC372719   1.215  15.185   5.550
 9053POPC   PO472720   1.259  15.134   5.850
 9053POPC   GL172721   1.199  15.149   6.150
 9053POPC   GL272722   1.354  15.178   6.150
 9053POPC   C1A72723   1.189  15.188   6.450
 9053POPC   D2A72724   1.177  15.175   6.750
 9053POPC   C3A72725   1.169  15.173   7.050
 9053POPC   C4A72726   1.175  15.212   7.350
 9053POPC   C1B72727   1.506  15.135   6.450
 9053POPC   C2B72728   1.507  15.118   6.750
 9053POPC   C3B72729   1.501  15.122   7.050
 9053POPC   C4B72730   1.446  15.158   7.350
 9054POPC   NC372731  35.327   9.726   5.550
 9054POPC   PO472732  35.311   9.761   5.850
 9054POPC   GL172733  35.393   9.745   6.150
 9054POPC   GL272734  35.284   9.883   6.150
 9054POPC   C1A72735  35.364   9.796   6.450
 9054POPC   D2A72736  35.393   9.763   6.750
 9054POPC   C3A72737  35.303   9.754   7.050
 9054POPC   C4A72738  35.311   9.784   7.350
 9054POPC   C1B72739  35.210   9.920   6.450
 9054POPC   C2B72740  35.186   9.936   6.750
 9054POPC   C3B72741  35.223   9.922   7.050
 9054POPC   C4B72742  35.158   9.926   7.350
 9055POPC   NC372743   4.367  40.004   5.550
 9055POPC   PO472744   4.341  40.034   5.850
 9055POPC   GL172745   4.284  39.969   6.150
 9055POPC   GL272746   4.238  40.123   6.150
 9055POPC   C1A72747   4.362  40.020   6.450
 9055POPC   D2A72748   4.292  40.053   6.750
 9055POPC   C3A72749   4.359  39.999   7.050
 9055POPC   C4A72750   4.335  39.957   7.350
 9055POPC   C1B72751   4.163  40.182   6.450
 9055POPC   C2B72752   4.125  40.162   6.750
 9055POPC   C3B72753   4.106  40.160   7.050
 9055POPC   C4B72754   4.123  40.177   7.350
 9056POPC   NC372755  33.817  22.927   5.550
 9056POPC   PO472756  33.831  22.928   5.850
 9056POPC   GL172757  33.818  22.973   6.150
 9056POPC   GL272758  33.812  23.011   6.150
 9056POPC   C1A72759  33.811  22.960   6.450
 9056POPC   D2A72760  33.767  22.948   6.750
 9056POPC   C3A72761  33.828  22.929   7.050
 9056POPC   C4A72762  33.817  22.948   7.350
 9056POPC   C1B72763  33.885  23.169   6.450
 9056POPC   C2B72764  33.961  23.139   6.750
 9056POPC   C3B72765  33.943  23.201   7.050
 9056POPC   C4B72766  33.862  23.175   7.350
 9057POPC   NC372767   2.740   9.009   5.550
 9057POPC   PO472768   2.735   8.934   5.850
 9057POPC   GL172769   2.738   8.938   6.150
 9057POPC   GL272770   2.814   9.084   6.150
 9057POPC   C1A72771   2.757   8.969   6.450
 9057POPC   D2A72772   2.809   8.937   6.750
 9057POPC   C3A72773   2.726   8.979   7.050
 9057POPC   C4A72774   2.735   8.947   7.350
 9057POPC   C1B72775   2.950   9.157   6.450
 9057POPC   C2B72776   2.862   9.206   6.750
 9057POPC   C3B72777   2.864   9.164   7.050
 9057POPC   C4B72778   2.923   9.172   7.350
 9058POPC   NC372779  18.332  20.652   5.550
 9058POPC   PO472780  18.283  20.612   5.850
 9058POPC   GL172781  18.277  20.651   6.150
 9058POPC   GL272782  18.198  20.557   6.150
 9058POPC   C1A72783  18.254  20.608   6.450
 9058POPC   D2A72784  18.255  20.643   6.750
 9058POPC   C3A72785  18.285  20.585   7.050
 9058POPC   C4A72786  18.262  20.597   7.350
 9058POPC   C1B72787  18.162  20.424   6.450
 9058POPC   C2B72788  18.099  20.433   6.750
 9058POPC   C3B72789  18.178  20.389   7.050
 9058POPC   C4B72790  18.132  20.394   7.350
 9059POPC   NC372791  12.077   0.465   5.550
 9059POPC   PO472792  12.112   0.465   5.850
 9059POPC   GL172793  12.084   0.390   6.150
 9059POPC   GL272794  12.000   0.522   6.150
 9059POPC   C1A72795  12.078   0.465   6.450
 9059POPC   D2A72796  12.031   0.462   6.750
 9059POPC   C3A72797  12.087   0.439   7.050
 9059POPC   C4A72798  12.052   0.413   7.350
 9059POPC   C1B72799  12.040   0.670   6.450
 9059POPC   C2B72800  12.005   0.641   6.750
 9059POPC   C3B72801  11.975   0.704   7.050
 9059POPC   C4B72802  11.993   0.649   7.350
 9060POPC   NC372803  20.578  32.997   5.550
 9060POPC   PO472804  20.639  33.048   5.850
 9060POPC   GL172805  20.601  33.017   6.150
 9060POPC   GL272806  20.579  33.103   6.150
 9060POPC   C1A72807  20.645  33.010   6.450
 9060POPC   D2A72808  20.590  33.009   6.750
 9060POPC   C3A72809  20.617  33.032   7.050
 9060POPC   C4A72810  20.584  32.991   7.350
 9060POPC   C1B72811  20.554  33.273   6.450
 9060POPC   C2B72812  20.617  33.287   6.750
 9060POPC   C3B72813  20.531  33.240   7.050
 9060POPC   C4B72814  20.545  33.237   7.350
 9061POPC   NC372815   0.414   4.308   5.550
 9061POPC   PO472816   0.466   4.314   5.850
 9061POPC   GL172817   0.475   4.325   6.150
 9061POPC   GL272818   0.448   4.186   6.150
 9061POPC   C1A72819   0.427   4.295   6.450
 9061POPC   D2A72820   0.432   4.268   6.750
 9061POPC   C3A72821   0.484   4.328   7.050
 9061POPC   C4A72822   0.462   4.357   7.350
 9061POPC   C1B72823   0.339   4.054   6.450
 9061POPC   C2B72824   0.403   4.069   6.750
 9061POPC   C3B72825   0.363   4.114   7.050
 9061POPC   C4B72826   0.423   4.077   7.350
 9062POPC   NC372827  39.260  40.755   5.550
 9062POPC   PO472828  39.251  40.824   5.850
 9062POPC   GL172829  39.225  40.826   6.150
 9062POPC   GL272830  39.290  40.848   6.150
 9062POPC   C1A72831  39.186  40.791   6.450
 9062POPC   D2A72832  39.255  40.738   6.750
 9062POPC   C3A72833  39.220  40.749   7.050
 9062POPC   C4A72834  39.210  40.796   7.350
 9062POPC   C1B72835  39.375  41.010   6.450
 9062POPC   C2B72836  39.361  40.952   6.750
 9062POPC   C3B72837  39.400  41.002   7.050
 9062POPC   C4B72838  39.360  40.960   7.350
 9063POPC   NC372839   1.995  26.050   5.550
 9063POPC   PO472840   1.956  26.072   5.850
 9063POPC   GL172841   1.969  26.045   6.150
 9063POPC   GL272842   2.083  26.065   6.150
 9063POPC   C1A72843   1.997  26.046   6.450
 9063POPC   D2A72844   2.033  26.019   6.750
 9063POPC   C3A72845   2.020  26.039   7.050
 9063POPC   C4A72846   1.980  26.042   7.350
 9063POPC   C1B72847   2.257  25.965   6.450
 9063POPC   C2B72848   2.225  26.024   6.750
 9063POPC   C3B72849   2.207  25.947   7.050
 9063POPC   C4B72850   2.250  26.031   7.350
 9064POPC   NC372851  28.351   1.197   5.550
 9064POPC   PO472852  28.380   1.192   5.850
 9064POPC   GL172853  28.339   1.187   6.150
 9064POPC   GL272854  28.439   1.377   6.150
 9064POPC   C1A72855  28.377   1.229   6.450
 9064POPC   D2A72856  28.379   1.229   6.750
 9064POPC   C3A72857  28.337   1.216   7.050
 9064POPC   C4A72858  28.355   1.232   7.350
 9064POPC   C1B72859  28.496   1.429   6.450
 9064POPC   C2B72860  28.408   1.443   6.750
 9064POPC   C3B72861  28.422   1.462   7.050
 9064POPC   C4B72862  28.469   1.494   7.350
 9065POPC   NC372863  13.625  41.602   5.550
 9065POPC   PO472864  13.646  41.571   5.850
 9065POPC   GL172865  13.656  41.594   6.150
 9065POPC   GL272866  13.608  41.444   6.150
 9065POPC   C1A72867  13.590  41.566   6.450
 9065POPC   D2A72868  13.630  41.603   6.750
 9065POPC   C3A72869  13.612  41.552   7.050
 9065POPC   C4A72870  13.601  41.579   7.350
 9065POPC   C1B72871  13.568  41.341   6.450
 9065POPC   C2B72872  13.499  41.333   6.750
 9065POPC   C3B72873  13.572  41.305   7.050
 9065POPC   C4B72874  13.504  41.278   7.350
 9066POPC   NC372875  20.604  19.107   5.550
 9066POPC   PO472876  20.639  19.093   5.850
 9066POPC   GL172877  20.583  19.104   6.150
 9066POPC   GL272878  20.679  18.915   6.150
 9066POPC   C1A72879  20.620  19.080   6.450
 9066POPC   D2A72880  20.654  19.071   6.750
 9066POPC   C3A72881  20.564  19.056   7.050
 9066POPC   C4A72882  20.658  19.027   7.350
 9066POPC   C1B72883  20.665  18.866   6.450
 9066POPC   C2B72884  20.662  18.808   6.750
 9066POPC   C3B72885  20.666  18.809   7.050
 9066POPC   C4B72886  20.743  18.863   7.350
 9067POPC   NC372887  30.648  12.126   5.550
 9067POPC   PO472888  30.678  12.041   5.850
 9067POPC   GL172889  30.743  12.041   6.150
 9067POPC   GL272890  30.621  12.066   6.150
 9067POPC   C1A72891  30.683  12.053   6.450
 9067POPC   D2A72892  30.731  12.030   6.750
 9067POPC   C3A72893  30.739  12.049   7.050
 9067POPC   C4A72894  30.647  12.071   7.350
 9067POPC   C1B72895  30.461  12.094   6.450
 9067POPC   C2B72896  30.467  12.129   6.750
 9067POPC   C3B72897  30.414  12.100   7.050
 9067POPC   C4B72898  30.469  12.122   7.350
 9068POPC   NC372899  34.611   7.447   5.550
 9068POPC   PO472900  34.592   7.407   5.850
 9068POPC   GL172901  34.554   7.452   6.150
 9068POPC   GL272902  34.529   7.526   6.150
 9068POPC   C1A72903  34.556   7.376   6.450
 9068POPC   D2A72904  34.610   7.452   6.750
 9068POPC   C3A72905  34.579   7.395   7.050
 9068POPC   C4A72906  34.572   7.458   7.350
 9068POPC   C1B72907  34.548   7.688   6.450
 9068POPC   C2B72908  34.614   7.705   6.750
 9068POPC   C3B72909  34.569   7.654   7.050
 9068POPC   C4B72910  34.597   7.660   7.350
 9069POPC   NC372911  40.820  19.828   5.550
 9069POPC   PO472912  40.769  19.815   5.850
 9069POPC   GL172913  40.734  19.848   6.150
 9069POPC   GL272914  40.658  19.787   6.150
 9069POPC   C1A72915  40.779  19.846   6.450
 9069POPC   D2A72916  40.754  19.792   6.750
 9069POPC   C3A72917  40.812  19.788   7.050
 9069POPC   C4A72918  40.830  19.871   7.350
 9069POPC   C1B72919  40.536  19.771   6.450
 9069POPC   C2B72920  40.497  19.773   6.750
 9069POPC   C3B72921  40.506  19.764   7.050
 9069POPC   C4B72922  40.563  19.809   7.350
 9070POPC   NC372923  12.813   7.446   5.550
 9070POPC   PO472924  12.894   7.392   5.850
 9070POPC   GL172925  12.883   7.425   6.150
 9070POPC   GL272926  13.014   7.484   6.150
 9070POPC   C1A72927  12.824   7.459   6.450
 9070POPC   D2A72928  12.849   7.398   6.750
 9070POPC   C3A72929  12.871   7.378   7.050
 9070POPC   C4A72930  12.845   7.382   7.350
 9070POPC   C1B72931  13.117   7.514   6.450
 9070POPC   C2B72932  13.055   7.480   6.750
 9070POPC   C3B72933  13.091   7.534   7.050
 9070POPC   C4B72934  13.134   7.516   7.350
 9071POPC   NC372935  14.439  16.723   5.550
 9071POPC   PO472936  14.373  16.694   5.850
 9071POPC   GL172937  14.413  16.726   6.150
 9071POPC   GL272938  14.474  16.625   6.150
 9071POPC   C1A72939  14.445  16.696   6.450
 9071POPC   D2A72940  14.360  16.695   6.750
 9071POPC   C3A72941  14.439  16.695   7.050
 9071POPC   C4A72942  14.449  16.757   7.350
 9071POPC   C1B72943  14.551  16.550   6.450
 9071POPC   C2B72944  14.600  16.575   6.750
 9071POPC   C3B72945  14.637  16.588   7.050
 9071POPC   C4B72946  14.592  16.529   7.350
 9072POPC   NC372947   2.740  43.921   5.550
 9072POPC   PO472948   2.803  43.910   5.850
 9072POPC   GL172949   2.811  43.851   6.150
 9072POPC   GL272950   2.917  43.832   6.150
 9072POPC   C1A72951   2.790  43.888   6.450
 9072POPC   D2A72952   2.737  43.897   6.750
 9072POPC   C3A72953   2.798  43.866   7.050
 9072POPC   C4A72954   2.791  43.899   7.350
 9072POPC   C1B72955   2.983  43.819   6.450
 9072POPC   C2B72956   3.017  43.831   6.750
 9072POPC   C3B72957   3.001  43.814   7.050
 9072POPC   C4B72958   2.982  43.844   7.350
 9073POPC   NC372959  19.037  15.913   5.550
 9073POPC   PO472960  19.070  15.947   5.850
 9073POPC   GL172961  19.023  15.937   6.150
 9073POPC   GL272962  19.071  15.795   6.150
 9073POPC   C1A72963  19.066  15.952   6.450
 9073POPC   D2A72964  19.097  15.948   6.750
 9073POPC   C3A72965  19.086  15.948   7.050
 9073POPC   C4A72966  19.090  15.990   7.350
 9073POPC   C1B72967  18.982  15.740   6.450
 9073POPC   C2B72968  19.023  15.681   6.750
 9073POPC   C3B72969  19.028  15.730   7.050
 9073POPC   C4B72970  19.036  15.679   7.350
 9074POPC   NC372971   8.195  42.380   5.550
 9074POPC   PO472972   8.229  42.364   5.850
 9074POPC   GL172973   8.166  42.351   6.150
 9074POPC   GL272974   8.124  42.293   6.150
 9074POPC   C1A72975   8.193  42.335   6.450
 9074POPC   D2A72976   8.229  42.324   6.750
 9074POPC   C3A72977   8.174  42.313   7.050
 9074POPC   C4A72978   8.191  42.306   7.350
 9074POPC   C1B72979   8.017  42.229   6.450
 9074POPC   C2B72980   7.995  42.155   6.750
 9074POPC   C3B72981   7.941  42.163   7.050
 9074POPC   C4B72982   7.976  42.174   7.350
 9075POPC   NC372983  40.822  13.610   5.550
 9075POPC   PO472984  40.794  13.609   5.850
 9075POPC   GL172985  40.789  13.634   6.150
 9075POPC   GL272986  40.674  13.629   6.150
 9075POPC   C1A72987  40.799  13.671   6.450
 9075POPC   D2A72988  40.782  13.675   6.750
 9075POPC   C3A72989  40.777  13.600   7.050
 9075POPC   C4A72990  40.791  13.664   7.350
 9075POPC   C1B72991  40.572  13.611   6.450
 9075POPC   C2B72992  40.517  13.585   6.750
 9075POPC   C3B72993  40.587  13.533   7.050
 9075POPC   C4B72994  40.526  13.583   7.350
 9076POPC   NC372995  41.588  39.978   5.550
 9076POPC   PO472996  41.548  39.998   5.850
 9076POPC   GL172997  41.573  39.966   6.150
 9076POPC   GL272998  41.591  40.102   6.150
 9076POPC   C1A72999  41.589  39.985   6.450
 9076POPC   D2A73000  41.571  40.019   6.750
 9076POPC   C3A73001  41.526  40.055   7.050
 9076POPC   C4A73002  41.513  39.961   7.350
 9076POPC   C1B73003  41.561  40.302   6.450
 9076POPC   C2B73004  41.595  40.217   6.750
 9076POPC   C3B73005  41.594  40.230   7.050
 9076POPC   C4B73006  41.532  40.286   7.350
 9077POPC   NC373007  26.069  36.855   5.550
 9077POPC   PO473008  26.022  36.863   5.850
 9077POPC   GL173009  26.002  36.881   6.150
 9077POPC   GL273010  26.181  36.968   6.150
 9077POPC   C1A73011  26.011  36.877   6.450
 9077POPC   D2A73012  26.065  36.856   6.750
 9077POPC   C3A73013  26.023  36.931   7.050
 9077POPC   C4A73014  26.065  36.927   7.350
 9077POPC   C1B73015  26.264  37.068   6.450
 9077POPC   C2B73016  26.207  37.088   6.750
 9077POPC   C3B73017  26.276  37.060   7.050
 9077POPC   C4B73018  26.236  37.055   7.350
 9078POPC   NC373019  13.614  11.279   5.550
 9078POPC   PO473020  13.645  11.348   5.850
 9078POPC   GL173021  13.584  11.264   6.150
 9078POPC   GL273022  13.516  11.216   6.150
 9078POPC   C1A73023  13.621  11.292   6.450
 9078POPC   D2A73024  13.675  11.288   6.750
 9078POPC   C3A73025  13.662  11.325   7.050
 9078POPC   C4A73026  13.668  11.264   7.350
 9078POPC   C1B73027  13.340  11.195   6.450
 9078POPC   C2B73028  13.424  11.258   6.750
 9078POPC   C3B73029  13.376  11.230   7.050
 9078POPC   C4B73030  13.351  11.199   7.350
 9079POPC   NC373031  29.117  29.957   5.550
 9079POPC   PO473032  29.145  29.880   5.850
 9079POPC   GL173033  29.160  29.937   6.150
 9079POPC   GL273034  29.001  29.847   6.150
 9079POPC   C1A73035  29.140  29.964   6.450
 9079POPC   D2A73036  29.162  29.927   6.750
 9079POPC   C3A73037  29.132  29.904   7.050
 9079POPC   C4A73038  29.147  29.963   7.350
 9079POPC   C1B73039  28.904  29.797   6.450
 9079POPC   C2B73040  28.985  29.735   6.750
 9079POPC   C3B73041  28.963  29.791   7.050
 9079POPC   C4B73042  28.977  29.827   7.350
 9080POPC   NC373043   5.100  39.277   5.550
 9080POPC   PO473044   5.117  39.198   5.850
 9080POPC   GL173045   5.134  39.183   6.150
 9080POPC   GL273046   4.995  39.316   6.150
 9080POPC   C1A73047   5.043  39.219   6.450
 9080POPC   D2A73048   5.074  39.220   6.750
 9080POPC   C3A73049   5.081  39.258   7.050
 9080POPC   C4A73050   5.066  39.185   7.350
 9080POPC   C1B73051   4.842  39.358   6.450
 9080POPC   C2B73052   4.842  39.368   6.750
 9080POPC   C3B73053   4.852  39.328   7.050
 9080POPC   C4B73054   4.868  39.354   7.350
 9081POPC   NC373055  39.996  34.580   5.550
 9081POPC   PO473056  40.007  34.574   5.850
 9081POPC   GL173057  39.964  34.573   6.150
 9081POPC   GL273058  40.028  34.702   6.150
 9081POPC   C1A73059  40.014  34.545   6.450
 9081POPC   D2A73060  39.968  34.587   6.750
 9081POPC   C3A73061  40.010  34.541   7.050
 9081POPC   C4A73062  40.004  34.540   7.350
 9081POPC   C1B73063  40.113  34.809   6.450
 9081POPC   C2B73064  40.127  34.784   6.750
 9081POPC   C3B73065  40.153  34.749   7.050
 9081POPC   C4B73066  40.182  34.754   7.350
 9082POPC   NC373067  33.767  34.551   5.550
 9082POPC   PO473068  33.817  34.532   5.850
 9082POPC   GL173069  33.824  34.538   6.150
 9082POPC   GL273070  33.649  34.484   6.150
 9082POPC   C1A73071  33.769  34.603   6.450
 9082POPC   D2A73072  33.812  34.533   6.750
 9082POPC   C3A73073  33.805  34.527   7.050
 9082POPC   C4A73074  33.835  34.579   7.350
 9082POPC   C1B73075  33.609  34.491   6.450
 9082POPC   C2B73076  33.535  34.502   6.750
 9082POPC   C3B73077  33.619  34.519   7.050
 9082POPC   C4B73078  33.566  34.483   7.350
 9083POPC   NC373079  22.926  36.090   5.550
 9083POPC   PO473080  22.918  36.168   5.850
 9083POPC   GL173081  22.971  36.136   6.150
 9083POPC   GL273082  22.984  36.226   6.150
 9083POPC   C1A73083  22.941  36.135   6.450
 9083POPC   D2A73084  22.962  36.134   6.750
 9083POPC   C3A73085  22.956  36.160   7.050
 9083POPC   C4A73086  22.916  36.109   7.350
 9083POPC   C1B73087  23.046  36.393   6.450
 9083POPC   C2B73088  23.068  36.351   6.750
 9083POPC   C3B73089  23.020  36.354   7.050
 9083POPC   C4B73090  23.069  36.331   7.350
 9084POPC   NC373091  27.576  17.550   5.550
 9084POPC   PO473092  27.635  17.481   5.850
 9084POPC   GL173093  27.578  17.540   6.150
 9084POPC   GL273094  27.688  17.398   6.150
 9084POPC   C1A73095  27.636  17.532   6.450
 9084POPC   D2A73096  27.631  17.474   6.750
 9084POPC   C3A73097  27.584  17.475   7.050
 9084POPC   C4A73098  27.560  17.485   7.350
 9084POPC   C1B73099  27.727  17.274   6.450
 9084POPC   C2B73100  27.755  17.280   6.750
 9084POPC   C3B73101  27.746  17.335   7.050
 9084POPC   C4B73102  27.705  17.337   7.350
 9085POPC   NC373103  33.024   9.007   5.550
 9085POPC   PO473104  33.007   8.990   5.850
 9085POPC   GL173105  33.007   8.956   6.150
 9085POPC   GL273106  33.170   9.054   6.150
 9085POPC   C1A73107  33.037   8.939   6.450
 9085POPC   D2A73108  32.984   9.000   6.750
 9085POPC   C3A73109  33.073   8.952   7.050
 9085POPC   C4A73110  33.056   8.945   7.350
 9085POPC   C1B73111  33.225   9.079   6.450
 9085POPC   C2B73112  33.250   9.007   6.750
 9085POPC   C3B73113  33.247   9.021   7.050
 9085POPC   C4B73114  33.301   9.033   7.350
 9086POPC   NC373115  21.414   0.447   5.550
 9086POPC   PO473116  21.355   0.407   5.850
 9086POPC   GL173117  21.366   0.398   6.150
 9086POPC   GL273118  21.437   0.354   6.150
 9086POPC   C1A73119  21.423   0.419   6.450
 9086POPC   D2A73120  21.381   0.406   6.750
 9086POPC   C3A73121  21.387   0.418   7.050
 9086POPC   C4A73122  21.373   0.410   7.350
 9086POPC   C1B73123  21.503   0.236   6.450
 9086POPC   C2B73124  21.469   0.212   6.750
 9086POPC   C3B73125  21.506   0.238   7.050
 9086POPC   C4B73126  21.438   0.161   7.350
 9087POPC   NC373127  11.309  44.651   5.550
 9087POPC   PO473128  11.279  44.641   5.850
 9087POPC   GL173129  11.340  44.618   6.150
 9087POPC   GL273130  11.389  44.722   6.150
 9087POPC   C1A73131  11.312  44.707   6.450
 9087POPC   D2A73132  11.310  44.642   6.750
 9087POPC   C3A73133  11.302  44.669   7.050
 9087POPC   C4A73134  11.261  44.676   7.350
 9087POPC   C1B73135  11.515  44.790   6.450
 9087POPC   C2B73136  11.553  44.709   6.750
 9087POPC   C3B73137  11.561  44.726   7.050
 9087POPC   C4B73138  11.529  44.764   7.350
 9088POPC   NC373139  29.146   2.722   5.550
 9088POPC   PO473140  29.134   2.749   5.850
 9088POPC   GL173141  29.121   2.757   6.150
 9088POPC   GL273142  29.053   2.851   6.150
 9088POPC   C1A73143  29.097   2.802   6.450
 9088POPC   D2A73144  29.168   2.815   6.750
 9088POPC   C3A73145  29.096   2.807   7.050
 9088POPC   C4A73146  29.187   2.736   7.350
 9088POPC   C1B73147  29.023   2.936   6.450
 9088POPC   C2B73148  28.991   2.973   6.750
 9088POPC   C3B73149  29.060   2.979   7.050
 9088POPC   C4B73150  29.031   2.957   7.350
 9089POPC   NC373151  23.735  22.117   5.550
 9089POPC   PO473152  23.725  22.135   5.850
 9089POPC   GL173153  23.711  22.138   6.150
 9089POPC   GL273154  23.804  22.294   6.150
 9089POPC   C1A73155  23.751  22.179   6.450
 9089POPC   D2A73156  23.674  22.115   6.750
 9089POPC   C3A73157  23.759  22.199   7.050
 9089POPC   C4A73158  23.688  22.134   7.350
 9089POPC   C1B73159  23.891  22.386   6.450
 9089POPC   C2B73160  23.844  22.318   6.750
 9089POPC   C3B73161  23.847  22.333   7.050
 9089POPC   C4B73162  23.887  22.346   7.350
 9090POPC   NC373163  12.895  42.310   5.550
 9090POPC   PO473164  12.803  42.310   5.850
 9090POPC   GL173165  12.857  42.292   6.150
 9090POPC   GL273166  12.843  42.223   6.150
 9090POPC   C1A73167  12.889  42.378   6.450
 9090POPC   D2A73168  12.885  42.324   6.750
 9090POPC   C3A73169  12.855  42.319   7.050
 9090POPC   C4A73170  12.862  42.292   7.350
 9090POPC   C1B73171  12.887  42.122   6.450
 9090POPC   C2B73172  12.892  42.103   6.750
 9090POPC   C3B73173  12.868  42.047   7.050
 9090POPC   C4B73174  12.935  42.114   7.350
 9091POPC   NC373175  30.730   3.496   5.550
 9091POPC   PO473176  30.732   3.555   5.850
 9091POPC   GL173177  30.746   3.556   6.150
 9091POPC   GL273178  30.833   3.500   6.150
 9091POPC   C1A73179  30.669   3.514   6.450
 9091POPC   D2A73180  30.730   3.539   6.750
 9091POPC   C3A73181  30.747   3.511   7.050
 9091POPC   C4A73182  30.663   3.525   7.350
 9091POPC   C1B73183  30.944   3.487   6.450
 9091POPC   C2B73184  30.912   3.460   6.750
 9091POPC   C3B73185  30.970   3.436   7.050
 9091POPC   C4B73186  30.898   3.485   7.350
 9092POPC   NC373187   8.927  15.950   5.550
 9092POPC   PO473188   9.011  16.002   5.850
 9092POPC   GL173189   8.971  15.955   6.150
 9092POPC   GL273190   8.971  15.860   6.150
 9092POPC   C1A73191   8.949  15.970   6.450
 9092POPC   D2A73192   9.016  15.913   6.750
 9092POPC   C3A73193   8.950  15.916   7.050
 9092POPC   C4A73194   8.995  15.992   7.350
 9092POPC   C1B73195   8.937  15.680   6.450
 9092POPC   C2B73196   9.019  15.728   6.750
 9092POPC   C3B73197   9.019  15.748   7.050
 9092POPC   C4B73198   8.935  15.743   7.350
 9093POPC   NC373199  21.404  32.241   5.550
 9093POPC   PO473200  21.341  32.263   5.850
 9093POPC   GL173201  21.366  32.297   6.150
 9093POPC   GL273202  21.477  32.263   6.150
 9093POPC   C1A73203  21.381  32.229   6.450
 9093POPC   D2A73204  21.352  32.217   6.750
 9093POPC   C3A73205  21.419  32.200   7.050
 9093POPC   C4A73206  21.363  32.259   7.350
 9093POPC   C1B73207  21.653  32.267   6.450
 9093POPC   C2B73208  21.683  32.269   6.750
 9093POPC   C3B73209  21.662  32.270   7.050
 9093POPC   C4B73210  21.665  32.253   7.350
 9094POPC   NC373211  29.119  10.500   5.550
 9094POPC   PO473212  29.159  10.516   5.850
 9094POPC   GL173213  29.179  10.553   6.150
 9094POPC   GL273214  29.093  10.618   6.150
 9094POPC   C1A73215  29.105  10.544   6.450
 9094POPC   D2A73216  29.156  10.513   6.750
 9094POPC   C3A73217  29.109  10.554   7.050
 9094POPC   C4A73218  29.190  10.556   7.350
 9094POPC   C1B73219  28.922  10.701   6.450
 9094POPC   C2B73220  28.941  10.688   6.750
 9094POPC   C3B73221  28.933  10.692   7.050
 9094POPC   C4B73222  28.960  10.653   7.350
 9095POPC   NC373223   8.234   8.206   5.550
 9095POPC   PO473224   8.154   8.184   5.850
 9095POPC   GL173225   8.159   8.170   6.150
 9095POPC   GL273226   8.162   8.105   6.150
 9095POPC   C1A73227   8.207   8.154   6.450
 9095POPC   D2A73228   8.163   8.195   6.750
 9095POPC   C3A73229   8.214   8.208   7.050
 9095POPC   C4A73230   8.179   8.169   7.350
 9095POPC   C1B73231   8.067   8.002   6.450
 9095POPC   C2B73232   8.027   8.039   6.750
 9095POPC   C3B73233   8.071   7.956   7.050
 9095POPC   C4B73234   8.081   8.007   7.350
 9096POPC   NC373235  42.302  43.930   5.550
 9096POPC   PO473236  42.340  43.878   5.850
 9096POPC   GL173237  42.290  43.893   6.150
 9096POPC   GL273238  42.430  43.909   6.150
 9096POPC   C1A73239  42.380  43.863   6.450
 9096POPC   D2A73240  42.365  43.849   6.750
 9096POPC   C3A73241  42.293  43.871   7.050
 9096POPC   C4A73242  42.316  43.907   7.350
 9096POPC   C1B73243  42.614  43.852   6.450
 9096POPC   C2B73244  42.580  43.881   6.750
 9096POPC   C3B73245  42.595  43.869   7.050
 9096POPC   C4B73246  42.545  43.888   7.350
 9097POPC   NC373247  12.808  40.030   5.550
 9097POPC   PO473248  12.870  39.966   5.850
 9097POPC   GL173249  12.817  40.004   6.150
 9097POPC   GL273250  12.930  39.885   6.150
 9097POPC   C1A73251  12.895  39.993   6.450
 9097POPC   D2A73252  12.886  40.052   6.750
 9097POPC   C3A73253  12.810  40.017   7.050
 9097POPC   C4A73254  12.834  39.962   7.350
 9097POPC   C1B73255  13.062  39.900   6.450
 9097POPC   C2B73256  13.043  39.829   6.750
 9097POPC   C3B73257  13.047  39.895   7.050
 9097POPC   C4B73258  13.086  39.883   7.350
 9098POPC   NC373259  10.574   4.272   5.550
 9098POPC   PO473260  10.542   4.281   5.850
 9098POPC   GL173261  10.532   4.358   6.150
 9098POPC   GL273262  10.416   4.288   6.150
 9098POPC   C1A73263  10.528   4.331   6.450
 9098POPC   D2A73264  10.565   4.307   6.750
 9098POPC   C3A73265  10.495   4.274   7.050
 9098POPC   C4A73266  10.546   4.362   7.350
 9098POPC   C1B73267  10.257   4.319   6.450
 9098POPC   C2B73268  10.258   4.296   6.750
 9098POPC   C3B73269  10.288   4.365   7.050
 9098POPC   C4B73270  10.267   4.288   7.350
 9099POPC   NC373271  13.636  17.467   5.550
 9099POPC   PO473272  13.654  17.458   5.850
 9099POPC   GL173273  13.616  17.546   6.150
 9099POPC   GL273274  13.607  17.630   6.150
 9099POPC   C1A73275  13.657  17.511   6.450
 9099POPC   D2A73276  13.654  17.554   6.750
 9099POPC   C3A73277  13.614  17.486   7.050
 9099POPC   C4A73278  13.636  17.535   7.350
 9099POPC   C1B73279  13.633  17.730   6.450
 9099POPC   C2B73280  13.619  17.786   6.750
 9099POPC   C3B73281  13.665  17.709   7.050
 9099POPC   C4B73282  13.684  17.774   7.350
 9100POPC   NC373283   8.229  36.914   5.550
 9100POPC   PO473284   8.164  36.895   5.850
 9100POPC   GL173285   8.245  36.949   6.150
 9100POPC   GL273286   8.358  36.958   6.150
 9100POPC   C1A73287   8.210  36.897   6.450
 9100POPC   D2A73288   8.214  36.934   6.750
 9100POPC   C3A73289   8.205  36.929   7.050
 9100POPC   C4A73290   8.200  36.904   7.350
 9100POPC   C1B73291   8.446  36.985   6.450
 9100POPC   C2B73292   8.430  37.043   6.750
 9100POPC   C3B73293   8.435  37.022   7.050
 9100POPC   C4B73294   8.374  37.000   7.350
 9101POPC   NC373295  39.188  35.316   5.550
 9101POPC   PO473296  39.254  35.326   5.850
 9101POPC   GL173297  39.203  35.304   6.150
 9101POPC   GL273298  39.266  35.249   6.150
 9101POPC   C1A73299  39.211  35.372   6.450
 9101POPC   D2A73300  39.269  35.361   6.750
 9101POPC   C3A73301  39.256  35.399   7.050
 9101POPC   C4A73302  39.233  35.391   7.350
 9101POPC   C1B73303  39.316  35.104   6.450
 9101POPC   C2B73304  39.258  35.154   6.750
 9101POPC   C3B73305  39.243  35.124   7.050
 9101POPC   C4B73306  39.318  35.153   7.350
 9102POPC   NC373307   2.755  38.430   5.550
 9102POPC   PO473308   2.808  38.448   5.850
 9102POPC   GL173309   2.757  38.491   6.150
 9102POPC   GL273310   2.757  38.578   6.150
 9102POPC   C1A73311   2.811  38.504   6.450
 9102POPC   D2A73312   2.758  38.467   6.750
 9102POPC   C3A73313   2.740  38.482   7.050
 9102POPC   C4A73314   2.733  38.434   7.350
 9102POPC   C1B73315   2.728  38.667   6.450
 9102POPC   C2B73316   2.728  38.671   6.750
 9102POPC   C3B73317   2.761  38.721   7.050
 9102POPC   C4B73318   2.699  38.718   7.350
 9103POPC   NC373319  27.580   8.967   5.550
 9103POPC   PO473320  27.545   8.968   5.850
 9103POPC   GL173321  27.553   8.960   6.150
 9103POPC   GL273322  27.648   8.844   6.150
 9103POPC   C1A73323  27.567   8.993   6.450
 9103POPC   D2A73324  27.585   9.014   6.750
 9103POPC   C3A73325  27.580   8.933   7.050
 9103POPC   C4A73326  27.612   8.999   7.350
 9103POPC   C1B73327  27.755   8.764   6.450
 9103POPC   C2B73328  27.704   8.716   6.750
 9103POPC   C3B73329  27.689   8.802   7.050
 9103POPC   C4B73330  27.727   8.734   7.350
 9104POPC   NC373331  15.217   8.951   5.550
 9104POPC   PO473332  15.150   8.966   5.850
 9104POPC   GL173333  15.219   8.963   6.150
 9104POPC   GL273334  15.289   8.910   6.150
 9104POPC   C1A73335  15.224   8.978   6.450
 9104POPC   D2A73336  15.188   8.974   6.750
 9104POPC   C3A73337  15.131   8.942   7.050
 9104POPC   C4A73338  15.149   8.973   7.350
 9104POPC   C1B73339  15.408   8.847   6.450
 9104POPC   C2B73340  15.371   8.853   6.750
 9104POPC   C3B73341  15.380   8.854   7.050
 9104POPC   C4B73342  15.357   8.880   7.350
 9105POPC   NC373343   9.784  38.419   5.550
 9105POPC   PO473344   9.754  38.429   5.850
 9105POPC   GL173345   9.776  38.500   6.150
 9105POPC   GL273346   9.616  38.349   6.150
 9105POPC   C1A73347   9.722  38.418   6.450
 9105POPC   D2A73348   9.718  38.486   6.750
 9105POPC   C3A73349   9.720  38.497   7.050
 9105POPC   C4A73350   9.748  38.428   7.350
 9105POPC   C1B73351   9.557  38.287   6.450
 9105POPC   C2B73352   9.586  38.319   6.750
 9105POPC   C3B73353   9.540  38.252   7.050
 9105POPC   C4B73354   9.527  38.280   7.350
 9106POPC   NC373355  12.030   5.069   5.550
 9106POPC   PO473356  12.047   5.049   5.850
 9106POPC   GL173357  12.097   5.049   6.150
 9106POPC   GL273358  12.020   4.961   6.150
 9106POPC   C1A73359  12.089   5.124   6.450
 9106POPC   D2A73360  12.099   5.071   6.750
 9106POPC   C3A73361  12.087   5.080   7.050
 9106POPC   C4A73362  12.046   5.080   7.350
 9106POPC   C1B73363  11.953   4.884   6.450
 9106POPC   C2B73364  11.981   4.900   6.750
 9106POPC   C3B73365  11.965   4.914   7.050
 9106POPC   C4B73366  11.940   4.887   7.350
 9107POPC   NC373367  15.965   3.528   5.550
 9107POPC   PO473368  15.992   3.517   5.850
 9107POPC   GL173369  15.961   3.553   6.150
 9107POPC   GL273370  15.879   3.515   6.150
 9107POPC   C1A73371  15.956   3.529   6.450
 9107POPC   D2A73372  15.997   3.577   6.750
 9107POPC   C3A73373  15.926   3.534   7.050
 9107POPC   C4A73374  16.002   3.524   7.350
 9107POPC   C1B73375  15.714   3.452   6.450
 9107POPC   C2B73376  15.688   3.470   6.750
 9107POPC   C3B73377  15.736   3.498   7.050
 9107POPC   C4B73378  15.727   3.451   7.350
 9108POPC   NC373379   6.630   0.417   5.550
 9108POPC   PO473380   6.682   0.411   5.850
 9108POPC   GL173381   6.633   0.407   6.150
 9108POPC   GL273382   6.736   0.344   6.150
 9108POPC   C1A73383   6.618   0.392   6.450
 9108POPC   D2A73384   6.648   0.442   6.750
 9108POPC   C3A73385   6.694   0.458   7.050
 9108POPC   C4A73386   6.667   0.443   7.350
 9108POPC   C1B73387   6.823   0.318   6.450
 9108POPC   C2B73388   6.852   0.265   6.750
 9108POPC   C3B73389   6.833   0.267   7.050
 9108POPC   C4B73390   6.829   0.304   7.350
 9109POPC   NC373391  31.494  44.708   5.550
 9109POPC   PO473392  31.433  44.632   5.850
 9109POPC   GL173393  31.499  44.612   6.150
 9109POPC   GL273394  31.594  44.650   6.150
 9109POPC   C1A73395  31.428  44.627   6.450
 9109POPC   D2A73396  31.479  44.656   6.750
 9109POPC   C3A73397  31.450  44.696   7.050
 9109POPC   C4A73398  31.469  44.688   7.350
 9109POPC   C1B73399  31.717  44.646   6.450
 9109POPC   C2B73400  31.697  44.590   6.750
 9109POPC   C3B73401  31.736  44.618   7.050
 9109POPC   C4B73402  31.748  44.630   7.350
 9110POPC   NC373403   0.470  33.010   5.550
 9110POPC   PO473404   0.484  33.072   5.850
 9110POPC   GL173405   0.398  33.062   6.150
 9110POPC   GL273406   0.492  32.880   6.150
 9110POPC   C1A73407   0.442  32.992   6.450
 9110POPC   D2A73408   0.404  33.041   6.750
 9110POPC   C3A73409   0.456  33.061   7.050
 9110POPC   C4A73410   0.448  33.016   7.350
 9110POPC   C1B73411   0.580  32.783   6.450
 9110POPC   C2B73412   0.602  32.819   6.750
 9110POPC   C3B73413   0.548  32.791   7.050
 9110POPC   C4B73414   0.606  32.802   7.350
 9111POPC   NC373415  38.481  25.308   5.550
 9111POPC   PO473416  38.475  25.251   5.850
 9111POPC   GL173417  38.478  25.248   6.150
 9111POPC   GL273418  38.506  25.108   6.150
 9111POPC   C1A73419  38.426  25.217   6.450
 9111POPC   D2A73420  38.504  25.227   6.750
 9111POPC   C3A73421  38.407  25.228   7.050
 9111POPC   C4A73422  38.498  25.235   7.350
 9111POPC   C1B73423  38.420  25.052   6.450
 9111POPC   C2B73424  38.432  25.044   6.750
 9111POPC   C3B73425  38.417  25.061   7.050
 9111POPC   C4B73426  38.480  25.003   7.350
 9112POPC   NC373427  20.654  11.307   5.550
 9112POPC   PO473428  20.645  11.260   5.850
 9112POPC   GL173429  20.648  11.251   6.150
 9112POPC   GL273430  20.716  11.296   6.150
 9112POPC   C1A73431  20.658  11.341   6.450
 9112POPC   D2A73432  20.625  11.346   6.750
 9112POPC   C3A73433  20.602  11.323   7.050
 9112POPC   C4A73434  20.601  11.339   7.350
 9112POPC   C1B73435  20.848  11.194   6.450
 9112POPC   C2B73436  20.876  11.246   6.750
 9112POPC   C3B73437  20.844  11.190   7.050
 9112POPC   C4B73438  20.795  11.215   7.350
 9113POPC   NC373439  12.075  13.653   5.550
 9113POPC   PO473440  12.052  13.665   5.850
 9113POPC   GL173441  12.107  13.643   6.150
 9113POPC   GL273442  12.069  13.743   6.150
 9113POPC   C1A73443  12.120  13.626   6.450
 9113POPC   D2A73444  12.045  13.669   6.750
 9113POPC   C3A73445  12.054  13.656   7.050
 9113POPC   C4A73446  12.054  13.621   7.350
 9113POPC   C1B73447  12.119  13.872   6.450
 9113POPC   C2B73448  12.091  13.854   6.750
 9113POPC   C3B73449  12.101  13.846   7.050
 9113POPC   C4B73450  12.035  13.889   7.350
 9114POPC   NC373451  43.893   3.571   5.550
 9114POPC   PO473452  43.851   3.496   5.850
 9114POPC   GL173453  43.911   3.552   6.150
 9114POPC   GL273454  43.861   3.697   6.150
 9114POPC   C1A73455  43.929   3.508   6.450
 9114POPC   D2A73456  43.890   3.530   6.750
 9114POPC   C3A73457  43.856   3.559   7.050
 9114POPC   C4A73458  43.840   3.526   7.350
 9114POPC   C1B73459  43.897   3.801   6.450
 9114POPC   C2B73460  43.833   3.803   6.750
 9114POPC   C3B73461  43.854   3.812   7.050
 9114POPC   C4B73462  43.821   3.763   7.350
 9115POPC   NC373463  32.993  30.668   5.550
 9115POPC   PO473464  33.074  30.713   5.850
 9115POPC   GL173465  33.050  30.666   6.150
 9115POPC   GL273466  33.008  30.805   6.150
 9115POPC   C1A73467  33.001  30.746   6.450
 9115POPC   D2A73468  33.019  30.696   6.750
 9115POPC   C3A73469  33.018  30.659   7.050
 9115POPC   C4A73470  33.050  30.731   7.350
 9115POPC   C1B73471  32.981  30.936   6.450
 9115POPC   C2B73472  33.030  30.988   6.750
 9115POPC   C3B73473  32.997  30.989   7.050
 9115POPC   C4B73474  32.976  30.934   7.350
 9116POPC   NC373475  13.582  15.955   5.550
 9116POPC   PO473476  13.673  15.958   5.850
 9116POPC   GL173477  13.625  15.989   6.150
 9116POPC   GL273478  13.623  15.877   6.150
 9116POPC   C1A73479  13.641  15.976   6.450
 9116POPC   D2A73480  13.609  15.941   6.750
 9116POPC   C3A73481  13.633  16.001   7.050
 9116POPC   C4A73482  13.603  15.908   7.350
 9116POPC   C1B73483  13.515  15.767   6.450
 9116POPC   C2B73484  13.575  15.710   6.750
 9116POPC   C3B73485  13.585  15.696   7.050
 9116POPC   C4B73486  13.540  15.762   7.350
 9117POPC   NC373487  29.177  16.766   5.550
 9117POPC   PO473488  29.136  16.716   5.850
 9117POPC   GL173489  29.095  16.742   6.150
 9117POPC   GL273490  28.984  16.763   6.150
 9117POPC   C1A73491  29.140  16.765   6.450
 9117POPC   D2A73492  29.146  16.737   6.750
 9117POPC   C3A73493  29.150  16.724   7.050
 9117POPC   C4A73494  29.134  16.734   7.350
 9117POPC   C1B73495  28.932  16.750   6.450
 9117POPC   C2B73496  28.909  16.838   6.750
 9117POPC   C3B73497  28.946  16.773   7.050
 9117POPC   C4B73498  28.885  16.793   7.350
 9118POPC   NC373499   2.781  39.219   5.550
 9118POPC   PO473500   2.735  39.198   5.850
 9118POPC   GL173501   2.718  39.233   6.150
 9118POPC   GL273502   2.843  39.280   6.150
 9118POPC   C1A73503   2.725  39.237   6.450
 9118POPC   D2A73504   2.760  39.182   6.750
 9118POPC   C3A73505   2.750  39.261   7.050
 9118POPC   C4A73506   2.781  39.219   7.350
 9118POPC   C1B73507   2.914  39.444   6.450
 9118POPC   C2B73508   2.927  39.407   6.750
 9118POPC   C3B73509   2.928  39.404   7.050
 9118POPC   C4B73510   2.940  39.434   7.350
 9119POPC   NC373511  19.808  11.262   5.550
 9119POPC   PO473512  19.878  11.340   5.850
 9119POPC   GL173513  19.873  11.346   6.150
 9119POPC   GL273514  19.822  11.167   6.150
 9119POPC   C1A73515  19.825  11.252   6.450
 9119POPC   D2A73516  19.811  11.257   6.750
 9119POPC   C3A73517  19.870  11.310   7.050
 9119POPC   C4A73518  19.798  11.349   7.350
 9119POPC   C1B73519  19.864  11.102   6.450
 9119POPC   C2B73520  19.897  11.038   6.750
 9119POPC   C3B73521  19.917  11.060   7.050
 9119POPC   C4B73522  19.918  11.017   7.350
 9120POPC   NC373523  24.471  30.656   5.550
 9120POPC   PO473524  24.533  30.669   5.850
 9120POPC   GL173525  24.450  30.710   6.150
 9120POPC   GL273526  24.428  30.649   6.150
 9120POPC   C1A73527  24.498  30.738   6.450
 9120POPC   D2A73528  24.482  30.722   6.750
 9120POPC   C3A73529  24.508  30.725   7.050
 9120POPC   C4A73530  24.513  30.701   7.350
 9120POPC   C1B73531  24.284  30.583   6.450
 9120POPC   C2B73532  24.223  30.564   6.750
 9120POPC   C3B73533  24.224  30.535   7.050
 9120POPC   C4B73534  24.227  30.583   7.350
 9121POPC   NC373535  10.515   8.223   5.550
 9121POPC   PO473536  10.562   8.157   5.850
 9121POPC   GL173537  10.518   8.236   6.150
 9121POPC   GL273538  10.668   8.144   6.150
 9121POPC   C1A73539  10.556   8.215   6.450
 9121POPC   D2A73540  10.501   8.197   6.750
 9121POPC   C3A73541  10.565   8.162   7.050
 9121POPC   C4A73542  10.516   8.164   7.350
 9121POPC   C1B73543  10.768   8.078   6.450
 9121POPC   C2B73544  10.770   8.077   6.750
 9121POPC   C3B73545  10.789   8.112   7.050
 9121POPC   C4B73546  10.713   8.141   7.350
 9122POPC   NC373547  35.335  32.239   5.550
 9122POPC   PO473548  35.394  32.260   5.850
 9122POPC   GL173549  35.382  32.200   6.150
 9122POPC   GL273550  35.279  32.133   6.150
 9122POPC   C1A73551  35.366  32.276   6.450
 9122POPC   D2A73552  35.312  32.295   6.750
 9122POPC   C3A73553  35.402  32.275   7.050
 9122POPC   C4A73554  35.324  32.286   7.350
 9122POPC   C1B73555  35.213  32.094   6.450
 9122POPC   C2B73556  35.167  32.026   6.750
 9122POPC   C3B73557  35.234  32.037   7.050
 9122POPC   C4B73558  35.181  32.088   7.350
 9123POPC   NC373559  33.021  16.776   5.550
 9123POPC   PO473560  33.009  16.695   5.850
 9123POPC   GL173561  33.069  16.779   6.150
 9123POPC   GL273562  33.030  16.856   6.150
 9123POPC   C1A73563  33.001  16.742   6.450
 9123POPC   D2A73564  33.043  16.742   6.750
 9123POPC   C3A73565  32.976  16.712   7.050
 9123POPC   C4A73566  33.053  16.750   7.350
 9123POPC   C1B73567  32.928  17.000   6.450
 9123POPC   C2B73568  32.990  16.990   6.750
 9123POPC   C3B73569  32.944  16.974   7.050
 9123POPC   C4B73570  32.915  16.994   7.350
 9124POPC   NC373571  29.947  26.811   5.550
 9124POPC   PO473572  29.940  26.823   5.850
 9124POPC   GL173573  29.969  26.811   6.150
 9124POPC   GL273574  29.919  26.673   6.150
 9124POPC   C1A73575  29.885  26.858   6.450
 9124POPC   D2A73576  29.953  26.833   6.750
 9124POPC   C3A73577  29.924  26.798   7.050
 9124POPC   C4A73578  29.880  26.834   7.350
 9124POPC   C1B73579  29.929  26.551   6.450
 9124POPC   C2B73580  29.914  26.596   6.750
 9124POPC   C3B73581  29.974  26.524   7.050
 9124POPC   C4B73582  29.974  26.529   7.350
 9125POPC   NC373583   3.509   7.454   5.550
 9125POPC   PO473584   3.510   7.429   5.850
 9125POPC   GL173585   3.533   7.468   6.150
 9125POPC   GL273586   3.493   7.310   6.150
 9125POPC   C1A73587   3.511   7.466   6.450
 9125POPC   D2A73588   3.501   7.436   6.750
 9125POPC   C3A73589   3.531   7.412   7.050
 9125POPC   C4A73590   3.547   7.420   7.350
 9125POPC   C1B73591   3.515   7.206   6.450
 9125POPC   C2B73592   3.543   7.186   6.750
 9125POPC   C3B73593   3.578   7.153   7.050
 9125POPC   C4B73594   3.579   7.138   7.350
 9126POPC   NC373595   3.560   0.468   5.550
 9126POPC   PO473596   3.552   0.468   5.850
 9126POPC   GL173597   3.566   0.478   6.150
 9126POPC   GL273598   3.473   0.488   6.150
 9126POPC   C1A73599   3.536   0.418   6.450
 9126POPC   D2A73600   3.534   0.487   6.750
 9126POPC   C3A73601   3.535   0.438   7.050
 9126POPC   C4A73602   3.574   0.485   7.350
 9126POPC   C1B73603   3.379   0.582   6.450
 9126POPC   C2B73604   3.350   0.577   6.750
 9126POPC   C3B73605   3.369   0.555   7.050
 9126POPC   C4B73606   3.352   0.545   7.350
 9127POPC   NC373607  35.347  37.680   5.550
 9127POPC   PO473608  35.390  37.648   5.850
 9127POPC   GL173609  35.354  37.685   6.150
 9127POPC   GL273610  35.204  37.731   6.150
 9127POPC   C1A73611  35.394  37.675   6.450
 9127POPC   D2A73612  35.373  37.636   6.750
 9127POPC   C3A73613  35.399  37.706   7.050
 9127POPC   C4A73614  35.353  37.635   7.350
 9127POPC   C1B73615  35.093  37.708   6.450
 9127POPC   C2B73616  35.095  37.754   6.750
 9127POPC   C3B73617  35.105  37.696   7.050
 9127POPC   C4B73618  35.091  37.733   7.350
 9128POPC   NC373619  44.680  21.374   5.550
 9128POPC   PO473620  44.630  21.349   5.850
 9128POPC   GL173621  44.693  21.397   6.150
 9128POPC   GL273622  44.767  21.277   6.150
 9128POPC   C1A73623  44.614  21.361   6.450
 9128POPC   D2A73624  44.664  21.357   6.750
 9128POPC   C3A73625  44.658  21.338   7.050
 9128POPC   C4A73626  44.693  21.361   7.350
 9128POPC   C1B73627  44.854  21.266   6.450
 9128POPC   C2B73628  44.840  21.234   6.750
 9128POPC   C3B73629  44.889  21.248   7.050
 9128POPC   C4B73630  44.824  21.270   7.350
 9129POPC   NC373631   6.623   8.155   5.550
 9129POPC   PO473632   6.665   8.174   5.850
 9129POPC   GL173633   6.652   8.195   6.150
 9129POPC   GL273634   6.637   8.347   6.150
 9129POPC   C1A73635   6.679   8.233   6.450
 9129POPC   D2A73636   6.641   8.198   6.750
 9129POPC   C3A73637   6.684   8.166   7.050
 9129POPC   C4A73638   6.610   8.201   7.350
 9129POPC   C1B73639   6.673   8.453   6.450
 9129POPC   C2B73640   6.674   8.489   6.750
 9129POPC   C3B73641   6.617   8.398   7.050
 9129POPC   C4B73642   6.675   8.452   7.350
 9130POPC   NC373643  17.490   9.734   5.550
 9130POPC   PO473644  17.542   9.774   5.850
 9130POPC   GL173645  17.523   9.782   6.150
 9130POPC   GL273646  17.591   9.775   6.150
 9130POPC   C1A73647  17.544   9.775   6.450
 9130POPC   D2A73648  17.553   9.778   6.750
 9130POPC   C3A73649  17.514   9.747   7.050
 9130POPC   C4A73650  17.488   9.748   7.350
 9130POPC   C1B73651  17.782   9.767   6.450
 9130POPC   C2B73652  17.767   9.798   6.750
 9130POPC   C3B73653  17.782   9.838   7.050
 9130POPC   C4B73654  17.733   9.795   7.350
 9131POPC   NC373655  35.344  18.240   5.550
 9131POPC   PO473656  35.349  18.317   5.850
 9131POPC   GL173657  35.368  18.239   6.150
 9131POPC   GL273658  35.294  18.190   6.150
 9131POPC   C1A73659  35.353  18.242   6.450
 9131POPC   D2A73660  35.378  18.240   6.750
 9131POPC   C3A73661  35.346  18.266   7.050
 9131POPC   C4A73662  35.364  18.306   7.350
 9131POPC   C1B73663  35.291  18.065   6.450
 9131POPC   C2B73664  35.244  18.032   6.750
 9131POPC   C3B73665  35.229  18.007   7.050
 9131POPC   C4B73666  35.299  18.084   7.350
 9132POPC   NC373667  25.992  12.056   5.550
 9132POPC   PO473668  26.007  12.102   5.850
 9132POPC   GL173669  26.002  12.063   6.150
 9132POPC   GL273670  26.188  12.094   6.150
 9132POPC   C1A73671  26.016  12.119   6.450
 9132POPC   D2A73672  26.038  12.039   6.750
 9132POPC   C3A73673  26.022  12.110   7.050
 9132POPC   C4A73674  26.091  12.112   7.350
 9132POPC   C1B73675  26.319  12.144   6.450
 9132POPC   C2B73676  26.261  12.095   6.750
 9132POPC   C3B73677  26.268  12.149   7.050
 9132POPC   C4B73678  26.305  12.116   7.350
 9133POPC   NC373679  29.192  26.808   5.550
 9133POPC   PO473680  29.158  26.824   5.850
 9133POPC   GL173681  29.133  26.820   6.150
 9133POPC   GL273682  29.032  26.760   6.150
 9133POPC   C1A73683  29.184  26.855   6.450
 9133POPC   D2A73684  29.123  26.786   6.750
 9133POPC   C3A73685  29.153  26.819   7.050
 9133POPC   C4A73686  29.114  26.838   7.350
 9133POPC   C1B73687  28.929  26.763   6.450
 9133POPC   C2B73688  28.934  26.773   6.750
 9133POPC   C3B73689  28.890  26.710   7.050
 9133POPC   C4B73690  28.902  26.697   7.350
 9134POPC   NC373691   1.263  12.838   5.550
 9134POPC   PO473692   1.173  12.886   5.850
 9134POPC   GL173693   1.170  12.882   6.150
 9134POPC   GL273694   1.287  12.848   6.150
 9134POPC   C1A73695   1.258  12.863   6.450
 9134POPC   D2A73696   1.223  12.892   6.750
 9134POPC   C3A73697   1.199  12.854   7.050
 9134POPC   C4A73698   1.174  12.860   7.350
 9134POPC   C1B73699   1.449  12.859   6.450
 9134POPC   C2B73700   1.425  12.869   6.750
 9134POPC   C3B73701   1.445  12.878   7.050
 9134POPC   C4B73702   1.452  12.881   7.350
 9135POPC   NC373703   1.973  29.911   5.550
 9135POPC   PO473704   1.949  29.885   5.850
 9135POPC   GL173705   2.024  29.882   6.150
 9135POPC   GL273706   1.960  30.002   6.150
 9135POPC   C1A73707   2.034  29.959   6.450
 9135POPC   D2A73708   1.966  29.880   6.750
 9135POPC   C3A73709   1.980  29.950   7.050
 9135POPC   C4A73710   2.019  29.915   7.350
 9135POPC   C1B73711   1.948  30.132   6.450
 9135POPC   C2B73712   1.974  30.160   6.750
 9135POPC   C3B73713   1.892  30.187   7.050
 9135POPC   C4B73714   1.897  30.157   7.350
 9136POPC   NC373715  21.425   6.669   5.550
 9136POPC   PO473716  21.414   6.607   5.850
 9136POPC   GL173717  21.344   6.602   6.150
 9136POPC   GL273718  21.341   6.724   6.150
 9136POPC   C1A73719  21.355   6.644   6.450
 9136POPC   D2A73720  21.390   6.641   6.750
 9136POPC   C3A73721  21.342   6.639   7.050
 9136POPC   C4A73722  21.342   6.608   7.350
 9136POPC   C1B73723  21.393   6.851   6.450
 9136POPC   C2B73724  21.375   6.882   6.750
 9136POPC   C3B73725  21.371   6.925   7.050
 9136POPC   C4B73726  21.311   6.897   7.350
 9137POPC   NC373727  43.855  11.321   5.550
 9137POPC   PO473728  43.894  11.315   5.850
 9137POPC   GL173729  43.918  11.269   6.150
 9137POPC   GL273730  43.835  11.154   6.150
 9137POPC   C1A73731  43.936  11.323   6.450
 9137POPC   D2A73732  43.882  11.327   6.750
 9137POPC   C3A73733  43.858  11.304   7.050
 9137POPC   C4A73734  43.897  11.255   7.350
 9137POPC   C1B73735  43.789  11.015   6.450
 9137POPC   C2B73736  43.799  11.051   6.750
 9137POPC   C3B73737  43.795  11.109   7.050
 9137POPC   C4B73738  43.812  11.035   7.350
 9138POPC   NC373739  29.168  35.386   5.550
 9138POPC   PO473740  29.149  35.355   5.850
 9138POPC   GL173741  29.114  35.326   6.150
 9138POPC   GL273742  29.131  35.469   6.150
 9138POPC   C1A73743  29.185  35.360   6.450
 9138POPC   D2A73744  29.136  35.378   6.750
 9138POPC   C3A73745  29.125  35.342   7.050
 9138POPC   C4A73746  29.189  35.334   7.350
 9138POPC   C1B73747  29.112  35.618   6.450
 9138POPC   C2B73748  29.072  35.631   6.750
 9138POPC   C3B73749  29.170  35.639   7.050
 9138POPC   C4B73750  29.131  35.611   7.350
 9139POPC   NC373751  41.553  44.704   5.550
 9139POPC   PO473752  41.554  44.637   5.850
 9139POPC   GL173753  41.531  44.692   6.150
 9139POPC   GL273754  41.574  44.519   6.150
 9139POPC   C1A73755  41.525  44.641   6.450
 9139POPC   D2A73756  41.565  44.699   6.750
 9139POPC   C3A73757  41.558  44.708   7.050
 9139POPC   C4A73758  41.533  44.673   7.350
 9139POPC   C1B73759  41.579  44.439   6.450
 9139POPC   C2B73760  41.550  44.457   6.750
 9139POPC   C3B73761  41.528  44.382   7.050
 9139POPC   C4B73762  41.563  44.362   7.350
 9140POPC   NC373763  26.772  21.395   5.550
 9140POPC   PO473764  26.770  21.367   5.850
 9140POPC   GL173765  26.857  21.378   6.150
 9140POPC   GL273766  26.894  21.234   6.150
 9140POPC   C1A73767  26.837  21.349   6.450
 9140POPC   D2A73768  26.832  21.345   6.750
 9140POPC   C3A73769  26.804  21.407   7.050
 9140POPC   C4A73770  26.856  21.395   7.350
 9140POPC   C1B73771  26.909  21.178   6.450
 9140POPC   C2B73772  26.966  21.176   6.750
 9140POPC   C3B73773  26.980  21.160   7.050
 9140POPC   C4B73774  26.916  21.200   7.350
 9141POPC   NC373775  39.962   7.469   5.550
 9141POPC   PO473776  39.963   7.374   5.850
 9141POPC   GL173777  40.021   7.384   6.150
 9141POPC   GL273778  39.861   7.368   6.150
 9141POPC   C1A73779  39.968   7.409   6.450
 9141POPC   D2A73780  40.029   7.379   6.750
 9141POPC   C3A73781  40.026   7.382   7.050
 9141POPC   C4A73782  39.982   7.386   7.350
 9141POPC   C1B73783  39.824   7.286   6.450
 9141POPC   C2B73784  39.781   7.244   6.750
 9141POPC   C3B73785  39.812   7.315   7.050
 9141POPC   C4B73786  39.775   7.268   7.350
 9142POPC   NC373787  13.626  27.609   5.550
 9142POPC   PO473788  13.637  27.547   5.850
 9142POPC   GL173789  13.657  27.614   6.150
 9142POPC   GL273790  13.755  27.707   6.150
 9142POPC   C1A73791  13.620  27.601   6.450
 9142POPC   D2A73792  13.586  27.602   6.750
 9142POPC   C3A73793  13.641  27.553   7.050
 9142POPC   C4A73794  13.623  27.592   7.350
 9142POPC   C1B73795  13.824  27.782   6.450
 9142POPC   C2B73796  13.815  27.749   6.750
 9142POPC   C3B73797  13.854  27.729   7.050
 9142POPC   C4B73798  13.782  27.713   7.350
 9143POPC   NC373799  22.925  33.819   5.550
 9143POPC   PO473800  22.927  33.793   5.850
 9143POPC   GL173801  22.912  33.833   6.150
 9143POPC   GL273802  23.093  33.786   6.150
 9143POPC   C1A73803  22.893  33.842   6.450
 9143POPC   D2A73804  22.922  33.774   6.750
 9143POPC   C3A73805  22.972  33.847   7.050
 9143POPC   C4A73806  22.962  33.849   7.350
 9143POPC   C1B73807  23.202  33.705   6.450
 9143POPC   C2B73808  23.113  33.653   6.750
 9143POPC   C3B73809  23.174  33.696   7.050
 9143POPC   C4B73810  23.205  33.658   7.350
 9144POPC   NC373811  29.107   0.441   5.550
 9144POPC   PO473812  29.149   0.481   5.850
 9144POPC   GL173813  29.102   0.474   6.150
 9144POPC   GL273814  29.179   0.514   6.150
 9144POPC   C1A73815  29.174   0.440   6.450
 9144POPC   D2A73816  29.096   0.408   6.750
 9144POPC   C3A73817  29.194   0.482   7.050
 9144POPC   C4A73818  29.151   0.395   7.350
 9144POPC   C1B73819  29.131   0.640   6.450
 9144POPC   C2B73820  29.130   0.653   6.750
 9144POPC   C3B73821  29.193   0.710   7.050
 9144POPC   C4B73822  29.214   0.721   7.350
 9145POPC   NC373823  39.223   5.130   5.550
 9145POPC   PO473824  39.272   5.124   5.850
 9145POPC   GL173825  39.217   5.071   6.150
 9145POPC   GL273826  39.287   4.952   6.150
 9145POPC   C1A73827  39.237   5.082   6.450
 9145POPC   D2A73828  39.202   5.111   6.750
 9145POPC   C3A73829  39.213   5.125   7.050
 9145POPC   C4A73830  39.242   5.084   7.350
 9145POPC   C1B73831  39.281   4.837   6.450
 9145POPC   C2B73832  39.274   4.836   6.750
 9145POPC   C3B73833  39.290   4.823   7.050
 9145POPC   C4B73834  39.286   4.891   7.350
 9146POPC   NC373835  29.928  11.327   5.550
 9146POPC   PO473836  29.944  11.262   5.850
 9146POPC   GL173837  29.922  11.309   6.150
 9146POPC   GL273838  30.038  11.448   6.150
 9146POPC   C1A73839  29.912  11.295   6.450
 9146POPC   D2A73840  29.966  11.333   6.750
 9146POPC   C3A73841  29.885  11.332   7.050
 9146POPC   C4A73842  29.913  11.324   7.350
 9146POPC   C1B73843  30.020  11.543   6.450
 9146POPC   C2B73844  30.095  11.486   6.750
 9146POPC   C3B73845  30.103  11.487   7.050
 9146POPC   C4B73846  30.105  11.470   7.350
 9147POPC   NC373847   0.467  30.718   5.550
 9147POPC   PO473848   0.395  30.680   5.850
 9147POPC   GL173849   0.440  30.661   6.150
 9147POPC   GL273850   0.365  30.621   6.150
 9147POPC   C1A73851   0.388  30.730   6.450
 9147POPC   D2A73852   0.472  30.713   6.750
 9147POPC   C3A73853   0.425  30.710   7.050
 9147POPC   C4A73854   0.414  30.648   7.350
 9147POPC   C1B73855   0.226  30.533   6.450
 9147POPC   C2B73856   0.262  30.597   6.750
 9147POPC   C3B73857   0.240  30.582   7.050
 9147POPC   C4B73858   0.209  30.604   7.350
 9148POPC   NC373859   4.334  19.859   5.550
 9148POPC   PO473860   4.340  19.884   5.850
 9148POPC   GL173861   4.301  19.820   6.150
 9148POPC   GL273862   4.412  19.887   6.150
 9148POPC   C1A73863   4.292  19.844   6.450
 9148POPC   D2A73864   4.319  19.860   6.750
 9148POPC   C3A73865   4.312  19.848   7.050
 9148POPC   C4A73866   4.283  19.840   7.350
 9148POPC   C1B73867   4.581  19.925   6.450
 9148POPC   C2B73868   4.505  19.926   6.750
 9148POPC   C3B73869   4.587  19.883   7.050
 9148POPC   C4B73870   4.512  19.959   7.350
 9149POPC   NC373871  36.116  13.634   5.550
 9149POPC   PO473872  36.082  13.614   5.850
 9149POPC   GL173873  36.149  13.663   6.150
 9149POPC   GL273874  36.056  13.758   6.150
 9149POPC   C1A73875  36.122  13.675   6.450
 9149POPC   D2A73876  36.115  13.602   6.750
 9149POPC   C3A73877  36.171  13.667   7.050
 9149POPC   C4A73878  36.153  13.588   7.350
 9149POPC   C1B73879  36.075  13.913   6.450
 9149POPC   C2B73880  36.087  13.829   6.750
 9149POPC   C3B73881  36.073  13.904   7.050
 9149POPC   C4B73882  36.075  13.833   7.350
 9150POPC   NC373883  42.352  35.311   5.550
 9150POPC   PO473884  42.370  35.328   5.850
 9150POPC   GL173885  42.295  35.388   6.150
 9150POPC   GL273886  42.282  35.474   6.150
 9150POPC   C1A73887  42.341  35.337   6.450
 9150POPC   D2A73888  42.319  35.345   6.750
 9150POPC   C3A73889  42.287  35.370   7.050
 9150POPC   C4A73890  42.370  35.314   7.350
 9150POPC   C1B73891  42.214  35.583   6.450
 9150POPC   C2B73892  42.213  35.565   6.750
 9150POPC   C3B73893  42.172  35.571   7.050
 9150POPC   C4B73894  42.224  35.575   7.350
 9151POPC   NC373895   2.801  42.365   5.550
 9151POPC   PO473896   2.771  42.316   5.850
 9151POPC   GL173897   2.801  42.293   6.150
 9151POPC   GL273898   2.804  42.444   6.150
 9151POPC   C1A73899   2.760  42.309   6.450
 9151POPC   D2A73900   2.751  42.384   6.750
 9151POPC   C3A73901   2.760  42.337   7.050
 9151POPC   C4A73902   2.803  42.363   7.350
 9151POPC   C1B73903   2.703  42.577   6.450
 9151POPC   C2B73904   2.724  42.626   6.750
 9151POPC   C3B73905   2.746  42.607   7.050
 9151POPC   C4B73906   2.710  42.574   7.350
 9152POPC   NC373907   1.978  31.499   5.550
 9152POPC   PO473908   2.022  31.489   5.850
 9152POPC   GL173909   1.997  31.499   6.150
 9152POPC   GL273910   2.124  31.458   6.150
 9152POPC   C1A73911   1.981  31.494   6.450
 9152POPC   D2A73912   1.944  31.476   6.750
 9152POPC   C3A73913   1.941  31.512   7.050
 9152POPC   C4A73914   1.990  31.430   7.350
 9152POPC   C1B73915   2.195  31.408   6.450
 9152POPC   C2B73916   2.192  31.379   6.750
 9152POPC   C3B73917   2.221  31.414   7.050
 9152POPC   C4B73918   2.197  31.402   7.350
 9153POPC   NC373919  43.078  21.367   5.550
 9153POPC   PO473920  43.061  21.396   5.850
 9153POPC   GL173921  43.074  21.355   6.150
 9153POPC   GL273922  43.087  21.458   6.150
 9153POPC   C1A73923  43.073  21.350   6.450
 9153POPC   D2A73924  43.126  21.351   6.750
 9153POPC   C3A73925  43.073  21.393   7.050
 9153POPC   C4A73926  43.152  21.407   7.350
 9153POPC   C1B73927  43.033  21.648   6.450
 9153POPC   C2B73928  43.015  21.668   6.750
 9153POPC   C3B73929  43.041  21.654   7.050
 9153POPC   C4B73930  43.007  21.590   7.350
 9154POPC   NC373931   3.568  41.557   5.550
 9154POPC   PO473932   3.577  41.536   5.850
 9154POPC   GL173933   3.508  41.525   6.150
 9154POPC   GL273934   3.637  41.676   6.150
 9154POPC   C1A73935   3.507  41.574   6.450
 9154POPC   D2A73936   3.550  41.509   6.750
 9154POPC   C3A73937   3.521  41.511   7.050
 9154POPC   C4A73938   3.582  41.566   7.350
 9154POPC   C1B73939   3.648  41.782   6.450
 9154POPC   C2B73940   3.646  41.717   6.750
 9154POPC   C3B73941   3.688  41.712   7.050
 9154POPC   C4B73942   3.686  41.739   7.350
 9155POPC   NC373943  28.390  27.598   5.550
 9155POPC   PO473944  28.412  27.617   5.850
 9155POPC   GL173945  28.382  27.604   6.150
 9155POPC   GL273946  28.306  27.445   6.150
 9155POPC   C1A73947  28.380  27.602   6.450
 9155POPC   D2A73948  28.362  27.559   6.750
 9155POPC   C3A73949  28.372  27.634   7.050
 9155POPC   C4A73950  28.358  27.635   7.350
 9155POPC   C1B73951  28.216  27.367   6.450
 9155POPC   C2B73952  28.216  27.396   6.750
 9155POPC   C3B73953  28.284  27.397   7.050
 9155POPC   C4B73954  28.226  27.413   7.350
 9156POPC   NC373955  12.901   1.947   5.550
 9156POPC   PO473956  12.855   1.994   5.850
 9156POPC   GL173957  12.858   1.984   6.150
 9156POPC   GL273958  12.934   1.870   6.150
 9156POPC   C1A73959  12.806   1.966   6.450
 9156POPC   D2A73960  12.893   2.026   6.750
 9156POPC   C3A73961  12.836   1.958   7.050
 9156POPC   C4A73962  12.858   2.025   7.350
 9156POPC   C1B73963  12.978   1.789   6.450
 9156POPC   C2B73964  13.055   1.780   6.750
 9156POPC   C3B73965  13.006   1.782   7.050
 9156POPC   C4B73966  13.052   1.796   7.350
 9157POPC   NC373967   1.227  16.720   5.550
 9157POPC   PO473968   1.235  16.705   5.850
 9157POPC   GL173969   1.184  16.766   6.150
 9157POPC   GL273970   1.179  16.654   6.150
 9157POPC   C1A73971   1.183  16.701   6.450
 9157POPC   D2A73972   1.205  16.696   6.750
 9157POPC   C3A73973   1.172  16.772   7.050
 9157POPC   C4A73974   1.210  16.763   7.350
 9157POPC   C1B73975   1.123  16.534   6.450
 9157POPC   C2B73976   1.142  16.547   6.750
 9157POPC   C3B73977   1.124  16.456   7.050
 9157POPC   C4B73978   1.122  16.502   7.350
 9158POPC   NC373979  12.097  20.656   5.550
 9158POPC   PO473980  12.103  20.564   5.850
 9158POPC   GL173981  12.091  20.637   6.150
 9158POPC   GL273982  12.027  20.541   6.150
 9158POPC   C1A73983  12.075  20.657   6.450
 9158POPC   D2A73984  12.050  20.582   6.750
 9158POPC   C3A73985  12.035  20.614   7.050
 9158POPC   C4A73986  12.083  20.641   7.350
 9158POPC   C1B73987  11.942  20.414   6.450
 9158POPC   C2B73988  11.898  20.421   6.750
 9158POPC   C3B73989  11.938  20.411   7.050
 9158POPC   C4B73990  11.943  20.430   7.350
 9159POPC   NC373991  40.037  27.557   5.550
 9159POPC   PO473992  40.014  27.556   5.850
 9159POPC   GL173993  39.974  27.576   6.150
 9159POPC   GL273994  39.899  27.474   6.150
 9159POPC   C1A73995  40.031  27.574   6.450
 9159POPC   D2A73996  40.044  27.552   6.750
 9159POPC   C3A73997  40.012  27.591   7.050
 9159POPC   C4A73998  39.965  27.603   7.350
 9159POPC   C1B73999  39.775  27.470   6.450
 9159POPC   C2B74000  39.817  27.405   6.750
 9159POPC   C3B74001  39.842  27.416   7.050
 9159POPC   C4B74002  39.820  27.483   7.350
 9160POPC   NC374003  12.054  24.476   5.550
 9160POPC   PO474004  12.098  24.490   5.850
 9160POPC   GL174005  12.060  24.490   6.150
 9160POPC   GL274006  12.023  24.569   6.150
 9160POPC   C1A74007  12.083  24.536   6.450
 9160POPC   D2A74008  12.095  24.536   6.750
 9160POPC   C3A74009  12.103  24.458   7.050
 9160POPC   C4A74010  12.034  24.460   7.350
 9160POPC   C1B74011  11.885  24.599   6.450
 9160POPC   C2B74012  11.868  24.620   6.750
 9160POPC   C3B74013  11.864  24.624   7.050
 9160POPC   C4B74014  11.843  24.637   7.350
 9161POPC   NC374015   8.167  12.039   5.550
 9161POPC   PO474016   8.170  12.059   5.850
 9161POPC   GL174017   8.216  12.036   6.150
 9161POPC   GL274018   8.262  12.155   6.150
 9161POPC   C1A74019   8.164  12.098   6.450
 9161POPC   D2A74020   8.245  12.057   6.750
 9161POPC   C3A74021   8.175  12.042   7.050
 9161POPC   C4A74022   8.213  12.065   7.350
 9161POPC   C1B74023   8.400  12.263   6.450
 9161POPC   C2B74024   8.372  12.188   6.750
 9161POPC   C3B74025   8.386  12.189   7.050
 9161POPC   C4B74026   8.429  12.234   7.350
 9162POPC   NC374027  33.047   7.400   5.550
 9162POPC   PO474028  33.025   7.457   5.850
 9162POPC   GL174029  33.039   7.410   6.150
 9162POPC   GL274030  33.084   7.544   6.150
 9162POPC   C1A74031  33.073   7.412   6.450
 9162POPC   D2A74032  33.019   7.399   6.750
 9162POPC   C3A74033  33.060   7.453   7.050
 9162POPC   C4A74034  32.992   7.452   7.350
 9162POPC   C1B74035  33.012   7.708   6.450
 9162POPC   C2B74036  33.011   7.688   6.750
 9162POPC   C3B74037  33.049   7.670   7.050
 9162POPC   C4B74038  33.089   7.624   7.350
 9163POPC   NC374039  10.541  15.980   5.550
 9163POPC   PO474040  10.491  15.994   5.850
 9163POPC   GL174041  10.482  15.913   6.150
 9163POPC   GL274042  10.662  16.011   6.150
 9163POPC   C1A74043  10.533  15.915   6.450
 9163POPC   D2A74044  10.511  15.943   6.750
 9163POPC   C3A74045  10.496  15.983   7.050
 9163POPC   C4A74046  10.534  15.918   7.350
 9163POPC   C1B74047  10.809  15.983   6.450
 9163POPC   C2B74048  10.783  15.982   6.750
 9163POPC   C3B74049  10.770  16.018   7.050
 9163POPC   C4B74050  10.744  15.984   7.350
 9164POPC   NC374051  36.090  26.866   5.550
 9164POPC   PO474052  36.168  26.833   5.850
 9164POPC   GL174053  36.088  26.857   6.150
 9164POPC   GL274054  36.207  26.872   6.150
 9164POPC   C1A74055  36.094  26.778   6.450
 9164POPC   D2A74056  36.090  26.802   6.750
 9164POPC   C3A74057  36.111  26.805   7.050
 9164POPC   C4A74058  36.086  26.838   7.350
 9164POPC   C1B74059  36.305  26.991   6.450
 9164POPC   C2B74060  36.262  26.989   6.750
 9164POPC   C3B74061  36.256  27.041   7.050
 9164POPC   C4B74062  36.293  26.975   7.350
 9165POPC   NC374063  22.203   8.228   5.550
 9165POPC   PO474064  22.202   8.243   5.850
 9165POPC   GL174065  22.139   8.179   6.150
 9165POPC   GL274066  22.039   8.130   6.150
 9165POPC   C1A74067  22.172   8.183   6.450
 9165POPC   D2A74068  22.145   8.148   6.750
 9165POPC   C3A74069  22.191   8.226   7.050
 9165POPC   C4A74070  22.154   8.149   7.350
 9165POPC   C1B74071  22.000   8.007   6.450
 9165POPC   C2B74072  21.979   8.019   6.750
 9165POPC   C3B74073  21.990   8.069   7.050
 9165POPC   C4B74074  21.963   8.015   7.350
 9166POPC   NC374075  26.031   5.908   5.550
 9166POPC   PO474076  25.992   5.893   5.850
 9166POPC   GL174077  26.080   5.880   6.150
 9166POPC   GL274078  26.043   5.945   6.150
 9166POPC   C1A74079  26.013   5.842   6.450
 9166POPC   D2A74080  26.026   5.837   6.750
 9166POPC   C3A74081  26.077   5.867   7.050
 9166POPC   C4A74082  26.056   5.824   7.350
 9166POPC   C1B74083  26.144   6.144   6.450
 9166POPC   C2B74084  26.138   6.137   6.750
 9166POPC   C3B74085  26.143   6.153   7.050
 9166POPC   C4B74086  26.097   6.113   7.350
 9167POPC   NC374087  32.227   5.133   5.550
 9167POPC   PO474088  32.209   5.060   5.850
 9167POPC   GL174089  32.198   5.054   6.150
 9167POPC   GL274090  32.327   5.055   6.150
 9167POPC   C1A74091  32.296   5.081   6.450
 9167POPC   D2A74092  32.211   5.119   6.750
 9167POPC   C3A74093  32.258   5.045   7.050
 9167POPC   C4A74094  32.241   5.083   7.350
 9167POPC   C1B74095  32.498   5.059   6.450
 9167POPC   C2B74096  32.520   5.040   6.750
 9167POPC   C3B74097  32.508   5.027   7.050
 9167POPC   C4B74098  32.480   5.067   7.350
 9168POPC   NC374099  17.462  25.312   5.550
 9168POPC   PO474100  17.502  25.296   5.850
 9168POPC   GL174101  17.506  25.236   6.150
 9168POPC   GL274102  17.538  25.361   6.150
 9168POPC   C1A74103  17.507  25.291   6.450
 9168POPC   D2A74104  17.554  25.277   6.750
 9168POPC   C3A74105  17.528  25.299   7.050
 9168POPC   C4A74106  17.510  25.289   7.350
 9168POPC   C1B74107  17.540  25.485   6.450
 9168POPC   C2B74108  17.539  25.473   6.750
 9168POPC   C3B74109  17.536  25.542   7.050
 9168POPC   C4B74110  17.523  25.526   7.350
 9169POPC   NC374111  22.937   4.271   5.550
 9169POPC   PO474112  22.911   4.268   5.850
 9169POPC   GL174113  22.971   4.347   6.150
 9169POPC   GL274114  22.946   4.444   6.150
 9169POPC   C1A74115  22.902   4.345   6.450
 9169POPC   D2A74116  22.947   4.312   6.750
 9169POPC   C3A74117  22.969   4.354   7.050
 9169POPC   C4A74118  22.942   4.279   7.350
 9169POPC   C1B74119  22.969   4.562   6.450
 9169POPC   C2B74120  23.011   4.543   6.750
 9169POPC   C3B74121  23.065   4.509   7.050
 9169POPC   C4B74122  23.028   4.555   7.350
 9170POPC   NC374123   0.402  12.051   5.550
 9170POPC   PO474124   0.450  12.052   5.850
 9170POPC   GL174125   0.473  12.101   6.150
 9170POPC   GL274126   0.429  12.213   6.150
 9170POPC   C1A74127   0.475  12.031   6.450
 9170POPC   D2A74128   0.389  12.050   6.750
 9170POPC   C3A74129   0.421  12.097   7.050
 9170POPC   C4A74130   0.470  12.096   7.350
 9170POPC   C1B74131   0.452  12.363   6.450
 9170POPC   C2B74132   0.496  12.311   6.750
 9170POPC   C3B74133   0.443  12.302   7.050
 9170POPC   C4B74134   0.479  12.314   7.350
 9171POPC   NC374135  15.211  12.040   5.550
 9171POPC   PO474136  15.169  12.125   5.850
 9171POPC   GL174137  15.208  12.061   6.150
 9171POPC   GL274138  15.185  12.154   6.150
 9171POPC   C1A74139  15.206  12.035   6.450
 9171POPC   D2A74140  15.131  12.033   6.750
 9171POPC   C3A74141  15.155  12.033   7.050
 9171POPC   C4A74142  15.211  12.116   7.350
 9171POPC   C1B74143  15.234  12.298   6.450
 9171POPC   C2B74144  15.227  12.337   6.750
 9171POPC   C3B74145  15.272  12.309   7.050
 9171POPC   C4B74146  15.198  12.346   7.350
 9172POPC   NC374147  35.394  12.062   5.550
 9172POPC   PO474148  35.303  12.057   5.850
 9172POPC   GL174149  35.335  12.067   6.150
 9172POPC   GL274150  35.356  12.154   6.150
 9172POPC   C1A74151  35.325  12.034   6.450
 9172POPC   D2A74152  35.308  12.113   6.750
 9172POPC   C3A74153  35.353  12.090   7.050
 9172POPC   C4A74154  35.348  12.073   7.350
 9172POPC   C1B74155  35.375  12.362   6.450
 9172POPC   C2B74156  35.443  12.334   6.750
 9172POPC   C3B74157  35.430  12.295   7.050
 9172POPC   C4B74158  35.410  12.319   7.350
 9173POPC   NC374159  42.377  22.181   5.550
 9173POPC   PO474160  42.332  22.200   5.850
 9173POPC   GL174161  42.358  22.136   6.150
 9173POPC   GL274162  42.380  22.215   6.150
 9173POPC   C1A74163  42.340  22.122   6.450
 9173POPC   D2A74164  42.339  22.155   6.750
 9173POPC   C3A74165  42.371  22.143   7.050
 9173POPC   C4A74166  42.351  22.198   7.350
 9173POPC   C1B74167  42.502  22.323   6.450
 9173POPC   C2B74168  42.433  22.407   6.750
 9173POPC   C3B74169  42.444  22.351   7.050
 9173POPC   C4B74170  42.507  22.375   7.350
 9174POPC   NC374171  44.696   1.229   5.550
 9174POPC   PO474172  44.612   1.195   5.850
 9174POPC   GL174173  44.612   1.195   6.150
 9174POPC   GL274174  44.583   1.098   6.150
 9174POPC   C1A74175  44.655   1.223   6.450
 9174POPC   D2A74176  44.694   1.239   6.750
 9174POPC   C3A74177  44.695   1.179   7.050
 9174POPC   C4A74178  44.665   1.233   7.350
 9174POPC   C1B74179  44.548   1.005   6.450
 9174POPC   C2B74180  44.539   0.985   6.750
 9174POPC   C3B74181  44.551   0.999   7.050
 9174POPC   C4B74182  44.556   0.932   7.350
 9175POPC   NC374183  14.429  20.575   5.550
 9175POPC   PO474184  14.378  20.600   5.850
 9175POPC   GL174185  14.377  20.579   6.150
 9175POPC   GL274186  14.463  20.659   6.150
 9175POPC   C1A74187  14.382  20.609   6.450
 9175POPC   D2A74188  14.362  20.632   6.750
 9175POPC   C3A74189  14.355  20.562   7.050
 9175POPC   C4A74190  14.449  20.569   7.350
 9175POPC   C1B74191  14.535  20.768   6.450
 9175POPC   C2B74192  14.517  20.760   6.750
 9175POPC   C3B74193  14.593  20.836   7.050
 9175POPC   C4B74194  14.517  20.808   7.350
 9176POPC   NC374195  20.594  38.410   5.550
 9176POPC   PO474196  20.657  38.423   5.850
 9176POPC   GL174197  20.633  38.460   6.150
 9176POPC   GL274198  20.698  38.347   6.150
 9176POPC   C1A74199  20.595  38.482   6.450
 9176POPC   D2A74200  20.567  38.450   6.750
 9176POPC   C3A74201  20.629  38.467   7.050
 9176POPC   C4A74202  20.630  38.494   7.350
 9176POPC   C1B74203  20.756  38.276   6.450
 9176POPC   C2B74204  20.684  38.209   6.750
 9176POPC   C3B74205  20.729  38.223   7.050
 9176POPC   C4B74206  20.689  38.243   7.350
 9177POPC   NC374207  40.758  23.741   5.550
 9177POPC   PO474208  40.829  23.741   5.850
 9177POPC   GL174209  40.744  23.717   6.150
 9177POPC   GL274210  40.665  23.685   6.150
 9177POPC   C1A74211  40.776  23.731   6.450
 9177POPC   D2A74212  40.810  23.713   6.750
 9177POPC   C3A74213  40.764  23.708   7.050
 9177POPC   C4A74214  40.772  23.746   7.350
 9177POPC   C1B74215  40.565  23.730   6.450
 9177POPC   C2B74216  40.558  23.650   6.750
 9177POPC   C3B74217  40.502  23.684   7.050
 9177POPC   C4B74218  40.487  23.702   7.350
 9178POPC   NC374219   1.193  11.267   5.550
 9178POPC   PO474220   1.238  11.272   5.850
 9178POPC   GL174221   1.253  11.341   6.150
 9178POPC   GL274222   1.064  11.366   6.150
 9178POPC   C1A74223   1.188  11.307   6.450
 9178POPC   D2A74224   1.245  11.292   6.750
 9178POPC   C3A74225   1.233  11.345   7.050
 9178POPC   C4A74226   1.187  11.292   7.350
 9178POPC   C1B74227   0.960  11.339   6.450
 9178POPC   C2B74228   1.014  11.321   6.750
 9178POPC   C3B74229   0.917  11.358   7.050
 9178POPC   C4B74230   0.929  11.367   7.350
 9179POPC   NC374231  41.545  41.509   5.550
 9179POPC   PO474232  41.565  41.579   5.850
 9179POPC   GL174233  41.536  41.513   6.150
 9179POPC   GL274234  41.530  41.729   6.150
 9179POPC   C1A74235  41.528  41.530   6.450
 9179POPC   D2A74236  41.539  41.576   6.750
 9179POPC   C3A74237  41.598  41.569   7.050
 9179POPC   C4A74238  41.555  41.539   7.350
 9179POPC   C1B74239  41.611  41.829   6.450
 9179POPC   C2B74240  41.609  41.806   6.750
 9179POPC   C3B74241  41.538  41.768   7.050
 9179POPC   C4B74242  41.612  41.853   7.350
 9180POPC   NC374243  43.889  32.993   5.550
 9180POPC   PO474244  43.935  33.063   5.850
 9180POPC   GL174245  43.927  32.982   6.150
 9180POPC   GL274246  43.920  33.126   6.150
 9180POPC   C1A74247  43.911  33.005   6.450
 9180POPC   D2A74248  43.901  33.073   6.750
 9180POPC   C3A74249  43.840  33.016   7.050
 9180POPC   C4A74250  43.899  33.000   7.350
 9180POPC   C1B74251  44.063  33.278   6.450
 9180POPC   C2B74252  44.056  33.274   6.750
 9180POPC   C3B74253  44.041  33.237   7.050
 9180POPC   C4B74254  44.025  33.266   7.350
 9181POPC   NC374255  33.753   8.981   5.550
 9181POPC   PO474256  33.779   8.973   5.850
 9181POPC   GL174257  33.781   8.947   6.150
 9181POPC   GL274258  33.888   8.973   6.150
 9181POPC   C1A74259  33.781   8.924   6.450
 9181POPC   D2A74260  33.760   8.941   6.750
 9181POPC   C3A74261  33.772   8.970   7.050
 9181POPC   C4A74262  33.752   8.999   7.350
 9181POPC   C1B74263  34.000   9.036   6.450
 9181POPC   C2B74264  34.068   9.018   6.750
 9181POPC   C3B74265  33.988   9.022   7.050
 9181POPC   C4B74266  34.082   9.101   7.350
 9182POPC   NC374267  43.151  40.772   5.550
 9182POPC   PO474268  43.079  40.814   5.850
 9182POPC   GL174269  43.135  40.770   6.150
 9182POPC   GL274270  43.253  40.684   6.150
 9182POPC   C1A74271  43.133  40.827   6.450
 9182POPC   D2A74272  43.104  40.744   6.750
 9182POPC   C3A74273  43.084  40.773   7.050
 9182POPC   C4A74274  43.079  40.772   7.350
 9182POPC   C1B74275  43.304  40.642   6.450
 9182POPC   C2B74276  43.320  40.648   6.750
 9182POPC   C3B74277  43.348  40.660   7.050
 9182POPC   C4B74278  43.324  40.578   7.350
 9183POPC   NC374279  20.578  43.874   5.550
 9183POPC   PO474280  20.592  43.870   5.850
 9183POPC   GL174281  20.565  43.901   6.150
 9183POPC   GL274282  20.731  43.940   6.150
 9183POPC   C1A74283  20.619  43.928   6.450
 9183POPC   D2A74284  20.632  43.914   6.750
 9183POPC   C3A74285  20.629  43.880   7.050
 9183POPC   C4A74286  20.581  43.859   7.350
 9183POPC   C1B74287  20.760  44.057   6.450
 9183POPC   C2B74288  20.744  44.091   6.750
 9183POPC   C3B74289  20.823  44.030   7.050
 9183POPC   C4B74290  20.774  44.080   7.350
 9184POPC   NC374291  16.731  21.343   5.550
 9184POPC   PO474292  16.764  21.362   5.850
 9184POPC   GL174293  16.749  21.436   6.150
 9184POPC   GL274294  16.692  21.537   6.150
 9184POPC   C1A74295  16.684  21.422   6.450
 9184POPC   D2A74296  16.780  21.342   6.750
 9184POPC   C3A74297  16.762  21.426   7.050
 9184POPC   C4A74298  16.738  21.375   7.350
 9184POPC   C1B74299  16.559  21.547   6.450
 9184POPC   C2B74300  16.608  21.629   6.750
 9184POPC   C3B74301  16.591  21.619   7.050
 9184POPC   C4B74302  16.601  21.620   7.350
 9185POPC   NC374303   1.991  40.736   5.550
 9185POPC   PO474304   1.970  40.743   5.850
 9185POPC   GL174305   2.025  40.828   6.150
 9185POPC   GL274306   2.001  40.882   6.150
 9185POPC   C1A74307   1.997  40.736   6.450
 9185POPC   D2A74308   1.946  40.757   6.750
 9185POPC   C3A74309   1.978  40.806   7.050
 9185POPC   C4A74310   1.944  40.828   7.350
 9185POPC   C1B74311   2.111  41.020   6.450
 9185POPC   C2B74312   2.113  41.027   6.750
 9185POPC   C3B74313   2.120  41.021   7.050
 9185POPC   C4B74314   2.099  41.029   7.350
 9186POPC   NC374315   7.450  18.263   5.550
 9186POPC   PO474316   7.426  18.274   5.850
 9186POPC   GL174317   7.440  18.242   6.150
 9186POPC   GL274318   7.445  18.448   6.150
 9186POPC   C1A74319   7.428  18.288   6.450
 9186POPC   D2A74320   7.445  18.282   6.750
 9186POPC   C3A74321   7.389  18.293   7.050
 9186POPC   C4A74322   7.465  18.249   7.350
 9186POPC   C1B74323   7.489  18.489   6.450
 9186POPC   C2B74324   7.428  18.577   6.750
 9186POPC   C3B74325   7.437  18.526   7.050
 9186POPC   C4B74326   7.442  18.571   7.350
 9187POPC   NC374327  15.202   0.445   5.550
 9187POPC   PO474328  15.197   0.440   5.850
 9187POPC   GL174329  15.161   0.409   6.150
 9187POPC   GL274330  15.139   0.568   6.150
 9187POPC   C1A74331  15.169   0.483   6.450
 9187POPC   D2A74332  15.187   0.396   6.750
 9187POPC   C3A74333  15.137   0.461   7.050
 9187POPC   C4A74334  15.141   0.483   7.350
 9187POPC   C1B74335  15.084   0.705   6.450
 9187POPC   C2B74336  15.083   0.667   6.750
 9187POPC   C3B74337  15.111   0.661   7.050
 9187POPC   C4B74338  15.070   0.690   7.350
 9188POPC   NC374339   5.132  26.062   5.550
 9188POPC   PO474340   5.143  26.017   5.850
 9188POPC   GL174341   5.060  26.032   6.150
 9188POPC   GL274342   5.082  25.912   6.150
 9188POPC   C1A74343   5.122  26.023   6.450
 9188POPC   D2A74344   5.067  26.004   6.750
 9188POPC   C3A74345   5.075  26.042   7.050
 9188POPC   C4A74346   5.054  26.030   7.350
 9188POPC   C1B74347   5.080  25.785   6.450
 9188POPC   C2B74348   5.047  25.792   6.750
 9188POPC   C3B74349   5.050  25.759   7.050
 9188POPC   C4B74350   5.033  25.822   7.350
 9189POPC   NC374351   1.242   3.543   5.550
 9189POPC   PO474352   1.180   3.576   5.850
 9189POPC   GL174353   1.196   3.578   6.150
 9189POPC   GL274354   1.195   3.426   6.150
 9189POPC   C1A74355   1.193   3.577   6.450
 9189POPC   D2A74356   1.187   3.502   6.750
 9189POPC   C3A74357   1.230   3.496   7.050
 9189POPC   C4A74358   1.246   3.542   7.350
 9189POPC   C1B74359   1.129   3.290   6.450
 9189POPC   C2B74360   1.120   3.312   6.750
 9189POPC   C3B74361   1.131   3.255   7.050
 9189POPC   C4B74362   1.166   3.317   7.350
 9190POPC   NC374363  26.087  19.066   5.550
 9190POPC   PO474364  26.059  19.012   5.850
 9190POPC   GL174365  26.045  19.048   6.150
 9190POPC   GL274366  26.197  19.084   6.150
 9190POPC   C1A74367  26.048  19.102   6.450
 9190POPC   D2A74368  26.022  19.085   6.750
 9190POPC   C3A74369  26.040  19.087   7.050
 9190POPC   C4A74370  26.005  19.052   7.350
 9190POPC   C1B74371  26.311  19.140   6.450
 9190POPC   C2B74372  26.285  19.132   6.750
 9190POPC   C3B74373  26.327  19.110   7.050
 9190POPC   C4B74374  26.323  19.123   7.350
 9191POPC   NC374375  41.555  15.210   5.550
 9191POPC   PO474376  41.541  15.179   5.850
 9191POPC   GL174377  41.608  15.174   6.150
 9191POPC   GL274378  41.461  15.166   6.150
 9191POPC   C1A74379  41.525  15.205   6.450
 9191POPC   D2A74380  41.565  15.205   6.750
 9191POPC   C3A74381  41.566  15.193   7.050
 9191POPC   C4A74382  41.522  15.227   7.350
 9191POPC   C1B74383  41.349  15.140   6.450
 9191POPC   C2B74384  41.310  15.175   6.750
 9191POPC   C3B74385  41.269  15.123   7.050
 9191POPC   C4B74386  41.333  15.195   7.350
 9192POPC   NC374387  38.416  19.095   5.550
 9192POPC   PO474388  38.422  19.072   5.850
 9192POPC   GL174389  38.484  19.090   6.150
 9192POPC   GL274390  38.479  18.934   6.150
 9192POPC   C1A74391  38.501  19.027   6.450
 9192POPC   D2A74392  38.478  19.010   6.750
 9192POPC   C3A74393  38.439  19.068   7.050
 9192POPC   C4A74394  38.474  19.101   7.350
 9192POPC   C1B74395  38.458  18.832   6.450
 9192POPC   C2B74396  38.376  18.843   6.750
 9192POPC   C3B74397  38.399  18.840   7.050
 9192POPC   C4B74398  38.412  18.814   7.350
 9193POPC   NC374399  44.651  33.805   5.550
 9193POPC   PO474400  44.705  33.810   5.850
 9193POPC   GL174401  44.624  33.772   6.150
 9193POPC   GL274402  44.750  33.735   6.150
 9193POPC   C1A74403  44.674  33.790   6.450
 9193POPC   D2A74404  44.657  33.820   6.750
 9193POPC   C3A74405  44.693  33.777   7.050
 9193POPC   C4A74406  44.698  33.839   7.350
 9193POPC   C1B74407  44.876  33.736   6.450
 9193POPC   C2B74408  44.913  33.750   6.750
 9193POPC   C3B74409  44.927  33.736   7.050
 9193POPC   C4B74410  44.890  33.751   7.350
 9194POPC   NC374411  14.362   3.580   5.550
 9194POPC   PO474412  14.421   3.550   5.850
 9194POPC   GL174413  14.381   3.562   6.150
 9194POPC   GL274414  14.511   3.634   6.150
 9194POPC   C1A74415  14.422   3.494   6.450
 9194POPC   D2A74416  14.401   3.550   6.750
 9194POPC   C3A74417  14.434   3.572   7.050
 9194POPC   C4A74418  14.363   3.566   7.350
 9194POPC   C1B74419  14.620   3.716   6.450
 9194POPC   C2B74420  14.617   3.687   6.750
 9194POPC   C3B74421  14.645   3.697   7.050
 9194POPC   C4B74422  14.583   3.719   7.350
 9195POPC   NC374423  43.853   9.718   5.550
 9195POPC   PO474424  43.883   9.721   5.850
 9195POPC   GL174425  43.851   9.744   6.150
 9195POPC   GL274426  43.713   9.751   6.150
 9195POPC   C1A74427  43.844   9.762   6.450
 9195POPC   D2A74428  43.931   9.733   6.750
 9195POPC   C3A74429  43.851   9.784   7.050
 9195POPC   C4A74430  43.838   9.720   7.350
 9195POPC   C1B74431  43.602   9.753   6.450
 9195POPC   C2B74432  43.652   9.758   6.750
 9195POPC   C3B74433  43.680   9.714   7.050
 9195POPC   C4B74434  43.594   9.753   7.350
 9196POPC   NC374435  36.087   7.454   5.550
 9196POPC   PO474436  36.134   7.414   5.850
 9196POPC   GL174437  36.170   7.457   6.150
 9196POPC   GL274438  36.122   7.260   6.150
 9196POPC   C1A74439  36.096   7.381   6.450
 9196POPC   D2A74440  36.132   7.431   6.750
 9196POPC   C3A74441  36.117   7.416   7.050
 9196POPC   C4A74442  36.146   7.433   7.350
 9196POPC   C1B74443  36.180   7.225   6.450
 9196POPC   C2B74444  36.182   7.144   6.750
 9196POPC   C3B74445  36.243   7.144   7.050
 9196POPC   C4B74446  36.162   7.189   7.350
 9197POPC   NC374447  37.702  18.331   5.550
 9197POPC   PO474448  37.678  18.265   5.850
 9197POPC   GL174449  37.637  18.294   6.150
 9197POPC   GL274450  37.527  18.321   6.150
 9197POPC   C1A74451  37.716  18.281   6.450
 9197POPC   D2A74452  37.662  18.246   6.750
 9197POPC   C3A74453  37.662  18.265   7.050
 9197POPC   C4A74454  37.694  18.271   7.350
 9197POPC   C1B74455  37.479  18.360   6.450
 9197POPC   C2B74456  37.441  18.301   6.750
 9197POPC   C3B74457  37.452  18.357   7.050
 9197POPC   C4B74458  37.386  18.286   7.350
 9198POPC   NC374459   1.201  19.089   5.550
 9198POPC   PO474460   1.223  19.031   5.850
 9198POPC   GL174461   1.258  19.069   6.150
 9198POPC   GL274462   1.124  18.985   6.150
 9198POPC   C1A74463   1.263  19.061   6.450
 9198POPC   D2A74464   1.261  19.009   6.750
 9198POPC   C3A74465   1.192  19.044   7.050
 9198POPC   C4A74466   1.219  19.067   7.350
 9198POPC   C1B74467   1.093  18.788   6.450
 9198POPC   C2B74468   1.143  18.873   6.750
 9198POPC   C3B74469   1.058  18.876   7.050
 9198POPC   C4B74470   1.088  18.880   7.350
 9199POPC   NC374471  43.118   8.163   5.550
 9199POPC   PO474472  43.141   8.183   5.850
 9199POPC   GL174473  43.129   8.236   6.150
 9199POPC   GL274474  43.199   8.293   6.150
 9199POPC   C1A74475  43.079   8.156   6.450
 9199POPC   D2A74476  43.141   8.226   6.750
 9199POPC   C3A74477  43.124   8.239   7.050
 9199POPC   C4A74478  43.105   8.243   7.350
 9199POPC   C1B74479  43.214   8.435   6.450
 9199POPC   C2B74480  43.254   8.404   6.750
 9199POPC   C3B74481  43.256   8.414   7.050
 9199POPC   C4B74482  43.227   8.358   7.350
 9200POPC   NC374483   2.784  32.234   5.550
 9200POPC   PO474484   2.774  32.236   5.850
 9200POPC   GL174485   2.779  32.296   6.150
 9200POPC   GL274486   2.732  32.129   6.150
 9200POPC   C1A74487   2.795  32.281   6.450
 9200POPC   D2A74488   2.806  32.221   6.750
 9200POPC   C3A74489   2.753  32.229   7.050
 9200POPC   C4A74490   2.730  32.222   7.350
 9200POPC   C1B74491   2.764  31.957   6.450
 9200POPC   C2B74492   2.770  31.964   6.750
 9200POPC   C3B74493   2.706  32.012   7.050
 9200POPC   C4B74494   2.692  31.966   7.350
 9201POPC   NC374495  43.136  39.218   5.550
 9201POPC   PO474496  43.098  39.196   5.850
 9201POPC   GL174497  43.157  39.271   6.150
 9201POPC   GL274498  43.197  39.278   6.150
 9201POPC   C1A74499  43.122  39.278   6.450
 9201POPC   D2A74500  43.113  39.221   6.750
 9201POPC   C3A74501  43.113  39.277   7.050
 9201POPC   C4A74502  43.124  39.273   7.350
 9201POPC   C1B74503  43.322  39.246   6.450
 9201POPC   C2B74504  43.395  39.276   6.750
 9201POPC   C3B74505  43.339  39.222   7.050
 9201POPC   C4B74506  43.327  39.271   7.350
 9202POPC   NC374507  29.152  22.889   5.550
 9202POPC   PO474508  29.138  22.926   5.850
 9202POPC   GL174509  29.146  22.902   6.150
 9202POPC   GL274510  29.006  23.050   6.150
 9202POPC   C1A74511  29.171  22.891   6.450
 9202POPC   D2A74512  29.170  22.950   6.750
 9202POPC   C3A74513  29.134  22.898   7.050
 9202POPC   C4A74514  29.130  22.959   7.350
 9202POPC   C1B74515  28.927  23.050   6.450
 9202POPC   C2B74516  28.991  23.070   6.750
 9202POPC   C3B74517  28.990  23.106   7.050
 9202POPC   C4B74518  28.925  23.069   7.350
 9203POPC   NC374519  33.056   2.026   5.550
 9203POPC   PO474520  33.054   2.032   5.850
 9203POPC   GL174521  33.011   2.006   6.150
 9203POPC   GL274522  32.912   1.905   6.150
 9203POPC   C1A74523  33.005   2.026   6.450
 9203POPC   D2A74524  32.999   1.985   6.750
 9203POPC   C3A74525  33.028   1.976   7.050
 9203POPC   C4A74526  33.044   1.969   7.350
 9203POPC   C1B74527  32.873   1.816   6.450
 9203POPC   C2B74528  32.859   1.855   6.750
 9203POPC   C3B74529  32.813   1.816   7.050
 9203POPC   C4B74530  32.816   1.796   7.350
 9204POPC   NC374531  10.567  20.574   5.550
 9204POPC   PO474532  10.487  20.590   5.850
 9204POPC   GL174533  10.515  20.572   6.150
 9204POPC   GL274534  10.590  20.510   6.150
 9204POPC   C1A74535  10.474  20.642   6.450
 9204POPC   D2A74536  10.515  20.649   6.750
 9204POPC   C3A74537  10.482  20.650   7.050
 9204POPC   C4A74538  10.556  20.562   7.350
 9204POPC   C1B74539  10.751  20.473   6.450
 9204POPC   C2B74540  10.688  20.444   6.750
 9204POPC   C3B74541  10.704  20.414   7.050
 9204POPC   C4B74542  10.712  20.427   7.350
 9205POPC   NC374543  29.161   1.210   5.550
 9205POPC   PO474544  29.108   1.217   5.850
 9205POPC   GL174545  29.163   1.189   6.150
 9205POPC   GL274546  29.107   1.134   6.150
 9205POPC   C1A74547  29.136   1.207   6.450
 9205POPC   D2A74548  29.132   1.164   6.750
 9205POPC   C3A74549  29.163   1.208   7.050
 9205POPC   C4A74550  29.143   1.219   7.350
 9205POPC   C1B74551  29.079   1.020   6.450
 9205POPC   C2B74552  28.982   1.005   6.750
 9205POPC   C3B74553  29.059   0.947   7.050
 9205POPC   C4B74554  29.057   0.987   7.350
 9206POPC   NC374555  33.778  37.656   5.550
 9206POPC   PO474556  33.834  37.639   5.850
 9206POPC   GL174557  33.777  37.635   6.150
 9206POPC   GL274558  33.877  37.667   6.150
 9206POPC   C1A74559  33.819  37.689   6.450
 9206POPC   D2A74560  33.782  37.686   6.750
 9206POPC   C3A74561  33.846  37.721   7.050
 9206POPC   C4A74562  33.776  37.660   7.350
 9206POPC   C1B74563  34.010  37.623   6.450
 9206POPC   C2B74564  34.055  37.714   6.750
 9206POPC   C3B74565  34.021  37.631   7.050
 9206POPC   C4B74566  34.070  37.705   7.350
 9207POPC   NC374567  41.548  11.331   5.550
 9207POPC   PO474568  41.516  11.288   5.850
 9207POPC   GL174569  41.544  11.250   6.150
 9207POPC   GL274570  41.553  11.394   6.150
 9207POPC   C1A74571  41.565  11.293   6.450
 9207POPC   D2A74572  41.542  11.270   6.750
 9207POPC   C3A74573  41.607  11.318   7.050
 9207POPC   C4A74574  41.523  11.340   7.350
 9207POPC   C1B74575  41.640  11.518   6.450
 9207POPC   C2B74576  41.682  11.502   6.750
 9207POPC   C3B74577  41.596  11.566   7.050
 9207POPC   C4B74578  41.650  11.552   7.350
 9208POPC   NC374579  14.407   5.123   5.550
 9208POPC   PO474580  14.388   5.120   5.850
 9208POPC   GL174581  14.367   5.058   6.150
 9208POPC   GL274582  14.236   5.144   6.150
 9208POPC   C1A74583  14.430   5.135   6.450
 9208POPC   D2A74584  14.415   5.095   6.750
 9208POPC   C3A74585  14.422   5.108   7.050
 9208POPC   C4A74586  14.420   5.119   7.350
 9208POPC   C1B74587  14.191   5.087   6.450
 9208POPC   C2B74588  14.162   5.112   6.750
 9208POPC   C3B74589  14.201   5.126   7.050
 9208POPC   C4B74590  14.182   5.054   7.350
 9209POPC   NC374591  36.087  40.829   5.550
 9209POPC   PO474592  36.142  40.813   5.850
 9209POPC   GL174593  36.159  40.777   6.150
 9209POPC   GL274594  36.052  40.631   6.150
 9209POPC   C1A74595  36.143  40.758   6.450
 9209POPC   D2A74596  36.156  40.743   6.750
 9209POPC   C3A74597  36.125  40.781   7.050
 9209POPC   C4A74598  36.151  40.827   7.350
 9209POPC   C1B74599  36.057  40.497   6.450
 9209POPC   C2B74600  36.050  40.553   6.750
 9209POPC   C3B74601  36.027  40.555   7.050
 9209POPC   C4B74602  36.077  40.507   7.350
 9210POPC   NC374603  17.472  31.517   5.550
 9210POPC   PO474604  17.473  31.476   5.850
 9210POPC   GL174605  17.486  31.450   6.150
 9210POPC   GL274606  17.457  31.567   6.150
 9210POPC   C1A74607  17.461  31.505   6.450
 9210POPC   D2A74608  17.499  31.516   6.750
 9210POPC   C3A74609  17.554  31.504   7.050
 9210POPC   C4A74610  17.516  31.484   7.350
 9210POPC   C1B74611  17.280  31.662   6.450
 9210POPC   C2B74612  17.284  31.596   6.750
 9210POPC   C3B74613  17.280  31.648   7.050
 9210POPC   C4B74614  17.352  31.610   7.350
 9211POPC   NC374615  42.285  24.444   5.550
 9211POPC   PO474616  42.319  24.506   5.850
 9211POPC   GL174617  42.311  24.501   6.150
 9211POPC   GL274618  42.203  24.365   6.150
 9211POPC   C1A74619  42.323  24.445   6.450
 9211POPC   D2A74620  42.309  24.445   6.750
 9211POPC   C3A74621  42.323  24.489   7.050
 9211POPC   C4A74622  42.343  24.445   7.350
 9211POPC   C1B74623  42.196  24.299   6.450
 9211POPC   C2B74624  42.151  24.292   6.750
 9211POPC   C3B74625  42.125  24.260   7.050
 9211POPC   C4B74626  42.196  24.297   7.350
 9212POPC   NC374627  25.264   2.780   5.550
 9212POPC   PO474628  25.220   2.772   5.850
 9212POPC   GL174629  25.278   2.803   6.150
 9212POPC   GL274630  25.357   2.835   6.150
 9212POPC   C1A74631  25.247   2.803   6.450
 9212POPC   D2A74632  25.234   2.790   6.750
 9212POPC   C3A74633  25.231   2.763   7.050
 9212POPC   C4A74634  25.259   2.802   7.350
 9212POPC   C1B74635  25.357   2.937   6.450
 9212POPC   C2B74636  25.408   3.013   6.750
 9212POPC   C3B74637  25.377   2.963   7.050
 9212POPC   C4B74638  25.358   2.955   7.350
 9213POPC   NC374639  24.450  15.930   5.550
 9213POPC   PO474640  24.512  15.912   5.850
 9213POPC   GL174641  24.497  15.945   6.150
 9213POPC   GL274642  24.596  15.960   6.150
 9213POPC   C1A74643  24.538  15.944   6.450
 9213POPC   D2A74644  24.507  15.952   6.750
 9213POPC   C3A74645  24.441  15.917   7.050
 9213POPC   C4A74646  24.481  15.923   7.350
 9213POPC   C1B74647  24.732  16.052   6.450
 9213POPC   C2B74648  24.674  16.092   6.750
 9213POPC   C3B74649  24.679  16.059   7.050
 9213POPC   C4B74650  24.680  16.005   7.350
 9214POPC   NC374651  36.942   5.074   5.550
 9214POPC   PO474652  36.904   5.056   5.850
 9214POPC   GL174653  36.927   5.070   6.150
 9214POPC   GL274654  36.739   5.182   6.150
 9214POPC   C1A74655  36.883   5.070   6.450
 9214POPC   D2A74656  36.898   5.059   6.750
 9214POPC   C3A74657  36.873   5.055   7.050
 9214POPC   C4A74658  36.953   5.085   7.350
 9214POPC   C1B74659  36.712   5.187   6.450
 9214POPC   C2B74660  36.691   5.185   6.750
 9214POPC   C3B74661  36.650   5.166   7.050
 9214POPC   C4B74662  36.702   5.208   7.350
 9215POPC   NC374663  26.861  41.547   5.550
 9215POPC   PO474664  26.780  41.576   5.850
 9215POPC   GL174665  26.785  41.518   6.150
 9215POPC   GL274666  26.798  41.655   6.150
 9215POPC   C1A74667  26.825  41.606   6.450
 9215POPC   D2A74668  26.806  41.561   6.750
 9215POPC   C3A74669  26.806  41.540   7.050
 9215POPC   C4A74670  26.854  41.535   7.350
 9215POPC   C1B74671  26.777  41.840   6.450
 9215POPC   C2B74672  26.820  41.837   6.750
 9215POPC   C3B74673  26.746  41.786   7.050
 9215POPC   C4B74674  26.765  41.837   7.350
 9216POPC   NC374675  15.172  21.394   5.550
 9216POPC   PO474676  15.187  21.390   5.850
 9216POPC   GL174677  15.185  21.423   6.150
 9216POPC   GL274678  15.048  21.480   6.150
 9216POPC   C1A74679  15.150  21.380   6.450
 9216POPC   D2A74680  15.222  21.376   6.750
 9216POPC   C3A74681  15.201  21.434   7.050
 9216POPC   C4A74682  15.183  21.427   7.350
 9216POPC   C1B74683  15.007  21.587   6.450
 9216POPC   C2B74684  14.946  21.511   6.750
 9216POPC   C3B74685  14.996  21.524   7.050
 9216POPC   C4B74686  15.012  21.580   7.350
 9217POPC   NC374687  24.443  29.885   5.550
 9217POPC   PO474688  24.501  29.911   5.850
 9217POPC   GL174689  24.519  29.917   6.150
 9217POPC   GL274690  24.603  29.778   6.150
 9217POPC   C1A74691  24.456  29.880   6.450
 9217POPC   D2A74692  24.477  29.928   6.750
 9217POPC   C3A74693  24.539  29.930   7.050
 9217POPC   C4A74694  24.448  29.959   7.350
 9217POPC   C1B74695  24.669  29.712   6.450
 9217POPC   C2B74696  24.634  29.699   6.750
 9217POPC   C3B74697  24.634  29.720   7.050
 9217POPC   C4B74698  24.650  29.684   7.350
 9218POPC   NC374699   1.175   8.950   5.550
 9218POPC   PO474700   1.218   8.990   5.850
 9218POPC   GL174701   1.255   8.968   6.150
 9218POPC   GL274702   1.313   9.058   6.150
 9218POPC   C1A74703   1.234   8.988   6.450
 9218POPC   D2A74704   1.191   9.022   6.750
 9218POPC   C3A74705   1.224   8.990   7.050
 9218POPC   C4A74706   1.202   8.945   7.350
 9218POPC   C1B74707   1.385   9.158   6.450
 9218POPC   C2B74708   1.364   9.139   6.750
 9218POPC   C3B74709   1.341   9.225   7.050
 9218POPC   C4B74710   1.348   9.230   7.350
 9219POPC   NC374711  44.616  12.814   5.550
 9219POPC   PO474712  44.657  12.864   5.850
 9219POPC   GL174713  44.615  12.896   6.150
 9219POPC   GL274714  44.631  12.944   6.150
 9219POPC   C1A74715  44.664  12.825   6.450
 9219POPC   D2A74716  44.677  12.863   6.750
 9219POPC   C3A74717  44.699  12.822   7.050
 9219POPC   C4A74718  44.640  12.855   7.350
 9219POPC   C1B74719  44.682  13.083   6.450
 9219POPC   C2B74720  44.611  13.143   6.750
 9219POPC   C3B74721  44.690  13.075   7.050
 9219POPC   C4B74722  44.648  13.099   7.350
 9220POPC   NC374723  15.213   1.976   5.550
 9220POPC   PO474724  15.152   1.940   5.850
 9220POPC   GL174725  15.208   2.024   6.150
 9220POPC   GL274726  15.229   1.912   6.150
 9220POPC   C1A74727  15.143   2.026   6.450
 9220POPC   D2A74728  15.192   1.993   6.750
 9220POPC   C3A74729  15.193   1.968   7.050
 9220POPC   C4A74730  15.172   1.985   7.350
 9220POPC   C1B74731  15.261   1.755   6.450
 9220POPC   C2B74732  15.337   1.783   6.750
 9220POPC   C3B74733  15.323   1.789   7.050
 9220POPC   C4B74734  15.285   1.813   7.350
 9221POPC   NC374735  15.959  27.562   5.550
 9221POPC   PO474736  15.915  27.620   5.850
 9221POPC   GL174737  15.978  27.550   6.150
 9221POPC   GL274738  15.940  27.741   6.150
 9221POPC   C1A74739  15.934  27.588   6.450
 9221POPC   D2A74740  15.919  27.606   6.750
 9221POPC   C3A74741  15.929  27.624   7.050
 9221POPC   C4A74742  15.956  27.591   7.350
 9221POPC   C1B74743  15.852  27.805   6.450
 9221POPC   C2B74744  15.854  27.881   6.750
 9221POPC   C3B74745  15.896  27.864   7.050
 9221POPC   C4B74746  15.852  27.820   7.350
 9222POPC   NC374747  25.264  19.046   5.550
 9222POPC   PO474748  25.243  19.100   5.850
 9222POPC   GL174749  25.299  19.093   6.150
 9222POPC   GL274750  25.355  19.125   6.150
 9222POPC   C1A74751  25.277  19.093   6.450
 9222POPC   D2A74752  25.305  19.086   6.750
 9222POPC   C3A74753  25.314  19.040   7.050
 9222POPC   C4A74754  25.248  19.083   7.350
 9222POPC   C1B74755  25.434  19.183   6.450
 9222POPC   C2B74756  25.419  19.204   6.750
 9222POPC   C3B74757  25.433  19.237   7.050
 9222POPC   C4B74758  25.456  19.228   7.350
 9223POPC   NC374759  39.276  26.773   5.550
 9223POPC   PO474760  39.264  26.817   5.850
 9223POPC   GL174761  39.210  26.828   6.150
 9223POPC   GL274762  39.234  26.738   6.150
 9223POPC   C1A74763  39.235  26.817   6.450
 9223POPC   D2A74764  39.205  26.802   6.750
 9223POPC   C3A74765  39.276  26.772   7.050
 9223POPC   C4A74766  39.226  26.844   7.350
 9223POPC   C1B74767  39.302  26.601   6.450
 9223POPC   C2B74768  39.277  26.548   6.750
 9223POPC   C3B74769  39.294  26.560   7.050
 9223POPC   C4B74770  39.223  26.579   7.350
 9224POPC   NC374771  22.889   2.772   5.550
 9224POPC   PO474772  22.947   2.773   5.850
 9224POPC   GL174773  22.935   2.722   6.150
 9224POPC   GL274774  22.886   2.899   6.150
 9224POPC   C1A74775  22.940   2.752   6.450
 9224POPC   D2A74776  22.975   2.770   6.750
 9224POPC   C3A74777  22.935   2.783   7.050
 9224POPC   C4A74778  22.962   2.783   7.350
 9224POPC   C1B74779  22.887   3.043   6.450
 9224POPC   C2B74780  22.857   3.041   6.750
 9224POPC   C3B74781  22.926   3.031   7.050
 9224POPC   C4B74782  22.955   2.964   7.350
 9225POPC   NC374783  40.748  42.359   5.550
 9225POPC   PO474784  40.778  42.291   5.850
 9225POPC   GL174785  40.795  42.354   6.150
 9225POPC   GL274786  40.869  42.251   6.150
 9225POPC   C1A74787  40.822  42.363   6.450
 9225POPC   D2A74788  40.822  42.341   6.750
 9225POPC   C3A74789  40.825  42.316   7.050
 9225POPC   C4A74790  40.814  42.299   7.350
 9225POPC   C1B74791  40.915  42.074   6.450
 9225POPC   C2B74792  40.901  42.083   6.750
 9225POPC   C3B74793  40.870  42.129   7.050
 9225POPC   C4B74794  40.924  42.124   7.350
 9226POPC   NC374795  34.543  25.263   5.550
 9226POPC   PO474796  34.591  25.231   5.850
 9226POPC   GL174797  34.574  25.242   6.150
 9226POPC   GL274798  34.568  25.157   6.150
 9226POPC   C1A74799  34.586  25.310   6.450
 9226POPC   D2A74800  34.599  25.240   6.750
 9226POPC   C3A74801  34.550  25.264   7.050
 9226POPC   C4A74802  34.535  25.251   7.350
 9226POPC   C1B74803  34.571  25.035   6.450
 9226POPC   C2B74804  34.598  25.056   6.750
 9226POPC   C3B74805  34.582  24.997   7.050
 9226POPC   C4B74806  34.596  25.004   7.350
 9227POPC   NC374807  21.352   2.741   5.550
 9227POPC   PO474808  21.353   2.717   5.850
 9227POPC   GL174809  21.368   2.758   6.150
 9227POPC   GL274810  21.331   2.606   6.150
 9227POPC   C1A74811  21.402   2.756   6.450
 9227POPC   D2A74812  21.391   2.743   6.750
 9227POPC   C3A74813  21.347   2.744   7.050
 9227POPC   C4A74814  21.410   2.791   7.350
 9227POPC   C1B74815  21.336   2.473   6.450
 9227POPC   C2B74816  21.379   2.519   6.750
 9227POPC   C3B74817  21.369   2.470   7.050
 9227POPC   C4B74818  21.388   2.536   7.350
 9228POPC   NC374819  19.013  43.843   5.550
 9228POPC   PO474820  19.054  43.858   5.850
 9228POPC   GL174821  19.107  43.864   6.150
 9228POPC   GL274822  18.977  44.045   6.150
 9228POPC   C1A74823  19.038  43.914   6.450
 9228POPC   D2A74824  19.088  43.917   6.750
 9228POPC   C3A74825  19.096  43.843   7.050
 9228POPC   C4A74826  19.070  43.902   7.350
 9228POPC   C1B74827  19.011  44.173   6.450
 9228POPC   C2B74828  18.966  44.160   6.750
 9228POPC   C3B74829  18.951  44.162   7.050
 9228POPC   C4B74830  19.019  44.152   7.350
 9229POPC   NC374831  15.226  29.950   5.550
 9229POPC   PO474832  15.211  29.935   5.850
 9229POPC   GL174833  15.133  29.957   6.150
 9229POPC   GL274834  15.305  29.819   6.150
 9229POPC   C1A74835  15.222  29.954   6.450
 9229POPC   D2A74836  15.191  29.932   6.750
 9229POPC   C3A74837  15.173  29.937   7.050
 9229POPC   C4A74838  15.224  29.898   7.350
 9229POPC   C1B74839  15.316  29.744   6.450
 9229POPC   C2B74840  15.346  29.737   6.750
 9229POPC   C3B74841  15.306  29.696   7.050
 9229POPC   C4B74842  15.333  29.726   7.350
 9230POPC   NC374843  30.701  15.917   5.550
 9230POPC   PO474844  30.647  15.943   5.850
 9230POPC   GL174845  30.707  15.908   6.150
 9230POPC   GL274846  30.807  15.836   6.150
 9230POPC   C1A74847  30.669  15.971   6.450
 9230POPC   D2A74848  30.741  15.986   6.750
 9230POPC   C3A74849  30.737  15.944   7.050
 9230POPC   C4A74850  30.665  15.973   7.350
 9230POPC   C1B74851  30.847  15.801   6.450
 9230POPC   C2B74852  30.930  15.794   6.750
 9230POPC   C3B74853  30.842  15.817   7.050
 9230POPC   C4B74854  30.873  15.776   7.350
 9231POPC   NC374855  14.439  34.594   5.550
 9231POPC   PO474856  14.423  34.592   5.850
 9231POPC   GL174857  14.357  34.528   6.150
 9231POPC   GL274858  14.442  34.671   6.150
 9231POPC   C1A74859  14.426  34.539   6.450
 9231POPC   D2A74860  14.442  34.605   6.750
 9231POPC   C3A74861  14.394  34.528   7.050
 9231POPC   C4A74862  14.385  34.613   7.350
 9231POPC   C1B74863  14.549  34.804   6.450
 9231POPC   C2B74864  14.575  34.766   6.750
 9231POPC   C3B74865  14.535  34.747   7.050
 9231POPC   C4B74866  14.550  34.758   7.350
 9232POPC   NC374867  36.858  14.391   5.550
 9232POPC   PO474868  36.870  14.397   5.850
 9232POPC   GL174869  36.891  14.427   6.150
 9232POPC   GL274870  36.965  14.309   6.150
 9232POPC   C1A74871  36.908  14.365   6.450
 9232POPC   D2A74872  36.935  14.368   6.750
 9232POPC   C3A74873  36.906  14.437   7.050
 9232POPC   C4A74874  36.861  14.414   7.350
 9232POPC   C1B74875  36.906  14.148   6.450
 9232POPC   C2B74876  36.967  14.180   6.750
 9232POPC   C3B74877  36.968  14.135   7.050
 9232POPC   C4B74878  36.925  14.132   7.350
 9233POPC   NC374879  13.610  10.565   5.550
 9233POPC   PO474880  13.627  10.538   5.850
 9233POPC   GL174881  13.579  10.551   6.150
 9233POPC   GL274882  13.638  10.398   6.150
 9233POPC   C1A74883  13.608  10.483   6.450
 9233POPC   D2A74884  13.637  10.571   6.750
 9233POPC   C3A74885  13.634  10.552   7.050
 9233POPC   C4A74886  13.587  10.517   7.350
 9233POPC   C1B74887  13.604  10.314   6.450
 9233POPC   C2B74888  13.619  10.323   6.750
 9233POPC   C3B74889  13.632  10.234   7.050
 9233POPC   C4B74890  13.671  10.320   7.350
 9234POPC   NC374891  42.357  29.916   5.550
 9234POPC   PO474892  42.324  29.884   5.850
 9234POPC   GL174893  42.300  29.952   6.150
 9234POPC   GL274894  42.417  29.946   6.150
 9234POPC   C1A74895  42.359  29.926   6.450
 9234POPC   D2A74896  42.296  29.908   6.750
 9234POPC   C3A74897  42.313  29.910   7.050
 9234POPC   C4A74898  42.294  29.938   7.350
 9234POPC   C1B74899  42.532  30.074   6.450
 9234POPC   C2B74900  42.544  30.025   6.750
 9234POPC   C3B74901  42.557  29.995   7.050
 9234POPC   C4B74902  42.524  30.039   7.350
 9235POPC   NC374903  41.545   3.557   5.550
 9235POPC   PO474904  41.511   3.501   5.850
 9235POPC   GL174905  41.599   3.524   6.150
 9235POPC   GL274906  41.464   3.647   6.150
 9235POPC   C1A74907  41.580   3.504   6.450
 9235POPC   D2A74908  41.546   3.565   6.750
 9235POPC   C3A74909  41.558   3.554   7.050
 9235POPC   C4A74910  41.527   3.586   7.350
 9235POPC   C1B74911  41.355   3.729   6.450
 9235POPC   C2B74912  41.380   3.635   6.750
 9235POPC   C3B74913  41.337   3.641   7.050
 9235POPC   C4B74914  41.341   3.649   7.350
 9236POPC   NC374915   5.091  40.046   5.550
 9236POPC   PO474916   5.136  39.962   5.850
 9236POPC   GL174917   5.126  40.048   6.150
 9236POPC   GL274918   5.207  40.045   6.150
 9236POPC   C1A74919   5.057  40.039   6.450
 9236POPC   D2A74920   5.112  40.025   6.750
 9236POPC   C3A74921   5.076  40.015   7.050
 9236POPC   C4A74922   5.062  40.033   7.350
 9236POPC   C1B74923   5.276  40.169   6.450
 9236POPC   C2B74924   5.262  40.124   6.750
 9236POPC   C3B74925   5.299  40.124   7.050
 9236POPC   C4B74926   5.276  40.118   7.350
 9237POPC   NC374927  12.061  44.703   5.550
 9237POPC   PO474928  12.057  44.619   5.850
 9237POPC   GL174929  12.085  44.708   6.150
 9237POPC   GL274930  12.045  44.526   6.150
 9237POPC   C1A74931  12.059  44.624   6.450
 9237POPC   D2A74932  12.088  44.634   6.750
 9237POPC   C3A74933  12.123  44.642   7.050
 9237POPC   C4A74934  12.055  44.679   7.350
 9237POPC   C1B74935  11.915  44.419   6.450
 9237POPC   C2B74936  11.966  44.458   6.750
 9237POPC   C3B74937  11.913  44.419   7.050
 9237POPC   C4B74938  11.977  44.432   7.350
 9238POPC   NC374939   8.164  12.807   5.550
 9238POPC   PO474940   8.211  12.899   5.850
 9238POPC   GL174941   8.213  12.865   6.150
 9238POPC   GL274942   8.213  12.743   6.150
 9238POPC   C1A74943   8.200  12.828   6.450
 9238POPC   D2A74944   8.203  12.885   6.750
 9238POPC   C3A74945   8.201  12.860   7.050
 9238POPC   C4A74946   8.171  12.856   7.350
 9238POPC   C1B74947   8.214  12.577   6.450
 9238POPC   C2B74948   8.271  12.604   6.750
 9238POPC   C3B74949   8.243  12.592   7.050
 9238POPC   C4B74950   8.241  12.601   7.350
 9239POPC   NC374951  24.508  33.840   5.550
 9239POPC   PO474952  24.471  33.828   5.850
 9239POPC   GL174953  24.532  33.754   6.150
 9239POPC   GL274954  24.501  33.639   6.150
 9239POPC   C1A74955  24.481  33.825   6.450
 9239POPC   D2A74956  24.515  33.770   6.750
 9239POPC   C3A74957  24.517  33.810   7.050
 9239POPC   C4A74958  24.442  33.789   7.350
 9239POPC   C1B74959  24.496  33.511   6.450
 9239POPC   C2B74960  24.546  33.524   6.750
 9239POPC   C3B74961  24.481  33.551   7.050
 9239POPC   C4B74962  24.580  33.547   7.350
 9240POPC   NC374963  40.017  21.365   5.550
 9240POPC   PO474964  40.051  21.407   5.850
 9240POPC   GL174965  40.034  21.372   6.150
 9240POPC   GL274966  39.877  21.339   6.150
 9240POPC   C1A74967  39.961  21.403   6.450
 9240POPC   D2A74968  39.971  21.362   6.750
 9240POPC   C3A74969  39.998  21.354   7.050
 9240POPC   C4A74970  40.044  21.425   7.350
 9240POPC   C1B74971  39.851  21.243   6.450
 9240POPC   C2B74972  39.809  21.262   6.750
 9240POPC   C3B74973  39.786  21.169   7.050
 9240POPC   C4B74974  39.857  21.207   7.350
 9241POPC   NC374975  34.613  10.482   5.550
 9241POPC   PO474976  34.615  10.518   5.850
 9241POPC   GL174977  34.570  10.540   6.150
 9241POPC   GL274978  34.522  10.429   6.150
 9241POPC   C1A74979  34.568  10.537   6.450
 9241POPC   D2A74980  34.612  10.560   6.750
 9241POPC   C3A74981  34.612  10.534   7.050
 9241POPC   C4A74982  34.558  10.569   7.350
 9241POPC   C1B74983  34.343  10.406   6.450
 9241POPC   C2B74984  34.434  10.346   6.750
 9241POPC   C3B74985  34.383  10.407   7.050
 9241POPC   C4B74986  34.370  10.390   7.350
 9242POPC   NC374987  29.919  22.911   5.550
 9242POPC   PO474988  29.894  22.918   5.850
 9242POPC   GL174989  29.943  22.916   6.150
 9242POPC   GL274990  30.052  22.935   6.150
 9242POPC   C1A74991  29.884  22.935   6.450
 9242POPC   D2A74992  29.945  22.907   6.750
 9242POPC   C3A74993  29.899  22.918   7.050
 9242POPC   C4A74994  29.892  22.915   7.350
 9242POPC   C1B74995  30.121  22.998   6.450
 9242POPC   C2B74996  30.177  23.036   6.750
 9242POPC   C3B74997  30.201  23.023   7.050
 9242POPC   C4B74998  30.204  23.026   7.350
 9243POPC   NC374999  44.687   4.352   5.550
 9243POPC   PO475000  44.709   4.312   5.850
 9243POPC   GL175001  44.648   4.365   6.150
 9243POPC   GL275002  44.547   4.377   6.150
 9243POPC   C1A75003  44.705   4.337   6.450
 9243POPC   D2A75004  44.631   4.293   6.750
 9243POPC   C3A75005  44.658   4.282   7.050
 9243POPC   C4A75006  44.668   4.357   7.350
 9243POPC   C1B75007  44.533   4.557   6.450
 9243POPC   C2B75008  44.457   4.493   6.750
 9243POPC   C3B75009  44.491   4.523   7.050
 9243POPC   C4B75010  44.524   4.556   7.350
 9244POPC   NC375011  24.501   2.797   5.550
 9244POPC   PO475012  24.486   2.791   5.850
 9244POPC   GL175013  24.509   2.734   6.150
 9244POPC   GL275014  24.421   2.787   6.150
 9244POPC   C1A75015  24.442   2.804   6.450
 9244POPC   D2A75016  24.537   2.727   6.750
 9244POPC   C3A75017  24.456   2.768   7.050
 9244POPC   C4A75018  24.530   2.796   7.350
 9244POPC   C1B75019  24.253   2.858   6.450
 9244POPC   C2B75020  24.255   2.832   6.750
 9244POPC   C3B75021  24.278   2.924   7.050
 9244POPC   C4B75022  24.247   2.835   7.350
 9245POPC   NC375023  40.768  30.671   5.550
 9245POPC   PO475024  40.811  30.671   5.850
 9245POPC   GL175025  40.783  30.741   6.150
 9245POPC   GL275026  40.734  30.818   6.150
 9245POPC   C1A75027  40.775  30.656   6.450
 9245POPC   D2A75028  40.758  30.705   6.750
 9245POPC   C3A75029  40.755  30.717   7.050
 9245POPC   C4A75030  40.733  30.680   7.350
 9245POPC   C1B75031  40.601  30.846   6.450
 9245POPC   C2B75032  40.633  30.860   6.750
 9245POPC   C3B75033  40.658  30.917   7.050
 9245POPC   C4B75034  40.642  30.910   7.350
 9246POPC   NC375035  16.726  18.243   5.550
 9246POPC   PO475036  16.735  18.234   5.850
 9246POPC   GL175037  16.746  18.238   6.150
 9246POPC   GL275038  16.708  18.197   6.150
 9246POPC   C1A75039  16.738  18.250   6.450
 9246POPC   D2A75040  16.757  18.286   6.750
 9246POPC   C3A75041  16.745  18.309   7.050
 9246POPC   C4A75042  16.756  18.261   7.350
 9246POPC   C1B75043  16.603  18.030   6.450
 9246POPC   C2B75044  16.593  18.101   6.750
 9246POPC   C3B75045  16.577  18.084   7.050
 9246POPC   C4B75046  16.632  18.042   7.350
 9247POPC   NC375047  20.651  31.464   5.550
 9247POPC   PO475048  20.576  31.459   5.850
 9247POPC   GL175049  20.587  31.492   6.150
 9247POPC   GL275050  20.465  31.514   6.150
 9247POPC   C1A75051  20.614  31.438   6.450
 9247POPC   D2A75052  20.564  31.514   6.750
 9247POPC   C3A75053  20.585  31.511   7.050
 9247POPC   C4A75054  20.641  31.435   7.350
 9247POPC   C1B75055  20.382  31.450   6.450
 9247POPC   C2B75056  20.346  31.440   6.750
 9247POPC   C3B75057  20.327  31.458   7.050
 9247POPC   C4B75058  20.332  31.480   7.350
 9248POPC   NC375059  31.480  29.889   5.550
 9248POPC   PO475060  31.464  29.893   5.850
 9248POPC   GL175061  31.509  29.967   6.150
 9248POPC   GL275062  31.313  29.880   6.150
 9248POPC   C1A75063  31.441  29.969   6.450
 9248POPC   D2A75064  31.485  29.915   6.750
 9248POPC   C3A75065  31.476  29.948   7.050
 9248POPC   C4A75066  31.521  29.949   7.350
 9248POPC   C1B75067  31.269  29.795   6.450
 9248POPC   C2B75068  31.207  29.844   6.750
 9248POPC   C3B75069  31.255  29.803   7.050
 9248POPC   C4B75070  31.197  29.841   7.350
 9249POPC   NC375071  22.912  32.276   5.550
 9249POPC   PO475072  22.951  32.243   5.850
 9249POPC   GL175073  22.918  32.209   6.150
 9249POPC   GL275074  22.888  32.356   6.150
 9249POPC   C1A75075  22.956  32.276   6.450
 9249POPC   D2A75076  22.953  32.250   6.750
 9249POPC   C3A75077  22.931  32.261   7.050
 9249POPC   C4A75078  22.940  32.254   7.350
 9249POPC   C1B75079  22.784  32.395   6.450
 9249POPC   C2B75080  22.737  32.425   6.750
 9249POPC   C3B75081  22.760  32.486   7.050
 9249POPC   C4B75082  22.805  32.444   7.350
 9250POPC   NC375083   7.411  33.833   5.550
 9250POPC   PO475084   7.376  33.788   5.850
 9250POPC   GL175085   7.378  33.797   6.150
 9250POPC   GL275086   7.496  33.715   6.150
 9250POPC   C1A75087   7.467  33.783   6.450
 9250POPC   D2A75088   7.444  33.785   6.750
 9250POPC   C3A75089   7.421  33.766   7.050
 9250POPC   C4A75090   7.386  33.805   7.350
 9250POPC   C1B75091   7.599  33.636   6.450
 9250POPC   C2B75092   7.591  33.630   6.750
 9250POPC   C3B75093   7.553  33.543   7.050
 9250POPC   C4B75094   7.556  33.635   7.350
 9251POPC   NC375095  10.500  27.596   5.550
 9251POPC   PO475096  10.528  27.559   5.850
 9251POPC   GL175097  10.507  27.583   6.150
 9251POPC   GL275098  10.604  27.601   6.150
 9251POPC   C1A75099  10.535  27.619   6.450
 9251POPC   D2A75100  10.532  27.596   6.750
 9251POPC   C3A75101  10.511  27.602   7.050
 9251POPC   C4A75102  10.535  27.570   7.350
 9251POPC   C1B75103  10.708  27.652   6.450
 9251POPC   C2B75104  10.793  27.651   6.750
 9251POPC   C3B75105  10.791  27.719   7.050
 9251POPC   C4B75106  10.780  27.708   7.350
 9252POPC   NC375107   6.619  22.126   5.550
 9252POPC   PO475108   6.612  22.170   5.850
 9252POPC   GL175109   6.600  22.209   6.150
 9252POPC   GL275110   6.508  22.128   6.150
 9252POPC   C1A75111   6.685  22.194   6.450
 9252POPC   D2A75112   6.653  22.122   6.750
 9252POPC   C3A75113   6.634  22.137   7.050
 9252POPC   C4A75114   6.624  22.183   7.350
 9252POPC   C1B75115   6.351  22.146   6.450
 9252POPC   C2B75116   6.446  22.118   6.750
 9252POPC   C3B75117   6.434  22.168   7.050
 9252POPC   C4B75118   6.441  22.146   7.350
 9253POPC   NC375119  11.325  41.519   5.550
 9253POPC   PO475120  11.253  41.566   5.850
 9253POPC   GL175121  11.274  41.600   6.150
 9253POPC   GL275122  11.328  41.400   6.150
 9253POPC   C1A75123  11.310  41.515   6.450
 9253POPC   D2A75124  11.325  41.511   6.750
 9253POPC   C3A75125  11.257  41.581   7.050
 9253POPC   C4A75126  11.315  41.534   7.350
 9253POPC   C1B75127  11.258  41.352   6.450
 9253POPC   C2B75128  11.256  41.358   6.750
 9253POPC   C3B75129  11.329  41.295   7.050
 9253POPC   C4B75130  11.294  41.350   7.350
 9254POPC   NC375131  42.363   2.742   5.550
 9254POPC   PO475132  42.368   2.777   5.850
 9254POPC   GL175133  42.296   2.732   6.150
 9254POPC   GL275134  42.330   2.698   6.150
 9254POPC   C1A75135  42.345   2.783   6.450
 9254POPC   D2A75136  42.308   2.779   6.750
 9254POPC   C3A75137  42.353   2.810   7.050
 9254POPC   C4A75138  42.338   2.722   7.350
 9254POPC   C1B75139  42.401   2.508   6.450
 9254POPC   C2B75140  42.465   2.578   6.750
 9254POPC   C3B75141  42.394   2.569   7.050
 9254POPC   C4B75142  42.382   2.515   7.350
 9255POPC   NC375143  40.754   1.212   5.550
 9255POPC   PO475144  40.739   1.180   5.850
 9255POPC   GL175145  40.776   1.198   6.150
 9255POPC   GL275146  40.854   1.330   6.150
 9255POPC   C1A75147  40.753   1.223   6.450
 9255POPC   D2A75148  40.743   1.189   6.750
 9255POPC   C3A75149  40.763   1.169   7.050
 9255POPC   C4A75150  40.769   1.185   7.350
 9255POPC   C1B75151  40.904   1.441   6.450
 9255POPC   C2B75152  40.954   1.407   6.750
 9255POPC   C3B75153  40.894   1.389   7.050
 9255POPC   C4B75154  40.941   1.400   7.350
 9256POPC   NC375155  33.068  10.521   5.550
 9256POPC   PO475156  32.982  10.513   5.850
 9256POPC   GL175157  33.052  10.538   6.150
 9256POPC   GL275158  33.055  10.654   6.150
 9256POPC   C1A75159  33.003  10.504   6.450
 9256POPC   D2A75160  33.059  10.530   6.750
 9256POPC   C3A75161  33.007  10.503   7.050
 9256POPC   C4A75162  33.048  10.506   7.350
 9256POPC   C1B75163  33.128  10.768   6.450
 9256POPC   C2B75164  33.143  10.755   6.750
 9256POPC   C3B75165  33.209  10.713   7.050
 9256POPC   C4B75166  33.134  10.737   7.350
 9257POPC   NC375167   8.953   5.859   5.550
 9257POPC   PO475168   8.956   5.830   5.850
 9257POPC   GL175169   8.994   5.884   6.150
 9257POPC   GL275170   8.874   5.813   6.150
 9257POPC   C1A75171   8.953   5.839   6.450
 9257POPC   D2A75172   8.926   5.901   6.750
 9257POPC   C3A75173   9.003   5.874   7.050
 9257POPC   C4A75174   8.934   5.841   7.350
 9257POPC   C1B75175   8.798   5.747   6.450
 9257POPC   C2B75176   8.746   5.712   6.750
 9257POPC   C3B75177   8.781   5.692   7.050
 9257POPC   C4B75178   8.822   5.743   7.350
 9258POPC   NC375179  13.657  12.853   5.550
 9258POPC   PO475180  13.628  12.812   5.850
 9258POPC   GL175181  13.673  12.895   6.150
 9258POPC   GL275182  13.678  12.973   6.150
 9258POPC   C1A75183  13.607  12.847   6.450
 9258POPC   D2A75184  13.584  12.867   6.750
 9258POPC   C3A75185  13.580  12.899   7.050
 9258POPC   C4A75186  13.617  12.860   7.350
 9258POPC   C1B75187  13.747  13.118   6.450
 9258POPC   C2B75188  13.758  13.090   6.750
 9258POPC   C3B75189  13.782  13.071   7.050
 9258POPC   C4B75190  13.763  13.067   7.350
 9259POPC   NC375191  23.763  34.592   5.550
 9259POPC   PO475192  23.735  34.577   5.850
 9259POPC   GL175193  23.733  34.549   6.150
 9259POPC   GL275194  23.795  34.520   6.150
 9259POPC   C1A75195  23.665  34.625   6.450
 9259POPC   D2A75196  23.742  34.625   6.750
 9259POPC   C3A75197  23.665  34.568   7.050
 9259POPC   C4A75198  23.720  34.587   7.350
 9259POPC   C1B75199  23.946  34.428   6.450
 9259POPC   C2B75200  23.896  34.478   6.750
 9259POPC   C3B75201  23.954  34.406   7.050
 9259POPC   C4B75202  23.979  34.488   7.350
 9260POPC   NC375203  27.583  31.469   5.550
 9260POPC   PO475204  27.608  31.476   5.850
 9260POPC   GL175205  27.610  31.510   6.150
 9260POPC   GL275206  27.620  31.396   6.150
 9260POPC   C1A75207  27.566  31.461   6.450
 9260POPC   D2A75208  27.622  31.425   6.750
 9260POPC   C3A75209  27.636  31.480   7.050
 9260POPC   C4A75210  27.549  31.423   7.350
 9260POPC   C1B75211  27.684  31.291   6.450
 9260POPC   C2B75212  27.752  31.243   6.750
 9260POPC   C3B75213  27.729  31.251   7.050
 9260POPC   C4B75214  27.706  31.292   7.350
 9261POPC   NC375215   6.666  37.648   5.550
 9261POPC   PO475216   6.614  37.636   5.850
 9261POPC   GL175217   6.676  37.664   6.150
 9261POPC   GL275218   6.692  37.589   6.150
 9261POPC   C1A75219   6.669  37.693   6.450
 9261POPC   D2A75220   6.621  37.640   6.750
 9261POPC   C3A75221   6.673  37.710   7.050
 9261POPC   C4A75222   6.641  37.655   7.350
 9261POPC   C1B75223   6.854  37.554   6.450
 9261POPC   C2B75224   6.879  37.473   6.750
 9261POPC   C3B75225   6.846  37.470   7.050
 9261POPC   C4B75226   6.846  37.510   7.350
 9262POPC   NC375227   9.779  19.831   5.550
 9262POPC   PO475228   9.728  19.862   5.850
 9262POPC   GL175229   9.718  19.793   6.150
 9262POPC   GL275230   9.642  19.773   6.150
 9262POPC   C1A75231   9.790  19.822   6.450
 9262POPC   D2A75232   9.765  19.865   6.750
 9262POPC   C3A75233   9.711  19.791   7.050
 9262POPC   C4A75234   9.701  19.833   7.350
 9262POPC   C1B75235   9.536  19.642   6.450
 9262POPC   C2B75236   9.537  19.720   6.750
 9262POPC   C3B75237   9.581  19.697   7.050
 9262POPC   C4B75238   9.582  19.654   7.350
 9263POPC   NC375239  39.971  40.762   5.550
 9263POPC   PO475240  40.036  40.832   5.850
 9263POPC   GL175241  40.015  40.806   6.150
 9263POPC   GL275242  39.847  40.806   6.150
 9263POPC   C1A75243  39.989  40.807   6.450
 9263POPC   D2A75244  40.006  40.809   6.750
 9263POPC   C3A75245  39.986  40.793   7.050
 9263POPC   C4A75246  39.985  40.797   7.350
 9263POPC   C1B75247  39.789  40.909   6.450
 9263POPC   C2B75248  39.739  40.874   6.750
 9263POPC   C3B75249  39.818  40.832   7.050
 9263POPC   C4B75250  39.786  40.907   7.350
 9264POPC   NC375251   9.007  17.518   5.550
 9264POPC   PO475252   8.925  17.510   5.850
 9264POPC   GL175253   9.011  17.522   6.150
 9264POPC   GL275254   8.871  17.531   6.150
 9264POPC   C1A75255   8.979  17.530   6.450
 9264POPC   D2A75256   9.014  17.480   6.750
 9264POPC   C3A75257   8.986  17.473   7.050
 9264POPC   C4A75258   9.016  17.503   7.350
 9264POPC   C1B75259   8.777  17.628   6.450
 9264POPC   C2B75260   8.789  17.615   6.750
 9264POPC   C3B75261   8.698  17.568   7.050
 9264POPC   C4B75262   8.779  17.646   7.350
 9265POPC   NC375263  31.424  22.181   5.550
 9265POPC   PO475264  31.439  22.116   5.850
 9265POPC   GL175265  31.432  22.139   6.150
 9265POPC   GL275266  31.452  22.046   6.150
 9265POPC   C1A75267  31.473  22.211   6.450
 9265POPC   D2A75268  31.469  22.118   6.750
 9265POPC   C3A75269  31.437  22.178   7.050
 9265POPC   C4A75270  31.488  22.150   7.350
 9265POPC   C1B75271  31.384  21.909   6.450
 9265POPC   C2B75272  31.382  21.966   6.750
 9265POPC   C3B75273  31.343  21.952   7.050
 9265POPC   C4B75274  31.311  21.904   7.350
 9266POPC   NC375275   5.858  12.119   5.550
 9266POPC   PO475276   5.893  12.089   5.850
 9266POPC   GL175277   5.844  12.034   6.150
 9266POPC   GL275278   5.904  11.994   6.150
 9266POPC   C1A75279   5.826  12.124   6.450
 9266POPC   D2A75280   5.843  12.062   6.750
 9266POPC   C3A75281   5.882  12.097   7.050
 9266POPC   C4A75282   5.864  12.036   7.350
 9266POPC   C1B75283   5.946  11.856   6.450
 9266POPC   C2B75284   5.897  11.852   6.750
 9266POPC   C3B75285   5.875  11.814   7.050
 9266POPC   C4B75286   5.858  11.809   7.350
 9267POPC   NC375287  12.087  11.310   5.550
 9267POPC   PO475288  12.123  11.281   5.850
 9267POPC   GL175289  12.029  11.315   6.150
 9267POPC   GL275290  12.153  11.303   6.150
 9267POPC   C1A75291  12.074  11.314   6.450
 9267POPC   D2A75292  12.059  11.285   6.750
 9267POPC   C3A75293  12.063  11.276   7.050
 9267POPC   C4A75294  12.060  11.303   7.350
 9267POPC   C1B75295  12.278  11.369   6.450
 9267POPC   C2B75296  12.309  11.376   6.750
 9267POPC   C3B75297  12.327  11.398   7.050
 9267POPC   C4B75298  12.268  11.400   7.350
 9268POPC   NC375299  15.919  11.303   5.550
 9268POPC   PO475300  15.910  11.265   5.850
 9268POPC   GL175301  15.987  11.283   6.150
 9268POPC   GL275302  16.000  11.389   6.150
 9268POPC   C1A75303  15.987  11.324   6.450
 9268POPC   D2A75304  15.988  11.268   6.750
 9268POPC   C3A75305  15.995  11.314   7.050
 9268POPC   C4A75306  15.940  11.272   7.350
 9268POPC   C1B75307  16.104  11.512   6.450
 9268POPC   C2B75308  16.053  11.488   6.750
 9268POPC   C3B75309  16.055  11.503   7.050
 9268POPC   C4B75310  16.122  11.520   7.350
 9269POPC   NC375311  13.620  39.270   5.550
 9269POPC   PO475312  13.622  39.233   5.850
 9269POPC   GL175313  13.594  39.233   6.150
 9269POPC   GL275314  13.751  39.129   6.150
 9269POPC   C1A75315  13.607  39.219   6.450
 9269POPC   D2A75316  13.582  39.273   6.750
 9269POPC   C3A75317  13.590  39.183   7.050
 9269POPC   C4A75318  13.623  39.233   7.350
 9269POPC   C1B75319  13.845  39.107   6.450
 9269POPC   C2B75320  13.861  39.095   6.750
 9269POPC   C3B75321  13.822  39.050   7.050
 9269POPC   C4B75322  13.816  39.024   7.350
 9270POPC   NC375323  23.746  30.654   5.550
 9270POPC   PO475324  23.719  30.651   5.850
 9270POPC   GL175325  23.749  30.689   6.150
 9270POPC   GL275326  23.674  30.647   6.150
 9270POPC   C1A75327  23.763  30.668   6.450
 9270POPC   D2A75328  23.737  30.652   6.750
 9270POPC   C3A75329  23.751  30.710   7.050
 9270POPC   C4A75330  23.722  30.650   7.350
 9270POPC   C1B75331  23.559  30.555   6.450
 9270POPC   C2B75332  23.528  30.470   6.750
 9270POPC   C3B75333  23.535  30.546   7.050
 9270POPC   C4B75334  23.542  30.500   7.350
 9271POPC   NC375335   2.024  11.288   5.550
 9271POPC   PO475336   2.001  11.343   5.850
 9271POPC   GL175337   2.005  11.346   6.150
 9271POPC   GL275338   1.945  11.150   6.150
 9271POPC   C1A75339   1.948  11.321   6.450
 9271POPC   D2A75340   1.978  11.277   6.750
 9271POPC   C3A75341   1.997  11.297   7.050
 9271POPC   C4A75342   2.036  11.303   7.350
 9271POPC   C1B75343   1.932  11.093   6.450
 9271POPC   C2B75344   1.919  11.091   6.750
 9271POPC   C3B75345   1.990  11.046   7.050
 9271POPC   C4B75346   1.976  11.069   7.350
 9272POPC   NC375347  15.184  30.724   5.550
 9272POPC   PO475348  15.187  30.671   5.850
 9272POPC   GL175349  15.157  30.688   6.150
 9272POPC   GL275350  15.106  30.596   6.150
 9272POPC   C1A75351  15.193  30.722   6.450
 9272POPC   D2A75352  15.140  30.678   6.750
 9272POPC   C3A75353  15.154  30.647   7.050
 9272POPC   C4A75354  15.211  30.706   7.350
 9272POPC   C1B75355  15.052  30.502   6.450
 9272POPC   C2B75356  14.989  30.448   6.750
 9272POPC   C3B75357  15.075  30.525   7.050
 9272POPC   C4B75358  15.045  30.482   7.350
 9273POPC   NC375359  32.273   0.400   5.550
 9273POPC   PO475360  32.296   0.411   5.850
 9273POPC   GL175361  32.292   0.399   6.150
 9273POPC   GL275362  32.383   0.437   6.150
 9273POPC   C1A75363  32.213   0.398   6.450
 9273POPC   D2A75364  32.214   0.410   6.750
 9273POPC   C3A75365  32.247   0.465   7.050
 9273POPC   C4A75366  32.228   0.415   7.350
 9273POPC   C1B75367  32.467   0.382   6.450
 9273POPC   C2B75368  32.451   0.303   6.750
 9273POPC   C3B75369  32.487   0.341   7.050
 9273POPC   C4B75370  32.487   0.347   7.350
 9274POPC   NC375371  22.959   1.164   5.550
 9274POPC   PO475372  22.891   1.261   5.850
 9274POPC   GL175373  22.952   1.223   6.150
 9274POPC   GL275374  23.025   1.209   6.150
 9274POPC   C1A75375  22.905   1.215   6.450
 9274POPC   D2A75376  22.945   1.165   6.750
 9274POPC   C3A75377  22.956   1.199   7.050
 9274POPC   C4A75378  22.968   1.217   7.350
 9274POPC   C1B75379  23.227   1.209   6.450
 9274POPC   C2B75380  23.150   1.189   6.750
 9274POPC   C3B75381  23.228   1.178   7.050
 9274POPC   C4B75382  23.169   1.194   7.350
 9275POPC   NC375383  18.255  24.474   5.550
 9275POPC   PO475384  18.250  24.458   5.850
 9275POPC   GL175385  18.254  24.491   6.150
 9275POPC   GL275386  18.331  24.399   6.150
 9275POPC   C1A75387  18.297  24.462   6.450
 9275POPC   D2A75388  18.311  24.526   6.750
 9275POPC   C3A75389  18.269  24.450   7.050
 9275POPC   C4A75390  18.244  24.507   7.350
 9275POPC   C1B75391  18.485  24.270   6.450
 9275POPC   C2B75392  18.416  24.322   6.750
 9275POPC   C3B75393  18.424  24.271   7.050
 9275POPC   C4B75394  18.489  24.260   7.350
 9276POPC   NC375395   0.488  19.822   5.550
 9276POPC   PO475396   0.440  19.873   5.850
 9276POPC   GL175397   0.452  19.859   6.150
 9276POPC   GL275398   0.490  19.693   6.150
 9276POPC   C1A75399   0.400  19.797   6.450
 9276POPC   D2A75400   0.437  19.840   6.750
 9276POPC   C3A75401   0.410  19.792   7.050
 9276POPC   C4A75402   0.429  19.847   7.350
 9276POPC   C1B75403   0.528  19.588   6.450
 9276POPC   C2B75404   0.572  19.599   6.750
 9276POPC   C3B75405   0.585  19.627   7.050
 9276POPC   C4B75406   0.521  19.595   7.350
 9277POPC   NC375407  30.738  39.269   5.550
 9277POPC   PO475408  30.707  39.259   5.850
 9277POPC   GL175409  30.669  39.225   6.150
 9277POPC   GL275410  30.610  39.349   6.150
 9277POPC   C1A75411  30.724  39.236   6.450
 9277POPC   D2A75412  30.650  39.256   6.750
 9277POPC   C3A75413  30.677  39.244   7.050
 9277POPC   C4A75414  30.682  39.245   7.350
 9277POPC   C1B75415  30.536  39.429   6.450
 9277POPC   C2B75416  30.502  39.357   6.750
 9277POPC   C3B75417  30.533  39.361   7.050
 9277POPC   C4B75418  30.514  39.374   7.350
 9278POPC   NC375419   4.343  22.974   5.550
 9278POPC   PO475420   4.318  22.981   5.850
 9278POPC   GL175421   4.360  22.984   6.150
 9278POPC   GL275422   4.265  22.833   6.150
 9278POPC   C1A75423   4.282  22.931   6.450
 9278POPC   D2A75424   4.337  22.941   6.750
 9278POPC   C3A75425   4.316  22.984   7.050
 9278POPC   C4A75426   4.325  22.949   7.350
 9278POPC   C1B75427   4.289  22.667   6.450
 9278POPC   C2B75428   4.204  22.662   6.750
 9278POPC   C3B75429   4.275  22.651   7.050
 9278POPC   C4B75430   4.219  22.730   7.350
 9279POPC   NC375431  29.915   5.136   5.550
 9279POPC   PO475432  29.920   5.143   5.850
 9279POPC   GL175433  29.945   5.124   6.150
 9279POPC   GL275434  29.845   5.191   6.150
 9279POPC   C1A75435  29.904   5.088   6.450
 9279POPC   D2A75436  29.926   5.127   6.750
 9279POPC   C3A75437  29.903   5.096   7.050
 9279POPC   C4A75438  29.883   5.069   7.350
 9279POPC   C1B75439  29.758   5.308   6.450
 9279POPC   C2B75440  29.728   5.285   6.750
 9279POPC   C3B75441  29.735   5.256   7.050
 9279POPC   C4B75442  29.792   5.247   7.350
 9280POPC   NC375443   5.063  43.108   5.550
 9280POPC   PO475444   5.097  43.160   5.850
 9280POPC   GL175445   5.085  43.113   6.150
 9280POPC   GL275446   5.130  42.983   6.150
 9280POPC   C1A75447   5.131  43.157   6.450
 9280POPC   D2A75448   5.066  43.143   6.750
 9280POPC   C3A75449   5.044  43.133   7.050
 9280POPC   C4A75450   5.056  43.137   7.350
 9280POPC   C1B75451   5.175  42.910   6.450
 9280POPC   C2B75452   5.154  42.850   6.750
 9280POPC   C3B75453   5.178  42.904   7.050
 9280POPC   C4B75454   5.203  42.886   7.350
 9281POPC   NC375455  32.276  29.123   5.550
 9281POPC   PO475456  32.274  29.122   5.850
 9281POPC   GL175457  32.231  29.189   6.150
 9281POPC   GL275458  32.193  29.011   6.150
 9281POPC   C1A75459  32.206  29.171   6.450
 9281POPC   D2A75460  32.278  29.125   6.750
 9281POPC   C3A75461  32.269  29.135   7.050
 9281POPC   C4A75462  32.271  29.194   7.350
 9281POPC   C1B75463  32.147  28.954   6.450
 9281POPC   C2B75464  32.105  28.888   6.750
 9281POPC   C3B75465  32.062  28.982   7.050
 9281POPC   C4B75466  32.160  28.914   7.350
 9282POPC   NC375467  14.435  24.467   5.550
 9282POPC   PO475468  14.371  24.444   5.850
 9282POPC   GL175469  14.392  24.489   6.150
 9282POPC   GL275470  14.477  24.428   6.150
 9282POPC   C1A75471  14.406  24.533   6.450
 9282POPC   D2A75472  14.415  24.443   6.750
 9282POPC   C3A75473  14.375  24.538   7.050
 9282POPC   C4A75474  14.407  24.499   7.350
 9282POPC   C1B75475  14.618  24.327   6.450
 9282POPC   C2B75476  14.603  24.367   6.750
 9282POPC   C3B75477  14.598  24.319   7.050
 9282POPC   C4B75478  14.595  24.293   7.350
 9283POPC   NC375479  17.550  19.104   5.550
 9283POPC   PO475480  17.546  19.024   5.850
 9283POPC   GL175481  17.462  19.106   6.150
 9283POPC   GL275482  17.514  19.204   6.150
 9283POPC   C1A75483  17.513  19.020   6.450
 9283POPC   D2A75484  17.534  19.082   6.750
 9283POPC   C3A75485  17.483  19.049   7.050
 9283POPC   C4A75486  17.531  19.084   7.350
 9283POPC   C1B75487  17.473  19.341   6.450
 9283POPC   C2B75488  17.524  19.275   6.750
 9283POPC   C3B75489  17.457  19.337   7.050
 9283POPC   C4B75490  17.432  19.277   7.350
 9284POPC   NC375491   8.935  14.380   5.550
 9284POPC   PO475492   9.008  14.424   5.850
 9284POPC   GL175493   8.991  14.428   6.150
 9284POPC   GL275494   8.896  14.349   6.150
 9284POPC   C1A75495   9.004  14.384   6.450
 9284POPC   D2A75496   8.941  14.418   6.750
 9284POPC   C3A75497   8.979  14.439   7.050
 9284POPC   C4A75498   8.978  14.378   7.350
 9284POPC   C1B75499   8.771  14.381   6.450
 9284POPC   C2B75500   8.752  14.302   6.750
 9284POPC   C3B75501   8.747  14.347   7.050
 9284POPC   C4B75502   8.765  14.288   7.350
 9285POPC   NC375503  39.279  33.817   5.550
 9285POPC   PO475504  39.278  33.833   5.850
 9285POPC   GL175505  39.269  33.815   6.150
 9285POPC   GL275506  39.318  33.665   6.150
 9285POPC   C1A75507  39.192  33.846   6.450
 9285POPC   D2A75508  39.266  33.813   6.750
 9285POPC   C3A75509  39.210  33.774   7.050
 9285POPC   C4A75510  39.199  33.753   7.350
 9285POPC   C1B75511  39.362  33.594   6.450
 9285POPC   C2B75512  39.360  33.585   6.750
 9285POPC   C3B75513  39.352  33.550   7.050
 9285POPC   C4B75514  39.343  33.596   7.350
 9286POPC   NC375515  29.096  12.854   5.550
 9286POPC   PO475516  29.194  12.878   5.850
 9286POPC   GL175517  29.133  12.812   6.150
 9286POPC   GL275518  29.189  12.765   6.150
 9286POPC   C1A75519  29.183  12.839   6.450
 9286POPC   D2A75520  29.156  12.862   6.750
 9286POPC   C3A75521  29.153  12.818   7.050
 9286POPC   C4A75522  29.162  12.815   7.350
 9286POPC   C1B75523  29.236  12.607   6.450
 9286POPC   C2B75524  29.276  12.630   6.750
 9286POPC   C3B75525  29.214  12.614   7.050
 9286POPC   C4B75526  29.285  12.671   7.350
 9287POPC   NC375527  35.373  24.450   5.550
 9287POPC   PO475528  35.314  24.512   5.850
 9287POPC   GL175529  35.401  24.485   6.150
 9287POPC   GL275530  35.372  24.393   6.150
 9287POPC   C1A75531  35.310  24.524   6.450
 9287POPC   D2A75532  35.378  24.531   6.750
 9287POPC   C3A75533  35.359  24.499   7.050
 9287POPC   C4A75534  35.314  24.460   7.350
 9287POPC   C1B75535  35.309  24.236   6.450
 9287POPC   C2B75536  35.332  24.268   6.750
 9287POPC   C3B75537  35.286  24.272   7.050
 9287POPC   C4B75538  35.295  24.220   7.350
 9288POPC   NC375539   5.845  35.317   5.550
 9288POPC   PO475540   5.911  35.366   5.850
 9288POPC   GL175541   5.917  35.391   6.150
 9288POPC   GL275542   5.951  35.235   6.150
 9288POPC   C1A75543   5.838  35.400   6.450
 9288POPC   D2A75544   5.897  35.387   6.750
 9288POPC   C3A75545   5.882  35.308   7.050
 9288POPC   C4A75546   5.830  35.316   7.350
 9288POPC   C1B75547   6.054  35.141   6.450
 9288POPC   C2B75548   6.028  35.216   6.750
 9288POPC   C3B75549   6.061  35.143   7.050
 9288POPC   C4B75550   6.059  35.165   7.350
 9289POPC   NC375551  42.333   6.646   5.550
 9289POPC   PO475552  42.296   6.695   5.850
 9289POPC   GL175553  42.326   6.653   6.150
 9289POPC   GL275554  42.422   6.538   6.150
 9289POPC   C1A75555  42.307   6.656   6.450
 9289POPC   D2A75556  42.384   6.644   6.750
 9289POPC   C3A75557  42.342   6.624   7.050
 9289POPC   C4A75558  42.338   6.600   7.350
 9289POPC   C1B75559  42.473   6.444   6.450
 9289POPC   C2B75560  42.470   6.449   6.750
 9289POPC   C3B75561  42.491   6.435   7.050
 9289POPC   C4B75562  42.439   6.426   7.350
 9290POPC   NC375563   2.037  20.624   5.550
 9290POPC   PO475564   2.028  20.614   5.850
 9290POPC   GL175565   1.974  20.644   6.150
 9290POPC   GL275566   1.866  20.558   6.150
 9290POPC   C1A75567   2.022  20.586   6.450
 9290POPC   D2A75568   2.010  20.615   6.750
 9290POPC   C3A75569   1.950  20.577   7.050
 9290POPC   C4A75570   1.960  20.617   7.350
 9290POPC   C1B75571   1.763  20.482   6.450
 9290POPC   C2B75572   1.805  20.517   6.750
 9290POPC   C3B75573   1.813  20.481   7.050
 9290POPC   C4B75574   1.760  20.512   7.350
 9291POPC   NC375575  12.040   1.179   5.550
 9291POPC   PO475576  12.077   1.205   5.850
 9291POPC   GL175577  12.125   1.210   6.150
 9291POPC   GL275578  12.231   1.178   6.150
 9291POPC   C1A75579  12.113   1.222   6.450
 9291POPC   D2A75580  12.026   1.218   6.750
 9291POPC   C3A75581  12.112   1.187   7.050
 9291POPC   C4A75582  12.055   1.190   7.350
 9291POPC   C1B75583  12.274   1.145   6.450
 9291POPC   C2B75584  12.272   1.101   6.750
 9291POPC   C3B75585  12.350   1.099   7.050
 9291POPC   C4B75586  12.329   1.085   7.350
 9292POPC   NC375587  22.917  44.707   5.550
 9292POPC   PO475588  22.928  44.700   5.850
 9292POPC   GL175589  22.952  44.641   6.150
 9292POPC   GL275590  22.861  44.523   6.150
 9292POPC   C1A75591  22.917  44.616   6.450
 9292POPC   D2A75592  22.945  44.634   6.750
 9292POPC   C3A75593  22.934  44.622   7.050
 9292POPC   C4A75594  22.936  44.662   7.350
 9292POPC   C1B75595  22.799  44.502   6.450
 9292POPC   C2B75596  22.803  44.470   6.750
 9292POPC   C3B75597  22.775  44.458   7.050
 9292POPC   C4B75598  22.755  44.524   7.350
 9293POPC   NC375599  37.662  43.109   5.550
 9293POPC   PO475600  37.723  43.068   5.850
 9293POPC   GL175601  37.648  43.104   6.150
 9293POPC   GL275602  37.777  43.064   6.150
 9293POPC   C1A75603  37.706  43.118   6.450
 9293POPC   D2A75604  37.649  43.123   6.750
 9293POPC   C3A75605  37.689  43.156   7.050
 9293POPC   C4A75606  37.642  43.104   7.350
 9293POPC   C1B75607  37.845  42.974   6.450
 9293POPC   C2B75608  37.884  42.914   6.750
 9293POPC   C3B75609  37.854  42.927   7.050
 9293POPC   C4B75610  37.860  42.891   7.350
 9294POPC   NC375611  26.009  29.918   5.550
 9294POPC   PO475612  26.002  29.918   5.850
 9294POPC   GL175613  25.996  29.884   6.150
 9294POPC   GL275614  26.141  30.009   6.150
 9294POPC   C1A75615  26.011  29.888   6.450
 9294POPC   D2A75616  26.067  29.890   6.750
 9294POPC   C3A75617  26.078  29.935   7.050
 9294POPC   C4A75618  25.994  29.947   7.350
 9294POPC   C1B75619  26.135  30.114   6.450
 9294POPC   C2B75620  26.139  30.136   6.750
 9294POPC   C3B75621  26.210  30.126   7.050
 9294POPC   C4B75622  26.172  30.102   7.350
 9295POPC   NC375623  19.026  19.040   5.550
 9295POPC   PO475624  19.027  19.077   5.850
 9295POPC   GL175625  19.078  19.035   6.150
 9295POPC   GL275626  19.037  18.917   6.150
 9295POPC   C1A75627  19.090  19.076   6.450
 9295POPC   D2A75628  19.073  19.068   6.750
 9295POPC   C3A75629  19.064  19.011   7.050
 9295POPC   C4A75630  19.052  19.064   7.350
 9295POPC   C1B75631  18.926  18.857   6.450
 9295POPC   C2B75632  18.929  18.813   6.750
 9295POPC   C3B75633  18.882  18.802   7.050
 9295POPC   C4B75634  18.876  18.816   7.350
 9296POPC   NC375635  41.576  33.785   5.550
 9296POPC   PO475636  41.575  33.802   5.850
 9296POPC   GL175637  41.578  33.811   6.150
 9296POPC   GL275638  41.692  33.822   6.150
 9296POPC   C1A75639  41.526  33.759   6.450
 9296POPC   D2A75640  41.526  33.754   6.750
 9296POPC   C3A75641  41.594  33.798   7.050
 9296POPC   C4A75642  41.530  33.753   7.350
 9296POPC   C1B75643  41.799  33.860   6.450
 9296POPC   C2B75644  41.852  33.802   6.750
 9296POPC   C3B75645  41.765  33.813   7.050
 9296POPC   C4B75646  41.835  33.797   7.350
 9297POPC   NC375647  26.835   8.986   5.550
 9297POPC   PO475648  26.851   8.970   5.850
 9297POPC   GL175649  26.856   8.929   6.150
 9297POPC   GL275650  26.903   9.069   6.150
 9297POPC   C1A75651  26.814   8.969   6.450
 9297POPC   D2A75652  26.824   8.923   6.750
 9297POPC   C3A75653  26.780   8.997   7.050
 9297POPC   C4A75654  26.822   9.002   7.350
 9297POPC   C1B75655  26.922   9.156   6.450
 9297POPC   C2B75656  26.927   9.213   6.750
 9297POPC   C3B75657  26.888   9.228   7.050
 9297POPC   C4B75658  26.876   9.173   7.350
 9298POPC   NC375659  14.430  23.685   5.550
 9298POPC   PO475660  14.443  23.763   5.850
 9298POPC   GL175661  14.355  23.704   6.150
 9298POPC   GL275662  14.451  23.620   6.150
 9298POPC   C1A75663  14.426  23.713   6.450
 9298POPC   D2A75664  14.393  23.715   6.750
 9298POPC   C3A75665  14.398  23.705   7.050
 9298POPC   C4A75666  14.362  23.692   7.350
 9298POPC   C1B75667  14.556  23.503   6.450
 9298POPC   C2B75668  14.539  23.578   6.750
 9298POPC   C3B75669  14.589  23.527   7.050
 9298POPC   C4B75670  14.579  23.534   7.350
 9299POPC   NC375671   3.507  26.080   5.550
 9299POPC   PO475672   3.550  26.020   5.850
 9299POPC   GL175673   3.545  26.088   6.150
 9299POPC   GL275674   3.516  26.130   6.150
 9299POPC   C1A75675   3.521  26.052   6.450
 9299POPC   D2A75676   3.560  26.039   6.750
 9299POPC   C3A75677   3.567  25.992   7.050
 9299POPC   C4A75678   3.550  26.041   7.350
 9299POPC   C1B75679   3.482  26.234   6.450
 9299POPC   C2B75680   3.503  26.257   6.750
 9299POPC   C3B75681   3.442  26.264   7.050
 9299POPC   C4B75682   3.477  26.235   7.350
 9300POPC   NC375683  39.221   4.304   5.550
 9300POPC   PO475684  39.240   4.354   5.850
 9300POPC   GL175685  39.241   4.272   6.150
 9300POPC   GL275686  39.182   4.416   6.150
 9300POPC   C1A75687  39.209   4.273   6.450
 9300POPC   D2A75688  39.183   4.294   6.750
 9300POPC   C3A75689  39.227   4.281   7.050
 9300POPC   C4A75690  39.240   4.267   7.350
 9300POPC   C1B75691  39.099   4.492   6.450
 9300POPC   C2B75692  39.072   4.569   6.750
 9300POPC   C3B75693  39.076   4.547   7.050
 9300POPC   C4B75694  39.091   4.490   7.350
 9301POPC   NC375695   4.322  30.659   5.550
 9301POPC   PO475696   4.289  30.684   5.850
 9301POPC   GL175697   4.348  30.739   6.150
 9301POPC   GL275698   4.203  30.627   6.150
 9301POPC   C1A75699   4.272  30.738   6.450
 9301POPC   D2A75700   4.345  30.736   6.750
 9301POPC   C3A75701   4.295  30.656   7.050
 9301POPC   C4A75702   4.358  30.724   7.350
 9301POPC   C1B75703   4.103  30.494   6.450
 9301POPC   C2B75704   4.101  30.511   6.750
 9301POPC   C3B75705   4.134  30.555   7.050
 9301POPC   C4B75706   4.163  30.561   7.350
 9302POPC   NC375707  27.567  25.313   5.550
 9302POPC   PO475708  27.635  25.287   5.850
 9302POPC   GL175709  27.616  25.267   6.150
 9302POPC   GL275710  27.503  25.198   6.150
 9302POPC   C1A75711  27.624  25.260   6.450
 9302POPC   D2A75712  27.636  25.314   6.750
 9302POPC   C3A75713  27.623  25.237   7.050
 9302POPC   C4A75714  27.580  25.227   7.350
 9302POPC   C1B75715  27.351  25.199   6.450
 9302POPC   C2B75716  27.352  25.159   6.750
 9302POPC   C3B75717  27.396  25.160   7.050
 9302POPC   C4B75718  27.387  25.178   7.350
 9303POPC   NC375719  38.437  12.858   5.550
 9303POPC   PO475720  38.462  12.893   5.850
 9303POPC   GL175721  38.454  12.808   6.150
 9303POPC   GL275722  38.309  12.855   6.150
 9303POPC   C1A75723  38.475  12.884   6.450
 9303POPC   D2A75724  38.449  12.809   6.750
 9303POPC   C3A75725  38.413  12.868   7.050
 9303POPC   C4A75726  38.437  12.897   7.350
 9303POPC   C1B75727  38.254  12.936   6.450
 9303POPC   C2B75728  38.223  12.941   6.750
 9303POPC   C3B75729  38.233  12.868   7.050
 9303POPC   C4B75730  38.192  12.907   7.350
 9304POPC   NC375731  10.573  13.610   5.550
 9304POPC   PO475732  10.510  13.609   5.850
 9304POPC   GL175733  10.568  13.645   6.150
 9304POPC   GL275734  10.618  13.700   6.150
 9304POPC   C1A75735  10.501  13.648   6.450
 9304POPC   D2A75736  10.492  13.658   6.750
 9304POPC   C3A75737  10.530  13.672   7.050
 9304POPC   C4A75738  10.483  13.588   7.350
 9304POPC   C1B75739  10.712  13.714   6.450
 9304POPC   C2B75740  10.703  13.758   6.750
 9304POPC   C3B75741  10.717  13.784   7.050
 9304POPC   C4B75742  10.784  13.716   7.350
 9305POPC   NC375743  12.846  29.162   5.550
 9305POPC   PO475744  12.838  29.095   5.850
 9305POPC   GL175745  12.823  29.162   6.150
 9305POPC   GL275746  12.705  29.096   6.150
 9305POPC   C1A75747  12.817  29.182   6.450
 9305POPC   D2A75748  12.840  29.130   6.750
 9305POPC   C3A75749  12.898  29.145   7.050
 9305POPC   C4A75750  12.818  29.149   7.350
 9305POPC   C1B75751  12.658  29.024   6.450
 9305POPC   C2B75752  12.596  29.091   6.750
 9305POPC   C3B75753  12.658  29.052   7.050
 9305POPC   C4B75754  12.613  29.112   7.350
 9306POPC   NC375755   2.731   2.811   5.550
 9306POPC   PO475756   2.727   2.750   5.850
 9306POPC   GL175757   2.808   2.812   6.150
 9306POPC   GL275758   2.685   2.857   6.150
 9306POPC   C1A75759   2.763   2.813   6.450
 9306POPC   D2A75760   2.778   2.779   6.750
 9306POPC   C3A75761   2.737   2.758   7.050
 9306POPC   C4A75762   2.727   2.748   7.350
 9306POPC   C1B75763   2.634   2.974   6.450
 9306POPC   C2B75764   2.727   2.973   6.750
 9306POPC   C3B75765   2.663   3.041   7.050
 9306POPC   C4B75766   2.685   2.979   7.350
 9307POPC   NC375767  21.405   2.005   5.550
 9307POPC   PO475768  21.418   2.013   5.850
 9307POPC   GL175769  21.378   1.964   6.150
 9307POPC   GL275770  21.283   2.040   6.150
 9307POPC   C1A75771  21.435   1.980   6.450
 9307POPC   D2A75772  21.375   1.998   6.750
 9307POPC   C3A75773  21.433   1.964   7.050
 9307POPC   C4A75774  21.363   1.986   7.350
 9307POPC   C1B75775  21.178   2.175   6.450
 9307POPC   C2B75776  21.229   2.122   6.750
 9307POPC   C3B75777  21.181   2.185   7.050
 9307POPC   C4B75778  21.186   2.170   7.350
 9308POPC   NC375779  41.558  43.921   5.550
 9308POPC   PO475780  41.512  43.839   5.850
 9308POPC   GL175781  41.530  43.873   6.150
 9308POPC   GL275782  41.384  43.892   6.150
 9308POPC   C1A75783  41.565  43.902   6.450
 9308POPC   D2A75784  41.557  43.915   6.750
 9308POPC   C3A75785  41.596  43.900   7.050
 9308POPC   C4A75786  41.519  43.844   7.350
 9308POPC   C1B75787  41.317  43.871   6.450
 9308POPC   C2B75788  41.355  43.908   6.750
 9308POPC   C3B75789  41.282  43.909   7.050
 9308POPC   C4B75790  41.347  43.861   7.350
 9309POPC   NC375791  15.994  36.080   5.550
 9309POPC   PO475792  15.961  36.159   5.850
 9309POPC   GL175793  15.928  36.099   6.150
 9309POPC   GL275794  16.113  36.173   6.150
 9309POPC   C1A75795  15.945  36.114   6.450
 9309POPC   D2A75796  15.969  36.085   6.750
 9309POPC   C3A75797  15.946  36.162   7.050
 9309POPC   C4A75798  15.961  36.141   7.350
 9309POPC   C1B75799  16.159  36.115   6.450
 9309POPC   C2B75800  16.200  36.159   6.750
 9309POPC   C3B75801  16.155  36.098   7.050
 9309POPC   C4B75802  16.171  36.167   7.350
 9310POPC   NC375803  32.265  39.976   5.550
 9310POPC   PO475804  32.288  40.008   5.850
 9310POPC   GL175805  32.236  40.020   6.150
 9310POPC   GL275806  32.328  39.876   6.150
 9310POPC   C1A75807  32.243  39.983   6.450
 9310POPC   D2A75808  32.224  40.049   6.750
 9310POPC   C3A75809  32.203  40.031   7.050
 9310POPC   C4A75810  32.288  40.018   7.350
 9310POPC   C1B75811  32.464  39.864   6.450
 9310POPC   C2B75812  32.469  39.878   6.750
 9310POPC   C3B75813  32.420  39.860   7.050
 9310POPC   C4B75814  32.471  39.874   7.350
 9311POPC   NC375815   9.015  29.902   5.550
 9311POPC   PO475816   8.983  29.925   5.850
 9311POPC   GL175817   9.011  29.898   6.150
 9311POPC   GL275818   8.837  29.972   6.150
 9311POPC   C1A75819   9.001  29.936   6.450
 9311POPC   D2A75820   8.935  29.942   6.750
 9311POPC   C3A75821   8.938  29.871   7.050
 9311POPC   C4A75822   8.991  29.892   7.350
 9311POPC   C1B75823   8.735  29.985   6.450
 9311POPC   C2B75824   8.787  30.011   6.750
 9311POPC   C3B75825   8.759  29.997   7.050
 9311POPC   C4B75826   8.719  30.035   7.350
 9312POPC   NC375827   2.815  19.821   5.550
 9312POPC   PO475828   2.725  19.814   5.850
 9312POPC   GL175829   2.741  19.820   6.150
 9312POPC   GL275830   2.820  19.776   6.150
 9312POPC   C1A75831   2.801  19.871   6.450
 9312POPC   D2A75832   2.749  19.799   6.750
 9312POPC   C3A75833   2.725  19.881   7.050
 9312POPC   C4A75834   2.749  19.800   7.350
 9312POPC   C1B75835   2.954  19.710   6.450
 9312POPC   C2B75836   2.923  19.691   6.750
 9312POPC   C3B75837   2.972  19.729   7.050
 9312POPC   C4B75838   2.941  19.641   7.350
 9313POPC   NC375839  29.886  33.005   5.550
 9313POPC   PO475840  29.904  33.039   5.850
 9313POPC   GL175841  29.926  33.035   6.150
 9313POPC   GL275842  29.933  33.128   6.150
 9313POPC   C1A75843  29.900  32.988   6.450
 9313POPC   D2A75844  29.928  32.983   6.750
 9313POPC   C3A75845  29.956  33.040   7.050
 9313POPC   C4A75846  29.902  33.021   7.350
 9313POPC   C1B75847  29.922  33.281   6.450
 9313POPC   C2B75848  29.964  33.312   6.750
 9313POPC   C3B75849  29.931  33.230   7.050
 9313POPC   C4B75850  29.882  33.318   7.350
 9314POPC   NC375851  33.797  19.022   5.550
 9314POPC   PO475852  33.836  19.101   5.850
 9314POPC   GL175853  33.762  19.106   6.150
 9314POPC   GL275854  33.629  19.078   6.150
 9314POPC   C1A75855  33.800  19.104   6.450
 9314POPC   D2A75856  33.842  19.108   6.750
 9314POPC   C3A75857  33.813  19.059   7.050
 9314POPC   C4A75858  33.804  19.025   7.350
 9314POPC   C1B75859  33.521  19.049   6.450
 9314POPC   C2B75860  33.514  19.066   6.750
 9314POPC   C3B75861  33.574  19.029   7.050
 9314POPC   C4B75862  33.538  19.081   7.350
 9315POPC   NC375863   1.959  36.923   5.550
 9315POPC   PO475864   2.039  36.937   5.850
 9315POPC   GL175865   1.998  36.863   6.150
 9315POPC   GL275866   1.872  36.782   6.150
 9315POPC   C1A75867   1.996  36.948   6.450
 9315POPC   D2A75868   2.023  36.922   6.750
 9315POPC   C3A75869   2.019  36.899   7.050
 9315POPC   C4A75870   1.954  36.870   7.350
 9315POPC   C1B75871   1.809  36.684   6.450
 9315POPC   C2B75872   1.848  36.776   6.750
 9315POPC   C3B75873   1.808  36.771   7.050
 9315POPC   C4B75874   1.788  36.703   7.350
 9316POPC   NC375875  11.349  29.951   5.550
 9316POPC   PO475876  11.299  29.970   5.850
 9316POPC   GL175877  11.262  29.957   6.150
 9316POPC   GL275878  11.381  29.855   6.150
 9316POPC   C1A75879  11.276  29.943   6.450
 9316POPC   D2A75880  11.336  29.885   6.750
 9316POPC   C3A75881  11.263  29.930   7.050
 9316POPC   C4A75882  11.329  29.957   7.350
 9316POPC   C1B75883  11.544  29.792   6.450
 9316POPC   C2B75884  11.505  29.772   6.750
 9316POPC   C3B75885  11.502  29.746   7.050
 9316POPC   C4B75886  11.481  29.758   7.350
 9317POPC   NC375887   3.547  39.206   5.550
 9317POPC   PO475888   3.526  39.237   5.850
 9317POPC   GL175889   3.500  39.185   6.150
 9317POPC   GL275890   3.555  39.318   6.150
 9317POPC   C1A75891   3.563  39.227   6.450
 9317POPC   D2A75892   3.546  39.197   6.750
 9317POPC   C3A75893   3.589  39.273   7.050
 9317POPC   C4A75894   3.575  39.207   7.350
 9317POPC   C1B75895   3.561  39.471   6.450
 9317POPC   C2B75896   3.584  39.494   6.750
 9317POPC   C3B75897   3.525  39.460   7.050
 9317POPC   C4B75898   3.553  39.526   7.350
 9318POPC   NC375899  38.485  39.183   5.550
 9318POPC   PO475900  38.435  39.237   5.850
 9318POPC   GL175901  38.470  39.280   6.150
 9318POPC   GL275902  38.347  39.130   6.150
 9318POPC   C1A75903  38.415  39.187   6.450
 9318POPC   D2A75904  38.476  39.267   6.750
 9318POPC   C3A75905  38.466  39.204   7.050
 9318POPC   C4A75906  38.488  39.216   7.350
 9318POPC   C1B75907  38.202  39.087   6.450
 9318POPC   C2B75908  38.265  39.105   6.750
 9318POPC   C3B75909  38.241  39.126   7.050
 9318POPC   C4B75910  38.221  39.087   7.350
 9319POPC   NC375911  26.001   9.765   5.550
 9319POPC   PO475912  26.080   9.708   5.850
 9319POPC   GL175913  26.051   9.707   6.150
 9319POPC   GL275914  25.948   9.892   6.150
 9319POPC   C1A75915  26.000   9.714   6.450
 9319POPC   D2A75916  26.090   9.742   6.750
 9319POPC   C3A75917  26.046   9.725   7.050
 9319POPC   C4A75918  26.067   9.789   7.350
 9319POPC   C1B75919  25.917   9.960   6.450
 9319POPC   C2B75920  25.962   9.974   6.750
 9319POPC   C3B75921  25.926   9.993   7.050
 9319POPC   C4B75922  25.968   9.988   7.350
 9320POPC   NC375923  15.918  35.388   5.550
 9320POPC   PO475924  15.970  35.346   5.850
 9320POPC   GL175925  15.998  35.312   6.150
 9320POPC   GL275926  16.015  35.211   6.150
 9320POPC   C1A75927  15.933  35.339   6.450
 9320POPC   D2A75928  15.922  35.357   6.750
 9320POPC   C3A75929  15.951  35.330   7.050
 9320POPC   C4A75930  15.928  35.311   7.350
 9320POPC   C1B75931  16.133  35.164   6.450
 9320POPC   C2B75932  16.105  35.135   6.750
 9320POPC   C3B75933  16.060  35.157   7.050
 9320POPC   C4B75934  16.129  35.183   7.350
 9321POPC   NC375935  19.070  21.344   5.550
 9321POPC   PO475936  19.059  21.394   5.850
 9321POPC   GL175937  19.038  21.352   6.150
 9321POPC   GL275938  19.221  21.404   6.150
 9321POPC   C1A75939  19.078  21.363   6.450
 9321POPC   D2A75940  19.016  21.370   6.750
 9321POPC   C3A75941  19.072  21.428   7.050
 9321POPC   C4A75942  19.022  21.403   7.350
 9321POPC   C1B75943  19.301  21.504   6.450
 9321POPC   C2B75944  19.316  21.432   6.750
 9321POPC   C3B75945  19.290  21.512   7.050
 9321POPC   C4B75946  19.304  21.445   7.350
 9322POPC   NC375947  32.199   1.246   5.550
 9322POPC   PO475948  32.267   1.245   5.850
 9322POPC   GL175949  32.258   1.211   6.150
 9322POPC   GL275950  32.298   1.070   6.150
 9322POPC   C1A75951  32.250   1.165   6.450
 9322POPC   D2A75952  32.220   1.174   6.750
 9322POPC   C3A75953  32.240   1.203   7.050
 9322POPC   C4A75954  32.221   1.240   7.350
 9322POPC   C1B75955  32.380   1.005   6.450
 9322POPC   C2B75956  32.291   0.945   6.750
 9322POPC   C3B75957  32.327   0.991   7.050
 9322POPC   C4B75958  32.358   0.990   7.350
 9323POPC   NC375959  26.053  23.752   5.550
 9323POPC   PO475960  26.073  23.750   5.850
 9323POPC   GL175961  25.993  23.763   6.150
 9323POPC   GL275962  25.990  23.574   6.150
 9323POPC   C1A75963  26.069  23.758   6.450
 9323POPC   D2A75964  26.015  23.758   6.750
 9323POPC   C3A75965  26.018  23.711   7.050
 9323POPC   C4A75966  26.024  23.682   7.350
 9323POPC   C1B75967  25.974  23.454   6.450
 9323POPC   C2B75968  25.905  23.492   6.750
 9323POPC   C3B75969  25.877  23.492   7.050
 9323POPC   C4B75970  25.904  23.527   7.350
 9324POPC   NC375971   7.397  12.104   5.550
 9324POPC   PO475972   7.434  12.029   5.850
 9324POPC   GL175973   7.377  12.081   6.150
 9324POPC   GL275974   7.581  12.085   6.150
 9324POPC   C1A75975   7.392  12.076   6.450
 9324POPC   D2A75976   7.393  12.056   6.750
 9324POPC   C3A75977   7.465  12.071   7.050
 9324POPC   C4A75978   7.439  12.076   7.350
 9324POPC   C1B75979   7.619  12.195   6.450
 9324POPC   C2B75980   7.692  12.149   6.750
 9324POPC   C3B75981   7.685  12.154   7.050
 9324POPC   C4B75982   7.676  12.190   7.350
 9325POPC   NC375983  34.559  22.932   5.550
 9325POPC   PO475984  34.556  22.907   5.850
 9325POPC   GL175985  34.622  22.909   6.150
 9325POPC   GL275986  34.708  22.880   6.150
 9325POPC   C1A75987  34.573  22.987   6.450
 9325POPC   D2A75988  34.534  22.939   6.750
 9325POPC   C3A75989  34.529  22.973   7.050
 9325POPC   C4A75990  34.585  22.961   7.350
 9325POPC   C1B75991  34.783  22.842   6.450
 9325POPC   C2B75992  34.847  22.839   6.750
 9325POPC   C3B75993  34.816  22.844   7.050
 9325POPC   C4B75994  34.840  22.919   7.350
 9326POPC   NC375995  29.961  19.802   5.550
 9326POPC   PO475996  29.908  19.864   5.850
 9326POPC   GL175997  29.966  19.878   6.150
 9326POPC   GL275998  30.014  19.784   6.150
 9326POPC   C1A75999  29.958  19.867   6.450
 9326POPC   D2A76000  29.883  19.789   6.750
 9326POPC   C3A76001  29.954  19.857   7.050
 9326POPC   C4A76002  29.911  19.826   7.350
 9326POPC   C1B76003  30.086  19.663   6.450
 9326POPC   C2B76004  30.107  19.672   6.750
 9326POPC   C3B76005  30.143  19.691   7.050
 9326POPC   C4B76006  30.135  19.620   7.350
 9327POPC   NC376007  40.011  16.688   5.550
 9327POPC   PO476008  40.042  16.701   5.850
 9327POPC   GL176009  39.997  16.764   6.150
 9327POPC   GL276010  40.153  16.720   6.150
 9327POPC   C1A76011  39.980  16.689   6.450
 9327POPC   D2A76012  39.973  16.718   6.750
 9327POPC   C3A76013  40.044  16.721   7.050
 9327POPC   C4A76014  40.038  16.689   7.350
 9327POPC   C1B76015  40.196  16.596   6.450
 9327POPC   C2B76016  40.289  16.649   6.750
 9327POPC   C3B76017  40.257  16.673   7.050
 9327POPC   C4B76018  40.249  16.647   7.350
 9328POPC   NC376019  20.606   8.938   5.550
 9328POPC   PO476020  20.586   8.945   5.850
 9328POPC   GL176021  20.625   8.991   6.150
 9328POPC   GL276022  20.511   8.952   6.150
 9328POPC   C1A76023  20.631   9.020   6.450
 9328POPC   D2A76024  20.657   8.971   6.750
 9328POPC   C3A76025  20.651   8.949   7.050
 9328POPC   C4A76026  20.619   8.962   7.350
 9328POPC   C1B76027  20.388   9.073   6.450
 9328POPC   C2B76028  20.385   9.008   6.750
 9328POPC   C3B76029  20.323   9.008   7.050
 9328POPC   C4B76030  20.365   9.074   7.350
 9329POPC   NC376031  39.182  33.072   5.550
 9329POPC   PO476032  39.255  33.059   5.850
 9329POPC   GL176033  39.265  33.031   6.150
 9329POPC   GL276034  39.152  33.003   6.150
 9329POPC   C1A76035  39.223  33.064   6.450
 9329POPC   D2A76036  39.198  33.015   6.750
 9329POPC   C3A76037  39.276  32.997   7.050
 9329POPC   C4A76038  39.244  33.004   7.350
 9329POPC   C1B76039  39.007  33.058   6.450
 9329POPC   C2B76040  38.945  33.082   6.750
 9329POPC   C3B76041  39.029  33.059   7.050
 9329POPC   C4B76042  38.959  33.044   7.350
 9330POPC   NC376043  19.845  15.223   5.550
 9330POPC   PO476044  19.834  15.136   5.850
 9330POPC   GL176045  19.866  15.134   6.150
 9330POPC   GL276046  19.994  15.239   6.150
 9330POPC   C1A76047  19.809  15.167   6.450
 9330POPC   D2A76048  19.822  15.153   6.750
 9330POPC   C3A76049  19.877  15.217   7.050
 9330POPC   C4A76050  19.841  15.152   7.350
 9330POPC   C1B76051  20.043  15.261   6.450
 9330POPC   C2B76052  20.051  15.272   6.750
 9330POPC   C3B76053  20.115  15.255   7.050
 9330POPC   C4B76054  20.097  15.284   7.350
 9331POPC   NC376055  36.084  18.301   5.550
 9331POPC   PO476056  36.079  18.307   5.850
 9331POPC   GL176057  36.149  18.301   6.150
 9331POPC   GL276058  36.126  18.157   6.150
 9331POPC   C1A76059  36.156  18.305   6.450
 9331POPC   D2A76060  36.171  18.268   6.750
 9331POPC   C3A76061  36.178  18.313   7.050
 9331POPC   C4A76062  36.128  18.290   7.350
 9331POPC   C1B76063  36.017  18.089   6.450
 9331POPC   C2B76064  36.031  18.052   6.750
 9331POPC   C3B76065  36.088  18.086   7.050
 9331POPC   C4B76066  36.058  18.016   7.350
 9332POPC   NC376067   7.388  32.239   5.550
 9332POPC   PO476068   7.448  32.286   5.850
 9332POPC   GL176069   7.389  32.240   6.150
 9332POPC   GL276070   7.480  32.386   6.150
 9332POPC   C1A76071   7.450  32.235   6.450
 9332POPC   D2A76072   7.410  32.270   6.750
 9332POPC   C3A76073   7.383  32.208   7.050
 9332POPC   C4A76074   7.470  32.284   7.350
 9332POPC   C1B76075   7.428  32.525   6.450
 9332POPC   C2B76076   7.440  32.496   6.750
 9332POPC   C3B76077   7.472  32.468   7.050
 9332POPC   C4B76078   7.442  32.499   7.350
 9333POPC   NC376079  34.572  24.489   5.550
 9333POPC   PO476080  34.592  24.450   5.850
 9333POPC   GL176081  34.568  24.472   6.150
 9333POPC   GL276082  34.688  24.631   6.150
 9333POPC   C1A76083  34.582  24.469   6.450
 9333POPC   D2A76084  34.533  24.525   6.750
 9333POPC   C3A76085  34.566  24.494   7.050
 9333POPC   C4A76086  34.559  24.454   7.350
 9333POPC   C1B76087  34.698  24.684   6.450
 9333POPC   C2B76088  34.678  24.682   6.750
 9333POPC   C3B76089  34.662  24.739   7.050
 9333POPC   C4B76090  34.664  24.721   7.350
 9334POPC   NC376091  32.256   5.833   5.550
 9334POPC   PO476092  32.251   5.881   5.850
 9334POPC   GL176093  32.271   5.846   6.150
 9334POPC   GL276094  32.353   5.916   6.150
 9334POPC   C1A76095  32.267   5.918   6.450
 9334POPC   D2A76096  32.237   5.877   6.750
 9334POPC   C3A76097  32.234   5.844   7.050
 9334POPC   C4A76098  32.266   5.919   7.350
 9334POPC   C1B76099  32.482   5.944   6.450
 9334POPC   C2B76100  32.488   5.910   6.750
 9334POPC   C3B76101  32.457   5.944   7.050
 9334POPC   C4B76102  32.461   5.876   7.350
 9335POPC   NC376103  18.300  25.287   5.550
 9335POPC   PO476104  18.300  25.235   5.850
 9335POPC   GL176105  18.267  25.242   6.150
 9335POPC   GL276106  18.356  25.232   6.150
 9335POPC   C1A76107  18.268  25.290   6.450
 9335POPC   D2A76108  18.310  25.290   6.750
 9335POPC   C3A76109  18.289  25.233   7.050
 9335POPC   C4A76110  18.304  25.301   7.350
 9335POPC   C1B76111  18.547  25.250   6.450
 9335POPC   C2B76112  18.514  25.176   6.750
 9335POPC   C3B76113  18.512  25.207   7.050
 9335POPC   C4B76114  18.573  25.183   7.350
 9336POPC   NC376115  13.649   5.127   5.550
 9336POPC   PO476116  13.584   5.072   5.850
 9336POPC   GL176117  13.630   5.117   6.150
 9336POPC   GL276118  13.625   5.209   6.150
 9336POPC   C1A76119  13.599   5.094   6.450
 9336POPC   D2A76120  13.620   5.086   6.750
 9336POPC   C3A76121  13.674   5.059   7.050
 9336POPC   C4A76122  13.621   5.086   7.350
 9336POPC   C1B76123  13.745   5.308   6.450
 9336POPC   C2B76124  13.724   5.329   6.750
 9336POPC   C3B76125  13.714   5.358   7.050
 9336POPC   C4B76126  13.759   5.368   7.350
 9337POPC   NC376127  18.325  33.042   5.550
 9337POPC   PO476128  18.248  32.988   5.850
 9337POPC   GL176129  18.283  33.069   6.150
 9337POPC   GL276130  18.340  33.065   6.150
 9337POPC   C1A76131  18.284  33.018   6.450
 9337POPC   D2A76132  18.304  33.019   6.750
 9337POPC   C3A76133  18.262  33.006   7.050
 9337POPC   C4A76134  18.283  33.059   7.350
 9337POPC   C1B76135  18.443  33.212   6.450
 9337POPC   C2B76136  18.495  33.161   6.750
 9337POPC   C3B76137  18.442  33.192   7.050
 9337POPC   C4B76138  18.507  33.210   7.350
 9338POPC   NC376139   9.777   1.248   5.550
 9338POPC   PO476140   9.766   1.205   5.850
 9338POPC   GL176141   9.788   1.176   6.150
 9338POPC   GL276142   9.795   1.097   6.150
 9338POPC   C1A76143   9.733   1.177   6.450
 9338POPC   D2A76144   9.753   1.184   6.750
 9338POPC   C3A76145   9.747   1.169   7.050
 9338POPC   C4A76146   9.707   1.189   7.350
 9338POPC   C1B76147   9.811   0.989   6.450
 9338POPC   C2B76148   9.865   0.964   6.750
 9338POPC   C3B76149   9.885   1.002   7.050
 9338POPC   C4B76150   9.860   1.013   7.350
 9339POPC   NC376151  35.366  43.133   5.550
 9339POPC   PO476152  35.393  43.135   5.850
 9339POPC   GL176153  35.372  43.078   6.150
 9339POPC   GL276154  35.350  43.184   6.150
 9339POPC   C1A76155  35.342  43.133   6.450
 9339POPC   D2A76156  35.331  43.069   6.750
 9339POPC   C3A76157  35.350  43.155   7.050
 9339POPC   C4A76158  35.307  43.133   7.350
 9339POPC   C1B76159  35.360  43.334   6.450
 9339POPC   C2B76160  35.361  43.406   6.750
 9339POPC   C3B76161  35.350  43.396   7.050
 9339POPC   C4B76162  35.399  43.336   7.350
 9340POPC   NC376163  42.291  15.173   5.550
 9340POPC   PO476164  42.372  15.215   5.850
 9340POPC   GL176165  42.356  15.172   6.150
 9340POPC   GL276166  42.455  15.154   6.150
 9340POPC   C1A76167  42.302  15.140   6.450
 9340POPC   D2A76168  42.377  15.168   6.750
 9340POPC   C3A76169  42.315  15.226   7.050
 9340POPC   C4A76170  42.334  15.220   7.350
 9340POPC   C1B76171  42.547  15.148   6.450
 9340POPC   C2B76172  42.587  15.133   6.750
 9340POPC   C3B76173  42.567  15.150   7.050
 9340POPC   C4B76174  42.542  15.119   7.350
 9341POPC   NC376175  39.267  28.340   5.550
 9341POPC   PO476176  39.200  28.340   5.850
 9341POPC   GL176177  39.280  28.333   6.150
 9341POPC   GL276178  39.287  28.245   6.150
 9341POPC   C1A76179  39.262  28.364   6.450
 9341POPC   D2A76180  39.191  28.372   6.750
 9341POPC   C3A76181  39.270  28.341   7.050
 9341POPC   C4A76182  39.201  28.393   7.350
 9341POPC   C1B76183  39.370  28.149   6.450
 9341POPC   C2B76184  39.378  28.202   6.750
 9341POPC   C3B76185  39.334  28.212   7.050
 9341POPC   C4B76186  39.430  28.140   7.350
 9342POPC   NC376187  18.270   9.714   5.550
 9342POPC   PO476188  18.285   9.773   5.850
 9342POPC   GL176189  18.324   9.738   6.150
 9342POPC   GL276190  18.378   9.607   6.150
 9342POPC   C1A76191  18.327   9.732   6.450
 9342POPC   D2A76192  18.302   9.770   6.750
 9342POPC   C3A76193  18.287   9.782   7.050
 9342POPC   C4A76194  18.326   9.786   7.350
 9342POPC   C1B76195  18.356   9.553   6.450
 9342POPC   C2B76196  18.362   9.569   6.750
 9342POPC   C3B76197  18.418   9.506   7.050
 9342POPC   C4B76198  18.366   9.506   7.350
 9343POPC   NC376199  43.079  12.066   5.550
 9343POPC   PO476200  43.129  12.060   5.850
 9343POPC   GL176201  43.151  12.114   6.150
 9343POPC   GL276202  43.039  11.995   6.150
 9343POPC   C1A76203  43.081  12.085   6.450
 9343POPC   D2A76204  43.095  12.057   6.750
 9343POPC   C3A76205  43.083  12.071   7.050
 9343POPC   C4A76206  43.146  12.062   7.350
 9343POPC   C1B76207  42.990  11.847   6.450
 9343POPC   C2B76208  42.995  11.822   6.750
 9343POPC   C3B76209  43.004  11.912   7.050
 9343POPC   C4B76210  42.974  11.847   7.350
 9344POPC   NC376211  44.622   8.975   5.550
 9344POPC   PO476212  44.704   8.947   5.850
 9344POPC   GL176213  44.698   8.937   6.150
 9344POPC   GL276214  44.653   8.812   6.150
 9344POPC   C1A76215  44.711   8.971   6.450
 9344POPC   D2A76216  44.701   9.006   6.750
 9344POPC   C3A76217  44.691   8.985   7.050
 9344POPC   C4A76218  44.618   8.981   7.350
 9344POPC   C1B76219  44.653   8.703   6.450
 9344POPC   C2B76220  44.708   8.678   6.750
 9344POPC   C3B76221  44.717   8.689   7.050
 9344POPC   C4B76222  44.734   8.752   7.350
 9345POPC   NC376223  11.296  43.860   5.550
 9345POPC   PO476224  11.280  43.904   5.850
 9345POPC   GL176225  11.315  43.866   6.150
 9345POPC   GL276226  11.171  43.899   6.150
 9345POPC   C1A76227  11.343  43.901   6.450
 9345POPC   D2A76228  11.316  43.873   6.750
 9345POPC   C3A76229  11.268  43.875   7.050
 9345POPC   C4A76230  11.270  43.876   7.350
 9345POPC   C1B76231  11.079  43.869   6.450
 9345POPC   C2B76232  11.004  43.909   6.750
 9345POPC   C3B76233  11.084  43.911   7.050
 9345POPC   C4B76234  11.044  43.934   7.350
 9346POPC   NC376235  14.419  33.802   5.550
 9346POPC   PO476236  14.436  33.843   5.850
 9346POPC   GL176237  14.366  33.826   6.150
 9346POPC   GL276238  14.257  33.849   6.150
 9346POPC   C1A76239  14.384  33.776   6.450
 9346POPC   D2A76240  14.440  33.779   6.750
 9346POPC   C3A76241  14.436  33.811   7.050
 9346POPC   C4A76242  14.435  33.778   7.350
 9346POPC   C1B76243  14.213  33.963   6.450
 9346POPC   C2B76244  14.172  33.932   6.750
 9346POPC   C3B76245  14.160  33.905   7.050
 9346POPC   C4B76246  14.176  33.900   7.350
 9347POPC   NC376247  24.509  35.308   5.550
 9347POPC   PO476248  24.480  35.337   5.850
 9347POPC   GL176249  24.496  35.331   6.150
 9347POPC   GL276250  24.606  35.423   6.150
 9347POPC   C1A76251  24.468  35.312   6.450
 9347POPC   D2A76252  24.442  35.384   6.750
 9347POPC   C3A76253  24.479  35.302   7.050
 9347POPC   C4A76254  24.456  35.303   7.350
 9347POPC   C1B76255  24.729  35.476   6.450
 9347POPC   C2B76256  24.702  35.483   6.750
 9347POPC   C3B76257  24.730  35.497   7.050
 9347POPC   C4B76258  24.635  35.510   7.350
 9348POPC   NC376259  43.064  14.438   5.550
 9348POPC   PO476260  43.116  14.368   5.850
 9348POPC   GL176261  43.079  14.426   6.150
 9348POPC   GL276262  43.231  14.435   6.150
 9348POPC   C1A76263  43.093  14.391   6.450
 9348POPC   D2A76264  43.144  14.435   6.750
 9348POPC   C3A76265  43.109  14.431   7.050
 9348POPC   C4A76266  43.120  14.388   7.350
 9348POPC   C1B76267  43.346  14.369   6.450
 9348POPC   C2B76268  43.340  14.454   6.750
 9348POPC   C3B76269  43.319  14.393   7.050
 9348POPC   C4B76270  43.386  14.376   7.350
 9349POPC   NC376271   8.241  26.057   5.550
 9349POPC   PO476272   8.226  26.034   5.850
 9349POPC   GL176273   8.163  26.035   6.150
 9349POPC   GL276274   8.314  26.064   6.150
 9349POPC   C1A76275   8.153  26.063   6.450
 9349POPC   D2A76276   8.205  26.088   6.750
 9349POPC   C3A76277   8.178  26.019   7.050
 9349POPC   C4A76278   8.196  25.995   7.350
 9349POPC   C1B76279   8.422  26.085   6.450
 9349POPC   C2B76280   8.469  26.124   6.750
 9349POPC   C3B76281   8.425  26.094   7.050
 9349POPC   C4B76282   8.450  26.047   7.350
 9350POPC   NC376283   6.599   1.956   5.550
 9350POPC   PO476284   6.608   1.974   5.850
 9350POPC   GL176285   6.624   2.023   6.150
 9350POPC   GL276286   6.776   2.019   6.150
 9350POPC   C1A76287   6.676   1.942   6.450
 9350POPC   D2A76288   6.655   1.974   6.750
 9350POPC   C3A76289   6.648   2.005   7.050
 9350POPC   C4A76290   6.642   1.999   7.350
 9350POPC   C1B76291   6.934   2.043   6.450
 9350POPC   C2B76292   6.901   1.964   6.750
 9350POPC   C3B76293   6.854   1.983   7.050
 9350POPC   C4B76294   6.912   2.047   7.350
 9351POPC   NC376295  20.563  40.760   5.550
 9351POPC   PO476296  20.605  40.775   5.850
 9351POPC   GL176297  20.654  40.806   6.150
 9351POPC   GL276298  20.628  40.936   6.150
 9351POPC   C1A76299  20.640  40.802   6.450
 9351POPC   D2A76300  20.567  40.801   6.750
 9351POPC   C3A76301  20.617  40.784   7.050
 9351POPC   C4A76302  20.611  40.771   7.350
 9351POPC   C1B76303  20.780  40.950   6.450
 9351POPC   C2B76304  20.716  40.945   6.750
 9351POPC   C3B76305  20.759  40.975   7.050
 9351POPC   C4B76306  20.754  41.035   7.350
 9352POPC   NC376307   5.901  37.715   5.550
 9352POPC   PO476308   5.905  37.654   5.850
 9352POPC   GL176309   5.894  37.650   6.150
 9352POPC   GL276310   5.804  37.612   6.150
 9352POPC   C1A76311   5.875  37.709   6.450
 9352POPC   D2A76312   5.891  37.658   6.750
 9352POPC   C3A76313   5.907  37.631   7.050
 9352POPC   C4A76314   5.919  37.726   7.350
 9352POPC   C1B76315   5.728  37.467   6.450
 9352POPC   C2B76316   5.762  37.440   6.750
 9352POPC   C3B76317   5.675  37.475   7.050
 9352POPC   C4B76318   5.692  37.442   7.350
 9353POPC   NC376319  41.588   5.121   5.550
 9353POPC   PO476320  41.514   5.053   5.850
 9353POPC   GL176321  41.606   5.134   6.150
 9353POPC   GL276322  41.413   5.153   6.150
 9353POPC   C1A76323  41.520   5.123   6.450
 9353POPC   D2A76324  41.543   5.082   6.750
 9353POPC   C3A76325  41.536   5.063   7.050
 9353POPC   C4A76326  41.570   5.091   7.350
 9353POPC   C1B76327  41.314   5.204   6.450
 9353POPC   C2B76328  41.286   5.144   6.750
 9353POPC   C3B76329  41.299   5.119   7.050
 9353POPC   C4B76330  41.353   5.167   7.350
 9354POPC   NC376331  24.516  19.064   5.550
 9354POPC   PO476332  24.446  19.072   5.850
 9354POPC   GL176333  24.486  19.085   6.150
 9354POPC   GL276334  24.411  18.963   6.150
 9354POPC   C1A76335  24.506  19.040   6.450
 9354POPC   D2A76336  24.512  19.087   6.750
 9354POPC   C3A76337  24.519  19.099   7.050
 9354POPC   C4A76338  24.452  19.056   7.350
 9354POPC   C1B76339  24.294  18.897   6.450
 9354POPC   C2B76340  24.259  18.944   6.750
 9354POPC   C3B76341  24.282  18.920   7.050
 9354POPC   C4B76342  24.258  18.925   7.350
 9355POPC   NC376343  17.464  18.260   5.550
 9355POPC   PO476344  17.552  18.285   5.850
 9355POPC   GL176345  17.534  18.277   6.150
 9355POPC   GL276346  17.415  18.262   6.150
 9355POPC   C1A76347  17.472  18.246   6.450
 9355POPC   D2A76348  17.497  18.328   6.750
 9355POPC   C3A76349  17.553  18.245   7.050
 9355POPC   C4A76350  17.556  18.316   7.350
 9355POPC   C1B76351  17.290  18.382   6.450
 9355POPC   C2B76352  17.239  18.340   6.750
 9355POPC   C3B76353  17.264  18.378   7.050
 9355POPC   C4B76354  17.215  18.322   7.350
 9356POPC   NC376355  19.841  25.310   5.550
 9356POPC   PO476356  19.823  25.283   5.850
 9356POPC   GL176357  19.873  25.264   6.150
 9356POPC   GL276358  19.877  25.126   6.150
 9356POPC   C1A76359  19.876  25.252   6.450
 9356POPC   D2A76360  19.806  25.224   6.750
 9356POPC   C3A76361  19.799  25.294   7.050
 9356POPC   C4A76362  19.837  25.299   7.350
 9356POPC   C1B76363  20.005  25.082   6.450
 9356POPC   C2B76364  19.953  25.098   6.750
 9356POPC   C3B76365  20.013  25.019   7.050
 9356POPC   C4B76366  19.977  25.086   7.350
 9357POPC   NC376367  39.270   8.243   5.550
 9357POPC   PO476368  39.247   8.204   5.850
 9357POPC   GL176369  39.256   8.147   6.150
 9357POPC   GL276370  39.211   8.089   6.150
 9357POPC   C1A76371  39.234   8.184   6.450
 9357POPC   D2A76372  39.281   8.240   6.750
 9357POPC   C3A76373  39.200   8.189   7.050
 9357POPC   C4A76374  39.183   8.167   7.350
 9357POPC   C1B76375  39.112   7.949   6.450
 9357POPC   C2B76376  39.154   8.001   6.750
 9357POPC   C3B76377  39.128   8.008   7.050
 9357POPC   C4B76378  39.142   7.959   7.350
 9358POPC   NC376379  33.765  19.846   5.550
 9358POPC   PO476380  33.793  19.802   5.850
 9358POPC   GL176381  33.824  19.845   6.150
 9358POPC   GL276382  33.928  19.780   6.150
 9358POPC   C1A76383  33.780  19.823   6.450
 9358POPC   D2A76384  33.774  19.794   6.750
 9358POPC   C3A76385  33.758  19.794   7.050
 9358POPC   C4A76386  33.765  19.876   7.350
 9358POPC   C1B76387  34.040  19.754   6.450
 9358POPC   C2B76388  34.004  19.820   6.750
 9358POPC   C3B76389  34.031  19.820   7.050
 9358POPC   C4B76390  34.051  19.818   7.350
 9359POPC   NC376391   5.062   7.440   5.550
 9359POPC   PO476392   5.093   7.416   5.850
 9359POPC   GL176393   5.137   7.403   6.150
 9359POPC   GL276394   5.252   7.462   6.150
 9359POPC   C1A76395   5.097   7.374   6.450
 9359POPC   D2A76396   5.137   7.464   6.750
 9359POPC   C3A76397   5.088   7.431   7.050
 9359POPC   C4A76398   5.139   7.456   7.350
 9359POPC   C1B76399   5.383   7.457   6.450
 9359POPC   C2B76400   5.318   7.447   6.750
 9359POPC   C3B76401   5.386   7.411   7.050
 9359POPC   C4B76402   5.313   7.422   7.350
 9360POPC   NC376403  14.453   1.251   5.550
 9360POPC   PO476404  14.370   1.252   5.850
 9360POPC   GL176405  14.376   1.194   6.150
 9360POPC   GL276406  14.276   1.162   6.150
 9360POPC   C1A76407  14.361   1.260   6.450
 9360POPC   D2A76408  14.409   1.177   6.750
 9360POPC   C3A76409  14.403   1.177   7.050
 9360POPC   C4A76410  14.402   1.227   7.350
 9360POPC   C1B76411  14.202   1.054   6.450
 9360POPC   C2B76412  14.198   1.045   6.750
 9360POPC   C3B76413  14.212   1.024   7.050
 9360POPC   C4B76414  14.232   1.029   7.350
 9361POPC   NC376415  26.829  33.783   5.550
 9361POPC   PO476416  26.773  33.765   5.850
 9361POPC   GL176417  26.822  33.795   6.150
 9361POPC   GL276418  26.800  33.938   6.150
 9361POPC   C1A76419  26.817  33.846   6.450
 9361POPC   D2A76420  26.834  33.774   6.750
 9361POPC   C3A76421  26.822  33.763   7.050
 9361POPC   C4A76422  26.810  33.754   7.350
 9361POPC   C1B76423  26.715  34.037   6.450
 9361POPC   C2B76424  26.725  34.033   6.750
 9361POPC   C3B76425  26.734  34.018   7.050
 9361POPC   C4B76426  26.738  33.977   7.350
 9362POPC   NC376427  44.636  43.847   5.550
 9362POPC   PO476428  44.671  43.919   5.850
 9362POPC   GL176429  44.670  43.916   6.150
 9362POPC   GL276430  44.625  44.044   6.150
 9362POPC   C1A76431  44.617  43.853   6.450
 9362POPC   D2A76432  44.694  43.921   6.750
 9362POPC   C3A76433  44.661  43.894   7.050
 9362POPC   C4A76434  44.668  43.851   7.350
 9362POPC   C1B76435  44.566  44.130   6.450
 9362POPC   C2B76436  44.651  44.174   6.750
 9362POPC   C3B76437  44.552  44.117   7.050
 9362POPC   C4B76438  44.591  44.170   7.350
 9363POPC   NC376439  12.810  11.306   5.550
 9363POPC   PO476440  12.863  11.312   5.850
 9363POPC   GL176441  12.886  11.325   6.150
 9363POPC   GL276442  12.733  11.387   6.150
 9363POPC   C1A76443  12.810  11.267   6.450
 9363POPC   D2A76444  12.822  11.344   6.750
 9363POPC   C3A76445  12.835  11.316   7.050
 9363POPC   C4A76446  12.803  11.299   7.350
 9363POPC   C1B76447  12.603  11.396   6.450
 9363POPC   C2B76448  12.598  11.358   6.750
 9363POPC   C3B76449  12.581  11.383   7.050
 9363POPC   C4B76450  12.577  11.368   7.350
 9364POPC   NC376451  31.425   6.690   5.550
 9364POPC   PO476452  31.427   6.644   5.850
 9364POPC   GL176453  31.463   6.615   6.150
 9364POPC   GL276454  31.593   6.639   6.150
 9364POPC   C1A76455  31.444   6.609   6.450
 9364POPC   D2A76456  31.432   6.614   6.750
 9364POPC   C3A76457  31.507   6.639   7.050
 9364POPC   C4A76458  31.479   6.600   7.350
 9364POPC   C1B76459  31.732   6.711   6.450
 9364POPC   C2B76460  31.756   6.667   6.750
 9364POPC   C3B76461  31.737   6.700   7.050
 9364POPC   C4B76462  31.676   6.690   7.350
 9365POPC   NC376463  41.553  40.746   5.550
 9365POPC   PO476464  41.605  40.765   5.850
 9365POPC   GL176465  41.591  40.801   6.150
 9365POPC   GL276466  41.478  40.915   6.150
 9365POPC   C1A76467  41.521  40.778   6.450
 9365POPC   D2A76468  41.576  40.756   6.750
 9365POPC   C3A76469  41.548  40.758   7.050
 9365POPC   C4A76470  41.515  40.768   7.350
 9365POPC   C1B76471  41.425  41.022   6.450
 9365POPC   C2B76472  41.439  40.999   6.750
 9365POPC   C3B76473  41.387  41.034   7.050
 9365POPC   C4B76474  41.436  40.959   7.350
 9366POPC   NC376475   9.737   3.538   5.550
 9366POPC   PO476476   9.753   3.533   5.850
 9366POPC   GL176477   9.750   3.552   6.150
 9366POPC   GL276478   9.662   3.659   6.150
 9366POPC   C1A76479   9.722   3.519   6.450
 9366POPC   D2A76480   9.751   3.545   6.750
 9366POPC   C3A76481   9.729   3.534   7.050
 9366POPC   C4A76482   9.759   3.573   7.350
 9366POPC   C1B76483   9.547   3.680   6.450
 9366POPC   C2B76484   9.538   3.722   6.750
 9366POPC   C3B76485   9.560   3.733   7.050
 9366POPC   C4B76486   9.554   3.735   7.350
 9367POPC   NC376487  39.970  22.142   5.550
 9367POPC   PO476488  40.048  22.206   5.850
 9367POPC   GL176489  40.044  22.206   6.150
 9367POPC   GL276490  40.142  22.225   6.150
 9367POPC   C1A76491  39.999  22.143   6.450
 9367POPC   D2A76492  39.985  22.121   6.750
 9367POPC   C3A76493  39.966  22.193   7.050
 9367POPC   C4A76494  40.036  22.166   7.350
 9367POPC   C1B76495  40.219  22.213   6.450
 9367POPC   C2B76496  40.233  22.185   6.750
 9367POPC   C3B76497  40.205  22.200   7.050
 9367POPC   C4B76498  40.214  22.168   7.350
 9368POPC   NC376499  19.855  27.605   5.550
 9368POPC   PO476500  19.796  27.547   5.850
 9368POPC   GL176501  19.843  27.623   6.150
 9368POPC   GL276502  19.939  27.665   6.150
 9368POPC   C1A76503  19.815  27.623   6.450
 9368POPC   D2A76504  19.829  27.553   6.750
 9368POPC   C3A76505  19.858  27.559   7.050
 9368POPC   C4A76506  19.832  27.609   7.350
 9368POPC   C1B76507  20.042  27.721   6.450
 9368POPC   C2B76508  19.988  27.801   6.750
 9368POPC   C3B76509  20.031  27.745   7.050
 9368POPC   C4B76510  20.018  27.796   7.350
 9369POPC   NC376511   3.558  17.535   5.550
 9369POPC   PO476512   3.520  17.535   5.850
 9369POPC   GL176513   3.548  17.479   6.150
 9369POPC   GL276514   3.626  17.542   6.150
 9369POPC   C1A76515   3.564  17.505   6.450
 9369POPC   D2A76516   3.565  17.517   6.750
 9369POPC   C3A76517   3.583  17.522   7.050
 9369POPC   C4A76518   3.496  17.482   7.350
 9369POPC   C1B76519   3.806  17.647   6.450
 9369POPC   C2B76520   3.758  17.661   6.750
 9369POPC   C3B76521   3.743  17.586   7.050
 9369POPC   C4B76522   3.765  17.593   7.350
 9370POPC   NC376523   0.455  25.308   5.550
 9370POPC   PO476524   0.420  25.291   5.850
 9370POPC   GL176525   0.472  25.253   6.150
 9370POPC   GL276526   0.606  25.236   6.150
 9370POPC   C1A76527   0.432  25.267   6.450
 9370POPC   D2A76528   0.483  25.297   6.750
 9370POPC   C3A76529   0.447  25.265   7.050
 9370POPC   C4A76530   0.405  25.298   7.350
 9370POPC   C1B76531   0.658  25.172   6.450
 9370POPC   C2B76532   0.703  25.145   6.750
 9370POPC   C3B76533   0.660  25.165   7.050
 9370POPC   C4B76534   0.654  25.220   7.350
 9371POPC   NC376535  12.803   6.672   5.550
 9371POPC   PO476536  12.870   6.691   5.850
 9371POPC   GL176537  12.848   6.633   6.150
 9371POPC   GL276538  13.015   6.718   6.150
 9371POPC   C1A76539  12.814   6.648   6.450
 9371POPC   D2A76540  12.835   6.604   6.750
 9371POPC   C3A76541  12.823   6.608   7.050
 9371POPC   C4A76542  12.819   6.655   7.350
 9371POPC   C1B76543  13.070   6.741   6.450
 9371POPC   C2B76544  13.127   6.667   6.750
 9371POPC   C3B76545  13.093   6.717   7.050
 9371POPC   C4B76546  13.051   6.674   7.350
 9372POPC   NC376547  21.432  22.194   5.550
 9372POPC   PO476548  21.379  22.181   5.850
 9372POPC   GL176549  21.426  22.209   6.150
 9372POPC   GL276550  21.485  22.242   6.150
 9372POPC   C1A76551  21.373  22.116   6.450
 9372POPC   D2A76552  21.434  22.179   6.750
 9372POPC   C3A76553  21.422  22.166   7.050
 9372POPC   C4A76554  21.361  22.169   7.350
 9372POPC   C1B76555  21.580  22.341   6.450
 9372POPC   C2B76556  21.574  22.335   6.750
 9372POPC   C3B76557  21.579  22.293   7.050
 9372POPC   C4B76558  21.542  22.352   7.350
 9373POPC   NC376559  37.643  34.625   5.550
 9373POPC   PO476560  37.629  34.536   5.850
 9373POPC   GL176561  37.703  34.557   6.150
 9373POPC   GL276562  37.588  34.637   6.150
 9373POPC   C1A76563  37.726  34.560   6.450
 9373POPC   D2A76564  37.705  34.602   6.750
 9373POPC   C3A76565  37.637  34.622   7.050
 9373POPC   C4A76566  37.706  34.544   7.350
 9373POPC   C1B76567  37.466  34.724   6.450
 9373POPC   C2B76568  37.489  34.757   6.750
 9373POPC   C3B76569  37.486  34.769   7.050
 9373POPC   C4B76570  37.504  34.758   7.350
 9374POPC   NC376571  20.641  28.388   5.550
 9374POPC   PO476572  20.562  28.351   5.850
 9374POPC   GL176573  20.658  28.346   6.150
 9374POPC   GL276574  20.741  28.411   6.150
 9374POPC   C1A76575  20.601  28.349   6.450
 9374POPC   D2A76576  20.581  28.356   6.750
 9374POPC   C3A76577  20.569  28.409   7.050
 9374POPC   C4A76578  20.630  28.345   7.350
 9374POPC   C1B76579  20.761  28.525   6.450
 9374POPC   C2B76580  20.778  28.509   6.750
 9374POPC   C3B76581  20.757  28.548   7.050
 9374POPC   C4B76582  20.825  28.567   7.350
 9375POPC   NC376583  21.411   3.529   5.550
 9375POPC   PO476584  21.339   3.575   5.850
 9375POPC   GL176585  21.370   3.589   6.150
 9375POPC   GL276586  21.390   3.700   6.150
 9375POPC   C1A76587  21.401   3.503   6.450
 9375POPC   D2A76588  21.415   3.583   6.750
 9375POPC   C3A76589  21.349   3.503   7.050
 9375POPC   C4A76590  21.353   3.493   7.350
 9375POPC   C1B76591  21.331   3.816   6.450
 9375POPC   C2B76592  21.319   3.796   6.750
 9375POPC   C3B76593  21.345   3.733   7.050
 9375POPC   C4B76594  21.354   3.832   7.350
 9376POPC   NC376595  26.835  26.029   5.550
 9376POPC   PO476596  26.822  26.052   5.850
 9376POPC   GL176597  26.781  26.012   6.150
 9376POPC   GL276598  26.895  26.088   6.150
 9376POPC   C1A76599  26.797  25.998   6.450
 9376POPC   D2A76600  26.787  26.048   6.750
 9376POPC   C3A76601  26.810  26.026   7.050
 9376POPC   C4A76602  26.839  26.028   7.350
 9376POPC   C1B76603  27.054  26.055   6.450
 9376POPC   C2B76604  27.062  26.032   6.750
 9376POPC   C3B76605  27.040  26.036   7.050
 9376POPC   C4B76606  27.040  26.041   7.350
 9377POPC   NC376607  34.576  43.905   5.550
 9377POPC   PO476608  34.568  43.903   5.850
 9377POPC   GL176609  34.567  43.863   6.150
 9377POPC   GL276610  34.529  44.010   6.150
 9377POPC   C1A76611  34.609  43.929   6.450
 9377POPC   D2A76612  34.603  43.923   6.750
 9377POPC   C3A76613  34.575  43.885   7.050
 9377POPC   C4A76614  34.570  43.902   7.350
 9377POPC   C1B76615  34.472  44.051   6.450
 9377POPC   C2B76616  34.448  44.078   6.750
 9377POPC   C3B76617  34.428  44.103   7.050
 9377POPC   C4B76618  34.446  44.137   7.350
 9378POPC   NC376619  33.816  32.998   5.550
 9378POPC   PO476620  33.831  33.072   5.850
 9378POPC   GL176621  33.764  32.976   6.150
 9378POPC   GL276622  33.716  32.992   6.150
 9378POPC   C1A76623  33.773  33.015   6.450
 9378POPC   D2A76624  33.810  32.990   6.750
 9378POPC   C3A76625  33.759  32.989   7.050
 9378POPC   C4A76626  33.820  33.063   7.350
 9378POPC   C1B76627  33.609  32.884   6.450
 9378POPC   C2B76628  33.584  32.919   6.750
 9378POPC   C3B76629  33.549  32.928   7.050
 9378POPC   C4B76630  33.564  32.885   7.350
 9379POPC   NC376631   9.795  39.264   5.550
 9379POPC   PO476632   9.727  39.238   5.850
 9379POPC   GL176633   9.737  39.229   6.150
 9379POPC   GL276634   9.608  39.154   6.150
 9379POPC   C1A76635   9.722  39.213   6.450
 9379POPC   D2A76636   9.774  39.259   6.750
 9379POPC   C3A76637   9.769  39.280   7.050
 9379POPC   C4A76638   9.771  39.206   7.350
 9379POPC   C1B76639   9.559  39.122   6.450
 9379POPC   C2B76640   9.530  39.072   6.750
 9379POPC   C3B76641   9.548  39.107   7.050
 9379POPC   C4B76642   9.547  39.117   7.350
 9380POPC   NC376643  33.845  24.483   5.550
 9380POPC   PO476644  33.803  24.468   5.850
 9380POPC   GL176645  33.765  24.528   6.150
 9380POPC   GL276646  33.956  24.476   6.150
 9380POPC   C1A76647  33.829  24.515   6.450
 9380POPC   D2A76648  33.765  24.525   6.750
 9380POPC   C3A76649  33.839  24.524   7.050
 9380POPC   C4A76650  33.751  24.472   7.350
 9380POPC   C1B76651  34.078  24.444   6.450
 9380POPC   C2B76652  34.021  24.481   6.750
 9380POPC   C3B76653  34.021  24.470   7.050
 9380POPC   C4B76654  34.029  24.505   7.350
 9381POPC   NC376655  23.760  42.374   5.550
 9381POPC   PO476656  23.678  42.357   5.850
 9381POPC   GL176657  23.732  42.319   6.150
 9381POPC   GL276658  23.687  42.197   6.150
 9381POPC   C1A76659  23.711  42.356   6.450
 9381POPC   D2A76660  23.677  42.324   6.750
 9381POPC   C3A76661  23.711  42.353   7.050
 9381POPC   C4A76662  23.721  42.286   7.350
 9381POPC   C1B76663  23.768  42.135   6.450
 9381POPC   C2B76664  23.714  42.061   6.750
 9381POPC   C3B76665  23.709  42.124   7.050
 9381POPC   C4B76666  23.745  42.112   7.350
 9382POPC   NC376667  19.068  35.322   5.550
 9382POPC   PO476668  19.070  35.351   5.850
 9382POPC   GL176669  19.047  35.310   6.150
 9382POPC   GL276670  19.124  35.425   6.150
 9382POPC   C1A76671  19.033  35.311   6.450
 9382POPC   D2A76672  19.098  35.398   6.750
 9382POPC   C3A76673  19.032  35.334   7.050
 9382POPC   C4A76674  19.058  35.370   7.350
 9382POPC   C1B76675  19.207  35.579   6.450
 9382POPC   C2B76676  19.193  35.564   6.750
 9382POPC   C3B76677  19.194  35.488   7.050
 9382POPC   C4B76678  19.198  35.508   7.350
 9383POPC   NC376679  12.823  18.327   5.550
 9383POPC   PO476680  12.838  18.288   5.850
 9383POPC   GL176681  12.863  18.330   6.150
 9383POPC   GL276682  12.909  18.369   6.150
 9383POPC   C1A76683  12.892  18.243   6.450
 9383POPC   D2A76684  12.866  18.283   6.750
 9383POPC   C3A76685  12.845  18.289   7.050
 9383POPC   C4A76686  12.816  18.258   7.350
 9383POPC   C1B76687  12.861  18.564   6.450
 9383POPC   C2B76688  12.853  18.488   6.750
 9383POPC   C3B76689  12.904  18.561   7.050
 9383POPC   C4B76690  12.867  18.531   7.350
 9384POPC   NC376691  37.701  17.503   5.550
 9384POPC   PO476692  37.630  17.476   5.850
 9384POPC   GL176693  37.633  17.472   6.150
 9384POPC   GL276694  37.623  17.362   6.150
 9384POPC   C1A76695  37.645  17.514   6.450
 9384POPC   D2A76696  37.666  17.465   6.750
 9384POPC   C3A76697  37.728  17.506   7.050
 9384POPC   C4A76698  37.647  17.520   7.350
 9384POPC   C1B76699  37.570  17.284   6.450
 9384POPC   C2B76700  37.551  17.293   6.750
 9384POPC   C3B76701  37.562  17.311   7.050
 9384POPC   C4B76702  37.554  17.266   7.350
 9385POPC   NC376703  20.646   1.959   5.550
 9385POPC   PO476704  20.625   2.017   5.850
 9385POPC   GL176705  20.633   2.031   6.150
 9385POPC   GL276706  20.685   2.032   6.150
 9385POPC   C1A76707  20.575   2.006   6.450
 9385POPC   D2A76708  20.635   2.022   6.750
 9385POPC   C3A76709  20.591   1.999   7.050
 9385POPC   C4A76710  20.657   1.985   7.350
 9385POPC   C1B76711  20.816   2.133   6.450
 9385POPC   C2B76712  20.842   2.164   6.750
 9385POPC   C3B76713  20.828   2.165   7.050
 9385POPC   C4B76714  20.848   2.128   7.350
 9386POPC   NC376715  28.403   5.915   5.550
 9386POPC   PO476716  28.383   5.898   5.850
 9386POPC   GL176717  28.403   5.878   6.150
 9386POPC   GL276718  28.413   6.001   6.150
 9386POPC   C1A76719  28.345   5.857   6.450
 9386POPC   D2A76720  28.397   5.839   6.750
 9386POPC   C3A76721  28.393   5.918   7.050
 9386POPC   C4A76722  28.365   5.904   7.350
 9386POPC   C1B76723  28.462   6.113   6.450
 9386POPC   C2B76724  28.461   6.134   6.750
 9386POPC   C3B76725  28.437   6.058   7.050
 9386POPC   C4B76726  28.472   6.120   7.350
 9387POPC   NC376727  40.038  18.329   5.550
 9387POPC   PO476728  40.019  18.331   5.850
 9387POPC   GL176729  40.005  18.274   6.150
 9387POPC   GL276730  39.943  18.368   6.150
 9387POPC   C1A76731  40.047  18.259   6.450
 9387POPC   D2A76732  40.024  18.294   6.750
 9387POPC   C3A76733  39.977  18.309   7.050
 9387POPC   C4A76734  39.973  18.298   7.350
 9387POPC   C1B76735  39.841  18.476   6.450
 9387POPC   C2B76736  39.799  18.484   6.750
 9387POPC   C3B76737  39.788  18.463   7.050
 9387POPC   C4B76738  39.880  18.465   7.350
 9388POPC   NC376739  32.231   9.722   5.550
 9388POPC   PO476740  32.272   9.781   5.850
 9388POPC   GL176741  32.295   9.778   6.150
 9388POPC   GL276742  32.383   9.759   6.150
 9388POPC   C1A76743  32.224   9.746   6.450
 9388POPC   D2A76744  32.277   9.715   6.750
 9388POPC   C3A76745  32.253   9.788   7.050
 9388POPC   C4A76746  32.221   9.732   7.350
 9388POPC   C1B76747  32.540   9.778   6.450
 9388POPC   C2B76748  32.526   9.720   6.750
 9388POPC   C3B76749  32.461   9.754   7.050
 9388POPC   C4B76750  32.475   9.772   7.350
 9389POPC   NC376751   2.023   1.246   5.550
 9389POPC   PO476752   2.038   1.235   5.850
 9389POPC   GL176753   1.998   1.234   6.150
 9389POPC   GL276754   1.850   1.258   6.150
 9389POPC   C1A76755   2.024   1.169   6.450
 9389POPC   D2A76756   1.946   1.184   6.750
 9389POPC   C3A76757   2.001   1.223   7.050
 9389POPC   C4A76758   2.007   1.224   7.350
 9389POPC   C1B76759   1.770   1.208   6.450
 9389POPC   C2B76760   1.708   1.202   6.750
 9389POPC   C3B76761   1.762   1.207   7.050
 9389POPC   C4B76762   1.733   1.209   7.350
 9390POPC   NC376763  31.440  11.344   5.550
 9390POPC   PO476764  31.488  11.314   5.850
 9390POPC   GL176765  31.494  11.296   6.150
 9390POPC   GL276766  31.335  11.257   6.150
 9390POPC   C1A76767  31.447  11.282   6.450
 9390POPC   D2A76768  31.468  11.272   6.750
 9390POPC   C3A76769  31.490  11.308   7.050
 9390POPC   C4A76770  31.434  11.346   7.350
 9390POPC   C1B76771  31.253  11.231   6.450
 9390POPC   C2B76772  31.266  11.199   6.750
 9390POPC   C3B76773  31.234  11.181   7.050
 9390POPC   C4B76774  31.252  11.142   7.350
 9391POPC   NC376775  23.666  37.683   5.550
 9391POPC   PO476776  23.681  37.682   5.850
 9391POPC   GL176777  23.666  37.659   6.150
 9391POPC   GL276778  23.789  37.747   6.150
 9391POPC   C1A76779  23.758  37.659   6.450
 9391POPC   D2A76780  23.721  37.665   6.750
 9391POPC   C3A76781  23.713  37.724   7.050
 9391POPC   C4A76782  23.668  37.668   7.350
 9391POPC   C1B76783  23.814  37.901   6.450
 9391POPC   C2B76784  23.849  37.895   6.750
 9391POPC   C3B76785  23.846  37.891   7.050
 9391POPC   C4B76786  23.798  37.897   7.350
 9392POPC   NC376787  28.322   5.127   5.550
 9392POPC   PO476788  28.325   5.056   5.850
 9392POPC   GL176789  28.336   5.127   6.150
 9392POPC   GL276790  28.272   5.113   6.150
 9392POPC   C1A76791  28.391   5.071   6.450
 9392POPC   D2A76792  28.335   5.118   6.750
 9392POPC   C3A76793  28.394   5.095   7.050
 9392POPC   C4A76794  28.388   5.052   7.350
 9392POPC   C1B76795  28.117   5.067   6.450
 9392POPC   C2B76796  28.135   5.004   6.750
 9392POPC   C3B76797  28.158   5.005   7.050
 9392POPC   C4B76798  28.119   5.078   7.350
 9393POPC   NC376799  17.511  33.801   5.550
 9393POPC   PO476800  17.498  33.819   5.850
 9393POPC   GL176801  17.522  33.765   6.150
 9393POPC   GL276802  17.439  33.723   6.150
 9393POPC   C1A76803  17.470  33.793   6.450
 9393POPC   D2A76804  17.540  33.797   6.750
 9393POPC   C3A76805  17.461  33.786   7.050
 9393POPC   C4A76806  17.547  33.785   7.350
 9393POPC   C1B76807  17.399  33.573   6.450
 9393POPC   C2B76808  17.404  33.607   6.750
 9393POPC   C3B76809  17.405  33.538   7.050
 9393POPC   C4B76810  17.364  33.624   7.350
 9394POPC   NC376811  43.098  20.585   5.550
 9394POPC   PO476812  43.141  20.593   5.850
 9394POPC   GL176813  43.085  20.599   6.150
 9394POPC   GL276814  43.004  20.689   6.150
 9394POPC   C1A76815  43.090  20.646   6.450
 9394POPC   D2A76816  43.131  20.582   6.750
 9394POPC   C3A76817  43.072  20.634   7.050
 9394POPC   C4A76818  43.132  20.570   7.350
 9394POPC   C1B76819  42.991  20.774   6.450
 9394POPC   C2B76820  42.943  20.808   6.750
 9394POPC   C3B76821  42.985  20.844   7.050
 9394POPC   C4B76822  42.916  20.822   7.350
 9395POPC   NC376823  14.395  25.297   5.550
 9395POPC   PO476824  14.402  25.219   5.850
 9395POPC   GL176825  14.448  25.229   6.150
 9395POPC   GL276826  14.348  25.411   6.150
 9395POPC   C1A76827  14.420  25.241   6.450
 9395POPC   D2A76828  14.364  25.263   6.750
 9395POPC   C3A76829  14.396  25.268   7.050
 9395POPC   C4A76830  14.453  25.224   7.350
 9395POPC   C1B76831  14.378  25.560   6.450
 9395POPC   C2B76832  14.380  25.552   6.750
 9395POPC   C3B76833  14.347  25.481   7.050
 9395POPC   C4B76834  14.392  25.550   7.350
 9396POPC   NC376835  19.790  32.234   5.550
 9396POPC   PO476836  19.824  32.242   5.850
 9396POPC   GL176837  19.823  32.247   6.150
 9396POPC   GL276838  19.829  32.340   6.150
 9396POPC   C1A76839  19.839  32.267   6.450
 9396POPC   D2A76840  19.874  32.252   6.750
 9396POPC   C3A76841  19.823  32.208   7.050
 9396POPC   C4A76842  19.854  32.271   7.350
 9396POPC   C1B76843  19.835  32.482   6.450
 9396POPC   C2B76844  19.803  32.538   6.750
 9396POPC   C3B76845  19.825  32.511   7.050
 9396POPC   C4B76846  19.803  32.477   7.350
 9397POPC   NC376847  17.473   5.832   5.550
 9397POPC   PO476848  17.496   5.838   5.850
 9397POPC   GL176849  17.545   5.854   6.150
 9397POPC   GL276850  17.536   5.710   6.150
 9397POPC   C1A76851  17.458   5.875   6.450
 9397POPC   D2A76852  17.482   5.851   6.750
 9397POPC   C3A76853  17.516   5.861   7.050
 9397POPC   C4A76854  17.537   5.849   7.350
 9397POPC   C1B76855  17.580   5.683   6.450
 9397POPC   C2B76856  17.584   5.672   6.750
 9397POPC   C3B76857  17.648   5.673   7.050
 9397POPC   C4B76858  17.639   5.660   7.350
 9398POPC   NC376859   8.974  27.584   5.550
 9398POPC   PO476860   9.015  27.610   5.850
 9398POPC   GL176861   9.021  27.623   6.150
 9398POPC   GL276862   8.924  27.731   6.150
 9398POPC   C1A76863   8.931  27.642   6.450
 9398POPC   D2A76864   9.018  27.624   6.750
 9398POPC   C3A76865   8.977  27.636   7.050
 9398POPC   C4A76866   8.974  27.611   7.350
 9398POPC   C1B76867   8.773  27.830   6.450
 9398POPC   C2B76868   8.812  27.833   6.750
 9398POPC   C3B76869   8.827  27.745   7.050
 9398POPC   C4B76870   8.819  27.805   7.350
 9399POPC   NC376871  14.420  12.056   5.550
 9399POPC   PO476872  14.385  12.087   5.850
 9399POPC   GL176873  14.403  12.055   6.150
 9399POPC   GL276874  14.312  12.117   6.150
 9399POPC   C1A76875  14.411  12.033   6.450
 9399POPC   D2A76876  14.395  12.048   6.750
 9399POPC   C3A76877  14.406  12.097   7.050
 9399POPC   C4A76878  14.372  12.090   7.350
 9399POPC   C1B76879  14.179  12.111   6.450
 9399POPC   C2B76880  14.180  12.184   6.750
 9399POPC   C3B76881  14.205  12.125   7.050
 9399POPC   C4B76882  14.210  12.178   7.350
 9400POPC   NC376883  26.033  13.583   5.550
 9400POPC   PO476884  26.002  13.657   5.850
 9400POPC   GL176885  26.055  13.590   6.150
 9400POPC   GL276886  26.132  13.682   6.150
 9400POPC   C1A76887  26.069  13.655   6.450
 9400POPC   D2A76888  26.025  13.598   6.750
 9400POPC   C3A76889  26.042  13.653   7.050
 9400POPC   C4A76890  26.057  13.580   7.350
 9400POPC   C1B76891  26.283  13.727   6.450
 9400POPC   C2B76892  26.311  13.653   6.750
 9400POPC   C3B76893  26.332  13.712   7.050
 9400POPC   C4B76894  26.267  13.692   7.350
 9401POPC   NC376895  15.181   6.636   5.550
 9401POPC   PO476896  15.160   6.636   5.850
 9401POPC   GL176897  15.208   6.676   6.150
 9401POPC   GL276898  15.057   6.560   6.150
 9401POPC   C1A76899  15.226   6.659   6.450
 9401POPC   D2A76900  15.142   6.637   6.750
 9401POPC   C3A76901  15.217   6.640   7.050
 9401POPC   C4A76902  15.158   6.598   7.350
 9401POPC   C1B76903  14.944   6.527   6.450
 9401POPC   C2B76904  15.018   6.543   6.750
 9401POPC   C3B76905  14.922   6.495   7.050
 9401POPC   C4B76906  14.962   6.519   7.350
 9402POPC   NC376907   0.466  22.201   5.550
 9402POPC   PO476908   0.412  22.139   5.850
 9402POPC   GL176909   0.474  22.210   6.150
 9402POPC   GL276910   0.501  22.246   6.150
 9402POPC   C1A76911   0.392  22.193   6.450
 9402POPC   D2A76912   0.417  22.132   6.750
 9402POPC   C3A76913   0.440  22.184   7.050
 9402POPC   C4A76914   0.423  22.132   7.350
 9402POPC   C1B76915   0.659  22.247   6.450
 9402POPC   C2B76916   0.649  22.245   6.750
 9402POPC   C3B76917   0.670  22.281   7.050
 9402POPC   C4B76918   0.691  22.290   7.350
 9403POPC   NC376919  38.470  29.934   5.550
 9403POPC   PO476920  38.448  29.960   5.850
 9403POPC   GL176921  38.442  29.947   6.150
 9403POPC   GL276922  38.591  29.861   6.150
 9403POPC   C1A76923  38.435  29.948   6.450
 9403POPC   D2A76924  38.483  29.931   6.750
 9403POPC   C3A76925  38.484  29.901   7.050
 9403POPC   C4A76926  38.437  29.968   7.350
 9403POPC   C1B76927  38.661  29.766   6.450
 9403POPC   C2B76928  38.612  29.786   6.750
 9403POPC   C3B76929  38.641  29.821   7.050
 9403POPC   C4B76930  38.637  29.742   7.350
 9404POPC   NC376931  31.509   9.753   5.550
 9404POPC   PO476932  31.460   9.739   5.850
 9404POPC   GL176933  31.515   9.710   6.150
 9404POPC   GL276934  31.567   9.760   6.150
 9404POPC   C1A76935  31.455   9.745   6.450
 9404POPC   D2A76936  31.504   9.768   6.750
 9404POPC   C3A76937  31.520   9.707   7.050
 9404POPC   C4A76938  31.497   9.757   7.350
 9404POPC   C1B76939  31.732   9.739   6.450
 9404POPC   C2B76940  31.747   9.714   6.750
 9404POPC   C3B76941  31.768   9.787   7.050
 9404POPC   C4B76942  31.725   9.703   7.350
 9405POPC   NC376943  26.848  12.080   5.550
 9405POPC   PO476944  26.772  12.124   5.850
 9405POPC   GL176945  26.824  12.075   6.150
 9405POPC   GL276946  26.831  12.176   6.150
 9405POPC   C1A76947  26.831  12.050   6.450
 9405POPC   D2A76948  26.837  12.066   6.750
 9405POPC   C3A76949  26.818  12.061   7.050
 9405POPC   C4A76950  26.819  12.033   7.350
 9405POPC   C1B76951  26.817  12.307   6.450
 9405POPC   C2B76952  26.805  12.335   6.750
 9405POPC   C3B76953  26.846  12.317   7.050
 9405POPC   C4B76954  26.784  12.282   7.350
 9406POPC   NC376955   5.883  39.210   5.550
 9406POPC   PO476956   5.835  39.186   5.850
 9406POPC   GL176957   5.878  39.265   6.150
 9406POPC   GL276958   6.000  39.346   6.150
 9406POPC   C1A76959   5.911  39.188   6.450
 9406POPC   D2A76960   5.821  39.251   6.750
 9406POPC   C3A76961   5.834  39.278   7.050
 9406POPC   C4A76962   5.854  39.184   7.350
 9406POPC   C1B76963   6.071  39.419   6.450
 9406POPC   C2B76964   6.109  39.347   6.750
 9406POPC   C3B76965   6.062  39.418   7.050
 9406POPC   C4B76966   6.087  39.430   7.350
 9407POPC   NC376967   7.463  36.951   5.550
 9407POPC   PO476968   7.409  36.915   5.850
 9407POPC   GL176969   7.465  36.932   6.150
 9407POPC   GL276970   7.557  36.938   6.150
 9407POPC   C1A76971   7.379  36.939   6.450
 9407POPC   D2A76972   7.385  36.918   6.750
 9407POPC   C3A76973   7.405  36.865   7.050
 9407POPC   C4A76974   7.391  36.936   7.350
 9407POPC   C1B76975   7.635  37.021   6.450
 9407POPC   C2B76976   7.659  37.034   6.750
 9407POPC   C3B76977   7.680  37.059   7.050
 9407POPC   C4B76978   7.618  37.017   7.350
 9408POPC   NC376979  17.510  44.631   5.550
 9408POPC   PO476980  17.467  44.655   5.850
 9408POPC   GL176981  17.499  44.634   6.150
 9408POPC   GL276982  17.359  44.643   6.150
 9408POPC   C1A76983  17.481  44.651   6.450
 9408POPC   D2A76984  17.555  44.707   6.750
 9408POPC   C3A76985  17.515  44.698   7.050
 9408POPC   C4A76986  17.534  44.660   7.350
 9408POPC   C1B76987  17.256  44.660   6.450
 9408POPC   C2B76988  17.291  44.635   6.750
 9408POPC   C3B76989  17.303  44.699   7.050
 9408POPC   C4B76990  17.290  44.692   7.350
 9409POPC   NC376991  29.915  27.566   5.550
 9409POPC   PO476992  29.945  27.606   5.850
 9409POPC   GL176993  29.937  27.631   6.150
 9409POPC   GL276994  29.860  27.471   6.150
 9409POPC   C1A76995  29.935  27.577   6.450
 9409POPC   D2A76996  29.904  27.614   6.750
 9409POPC   C3A76997  29.955  27.605   7.050
 9409POPC   C4A76998  29.891  27.630   7.350
 9409POPC   C1B76999  29.845  27.343   6.450
 9409POPC   C2B77000  29.915  27.328   6.750
 9409POPC   C3B77001  29.893  27.314   7.050
 9409POPC   C4B77002  29.873  27.332   7.350
 9410POPC   NC377003  30.681  40.790   5.550
 9410POPC   PO477004  30.715  40.736   5.850
 9410POPC   GL177005  30.679  40.783   6.150
 9410POPC   GL277006  30.729  40.632   6.150
 9410POPC   C1A77007  30.704  40.817   6.450
 9410POPC   D2A77008  30.724  40.743   6.750
 9410POPC   C3A77009  30.741  40.815   7.050
 9410POPC   C4A77010  30.694  40.744   7.350
 9410POPC   C1B77011  30.714  40.524   6.450
 9410POPC   C2B77012  30.728  40.540   6.750
 9410POPC   C3B77013  30.798  40.573   7.050
 9410POPC   C4B77014  30.735  40.525   7.350
 9411POPC   NC377015  20.651  41.573   5.550
 9411POPC   PO477016  20.628  41.571   5.850
 9411POPC   GL177017  20.608  41.542   6.150
 9411POPC   GL277018  20.660  41.704   6.150
 9411POPC   C1A77019  20.618  41.517   6.450
 9411POPC   D2A77020  20.602  41.567   6.750
 9411POPC   C3A77021  20.641  41.561   7.050
 9411POPC   C4A77022  20.613  41.576   7.350
 9411POPC   C1B77023  20.738  41.798   6.450
 9411POPC   C2B77024  20.739  41.755   6.750
 9411POPC   C3B77025  20.745  41.779   7.050
 9411POPC   C4B77026  20.782  41.763   7.350
 9412POPC   NC377027  31.507  32.275   5.550
 9412POPC   PO477028  31.468  32.242   5.850
 9412POPC   GL177029  31.471  32.267   6.150
 9412POPC   GL277030  31.471  32.135   6.150
 9412POPC   C1A77031  31.500  32.292   6.450
 9412POPC   D2A77032  31.475  32.252   6.750
 9412POPC   C3A77033  31.492  32.284   7.050
 9412POPC   C4A77034  31.504  32.280   7.350
 9412POPC   C1B77035  31.419  32.012   6.450
 9412POPC   C2B77036  31.500  32.025   6.750
 9412POPC   C3B77037  31.457  32.037   7.050
 9412POPC   C4B77038  31.483  31.990   7.350
 9413POPC   NC377039  27.601  40.752   5.550
 9413POPC   PO477040  27.635  40.795   5.850
 9413POPC   GL177041  27.572  40.770   6.150
 9413POPC   GL277042  27.722  40.732   6.150
 9413POPC   C1A77043  27.622  40.825   6.450
 9413POPC   D2A77044  27.583  40.816   6.750
 9413POPC   C3A77045  27.576  40.753   7.050
 9413POPC   C4A77046  27.588  40.823   7.350
 9413POPC   C1B77047  27.830  40.738   6.450
 9413POPC   C2B77048  27.797  40.709   6.750
 9413POPC   C3B77049  27.879  40.719   7.050
 9413POPC   C4B77050  27.864  40.775   7.350
 9414POPC   NC377051  17.532   7.375   5.550
 9414POPC   PO477052  17.525   7.390   5.850
 9414POPC   GL177053  17.471   7.379   6.150
 9414POPC   GL277054  17.647   7.376   6.150
 9414POPC   C1A77055  17.540   7.466   6.450
 9414POPC   D2A77056  17.487   7.404   6.750
 9414POPC   C3A77057  17.493   7.381   7.050
 9414POPC   C4A77058  17.488   7.459   7.350
 9414POPC   C1B77059  17.727   7.307   6.450
 9414POPC   C2B77060  17.697   7.313   6.750
 9414POPC   C3B77061  17.745   7.310   7.050
 9414POPC   C4B77062  17.778   7.374   7.350
 9415POPC   NC377063  35.323  22.929   5.550
 9415POPC   PO477064  35.322  22.962   5.850
 9415POPC   GL177065  35.392  22.890   6.150
 9415POPC   GL277066  35.503  22.945   6.150
 9415POPC   C1A77067  35.343  22.910   6.450
 9415POPC   D2A77068  35.308  22.981   6.750
 9415POPC   C3A77069  35.355  22.940   7.050
 9415POPC   C4A77070  35.358  22.914   7.350
 9415POPC   C1B77071  35.619  22.958   6.450
 9415POPC   C2B77072  35.631  22.963   6.750
 9415POPC   C3B77073  35.603  22.972   7.050
 9415POPC   C4B77074  35.615  22.919   7.350
 9416POPC   NC377075  43.844  28.342   5.550
 9416POPC   PO477076  43.870  28.415   5.850
 9416POPC   GL177077  43.931  28.350   6.150
 9416POPC   GL277078  43.750  28.361   6.150
 9416POPC   C1A77079  43.836  28.385   6.450
 9416POPC   D2A77080  43.837  28.321   6.750
 9416POPC   C3A77081  43.871  28.332   7.050
 9416POPC   C4A77082  43.931  28.374   7.350
 9416POPC   C1B77083  43.631  28.415   6.450
 9416POPC   C2B77084  43.624  28.427   6.750
 9416POPC   C3B77085  43.662  28.429   7.050
 9416POPC   C4B77086  43.607  28.411   7.350
 9417POPC   NC377087   6.646  33.844   5.550
 9417POPC   PO477088   6.681  33.814   5.850
 9417POPC   GL177089   6.686  33.790   6.150
 9417POPC   GL277090   6.537  33.852   6.150
 9417POPC   C1A77091   6.640  33.757   6.450
 9417POPC   D2A77092   6.605  33.757   6.750
 9417POPC   C3A77093   6.623  33.759   7.050
 9417POPC   C4A77094   6.623  33.811   7.350
 9417POPC   C1B77095   6.351  33.807   6.450
 9417POPC   C2B77096   6.417  33.828   6.750
 9417POPC   C3B77097   6.400  33.891   7.050
 9417POPC   C4B77098   6.391  33.845   7.350
 9418POPC   NC377099  16.763   8.148   5.550
 9418POPC   PO477100  16.718   8.218   5.850
 9418POPC   GL177101  16.726   8.176   6.150
 9418POPC   GL277102  16.781   8.361   6.150
 9418POPC   C1A77103  16.753   8.204   6.450
 9418POPC   D2A77104  16.755   8.235   6.750
 9418POPC   C3A77105  16.776   8.151   7.050
 9418POPC   C4A77106  16.689   8.209   7.350
 9418POPC   C1B77107  16.809   8.472   6.450
 9418POPC   C2B77108  16.792   8.473   6.750
 9418POPC   C3B77109  16.744   8.403   7.050
 9418POPC   C4B77110  16.830   8.466   7.350
 9419POPC   NC377111  24.527  29.171   5.550
 9419POPC   PO477112  24.521  29.146   5.850
 9419POPC   GL177113  24.527  29.159   6.150
 9419POPC   GL277114  24.444  29.220   6.150
 9419POPC   C1A77115  24.468  29.098   6.450
 9419POPC   D2A77116  24.513  29.156   6.750
 9419POPC   C3A77117  24.453  29.136   7.050
 9419POPC   C4A77118  24.510  29.191   7.350
 9419POPC   C1B77119  24.357  29.421   6.450
 9419POPC   C2B77120  24.414  29.351   6.750
 9419POPC   C3B77121  24.412  29.372   7.050
 9419POPC   C4B77122  24.448  29.337   7.350
 9420POPC   NC377123   2.767  36.128   5.550
 9420POPC   PO477124   2.734  36.133   5.850
 9420POPC   GL177125   2.768  36.138   6.150
 9420POPC   GL277126   2.714  36.060   6.150
 9420POPC   C1A77127   2.810  36.110   6.450
 9420POPC   D2A77128   2.759  36.134   6.750
 9420POPC   C3A77129   2.731  36.083   7.050
 9420POPC   C4A77130   2.726  36.150   7.350
 9420POPC   C1B77131   2.669  35.880   6.450
 9420POPC   C2B77132   2.597  35.917   6.750
 9420POPC   C3B77133   2.652  35.960   7.050
 9420POPC   C4B77134   2.632  35.882   7.350
 9421POPC   NC377135  31.511  34.563   5.550
 9421POPC   PO477136  31.466  34.593   5.850
 9421POPC   GL177137  31.446  34.590   6.150
 9421POPC   GL277138  31.626  34.598   6.150
 9421POPC   C1A77139  31.451  34.560   6.450
 9421POPC   D2A77140  31.519  34.602   6.750
 9421POPC   C3A77141  31.502  34.596   7.050
 9421POPC   C4A77142  31.456  34.600   7.350
 9421POPC   C1B77143  31.766  34.567   6.450
 9421POPC   C2B77144  31.692  34.542   6.750
 9421POPC   C3B77145  31.676  34.610   7.050
 9421POPC   C4B77146  31.740  34.549   7.350
 9422POPC   NC377147  17.557  22.157   5.550
 9422POPC   PO477148  17.528  22.120   5.850
 9422POPC   GL177149  17.458  22.189   6.150
 9422POPC   GL277150  17.664  22.203   6.150
 9422POPC   C1A77151  17.552  22.130   6.450
 9422POPC   D2A77152  17.482  22.188   6.750
 9422POPC   C3A77153  17.521  22.135   7.050
 9422POPC   C4A77154  17.480  22.184   7.350
 9422POPC   C1B77155  17.759  22.203   6.450
 9422POPC   C2B77156  17.732  22.233   6.750
 9422POPC   C3B77157  17.706  22.238   7.050
 9422POPC   C4B77158  17.791  22.186   7.350
 9423POPC   NC377159  18.235  43.087   5.550
 9423POPC   PO477160  18.244  43.085   5.850
 9423POPC   GL177161  18.299  43.116   6.150
 9423POPC   GL277162  18.193  43.023   6.150
 9423POPC   C1A77163  18.295  43.159   6.450
 9423POPC   D2A77164  18.305  43.104   6.750
 9423POPC   C3A77165  18.295  43.100   7.050
 9423POPC   C4A77166  18.245  43.085   7.350
 9423POPC   C1B77167  18.016  43.004   6.450
 9423POPC   C2B77168  18.082  43.001   6.750
 9423POPC   C3B77169  18.051  43.003   7.050
 9423POPC   C4B77170  18.021  42.998   7.350
 9424POPC   NC377171  42.323   3.532   5.550
 9424POPC   PO477172  42.311   3.583   5.850
 9424POPC   GL177173  42.328   3.569   6.150
 9424POPC   GL277174  42.245   3.538   6.150
 9424POPC   C1A77175  42.295   3.520   6.450
 9424POPC   D2A77176  42.337   3.528   6.750
 9424POPC   C3A77177  42.305   3.516   7.050
 9424POPC   C4A77178  42.344   3.588   7.350
 9424POPC   C1B77179  42.069   3.543   6.450
 9424POPC   C2B77180  42.044   3.518   6.750
 9424POPC   C3B77181  42.043   3.485   7.050
 9424POPC   C4B77182  42.094   3.506   7.350
 9425POPC   NC377183  32.254  32.285   5.550
 9425POPC   PO477184  32.199  32.277   5.850
 9425POPC   GL177185  32.213  32.204   6.150
 9425POPC   GL277186  32.099  32.238   6.150
 9425POPC   C1A77187  32.257  32.219   6.450
 9425POPC   D2A77188  32.287  32.280   6.750
 9425POPC   C3A77189  32.239  32.272   7.050
 9425POPC   C4A77190  32.294  32.210   7.350
 9425POPC   C1B77191  31.973  32.230   6.450
 9425POPC   C2B77192  31.958  32.242   6.750
 9425POPC   C3B77193  31.953  32.266   7.050
 9425POPC   C4B77194  32.010  32.236   7.350
 9426POPC   NC377195  11.330  28.336   5.550
 9426POPC   PO477196  11.348  28.342   5.850
 9426POPC   GL177197  11.335  28.411   6.150
 9426POPC   GL277198  11.170  28.406   6.150
 9426POPC   C1A77199  11.293  28.398   6.450
 9426POPC   D2A77200  11.293  28.379   6.750
 9426POPC   C3A77201  11.350  28.343   7.050
 9426POPC   C4A77202  11.272  28.344   7.350
 9426POPC   C1B77203  11.112  28.553   6.450
 9426POPC   C2B77204  11.072  28.499   6.750
 9426POPC   C3B77205  11.135  28.526   7.050
 9426POPC   C4B77206  11.063  28.509   7.350
 9427POPC   NC377207  16.756  34.590   5.550
 9427POPC   PO477208  16.696  34.533   5.850
 9427POPC   GL177209  16.751  34.553   6.150
 9427POPC   GL277210  16.612  34.486   6.150
 9427POPC   C1A77211  16.682  34.586   6.450
 9427POPC   D2A77212  16.700  34.549   6.750
 9427POPC   C3A77213  16.688  34.615   7.050
 9427POPC   C4A77214  16.751  34.576   7.350
 9427POPC   C1B77215  16.585  34.407   6.450
 9427POPC   C2B77216  16.535  34.377   6.750
 9427POPC   C3B77217  16.572  34.415   7.050
 9427POPC   C4B77218  16.570  34.372   7.350
 9428POPC   NC377219   3.506  36.090   5.550
 9428POPC   PO477220   3.585  36.086   5.850
 9428POPC   GL177221   3.539  36.176   6.150
 9428POPC   GL277222   3.546  36.027   6.150
 9428POPC   C1A77223   3.498  36.152   6.450
 9428POPC   D2A77224   3.554  36.147   6.750
 9428POPC   C3A77225   3.502  36.132   7.050
 9428POPC   C4A77226   3.588  36.140   7.350
 9428POPC   C1B77227   3.617  35.856   6.450
 9428POPC   C2B77228   3.551  35.880   6.750
 9428POPC   C3B77229   3.559  35.839   7.050
 9428POPC   C4B77230   3.571  35.897   7.350
 9429POPC   NC377231  24.529  11.340   5.550
 9429POPC   PO477232  24.481  11.311   5.850
 9429POPC   GL177233  24.441  11.335   6.150
 9429POPC   GL277234  24.575  11.406   6.150
 9429POPC   C1A77235  24.462  11.296   6.450
 9429POPC   D2A77236  24.504  11.293   6.750
 9429POPC   C3A77237  24.462  11.272   7.050
 9429POPC   C4A77238  24.442  11.306   7.350
 9429POPC   C1B77239  24.686  11.475   6.450
 9429POPC   C2B77240  24.656  11.443   6.750
 9429POPC   C3B77241  24.661  11.460   7.050
 9429POPC   C4B77242  24.664  11.503   7.350
 9430POPC   NC377243  34.584  23.715   5.550
 9430POPC   PO477244  34.605  23.700   5.850
 9430POPC   GL177245  34.601  23.755   6.150
 9430POPC   GL277246  34.501  23.651   6.150
 9430POPC   C1A77247  34.567  23.735   6.450
 9430POPC   D2A77248  34.611  23.667   6.750
 9430POPC   C3A77249  34.613  23.713   7.050
 9430POPC   C4A77250  34.567  23.688   7.350
 9430POPC   C1B77251  34.310  23.708   6.450
 9430POPC   C2B77252  34.339  23.682   6.750
 9430POPC   C3B77253  34.315  23.692   7.050
 9430POPC   C4B77254  34.291  23.687   7.350
 9431POPC   NC377255  38.455  42.347   5.550
 9431POPC   PO477256  38.433  42.288   5.850
 9431POPC   GL177257  38.428  42.384   6.150
 9431POPC   GL277258  38.391  42.292   6.150
 9431POPC   C1A77259  38.406  42.310   6.450
 9431POPC   D2A77260  38.421  42.290   6.750
 9431POPC   C3A77261  38.498  42.315   7.050
 9431POPC   C4A77262  38.424  42.328   7.350
 9431POPC   C1B77263  38.195  42.243   6.450
 9431POPC   C2B77264  38.237  42.252   6.750
 9431POPC   C3B77265  38.271  42.217   7.050
 9431POPC   C4B77266  38.227  42.259   7.350
 9432POPC   NC377267   8.208  19.820   5.550
 9432POPC   PO477268   8.242  19.855   5.850
 9432POPC   GL177269   8.201  19.883   6.150
 9432POPC   GL277270   8.256  19.908   6.150
 9432POPC   C1A77271   8.183  19.881   6.450
 9432POPC   D2A77272   8.170  19.793   6.750
 9432POPC   C3A77273   8.198  19.796   7.050
 9432POPC   C4A77274   8.240  19.875   7.350
 9432POPC   C1B77275   8.380  19.968   6.450
 9432POPC   C2B77276   8.366  19.939   6.750
 9432POPC   C3B77277   8.410  20.016   7.050
 9432POPC   C4B77278   8.421  19.959   7.350
 9433POPC   NC377279  14.354  44.676   5.550
 9433POPC   PO477280  14.383  44.673   5.850
 9433POPC   GL177281  14.362  44.647   6.150
 9433POPC   GL277282  14.540  44.574   6.150
 9433POPC   C1A77283  14.434  44.684   6.450
 9433POPC   D2A77284  14.397  44.613   6.750
 9433POPC   C3A77285  14.416  44.704   7.050
 9433POPC   C4A77286  14.434  44.622   7.350
 9433POPC   C1B77287  14.601  44.562   6.450
 9433POPC   C2B77288  14.605  44.492   6.750
 9433POPC   C3B77289  14.572  44.567   7.050
 9433POPC   C4B77290  14.570  44.485   7.350
 9434POPC   NC377291  14.414  11.282   5.550
 9434POPC   PO477292  14.423  11.280   5.850
 9434POPC   GL177293  14.388  11.292   6.150
 9434POPC   GL277294  14.457  11.200   6.150
 9434POPC   C1A77295  14.417  11.254   6.450
 9434POPC   D2A77296  14.417  11.261   6.750
 9434POPC   C3A77297  14.444  11.289   7.050
 9434POPC   C4A77298  14.403  11.275   7.350
 9434POPC   C1B77299  14.561  11.171   6.450
 9434POPC   C2B77300  14.579  11.112   6.750
 9434POPC   C3B77301  14.597  11.175   7.050
 9434POPC   C4B77302  14.642  11.103   7.350
 9435POPC   NC377303   7.457  16.754   5.550
 9435POPC   PO477304   7.452  16.721   5.850
 9435POPC   GL177305   7.408  16.723   6.150
 9435POPC   GL277306   7.382  16.840   6.150
 9435POPC   C1A77307   7.452  16.748   6.450
 9435POPC   D2A77308   7.449  16.737   6.750
 9435POPC   C3A77309   7.385  16.708   7.050
 9435POPC   C4A77310   7.397  16.754   7.350
 9435POPC   C1B77311   7.393  16.947   6.450
 9435POPC   C2B77312   7.408  16.941   6.750
 9435POPC   C3B77313   7.457  17.003   7.050
 9435POPC   C4B77314   7.417  16.978   7.350
 9436POPC   NC377315   8.994  40.824   5.550
 9436POPC   PO477316   8.954  40.751   5.850
 9436POPC   GL177317   8.973  40.783   6.150
 9436POPC   GL277318   9.052  40.823   6.150
 9436POPC   C1A77319   8.963  40.767   6.450
 9436POPC   D2A77320   8.944  40.794   6.750
 9436POPC   C3A77321   9.014  40.740   7.050
 9436POPC   C4A77322   8.944  40.827   7.350
 9436POPC   C1B77323   9.193  40.795   6.450
 9436POPC   C2B77324   9.174  40.843   6.750
 9436POPC   C3B77325   9.255  40.851   7.050
 9436POPC   C4B77326   9.263  40.836   7.350
 9437POPC   NC377327   1.945  19.067   5.550
 9437POPC   PO477328   1.962  19.095   5.850
 9437POPC   GL177329   1.972  19.103   6.150
 9437POPC   GL277330   2.033  19.160   6.150
 9437POPC   C1A77331   1.977  19.031   6.450
 9437POPC   D2A77332   2.011  19.034   6.750
 9437POPC   C3A77333   2.028  19.072   7.050
 9437POPC   C4A77334   2.000  19.058   7.350
 9437POPC   C1B77335   2.070  19.328   6.450
 9437POPC   C2B77336   2.078  19.346   6.750
 9437POPC   C3B77337   2.034  19.276   7.050
 9437POPC   C4B77338   2.031  19.284   7.350
 9438POPC   NC377339  31.498   1.967   5.550
 9438POPC   PO477340  31.497   2.019   5.850
 9438POPC   GL177341  31.492   2.004   6.150
 9438POPC   GL277342  31.498   1.924   6.150
 9438POPC   C1A77343  31.430   1.953   6.450
 9438POPC   D2A77344  31.474   1.993   6.750
 9438POPC   C3A77345  31.513   2.004   7.050
 9438POPC   C4A77346  31.494   1.979   7.350
 9438POPC   C1B77347  31.603   1.717   6.450
 9438POPC   C2B77348  31.575   1.774   6.750
 9438POPC   C3B77349  31.532   1.748   7.050
 9438POPC   C4B77350  31.578   1.724   7.350
 9439POPC   NC377351  12.069  36.918   5.550
 9439POPC   PO477352  12.087  36.867   5.850
 9439POPC   GL177353  12.106  36.937   6.150
 9439POPC   GL277354  12.072  36.732   6.150
 9439POPC   C1A77355  12.102  36.890   6.450
 9439POPC   D2A77356  12.030  36.863   6.750
 9439POPC   C3A77357  12.119  36.871   7.050
 9439POPC   C4A77358  12.089  36.879   7.350
 9439POPC   C1B77359  12.059  36.634   6.450
 9439POPC   C2B77360  12.073  36.652   6.750
 9439POPC   C3B77361  12.121  36.649   7.050
 9439POPC   C4B77362  12.124  36.662   7.350
 9440POPC   NC377363  39.257  22.162   5.550
 9440POPC   PO477364  39.247  22.165   5.850
 9440POPC   GL177365  39.217  22.169   6.150
 9440POPC   GL277366  39.098  22.228   6.150
 9440POPC   C1A77367  39.205  22.128   6.450
 9440POPC   D2A77368  39.238  22.195   6.750
 9440POPC   C3A77369  39.278  22.169   7.050
 9440POPC   C4A77370  39.212  22.120   7.350
 9440POPC   C1B77371  39.014  22.212   6.450
 9440POPC   C2B77372  38.955  22.191   6.750
 9440POPC   C3B77373  39.031  22.170   7.050
 9440POPC   C4B77374  39.000  22.180   7.350
 9441POPC   NC377375  27.549  21.356   5.550
 9441POPC   PO477376  27.617  21.424   5.850
 9441POPC   GL177377  27.561  21.356   6.150
 9441POPC   GL277378  27.673  21.225   6.150
 9441POPC   C1A77379  27.586  21.432   6.450
 9441POPC   D2A77380  27.556  21.385   6.750
 9441POPC   C3A77381  27.576  21.363   7.050
 9441POPC   C4A77382  27.637  21.397   7.350
 9441POPC   C1B77383  27.631  21.125   6.450
 9441POPC   C2B77384  27.691  21.166   6.750
 9441POPC   C3B77385  27.642  21.130   7.050
 9441POPC   C4B77386  27.651  21.171   7.350
 9442POPC   NC377387  43.898  27.605   5.550
 9442POPC   PO477388  43.913  27.627   5.850
 9442POPC   GL177389  43.843  27.593   6.150
 9442POPC   GL277390  44.008  27.525   6.150
 9442POPC   C1A77391  43.885  27.637   6.450
 9442POPC   D2A77392  43.890  27.628   6.750
 9442POPC   C3A77393  43.917  27.561   7.050
 9442POPC   C4A77394  43.884  27.562   7.350
 9442POPC   C1B77395  44.125  27.475   6.450
 9442POPC   C2B77396  44.123  27.411   6.750
 9442POPC   C3B77397  44.049  27.466   7.050
 9442POPC   C4B77398  44.140  27.486   7.350
 9443POPC   NC377399  24.460  39.235   5.550
 9443POPC   PO477400  24.531  39.260   5.850
 9443POPC   GL177401  24.459  39.256   6.150
 9443POPC   GL277402  24.636  39.287   6.150
 9443POPC   C1A77403  24.515  39.229   6.450
 9443POPC   D2A77404  24.471  39.263   6.750
 9443POPC   C3A77405  24.479  39.218   7.050
 9443POPC   C4A77406  24.493  39.192   7.350
 9443POPC   C1B77407  24.666  39.338   6.450
 9443POPC   C2B77408  24.689  39.397   6.750
 9443POPC   C3B77409  24.654  39.376   7.050
 9443POPC   C4B77410  24.744  39.367   7.350
 9444POPC   NC377411   3.547   1.955   5.550
 9444POPC   PO477412   3.573   1.948   5.850
 9444POPC   GL177413   3.504   1.967   6.150
 9444POPC   GL277414   3.463   1.980   6.150
 9444POPC   C1A77415   3.560   1.969   6.450
 9444POPC   D2A77416   3.506   1.997   6.750
 9444POPC   C3A77417   3.524   1.990   7.050
 9444POPC   C4A77418   3.546   1.954   7.350
 9444POPC   C1B77419   3.323   1.907   6.450
 9444POPC   C2B77420   3.264   1.949   6.750
 9444POPC   C3B77421   3.306   1.978   7.050
 9444POPC   C4B77422   3.246   1.932   7.350
 9445POPC   NC377423  18.282  37.699   5.550
 9445POPC   PO477424  18.310  37.707   5.850
 9445POPC   GL177425  18.271  37.639   6.150
 9445POPC   GL277426  18.361  37.592   6.150
 9445POPC   C1A77427  18.307  37.702   6.450
 9445POPC   D2A77428  18.277  37.647   6.750
 9445POPC   C3A77429  18.296  37.630   7.050
 9445POPC   C4A77430  18.304  37.668   7.350
 9445POPC   C1B77431  18.490  37.565   6.450
 9445POPC   C2B77432  18.501  37.563   6.750
 9445POPC   C3B77433  18.454  37.586   7.050
 9445POPC   C4B77434  18.524  37.571   7.350
 9446POPC   NC377435  32.247  11.287   5.550
 9446POPC   PO477436  32.255  11.334   5.850
 9446POPC   GL177437  32.276  11.272   6.150
 9446POPC   GL277438  32.096  11.293   6.150
 9446POPC   C1A77439  32.201  11.270   6.450
 9446POPC   D2A77440  32.285  11.261   6.750
 9446POPC   C3A77441  32.243  11.305   7.050
 9446POPC   C4A77442  32.283  11.274   7.350
 9446POPC   C1B77443  32.023  11.254   6.450
 9446POPC   C2B77444  31.988  11.277   6.750
 9446POPC   C3B77445  31.996  11.302   7.050
 9446POPC   C4B77446  32.015  11.316   7.350
 9447POPC   NC377447  32.274  20.627   5.550
 9447POPC   PO477448  32.244  20.654   5.850
 9447POPC   GL177449  32.274  20.651   6.150
 9447POPC   GL277450  32.250  20.486   6.150
 9447POPC   C1A77451  32.233  20.580   6.450
 9447POPC   D2A77452  32.212  20.649   6.750
 9447POPC   C3A77453  32.273  20.582   7.050
 9447POPC   C4A77454  32.225  20.597   7.350
 9447POPC   C1B77455  32.385  20.373   6.450
 9447POPC   C2B77456  32.296  20.392   6.750
 9447POPC   C3B77457  32.349  20.329   7.050
 9447POPC   C4B77458  32.290  20.408   7.350
 9448POPC   NC377459  41.600  18.322   5.550
 9448POPC   PO477460  41.595  18.329   5.850
 9448POPC   GL177461  41.531  18.292   6.150
 9448POPC   GL277462  41.469  18.357   6.150
 9448POPC   C1A77463  41.522  18.253   6.450
 9448POPC   D2A77464  41.535  18.274   6.750
 9448POPC   C3A77465  41.539  18.246   7.050
 9448POPC   C4A77466  41.514  18.288   7.350
 9448POPC   C1B77467  41.434  18.552   6.450
 9448POPC   C2B77468  41.459  18.542   6.750
 9448POPC   C3B77469  41.432  18.503   7.050
 9448POPC   C4B77470  41.426  18.484   7.350
 9449POPC   NC377471  38.454   4.364   5.550
 9449POPC   PO477472  38.426   4.303   5.850
 9449POPC   GL177473  38.420   4.361   6.150
 9449POPC   GL277474  38.595   4.447   6.150
 9449POPC   C1A77475  38.501   4.352   6.450
 9449POPC   D2A77476  38.452   4.296   6.750
 9449POPC   C3A77477  38.453   4.361   7.050
 9449POPC   C4A77478  38.453   4.340   7.350
 9449POPC   C1B77479  38.658   4.496   6.450
 9449POPC   C2B77480  38.670   4.474   6.750
 9449POPC   C3B77481  38.618   4.518   7.050
 9449POPC   C4B77482  38.626   4.490   7.350
 9450POPC   NC377483  28.333  22.199   5.550
 9450POPC   PO477484  28.361  22.180   5.850
 9450POPC   GL177485  28.417  22.186   6.150
 9450POPC   GL277486  28.410  22.007   6.150
 9450POPC   C1A77487  28.412  22.171   6.450
 9450POPC   D2A77488  28.415  22.137   6.750
 9450POPC   C3A77489  28.346  22.142   7.050
 9450POPC   C4A77490  28.416  22.186   7.350
 9450POPC   C1B77491  28.431  21.923   6.450
 9450POPC   C2B77492  28.443  21.898   6.750
 9450POPC   C3B77493  28.431  21.896   7.050
 9450POPC   C4B77494  28.477  21.912   7.350
 9451POPC   NC377495   8.187  29.171   5.550
 9451POPC   PO477496   8.217  29.102   5.850
 9451POPC   GL177497   8.213  29.095   6.150
 9451POPC   GL277498   8.116  29.290   6.150
 9451POPC   C1A77499   8.233  29.179   6.450
 9451POPC   D2A77500   8.175  29.120   6.750
 9451POPC   C3A77501   8.246  29.113   7.050
 9451POPC   C4A77502   8.211  29.112   7.350
 9451POPC   C1B77503   8.082  29.403   6.450
 9451POPC   C2B77504   8.011  29.391   6.750
 9451POPC   C3B77505   8.079  29.387   7.050
 9451POPC   C4B77506   8.081  29.309   7.350
 9452POPC   NC377507  23.708   1.260   5.550
 9452POPC   PO477508  23.718   1.264   5.850
 9452POPC   GL177509  23.704   1.171   6.150
 9452POPC   GL277510  23.792   1.271   6.150
 9452POPC   C1A77511  23.746   1.249   6.450
 9452POPC   D2A77512  23.672   1.210   6.750
 9452POPC   C3A77513  23.737   1.258   7.050
 9452POPC   C4A77514  23.682   1.189   7.350
 9452POPC   C1B77515  23.909   1.278   6.450
 9452POPC   C2B77516  23.911   1.312   6.750
 9452POPC   C3B77517  23.989   1.340   7.050
 9452POPC   C4B77518  23.985   1.310   7.350
 9453POPC   NC377519  43.862   0.485   5.550
 9453POPC   PO477520  43.861   0.426   5.850
 9453POPC   GL177521  43.860   0.485   6.150
 9453POPC   GL277522  43.905   0.529   6.150
 9453POPC   C1A77523  43.865   0.446   6.450
 9453POPC   D2A77524  43.874   0.470   6.750
 9453POPC   C3A77525  43.893   0.476   7.050
 9453POPC   C4A77526  43.895   0.434   7.350
 9453POPC   C1B77527  43.976   0.644   6.450
 9453POPC   C2B77528  44.023   0.657   6.750
 9453POPC   C3B77529  44.013   0.716   7.050
 9453POPC   C4B77530  44.023   0.649   7.350
 9454POPC   NC377531  25.298   5.907   5.550
 9454POPC   PO477532  25.298   5.859   5.850
 9454POPC   GL177533  25.234   5.836   6.150
 9454POPC   GL277534  25.242   5.732   6.150
 9454POPC   C1A77535  25.257   5.827   6.450
 9454POPC   D2A77536  25.315   5.871   6.750
 9454POPC   C3A77537  25.251   5.841   7.050
 9454POPC   C4A77538  25.287   5.835   7.350
 9454POPC   C1B77539  25.084   5.623   6.450
 9454POPC   C2B77540  25.138   5.626   6.750
 9454POPC   C3B77541  25.167   5.647   7.050
 9454POPC   C4B77542  25.128   5.700   7.350
 9455POPC   NC377543  29.156  13.588   5.550
 9455POPC   PO477544  29.194  13.582   5.850
 9455POPC   GL177545  29.123  13.667   6.150
 9455POPC   GL277546  29.227  13.465   6.150
 9455POPC   C1A77547  29.163  13.643   6.450
 9455POPC   D2A77548  29.188  13.634   6.750
 9455POPC   C3A77549  29.162  13.589   7.050
 9455POPC   C4A77550  29.115  13.676   7.350
 9455POPC   C1B77551  29.205  13.393   6.450
 9455POPC   C2B77552  29.234  13.380   6.750
 9455POPC   C3B77553  29.201  13.416   7.050
 9455POPC   C4B77554  29.249  13.390   7.350
 9456POPC   NC377555  22.183  20.633   5.550
 9456POPC   PO477556  22.160  20.560   5.850
 9456POPC   GL177557  22.201  20.632   6.150
 9456POPC   GL277558  22.300  20.593   6.150
 9456POPC   C1A77559  22.122  20.579   6.450
 9456POPC   D2A77560  22.158  20.573   6.750
 9456POPC   C3A77561  22.185  20.624   7.050
 9456POPC   C4A77562  22.176  20.576   7.350
 9456POPC   C1B77563  22.350  20.495   6.450
 9456POPC   C2B77564  22.402  20.483   6.750
 9456POPC   C3B77565  22.342  20.497   7.050
 9456POPC   C4B77566  22.379  20.534   7.350
 9457POPC   NC377567   5.060  27.545   5.550
 9457POPC   PO477568   5.048  27.591   5.850
 9457POPC   GL177569   5.126  27.607   6.150
 9457POPC   GL277570   5.117  27.760   6.150
 9457POPC   C1A77571   5.053  27.639   6.450
 9457POPC   D2A77572   5.092  27.558   6.750
 9457POPC   C3A77573   5.065  27.627   7.050
 9457POPC   C4A77574   5.048  27.573   7.350
 9457POPC   C1B77575   5.156  27.791   6.450
 9457POPC   C2B77576   5.122  27.879   6.750
 9457POPC   C3B77577   5.125  27.849   7.050
 9457POPC   C4B77578   5.164  27.807   7.350
 9458POPC   NC377579  13.630  30.725   5.550
 9458POPC   PO477580  13.617  30.673   5.850
 9458POPC   GL177581  13.662  30.745   6.150
 9458POPC   GL277582  13.541  30.670   6.150
 9458POPC   C1A77583  13.647  30.699   6.450
 9458POPC   D2A77584  13.637  30.668   6.750
 9458POPC   C3A77585  13.582  30.666   7.050
 9458POPC   C4A77586  13.669  30.655   7.350
 9458POPC   C1B77587  13.402  30.554   6.450
 9458POPC   C2B77588  13.398  30.574   6.750
 9458POPC   C3B77589  13.419  30.504   7.050
 9458POPC   C4B77590  13.393  30.578   7.350
 9459POPC   NC377591  37.660  25.251   5.550
 9459POPC   PO477592  37.682  25.278   5.850
 9459POPC   GL177593  37.661  25.219   6.150
 9459POPC   GL277594  37.601  25.409   6.150
 9459POPC   C1A77595  37.701  25.223   6.450
 9459POPC   D2A77596  37.705  25.285   6.750
 9459POPC   C3A77597  37.712  25.225   7.050
 9459POPC   C4A77598  37.714  25.286   7.350
 9459POPC   C1B77599  37.615  25.480   6.450
 9459POPC   C2B77600  37.575  25.476   6.750
 9459POPC   C3B77601  37.563  25.512   7.050
 9459POPC   C4B77602  37.616  25.494   7.350
 9460POPC   NC377603   8.952  37.715   5.550
 9460POPC   PO477604   9.020  37.662   5.850
 9460POPC   GL177605   8.956  37.674   6.150
 9460POPC   GL277606   8.945  37.759   6.150
 9460POPC   C1A77607   8.964  37.714   6.450
 9460POPC   D2A77608   8.991  37.677   6.750
 9460POPC   C3A77609   8.989  37.696   7.050
 9460POPC   C4A77610   9.012  37.650   7.350
 9460POPC   C1B77611   8.956  37.964   6.450
 9460POPC   C2B77612   8.894  37.929   6.750
 9460POPC   C3B77613   8.967  37.945   7.050
 9460POPC   C4B77614   8.872  37.949   7.350
 9461POPC   NC377615  22.982  42.366   5.550
 9461POPC   PO477616  22.901  42.367   5.850
 9461POPC   GL177617  22.937  42.317   6.150
 9461POPC   GL277618  23.048  42.277   6.150
 9461POPC   C1A77619  22.938  42.301   6.450
 9461POPC   D2A77620  22.891  42.318   6.750
 9461POPC   C3A77621  22.925  42.309   7.050
 9461POPC   C4A77622  22.889  42.320   7.350
 9461POPC   C1B77623  23.078  42.078   6.450
 9461POPC   C2B77624  23.026  42.077   6.750
 9461POPC   C3B77625  23.040  42.107   7.050
 9461POPC   C4B77626  23.073  42.154   7.350
 9462POPC   NC377627  13.625  22.924   5.550
 9462POPC   PO477628  13.657  22.938   5.850
 9462POPC   GL177629  13.643  22.905   6.150
 9462POPC   GL277630  13.673  23.050   6.150
 9462POPC   C1A77631  13.594  22.923   6.450
 9462POPC   D2A77632  13.672  22.949   6.750
 9462POPC   C3A77633  13.581  22.898   7.050
 9462POPC   C4A77634  13.653  22.947   7.350
 9462POPC   C1B77635  13.740  23.158   6.450
 9462POPC   C2B77636  13.811  23.096   6.750
 9462POPC   C3B77637  13.781  23.171   7.050
 9462POPC   C4B77638  13.743  23.178   7.350
 9463POPC   NC377639  33.786   3.505   5.550
 9463POPC   PO477640  33.784   3.539   5.850
 9463POPC   GL177641  33.805   3.541   6.150
 9463POPC   GL277642  33.695   3.459   6.150
 9463POPC   C1A77643  33.800   3.553   6.450
 9463POPC   D2A77644  33.822   3.492   6.750
 9463POPC   C3A77645  33.764   3.540   7.050
 9463POPC   C4A77646  33.768   3.564   7.350
 9463POPC   C1B77647  33.526   3.393   6.450
 9463POPC   C2B77648  33.567   3.428   6.750
 9463POPC   C3B77649  33.549   3.453   7.050
 9463POPC   C4B77650  33.544   3.481   7.350
 9464POPC   NC377651  43.935   1.198   5.550
 9464POPC   PO477652  43.856   1.192   5.850
 9464POPC   GL177653  43.931   1.192   6.150
 9464POPC   GL277654  43.954   1.119   6.150
 9464POPC   C1A77655  43.919   1.217   6.450
 9464POPC   D2A77656  43.913   1.177   6.750
 9464POPC   C3A77657  43.924   1.172   7.050
 9464POPC   C4A77658  43.847   1.191   7.350
 9464POPC   C1B77659  44.096   1.037   6.450
 9464POPC   C2B77660  44.112   1.026   6.750
 9464POPC   C3B77661  44.062   1.002   7.050
 9464POPC   C4B77662  44.062   1.099   7.350
 9465POPC   NC377663  25.270  22.907   5.550
 9465POPC   PO477664  25.242  22.969   5.850
 9465POPC   GL177665  25.236  22.972   6.150
 9465POPC   GL277666  25.426  22.939   6.150
 9465POPC   C1A77667  25.271  22.985   6.450
 9465POPC   D2A77668  25.310  22.900   6.750
 9465POPC   C3A77669  25.265  22.913   7.050
 9465POPC   C4A77670  25.310  22.951   7.350
 9465POPC   C1B77671  25.529  22.981   6.450
 9465POPC   C2B77672  25.501  22.964   6.750
 9465POPC   C3B77673  25.526  22.937   7.050
 9465POPC   C4B77674  25.533  22.940   7.350
 9466POPC   NC377675  20.579  23.708   5.550
 9466POPC   PO477676  20.560  23.676   5.850
 9466POPC   GL177677  20.584  23.713   6.150
 9466POPC   GL277678  20.725  23.739   6.150
 9466POPC   C1A77679  20.595  23.695   6.450
 9466POPC   D2A77680  20.588  23.749   6.750
 9466POPC   C3A77681  20.645  23.761   7.050
 9466POPC   C4A77682  20.592  23.713   7.350
 9466POPC   C1B77683  20.877  23.716   6.450
 9466POPC   C2B77684  20.873  23.712   6.750
 9466POPC   C3B77685  20.866  23.690   7.050
 9466POPC   C4B77686  20.841  23.632   7.350
 9467POPC   NC377687  43.861  23.747   5.550
 9467POPC   PO477688  43.934  23.725   5.850
 9467POPC   GL177689  43.865  23.751   6.150
 9467POPC   GL277690  43.926  23.776   6.150
 9467POPC   C1A77691  43.853  23.730   6.450
 9467POPC   D2A77692  43.896  23.752   6.750
 9467POPC   C3A77693  43.837  23.683   7.050
 9467POPC   C4A77694  43.865  23.743   7.350
 9467POPC   C1B77695  43.999  23.974   6.450
 9467POPC   C2B77696  44.044  23.928   6.750
 9467POPC   C3B77697  44.064  23.901   7.050
 9467POPC   C4B77698  44.034  23.917   7.350
 9468POPC   NC377699  14.389   7.393   5.550
 9468POPC   PO477700  14.451   7.378   5.850
 9468POPC   GL177701  14.363   7.407   6.150
 9468POPC   GL277702  14.418   7.287   6.150
 9468POPC   C1A77703  14.399   7.459   6.450
 9468POPC   D2A77704  14.362   7.457   6.750
 9468POPC   C3A77705  14.441   7.389   7.050
 9468POPC   C4A77706  14.451   7.392   7.350
 9468POPC   C1B77707  14.411   7.208   6.450
 9468POPC   C2B77708  14.382   7.180   6.750
 9468POPC   C3B77709  14.475   7.181   7.050
 9468POPC   C4B77710  14.463   7.168   7.350
 9469POPC   NC377711  27.568  23.723   5.550
 9469POPC   PO477712  27.613  23.726   5.850
 9469POPC   GL177713  27.565  23.700   6.150
 9469POPC   GL277714  27.571  23.797   6.150
 9469POPC   C1A77715  27.612  23.756   6.450
 9469POPC   D2A77716  27.631  23.734   6.750
 9469POPC   C3A77717  27.596  23.683   7.050
 9469POPC   C4A77718  27.626  23.732   7.350
 9469POPC   C1B77719  27.471  23.907   6.450
 9469POPC   C2B77720  27.510  23.970   6.750
 9469POPC   C3B77721  27.471  23.962   7.050
 9469POPC   C4B77722  27.480  23.961   7.350
 9470POPC   NC377723  21.353  24.528   5.550
 9470POPC   PO477724  21.419  24.539   5.850
 9470POPC   GL177725  21.393  24.491   6.150
 9470POPC   GL277726  21.233  24.508   6.150
 9470POPC   C1A77727  21.387  24.482   6.450
 9470POPC   D2A77728  21.409  24.511   6.750
 9470POPC   C3A77729  21.345  24.537   7.050
 9470POPC   C4A77730  21.354  24.492   7.350
 9470POPC   C1B77731  21.186  24.408   6.450
 9470POPC   C2B77732  21.136  24.482   6.750
 9470POPC   C3B77733  21.145  24.449   7.050
 9470POPC   C4B77734  21.134  24.399   7.350
 9471POPC   NC377735  31.437   3.581   5.550
 9471POPC   PO477736  31.488   3.534   5.850
 9471POPC   GL177737  31.519   3.565   6.150
 9471POPC   GL277738  31.382   3.639   6.150
 9471POPC   C1A77739  31.446   3.589   6.450
 9471POPC   D2A77740  31.456   3.492   6.750
 9471POPC   C3A77741  31.451   3.496   7.050
 9471POPC   C4A77742  31.464   3.557   7.350
 9471POPC   C1B77743  31.299   3.746   6.450
 9471POPC   C2B77744  31.286   3.694   6.750
 9471POPC   C3B77745  31.352   3.727   7.050
 9471POPC   C4B77746  31.369   3.727   7.350
 9472POPC   NC377747  20.574   9.759   5.550
 9472POPC   PO477748  20.623   9.749   5.850
 9472POPC   GL177749  20.585   9.716   6.150
 9472POPC   GL277750  20.669   9.691   6.150
 9472POPC   C1A77751  20.583   9.740   6.450
 9472POPC   D2A77752  20.569   9.726   6.750
 9472POPC   C3A77753  20.584   9.791   7.050
 9472POPC   C4A77754  20.621   9.703   7.350
 9472POPC   C1B77755  20.752   9.529   6.450
 9472POPC   C2B77756  20.754   9.514   6.750
 9472POPC   C3B77757  20.798   9.550   7.050
 9472POPC   C4B77758  20.748   9.547   7.350
 9473POPC   NC377759   2.784  36.886   5.550
 9473POPC   PO477760   2.803  36.916   5.850
 9473POPC   GL177761   2.738  36.893   6.150
 9473POPC   GL277762   2.742  36.818   6.150
 9473POPC   C1A77763   2.797  36.902   6.450
 9473POPC   D2A77764   2.758  36.888   6.750
 9473POPC   C3A77765   2.804  36.951   7.050
 9473POPC   C4A77766   2.814  36.870   7.350
 9473POPC   C1B77767   2.679  36.653   6.450
 9473POPC   C2B77768   2.674  36.618   6.750
 9473POPC   C3B77769   2.647  36.655   7.050
 9473POPC   C4B77770   2.648  36.654   7.350
 9474POPC   NC377771  12.856   2.748   5.550
 9474POPC   PO477772  12.868   2.759   5.850
 9474POPC   GL177773  12.888   2.738   6.150
 9474POPC   GL277774  12.756   2.769   6.150
 9474POPC   C1A77775  12.871   2.780   6.450
 9474POPC   D2A77776  12.890   2.744   6.750
 9474POPC   C3A77777  12.864   2.733   7.050
 9474POPC   C4A77778  12.812   2.814   7.350
 9474POPC   C1B77779  12.576   2.846   6.450
 9474POPC   C2B77780  12.635   2.828   6.750
 9474POPC   C3B77781  12.593   2.825   7.050
 9474POPC   C4B77782  12.600   2.895   7.350
 9475POPC   NC377783  35.343  21.345   5.550
 9475POPC   PO477784  35.382  21.397   5.850
 9475POPC   GL177785  35.345  21.360   6.150
 9475POPC   GL277786  35.381  21.306   6.150
 9475POPC   C1A77787  35.306  21.429   6.450
 9475POPC   D2A77788  35.391  21.434   6.750
 9475POPC   C3A77789  35.389  21.376   7.050
 9475POPC   C4A77790  35.327  21.396   7.350
 9475POPC   C1B77791  35.408  21.178   6.450
 9475POPC   C2B77792  35.478  21.155   6.750
 9475POPC   C3B77793  35.435  21.113   7.050
 9475POPC   C4B77794  35.447  21.194   7.350
 9476POPC   NC377795   0.421  10.553   5.550
 9476POPC   PO477796   0.480  10.559   5.850
 9476POPC   GL177797   0.460  10.510   6.150
 9476POPC   GL277798   0.464  10.651   6.150
 9476POPC   C1A77799   0.432  10.555   6.450
 9476POPC   D2A77800   0.404  10.571   6.750
 9476POPC   C3A77801   0.403  10.530   7.050
 9476POPC   C4A77802   0.461  10.564   7.350
 9476POPC   C1B77803   0.436  10.737   6.450
 9476POPC   C2B77804   0.447  10.735   6.750
 9476POPC   C3B77805   0.413  10.806   7.050
 9476POPC   C4B77806   0.438  10.799   7.350
 9477POPC   NC377807  28.320  26.846   5.550
 9477POPC   PO477808  28.346  26.848   5.850
 9477POPC   GL177809  28.408  26.856   6.150
 9477POPC   GL277810  28.493  26.686   6.150
 9477POPC   C1A77811  28.374  26.787   6.450
 9477POPC   D2A77812  28.356  26.805   6.750
 9477POPC   C3A77813  28.400  26.789   7.050
 9477POPC   C4A77814  28.377  26.856   7.350
 9477POPC   C1B77815  28.553  26.680   6.450
 9477POPC   C2B77816  28.507  26.620   6.750
 9477POPC   C3B77817  28.523  26.680   7.050
 9477POPC   C4B77818  28.574  26.688   7.350
 9478POPC   NC377819  29.171  43.089   5.550
 9478POPC   PO477820  29.148  43.134   5.850
 9478POPC   GL177821  29.109  43.067   6.150
 9478POPC   GL277822  29.115  43.261   6.150
 9478POPC   C1A77823  29.165  43.128   6.450
 9478POPC   D2A77824  29.110  43.086   6.750
 9478POPC   C3A77825  29.107  43.155   7.050
 9478POPC   C4A77826  29.149  43.116   7.350
 9478POPC   C1B77827  29.185  43.360   6.450
 9478POPC   C2B77828  29.194  43.404   6.750
 9478POPC   C3B77829  29.214  43.383   7.050
 9478POPC   C4B77830  29.182  43.398   7.350
 9479POPC   NC377831  36.921  26.777   5.550
 9479POPC   PO477832  36.857  26.787   5.850
 9479POPC   GL177833  36.902  26.861   6.150
 9479POPC   GL277834  36.918  26.678   6.150
 9479POPC   C1A77835  36.912  26.800   6.450
 9479POPC   D2A77836  36.865  26.769   6.750
 9479POPC   C3A77837  36.934  26.838   7.050
 9479POPC   C4A77838  36.878  26.798   7.350
 9479POPC   C1B77839  36.937  26.591   6.450
 9479POPC   C2B77840  36.947  26.619   6.750
 9479POPC   C3B77841  36.961  26.572   7.050
 9479POPC   C4B77842  36.980  26.568   7.350
 9480POPC   NC377843  33.766  28.416   5.550
 9480POPC   PO477844  33.771  28.411   5.850
 9480POPC   GL177845  33.774  28.364   6.150
 9480POPC   GL277846  33.763  28.504   6.150
 9480POPC   C1A77847  33.797  28.360   6.450
 9480POPC   D2A77848  33.791  28.330   6.750
 9480POPC   C3A77849  33.837  28.332   7.050
 9480POPC   C4A77850  33.817  28.409   7.350
 9480POPC   C1B77851  33.675  28.635   6.450
 9480POPC   C2B77852  33.742  28.596   6.750
 9480POPC   C3B77853  33.706  28.630   7.050
 9480POPC   C4B77854  33.678  28.601   7.350
 9481POPC   NC377855  33.003  13.604   5.550
 9481POPC   PO477856  33.067  13.584   5.850
 9481POPC   GL177857  33.054  13.663   6.150
 9481POPC   GL277858  33.129  13.498   6.150
 9481POPC   C1A77859  33.053  13.587   6.450
 9481POPC   D2A77860  33.063  13.633   6.750
 9481POPC   C3A77861  33.060  13.655   7.050
 9481POPC   C4A77862  33.067  13.659   7.350
 9481POPC   C1B77863  33.221  13.424   6.450
 9481POPC   C2B77864  33.183  13.453   6.750
 9481POPC   C3B77865  33.210  13.405   7.050
 9481POPC   C4B77866  33.163  13.473   7.350
 9482POPC   NC377867  31.486   7.372   5.550
 9482POPC   PO477868  31.490   7.405   5.850
 9482POPC   GL177869  31.520   7.417   6.150
 9482POPC   GL277870  31.403   7.571   6.150
 9482POPC   C1A77871  31.455   7.371   6.450
 9482POPC   D2A77872  31.459   7.424   6.750
 9482POPC   C3A77873  31.495   7.456   7.050
 9482POPC   C4A77874  31.454   7.455   7.350
 9482POPC   C1B77875  31.363   7.687   6.450
 9482POPC   C2B77876  31.404   7.698   6.750
 9482POPC   C3B77877  31.448   7.680   7.050
 9482POPC   C4B77878  31.412   7.625   7.350
 9483POPC   NC377879   2.798   2.009   5.550
 9483POPC   PO477880   2.800   1.963   5.850
 9483POPC   GL177881   2.748   1.960   6.150
 9483POPC   GL277882   2.651   1.979   6.150
 9483POPC   C1A77883   2.748   1.947   6.450
 9483POPC   D2A77884   2.727   1.985   6.750
 9483POPC   C3A77885   2.809   1.981   7.050
 9483POPC   C4A77886   2.780   2.013   7.350
 9483POPC   C1B77887   2.511   1.991   6.450
 9483POPC   C2B77888   2.489   2.056   6.750
 9483POPC   C3B77889   2.522   2.008   7.050
 9483POPC   C4B77890   2.548   2.024   7.350
 9484POPC   NC377891  26.074  10.520   5.550
 9484POPC   PO477892  26.032  10.534   5.850
 9484POPC   GL177893  26.061  10.505   6.150
 9484POPC   GL277894  26.134  10.516   6.150
 9484POPC   C1A77895  26.067  10.557   6.450
 9484POPC   D2A77896  26.086  10.543   6.750
 9484POPC   C3A77897  26.089  10.541   7.050
 9484POPC   C4A77898  26.032  10.505   7.350
 9484POPC   C1B77899  26.323  10.623   6.450
 9484POPC   C2B77900  26.315  10.562   6.750
 9484POPC   C3B77901  26.305  10.622   7.050
 9484POPC   C4B77902  26.282  10.532   7.350
 9485POPC   NC377903  23.732   8.210   5.550
 9485POPC   PO477904  23.760   8.162   5.850
 9485POPC   GL177905  23.712   8.149   6.150
 9485POPC   GL277906  23.869   8.244   6.150
 9485POPC   C1A77907  23.714   8.194   6.450
 9485POPC   D2A77908  23.687   8.219   6.750
 9485POPC   C3A77909  23.683   8.186   7.050
 9485POPC   C4A77910  23.755   8.193   7.350
 9485POPC   C1B77911  23.897   8.320   6.450
 9485POPC   C2B77912  23.944   8.336   6.750
 9485POPC   C3B77913  23.936   8.325   7.050
 9485POPC   C4B77914  23.964   8.348   7.350
 9486POPC   NC377915  40.752  33.803   5.550
 9486POPC   PO477916  40.744  33.766   5.850
 9486POPC   GL177917  40.833  33.815   6.150
 9486POPC   GL277918  40.728  33.727   6.150
 9486POPC   C1A77919  40.829  33.824   6.450
 9486POPC   D2A77920  40.776  33.790   6.750
 9486POPC   C3A77921  40.775  33.829   7.050
 9486POPC   C4A77922  40.789  33.831   7.350
 9486POPC   C1B77923  40.676  33.606   6.450
 9486POPC   C2B77924  40.730  33.551   6.750
 9486POPC   C3B77925  40.659  33.523   7.050
 9486POPC   C4B77926  40.722  33.541   7.350
 9487POPC   NC377927  35.383  39.257   5.550
 9487POPC   PO477928  35.364  39.222   5.850
 9487POPC   GL177929  35.384  39.276   6.150
 9487POPC   GL277930  35.360  39.397   6.150
 9487POPC   C1A77931  35.353  39.194   6.450
 9487POPC   D2A77932  35.379  39.279   6.750
 9487POPC   C3A77933  35.384  39.186   7.050
 9487POPC   C4A77934  35.310  39.278   7.350
 9487POPC   C1B77935  35.405  39.440   6.450
 9487POPC   C2B77936  35.403  39.490   6.750
 9487POPC   C3B77937  35.467  39.479   7.050
 9487POPC   C4B77938  35.461  39.438   7.350
 9488POPC   NC377939   2.034  25.274   5.550
 9488POPC   PO477940   1.965  25.292   5.850
 9488POPC   GL177941   2.004  25.305   6.150
 9488POPC   GL277942   1.886  25.238   6.150
 9488POPC   C1A77943   1.950  25.257   6.450
 9488POPC   D2A77944   1.992  25.250   6.750
 9488POPC   C3A77945   2.028  25.240   7.050
 9488POPC   C4A77946   2.001  25.297   7.350
 9488POPC   C1B77947   1.808  25.099   6.450
 9488POPC   C2B77948   1.808  25.168   6.750
 9488POPC   C3B77949   1.768  25.129   7.050
 9488POPC   C4B77950   1.820  25.114   7.350
 9489POPC   NC377951  37.687  22.200   5.550
 9489POPC   PO477952  37.685  22.172   5.850
 9489POPC   GL177953  37.708  22.205   6.150
 9489POPC   GL277954  37.649  22.013   6.150
 9489POPC   C1A77955  37.637  22.188   6.450
 9489POPC   D2A77956  37.644  22.163   6.750
 9489POPC   C3A77957  37.644  22.152   7.050
 9489POPC   C4A77958  37.686  22.192   7.350
 9489POPC   C1B77959  37.696  21.953   6.450
 9489POPC   C2B77960  37.703  21.905   6.750
 9489POPC   C3B77961  37.721  21.916   7.050
 9489POPC   C4B77962  37.645  21.882   7.350
 9490W        W77963  27.162  10.767  14.419
 9491W        W77964  21.148  22.660   3.639
 9492W        W77965  23.532  28.652   4.720
 9493W        W77966   9.679  16.276  12.076
 9494W        W77967  26.655  13.734   3.823
 9495W        W77968  37.568  16.617  10.579
 9496W        W77969  34.936   2.322  12.974
 9497W        W77970  29.001  26.572   2.361
 9498W        W77971   5.199  21.664  10.467
 9499W        W77972   3.823  40.359   1.223
 9500W        W77973  14.271   7.237   1.893
 9501W        W77974  38.041  28.571  10.575
 9502W        W77975  33.118  25.661   4.664
 9503W        W77976   6.295   7.403   2.885
 9504W        W77977  18.586   8.245  10.473
 9505W        W77978  20.265  37.942   0.264
 9506W        W77979   5.246  15.241  14.017
 9507W        W77980  22.027   4.365   0.245
 9508W        W77981  11.176  30.928   1.912
 9509W        W77982  19.077  36.967  12.428
 9510W        W77983  11.835  40.329   2.899
 9511W        W77984  13.737  36.530  12.501
 9512W        W77985  18.612   4.768  14.947
 9513W        W77986  31.484   8.756  10.899
 9514W        W77987  19.751  44.501  12.013
 9515W        W77988  18.221  37.853  13.902
 9516W        W77989  11.301  34.613  13.372
 9517W        W77990  16.292  10.335   0.386
 9518W        W77991  12.303   3.334  12.566
 9519W        W77992  23.512   3.408  13.822
 9520W        W77993   4.699  42.328  11.069
 9521W        W77994   5.231   4.863  14.305
 9522W        W77995  29.667  28.109   1.902
 9523W        W77996   9.773  36.923   1.935
 9524W        W77997  43.006  27.014  14.479
 9525W        W77998  10.814  41.977   3.283
 9526W        W77999   0.347  31.039  10.640
 9527W        W78000  22.722  14.280  12.458
 9528W        W78001  19.228  26.999   3.722
 9529W        W78002   0.942  27.121  10.585
 9530W        W78003   5.403  37.521   3.812
 9531W        W78004   7.278  15.789  14.827
 9532W        W78005   4.412   4.729   1.736
 9533W        W78006  19.590  14.238  11.486
 9534W        W78007  14.744  37.456  13.808
 9535W        W78008  42.856  40.437  14.363
 9536W        W78009  39.840  15.615  11.990
 9537W        W78010  36.880  39.862   2.216
 9538W        W78011   3.914  28.934  14.312
 9539W        W78012  41.505  36.844  11.581
 9540W        W78013  12.230  29.602  14.809
 9541W        W78014  36.421  34.033   2.255
 9542W        W78015   2.771  20.076  14.919
 9543W        W78016  37.850  32.908   1.828
 9544W        W78017  23.086  13.236  14.399
 9545W        W78018  42.029  23.604  10.984
 9546W        W78019   2.767   8.381  13.407
 9547W        W78020   5.250  24.500  13.832
 9548W        W78021  21.710  11.260  14.000
 9549W        W78022   5.253  16.574   1.397
 9550W        W78023  35.458   9.266  11.584
 9551W        W78024   4.384  42.468  14.025
 9552W        W78025  15.243  40.387  12.340
 9553W        W78026  21.567   7.740  11.960
 9554W        W78027  14.800  26.592  14.842
 9555W        W78028   7.283  10.815  13.803
 9556W        W78029   8.808  26.584   5.147
 9557W        W78030  41.824  41.993   2.274
 9558W        W78031  14.757  31.456   4.725
 9559W        W78032  38.891  21.220  13.934
 9560W        W78033  36.928  38.949  11.871
 9561W        W78034  33.485   3.347  11.415
 9562W        W78035   0.838  33.932   1.331
 9563W        W78036  15.599   1.293  11.552
 9564W        W78037  39.948  32.125   4.666
 9565W        W78038   1.414  28.487  14.354
 9566W        W78039  37.336  44.275   1.876
 9567W        W78040  15.635  18.606  11.922
 9568W        W78041  44.770   8.859  13.363
 9569W        W78042  42.426  44.263  14.418
 9570W        W78043  37.373  10.667   1.276
 9571W        W78044  12.123  22.228  12.374
 9572W        W78045   6.707  32.465   1.870
 9573W        W78046  33.044  35.420  10.618
 9574W        W78047  38.917  32.460   2.689
 9575W        W78048  21.103  15.143   0.424
 9576W        W78049  21.662  31.044   2.196
 9577W        W78050  26.989  35.492  14.840
 9578W        W78051  13.253   3.843  11.013
 9579W        W78052  31.043  26.543   4.751
 9580W        W78053  11.218  29.931   4.768
 9581W        W78054   4.763   5.746   1.374
 9582W        W78055   6.887  11.636  13.949
 9583W        W78056  10.813  15.740   2.790
 9584W        W78057   0.265  16.111  12.859
 9585W        W78058  36.525  24.042   1.405
 9586W        W78059  19.705  11.348  11.392
 9587W        W78060   1.328  24.639   0.752
 9588W        W78061  30.133  24.225  12.441
 9589W        W78062  18.190  28.024  13.987
 9590W        W78063   8.218  35.522  13.430
 9591W        W78064  44.462  25.684  14.978
 9592W        W78065   5.200  29.539   4.769
 9593W        W78066  21.191  28.995  10.531
 9594W        W78067  10.333  40.812  10.965
 9595W        W78068  43.832  40.447   1.319
 9596W        W78069  26.149  38.941  11.107
 9597W        W78070  35.489  10.221  12.965
 9598W        W78071  33.958  43.413  14.874
 9599W        W78072  28.514  40.417   2.403
 9600W        W78073   2.875  24.489   0.766
 9601W        W78074   9.862  37.468  12.884
 9602W        W78075  42.445  25.059  10.552
 9603W        W78076   7.797  10.278  12.054
 9604W        W78077  35.059  23.194  11.403
 9605W        W78078  16.585  24.684   0.936
 9606W        W78079  44.820  25.656  12.381
 9607W        W78080   6.887  23.587  12.031
 9608W        W78081  21.735  41.515  13.943
 9609W        W78082  42.525   0.341  11.998
 9610W        W78083  15.175   5.393  14.479
 9611W        W78084  34.476  27.043  11.925
 9612W        W78085  24.545   4.423   4.241
 9613W        W78086  36.929  19.093   4.778
 9614W        W78087  23.627  28.544  13.842
 9615W        W78088  25.004   9.674  10.896
 9616W        W78089   4.390  13.624  13.991
 9617W        W78090  40.045  38.934  12.389
 9618W        W78091  41.871   6.760   2.369
 9619W        W78092   0.957   5.883   0.775
 9620W        W78093   4.251   8.676   2.315
 9621W        W78094  44.905   1.871  13.525
 9622W        W78095  39.512   4.396   3.820
 9623W        W78096  40.893  42.832  14.024
 9624W        W78097   9.771  43.927  14.361
 9625W        W78098  15.713  38.844   4.810
 9626W        W78099  15.647  30.437   2.379
 9627W        W78100  19.682  17.589  12.958
 9628W        W78101  35.047  21.642  14.957
 9629W        W78102  19.716  20.555  14.324
 9630W        W78103   7.385   5.300   4.270
 9631W        W78104   2.815   4.925  10.642
 9632W        W78105  35.447   3.335  12.494
 9633W        W78106  37.549  37.558  10.471
 9634W        W78107   9.780  20.065   3.261
 9635W        W78108  28.586   4.903  11.021
 9636W        W78109  15.686   1.315  11.043
 9637W        W78110   1.831  40.315  10.458
 9638W        W78111  29.519  34.114   2.677
 9639W        W78112  10.676  11.191   0.463
 9640W        W78113  44.954   8.684   0.885
 9641W        W78114  13.632  20.222  12.040
 9642W        W78115  23.140   9.389   1.921
 9643W        W78116  37.503  43.865  12.382
 9644W        W78117  39.429  20.735   4.251
 9645W        W78118  14.784  19.622  12.480
 9646W        W78119  13.183  31.018  13.972
 9647W        W78120  19.149  37.563   5.290
 9648W        W78121   1.881  31.026  14.362
 9649W        W78122   6.742  12.353  10.555
 9650W        W78123   1.407  24.996   1.695
 9651W        W78124  15.795  41.309   0.909
 9652W        W78125  19.233  30.051  11.081
 9653W        W78126  11.321  40.378  12.457
 9654W        W78127  33.430  32.494  12.491
 9655W        W78128   0.437  44.295  12.841
 9656W        W78129   0.947  11.321  10.145
 9657W        W78130  13.283  17.221   2.195
 9658W        W78131  25.654  35.906   2.791
 9659W        W78132  16.113  14.637   2.368
 9660W        W78133  27.622  44.773  13.439
 9661W        W78134   6.232  29.477  13.488
 9662W        W78135  29.117  19.746   1.412
 9663W        W78136  17.257  43.968   0.361
 9664W        W78137  13.625  39.426  14.827
 9665W        W78138  18.290  15.123  11.075
 9666W        W78139  42.806  29.574  12.007
 9667W        W78140  22.044   6.775   4.828
 9668W        W78141   3.326   3.944   2.809
 9669W        W78142   9.863   7.706  12.871
 9670W        W78143   5.311   1.883   2.673
 9671W        W78144  40.318  26.526  12.085
 9672W        W78145  15.586   2.459  11.055
 9673W        W78146  33.593   3.948  13.895
 9674W        W78147  17.178  16.268  13.805
 9675W        W78148  28.615  22.657   1.914
 9676W        W78149  41.451   2.320  14.420
 9677W        W78150  22.532   3.276   4.226
 9678W        W78151  18.138  15.259   2.359
 9679W        W78152  32.542  44.827  11.875
 9680W        W78153  15.668  32.015   2.824
 9681W        W78154   5.883   5.695   2.411
 9682W        W78155  10.327  29.055   3.772
 9683W        W78156   3.864  23.557  10.497
 9684W        W78157   2.926  43.016  14.910
 9685W        W78158  35.522   4.419  10.625
 9686W        W78159  44.008  21.710   3.835
 9687W        W78160  23.138  22.688   4.239
 9688W        W78161  27.539  17.701  12.394
 9689W        W78162  27.068  35.394  11.040
 9690W        W78163  43.978  31.899   1.935
 9691W        W78164  12.689  41.919  12.563
 9692W        W78165   1.832  35.968   2.727
 9693W        W78166   8.385  12.799   2.746
 9694W        W78167  38.006  40.863   0.309
 9695W        W78168   5.694  31.607  12.527
 9696W        W78169  33.883  15.817   2.373
 9697W        W78170  13.178  38.357  12.007
 9698W        W78171  22.731  15.289  10.036
 9699W        W78172  33.892  16.222   1.261
 9700W        W78173  17.779   0.824   4.268
 9701W        W78174   6.234  31.922  10.963
 9702W        W78175   2.389  38.892  12.447
 9703W        W78176   0.817   9.391  14.926
 9704W        W78177   9.746  44.819  11.408
 9705W        W78178  22.252  42.786   0.878
 9706W        W78179  33.523  38.847   1.243
 9707W        W78180   6.186  29.542  14.488
 9708W        W78181  40.883  22.734  11.418
 9709W        W78182   3.750  37.889   0.871
 9710W        W78183  30.147   5.379   1.221
 9711W        W78184   7.778  44.265   1.441
 9712W        W78185  13.811  18.261  12.893
 9713W        W78186   6.802  25.042   0.418
 9714W        W78187  26.968  23.102   2.669
 9715W        W78188  12.278  18.075   2.768
 9716W        W78189  26.468   7.689  14.326
 9717W        W78190  44.991  36.983   4.706
 9718W        W78191  15.308  11.248   0.351
 9719W        W78192  34.487   7.874  11.506
 9720W        W78193  21.514  13.324  13.309
 9721W        W78194  39.337  31.503  14.512
 9722W        W78195   6.206   4.939  12.446
 9723W        W78196  10.826  19.761  12.985
 9724W        W78197  32.025  34.564   0.275
 9725W        W78198  26.053  40.910   0.399
 9726W        W78199  40.326  30.479   4.726
 9727W        W78200  30.533  43.905   5.262
 9728W        W78201  34.533  12.200   0.257
 9729W        W78202  40.810  40.003  10.489
 9730W        W78203  19.094  43.895  13.794
 9731W        W78204  31.114  18.679   0.763
 9732W        W78205   3.381  38.838   5.133
 9733W        W78206  33.954  26.478   0.300
 9734W        W78207  12.229  12.169   3.699
 9735W        W78208  13.270  13.321  10.625
 9736W        W78209  31.550  10.856  11.537
 9737W        W78210  15.296  12.275  10.965
 9738W        W78211  23.090  10.843   4.788
 9739W        W78212  44.446  19.772  13.502
 9740W        W78213  29.932  16.706  10.596
 9741W        W78214  20.672  24.164  12.917
 9742W        W78215  20.546  14.771  12.351
 9743W        W78216   0.917  18.644   4.691
 9744W        W78217  13.216   3.763   1.797
 9745W        W78218  22.179  28.156   5.759
 9746W        W78219  13.650  35.576  13.980
 9747W        W78220  18.249  15.786   1.252
 9748W        W78221  44.892   7.319  14.292
 9749W        W78222  42.023  24.046   3.694
 9750W        W78223  33.515  13.842   4.602
 9751W        W78224  29.132  27.569   1.922
 9752W        W78225  31.580   3.890  12.841
 9753W        W78226  19.631  21.087  14.287
 9754W        W78227  42.830   2.832   4.161
 9755W        W78228  22.606  18.085   0.943
 9756W        W78229  11.260  38.406  11.456
 9757W        W78230  21.554   9.226  12.398
 9758W        W78231   0.971  14.611   0.897
 9759W        W78232   9.201  38.423   4.774
 9760W        W78233  30.150  24.614   2.364
 9761W        W78234   6.696  16.177   4.326
 9762W        W78235   1.444  44.894   4.720
 9763W        W78236  31.092  21.709   2.329
 9764W        W78237   3.887  32.621  10.542
 9765W        W78238  28.102  26.607   0.771
 9766W        W78239   6.288  33.388   0.279
 9767W        W78240  44.491   7.866  11.584
 9768W        W78241  41.817  31.060  12.406
 9769W        W78242   5.911  30.434  13.859
 9770W        W78243  12.782  19.660  14.468
 9771W        W78244  16.288   4.711  10.549
 9772W        W78245  27.678  42.388   2.276
 9773W        W78246  28.150  25.691   0.359
 9774W        W78247  30.536  11.779   3.815
 9775W        W78248  36.581  26.128   1.231
 9776W        W78249  24.987  34.985   1.890
 9777W        W78250  17.084  33.131   2.663
 9778W        W78251  43.357   7.318  13.962
 9779W        W78252  24.509  40.540   1.784
 9780W        W78253  27.543   8.765  13.815
 9781W        W78254  42.430  14.156   3.816
 9782W        W78255   4.796  39.989  14.487
 9783W        W78256  30.487   9.652  12.474
 9784W        W78257  18.767  24.713  13.910
 9785W        W78258  15.691  12.162   2.770
 9786W        W78259  17.072  37.880  12.464
 9787W        W78260  10.149   6.760   1.874
 9788W        W78261  32.924  21.228   3.784
 9789W        W78262  17.780  30.443  13.048
 9790W        W78263  23.008  28.602   2.308
 9791W        W78264  12.625  12.268  11.532
 9792W        W78265   5.391  17.721  10.564
 9793W        W78266  15.618  34.967   3.265
 9794W        W78267   6.407   2.882   4.344
 9795W        W78268  32.077  10.850  11.494
 9796W        W78269  20.546  26.069   3.639
 9797W        W78270  27.970  10.854   2.369
 9798W        W78271  41.847   5.245  11.995
 9799W        W78272  11.346  23.158   1.305
 9800W        W78273  18.782  30.044   0.446
 9801W        W78274   9.784  18.238  12.533
 9802W        W78275   3.776  15.671  12.500
 9803W        W78276  32.403  20.137  11.520
 9804W        W78277  15.650  20.190   3.700
 9805W        W78278  43.914  21.237   4.603
 9806W        W78279  11.642  18.704   4.812
 9807W        W78280  30.013  22.572  12.026
 9808W        W78281  10.185  41.018  13.354
 9809W        W78282  11.781  39.435  11.544
 9810W        W78283  29.560   3.403  11.388
 9811W        W78284  15.294  30.543  11.120
 9812W        W78285  22.080   9.261  14.843
 9813W        W78286   9.828  19.674   3.728
 9814W        W78287  21.127   2.727   3.260
 9815W        W78288  40.475  32.426   4.146
 9816W        W78289  16.237  28.453  10.519
 9817W        W78290  19.650   9.887   2.697
 9818W        W78291  17.715  42.815   3.364
 9819W        W78292   6.699   9.873   3.753
 9820W        W78293  36.428   9.149  10.490
 9821W        W78294  28.630  11.260  12.440
 9822W        W78295  16.744   6.883  14.277
 9823W        W78296  40.482  28.488   4.714
 9824W        W78297  19.596   8.853  14.512
 9825W        W78298  32.904  23.991   5.127
 9826W        W78299  32.132  28.521  13.426
 9827W        W78300   9.297   4.785   1.439
 9828W        W78301   3.279  34.024   3.787
 9829W        W78302  37.422  10.653   4.670
 9830W        W78303   8.876   3.264   2.295
 9831W        W78304  17.098  17.291   1.766
 9832W        W78305  21.097  25.659  10.957
 9833W        W78306   7.177  15.195  14.366
 9834W        W78307  24.169   8.342   4.709
 9835W        W78308  21.207  32.991   4.663
 9836W        W78309  27.118  38.913   0.889
 9837W        W78310  25.110  17.261   1.926
 9838W        W78311  20.123   6.884  12.890
 9839W        W78312  11.807  44.386  13.055
 9840W        W78313   7.744  28.492   3.700
 9841W        W78314  21.089  13.705   0.322
 9842W        W78315  43.902  39.550  13.360
 9843W        W78316  21.042  11.364   0.409
 9844W        W78317  34.080  40.404   4.164
 9845W        W78318  21.751  35.853  13.339
 9846W        W78319   2.461  44.352  10.539
 9847W        W78320  24.209  16.804  14.938
 9848W        W78321  16.661  17.654  13.832
 9849W        W78322  17.692  30.015   4.227
 9850W        W78323  42.870  38.543  13.968
 9851W        W78324  41.911  14.605   4.265
 9852W        W78325  13.783  31.596  10.506
 9853W        W78326  36.090  16.658  11.494
 9854W        W78327  25.053  32.404  10.945
 9855W        W78328  34.906  22.695  12.569
 9856W        W78329   5.780   7.904   1.216
 9857W        W78330  41.294  30.509  10.941
 9858W        W78331  18.589  12.743  13.478
 9859W        W78332  39.056   7.404  13.923
 9860W        W78333   2.237  26.975   3.756
 9861W        W78334  15.230   4.407  11.011
 9862W        W78335  17.721  14.813   4.251
 9863W        W78336  31.042  43.497   1.354
 9864W        W78337  10.688  23.070   2.182
 9865W        W78338  10.376  12.719   1.239
 9866W        W78339  24.113  38.960   0.472
 9867W        W78340   4.705  39.385  10.511
 9868W        W78341  28.447  36.351  14.404
 9869W        W78342  34.970   7.209  11.561
 9870W        W78343  27.035  30.924   2.336
 9871W        W78344  23.117  38.969   0.862
 9872W        W78345  25.199  40.430   3.316
 9873W        W78346  37.518  17.127  10.540
 9874W        W78347   4.268  35.074  13.008
 9875W        W78348  36.582  40.997   1.817
 9876W        W78349  24.539  44.879   9.999
 9877W        W78350   4.433  11.717  14.910
 9878W        W78351   0.470  17.182   3.212
 9879W        W78352  24.220  16.654   4.617
 9880W        W78353  17.103   3.369   0.840
 9881W        W78354  22.073  29.508  14.282
 9882W        W78355   8.853  42.369   2.890
 9883W        W78356   6.393  25.530  11.897
 9884W        W78357  21.557   1.813  14.391
 9885W        W78358   0.484  21.672   0.916
 9886W        W78359  10.658  39.848   3.637
 9887W        W78360   2.952  39.973   1.351
 9888W        W78361  43.413  41.897  14.934
 9889W        W78362  22.163  23.067  10.419
 9890W        W78363   6.798  13.707  13.872
 9891W        W78364  28.454  10.793   0.265
 9892W        W78365  25.509  11.830  12.370
 9893W        W78366  33.394  24.660  12.888
 9894W        W78367  35.920  26.192   3.798
 9895W        W78368  19.602  13.799  14.870
 9896W        W78369  22.092  20.164  13.956
 9897W        W78370  41.356  18.128  11.916
 9898W        W78371  11.709   0.444   3.329
 9899W        W78372  32.090  12.687  14.890
 9900W        W78373  39.395   6.804   1.320
 9901W        W78374  25.037  37.025  13.384
 9902W        W78375  21.606  15.600  12.398
 9903W        W78376  16.569  25.081   2.868
 9904W        W78377   6.715  22.705  14.980
 9905W        W78378   0.471  11.843  11.073
 9906W        W78379  31.511  26.165   1.792
 9907W        W78380  14.151  18.113   4.151
 9908W        W78381  42.521  36.022  12.972
 9909W        W78382  38.883  30.028  13.541
 9910W        W78383  22.736  22.565   3.371
 9911W        W78384  35.039  19.675  14.392
 9912W        W78385  15.280  16.754   0.458
 9913W        W78386  28.447  41.944   0.377
 9914W        W78387  28.582   5.698   4.224
 9915W        W78388  39.350  30.630  10.570
 9916W        W78389  22.680  43.988  11.902
 9917W        W78390  26.632  11.748   2.709
 9918W        W78391   8.834   3.745  14.487
 9919W        W78392   2.765  24.146  11.584
 9920W        W78393  16.253  40.850  14.471
 9921W        W78394  15.322  44.801  10.939
 9922W        W78395  36.942  21.643   1.373
 9923W        W78396  30.524  23.057  14.424
 9924W        W78397  28.975  23.136   0.402
 9925W        W78398  26.596  39.373  11.865
 9926W        W78399   3.826  38.382  10.973
 9927W        W78400   0.342   0.331  12.011
 9928W        W78401  28.652   3.266  14.425
 9929W        W78402  34.386  32.103   4.125
 9930W        W78403  23.108  30.458  10.978
 9931W        W78404  35.913  19.041  14.469
 9932W        W78405  17.691   2.966  11.884
 9933W        W78406  42.342  18.286   1.326
 9934W        W78407  23.116   4.785   1.311
 9935W        W78408  12.168  43.891  14.828
 9936W        W78409  19.212   3.339  13.315
 9937W        W78410   5.860  41.845   0.292
 9938W        W78411  42.792  16.787  13.934
 9939W        W78412  20.163  36.958  14.289
 9940W        W78413  30.579  43.944  13.424
 9941W        W78414  26.674  29.549   2.303
 9942W        W78415  25.120  27.175  14.971
 9943W        W78416   8.401  34.993  12.984
 9944W        W78417   8.186  22.060  12.362
 9945W        W78418  44.840   3.251   1.920
 9946W        W78419   7.899  19.672  14.435
 9947W        W78420  26.576   9.271   0.965
 9948W        W78421  41.905  18.774   4.714
 9949W        W78422  24.168  18.196  11.458
 9950W        W78423  40.973  36.851   0.756
 9951W        W78424   1.911  29.022   4.335
 9952W        W78425  27.110  14.834  10.969
 9953W        W78426   6.845  12.310   4.698
 9954W        W78427  24.026  28.999   1.819
 9955W        W78428  19.236  14.737  13.321
 9956W        W78429   9.255  36.054   1.393
 9957W        W78430  42.283   4.879   0.730
 9958W        W78431  21.735  16.614  11.046
 9959W        W78432  35.359  35.994  11.577
 9960W        W78433  11.717  37.482  11.945
 9961W        W78434  30.969  11.356  10.482
 9962W        W78435  40.823   3.876  14.440
 9963W        W78436  20.146   7.749  11.102
 9964W        W78437  13.257  10.222  13.803
 9965W        W78438  11.346  16.191  13.858
 9966W        W78439  17.611  44.460  12.936
 9967W        W78440  19.609  43.861   1.278
 9968W        W78441  25.650  24.995   2.828
 9969W        W78442  29.135  12.279   4.152
 9970W        W78443  32.999  27.488  11.025
 9971W        W78444  27.669  39.046  13.835
 9972W        W78445  41.796  36.926   2.217
 9973W        W78446  31.456   7.180  13.345
 9974W        W78447  32.954  34.383   4.776
 9975W        W78448  42.301   6.225   3.864
 9976W        W78449  24.628  21.114   4.197
 9977W        W78450   7.780  11.698  11.928
 9978W        W78451  22.630   6.315   0.919
 9979W        W78452  36.023  24.976   0.799
 9980W        W78453  26.014  41.829  12.570
 9981W        W78454   9.307   8.778  10.409
 9982W        W78455  33.063  14.732   1.786
 9983W        W78456   8.202  35.443   2.729
 9984W        W78457  11.239  37.908  13.468
 9985W        W78458  20.075  39.506  11.882
 9986W        W78459  43.927  10.738  13.456
 9987W        W78460  43.849  37.447  14.372
 9988W        W78461  35.459  10.703  12.923
 9989W        W78462  36.862  24.577   1.713
 9990W        W78463  25.581  15.266  11.445
 9991W        W78464   9.196  10.840   1.812
 9992W        W78465  26.083  27.668  11.890
 9993W        W78466  32.119   7.816  13.978
 9994W        W78467   1.751   5.790  11.912
 9995W        W78468   0.820   2.255  13.038
 9996W        W78469  33.498  39.042   9.949
 9997W        W78470   4.858  39.347  14.028
 9998W        W78471  20.650  25.476   9.453
 9999W        W78472  27.093  22.007  14.343
10000W        W78473  27.061  10.828   2.199
10001W        W78474  33.501   7.296  12.943
10002W        W78475  38.970  22.731   9.968
10003W        W78476   5.800  24.982  11.575
10004W        W78477  17.293  38.526   5.641
10005W        W78478  22.729   1.370   1.710
10006W        W78479  37.474  20.152  14.890
10007W        W78480  17.066   3.805   2.300
10008W        W78481   6.235  30.109   1.878
10009W        W78482   7.755  23.235   0.353
10010W        W78483  28.514  21.567   4.606
10011W        W78484  14.691  34.401   2.684
10012W        W78485  14.334  36.372   1.755
10013W        W78486  34.484  36.541  13.053
10014W        W78487   3.727  23.041   1.326
10015W        W78488   2.268  22.543  14.000
10016W        W78489   3.755  36.512   1.249
10017W        W78490  18.257  10.869  13.333
10018W        W78491   4.744  32.974   0.260
10019W        W78492  28.058  22.121  14.923
10020W        W78493  35.874  21.164  14.904
10021W        W78494  41.306  39.985  13.440
10022W        W78495  32.458   5.432   2.219
10023W        W78496  29.665   7.718   0.368
10024W        W78497  32.535  37.487  11.040
10025W        W78498   0.951  25.021   0.304
10026W        W78499  18.296   2.448   4.302
10027W        W78500   9.288   1.802  12.363
10028W        W78501  35.106  44.504   4.771
10029W        W78502   5.710  32.547   3.646
10030W        W78503  20.572  40.896  11.891
10031W        W78504  38.958  16.778  13.360
10032W        W78505  20.095  18.628  10.611
10033W        W78506  21.577  14.739   3.746
10034W        W78507   9.723  32.595   3.745
10035W        W78508   8.336  28.608   1.429
10036W        W78509  28.060  27.973   3.644
10037W        W78510  10.215  39.957  10.968
10038W        W78511   4.821  22.014  13.442
10039W        W78512  25.581   9.715   2.884
10040W        W78513  11.235  20.620   4.612
10041W        W78514  33.422   6.700  14.997
10042W        W78515   2.399  42.418   1.283
10043W        W78516  22.713  16.594  12.356
10044W        W78517  25.074  14.322  12.447
10045W        W78518  41.530  41.884   3.308
10046W        W78519  19.646  27.533   0.925
10047W        W78520  36.867  15.278   2.413
10048W        W78521  19.269  28.118   0.473
10049W        W78522   7.806  28.107   3.249
10050W        W78523  27.027  18.606  13.960
10051W        W78524  28.035   9.675  13.833
10052W        W78525   9.706  33.908  10.551
10053W        W78526  18.199  34.504   1.262
10054W        W78527   3.709   7.283  10.412
10055W        W78528  12.709  20.188  11.437
10056W        W78529  11.270   2.895  10.961
10057W        W78530  38.935  31.032   1.347
10058W        W78531   8.655  44.401   3.852
10059W        W78532  26.985  12.181  14.835
10060W        W78533  38.952  26.130  11.456
10061W        W78534  14.763  13.289   2.794
10062W        W78535  20.076   7.222  12.863
10063W        W78536  36.890  15.200   4.706
10064W        W78537  23.166  37.063  10.599
10065W        W78538  43.395  23.065  10.426
10066W        W78539  20.136  27.119  11.575
10067W        W78540  10.784  16.112   0.854
10068W        W78541  27.462  36.433   0.324
10069W        W78542  10.773  43.505   2.820
10070W        W78543   1.924  20.166   0.877
10071W        W78544  13.127  29.120   9.941
10072W        W78545  22.544  40.840  12.084
10073W        W78546  30.593   0.375   1.446
10074W        W78547  19.539  23.129  14.928
10075W        W78548   2.842  41.508  14.843
10076W        W78549  19.768  32.043  11.449
10077W        W78550  42.469  17.099   4.748
10078W        W78551  22.019  28.524  11.445
10079W        W78552  30.420  11.815   2.720
10080W        W78553  11.251  43.933   0.300
10081W        W78554  14.214  39.323   1.889
10082W        W78555  43.781  19.280   2.835
10083W        W78556  41.982   3.421  12.527
10084W        W78557   8.657  26.523  14.313
10085W        W78558  14.303  20.135   1.302
10086W        W78559   6.277   7.866  14.912
10087W        W78560  38.870  25.195   1.336
10088W        W78561  35.050  39.435  10.458
10089W        W78562  13.659   5.840  14.486
10090W        W78563  33.535  33.969   4.664
10091W        W78564  15.770  41.443  10.104
10092W        W78565  21.668  37.443  10.416
10093W        W78566  21.529  18.239   5.150
10094W        W78567   0.940  31.424   1.308
10095W        W78568   6.230   7.875   3.351
10096W        W78569  24.048  40.347   0.419
10097W        W78570  33.039  14.740  14.853
10098W        W78571  25.508  19.133   2.216
10099W        W78572  42.976  38.053   1.254
10100W        W78573   6.254  19.637  13.479
10101W        W78574  10.331   9.324   4.735
10102W        W78575  42.920  39.945  14.382
10103W        W78576   2.823   5.254   4.188
10104W        W78577   4.305  38.414   3.316
10105W        W78578   3.813  24.644   2.766
10106W        W78579  41.449   2.455   4.673
10107W        W78580   2.347  39.885  13.507
10108W        W78581   8.332  15.731   0.852
10109W        W78582  32.395  42.324  14.405
10110W        W78583   9.346  39.369   0.434
10111W        W78584  17.125  14.233   2.735
10112W        W78585  33.515   1.365   2.290
10113W        W78586   0.320  12.124  13.318
10114W        W78587  38.410  15.609   4.263
10115W        W78588  26.580  22.038   2.329
10116W        W78589  20.632  12.839   1.774
10117W        W78590   7.390  31.918   3.665
10118W        W78591  38.036  27.533   3.268
10119W        W78592  18.754  20.232   2.791
10120W        W78593  34.043  41.952   4.163
10121W        W78594   3.867   6.716  12.452
10122W        W78595   2.914  24.724  11.860
10123W        W78596  30.612   9.203   3.829
10124W        W78597  26.078  39.000  10.531
10125W        W78598  24.577  31.587  12.062
10126W        W78599  40.813  37.847   2.783
10127W        W78600  43.958  29.061  11.472
10128W        W78601   6.310  28.443  14.319
10129W        W78602   3.791  23.537  14.920
10130W        W78603  11.327   5.709   4.353
10131W        W78604   6.246   9.746  11.896
10132W        W78605  11.763   0.962  14.968
10133W        W78606  19.648  41.316   3.858
10134W        W78607  13.274  24.225   5.106
10135W        W78608   2.920   6.790  13.921
10136W        W78609  31.467   1.884  11.093
10137W        W78610  44.947  18.587  11.496
10138W        W78611   5.791  18.573   3.844
10139W        W78612  26.690  38.440  13.987
10140W        W78613   9.720  25.988   0.276
10141W        W78614  35.105  32.972  14.861
10142W        W78615  14.198  28.466   4.305
10143W        W78616  26.540  41.513   5.246
10144W        W78617  16.215  22.047  12.883
10145W        W78618  28.620   9.838  14.318
10146W        W78619   2.464   4.864  13.796
10147W        W78620  10.149   6.215   3.740
10148W        W78621  16.207  29.001  12.029
10149W        W78622   3.357  23.519  14.897
10150W        W78623   1.849  19.547  10.549
10151W        W78624  21.255  41.850   4.312
10152W        W78625  20.144  28.553   3.150
10153W        W78626   5.213  39.953   0.756
10154W        W78627   3.248   9.310  11.074
10155W        W78628  36.555  13.841   4.231
10156W        W78629  27.108   0.864  10.069
10157W        W78630  10.212  24.221  11.393
10158W        W78631  21.030  28.553   3.216
10159W        W78632   7.895  23.594  10.613
10160W        W78633  15.085  26.653   1.908
10161W        W78634  16.279  38.903  12.498
10162W        W78635  16.749   6.914   1.774
10163W        W78636  14.219  44.278  10.033
10164W        W78637  11.361  15.752   1.872
10165W        W78638  22.689  24.023   2.222
10166W        W78639  39.851  43.951  11.898
10167W        W78640  14.597  39.468   2.371
10168W        W78641   5.395   2.750  11.930
10169W        W78642   8.683  34.482  10.595
10170W        W78643  22.575  26.021   0.817
10171W        W78644  29.029  40.892  14.831
10172W        W78645  24.504  24.496  11.490
10173W        W78646   1.790  21.160  10.945
10174W        W78647   7.740   6.820  13.832
10175W        W78648  18.262  36.386  11.029
10176W        W78649  23.716  22.516   1.451
10177W        W78650  36.856   5.262   3.334
10178W        W78651  42.303  31.402  14.395
10179W        W78652  37.022  29.940   1.794
10180W        W78653  21.255  43.343   0.774
10181W        W78654   9.850  23.692   2.901
10182W        W78655   9.220  39.863  11.937
10183W        W78656  39.915   4.351  12.519
10184W        W78657  16.243   5.774   1.722
10185W        W78658  40.329   4.864  11.083
10186W        W78659  31.568  23.548   0.378
10187W        W78660   7.222  35.102  13.433
10188W        W78661  42.876  21.668  14.759
10189W        W78662  22.588  10.149   2.203
10190W        W78663  25.970  41.941  11.372
10191W        W78664  41.399   9.732  10.953
10192W        W78665  25.973   3.267   0.965
10193W        W78666   9.673  36.854  12.836
10194W        W78667  11.217  30.140   2.882
10195W        W78668  40.496   6.357   3.772
10196W        W78669  30.501  41.430   4.244
10197W        W78670  32.107   6.888   5.201
10198W        W78671  32.551   9.841   2.179
10199W        W78672  13.128  22.173   4.610
10200W        W78673   4.316   9.269  10.608
10201W        W78674  36.363   7.219  14.382
10202W        W78675   0.263  15.707  12.919
10203W        W78676  34.565  19.176  11.544
10204W        W78677  29.628   9.656   2.261
10205W        W78678   5.822  21.190   3.708
10206W        W78679  14.256  30.940  13.818
10207W        W78680   7.889   1.836  11.465
10208W        W78681  22.517   4.766  11.443
10209W        W78682   7.337   7.300  14.927
10210W        W78683  18.708  40.446  10.958
10211W        W78684  16.274  37.054   4.810
10212W        W78685  22.094  31.583   3.821
10213W        W78686  35.970  35.981   4.148
10214W        W78687  43.310  32.016  13.058
10215W        W78688   6.886   5.765   2.348
10216W        W78689  13.296  33.103  13.398
10217W        W78690  29.567  38.025  11.417
10218W        W78691  23.700  23.577   3.355
10219W        W78692   2.967  33.563   0.809
10220W        W78693  26.559  12.270  13.881
10221W        W78694   4.719  13.629   2.811
10222W        W78695  36.086  42.501   2.801
10223W        W78696   9.208  18.728  10.975
10224W        W78697  10.278  44.426  12.930
10225W        W78698  18.061  42.455  11.975
10226W        W78699  33.912  30.922   3.715
10227W        W78700  34.520  28.439   2.689
10228W        W78701  42.517   2.440   4.248
10229W        W78702  37.429  16.279  13.413
10230W        W78703  23.654  13.694  12.024
10231W        W78704  25.613  13.164   1.265
10232W        W78705   7.827  27.979  10.076
10233W        W78706   6.718  33.401  14.449
10234W        W78707  23.158  23.679  14.329
10235W        W78708   7.696  44.837   1.836
10236W        W78709  28.633  10.717  10.474
10237W        W78710  39.912  35.102   4.202
10238W        W78711  17.565  14.210   2.332
10239W        W78712  18.772  34.876   5.269
10240W        W78713  17.777  39.334   1.224
10241W        W78714  20.081  21.259  12.406
10242W        W78715  44.480  36.065   3.364
10243W        W78716  21.048   4.387  11.029
10244W        W78717  11.148  36.021  12.035
10245W        W78718  22.586  35.059  13.344
10246W        W78719  35.992   8.849   0.265
10247W        W78720  40.819  28.977   1.910
10248W        W78721  14.640  32.497  10.899
10249W        W78722  31.430  36.951   1.324
10250W        W78723  25.056  19.735  10.987
10251W        W78724  13.230  29.141  11.118
10252W        W78725  28.179  10.377  11.609
10253W        W78726  29.076  41.007   2.290
10254W        W78727  28.578  20.034   0.744
10255W        W78728  42.916  23.096   2.882
10256W        W78729  38.864  44.389   4.313
10257W        W78730   2.299   2.956   4.219
10258W        W78731  23.528  24.119  14.453
10259W        W78732   5.691   9.298   2.724
10260W        W78733  41.392  27.194  12.010
10261W        W78734  28.038  10.381   4.749
10262W        W78735  11.345   4.258   2.828
10263W        W78736  38.959  41.034   2.794
10264W        W78737  43.847  27.085  12.546
10265W        W78738  28.982  29.615  14.829
10266W        W78739  28.534  41.377   4.128
10267W        W78740   9.346  20.622   0.756
10268W        W78741  42.788  42.888  10.591
10269W        W78742  10.770  41.392   3.636
10270W        W78743  20.596   1.750  12.529
10271W        W78744  19.170  21.654   4.194
10272W        W78745  24.638   1.269  11.497
10273W        W78746  29.031  43.373  14.922
10274W        W78747  24.628   7.227  14.382
10275W        W78748   8.713  33.009  10.953
10276W        W78749   1.392   6.333   4.121
10277W        W78750  36.494  37.452  10.981
10278W        W78751  41.525  34.034   0.373
10279W        W78752   1.316  15.178  12.513
10280W        W78753  44.297   9.704  13.793
10281W        W78754  42.383  35.006  12.889
10282W        W78755   6.239  33.069   2.323
10283W        W78756  29.145  19.254  12.081
10284W        W78757  18.664  37.942   2.803
10285W        W78758  24.105  25.490   3.836
10286W        W78759  23.052  35.505   0.304
10287W        W78760  34.981   6.894   2.380
10288W        W78761  13.333  19.538   2.244
10289W        W78762   3.416  30.615  13.442
10290W        W78763  42.877  32.921  12.531
10291W        W78764   0.932  22.164  13.925
10292W        W78765  15.096  40.877   0.278
10293W        W78766  42.791  36.954   1.752
10294W        W78767  38.033   0.388   3.768
10295W        W78768  36.401  28.176  14.291
10296W        W78769   4.945   4.341   0.832
10297W        W78770  22.145   2.884  10.427
10298W        W78771  42.790   5.276  13.960
10299W        W78772   9.380  30.159   1.275
10300W        W78773  26.027  23.631  14.019
10301W        W78774  37.945  35.950  11.510
10302W        W78775  21.681  28.523   4.242
10303W        W78776  43.314  39.826  10.419
10304W        W78777  11.282  10.842   2.324
10305W        W78778  16.806  33.980   0.270
10306W        W78779  41.787  31.096  11.503
10307W        W78780  43.777  44.366   4.192
10308W        W78781  24.601  16.600   2.178
10309W        W78782  27.941  28.573   2.293
10310W        W78783  22.199  39.951   2.415
10311W        W78784  28.998   3.823   0.740
10312W        W78785   0.437   4.806  11.396
10313W        W78786  38.327  25.577  14.957
10314W        W78787  35.423  11.760   1.386
10315W        W78788  43.941   1.249  13.313
10316W        W78789   9.151  27.179  11.867
10317W        W78790  13.709  21.233   1.717
10318W        W78791  17.101   0.373   2.768
10319W        W78792  37.433  23.590  13.023
10320W        W78793  21.603  21.598   1.848
10321W        W78794  25.115   4.730   4.287
10322W        W78795  13.169  43.983   4.279
10323W        W78796  44.483   3.453   2.719
10324W        W78797  34.112  22.507  12.392
10325W        W78798  44.910  10.139  14.975
10326W        W78799  42.908  12.640  13.520
10327W        W78800  30.161  24.512   1.729
10328W        W78801   6.198  39.932  10.468
10329W        W78802  20.542  10.846   2.210
10330W        W78803  44.872  20.588   3.283
10331W        W78804  19.191   4.278  12.508
10332W        W78805  19.741  31.923  13.498
10333W        W78806  30.975  29.948   1.436
10334W        W78807  22.042  11.756  12.527
10335W        W78808  35.513   2.760  11.424
10336W        W78809  13.285  21.719  10.420
10337W        W78810  29.533  17.085   0.757
10338W        W78811   2.823  38.009   3.720
10339W        W78812  22.619  13.305  12.949
10340W        W78813  15.619   0.770   0.841
10341W        W78814  38.565  20.567  14.293
10342W        W78815  40.383  44.967   4.211
10343W        W78816  35.952  26.592  13.970
10344W        W78817  25.096  15.593   3.771
10345W        W78818  23.612  20.033   2.807
10346W        W78819  35.586  17.295  11.895
10347W        W78820  32.626  10.344   2.247
10348W        W78821   2.448  23.593   3.865
10349W        W78822  41.899  11.856   3.697
10350W        W78823  34.510  26.172  11.031
10351W        W78824  12.312  40.948   3.320
10352W        W78825  24.681   0.828  10.075
10353W        W78826  28.465  23.056   0.799
10354W        W78827   2.967  39.817  13.332
10355W        W78828  29.074   9.813   2.869
10356W        W78829  13.845  15.220   2.405
10357W        W78830  38.848  33.132   0.264
10358W        W78831  31.467   1.290   2.366
10359W        W78832  18.656  38.420  11.460
10360W        W78833  18.569  11.851  12.975
10361W        W78834  21.686  30.095   0.727
10362W        W78835  14.731   9.368   4.134
10363W        W78836   2.936   6.219  12.489
10364W        W78837   7.405  10.290   0.960
10365W        W78838  31.504   6.725  13.949
10366W        W78839  12.329   4.699   3.351
10367W        W78840   1.910  19.640   4.132
10368W        W78841  30.106  14.161   3.837
10369W        W78842  20.648  15.307  14.853
10370W        W78843  24.217  40.966   4.130
10371W        W78844  40.959  35.381  13.344
10372W        W78845  11.778  35.070  12.367
10373W        W78846  14.230  29.638   2.695
10374W        W78847   3.355   0.368   0.876
10375W        W78848   4.910   0.381   1.299
10376W        W78849   3.842  17.131  11.443
10377W        W78850   9.296  21.559  13.798
10378W        W78851  41.932  37.990  14.886
10379W        W78852  31.627  30.069   3.713
10380W        W78853  42.504  33.594  10.432
10381W        W78854  38.412  42.358  11.501
10382W        W78855  12.856  32.552  13.027
10383W        W78856  39.411  24.220  11.903
10384W        W78857  44.994  26.519   1.358
10385W        W78858  22.018  32.447  14.861
10386W        W78859  44.408   6.807   2.400
10387W        W78860   7.829  34.954  11.905
10388W        W78861  43.012  11.222  10.532
10389W        W78862  44.839  20.249  13.459
10390W        W78863  11.246  12.181   3.774
10391W        W78864  12.243   4.805   4.689
10392W        W78865  43.453  32.976  12.949
10393W        W78866   6.190  28.012  12.461
10394W        W78867   3.882  35.449  13.399
10395W        W78868   1.384  32.022   1.227
10396W        W78869  21.556  32.977   3.643
10397W        W78870  34.896  30.575   0.952
10398W        W78871  42.343  44.453  13.462
10399W        W78872   9.779  13.603   3.645
10400W        W78873  11.665   0.480  10.524
10401W        W78874  43.897  36.872   3.704
10402W        W78875   9.754  37.354  11.590
10403W        W78876  34.081  16.317   4.715
10404W        W78877   0.346  36.572  12.997
10405W        W78878  23.690  25.984  11.414
10406W        W78879  18.766   6.684  14.959
10407W        W78880   1.385  38.873  12.965
10408W        W78881   8.852   4.754   0.830
10409W        W78882  11.172  24.020  11.969
10410W        W78883   4.931  43.792   1.900
10411W        W78884  24.517   0.305   5.157
10412W        W78885  20.201  10.244   2.207
10413W        W78886  42.397  35.059   0.833
10414W        W78887  40.846  41.012  13.004
10415W        W78888  22.675   6.365   2.748
10416W        W78889   7.890  14.727  10.405
10417W        W78890  23.099  24.530  13.816
10418W        W78891  44.989  38.416  12.574
10419W        W78892  11.796  23.577   2.342
10420W        W78893  31.153  34.582  12.084
10421W        W78894  10.179   2.275   2.247
10422W        W78895   1.370  26.624   3.832
10423W        W78896  10.180  35.941   5.303
10424W        W78897  28.945  41.518  13.461
10425W        W78898  40.478  36.562  13.893
10426W        W78899   6.259  16.609   9.986
10427W        W78900  31.094   4.415  12.891
10428W        W78901  27.154   4.415  10.629
10429W        W78902  27.641  25.631   1.400
10430W        W78903  24.174  12.182   1.335
10431W        W78904   6.409  41.348  14.441
10432W        W78905  21.239   4.700   1.273
10433W        W78906  38.916   7.905  14.887
10434W        W78907  43.295  11.685  14.297
10435W        W78908  33.005  26.203  11.419
10436W        W78909  12.639   1.344   4.341
10437W        W78910   7.756  27.527   2.290
10438W        W78911  14.658  13.808  11.926
10439W        W78912  42.473  36.349  12.060
10440W        W78913  38.355  25.029   3.821
10441W        W78914  26.569  12.135  13.036
10442W        W78915  36.022  18.149  10.539
10443W        W78916  44.429   6.291  10.977
10444W        W78917   8.701  43.328  13.851
10445W        W78918  20.225  19.210  12.058
10446W        W78919  28.631  28.547  10.505
10447W        W78920  27.100  21.731  13.352
10448W        W78921  13.117  34.388  13.364
10449W        W78922  10.384  29.588  11.032
10450W        W78923  37.548  42.462   3.265
10451W        W78924  20.700  37.870  11.449
10452W        W78925  20.683  28.144  12.432
10453W        W78926  37.073  38.328   0.907
10454W        W78927  41.837  35.552   3.864
10455W        W78928  30.413  39.834   4.608
10456W        W78929  28.523  31.633   4.793
10457W        W78930   2.732  12.357   1.389
10458W        W78931   1.347  42.349   2.663
10459W        W78932  28.655  20.591   3.800
10460W        W78933  23.023  11.354  12.964
10461W        W78934  23.640  44.474   2.361
10462W        W78935   9.201  17.591   0.885
10463W        W78936  40.846   0.311  14.976
10464W        W78937  31.132  31.470  12.085
10465W        W78938  24.062  15.807  10.570
10466W        W78939  20.081   8.360   3.375
10467W        W78940  34.539   8.377  14.844
10468W        W78941  10.377  36.570  14.404
10469W        W78942  27.523  16.641  10.977
10470W        W78943  41.528  40.430   4.724
10471W        W78944  37.345  14.314   3.693
10472W        W78945  29.512  37.451  13.907
10473W        W78946  34.985  43.493   3.238
10474W        W78947   4.846  37.506  10.404
10475W        W78948  21.166  13.650   4.769
10476W        W78949   4.238   8.306   0.421
10477W        W78950  10.875  16.313   2.706
10478W        W78951   5.328  11.789   3.800
10479W        W78952   8.380  44.822   2.389
10480W        W78953   8.316  16.745  14.001
10481W        W78954  41.968  25.219   9.985
10482W        W78955   1.784  41.323  13.872
10483W        W78956  33.532  14.231  11.025
10484W        W78957  43.367  22.715   1.776
10485W        W78958  30.641  20.090  13.820
10486W        W78959  28.967   5.818   4.320
10487W        W78960  14.153   9.171   0.810
10488W        W78961  15.704  28.516  13.907
10489W        W78962  16.588   2.341  12.542
10490W        W78963  22.513  16.314  14.281
10491W        W78964  14.730  41.533  14.356
10492W        W78965  43.784   0.885   4.164
10493W        W78966   4.242  10.258  12.493
10494W        W78967  43.295  34.961   3.183
10495W        W78968   9.877  20.616   4.812
10496W        W78969  36.400  26.964   4.653
10497W        W78970   8.377  31.129   2.249
10498W        W78971  36.896  10.801   3.176
10499W        W78972  11.351   2.924   3.318
10500W        W78973  26.518  21.110   0.954
10501W        W78974   4.356  38.520   4.767
10502W        W78975  14.310   1.279   1.371
10503W        W78976   2.438  35.967  14.843
10504W        W78977   0.349  25.614   3.269
10505W        W78978  35.597  23.156  14.461
10506W        W78979  15.724  36.466   1.855
10507W        W78980  23.626   8.677   4.144
10508W        W78981  31.417  14.685  11.027
10509W        W78982  24.519  25.136   0.884
10510W        W78983  43.327  27.686   2.900
10511W        W78984   3.873  28.463  14.790
10512W        W78985  13.777   6.849   2.412
10513W        W78986  35.933  14.327  10.589
10514W        W78987  21.170  22.116   0.873
10515W        W78988   2.953  38.407   1.715
10516W        W78989  43.361  20.244   4.334
10517W        W78990  10.329  18.103   3.311
10518W        W78991  23.002  20.267   0.380
10519W        W78992   8.676  28.974   4.758
10520W        W78993  27.465  13.202  14.389
10521W        W78994  42.294  35.098   2.743
10522W        W78995  29.154  25.106   0.919
10523W        W78996   8.886  39.865  10.051
10524W        W78997  27.090  12.796  10.951
10525W        W78998   5.333   1.299   4.161
10526W        W78999  13.672   2.287   3.808
10527W        W79000  24.082  15.807  14.463
10528W        W79001  37.971  20.181  14.012
10529W        W79002  39.448  11.143   0.822
10530W        W79003   7.687  27.502   2.667
10531W        W79004  40.523  41.018   3.350
10532W        W79005  34.587   3.436   2.228
10533W        W79006  35.518   5.850   0.737
10534W        W79007   1.256  18.707  13.958
10535W        W79008  25.685  14.756   3.806
10536W        W79009  43.374  20.189   2.186
10537W        W79010  26.569   0.291  10.441
10538W        W79011  20.074  17.243   1.793
10539W        W79012  44.380   9.881  11.118
10540W        W79013  24.700   1.893   4.214
10541W        W79014  38.009  26.990  11.892
10542W        W79015   6.799  38.420   4.804
10543W        W79016  38.880  13.740   1.446
10544W        W79017   3.394  12.647   3.240
10545W        W79018  16.288  24.048  12.547
10546W        W79019  11.288  43.933   2.250
10547W        W79020   4.306  11.197  14.445
10548W        W79021  37.539  15.685  12.848
10549W        W79022  21.691   9.653   2.372
10550W        W79023  43.871  40.351  14.006
10551W        W79024  26.956  12.796  12.531
10552W        W79025   4.736  10.195  10.979
10553W        W79026  15.314  18.548   0.312
10554W        W79027  37.556   6.730  14.799
10555W        W79028  35.937  15.673  11.538
10556W        W79029  23.704   4.376  13.347
10557W        W79030  43.778   6.795   3.776
10558W        W79031   0.860   8.740  14.961
10559W        W79032  23.657  39.516   4.639
10560W        W79033  42.374  43.486  10.929
10561W        W79034  25.093   9.151  11.452
10562W        W79035  32.122  11.145  14.763
10563W        W79036   6.336  34.596   0.416
10564W        W79037  20.583  18.245  11.098
10565W        W79038  30.412  14.274  11.894
10566W        W79039   2.325  34.546   0.727
10567W        W79040  23.523  23.733   0.319
10568W        W79041  15.313  16.090  12.879
10569W        W79042  42.321  10.352   2.813
10570W        W79043  27.951   7.875  14.380
10571W        W79044  28.019   2.889  12.994
10572W        W79045  43.787  21.186  13.954
10573W        W79046  13.311  43.445   2.346
10574W        W79047  19.263  15.277   0.876
10575W        W79048  18.751   1.261  13.028
10576W        W79049   2.745  16.142  10.613
10577W        W79050   7.213  24.572  13.921
10578W        W79051  39.401   3.449   2.780
10579W        W79052  40.497   7.292   5.191
10580W        W79053  23.047  20.059  11.958
10581W        W79054  37.550   9.361  11.494
10582W        W79055   6.282  29.576   3.226
10583W        W79056  23.684  34.870  12.874
10584W        W79057  13.609  36.966   4.176
10585W        W79058  27.080  17.253   0.277
10586W        W79059  14.267  25.020   2.213
10587W        W79060  13.297  36.081  12.049
10588W        W79061  27.498  38.872   2.712
10589W        W79062  22.575  32.940  12.076
10590W        W79063  44.432  14.835  13.933
10591W        W79064  36.846  27.671  13.999
10592W        W79065  29.555  40.913   3.694
10593W        W79066  15.313  32.614   3.162
10594W        W79067  14.772  38.972  12.522
10595W        W79068  36.366  33.887   1.306
10596W        W79069   0.787  12.155   3.353
10597W        W79070  31.906  29.089  12.550
10598W        W79071  29.484  13.325  12.415
10599W        W79072   3.901  31.593  11.080
10600W        W79073   8.763  43.429   0.958
10601W        W79074  12.691   8.249   4.253
10602W        W79075  22.641   3.223   0.821
10603W        W79076  37.929  11.692   0.896
10604W        W79077  42.390  26.118  12.458
10605W        W79078   6.284  30.476  10.510
10606W        W79079   6.868  17.751  10.900
10607W        W79080  32.592   2.736   3.153
10608W        W79081   3.326  43.416  12.048
10609W        W79082  11.301  44.763  10.502
10610W        W79083  37.044  39.995  11.542
10611W        W79084   2.417  21.203   1.698
10612W        W79085  19.276  24.081  13.885
10613W        W79086  15.116  39.062  12.907
10614W        W79087  32.498  32.502  12.365
10615W        W79088   0.842   4.381  11.504
10616W        W79089  31.619  11.335   1.831
10617W        W79090  44.883  28.937   2.202
10618W        W79091  30.994  20.166   2.724
10619W        W79092   5.691   1.450  14.436
10620W        W79093   8.282  19.710  14.899
10621W        W79094  15.127  33.122   4.333
10622W        W79095   3.449  19.760  12.083
10623W        W79096  18.757   2.747  12.414
10624W        W79097   6.221  23.081  14.943
10625W        W79098  18.658  26.587  13.924
10626W        W79099  32.516  20.063   0.337
10627W        W79100  18.105  34.588  12.463
10628W        W79101   6.245   6.266   1.339
10629W        W79102  24.626  19.582   2.303
10630W        W79103  14.149  44.768  13.811
10631W        W79104  35.389  36.987  12.084
10632W        W79105  25.667  44.832  11.494
10633W        W79106  24.075  24.691   2.325
10634W        W79107  14.683  41.362   3.387
10635W        W79108   8.302  28.958  13.984
10636W        W79109   4.238  13.807   0.467
10637W        W79110   7.688  17.197  11.068
10638W        W79111   7.218  41.951  14.892
10639W        W79112  20.100  42.495  13.849
10640W        W79113  26.639  40.378   3.259
10641W        W79114  41.964  25.685  10.902
10642W        W79115  23.017  11.259   3.327
10643W        W79116  13.163  20.706  12.547
10644W        W79117  39.925   8.859   3.154
10645W        W79118  35.494  18.771  10.489
10646W        W79119  11.263  30.159  14.473
10647W        W79120  33.031  44.375  11.540
10648W        W79121   9.181  13.163  12.954
10649W        W79122  36.920   1.942   2.355
10650W        W79123  41.822  10.378  14.861
10651W        W79124  35.564  28.680  13.046
10652W        W79125  26.159  40.939  14.811
10653W        W79126  18.280  13.810   2.371
10654W        W79127   6.425   5.407  12.377
10655W        W79128   4.774  42.018   1.919
10656W        W79129  31.616   6.373  10.521
10657W        W79130  17.655   9.874   4.347
10658W        W79131  24.212  17.232  11.934
10659W        W79132  33.993  32.604   3.209
10660W        W79133  26.076  38.542  10.934
10661W        W79134   8.863   4.743  10.950
10662W        W79135  10.796  18.140   2.389
10663W        W79136  34.528  21.718  11.991
10664W        W79137  12.147   2.291  11.118
10665W        W79138  20.559   5.397   2.694
10666W        W79139  24.212  17.113   3.817
10667W        W79140  30.414   0.383  10.412
10668W        W79141  35.587  27.176   1.427
10669W        W79142   3.819  43.821   2.784
10670W        W79143  12.127   9.371  11.497
10671W        W79144   1.445  30.104   1.735
10672W        W79145   1.435  39.481  10.459
10673W        W79146  22.115   1.247   0.335
10674W        W79147  35.872  13.246  12.851
10675W        W79148  19.645  17.150   3.369
10676W        W79149   5.714  20.691   0.746
10677W        W79150  34.064   8.690  14.414
10678W        W79151  20.567   3.386  14.000
10679W        W79152  13.832  37.564  11.941
10680W        W79153  11.756   7.863  11.858
10681W        W79154  19.039   9.723  10.512
10682W        W79155  26.106  23.057   4.135
10683W        W79156  26.685   3.423  13.356
10684W        W79157  29.597   8.706   4.350
10685W        W79158  42.334   4.249  14.292
10686W        W79159  44.940  24.491   4.237
10687W        W79160  36.978   4.314  12.463
10688W        W79161  22.723   2.469   1.828
10689W        W79162  29.486  39.996   4.281
10690W        W79163  12.266  27.190   2.398
10691W        W79164   4.235  43.983   0.967
10692W        W79165  27.989  13.710   1.230
10693W        W79166  42.921  27.140  11.086
10694W        W79167   8.191  20.732  13.428
10695W        W79168  30.006   4.399   2.734
10696W        W79169  34.573   6.825   0.277
10697W        W79170  24.110  13.828  10.528
10698W        W79171  24.514  27.193   1.420
10699W        W79172  22.635  36.852   0.288
10700W        W79173  44.011  10.273   1.220
10701W        W79174  15.728   5.723  10.098
10702W        W79175  41.493  13.322  13.871
10703W        W79176  23.061  38.029  13.448
10704W        W79177  11.709  10.383   2.704
10705W        W79178  35.096  37.044   0.809
10706W        W79179  42.490  43.944  12.861
10707W        W79180  27.455  44.502   2.404
10708W        W79181  37.417   0.319   3.233
10709W        W79182  36.481   5.317  10.487
10710W        W79183  44.287  25.967  14.905
10711W        W79184  14.623   5.416  12.375
10712W        W79185  29.485  18.154  12.522
10713W        W79186  23.068  15.241  13.893
10714W        W79187  34.886  44.261   3.370
10715W        W79188  14.311  24.510   4.202
10716W        W79189  28.009  11.764   3.335
10717W        W79190  14.831  17.258  11.593
10718W        W79191  28.098  24.606   2.384
10719W        W79192   5.207   5.852   4.691
10720W        W79193  20.086   3.385   4.278
10721W        W79194  27.097  33.625  14.761
10722W        W79195  13.617  13.745   3.845
10723W        W79196  44.267  37.882  12.447
10724W        W79197   2.926   9.718   0.456
10725W        W79198  31.933   8.343   4.238
10726W        W79199  30.560  38.375   0.397
10727W        W79200  28.508   6.754   1.374
10728W        W79201  40.875  15.684  10.931
10729W        W79202  26.482   6.283   0.466
10730W        W79203  39.345  25.172   0.883
10731W        W79204  35.910   5.768   4.135
10732W        W79205   7.803  15.663   4.144
10733W        W79206  38.445  40.401   4.125
10734W        W79207   9.287   4.778   4.695
10735W        W79208  38.514  19.709  11.095
10736W        W79209  25.505  40.815   1.793
10737W        W79210  28.139  34.874   4.198
10738W        W79211   1.769  32.074  10.158
10739W        W79212  12.674  41.890   0.901
10740W        W79213   7.784  32.971   3.792
10741W        W79214  26.501   2.845  14.020
10742W        W79215  34.954  24.134  11.416
10743W        W79216  44.877  38.507   3.756
10744W        W79217  39.848  42.937   0.900
10745W        W79218  23.621  11.744   0.287
10746W        W79219  16.789   4.845  13.877
10747W        W79220  32.493  32.588   1.833
10748W        W79221  41.492  32.073   0.312
10749W        W79222  17.297  13.826  11.435
10750W        W79223  19.695  25.560   0.341
10751W        W79224  10.243  22.121  10.942
10752W        W79225   6.716  43.436  10.491
10753W        W79226   4.929   2.280  10.930
10754W        W79227   6.863   7.308   3.690
10755W        W79228  42.001  33.559  11.373
10756W        W79229  13.794  26.546   2.292
10757W        W79230  25.010  23.072   0.776
10758W        W79231   9.766  42.800  10.097
10759W        W79232   3.826  43.386  13.362
10760W        W79233  43.331  44.486   3.172
10761W        W79234  14.199   8.389   1.708
10762W        W79235   8.852   8.170   4.180
10763W        W79236  16.269  35.054   0.376
10764W        W79237   3.890   9.782   1.215
10765W        W79238  11.639  18.183   2.718
10766W        W79239  38.506   0.867  12.064
10767W        W79240   6.262  44.281  13.391
10768W        W79241  17.304  14.320  12.567
10769W        W79242  30.948   6.349   4.249
10770W        W79243  36.865  43.787  13.898
10771W        W79244   2.345   0.887  13.949
10772W        W79245  27.588  20.594   4.338
10773W        W79246  42.823  21.642   1.225
10774W        W79247  42.994  25.580  12.057
10775W        W79248  43.461   8.285  13.797
10776W        W79249  43.300  18.642   2.673
10777W        W79250  44.983   8.225   3.357
10778W        W79251  24.016  40.990   4.716
10779W        W79252  11.643  23.717  14.947
10780W        W79253  30.563  30.062  10.614
10781W        W79254  38.910  25.483   4.266
10782W        W79255  20.688  44.396  14.008
10783W        W79256  41.431   3.776   3.676
10784W        W79257  44.767  15.629  11.504
10785W        W79258  43.927  34.562   4.767
10786W        W79259  12.802  31.935   1.371
10787W        W79260  13.211  34.580   0.462
10788W        W79261  31.570   8.778   0.901
10789W        W79262   5.319  15.150  13.345
10790W        W79263   0.814  37.846   0.788
10791W        W79264   7.404  25.019   3.149
10792W        W79265   8.397  21.527   1.265
10793W        W79266  25.698  23.023   0.898
10794W        W79267  38.378   7.252   3.341
10795W        W79268   7.850  36.572  11.443
10796W        W79269  32.497   4.237  11.429
10797W        W79270  13.818  26.651   0.785
10798W        W79271  19.270  24.198  11.516
10799W        W79272   7.685  25.198  10.140
10800W        W79273  13.199   9.352  14.863
10801W        W79274  24.101  34.043  11.950
10802W        W79275  40.504  36.043   5.091
10803W        W79276   5.751   2.353   0.321
10804W        W79277  43.010  38.460  14.473
10805W        W79278  26.599  28.572  13.518
10806W        W79279  28.619   6.872   4.182
10807W        W79280   0.826  11.743   4.722
10808W        W79281   5.429  42.008  10.552
10809W        W79282  26.113  24.505  12.414
10810W        W79283  19.066   5.728  11.459
10811W        W79284  26.101  34.064   2.833
10812W        W79285  20.138  10.709   1.398
10813W        W79286  14.185  13.836  11.121
10814W        W79287  35.859  15.088   0.857
10815W        W79288  17.770   7.308  12.523
10816W        W79289  18.648  30.602   1.250
10817W        W79290   7.292  36.394  14.398
10818W        W79291   7.238  22.652  14.962
10819W        W79292   7.726  11.218  14.516
10820W        W79293  27.972  15.252   1.702
10821W        W79294  13.331  34.957   5.088
10822W        W79295  25.581   1.346  10.087
10823W        W79296  29.650  38.940   0.900
10824W        W79297  28.972  43.301  13.894
10825W        W79298   9.262  42.837  14.326
10826W        W79299  32.960  41.389  12.552
10827W        W79300  40.458  12.187  12.886
10828W        W79301   2.303   0.869  12.086
10829W        W79302  40.959  43.487  11.990
10830W        W79303  41.004  36.935  13.892
10831W        W79304  14.767  19.059   4.804
10832W        W79305  23.512  28.649   0.315
10833W        W79306   3.862  27.006  12.854
10834W        W79307  34.583   8.706   2.712
10835W        W79308  42.302  18.056  10.449
10836W        W79309  28.546  27.577  13.349
10837W        W79310  18.144  38.355   0.421
10838W        W79311  28.663  37.053  12.940
10839W        W79312  23.612  20.032  13.458
10840W        W79313  12.799  23.641   2.813
10841W        W79314  43.353  42.964  10.124
10842W        W79315  21.026  38.008  12.366
10843W        W79316  36.593  42.326   1.330
10844W        W79317  20.033  17.266   2.378
10845W        W79318  34.893  24.210  14.479
10846W        W79319  13.802   9.651  14.397
10847W        W79320  42.375  32.917  10.996
10848W        W79321  44.987  44.460   1.935
10849W        W79322  21.140   3.236  10.955
10850W        W79323  23.618  14.588  12.910
10851W        W79324   9.249  20.169   2.271
10852W        W79325   0.901  43.273   0.414
10853W        W79326   3.923  37.838  14.479
10854W        W79327   9.327  34.111   0.457
10855W        W79328  42.820   9.321  10.890
10856W        W79329   6.270  44.386   1.846
10857W        W79330  30.605  36.511  13.392
10858W        W79331  21.554  42.521   1.426
10859W        W79332  34.582  31.455   3.317
10860W        W79333  13.706  39.883  14.447
10861W        W79334  11.186  21.694  10.927
10862W        W79335  41.028   8.733  10.470
10863W        W79336  10.158  19.212   2.262
10864W        W79337   5.334  18.287  12.920
10865W        W79338   0.445   2.378   2.799
10866W        W79339  20.050   8.333   0.477
10867W        W79340  12.714  24.668   0.466
10868W        W79341   9.295  17.687   3.264
10869W        W79342  38.892  39.819   0.357
10870W        W79343  18.642  14.756  11.552
10871W        W79344   7.234   8.804  12.458
10872W        W79345  14.638   8.329   2.799
10873W        W79346  41.891  14.733   0.374
10874W        W79347  19.046   6.789  13.961
10875W        W79348  33.572  10.702   0.297
10876W        W79349   8.799  13.182  14.412
10877W        W79350   7.816  24.656  14.880
10878W        W79351   4.342  34.394   3.324
10879W        W79352  28.526  19.762   3.223
10880W        W79353  37.922  44.275   1.892
10881W        W79354   4.923  13.641  10.523
10882W        W79355  39.815  10.774  14.488
10883W        W79356  28.550  19.118   2.663
10884W        W79357  33.590   2.797  14.325
10885W        W79358  34.121  12.318   3.179
10886W        W79359   1.411  44.414  14.488
10887W        W79360  39.364  26.124  14.910
10888W        W79361  31.120  42.855  10.509
10889W        W79362  39.518  13.660  14.868
10890W        W79363  22.584  19.711   0.912
10891W        W79364   5.819  30.045   1.851
10892W        W79365  13.774   0.443   1.747
10893W        W79366   5.326   7.725  13.015
10894W        W79367  41.401  23.679   1.911
10895W        W79368  24.525   7.269   2.717
10896W        W79369  20.634   2.251   0.852
10897W        W79370   7.291  22.033   1.274
10898W        W79371  39.949  35.948   2.763
10899W        W79372  23.186  44.376  14.426
10900W        W79373  14.752   7.319   3.189
10901W        W79374   7.200   2.267   3.758
10902W        W79375  37.983   1.253  14.396
10903W        W79376  29.469  31.093   1.347
10904W        W79377  27.044   7.742   0.809
10905W        W79378  38.484   3.932   3.195
10906W        W79379   9.844  17.186  12.939
10907W        W79380  39.475  43.274  12.857
10908W        W79381  11.708   6.909   1.417
10909W        W79382  39.461  44.442  14.828
10910W        W79383  16.098  38.393   3.337
10911W        W79384  38.509  22.188  14.412
10912W        W79385  32.057  18.158  10.032
10913W        W79386  26.573  17.721  11.078
10914W        W79387   7.867  28.107   2.758
10915W        W79388  13.199  14.642   0.890
10916W        W79389   0.334   1.887  14.790
10917W        W79390  29.962  25.584  11.581
10918W        W79391  11.724  36.005   2.399
10919W        W79392  31.555  41.856  10.602
10920W        W79393  24.979  34.865   4.329
10921W        W79394  23.633   0.270  12.847
10922W        W79395   4.863  33.959   4.770
10923W        W79396  25.561   4.811  11.394
10924W        W79397  34.442   4.342   1.419
10925W        W79398  22.044  24.156   4.310
10926W        W79399  32.906   0.366  10.927
10927W        W79400  34.548  37.533   3.374
10928W        W79401  25.974  44.835   2.764
10929W        W79402  36.025  19.195   0.317
10930W        W79403  42.377  16.252  11.911
10931W        W79404  13.612   6.289  12.527
10932W        W79405  38.042  17.070   4.262
10933W        W79406  34.516  25.962   1.823
10934W        W79407   3.904   5.204   4.354
10935W        W79408  32.611  43.449   2.757
10936W        W79409  39.410  11.253  11.504
10937W        W79410  19.667   7.817  14.857
10938W        W79411  41.913  28.619   1.817
10939W        W79412  21.545  43.308  11.410
10940W        W79413  39.348  26.170  10.944
10941W        W79414  41.036  14.614   0.290
10942W        W79415  10.323  25.071  13.333
10943W        W79416  34.026   8.852  11.908
10944W        W79417  36.921  24.067   1.780
10945W        W79418  14.658  33.553   0.763
10946W        W79419   4.349  21.101   2.206
10947W        W79420   3.337  11.764   1.896
10948W        W79421  16.618  41.960  13.466
10949W        W79422  33.592  19.108  12.896
10950W        W79423  33.129  37.433   4.784
10951W        W79424  12.224  27.992   1.902
10952W        W79425   8.290  25.705   1.427
10953W        W79426  44.763  19.779  11.591
10954W        W79427   0.808  25.591   1.809
10955W        W79428  24.568  44.447   4.170
10956W        W79429  18.241  33.432   2.367
10957W        W79430  10.346  24.091   4.633
10958W        W79431   1.476  21.744  14.792
10959W        W79432  13.230  41.932  10.627
10960W        W79433  37.346   5.204  12.860
10961W        W79434  13.646  26.098  13.014
10962W        W79435  24.098  24.167   1.787
10963W        W79436  38.385   1.482   4.631
10964W        W79437   1.428  41.043  10.921
10965W        W79438   3.257  14.715   3.381
10966W        W79439  11.176   5.373   2.883
10967W        W79440  13.223   7.859   3.227
10968W        W79441  25.511  32.413  12.488
10969W        W79442  13.123  41.297  10.633
10970W        W79443  11.297  10.632  11.412
10971W        W79444   0.443  33.089  11.611
10972W        W79445  13.645  21.555  10.978
10973W        W79446   2.813  24.646  12.364
10974W        W79447  29.955  21.019  11.010
10975W        W79448   7.784   1.403  11.100
10976W        W79449  36.045  31.104   1.322
10977W        W79450  37.921  19.780   4.823
10978W        W79451   5.842   1.372  12.496
10979W        W79452  37.371   5.717  10.421
10980W        W79453  33.422  42.388   5.267
10981W        W79454  35.982  22.564   2.840
10982W        W79455  43.935  35.564   2.667
10983W        W79456  38.030  14.827   2.849
10984W        W79457  27.554  33.536   2.252
10985W        W79458   5.439  20.663  11.889
10986W        W79459  27.594   6.799  10.523
10987W        W79460  27.600  28.082  12.970
10988W        W79461  41.978  31.417   0.250
10989W        W79462  19.059  10.361   4.787
10990W        W79463  17.776  42.020   1.717
10991W        W79464   0.797  28.547  10.406
10992W        W79465  43.509  38.048   1.319
10993W        W79466  17.265  39.960   1.818
10994W        W79467  41.414  26.461   2.364
10995W        W79468  31.958   1.267  14.370
10996W        W79469  17.794  39.404   3.665
10997W        W79470   9.316  35.939  12.873
10998W        W79471  14.612  30.543  13.883
10999W        W79472   0.942  17.561  13.335
11000W        W79473   4.879  14.727  14.389
11001W        W79474  19.571  12.648  11.083
11002W        W79475  39.426  14.174  13.477
11003W        W79476  42.827  15.699   2.264
11004W        W79477  33.595   9.231   0.962
11005W        W79478  38.873  16.780   1.273
11006W        W79479  26.502  16.707   2.774
11007W        W79480  41.472  14.623  14.813
11008W        W79481  29.537  32.927   1.762
11009W        W79482  29.569  22.611  11.608
11010W        W79483  41.866   4.404   2.197
11011W        W79484  19.574  16.100  11.033
11012W        W79485  10.682  23.121  12.461
11013W        W79486  29.480  15.735  11.383
11014W        W79487   7.281  10.645   4.198
11015W        W79488  29.452  10.289  12.007
11016W        W79489  16.583   7.862  10.925
11017W        W79490  12.680  29.014  10.575
11018W        W79491  28.057  40.314  11.872
11019W        W79492  29.999  31.610   3.157
11020W        W79493  16.224  15.597   3.865
11021W        W79494   6.768  13.804   4.747
11022W        W79495  30.113  23.156   4.818
11023W        W79496  18.763  11.735   3.639
11024W        W79497  25.487  32.106  14.832
11025W        W79498  19.249  37.575  13.460
11026W        W79499   9.303  11.763  13.036
11027W        W79500  29.005  33.953  11.382
11028W        W79501   4.786  21.511   2.864
11029W        W79502   0.976  39.492  12.543
11030W        W79503  23.049   0.421  14.454
11031W        W79504  29.644   1.348   1.257
11032W        W79505  30.506  14.213   3.230
11033W        W79506  18.667  40.363   3.228
11034W        W79507  37.027   0.398   1.359
11035W        W79508  15.245   1.977  14.958
11036W        W79509   6.320  18.108   4.265
11037W        W79510   3.461  33.576   5.208
11038W        W79511  10.322  40.443  13.452
11039W        W79512  14.150  31.429  10.507
11040W        W79513  11.822   8.683   5.202
11041W        W79514   6.785  21.534   3.214
11042W        W79515  30.094  29.100  14.772
11043W        W79516  23.700  27.078  13.947
11044W        W79517  43.855  14.104   4.835
11045W        W79518  41.440   2.437   2.678
11046W        W79519  17.761  40.362  12.036
11047W        W79520  35.008  16.754   0.325
11048W        W79521   7.377   1.476   2.367
11049W        W79522  39.878  36.922  12.507
11050W        W79523  44.272  26.665  14.939
11051W        W79524  37.371  37.991  10.900
11052W        W79525   5.899  11.765  11.480
11053W        W79526  10.812   4.331   1.389
11054W        W79527   7.872   2.958  10.620
11055W        W79528  15.275  37.083   3.753
11056W        W79529   1.392  28.167   3.275
11057W        W79530  13.223  38.820   1.741
11058W        W79531  15.643   9.279   4.599
11059W        W79532  29.057  37.457  13.415
11060W        W79533  42.797  23.594  10.550
11061W        W79534  42.315  34.991  13.979
11062W        W79535  32.453  19.166   2.793
11063W        W79536  34.015  38.984  12.472
11064W        W79537  16.788  24.602  11.077
11065W        W79538  16.298  29.504   4.800
11066W        W79539  35.888  40.434   1.730
11067W        W79540  34.005  24.707  14.516
11068W        W79541  40.947  18.276   4.165
11069W        W79542  20.589   2.750   4.750
11070W        W79543  36.066  17.263   0.309
11071W        W79544  40.498  43.270   0.292
11072W        W79545  23.505  11.790   0.818
11073W        W79546  39.374   1.314   3.853
11074W        W79547  38.867  39.525   4.707
11075W        W79548  36.972   2.817   0.469
11076W        W79549  15.765   9.333  14.492
11077W        W79550  16.736  38.916   0.872
11078W        W79551  27.627  14.266  12.502
11079W        W79552  35.430  16.612  10.904
11080W        W79553  31.138   1.305  14.283
11081W        W79554  30.018  29.048  13.036
11082W        W79555  21.521   2.229  14.879
11083W        W79556  34.047  41.435   1.869
11084W        W79557   6.364  20.659  14.451
11085W        W79558  41.838  12.151   0.356
11086W        W79559  11.787  24.516  14.444
11087W        W79560  20.618  13.293  12.361
11088W        W79561   3.834  37.382   2.307
11089W        W79562  21.153  31.940  12.874
11090W        W79563   6.863  18.058   4.251
11091W        W79564  31.038   9.708  12.367
11092W        W79565   5.880  39.018  11.553
11093W        W79566  13.302  33.983   4.739
11094W        W79567  16.613   1.853  12.030
11095W        W79568  22.049  34.116   1.791
11096W        W79569  32.068  31.027   0.862
11097W        W79570   4.422  19.071   2.290
11098W        W79571  16.172  42.283  14.995
11099W        W79572  22.210  30.568   3.156
11100W        W79573  20.205  24.566  14.977
11101W        W79574  10.672  44.919   4.811
11102W        W79575  35.548   9.829   0.463
11103W        W79576  15.610  15.607   0.340
11104W        W79577  30.634  44.314  13.955
11105W        W79578  34.903  13.144  13.872
11106W        W79579  35.482   6.220  12.011
11107W        W79580  12.613  40.417  10.557
11108W        W79581   0.377  43.972  11.046
11109W        W79582  16.097  38.438  13.460
11110W        W79583  35.598  36.872   4.741
11111W        W79584  12.618  11.754  13.982
11112W        W79585  34.397   2.929   0.391
11113W        W79586  43.422  12.618  13.839
11114W        W79587  44.342  27.123  13.800
11115W        W79588   7.822  24.176   1.444
11116W        W79589  14.759  23.634  13.996
11117W        W79590  32.545   3.795  14.960
11118W        W79591  44.854   3.839   0.743
11119W        W79592  26.176  24.003   4.287
11120W        W79593  41.311  33.497  13.841
11121W        W79594  28.520  11.187   2.319
11122W        W79595   2.851  20.607   1.356
11123W        W79596   7.225  23.073   5.110
11124W        W79597  38.419  41.437  13.391
11125W        W79598  11.368  24.681   2.250
11126W        W79599  31.960  15.686   0.795
11127W        W79600  38.404  26.985   3.636
11128W        W79601  28.157   9.758  13.331
11129W        W79602   6.188  18.743   1.447
11130W        W79603  40.949   4.927  12.483
11131W        W79604  15.708  25.709  11.560
11132W        W79605   0.317   4.911  10.560
11133W        W79606  18.658   1.239   3.324
11134W        W79607   7.394  36.932  12.831
11135W        W79608  41.482  12.127  14.321
11136W        W79609  35.539  25.097  12.926
11137W        W79610  23.013   5.267  12.077
11138W        W79611   3.796  13.249   2.372
11139W        W79612  14.184  34.459   2.667
11140W        W79613   8.761  13.268  11.024
11141W        W79614   2.957  40.933   0.458
11142W        W79615  43.948  18.683  14.351
11143W        W79616  31.571  24.512   5.271
11144W        W79617   8.746  10.803  10.613
11145W        W79618  21.029   3.251   3.302
11146W        W79619  32.091   4.750   1.751
11147W        W79620  20.727  32.970  12.825
11148W        W79621  36.366  20.152   3.722
11149W        W79622  13.777   7.888   1.838
11150W        W79623  22.128  10.700   0.820
11151W        W79624  10.871  18.114  11.054
11152W        W79625  25.587   3.394  12.543
11153W        W79626  21.036  21.696   5.263
11154W        W79627  43.497   5.280   2.240
11155W        W79628   1.968  22.018   2.393
11156W        W79629  39.925  25.056   2.213
11157W        W79630  41.978  35.593  13.857
11158W        W79631  12.664  22.104   0.885
11159W        W79632  30.469  30.610  14.345
11160W        W79633  43.902  31.587  11.568
11161W        W79634  17.729  28.446   4.148
11162W        W79635  12.620   8.867  12.970
11163W        W79636   5.415  32.634  14.888
11164W        W79637  44.477  28.099  14.991
11165W        W79638  39.895  20.676   0.945
11166W        W79639  13.695  22.730   4.733
11167W        W79640  22.618  18.614   1.344
11168W        W79641  21.236  21.615  11.946
11169W        W79642  20.532  41.949   1.235
11170W        W79643  37.345   4.877   3.702
11171W        W79644  36.449  44.828  14.356
11172W        W79645  23.607  12.208   2.897
11173W        W79646  24.697  28.448   4.178
11174W        W79647  42.906  26.179  13.908
11175W        W79648   2.427  19.656   0.391
11176W        W79649   2.362  13.185   0.416
11177W        W79650  33.481  16.654   1.275
11178W        W79651  24.131  14.097  10.422
11179W        W79652  18.126  29.452  10.451
11180W        W79653  37.344  35.403  14.472
11181W        W79654  35.086  16.768   3.303
11182W        W79655  24.070  12.705   1.375
11183W        W79656  13.258  40.016  14.435
11184W        W79657  32.915  24.004   4.828
11185W        W79658   1.276  29.488   4.640
11186W        W79659  26.089  37.443   0.762
11187W        W79660  33.974  24.593   1.875
11188W        W79661  18.287  38.326  14.796
11189W        W79662  44.901   5.700  13.492
11190W        W79663  44.332   5.818   0.268
11191W        W79664  20.734  16.701  13.995
11192W        W79665  25.972  24.563  12.943
11193W        W79666   4.895   1.771   1.746
11194W        W79667  15.152  33.006  10.913
11195W        W79668  16.104  29.131   1.364
11196W        W79669   4.911  31.450   3.235
11197W        W79670   5.795  34.609   4.120
11198W        W79671  12.352  25.595  11.584
11199W        W79672  18.068  15.616  14.428
11200W        W79673  10.162  31.100   1.833
11201W        W79674  13.637  16.671  13.008
11202W        W79675   7.276   4.335  11.960
11203W        W79676  17.789  26.633  12.551
11204W        W79677  23.147  11.624  14.295
11205W        W79678  18.776  44.895   2.729
11206W        W79679  32.588  22.193   2.818
11207W        W79680  10.175   5.879   2.333
11208W        W79681  23.225  15.647  12.870
11209W        W79682   1.423  30.137  11.420
11210W        W79683   4.229   2.927  14.511
11211W        W79684  26.951  34.557  11.562
11212W        W79685  18.265  21.154  11.529
11213W        W79686  12.732  37.874   3.729
11214W        W79687  18.184  17.302   2.222
11215W        W79688  43.855   2.912  10.511
11216W        W79689  32.009   7.787  14.369
11217W        W79690  25.187   8.888   0.324
11218W        W79691   9.278  19.249  10.570
11219W        W79692  19.644  36.038   2.888
11220W        W79693  43.501  21.758  13.321
11221W        W79694  35.905  34.521   3.365
11222W        W79695  37.378   3.329   1.309
11223W        W79696  29.970  14.314  14.822
11224W        W79697  24.106  31.453   3.261
11225W        W79698  16.187   2.385  12.040
11226W        W79699  12.661  39.463  14.780
11227W        W79700   4.324   4.426   0.276
11228W        W79701  42.297  17.219   1.768
11229W        W79702  44.828  34.434  13.453
11230W        W79703  15.727  13.694  11.090
11231W        W79704  17.592  10.752  12.979
11232W        W79705   3.912  41.926  13.942
11233W        W79706  41.951  19.257  13.947
11234W        W79707  44.841   1.289   1.831
11235W        W79708  42.498  18.109   3.293
11236W        W79709  22.717   0.979  13.937
11237W        W79710  44.310  22.184   1.894
11238W        W79711  40.873  16.797  14.280
11239W        W79712  38.565  11.276   1.438
11240W        W79713   2.249  20.581   3.240
11241W        W79714  11.670  18.750  12.990
11242W        W79715   4.917  11.852   3.719
11243W        W79716   1.891  17.596  14.802
11244W        W79717  30.588  21.215  10.642
11245W        W79718  32.904  40.511   1.271
11246W        W79719  12.150   4.272   1.741
11247W        W79720  25.555   5.370   0.736
11248W        W79721   4.799  42.299   0.468
11249W        W79722   6.701   4.842  13.534
11250W        W79723  15.210  33.618   1.774
11251W        W79724  44.289  38.922   5.268
11252W        W79725  36.555  31.610   0.888
11253W        W79726   2.266  29.971  11.914
11254W        W79727   8.168  27.112   3.279
11255W        W79728   9.691   9.373  14.367
11256W        W79729  43.771  14.254  11.053
11257W        W79730  35.960  14.813   3.828
11258W        W79731  24.198  43.449  12.540
11259W        W79732  10.778  35.991   0.743
11260W        W79733  26.593  12.655  14.820
11261W        W79734  18.257  16.146  12.443
11262W        W79735  44.427  12.792  10.959
11263W        W79736   6.308  25.680   1.394
11264W        W79737  19.210   5.323  13.811
11265W        W79738  38.945  36.353  10.007
11266W        W79739   0.830  28.114  14.357
11267W        W79740  40.474  38.505  12.829
11268W        W79741   9.161  14.340  10.538
11269W        W79742   0.346  42.283   0.406
11270W        W79743  15.625   0.297   4.282
11271W        W79744  22.116  18.068   2.200
11272W        W79745   5.856  19.541  13.993
11273W        W79746  20.587  36.901   4.821
11274W        W79747  41.809  12.154   4.798
11275W        W79748   7.743  23.003  11.069
11276W        W79749  37.348  26.030  14.840
11277W        W79750  11.277  39.501   1.817
11278W        W79751  23.034  37.538   2.828
11279W        W79752  37.987  35.031   4.600
11280W        W79753  29.571  18.765   2.667
11281W        W79754   8.355  31.104   4.335
11282W        W79755  38.388  41.968   4.175
11283W        W79756  14.739  34.480  12.955
11284W        W79757   8.202  20.269  13.879
11285W        W79758   9.247   6.361  12.032
11286W        W79759  23.115  41.483   2.228
11287W        W79760  21.695  10.182   0.869
11288W        W79761  34.389  27.448   2.343
11289W        W79762   4.326  30.937   0.473
11290W        W79763  11.165  43.468  14.001
11291W        W79764  43.890   9.774  10.576
11292W        W79765  38.934  16.606   3.346
11293W        W79766  29.105  11.836  12.536
11294W        W79767  44.976  36.096  13.832
11295W        W79768   8.747  38.879  12.417
11296W        W79769   7.863  26.601   1.315
11297W        W79770  33.059  14.323   1.806
11298W        W79771  42.014  35.494   4.625
11299W        W79772   7.281  33.917   0.336
11300W        W79773  21.585   6.187   2.265
11301W        W79774  12.161  17.168  12.906
11302W        W79775  13.149  31.554  12.447
11303W        W79776  24.532  40.029   0.324
11304W        W79777  34.078  25.469   3.839
11305W        W79778   5.198  42.880  12.485
11306W        W79779  31.554   8.875   2.388
11307W        W79780  24.075  42.963  13.375
11308W        W79781  20.049  37.428  14.782
11309W        W79782  42.024   8.191  11.522
11310W        W79783  37.383  13.168  10.997
11311W        W79784  30.525  15.099  13.389
11312W        W79785  26.158  36.411  10.534
11313W        W79786  37.340  24.193  13.532
11314W        W79787  27.027  31.521   0.815
11315W        W79788  34.603   7.386   3.705
11316W        W79789  13.671  15.635  12.519
11317W        W79790  19.772  18.776  14.829
11318W        W79791   1.450  38.534  13.314
11319W        W79792  13.199  43.916  10.577
11320W        W79793  35.083  37.368  11.607
11321W        W79794   5.299  32.023  11.951
11322W        W79795  42.302  35.594   2.225
11323W        W79796  32.098  19.195   1.854
11324W        W79797  17.168   6.268   0.919
11325W        W79798  41.378  15.185  13.497
11326W        W79799  32.129  34.986  10.424
11327W        W79800  34.058   3.892   1.840
11328W        W79801   9.312  34.966   0.417
11329W        W79802  44.405  38.875   4.667
11330W        W79803   7.762   5.219  11.473
11331W        W79804  26.470  31.570   3.372
11332W        W79805   2.304  19.660  14.315
11333W        W79806  12.354   2.766   1.728
11334W        W79807  35.982  35.941   0.376
11335W        W79808   2.768  22.708   3.330
11336W        W79809  24.062  16.128   0.737
11337W        W79810  21.718   7.198   4.712
11338W        W79811  13.264  10.203   4.141
11339W        W79812  21.045  18.174   1.714
11340W        W79813  35.910  25.163   0.287
11341W        W79814   7.275  31.578  12.569
11342W        W79815  33.431  42.342   4.276
11343W        W79816  43.774  39.927  12.417
11344W        W79817  26.570  41.495   9.977
11345W        W79818   7.760   9.675   4.335
11346W        W79819  23.564  11.332   1.794
11347W        W79820  44.358   8.365  11.527
11348W        W79821   2.351  36.072   0.952
11349W        W79822  14.754  10.175   0.340
11350W        W79823  37.355  31.991  13.037
11351W        W79824  15.798   3.816  10.631
11352W        W79825   8.702  18.070   4.720
11353W        W79826  27.070  27.015   4.724
11354W        W79827  20.592   4.899  11.522
11355W        W79828  22.184  29.164   3.310
11356W        W79829   8.682  29.662  13.045
11357W        W79830  29.946  18.767   4.280
11358W        W79831   5.291   1.383  12.069
11359W        W79832   7.830  34.922   1.419
11360W        W79833  16.253  21.728   1.392
11361W        W79834  14.716   0.270  13.926
11362W        W79835   5.746  19.618  13.361
11363W        W79836  33.971   8.313   2.712
11364W        W79837  24.080  23.514   3.668
11365W        W79838  36.850  19.769   0.355
11366W        W79839  17.783  15.163  13.867
11367W        W79840  38.381  17.063   1.903
11368W        W79841   9.864   3.871   4.129
11369W        W79842  32.578  16.141   2.714
11370W        W79843  35.970  39.358   0.815
11371W        W79844  15.247   2.251  12.381
11372W        W79845  40.364  26.977  12.409
11373W        W79846  17.675  25.204  11.126
11374W        W79847  29.923  32.463  11.899
11375W        W79848  26.204  17.659  11.048
11376W        W79849  43.914  43.940  13.535
11377W        W79850  29.486  27.659  10.439
11378W        W79851  23.623  44.390  12.506
11379W        W79852  11.773  10.345  14.942
11380W        W79853  21.258   3.450  11.483
11381W        W79854  44.855  32.398   4.606
11382W        W79855   8.738  11.344  10.485
11383W        W79856  27.525  36.854  12.422
11384W        W79857  18.748  11.373  13.548
11385W        W79858  40.014  44.962   1.265
11386W        W79859   5.873   1.941   4.684
11387W        W79860  19.687  24.200   3.801
11388W        W79861   9.872  39.045  10.910
11389W        W79862  43.785   3.778   0.362
11390W        W79863  16.173  15.725   2.360
11391W        W79864  44.781  24.675   2.729
11392W        W79865   6.853  41.010  11.060
11393W        W79866  36.894  34.523  11.546
11394W        W79867  30.098  40.366   1.425
11395W        W79868  20.525  42.402  13.905
11396W        W79869  26.125  24.513  13.808
11397W        W79870  12.361  37.379  11.422
11398W        W79871  40.486   4.375   0.429
11399W        W79872   6.810  38.470  13.329
11400W        W79873  20.187  13.204   0.346
11401W        W79874  39.394  11.836   4.235
11402W        W79875  33.588  13.324  14.509
11403W        W79876   0.781  39.393  14.945
11404W        W79877  42.022  29.113  14.887
11405W        W79878  27.149  44.792  13.020
11406W        W79879   3.723  29.146  13.042
11407W        W79880  10.719  42.313  10.538
11408W        W79881  31.526  17.610  10.636
11409W        W79882  44.946  14.177  12.518
11410W        W79883  23.030  44.863   1.791
11411W        W79884  28.949   9.758   2.251
11412W        W79885  29.433  29.930   0.745
11413W        W79886   8.278  21.138  13.461
11414W        W79887  31.607  20.073  14.286
11415W        W79888  28.665  24.194   3.836
11416W        W79889  26.653  34.465   0.316
11417W        W79890  34.902  12.655   2.322
11418W        W79891  31.899  17.706   4.350
11419W        W79892  26.529   9.822  13.343
11420W        W79893  38.449  11.695  13.801
11421W        W79894  26.546  30.066   3.793
11422W        W79895  21.532   6.885   3.765
11423W        W79896  12.674  43.834  14.022
11424W        W79897  24.101  21.517  10.966
11425W        W79898  30.930   5.869  12.047
11426W        W79899   6.366   9.162   0.950
11427W        W79900   7.343  15.712  14.362
11428W        W79901  24.648  33.624   1.932
11429W        W79902  17.787  25.516  11.527
11430W        W79903  24.633  32.071  10.439
11431W        W79904  16.079   2.248   2.687
11432W        W79905  31.497  36.359  14.310
11433W        W79906   6.787  29.025   3.230
11434W        W79907  20.731  28.636   1.852
11435W        W79908  15.698  40.012  12.955
11436W        W79909  35.955  26.971   0.732
11437W        W79910  38.931  16.177  13.864
11438W        W79911  25.100   6.694  12.389
11439W        W79912  38.920  30.488   3.237
11440W        W79913  26.607  34.938  11.414
11441W        W79914   5.233   9.288  13.379
11442W        W79915  39.329  16.087   0.340
11443W        W79916  21.632   2.449   4.670
11444W        W79917  20.163  30.030  12.477
11445W        W79918  42.422   9.883  14.325
11446W        W79919  27.466   4.834  10.629
11447W        W79920   0.363  20.085   2.287
11448W        W79921   3.248  15.264  11.116
11449W        W79922  24.687  24.126  10.956
11450W        W79923  20.124  35.942  12.487
11451W        W79924  32.558  14.118   2.210
11452W        W79925  18.210   7.689   4.296
11453W        W79926   0.417  36.377   3.757
11454W        W79927   3.850  15.757  13.480
11455W        W79928  16.585  33.114   3.765
11456W        W79929  14.197  31.962  13.019
11457W        W79930  38.438  41.450  11.538
11458W        W79931  30.156  11.277   3.257
11459W        W79932   1.770  41.344  11.979
11460W        W79933  38.555  19.148   2.267
11461W        W79934  30.502  17.753  12.345
11462W        W79935  16.216  33.424   1.269
11463W        W79936  31.407  20.257   1.352
11464W        W79937  38.924  33.061   4.181
11465W        W79938  25.565  42.496   0.913
11466W        W79939  39.507  34.450   2.259
11467W        W79940  42.015  43.958  14.790
11468W        W79941  19.082  23.490  11.122
11469W        W79942   6.681  44.360   4.325
11470W        W79943  13.754  26.172   1.703
11471W        W79944  23.586   8.668  14.372
11472W        W79945   5.833  30.515  12.039
11473W        W79946  18.217   2.902   2.183
11474W        W79947   6.279  24.538  12.973
11475W        W79948  17.171  29.470   0.447
11476W        W79949  32.929   8.217  13.814
11477W        W79950  20.530  44.767   0.914
11478W        W79951  19.680  27.467   1.811
11479W        W79952  30.010  42.023  12.562
11480W        W79953  39.923  19.640   2.851
11481W        W79954   6.822  30.533   2.780
11482W        W79955  16.711   0.428  12.408
11483W        W79956  39.348  15.231  11.593
11484W        W79957  43.947  21.116  10.483
11485W        W79958  13.144  42.360  10.583
11486W        W79959   8.836  26.133  11.484
11487W        W79960  44.409  35.863  11.421
11488W        W79961  44.957  10.746  12.363
11489W        W79962   6.724   9.667  11.035
11490W        W79963  11.856   6.788  11.057
11491W        W79964  37.972  34.869  10.507
11492W        W79965  28.059  37.840   3.773
11493W        W79966  37.944   8.835   4.803
11494W        W79967  14.167  34.503  14.411
11495W        W79968  23.721  14.278   1.338
11496W        W79969  44.286  29.922   1.889
11497W        W79970  18.551  12.817   0.741
11498W        W79971   1.253   1.364  14.009
11499W        W79972  39.487   3.901   1.851
11500W        W79973  43.004   1.769   1.864
11501W        W79974  35.072  21.550   0.398
11502W        W79975  40.379  15.190   4.321
11503W        W79976  16.644  19.742   2.779
11504W        W79977  18.108   5.910  14.394
11505W        W79978  37.952   3.814  11.407
11506W        W79979  31.063   4.221  11.545
11507W        W79980  44.003  21.706   4.332
11508W        W79981  33.556  17.204   3.686
11509W        W79982  12.248  22.534   0.324
11510W        W79983  33.616  38.535  10.483
11511W        W79984   3.456   5.913   0.871
11512W        W79985  24.664   5.248   0.330
11513W        W79986  11.626   7.873  14.485
11514W        W79987   1.333  36.452  12.843
11515W        W79988  38.329  26.521   1.908
11516W        W79989  36.869  41.887   2.249
11517W        W79990  38.041  32.075  13.888
11518W        W79991  16.272  14.702  11.451
11519W        W79992  41.898  16.251   3.241
11520W        W79993  31.598  34.573   4.344
11521W        W79994   5.375  18.578  11.609
11522W        W79995  12.728   5.363   3.707
11523W        W79996  36.876  34.594  14.350
11524W        W79997  18.705   8.895   4.803
11525W        W79998  20.078  31.082   4.751
11526W        W79999   7.249   9.688  11.939
11527W        W80000   5.871   0.970  14.817
11528W        W80001  36.383  20.184   4.186
11529W        W80002   8.305   9.293   4.349
11530W        W80003  17.563   3.429   3.720
11531W        W80004  36.361   8.262  14.801
11532W        W80005   3.764  18.751  13.365
11533W        W80006  35.481   8.807  10.500
11534W        W80007  35.998  38.418   4.309
11535W        W80008  16.153   6.800   2.684
11536W        W80009   3.804  22.083  14.947
11537W        W80010  20.530  34.108  12.072
11538W        W80011   1.771  27.687   3.306
11539W        W80012   7.778  35.031  10.523
11540W        W80013  36.480  15.693  13.029
11541W        W80014  29.999  19.207  13.053
11542W        W80015  34.423  10.784  11.858
11543W        W80016  35.921  36.469  14.917
11544W        W80017  21.645   1.308  10.502
11545W        W80018  21.140  11.623   5.113
11546W        W80019  26.499  13.694   0.814
11547W        W80020  36.450  19.762  12.054
11548W        W80021  33.034  12.636  12.988
11549W        W80022  16.214  13.155   2.379
11550W        W80023  12.311   5.816  14.921
11551W        W80024  20.211  15.707  13.496
11552W        W80025  31.557  44.321  10.978
11553W        W80026  24.560  26.584  13.835
11554W        W80027   3.460  15.749   2.693
11555W        W80028  40.832  36.423  14.513
11556W        W80029  41.001  20.110   3.192
11557W        W80030  43.443  39.981   1.408
11558W        W80031  41.514  32.110   3.162
11559W        W80032  38.861  32.916  13.322
11560W        W80033  44.384  19.673  11.060
11561W        W80034  28.453  36.909   1.331
11562W        W80035  35.007  41.960   4.609
11563W        W80036  29.578  42.505  11.395
11564W        W80037  35.400  36.075   0.425
11565W        W80038  21.574  40.887  11.416
11566W        W80039  36.025  28.146  12.846
11567W        W80040  44.474  38.440   2.730
11568W        W80041  27.011   6.354   2.815
11569W        W80042  10.346  39.382  10.925
11570W        W80043   0.862  30.441  14.368
11571W        W80044  16.809  30.961   3.352
11572W        W80045  13.164  40.914  14.313
11573W        W80046   7.878  30.165  12.572
11574W        W80047  44.967  10.775  14.302
11575W        W80048  20.579  31.638   3.670
11576W        W80049  22.098  28.041  14.879
11577W        W80050  25.103   0.911   1.265
11578W        W80051  12.201  41.949   3.257
11579W        W80052   8.379   5.265   2.811
11580W        W80053   9.856   3.283  11.961
11581W        W80054  23.703  36.455   2.789
11582W        W80055  15.819  32.987  11.952
11583W        W80056  41.924  30.486   2.856
11584W        W80057  28.180   5.310  12.358
11585W        W80058   4.941   4.314  11.102
11586W        W80059  19.601  20.193   0.429
11587W        W80060  27.196  15.290   3.848
11588W        W80061  25.216  19.742   3.165
11589W        W80062  12.326  15.271  11.430
11590W        W80063  29.649   5.277  14.976
11591W        W80064  31.101   0.928  13.341
11592W        W80065   0.915   0.335   4.752
11593W        W80066  32.608   0.751   4.330
11594W        W80067  27.989  32.593  10.971
11595W        W80068  41.506  42.516  13.009
11596W        W80069  21.207  27.457   3.334
11597W        W80070  18.095  25.664  13.543
11598W        W80071  30.999  35.397  10.600
11599W        W80072   9.751  32.098   2.832
11600W        W80073  21.135  31.520   4.193
11601W        W80074  11.182  18.626  13.838
11602W        W80075  35.406   7.228   4.276
11603W        W80076  24.523  24.019   1.314
11604W        W80077  18.085  29.580   4.134
11605W        W80078  44.766  28.153  10.423
11606W        W80079   8.836  42.436   2.190
11607W        W80080  20.047  11.136   0.770
11608W        W80081  11.256  40.446   1.372
11609W        W80082  29.970  36.546  12.041
11610W        W80083  21.055   4.434   4.680
11611W        W80084  10.874   2.878  14.904
11612W        W80085  28.457  31.968   0.926
11613W        W80086  27.460  28.601   2.719
11614W        W80087  17.573   1.420   3.842
11615W        W80088   3.868   7.198   1.411
11616W        W80089  40.031   5.427  11.584
11617W        W80090   5.231   5.431   0.862
11618W        W80091  42.351  17.709  11.958
11619W        W80092  16.771  11.795   1.767
11620W        W80093  38.027   9.318   2.687
11621W        W80094  28.123  22.175   2.381
11622W        W80095  35.093  20.621   4.836
11623W        W80096  25.469  39.935  13.490
11624W        W80097  37.353  23.221   1.783
11625W        W80098  26.172  38.959   4.193
11626W        W80099  11.360  27.497  13.432
11627W        W80100  43.445   2.275  13.540
11628W        W80101  13.755   4.711  11.571
11629W        W80102   3.400  40.035   2.854
11630W        W80103   3.442  32.568  12.905
11631W        W80104   7.196  40.308   1.428
11632W        W80105  19.679  14.622   2.698
11633W        W80106  32.489  25.139   3.814
11634W        W80107   2.758  16.132  14.884
11635W        W80108  28.502  25.207  14.325
11636W        W80109  39.920  41.450   4.799
11637W        W80110  16.595  10.776  10.922
11638W        W80111  39.035  15.107  11.124
11639W        W80112  14.192  23.015  11.374
11640W        W80113  24.562  18.741  11.434
11641W        W80114  25.573  31.076  11.980
11642W        W80115   7.715  32.619  13.310
11643W        W80116  22.140   2.471  13.059
11644W        W80117  39.019  20.664  12.012
11645W        W80118  17.196  39.555  10.597
11646W        W80119  40.414  16.240  13.455
11647W        W80120  20.599   4.728   2.313
11648W        W80121  37.967  21.595   0.959
11649W        W80122  24.710  31.011   1.438
11650W        W80123  42.394  20.607  11.442
11651W        W80124  34.587  29.453  14.496
11652W        W80125  12.775  39.553  12.961
11653W        W80126  17.774  10.173  13.424
11654W        W80127  37.399  39.827  12.344
11655W        W80128  38.919  20.102  14.911
11656W        W80129  41.897  37.028  10.619
11657W        W80130  38.410  37.508  12.450
11658W        W80131  11.709  38.343   4.209
11659W        W80132  39.888  14.688   1.245
11660W        W80133  18.069  19.120   3.352
11661W        W80134   7.859  10.731  11.557
11662W        W80135  42.922   5.398  11.506
11663W        W80136   3.764  37.457  12.056
11664W        W80137  11.660  19.201   0.914
11665W        W80138  33.491  28.055  11.112
11666W        W80139   4.943  13.196  14.881
11667W        W80140  24.211   3.431  10.950
11668W        W80141   2.841   1.372   1.698
11669W        W80142  18.575  29.595  10.508
11670W        W80143  42.800  33.442  12.572
11671W        W80144   0.259  38.960  12.404
11672W        W80145  20.625   1.384  10.636
11673W        W80146  15.113  13.207  13.805
11674W        W80147  15.762   9.233  13.994
11675W        W80148  11.818  16.109   4.294
11676W        W80149   5.324  14.271   0.287
11677W        W80150   7.804  13.757   1.263
11678W        W80151  24.626  26.697   9.521
11679W        W80152   6.707  10.181   3.765
11680W        W80153   9.294   1.371   2.821
11681W        W80154  17.253   9.840   1.707
11682W        W80155  12.209  39.367  13.890
11683W        W80156  19.281  44.817  12.056
11684W        W80157  29.040  11.718   1.441
11685W        W80158  44.902  41.315  14.008
11686W        W80159   4.306  29.119   2.823
11687W        W80160  19.758   1.409  13.047
11688W        W80161  17.275  27.674  12.834
11689W        W80162  34.385  13.215  13.926
11690W        W80163   7.886  44.495   2.390
11691W        W80164  25.030  30.518  14.989
11692W        W80165  25.590   0.925  11.879
11693W        W80166  42.463   0.436  13.801
11694W        W80167   8.318  13.708  10.587
11695W        W80168  36.992  38.541  11.547
11696W        W80169  23.697   2.838  10.946
11697W        W80170  16.096  26.096  14.826
11698W        W80171  25.615  44.301   0.365
11699W        W80172  27.124   1.941   4.215
11700W        W80173  44.924  34.958   1.439
11701W        W80174  21.560  35.878   1.816
11702W        W80175   0.382  28.950  13.969
11703W        W80176   8.242  39.361   0.807
11704W        W80177   7.781  26.687   0.740
11705W        W80178  33.450  14.293   2.285
11706W        W80179  15.667  40.929  11.497
11707W        W80180   2.316   2.917   1.387
11708W        W80181   6.210  26.163  10.556
11709W        W80182  30.081  30.603   2.686
11710W        W80183  23.234  31.623  14.347
11711W        W80184  19.737  26.574  14.344
11712W        W80185  18.235  35.479   3.384
11713W        W80186  15.690   9.796   2.664
11714W        W80187  39.418  18.664  12.500
11715W        W80188   6.899  32.626   3.213
11716W        W80189  26.615  38.512   0.908
11717W        W80190  21.022  13.309   3.771
11718W        W80191   3.361   3.342   4.270
11719W        W80192   5.308   7.171  12.417
11720W        W80193  28.176   4.313   3.269
11721W        W80194  18.217  26.156  10.595
11722W        W80195  43.961  27.110   4.175
11723W        W80196  29.170   2.891   0.730
11724W        W80197  24.221  27.138  11.607
11725W        W80198  34.989   9.759  14.854
11726W        W80199  40.823  21.725  12.543
11727W        W80200  13.113  13.752  13.364
11728W        W80201   1.273   9.225   0.384
11729W        W80202   2.280  24.525   2.337
11730W        W80203  15.680  29.965   3.265
11731W        W80204   4.440   8.666   3.323
11732W        W80205  14.111  16.774  14.396
11733W        W80206  36.490  33.554  13.342
11734W        W80207   9.208   5.829  14.974
11735W        W80208  44.295   5.407  10.578
11736W        W80209  42.864   6.423  11.076
11737W        W80210  17.286   1.329   3.870
11738W        W80211  17.679   0.369  14.963
11739W        W80212  24.589   6.188  10.918
11740W        W80213  33.568  40.043  11.426
11741W        W80214  12.632  30.161   1.883
11742W        W80215  44.281  10.713   1.322
11743W        W80216  44.400  28.166   4.261
11744W        W80217  31.634  34.984  11.515
11745W        W80218   9.172  15.678   3.171
11746W        W80219  15.633   2.778   0.876
11747W        W80220  42.462  28.089  13.916
11748W        W80221   3.732  37.555  11.527
11749W        W80222  44.445  44.972  12.556
11750W        W80223   6.810  14.276   3.263
11751W        W80224   4.942  40.431   4.822
11752W        W80225  24.692  40.969  12.495
11753W        W80226  44.415  24.479   2.259
11754W        W80227   7.795   9.373  12.441
11755W        W80228   5.241   8.319  13.012
11756W        W80229  11.748  35.422  14.989
11757W        W80230  35.535  37.854   3.176
11758W        W80231  24.543  34.375  11.552
11759W        W80232  18.723  19.600   3.199
11760W        W80233  44.448  22.634   0.448
11761W        W80234   8.167  33.480   2.754
11762W        W80235  25.684  19.705   1.726
11763W        W80236   5.277   4.883   0.243
11764W        W80237   0.772  34.547   1.768
11765W        W80238  24.205   7.323  14.486
11766W        W80239  20.738  14.238   4.674
11767W        W80240   0.248  20.222  10.480
11768W        W80241  24.586  15.742   1.825
11769W        W80242  31.941  32.562   2.807
11770W        W80243  17.633   2.892   0.841
11771W        W80244   3.415   5.734   3.763
11772W        W80245  33.047  35.412   2.756
11773W        W80246   3.230   7.830   1.872
11774W        W80247  16.680  12.237   2.415
11775W        W80248  17.094   5.411  10.590
11776W        W80249   6.825  17.629   3.645
11777W        W80250  34.086  21.088  11.958
11778W        W80251  32.048   8.319  12.459
11779W        W80252  33.116   0.408  13.482
11780W        W80253   9.725   5.738  12.982
11781W        W80254   2.811  31.584   3.731
11782W        W80255  39.327  34.369   0.435
11783W        W80256   8.745   6.339   1.285
11784W        W80257  42.358  30.967  13.313
11785W        W80258  34.461  41.525   2.763
11786W        W80259   3.858  27.672  10.561
11787W        W80260   2.811  16.773  14.971
11788W        W80261  40.986   3.277   4.339
11789W        W80262  20.608  33.900  13.038
11790W        W80263  41.965  42.356  11.978
11791W        W80264   1.780  28.185  12.362
11792W        W80265  40.319  16.131   4.354
11793W        W80266  13.668  29.425  14.968
11794W        W80267  10.640  34.037  11.056
11795W        W80268   1.937  23.238  14.373
11796W        W80269   8.360   4.934  14.952
11797W        W80270   6.413  41.479   4.192
11798W        W80271  34.600  17.135   2.263
11799W        W80272  39.372  13.707   1.921
11800W        W80273  20.095  10.846   4.238
11801W        W80274  23.036  12.262  10.454
11802W        W80275  35.361  14.826   2.774
11803W        W80276   0.824  34.996   4.117
11804W        W80277  17.082  29.548  13.370
11805W        W80278   1.237  26.701   3.191
11806W        W80279   6.822   3.736   1.792
11807W        W80280  13.147  32.953  11.042
11808W        W80281  29.532  29.568   1.921
11809W        W80282   9.236   3.248  13.924
11810W        W80283  31.420  14.106  14.995
11811W        W80284  28.144  28.476  13.030
11812W        W80285   1.975  31.062  13.347
11813W        W80286  37.390  41.970   0.374
11814W        W80287  22.232  25.671   2.368
11815W        W80288  12.144  37.400  10.514
11816W        W80289   5.206  14.269  14.420
11817W        W80290  23.553  22.584   3.688
11818W        W80291  35.901  31.438   0.408
11819W        W80292  20.131   8.659  12.831
11820W        W80293  17.203  43.790  10.465
11821W        W80294  21.131  37.392   0.935
11822W        W80295  39.059   4.852   3.701
11823W        W80296  22.150  27.628  11.030
11824W        W80297  38.984  38.438   1.828
11825W        W80298   3.811   0.835   9.958
11826W        W80299  43.780   9.694  11.965
11827W        W80300  30.563   4.907  13.809
11828W        W80301   0.314  13.190  14.870
11829W        W80302  28.649  15.768  11.480
11830W        W80303  40.500   5.705  10.999
11831W        W80304  42.407  35.035  11.875
11832W        W80305  13.256   8.286   2.219
11833W        W80306  22.152  17.252   3.323
11834W        W80307  42.416  21.645   2.810
11835W        W80308  10.254  17.724  14.880
11836W        W80309  44.767   8.716  14.514
11837W        W80310  39.965   7.671  13.829
11838W        W80311  31.908  43.940   0.790
11839W        W80312  21.260  35.948   1.784
11840W        W80313  40.873  44.381  12.467
11841W        W80314  25.549  18.058  14.852
11842W        W80315  16.721   4.855  11.926
11843W        W80316  35.060  37.340   3.266
11844W        W80317  24.974  18.188  12.944
11845W        W80318  17.677  22.153  10.592
11846W        W80319   5.691  14.150  11.488
11847W        W80320  11.835  22.068   3.230
11848W        W80321   8.334  33.392   2.239
11849W        W80322  41.964   1.304   1.378
11850W        W80323   3.383  10.757   0.841
11851W        W80324  34.877  30.488   4.835
11852W        W80325  12.296   0.437  14.846
11853W        W80326   5.896   3.291   2.733
11854W        W80327   3.271  22.237  10.984
11855W        W80328   6.861   5.781   1.915
11856W        W80329  13.807   9.684  14.986
11857W        W80330  22.555  14.728   5.141
11858W        W80331  34.918  40.851   3.688
11859W        W80332  20.572   4.896  10.496
11860W        W80333  29.140   7.860  12.366
11861W        W80334  19.136   2.769   4.182
11862W        W80335  32.401  36.404  11.125
11863W        W80336  10.345   4.441  13.995
11864W        W80337  13.628   5.306  13.397
11865W        W80338   7.782  21.101  13.329
11866W        W80339  41.308  35.486  12.880
11867W        W80340   4.764  10.327   4.166
11868W        W80341  39.975   6.699   0.367
11869W        W80342   0.312  36.049  14.933
11870W        W80343  13.601  39.916   2.266
11871W        W80344  36.029  17.660   4.222
11872W        W80345  19.539  44.960  13.406
11873W        W80346  31.521  18.729   1.910
11874W        W80347  10.691  17.649   3.320
11875W        W80348  43.388  29.007  13.791
11876W        W80349  21.679  32.048   3.802
11877W        W80350   8.200  36.556   0.893
11878W        W80351  29.482  25.667   2.689
11879W        W80352  11.272  28.025   4.628
11880W        W80353  27.018  10.161  14.848
11881W        W80354  21.559  22.066   3.760
11882W        W80355  26.074   1.377  14.482
11883W        W80356  17.556  44.430  13.504
11884W        W80357   7.768  27.155   2.663
11885W        W80358  12.718  27.461   4.722
11886W        W80359  19.715  42.291   2.364
11887W        W80360   8.733   3.253   5.283
11888W        W80361   8.325  15.174   2.331
11889W        W80362  11.316  15.808   2.341
11890W        W80363  44.292   7.245   3.751
11891W        W80364  12.687  13.259   0.786
11892W        W80365  34.461  28.537  11.103
11893W        W80366  22.037  33.980  11.572
11894W        W80367  43.854  21.257   3.633
11895W        W80368  42.962  11.653   0.379
11896W        W80369  31.493  26.537  10.514
11897W        W80370  22.587  19.642  14.376
11898W        W80371  21.055  26.103  13.830
11899W        W80372  23.644  12.297   4.290
11900W        W80373  14.666  34.534   0.417
11901W        W80374  19.140  10.775  10.410
11902W        W80375  32.468  36.589   1.362
11903W        W80376  37.539  30.077   4.306
11904W        W80377   2.855   4.433   4.780
11905W        W80378  41.895  28.511   4.297
11906W        W80379  15.236  19.634  13.391
11907W        W80380  16.270  21.018  12.411
11908W        W80381  36.586  20.119  12.937
11909W        W80382  44.361  32.028   3.286
11910W        W80383  20.722  36.981   2.713
11911W        W80384  16.648  17.630   1.438
11912W        W80385  34.100  30.105  10.643
11913W        W80386  15.190  30.120   0.427
11914W        W80387  23.651  33.027  12.443
11915W        W80388  23.514   8.236   1.914
11916W        W80389  44.379  31.103   0.359
11917W        W80390   4.307  19.086   0.964
11918W        W80391  37.526  37.500  13.456
11919W        W80392  34.459  39.856   4.616
11920W        W80393  16.172   1.824  14.003
11921W        W80394  38.476   3.412   4.750
11922W        W80395  25.128  27.514  13.540
11923W        W80396  13.344  25.619   1.418
11924W        W80397   3.742  12.668  14.483
11925W        W80398   3.852   6.203   1.740
11926W        W80399  42.330  32.129  14.376
11927W        W80400   5.701  32.120   3.304
11928W        W80401  42.910  11.163   0.875
11929W        W80402  35.950  13.616   4.114
11930W        W80403  17.255  13.253   0.430
11931W        W80404  16.254  27.029   0.758
11932W        W80405  35.479  13.221  10.889
11933W        W80406  14.129  41.948   4.690
11934W        W80407  31.564   2.940   2.725
11935W        W80408  42.918  34.494  10.637
11936W        W80409  11.829  27.476  10.121
11937W        W80410  37.901  23.184  14.759
11938W        W80411  23.116  11.778  11.128
11939W        W80412   2.395  36.543   4.336
11940W        W80413  25.610  20.710  12.444
11941W        W80414  21.595  36.081  11.880
11942W        W80415  40.799  35.945  11.893
11943W        W80416  37.478  24.554   0.919
11944W        W80417   4.771  11.764   0.421
11945W        W80418  26.139  44.442  14.354
11946W        W80419  34.059  33.053  12.875
11947W        W80420  15.677   6.728   3.186
11948W        W80421  39.380  43.863  12.863
11949W        W80422  44.441  29.639  12.011
11950W        W80423  22.035   4.254  11.991
11951W        W80424   0.867   1.910   0.264
11952W        W80425  37.938  30.037   1.865
11953W        W80426   9.743   5.779  11.389
11954W        W80427  37.990  27.627   4.825
11955W        W80428  32.929  32.093   1.922
11956W        W80429  14.257   2.939   3.345
11957W        W80430   9.795  32.404  12.844
11958W        W80431  44.480  23.729   5.282
11959W        W80432  30.017   6.857   1.329
11960W        W80433  14.632  39.316   0.392
11961W        W80434  29.029  22.178  13.950
11962W        W80435  14.302  34.027  11.498
11963W        W80436   7.756  30.928  14.951
11964W        W80437  30.127  29.483   4.132
11965W        W80438  38.418  30.593   4.822
11966W        W80439  29.117   6.767   4.759
11967W        W80440  38.439   3.871  14.004
11968W        W80441  30.004  30.455  14.513
11969W        W80442  16.240   7.797  14.879
11970W        W80443  25.217  21.261   3.853
11971W        W80444  19.073  16.662  14.008
11972W        W80445  37.975  36.889   3.362
11973W        W80446  17.779  40.018  14.490
11974W        W80447  25.602  26.618   3.326
11975W        W80448  27.162  24.670   4.296
11976W        W80449  40.493   7.839  13.828
11977W        W80450  25.489  29.042  11.541
11978W        W80451  17.212  36.528  14.921
11979W        W80452  17.801  22.056  11.058
11980W        W80453  39.544  36.882   3.174
11981W        W80454   5.262  32.946   4.131
11982W        W80455  38.967  43.362  14.793
11983W        W80456  37.509  39.975  13.318
11984W        W80457  29.983  27.655   1.451
11985W        W80458  25.202   9.347  10.482
11986W        W80459  28.969  36.998   1.333
11987W        W80460   3.400  11.718   4.612
11988W        W80461   4.405  14.296   3.823
11989W        W80462   4.927  18.562   4.307
11990W        W80463   9.783  24.579  10.900
11991W        W80464  23.721  21.223  12.467
11992W        W80465  37.023  20.635   1.324
11993W        W80466  34.875  43.774   1.277
11994W        W80467  23.585  12.755   5.268
11995W        W80468  42.838   4.232  10.486
11996W        W80469  13.254  33.625  10.998
11997W        W80470  13.330  43.814  14.777
11998W        W80471   5.749   2.396   2.353
11999W        W80472  41.995  12.620   2.403
12000W        W80473  28.053   8.659  11.453
12001W        W80474  22.577  33.525   3.837
12002W        W80475  28.948   8.241  12.957
12003W        W80476  43.989   7.200  12.342
12004W        W80477  15.596  27.556  13.386
12005W        W80478   2.417  29.589  10.106
12006W        W80479  29.577   6.412   0.901
12007W        W80480  31.645   0.382  13.336
12008W        W80481  37.060  39.362  13.488
12009W        W80482  18.218   4.415   0.319
12010W        W80483   2.364  13.297  11.422
12011W        W80484  20.619  28.648   2.763
12012W        W80485  42.434  20.100   3.243
12013W        W80486   1.251  44.357   1.234
12014W        W80487  27.019  39.016   1.830
12015W        W80488  13.624   6.702   4.243
12016W        W80489  40.493   1.474  10.897
12017W        W80490  30.592  44.268   0.397
12018W        W80491  34.988   6.412   1.860
12019W        W80492   9.769  35.438  12.937
12020W        W80493  19.620  27.507  11.452
12021W        W80494  20.084  21.680  13.316
12022W        W80495  37.909  17.134   0.900
12023W        W80496  23.210  14.236  14.464
12024W        W80497   8.794  21.255   2.677
12025W        W80498  10.249  36.881   3.358
12026W        W80499  42.297  20.569   4.181
12027W        W80500  32.497  23.681   4.826
12028W        W80501  34.908  33.881  10.515
12029W        W80502  20.700   0.761   2.682
12030W        W80503  39.477  24.630  11.575
12031W        W80504  11.853  34.939   9.988
12032W        W80505  36.397  34.545   2.792
12033W        W80506  33.072   0.483   3.848
12034W        W80507  33.991  25.627  13.936
12035W        W80508   5.219  41.472   3.811
12036W        W80509  43.310  33.381   3.703
12037W        W80510  28.461  13.667   3.779
12038W        W80511   6.221  17.147  13.334
12039W        W80512   5.231   3.889   4.171
12040W        W80513  27.156   5.880   4.653
12041W        W80514   3.297  16.659   4.341
12042W        W80515  11.671  19.563   4.277
12043W        W80516  27.955   5.873   3.757
12044W        W80517  12.309   3.406   4.832
12045W        W80518   7.739   4.933   1.749
12046W        W80519  31.092  38.352   4.329
12047W        W80520  26.962  40.992  14.368
12048W        W80521   4.872  31.436  12.942
12049W        W80522  29.592  12.321  14.468
12050W        W80523  17.162  36.355  14.291
12051W        W80524  30.952   3.318  10.502
12052W        W80525  15.696  20.196   5.249
12053W        W80526  19.197  35.061  11.524
12054W        W80527  12.294  17.225   1.883
12055W        W80528  39.406  27.079  14.282
12056W        W80529  43.343  32.995  13.861
12057W        W80530  22.576  21.551  13.485
12058W        W80531  36.932  41.797  12.531
12059W        W80532  22.660  27.603   3.291
12060W        W80533  42.887  18.274   4.832
12061W        W80534  18.562   1.914  10.147
12062W        W80535  35.019  10.349  10.555
12063W        W80536  24.500  29.118  10.611
12064W        W80537  35.455  33.926   1.876
12065W        W80538   6.878  13.309  12.089
12066W        W80539  27.512  30.621   4.636
12067W        W80540  37.939  35.052  12.529
12068W        W80541  10.171   3.263   2.708
12069W        W80542  17.274  39.059  12.837
12070W        W80543  10.703   9.668   3.263
12071W        W80544  10.803  28.152  12.975
12072W        W80545  10.295  10.752   2.874
12073W        W80546   4.857  41.908   4.769
12074W        W80547   0.441  30.498  14.957
12075W        W80548  38.422  22.188   4.178
12076W        W80549   6.232  15.276   0.898
12077W        W80550  24.105  22.152   1.441
12078W        W80551  38.055  41.809   2.367
12079W        W80552  12.848  22.668   3.367
12080W        W80553  19.174  11.355  10.524
12081W        W80554   4.755  31.000  12.545
12082W        W80555  15.738  15.297  13.320
12083W        W80556  40.819  10.826  14.330
12084W        W80557  28.997  13.834  14.295
12085W        W80558  12.287  26.687  11.858
12086W        W80559  39.062   4.943   3.304
12087W        W80560  22.725  21.568   2.335
12088W        W80561  11.270  44.484  13.915
12089W        W80562   2.414  28.585  14.776
12090W        W80563  18.572  36.928  13.054
12091W        W80564  44.315  21.081  12.923
12092W        W80565   3.254  34.392  13.321
12093W        W80566  42.461  26.537   0.904
12094W        W80567  35.942  27.567   0.437
12095W        W80568   9.828  38.858  12.029
12096W        W80569   2.335   9.150   3.846
12097W        W80570  13.157  22.644  12.393
12098W        W80571  32.442   9.206  13.827
12099W        W80572  40.536  33.495   3.150
12100W        W80573  31.906  16.141   2.762
12101W        W80574   2.762  42.368  14.314
12102W        W80575  20.740  35.552   3.695
12103W        W80576   3.904  20.746  10.604
12104W        W80577  31.047  30.970  11.423
12105W        W80578  34.534   0.449   4.763
12106W        W80579   7.856   7.727   3.635
12107W        W80580  35.925  32.913   1.439
12108W        W80581  43.366   8.194  10.920
12109W        W80582  25.639  32.425   1.753
12110W        W80583  34.537  36.889   1.241
12111W        W80584  36.977  28.137   4.201
12112W        W80585  25.591  20.171   3.824
12113W        W80586   7.185   7.354  13.410
12114W        W80587  39.026  29.133   3.281
12115W        W80588  26.603   3.931   3.659
12116W        W80589  26.558   8.282  10.529
12117W        W80590  38.511  38.052  11.377
12118W        W80591  42.490  23.205  12.962
12119W        W80592  23.069  17.752  13.477
12120W        W80593   4.228  34.867   1.399
12121W        W80594   0.894  16.241  12.025
12122W        W80595   8.697  37.894   1.436
12123W        W80596  16.153   3.325  10.930
12124W        W80597   6.761  37.400  12.471
12125W        W80598  31.412  25.109  13.511
12126W        W80599  31.922   0.764  12.837
12127W        W80600  19.741  24.075  10.645
12128W        W80601  37.863   4.706   4.673
12129W        W80602  13.318   3.245  14.821
12130W        W80603  32.101  26.574  14.775
12131W        W80604   4.254   2.357   1.437
12132W        W80605  38.914  41.494   5.174
12133W        W80606  26.499  19.224   1.267
12134W        W80607  35.593  14.161   4.731
12135W        W80608   9.350  23.105   2.342
12136W        W80609  25.604  21.676   2.305
12137W        W80610  10.698  41.332  14.841
12138W        W80611  43.815  22.112   2.385
12139W        W80612   1.276  44.754  14.291
12140W        W80613  32.417   4.722  10.556
12141W        W80614  15.637   8.860   5.141
12142W        W80615  29.459  20.636  13.394
12143W        W80616  20.598   4.895  11.905
12144W        W80617  18.256   4.894   2.367
12145W        W80618  40.981  22.119   2.864
12146W        W80619  40.955  37.431   5.194
12147W        W80620   4.227   5.215  13.995
12148W        W80621   2.293  39.013   3.865
12149W        W80622  30.015  20.579  12.370
12150W        W80623  14.797  31.570  11.982
12151W        W80624   2.891  22.176  14.455
12152W        W80625  15.101  39.043  14.823
12153W        W80626  44.804  23.168   2.903
12154W        W80627  24.529  44.332  13.918
12155W        W80628  19.277  20.551  11.426
12156W        W80629  37.081  33.454  13.455
12157W        W80630  44.369  24.011   5.146
12158W        W80631  30.646  39.019   3.324
12159W        W80632  44.404  42.875  11.611
12160W        W80633   0.831  20.714  13.011
12161W        W80634   5.752   6.714  10.483
12162W        W80635  23.132  24.133   0.480
12163W        W80636  31.103  17.802  10.438
12164W        W80637  20.253  23.667   2.412
12165W        W80638   9.734  32.987   1.320
12166W        W80639  28.932  35.050  13.830
12167W        W80640   6.204  17.062   5.218
12168W        W80641  12.311  44.968   3.718
12169W        W80642   0.875  11.713   0.290
12170W        W80643  26.544  21.746  13.828
12171W        W80644  16.234   8.887   3.363
12172W        W80645  10.237  26.951   0.294
12173W        W80646  36.065  39.348  13.988
12174W        W80647  36.534  31.506   2.903
12175W        W80648   1.789  13.706   1.804
12176W        W80649   0.279  29.538  11.608
12177W        W80650  40.825  34.004  14.868
12178W        W80651  31.127  18.259  12.427
12179W        W80652   5.914  34.067   3.691
12180W        W80653  36.448   3.397   5.159
12181W        W80654   5.765   3.216   5.207
12182W        W80655  11.713  29.974  12.934
12183W        W80656  20.249  41.898   0.833
12184W        W80657  32.417  14.321  10.620
12185W        W80658  31.950  30.646   0.801
12186W        W80659  38.428   6.889  11.613
12187W        W80660  14.193  21.075   1.293
12188W        W80661  15.776  28.595  12.438
12189W        W80662   6.837  23.189  14.477
12190W        W80663  30.438   4.363   1.719
12191W        W80664   4.737  29.477   4.322
12192W        W80665  26.951  12.358  11.396
12193W        W80666   2.936   6.243   0.918
12194W        W80667  39.533  35.092   1.848
12195W        W80668   9.769  32.142  11.488
12196W        W80669  26.199  15.732   3.234
12197W        W80670  29.466   8.395  12.074
12198W        W80671  25.069  17.692   0.429
12199W        W80672   7.769  30.083   2.240
12200W        W80673  19.111  40.984  13.417
12201W        W80674  26.699  11.350   0.767
12202W        W80675   4.881  41.953  14.445
12203W        W80676  42.300  23.661  14.388
12204W        W80677  21.512  11.150   1.342
12205W        W80678  14.199  31.484  14.500
12206W        W80679  10.279  30.042  14.995
12207W        W80680  15.174  20.735  13.417
12208W        W80681  16.228  18.145   2.790
12209W        W80682  33.951  10.732  14.443
12210W        W80683  38.904  34.457   0.929
12211W        W80684  38.485  17.581  13.442
12212W        W80685   9.724  16.802  14.297
12213W        W80686  14.299   3.433  12.907
12214W        W80687   6.265  41.903  14.354
12215W        W80688   4.721  18.629  11.466
12216W        W80689   9.200  12.340  13.504
12217W        W80690  20.582  31.529  13.839
12218W        W80691  21.150  17.112   4.324
12219W        W80692  32.009  16.248   4.716
12220W        W80693  11.699  39.007   1.261
12221W        W80694  34.372   2.447  14.788
12222W        W80695  18.063  25.017  12.896
12223W        W80696  26.082  44.995  12.845
12224W        W80697  33.428  16.617  13.012
12225W        W80698  12.141  25.218  12.977
12226W        W80699   1.360   9.265  10.497
12227W        W80700  18.675  25.164  11.494
12228W        W80701  25.106  16.744   3.247
12229W        W80702  42.483  32.890  11.958
12230W        W80703  17.132  39.968   3.349
12231W        W80704  36.391   5.790   1.774
12232W        W80705   6.740  27.555  12.072
12233W        W80706  37.506  43.814   2.843
12234W        W80707  27.629  44.476   0.323
12235W        W80708  19.639   4.250  13.998
12236W        W80709  37.975  42.827   0.353
12237W        W80710  29.116  19.249  13.989
12238W        W80711  30.050  16.678   3.801
12239W        W80712  14.715  22.093   0.352
12240W        W80713  19.734  37.386  14.324
12241W        W80714  19.557  35.544   4.810
12242W        W80715   4.749  37.371  13.054
12243W        W80716   0.429   1.930   2.726
12244W        W80717  18.544   1.824  10.904
12245W        W80718   7.831  14.248  14.886
12246W        W80719  31.060  28.471   4.677
12247W        W80720  28.482  31.968  11.554
12248W        W80721  38.413  37.436  13.423
12249W        W80722   8.201  29.444  11.475
12250W        W80723  29.084  44.390  11.035
12251W        W80724  44.265  18.173   5.298
12252W        W80725  18.636  41.950   2.664
12253W        W80726  17.196  10.264   3.279
12254W        W80727  23.493  41.809  13.842
12255W        W80728  31.036  17.682   1.429
12256W        W80729  20.597   5.807   1.407
12257W        W80730  36.948  14.672   1.842
12258W        W80731  11.624   8.281  13.485
12259W        W80732  26.175  43.987  11.547
12260W        W80733  10.669  31.610  13.856
12261W        W80734  29.941  44.300   0.382
12262W        W80735  42.467  13.753  11.452
12263W        W80736  38.059   8.379  12.517
12264W        W80737  32.079  38.967   3.209
12265W        W80738  25.106  12.253  14.317
12266W        W80739  32.973  37.891  11.485
12267W        W80740  13.818  38.958  10.154
12268W        W80741   9.220  34.446   1.720
12269W        W80742  27.097   2.308   3.734
12270W        W80743  42.440  34.420   1.858
12271W        W80744  43.305  21.179   2.750
12272W        W80745  19.154  10.302   3.382
12273W        W80746  30.949  25.470   3.699
12274W        W80747  37.536  26.961   3.721
12275W        W80748  26.547  24.175  13.330
12276W        W80749  35.580  18.788  14.339
12277W        W80750  33.914  25.681  14.472
12278W        W80751  38.966  34.506  12.366
12279W        W80752  30.574  42.922   2.255
12280W        W80753   5.914  35.928  10.449
12281W        W80754  23.152  25.068  11.124
12282W        W80755  29.447  32.944  12.957
12283W        W80756   7.258  32.445   3.284
12284W        W80757  39.817  20.159  13.537
12285W        W80758  13.205  20.268  14.462
12286W        W80759  14.256  25.042  12.910
12287W        W80760  15.730  36.989  12.493
12288W        W80761  27.024  19.726   0.344
12289W        W80762  14.822   8.323   4.327
12290W        W80763  18.739  23.652   9.922
12291W        W80764   1.476   0.787  13.952
12292W        W80765  10.148  42.356   2.348
12293W        W80766   2.757  27.636   4.193
12294W        W80767   6.795  14.281   4.202
12295W        W80768  25.708  35.575  12.086
12296W        W80769  44.454   5.334   1.763
12297W        W80770  39.853   6.756  14.859
12298W        W80771  44.902  32.090   1.921
12299W        W80772  40.352  39.854   3.226
12300W        W80773  43.426  19.646   3.691
12301W        W80774   6.870  14.601   4.785
12302W        W80775   1.448  21.529   2.343
12303W        W80776  20.637  23.148   3.247
12304W        W80777   3.276  20.691  12.555
12305W        W80778  15.645  31.981  10.052
12306W        W80779  40.022  15.325   2.375
12307W        W80780  25.650  37.056   0.733
12308W        W80781  17.080  33.060  10.417
12309W        W80782   2.817   3.278  14.872
12310W        W80783  22.065  10.306   4.600
12311W        W80784  12.697   0.810   3.235
12312W        W80785  20.762  41.806   2.181
12313W        W80786  33.943  34.929  12.412
12314W        W80787  31.009  27.946  13.352
12315W        W80788  26.481  36.951  13.456
12316W        W80789   3.884   0.930   1.295
12317W        W80790  25.037   6.403  11.604
12318W        W80791  23.718   9.149  14.432
12319W        W80792  31.433  17.662   4.663
12320W        W80793  24.594  17.231   1.213
12321W        W80794  12.648   5.801  11.600
12322W        W80795  21.577   0.861   1.734
12323W        W80796  16.794  35.451  13.487
12324W        W80797  40.319  21.590   3.366
12325W        W80798  10.866  27.498  12.401
12326W        W80799  20.132   9.387  13.048
12327W        W80800  18.076   1.969  13.508
12328W        W80801  34.040  43.378   0.835
12329W        W80802  17.730  30.160   2.702
12330W        W80803   5.831  43.853   3.657
12331W        W80804  32.076  32.493   4.642
12332W        W80805  42.941   3.792   0.812
12333W        W80806  38.867  28.934  12.952
12334W        W80807  20.098  17.243  14.298
12335W        W80808  26.144  40.443  13.381
12336W        W80809   4.291   6.903   2.786
12337W        W80810   5.921  28.995  11.557
12338W        W80811  42.958  36.867  12.046
12339W        W80812  37.535  16.641  11.104
12340W        W80813  34.877  35.593  10.451
12341W        W80814  27.581  39.497   0.383
12342W        W80815  16.175  41.504   4.350
12343W        W80816   6.739  22.567  12.860
12344W        W80817   4.850  28.067  13.387
12345W        W80818  20.710  31.534  10.415
12346W        W80819  12.683  42.929  10.945
12347W        W80820  23.101  27.617  10.487
12348W        W80821  42.009  44.494  12.851
12349W        W80822  41.452  43.411  11.486
12350W        W80823  39.025  26.132   1.739
12351W        W80824  34.949  24.090   3.865
12352W        W80825  23.562  18.124  10.569
12353W        W80826  25.689  28.108  11.409
12354W        W80827  13.606  38.050   0.477
12355W        W80828  24.215  12.830  12.539
12356W        W80829  31.920  37.378  12.913
12357W        W80830  18.125   0.474   0.359
12358W        W80831   0.869  34.532  10.582
12359W        W80832  29.937   4.269  13.426
12360W        W80833  41.307   6.310  14.777
12361W        W80834  41.345   2.874   1.822
12362W        W80835   9.246  22.183  11.501
12363W        W80836  19.735  39.983   3.789
12364W        W80837  27.050  41.379   3.318
12365W        W80838  14.208  12.184   2.194
12366W        W80839   0.903  26.482  14.902
12367W        W80840  41.807  18.246  11.088
12368W        W80841  11.333   8.340   4.779
12369W        W80842   7.774   7.740  14.492
12370W        W80843   7.359  43.924   2.278
12371W        W80844   9.208  13.843   4.287
12372W        W80845   9.377  15.297   2.382
12373W        W80846  28.028  15.680  12.510
12374W        W80847  27.013   6.346  11.040
12375W        W80848   4.373  23.081  12.012
12376W        W80849  12.194  41.834  13.438
12377W        W80850  13.812   6.384  11.075
12378W        W80851  42.013  41.494  10.593
12379W        W80852  33.041   2.296   1.429
12380W        W80853   5.208  33.947   4.619
12381W        W80854  42.997  22.039  13.897
12382W        W80855  19.684  17.073   5.202
12383W        W80856  13.653  32.467   0.370
12384W        W80857  14.126  18.132   3.173
12385W        W80858   6.686  40.389  12.838
12386W        W80859  41.882  15.280   4.819
12387W        W80860   8.893  37.950   1.921
12388W        W80861   2.866  35.371   0.407
12389W        W80862  13.602  29.430   4.764
12390W        W80863   3.414   8.847  12.995
12391W        W80864  36.874   6.267  14.433
12392W        W80865  25.679   0.376  13.439
12393W        W80866  38.347  24.711  13.539
12394W        W80867   7.712   3.298  13.424
12395W        W80868  18.114  12.227  11.965
12396W        W80869   2.325  29.643  12.048
12397W        W80870  40.438  41.033  13.791
12398W        W80871  17.754  30.581  10.626
12399W        W80872   6.774  38.920   4.297
12400W        W80873  38.958   6.397  10.897
12401W        W80874  37.532  19.702   1.852
12402W        W80875  10.264  41.417  12.560
12403W        W80876  40.956  38.941  14.447
12404W        W80877  42.033  24.587   4.266
12405W        W80878  31.573  40.377  14.951
12406W        W80879  31.032  25.999   2.231
12407W        W80880   3.397  17.236   1.325
12408W        W80881  43.339   2.305   1.272
12409W        W80882  23.618  18.725   1.890
12410W        W80883  24.666  41.042   4.797
12411W        W80884  11.668   6.239   2.844
12412W        W80885  34.558  12.615  13.360
12413W        W80886  41.493   3.956  11.963
12414W        W80887  22.531  30.135   2.829
12415W        W80888  13.331  34.120   1.794
12416W        W80889  15.200  29.505   1.710
12417W        W80890  16.611  26.994   2.400
12418W        W80891  44.496  39.953   2.885
12419W        W80892   3.375  17.201  13.816
12420W        W80893  18.578  12.707  11.068
12421W        W80894  37.530   4.705  11.586
12422W        W80895  24.205  24.485   3.243
12423W        W80896   3.786  41.450   0.766
12424W        W80897  24.539   9.676  14.496
12425W        W80898  22.638  33.536  11.545
12426W        W80899  16.307  21.732   3.764
12427W        W80900   4.792   5.869  12.994
12428W        W80901   4.443   4.752   2.250
12429W        W80902   7.235   4.350   9.523
12430W        W80903  38.864  27.501  10.084
12431W        W80904  27.999  29.642  14.007
12432W        W80905  18.199  14.290  13.794
12433W        W80906  32.505  36.043  13.344
12434W        W80907  24.699   6.726   1.448
12435W        W80908   0.389  16.241  11.884
12436W        W80909  19.125   5.210   0.271
12437W        W80910  15.652   0.918   3.743
12438W        W80911  25.005  18.665   2.187
12439W        W80912  25.131  13.659  10.899
12440W        W80913  25.567  25.596   4.798
12441W        W80914  36.962  30.062  12.020
12442W        W80915  31.470  42.833   2.338
12443W        W80916  41.913   2.381   1.431
12444W        W80917  42.384  40.385  11.922
12445W        W80918  20.116  22.164   1.283
12446W        W80919  41.316  19.628   3.831
12447W        W80920  20.680  30.155   3.377
12448W        W80921   4.868  29.543   3.704
12449W        W80922   9.645  26.462   0.347
12450W        W80923  43.290   0.877  13.933
12451W        W80924  11.198  12.232   4.694
12452W        W80925  26.673   0.776  11.525
12453W        W80926  40.915  19.102   0.879
12454W        W80927  25.003  19.560   3.656
12455W        W80928  39.333   7.813   1.346
12456W        W80929  36.876  24.190  11.511
12457W        W80930  17.222  32.453   2.689
12458W        W80931  44.321  43.390   4.606
12459W        W80932  36.550  41.889  14.025
12460W        W80933  11.131  24.165  11.086
12461W        W80934  41.862   4.342  13.486
12462W        W80935  10.695  40.964  10.420
12463W        W80936  14.699   4.277  14.308
12464W        W80937  36.531  22.685  10.548
12465W        W80938  44.452   1.341  14.444
12466W        W80939  44.810  32.571   2.319
12467W        W80940  32.440  34.537   2.215
12468W        W80941  26.683  43.365  11.531
12469W        W80942  30.441  25.107   3.339
12470W        W80943   6.233  21.155  14.857
12471W        W80944  39.916  40.046   4.777
12472W        W80945  32.394   7.302  12.033
12473W        W80946   4.334  39.990   4.719
12474W        W80947  43.466   7.251   2.230
12475W        W80948  17.113  36.985   4.172
12476W        W80949  43.930  31.473   3.797
12477W        W80950  41.788  42.289   0.465
12478W        W80951  13.234  20.598  11.113
12479W        W80952  19.547  24.676  13.945
12480W        W80953   2.901   5.412   3.857
12481W        W80954  26.049  33.530  12.347
12482W        W80955   5.926   9.325  13.977
12483W        W80956  38.834  23.101  13.309
12484W        W80957  11.351  43.005  10.562
12485W        W80958  17.158  10.793  14.843
12486W        W80959  38.368  18.274  11.889
12487W        W80960  43.374   3.851  13.450
12488W        W80961  19.106   9.885  14.490
12489W        W80962  29.518  26.561   1.325
12490W        W80963  36.532   0.916   3.691
12491W        W80964   6.878  22.597  14.358
12492W        W80965  22.599  18.719  14.395
12493W        W80966  41.902  38.847  12.547
12494W        W80967  16.646   2.790   2.404
12495W        W80968  24.026  18.593   0.258
12496W        W80969  11.812  27.177   2.851
12497W        W80970   8.884  13.273   4.613
12498W        W80971  33.415   4.391  14.430
12499W        W80972  35.907  32.073  13.349
12500W        W80973   1.906   3.357  11.878
12501W        W80974   3.324  20.531   3.271
12502W        W80975  26.630  44.341   4.656
12503W        W80976  24.627   5.697   2.323
12504W        W80977  30.552  40.312  14.399
12505W        W80978  18.120  10.634   0.437
12506W        W80979  30.981   4.756   9.996
12507W        W80980  38.426  32.042  12.042
12508W        W80981  28.624   6.919  12.061
12509W        W80982  28.561  13.150   3.200
12510W        W80983   1.429   6.371  13.838
12511W        W80984  16.238   7.907  12.899
12512W        W80985   9.305  26.568   0.430
12513W        W80986   6.912  31.999  10.996
12514W        W80987  42.831  13.157  14.387
12515W        W80988  38.926  36.513  10.406
12516W        W80989   2.748   5.700   1.250
12517W        W80990   2.254  21.673  13.018
12518W        W80991   1.882  20.105  13.355
12519W        W80992  43.897  40.845  14.916
12520W        W80993  37.579  30.997  12.016
12521W        W80994  16.808  39.830   3.871
12522W        W80995  21.118   8.332   4.813
12523W        W80996  23.561  20.035   0.887
12524W        W80997  11.829  42.395   0.810
12525W        W80998  43.382  27.953   3.642
12526W        W80999  33.090   4.245  12.945
12527W        W81000  44.416  17.676  11.491
12528W        W81001  21.152  34.978  14.763
12529W        W81002   9.784  39.511  11.992
12530W        W81003  11.240  18.680  10.576
12531W        W81004  44.978  18.283   2.393
12532W        W81005  18.629  36.978  14.837
12533W        W81006  10.820  23.989  13.488
12534W        W81007   4.426   5.916  11.589
12535W        W81008  41.819  15.301  11.062
12536W        W81009  17.178  25.540   1.259
12537W        W81010  23.159  28.034  14.372
12538W        W81011  20.065  42.810  14.401
12539W        W81012  35.474  11.225   2.696
12540W        W81013   1.736  26.089   3.170
12541W        W81014  26.586  39.829  13.474
12542W        W81015  25.497  44.311   3.334
12543W        W81016   1.748  21.644  14.290
12544W        W81017  23.700  18.120   4.304
12545W        W81018  25.069   9.174   1.345
12546W        W81019   2.390  18.568  13.505
12547W        W81020  43.767  10.649  12.824
12548W        W81021  10.872   5.371  10.452
12549W        W81022  41.506   7.327  11.004
12550W        W81023  18.088  34.047  14.869
12551W        W81024   0.943  36.489  14.839
12552W        W81025   4.831  25.708  14.884
12553W        W81026  19.134  41.818   0.918
12554W        W81027  13.199  29.121  12.522
12555W        W81028   1.924   6.747  12.553
12556W        W81029  15.602  13.729   4.648
12557W        W81030  29.947  24.153   5.088
12558W        W81031  14.116  15.760   1.847
12559W        W81032  26.956  18.655  11.867
12560W        W81033  14.776  21.216  14.896
12561W        W81034   3.928  37.487   1.242
12562W        W81035  23.690   1.273   3.363
12563W        W81036  38.488  22.732  13.939
12564W        W81037  14.622  24.977  10.143
12565W        W81038   3.359  43.957   4.130
12566W        W81039  17.109  12.162  11.957
12567W        W81040  29.491  13.703  14.771
12568W        W81041  39.445  36.408   3.643
12569W        W81042  40.846   5.893  13.434
12570W        W81043  25.065  44.374  12.829
12571W        W81044  34.037  26.139  11.499
12572W        W81045  10.777   2.368   0.346
12573W        W81046  11.293   9.674  12.575
12574W        W81047  13.134  13.159   1.721
12575W        W81048   9.351  25.598   4.836
12576W        W81049  17.798  40.525   3.798
12577W        W81050  19.634  38.820   0.338
12578W        W81051  33.404  35.100   4.758
12579W        W81052  38.345  17.739   0.378
12580W        W81053  29.510   0.937  14.420
12581W        W81054   4.446   5.861   5.265
12582W        W81055   6.863  19.177   1.923
12583W        W81056  11.347   3.942   3.263
12584W        W81057  20.587  42.967  11.111
12585W        W81058  31.428  37.561  10.568
12586W        W81059  18.107   8.810  13.471
12587W        W81060  13.343  26.499   1.801
12588W        W81061  24.024  35.905  11.608
12589W        W81062   1.345   0.884   3.159
12590W        W81063  38.468  10.775   3.665
12591W        W81064  41.787  40.979   1.900
12592W        W81065  18.751   9.794   0.259
12593W        W81066   6.748  23.066   2.255
12594W        W81067  12.235  15.710  11.078
12595W        W81068  40.345  29.030   3.150
12596W        W81069  40.451  17.713  13.382
12597W        W81070  31.094  39.426  12.926
12598W        W81071  11.373  37.459  12.022
12599W        W81072  24.224  23.500  10.613
12600W        W81073  40.408  19.572  12.386
12601W        W81074   9.884  16.671   1.824
12602W        W81075   4.701  17.068  11.606
12603W        W81076  17.176  17.592   2.777
12604W        W81077  43.766  39.510   4.613
12605W        W81078  10.310  10.669   1.884
12606W        W81079  44.373  43.395  12.850
12607W        W81080  19.041   8.889   1.429
12608W        W81081   3.347   5.706   4.295
12609W        W81082  42.032  44.832   0.440
12610W        W81083  42.785  29.115  12.989
12611W        W81084  13.336  27.568   1.797
12612W        W81085  14.216  32.611  10.966
12613W        W81086  22.504   8.213  12.851
12614W        W81087  30.641   5.231   4.743
12615W        W81088  26.464  41.966  13.019
12616W        W81089  43.341  18.173   0.292
12617W        W81090   6.329  38.833  13.825
12618W        W81091  29.049  38.459  12.565
12619W        W81092  14.717  12.338   4.319
12620W        W81093  30.553  40.046  13.463
12621W        W81094  16.105  21.723   0.373
12622W        W81095  43.312  21.557   4.319
12623W        W81096   8.371  36.005  11.421
12624W        W81097  17.667  17.159  11.078
12625W        W81098  26.073  32.094  13.524
12626W        W81099  12.719  22.687   1.338
12627W        W81100   1.892  24.165   1.299
12628W        W81101  39.036  18.238   4.677
12629W        W81102  13.606  41.927   2.364
12630W        W81103  14.195  24.167  13.974
12631W        W81104  25.690  10.662  12.870
12632W        W81105  34.051  21.578  14.482
12633W        W81106  39.448  36.948  11.995
12634W        W81107   8.390  20.716  14.429
12635W        W81108  15.609  39.446   0.956
12636W        W81109  14.116  27.056   1.295
12637W        W81110   6.765  41.296  11.547
12638W        W81111  13.711  38.867  14.960
12639W        W81112  11.342  26.631   3.196
12640W        W81113  19.231  33.880   0.431
12641W        W81114  26.549  37.953   1.370
12642W        W81115   0.951   2.893  12.484
12643W        W81116  17.102  31.090   3.766
12644W        W81117  13.650  12.738   0.416
12645W        W81118  18.666  31.992   1.906
12646W        W81119  32.543   1.746  12.046
12647W        W81120  44.437   0.448   0.457
12648W        W81121  33.427  36.509   4.322
12649W        W81122  15.132  24.074   2.885
12650W        W81123  25.626  30.162  13.908
12651W        W81124   2.896  18.234  11.963
12652W        W81125  40.467   9.179  14.975
12653W        W81126   9.720  24.668   4.644
12654W        W81127  37.518  33.586  10.995
12655W        W81128  13.778  21.125  11.897
12656W        W81129  18.791  23.655   1.343
12657W        W81130  17.679  16.204   4.165
12658W        W81131  28.006  37.403   1.306
12659W        W81132  32.021  22.576  14.460
12660W        W81133   3.294  20.677   0.259
12661W        W81134  44.275  28.041   2.887
12662W        W81135  14.588  12.269  12.577
12663W        W81136  42.422  14.734  11.482
12664W        W81137   4.698  32.106  13.364
12665W        W81138  35.529  26.060   4.241
12666W        W81139  13.638  17.755  11.534
12667W        W81140  10.288  20.674  12.884
12668W        W81141  24.213   5.813  13.918
12669W        W81142   4.212  14.739   4.171
12670W        W81143  27.125  15.324   3.316
12671W        W81144  19.260  20.683  14.909
12672W        W81145  27.952  14.591   4.160
12673W        W81146  10.354  42.508  11.866
12674W        W81147  32.068   8.290   2.665
12675W        W81148  26.675   5.747   3.250
12676W        W81149  28.610  29.471   1.838
12677W        W81150  35.927  30.603   4.626
12678W        W81151  17.756   3.880   0.407
12679W        W81152  19.563  35.919   0.326
12680W        W81153  40.392  40.349   1.776
12681W        W81154   2.440  23.596  12.343
12682W        W81155   8.214   3.871  12.980
12683W        W81156  17.717  28.574  14.381
12684W        W81157  34.432  34.498   1.895
12685W        W81158  24.131   2.416   0.874
12686W        W81159   8.302  28.675  10.994
12687W        W81160   3.844   1.758  10.507
12688W        W81161  41.440   3.458  14.383
12689W        W81162  37.420   0.911  10.929
12690W        W81163   7.775  28.184  11.962
12691W        W81164  15.679  18.216  12.537
12692W        W81165  19.204   0.875  14.334
12693W        W81166  13.286   7.285  14.827
12694W        W81167  42.453  21.111  10.485
12695W        W81168  28.664  28.966  12.049
12696W        W81169  12.346  22.233  12.089
12697W        W81170   7.809  16.669  11.525
12698W        W81171  33.403   2.821  12.010
12699W        W81172  40.893   3.886  10.997
12700W        W81173  17.633   3.768   4.638
12701W        W81174  34.555  12.817  14.407
12702W        W81175  16.647  16.098  11.891
12703W        W81176   1.809  18.609   4.321
12704W        W81177  40.524  43.927  10.436
12705W        W81178  17.197  23.093  14.281
12706W        W81179   3.422  20.069   2.199
12707W        W81180  35.079  35.575  13.338
12708W        W81181  28.678  25.037  11.588
12709W        W81182  20.158  21.621   1.884
12710W        W81183  19.670  31.971   1.360
12711W        W81184  37.830  37.024   1.217
12712W        W81185   5.705  14.301   2.401
12713W        W81186  39.917  11.625   2.721
12714W        W81187  14.117   0.871  13.520
12715W        W81188  44.917  30.927   1.923
12716W        W81189  25.599  18.222   2.881
12717W        W81190   8.369  27.640   2.712
12718W        W81191   1.418  18.778  14.828
12719W        W81192  25.682  25.552  12.535
12720W        W81193  12.222  27.553  12.524
12721W        W81194  25.642  44.350  11.878
12722W        W81195  25.074  29.011  10.608
12723W        W81196   8.245   1.454   1.730
12724W        W81197  11.230  22.697   0.352
12725W        W81198  44.348  39.535   3.645
12726W        W81199  35.109   7.842   3.344
12727W        W81200  11.866  42.820  11.955
12728W        W81201  21.606  41.952   3.748
12729W        W81202  29.614  36.519  11.460
12730W        W81203  25.661  24.542  10.432
12731W        W81204   6.305   2.389  14.281
12732W        W81205  15.684   1.865   2.849
12733W        W81206  40.412   5.267  13.445
12734W        W81207  32.402   0.789  11.430
12735W        W81208  35.525  22.521  10.415
12736W        W81209  39.499  26.147  12.917
12737W        W81210  35.090   4.792  13.939
12738W        W81211  23.631  39.486   0.853
12739W        W81212  31.616  13.318  13.020
12740W        W81213   7.773   5.925   3.711
12741W        W81214   9.340  22.631   0.391
12742W        W81215  26.004   7.335   2.862
12743W        W81216  25.611  13.826  12.460
12744W        W81217  20.756  43.801   3.381
12745W        W81218  19.119  35.041  13.488
12746W        W81219   1.291  23.103   2.301
12747W        W81220   7.835  29.448   4.784
12748W        W81221  18.725  23.615   4.771
12749W        W81222   8.668  14.269  13.865
12750W        W81223  18.172   8.255  14.979
12751W        W81224  23.009   5.327  14.430
12752W        W81225  24.150  34.114   1.799
12753W        W81226  25.633  30.617   2.819
12754W        W81227  36.387  32.057   1.849
12755W        W81228  30.480  29.935  13.888
12756W        W81229  20.061  35.942  13.333
12757W        W81230  11.682  21.528   2.241
12758W        W81231   2.728   2.292   4.253
12759W        W81232  12.827  24.699   3.733
12760W        W81233  37.440  26.980   4.718
12761W        W81234  12.856  27.139  14.859
12762W        W81235  22.113  19.547  13.062
12763W        W81236  44.791   4.713   4.783
12764W        W81237  37.881   9.873   4.823
12765W        W81238  11.694  42.869   4.794
12766W        W81239  43.858  27.445   4.141
12767W        W81240  36.843  13.117   0.484
12768W        W81241   7.384  30.457   1.395
12769W        W81242  19.141  39.400   2.308
12770W        W81243  36.525   9.726   3.365
12771W        W81244   6.265  18.290  10.969
12772W        W81245  11.295  18.105   0.929
12773W        W81246  32.435  27.561   3.263
12774W        W81247  23.117   9.667   4.607
12775W        W81248  37.441  41.367  11.390
12776W        W81249  41.862  31.999  11.061
12777W        W81250   7.221  28.473   3.270
12778W        W81251  17.782  42.997  11.030
12779W        W81252  25.519  31.510   0.825
12780W        W81253   3.716  42.403   1.772
12781W        W81254   1.297  26.185  12.980
12782W        W81255  22.150  14.648   1.302
12783W        W81256  21.558   1.924   2.302
12784W        W81257   1.966   5.431  14.991
12785W        W81258  36.468   9.233  14.759
12786W        W81259  12.168  36.536  11.424
12787W        W81260   8.377   2.426   2.354
12788W        W81261  33.972  21.239   1.869
12789W        W81262   0.983   6.304  14.297
12790W        W81263  31.933  11.299   0.427
12791W        W81264  26.023  22.682  14.767
12792W        W81265  29.655  39.973  14.298
12793W        W81266  15.657  30.974   4.243
12794W        W81267  29.536  37.838   3.661
12795W        W81268   7.231  15.171   9.538
12796W        W81269  28.993  42.334   4.763
12797W        W81270  25.126  15.807   2.724
12798W        W81271  31.520  38.063   2.668
12799W        W81272  41.806  43.996   3.774
12800W        W81273  37.985  38.053  13.007
12801W        W81274  24.195  18.155  14.003
12802W        W81275   4.318  29.424   2.398
12803W        W81276  18.764  30.068   0.795
12804W        W81277  33.466  22.225   0.243
12805W        W81278   3.225  21.692  11.077
12806W        W81279  11.224  32.588   0.308
12807W        W81280  31.633  31.483   4.191
12808W        W81281  18.623  32.060  14.863
12809W        W81282  35.079   7.744  14.305
12810W        W81283  12.344  26.036  11.445
12811W        W81284   5.405   4.212   0.816
12812W        W81285  37.479  23.132  14.331
12813W        W81286  18.251  21.596   1.363
12814W        W81287  39.527  27.558   1.242
12815W        W81288   6.810  32.092  12.936
12816W        W81289  35.451  44.366   1.263
12817W        W81290   7.287   6.761  14.394
12818W        W81291  27.510  29.017  14.774
12819W        W81292   5.927  32.968  12.069
12820W        W81293  39.438  39.321  11.986
12821W        W81294  39.448  34.925  12.857
12822W        W81295  21.739  34.063   0.858
12823W        W81296  16.189  36.988   9.657
12824W        W81297  40.812   3.370  13.371
12825W        W81298  44.447  15.095  11.991
12826W        W81299  18.141  21.723  12.924
12827W        W81300   0.325  22.500   1.901
12828W        W81301  19.187  35.939  11.018
12829W        W81302  24.701  29.978  10.472
12830W        W81303  16.216  21.559   4.186
12831W        W81304   7.310   6.906  12.488
12832W        W81305  17.111  43.983   1.838
12833W        W81306  25.561   2.248   1.417
12834W        W81307  32.992   6.258  11.955
12835W        W81308  18.245   4.885   1.419
12836W        W81309  34.889   9.785   2.808
12837W        W81310   5.427   5.837   3.360
12838W        W81311  37.876   9.171  14.478
12839W        W81312  31.013  26.676  13.813
12840W        W81313  33.934  15.823   4.146
12841W        W81314  19.069  37.414   3.843
12842W        W81315  24.185  43.275  13.514
12843W        W81316  40.839  20.224   2.721
12844W        W81317  18.164  33.599  11.878
12845W        W81318  10.775  19.200  10.489
12846W        W81319  28.487  21.180   3.753
12847W        W81320  26.100   4.266  12.013
12848W        W81321  21.141  42.874  13.410
12849W        W81322  26.092  37.053   3.336
12850W        W81323  16.639  44.839  11.100
12851W        W81324  11.315   4.307  11.120
12852W        W81325   6.364   0.432   0.381
12853W        W81326  26.557  38.826  11.097
12854W        W81327  12.856   8.228  14.312
12855W        W81328  12.716  38.457  12.560
12856W        W81329  30.586  40.980  12.035
12857W        W81330  25.641  26.555   2.673
12858W        W81331  11.226  38.479   3.710
12859W        W81332  39.487  39.530   0.883
12860W        W81333  37.572  20.249   1.806
12861W        W81334  40.367  42.939   9.969
12862W        W81335  44.914  19.635   3.353
12863W        W81336  23.675  20.578  12.012
12864W        W81337  24.037  16.235  11.124
12865W        W81338  17.589   4.406  12.024
12866W        W81339  35.987   4.810   0.870
12867W        W81340   6.347  32.027  13.335
12868W        W81341   8.406  33.878   3.634
12869W        W81342   9.770  36.976   3.840
12870W        W81343   9.701  24.507   1.449
12871W        W81344   9.157   5.419   3.209
12872W        W81345   5.293   4.709  12.905
12873W        W81346  18.721  37.553  13.060
12874W        W81347  26.012  19.160  14.446
12875W        W81348  25.157   5.764   0.438
12876W        W81349  33.473   3.864   3.845
12877W        W81350   1.849  11.242   3.276
12878W        W81351   6.327  22.700   1.897
12879W        W81352  23.657  30.629  11.585
12880W        W81353  11.239  39.869  12.965
12881W        W81354  27.060  10.670   3.688
12882W        W81355  37.974  15.626   4.735
12883W        W81356   3.911   8.711  13.053
12884W        W81357  18.224  13.298  14.843
12885W        W81358  33.510  15.587  11.129
12886W        W81359  16.751  43.796   2.320
12887W        W81360  16.189  32.025   1.733
12888W        W81361  22.661   9.790  10.559
12889W        W81362  19.091  19.553  12.457
12890W        W81363  23.701  28.115   1.866
12891W        W81364  37.869  31.151   3.829
12892W        W81365  20.647  17.787  10.915
12893W        W81366   9.164   7.386  12.907
12894W        W81367  41.457  30.470   0.797
12895W        W81368  21.157  16.300  12.508
12896W        W81369  29.135  15.110   1.817
12897W        W81370  44.343   9.256  12.993
12898W        W81371  41.808  30.422   5.274
12899W        W81372   8.261  32.432  10.489
12900W        W81373   5.268  16.592  11.913
12901W        W81374  16.707  19.244  11.473
12902W        W81375  37.476  18.052  11.930
12903W        W81376  30.507   0.923  12.082
12904W        W81377  12.786  33.880  13.358
12905W        W81378  33.923   4.388   3.286
12906W        W81379  14.668  39.343   1.326
12907W        W81380  25.704   4.324  12.907
12908W        W81381  26.120  43.004  14.477
12909W        W81382  36.482  28.500   3.703
12910W        W81383  31.564  29.597   2.201
12911W        W81384   9.889  19.539   4.650
12912W        W81385  20.650  18.617   3.185
12913W        W81386  43.309   2.847   4.821
12914W        W81387   4.284  33.419   0.772
12915W        W81388  26.969  21.194   2.821
12916W        W81389   0.462  13.191   4.826
12917W        W81390   7.825  37.553   3.244
12918W        W81391   5.767   6.874  13.834
12919W        W81392  39.388  20.602  13.800
12920W        W81393  15.797  14.596  13.868
12921W        W81394  18.710  23.213   1.358
12922W        W81395   5.357   9.282   4.338
12923W        W81396  39.416   1.928   4.213
12924W        W81397  22.245  22.175   3.168
12925W        W81398  12.142   1.761   4.839
12926W        W81399  28.579   1.808   3.230
12927W        W81400  32.917   1.247  11.577
12928W        W81401   6.221  10.814   0.483
12929W        W81402  10.791  42.339   1.347
12930W        W81403  11.282  34.958   4.604
12931W        W81404  23.204  32.585  14.968
12932W        W81405  20.217   3.722   2.830
12933W        W81406  17.205  37.463   5.236
12934W        W81407  17.295  24.167  13.320
12935W        W81408   6.426  43.319   4.156
12936W        W81409  44.784  10.381  14.492
12937W        W81410  37.563  18.621  11.029
12938W        W81411  19.666  41.362   1.407
12939W        W81412  36.586   7.696  10.431
12940W        W81413  39.839  41.019   2.210
12941W        W81414  24.529   3.277  10.037
12942W        W81415  12.210  36.452  14.949
12943W        W81416  29.016   8.727   2.814
12944W        W81417  28.449  43.376   4.640
12945W        W81418  44.415  18.117  11.024
12946W        W81419  33.566  41.905  12.369
12947W        W81420  21.074   7.215   1.798
12948W        W81421  42.918  20.034   3.651
12949W        W81422  39.470  14.140   0.243
12950W        W81423  41.972  31.419  12.470
12951W        W81424   7.314  41.032   4.205
12952W        W81425   6.871  10.147  14.457
12953W        W81426  27.666  19.741   1.315
12954W        W81427  11.646  23.989   2.879
12955W        W81428  24.603  39.496  10.580
12956W        W81429   9.338  22.062  13.453
12957W        W81430  30.540  22.049   3.801
12958W        W81431   5.765  36.065  14.395
12959W        W81432  33.971  24.522   1.322
12960W        W81433  11.188   4.703  14.485
12961W        W81434  32.027  14.250  11.060
12962W        W81435  34.390  29.034  13.860
12963W        W81436   1.342   3.864   0.480
12964W        W81437  34.492  35.912   4.202
12965W        W81438  23.625   0.355   4.349
12966W        W81439  37.060  31.408  14.764
12967W        W81440  37.344   3.221   3.215
12968W        W81441   1.262  10.736   3.216
12969W        W81442   1.767   4.276  12.963
12970W        W81443  39.361  11.675   4.783
12971W        W81444  36.451  32.438   3.312
12972W        W81445   7.698  30.991   3.660
12973W        W81446  21.230  35.440   1.738
12974W        W81447  28.954   9.672  13.912
12975W        W81448  21.689  43.825  14.774
12976W        W81449  19.119  36.923  13.064
12977W        W81450  18.676   0.490  12.086
12978W        W81451  17.798  15.263  12.963
12979W        W81452  31.601  13.724   3.228
12980W        W81453  10.695  42.963   4.224
12981W        W81454  39.506  22.133  12.461
12982W        W81455  32.894   7.412   2.831
12983W        W81456  42.431   1.776  14.973
12984W        W81457  11.678  43.292   0.918
12985W        W81458   4.285  14.319  14.948
12986W        W81459  11.702  44.378  13.872
12987W        W81460  34.611   8.397  12.048
12988W        W81461  11.157   3.395  10.589
12989W        W81462  26.043  18.081   0.933
12990W        W81463   0.872  40.879   0.855
12991W        W81464  13.346  29.974   4.794
12992W        W81465  30.657  18.687   3.200
12993W        W81466  30.610  24.070  10.126
12994W        W81467  17.258  35.531  11.397
12995W        W81468  37.474  20.651   2.355
12996W        W81469   0.294   7.200  12.964
12997W        W81470   6.909  31.455   1.763
12998W        W81471  11.359  21.657   1.341
12999W        W81472  42.888  27.542   4.607
13000W        W81473  18.615  10.304   1.831
13001W        W81474  33.462   5.886   4.219
13002W        W81475   9.186  43.385   0.795
13003W        W81476  26.520  10.778  12.507
13004W        W81477   6.694  15.190   3.804
13005W        W81478  20.039  44.439  13.541
13006W        W81479  29.125  24.682  10.939
13007W        W81480  21.125  24.034   3.855
13008W        W81481   9.384   5.865  11.378
13009W        W81482  27.591  43.305   4.176
13010W        W81483  18.136   0.824   0.344
13011W        W81484  19.109  42.303   3.285
13012W        W81485   5.915  28.059  11.531
13013W        W81486  44.920  24.582  11.122
13014W        W81487  35.041   8.769  12.371
13015W        W81488  10.760  23.568  13.977
13016W        W81489  35.059  44.478  11.429
13017W        W81490  16.131  15.824  11.484
13018W        W81491  29.160  15.630   2.359
13019W        W81492  21.575  13.676  14.938
13020W        W81493  41.452   8.888   3.375
13021W        W81494  29.074   9.158   0.391
13022W        W81495  41.964  24.131  13.013
13023W        W81496  39.828   2.435   0.483
13024W        W81497   9.809  34.948  11.482
13025W        W81498  27.467  25.083   0.833
13026W        W81499  37.830  32.124  12.579
13027W        W81500   3.710  18.587  14.977
13028W        W81501   0.907  39.434   4.794
13029W        W81502  43.510   2.309   2.313
13030W        W81503   5.689   2.889   0.395
13031W        W81504  44.345   7.708  13.472
13032W        W81505  37.458  19.091   2.882
13033W        W81506  19.665  32.034   0.452
13034W        W81507  15.745  18.233  10.896
13035W        W81508   2.839  15.649   4.290
13036W        W81509  41.478  29.623   1.934
13037W        W81510  16.716   9.718  10.415
13038W        W81511  38.948  40.304  10.899
13039W        W81512  23.655  25.692   5.184
13040W        W81513  12.781  41.343  13.989
13041W        W81514  14.284  14.826  14.898
13042W        W81515   9.876  22.585  10.557
13043W        W81516  36.057   2.883  12.980
13044W        W81517  35.487  40.046   1.278
13045W        W81518  29.543  44.277   4.318
13046W        W81519  31.099  38.938  14.839
13047W        W81520  16.765  42.020   4.249
13048W        W81521  40.466  18.764   4.333
13049W        W81522  16.159  23.033   0.245
13050W        W81523   3.223  32.901  12.877
13051W        W81524  31.581  14.794  12.879
13052W        W81525  19.718  28.552  10.559
13053W        W81526  28.035  18.781  14.394
13054W        W81527   8.887  29.640  10.513
13055W        W81528  25.557  17.064  10.101
13056W        W81529  42.972  23.489   1.223
13057W        W81530  36.097  33.982   4.196
13058W        W81531  18.674   5.383   3.331
13059W        W81532  24.006   1.331  11.570
13060W        W81533  19.670  36.967   3.697
13061W        W81534  25.554  20.163  10.644
13062W        W81535  40.829   4.402  12.833
13063W        W81536  20.177  16.600  11.612
13064W        W81537   2.861  35.974  12.081
13065W        W81538  41.535   8.366  11.389
13066W        W81539  10.751  19.283   1.877
13067W        W81540  34.930  27.125   0.851
13068W        W81541   0.883  40.968  12.341
13069W        W81542  42.938  44.311  11.451
13070W        W81543  38.823   2.900   4.236
13071W        W81544   8.249   7.305   1.383
13072W        W81545  41.516  30.944  10.459
13073W        W81546  22.704   4.715   3.843
13074W        W81547  36.038  29.581  12.374
13075W        W81548  34.471   8.263   3.836
13076W        W81549  30.065  31.968  11.433
13077W        W81550  19.052   1.403   3.743
13078W        W81551   8.674  23.633   1.430
13079W        W81552  36.952  41.431  12.984
13080W        W81553  13.739  10.780   3.270
13081W        W81554  22.711  16.277   3.364
13082W        W81555  25.177  14.653   2.766
13083W        W81556  21.152  31.074  10.542
13084W        W81557   2.890  33.416  13.993
13085W        W81558  28.455  44.497   4.222
13086W        W81559  28.051   1.871   2.803
13087W        W81560  39.444  12.800  11.020
13088W        W81561  30.095  37.347  11.958
13089W        W81562  35.056   1.396  12.047
13090W        W81563   5.780  44.441  14.374
13091W        W81564  33.379  30.015   4.620
13092W        W81565   8.683  25.176  11.566
13093W        W81566   6.716  36.483  13.916
13094W        W81567  29.509  14.699  13.812
13095W        W81568  39.511  13.671   1.304
13096W        W81569   6.246   4.816   2.722
13097W        W81570  33.554  13.663  12.943
13098W        W81571  24.694  34.989   2.221
13099W        W81572  26.198   1.484   1.241
13100W        W81573   5.764  23.685   3.362
13101W        W81574  34.414  12.843   0.318
13102W        W81575  35.885  13.275   0.383
13103W        W81576  23.111   2.352   4.641
13104W        W81577  22.683  16.220   2.768
13105W        W81578  23.098  36.049   1.274
13106W        W81579  33.597  35.487   2.268
13107W        W81580  14.246  41.003   2.246
13108W        W81581   0.961  44.870  10.958
13109W        W81582  26.485   2.408   1.843
13110W        W81583  23.726   2.740  14.815
13111W        W81584  10.780  12.612  12.348
13112W        W81585  25.579  35.105  11.573
13113W        W81586   3.872  17.751  14.418
13114W        W81587  44.807  42.451   1.376
13115W        W81588  14.126  16.593  13.961
13116W        W81589  11.216  12.154   2.263
13117W        W81590  13.714  23.001  10.548
13118W        W81591   2.903  30.980  14.385
13119W        W81592  42.320  36.434   0.803
13120W        W81593  36.427   8.358  13.324
13121W        W81594  30.975  21.743  11.923
13122W        W81595  19.534  18.608  10.975
13123W        W81596  34.457  17.719  14.759
13124W        W81597  41.420  36.491  14.995
13125W        W81598  41.860  18.738   1.934
13126W        W81599  26.045  31.004  11.009
13127W        W81600  42.967  43.806   3.236
13128W        W81601   4.857  25.967  11.475
13129W        W81602  25.641  25.087   4.823
13130W        W81603  17.780   6.202  10.444
13131W        W81604  27.961  19.722   1.910
13132W        W81605  20.245  20.036  12.499
13133W        W81606   1.871  36.953   2.836
13134W        W81607   9.823   6.362  11.961
13135W        W81608   4.371  25.170  12.908
13136W        W81609   5.392  38.427  14.014
13137W        W81610   5.260  30.996  14.761
13138W        W81611  35.864   6.737  12.916
13139W        W81612  32.564   0.820  12.366
13140W        W81613  17.169  24.595   4.290
13141W        W81614   3.267   0.828   1.261
13142W        W81615   7.856  16.636   4.707
13143W        W81616  43.898   2.334   0.736
13144W        W81617  30.596   2.921   2.269
13145W        W81618  19.660  16.187   3.699
13146W        W81619   1.806  34.613  11.056
13147W        W81620  18.760  14.656  10.999
13148W        W81621   3.869  19.232   4.832
13149W        W81622  27.979  21.659   2.318
13150W        W81623  10.862  20.577  10.636
13151W        W81624  15.682   1.904  10.562
13152W        W81625  35.518   9.864  12.442
13153W        W81626  43.443  27.091   1.930
13154W        W81627  11.830  16.682  11.986
13155W        W81628  31.473  28.567  10.430
13156W        W81629   5.719  31.943  14.979
13157W        W81630   4.250   7.813   1.749
13158W        W81631  22.690  11.141   2.668
13159W        W81632  20.270  36.884   3.265
13160W        W81633  15.773  32.511   3.646
13161W        W81634   8.312  24.025   1.319
13162W        W81635  13.274  12.278  12.826
13163W        W81636  38.037  41.930   4.609
13164W        W81637  35.493  17.597  12.903
13165W        W81638  32.979   2.753   2.318
13166W        W81639  44.763   3.267   4.254
13167W        W81640  24.579   9.368   2.873
13168W        W81641   7.895   5.731   4.654
13169W        W81642   5.252  25.512  11.416
13170W        W81643  14.703   2.257  12.342
13171W        W81644  10.189  16.771  14.452
13172W        W81645  29.480  39.935   3.385
13173W        W81646  36.506  24.182   0.898
13174W        W81647  26.029  41.389  14.968
13175W        W81648  24.194   7.242  13.966
13176W        W81649  24.591  31.951   3.153
13177W        W81650  22.199  30.051  12.439
13178W        W81651  28.180  38.886  13.468
13179W        W81652  34.928  35.450   4.814
13180W        W81653  18.748  40.868   0.732
13181W        W81654   4.244  20.695  13.516
13182W        W81655   6.830  36.069  11.562
13183W        W81656  23.094  41.853  10.957
13184W        W81657  11.202   5.847  10.936
13185W        W81658   4.336  21.705   1.790
13186W        W81659  44.802  14.165   4.705
13187W        W81660  34.533  43.843   0.262
13188W        W81661  11.141  41.341  14.974
13189W        W81662  17.708  42.943  10.430
13190W        W81663  34.006  25.620   1.364
13191W        W81664  43.947  13.733   2.286
13192W        W81665  28.591  19.649   1.890
13193W        W81666  10.816  13.726   4.779
13194W        W81667  33.546  21.149   1.931
13195W        W81668   0.276  24.222  14.961
13196W        W81669  12.715   4.222   3.755
13197W        W81670  12.845   9.674  11.460
13198W        W81671  22.197  24.588   4.183
13199W        W81672   8.325  40.801   0.365
13200W        W81673   1.340  26.669   2.407
13201W        W81674  42.824  37.032  10.407
13202W        W81675  18.114  30.993  10.550
13203W        W81676  32.636  19.659   4.645
13204W        W81677  40.862   0.376  12.858
13205W        W81678  10.205  29.544  12.557
13206W        W81679  11.201  40.440  11.041
13207W        W81680  24.051  22.507  14.782
13208W        W81681  27.147  21.143   3.384
13209W        W81682  27.150   0.837   1.324
13210W        W81683  13.798  41.967  12.551
13211W        W81684  43.800   6.818   3.205
13212W        W81685  30.493  20.271   3.163
13213W        W81686  25.051  25.710   2.754
13214W        W81687   8.375   6.794   5.131
13215W        W81688   5.919  15.609  14.329
13216W        W81689  27.451  26.956   1.320
13217W        W81690   5.842  28.615   1.923
13218W        W81691  23.716  13.277  14.938
13219W        W81692  43.786  26.661  13.825
13220W        W81693  41.415   4.866   2.199
13221W        W81694   4.717  18.274   0.939
13222W        W81695  15.672  42.388  12.964
13223W        W81696  23.149  36.550  14.358
13224W        W81697  22.165  42.977   0.319
13225W        W81698  27.650  27.975   2.253
13226W        W81699  12.750  16.081  14.319
13227W        W81700  40.438  30.531   0.757
13228W        W81701  13.109  12.700   2.216
13229W        W81702  41.405  10.192   1.821
13230W        W81703  24.087  41.863  10.446
13231W        W81704  29.615  18.241   4.294
13232W        W81705  10.380   7.900  11.407
13233W        W81706  15.662  19.162   0.853
13234W        W81707  14.717   3.280  11.581
13235W        W81708  37.354   2.775   1.212
13236W        W81709   9.341  40.805   0.389
13237W        W81710  44.980   8.862  11.584
13238W        W81711   6.900  37.540   4.199
13239W        W81712  38.556  13.315  11.540
13240W        W81713  32.627   2.255  13.387
13241W        W81714  10.338   1.448   0.883
13242W        W81715  11.226   9.249  12.836
13243W        W81716  31.542  42.012   5.696
13244W        W81717   0.418  19.185  12.415
13245W        W81718   4.700  36.395  12.839
13246W        W81719  15.649  44.981   3.741
13247W        W81720   3.842  29.038   2.689
13248W        W81721  15.324   3.284   3.208
13249W        W81722  21.056  18.160   2.845
13250W        W81723   5.722   8.169   1.273
13251W        W81724  37.955  32.542  11.503
13252W        W81725  15.770   3.296  12.504
13253W        W81726  10.780  35.494  11.543
13254W        W81727   7.880  21.561  11.858
13255W        W81728  34.430  31.044   3.304
13256W        W81729  22.217   7.716  13.807
13257W        W81730   4.330  31.487   1.706
13258W        W81731   8.862  19.223   2.733
13259W        W81732  34.494  16.090   2.258
13260W        W81733  13.130  17.709   4.162
13261W        W81734  34.421  31.610  12.455
13262W        W81735  16.609  30.138  10.922
13263W        W81736  37.428  41.821   5.323
13264W        W81737  40.045  12.629   0.918
13265W        W81738  12.245  33.939  10.414
13266W        W81739  35.051   9.261   1.803
13267W        W81740   3.233  21.246  11.998
13268W        W81741  21.532   6.691   2.773
13269W        W81742  21.613  31.453  12.951
13270W        W81743  14.826  20.563   4.309
13271W        W81744  30.472   8.300  13.315
13272W        W81745   2.331   0.297  10.499
13273W        W81746  13.154   7.685   3.742
13274W        W81747  26.985  17.166   4.239
13275W        W81748  36.466  23.514  11.566
13276W        W81749  15.749  29.662  12.912
13277W        W81750   3.737  28.947   3.773
13278W        W81751  41.379  33.907  12.840
13279W        W81752   1.269   0.857   1.912
13280W        W81753  15.605  11.184  11.586
13281W        W81754  24.615  38.463   3.774
13282W        W81755  34.937  17.720  13.933
13283W        W81756   1.279  15.639  11.063
13284W        W81757  17.189   9.160   2.248
13285W        W81758  21.235   0.248  11.386
13286W        W81759  25.198  20.099  14.364
13287W        W81760  39.407  19.538  12.839
13288W        W81761  32.072  35.037   5.244
13289W        W81762   2.370  40.317  10.501
13290W        W81763  27.078   5.300   0.748
13291W        W81764   6.704  15.702   1.439
13292W        W81765  14.337   5.770  10.427
13293W        W81766   9.722  40.437   0.849
13294W        W81767  37.568  24.645   1.444
13295W        W81768   4.301  24.578  12.459
13296W        W81769  15.793  27.155   0.793
13297W        W81770  20.697  39.811   2.722
13298W        W81771   6.880  36.084  12.897
13299W        W81772  13.707  25.981   4.308
13300W        W81773  29.662   3.748   0.833
13301W        W81774  33.910  10.672  11.899
13302W        W81775   8.758  40.813  13.433
13303W        W81776  31.038  44.852   3.741
13304W        W81777  22.513   1.739   1.282
13305W        W81778  20.191  13.644  13.050
13306W        W81779  40.424  14.298   4.180
13307W        W81780  19.697  17.672  12.389
13308W        W81781   0.834   2.896   1.290
13309W        W81782  22.683  38.466  10.990
13310W        W81783   4.715  15.316   2.226
13311W        W81784  44.503  15.101  12.502
13312W        W81785  35.055  34.914   4.274
13313W        W81786  19.565  21.664   3.694
13314W        W81787   7.790   2.794  11.417
13315W        W81788  15.284  25.102   3.716
13316W        W81789  38.328  20.666   3.298
13317W        W81790  13.652  10.726   4.740
13318W        W81791  32.483  34.406   1.250
13319W        W81792   5.811  18.600   0.781
13320W        W81793  11.860  36.984   0.880
13321W        W81794   1.395  21.078  12.368
13322W        W81795  31.985  42.972  10.472
13323W        W81796   5.243   4.382   0.452
13324W        W81797   0.343  34.102  10.918
13325W        W81798   1.259   4.926  12.893
13326W        W81799  12.793  17.230  14.982
13327W        W81800  36.474  39.502   3.861
13328W        W81801   2.344   4.853   0.753
13329W        W81802   6.746   3.866   0.803
13330W        W81803   5.296  43.812  12.854
13331W        W81804   0.427  43.452   4.264
13332W        W81805  32.468  38.489  13.438
13333W        W81806  15.273  11.689  14.301
13334W        W81807  17.231   4.260   1.297
13335W        W81808  30.036   4.938   4.639
13336W        W81809  26.542  29.631  14.926
13337W        W81810   3.925  27.990   0.784
13338W        W81811   9.713  37.001  14.939
13339W        W81812  13.128  20.193  10.628
13340W        W81813  30.587  44.370  10.942
13341W        W81814  24.594  36.506   3.234
13342W        W81815  44.866  10.351   1.862
13343W        W81816  19.067  15.780   2.300
13344W        W81817  19.098   4.396   1.750
13345W        W81818  39.018  33.493   0.326
13346W        W81819  15.214  20.124   4.160
13347W        W81820  11.649  44.339   2.197
13348W        W81821  28.548  24.995  12.556
13349W        W81822  41.402  44.876  11.532
13350W        W81823   8.387  24.698   3.821
13351W        W81824   0.370  20.660  13.987
13352W        W81825  26.648   9.168  10.533
13353W        W81826  10.213   1.905   1.433
13354W        W81827   8.747  13.339   4.330
13355W        W81828  29.011  16.158  11.533
13356W        W81829  44.384   1.961  12.000
13357W        W81830  25.187  43.301   3.755
13358W        W81831  16.117  12.261   0.954
13359W        W81832  17.667  41.795   0.418
13360W        W81833   9.302   6.254   2.770
13361W        W81834  39.316  40.495   0.250
13362W        W81835  21.583  10.674  12.387
13363W        W81836  14.266  32.996   4.274
13364W        W81837   1.339   4.728   3.345
13365W        W81838  22.155  31.002   1.846
13366W        W81839  41.885  41.419  11.438
13367W        W81840  36.583  12.684   4.776
13368W        W81841  30.643  19.758   4.791
13369W        W81842  20.053  24.186  13.909
13370W        W81843   4.805  32.925  14.323
13371W        W81844  18.554   1.869  13.358
13372W        W81845   8.841  34.505   1.721
13373W        W81846  31.403  28.056  13.317
13374W        W81847  35.874  19.747  13.392
13375W        W81848  22.217   9.859  12.926
13376W        W81849  22.707  31.952  14.957
13377W        W81850  16.083  30.584  11.865
13378W        W81851  22.630  34.072   1.863
13379W        W81852  32.543  24.107   0.928
13380W        W81853  23.139   8.754   3.772
13381W        W81854  36.972  21.204   2.860
13382W        W81855   2.936  25.504   4.132
13383W        W81856  22.504   7.407   0.345
13384W        W81857  28.061  30.127  11.125
13385W        W81858  38.075  42.855   1.336
13386W        W81859  36.847  26.683   2.407
13387W        W81860  40.997  39.476   3.808
13388W        W81861  24.985   7.802  14.816
13389W        W81862   1.887  26.536   3.210
13390W        W81863  16.187  43.867  14.507
13391W        W81864  38.909  41.932  14.445
13392W        W81865  12.707  11.639  13.011
13393W        W81866  34.962  22.996   2.343
13394W        W81867  12.346  23.201  12.563
13395W        W81868  26.050  28.135  13.523
13396W        W81869  21.586  29.453  13.536
13397W        W81870  44.948   1.239   4.787
13398W        W81871  21.559  13.702  14.005
13399W        W81872  35.008  27.457   1.928
13400W        W81873  37.380  13.210  12.515
13401W        W81874  43.965   5.872  11.544
13402W        W81875  19.722  39.955  13.040
13403W        W81876  44.309  22.606  11.429
13404W        W81877  15.114  39.986  10.539
13405W        W81878   5.892  37.337  13.866
13406W        W81879  36.384   2.264   4.832
13407W        W81880   3.324  33.973  12.513
13408W        W81881  30.443   7.846   3.712
13409W        W81882   1.896  38.851  14.291
13410W        W81883  39.877  38.363   0.285
13411W        W81884  25.471  35.863   2.253
13412W        W81885  28.142  27.043   4.830
13413W        W81886  29.098  41.953   0.317
13414W        W81887  32.996  14.813   2.892
13415W        W81888  14.764   7.688  13.326
13416W        W81889  29.574  34.974  12.903
13417W        W81890  16.762  43.780  14.455
13418W        W81891  25.577  31.486  14.895
13419W        W81892  43.908  24.174   1.734
13420W        W81893  27.691  42.303  12.066
13421W        W81894  41.882  44.000   4.178
13422W        W81895  16.307  15.637  12.082
13423W        W81896   8.244  30.946   1.853
13424W        W81897   2.371  43.768   1.775
13425W        W81898   7.880   3.226   5.268
13426W        W81899   0.934   8.799  12.939
13427W        W81900  23.152  12.808  13.038
13428W        W81901  38.362  42.385  12.435
13429W        W81902   8.722  19.614   4.685
13430W        W81903  13.263  16.671  14.882
13431W        W81904  43.513  10.241   0.765
13432W        W81905  30.064   4.903   3.386
13433W        W81906  12.688  30.120   3.229
13434W        W81907   2.831  42.776   2.680
13435W        W81908  11.288  41.906   4.744
13436W        W81909  37.056  26.962  14.476
13437W        W81910  29.098   5.688  12.069
13438W        W81911  27.566  40.330  14.975
13439W        W81912  27.589  34.461  14.511
13440W        W81913  12.238  21.570   3.730
13441W        W81914  35.883  44.855   2.802
13442W        W81915  19.265   1.871  13.542
13443W        W81916  33.610   5.428   0.930
13444W        W81917  19.739  41.982  12.090
13445W        W81918   1.762  44.800   2.819
13446W        W81919  20.677  36.971   2.200
13447W        W81920  28.607  10.356  10.552
13448W        W81921  43.449  22.061  12.944
13449W        W81922   7.799  44.847  12.547
13450W        W81923  43.275   7.833  14.969
13451W        W81924  42.375   1.316  11.026
13452W        W81925  10.260  17.162  13.991
13453W        W81926  10.229  27.160   2.718
13454W        W81927  33.416   9.223   9.939
13455W        W81928  32.988  26.985  12.424
13456W        W81929  12.186  10.767  13.920
13457W        W81930  28.987  15.106   3.200
13458W        W81931   8.275  43.980  10.643
13459W        W81932  26.492  16.594   0.343
13460W        W81933  38.473  16.257   4.138
13461W        W81934  42.514  30.580   2.711
13462W        W81935  42.956  38.985  12.975
13463W        W81936  21.600   6.756  10.583
13464W        W81937  41.945   5.793   4.726
13465W        W81938  10.199  37.971   1.895
13466W        W81939   9.850  21.642  13.924
13467W        W81940  10.741  31.512   2.259
13468W        W81941  10.780  10.189  11.006
13469W        W81942  31.940  13.762  14.915
13470W        W81943  18.699  20.194   0.737
13471W        W81944   2.860  26.522   4.693
13472W        W81945  10.830   9.229   2.706
13473W        W81946  13.843  29.493   1.418
13474W        W81947  10.271  13.602   2.697
13475W        W81948   6.692  37.901   1.771
13476W        W81949  33.888  26.518  11.022
13477W        W81950  16.118  29.931  12.962
13478W        W81951  33.446  18.192  10.068
13479W        W81952  36.479  30.954   2.355
13480W        W81953  15.191  12.768   3.341
13481W        W81954  33.445  12.812  14.310
13482W        W81955  29.578  44.856   3.675
13483W        W81956  29.039  11.840   3.384
13484W        W81957  23.027  27.586  11.005
13485W        W81958   6.917  41.008   2.356
13486W        W81959  35.500  43.839  14.861
13487W        W81960  38.555  23.503   3.740
13488W        W81961  40.461  36.894  14.877
13489W        W81962  38.367  42.420   3.257
13490W        W81963  12.221  23.725  12.966
13491W        W81964  27.486  17.751   2.727
13492W        W81965  33.993   6.200  14.792
13493W        W81966  37.346   8.239   0.419
13494W        W81967   7.234   6.793  14.782
13495W        W81968  41.382  39.380   0.820
13496W        W81969  21.637  28.504  12.974
13497W        W81970  15.649  33.915   0.310
13498W        W81971  16.192  12.266  14.765
13499W        W81972  29.645  15.643   2.360
13500W        W81973  10.653  43.975   4.163
13501W        W81974  38.444   6.907  13.400
13502W        W81975  21.185  24.080  10.581
13503W        W81976  35.947   0.793   0.450
13504W        W81977   5.733  27.558  13.319
13505W        W81978  40.054  38.429   1.875
13506W        W81979  38.995  18.737  10.466
13507W        W81980  12.179  14.200   0.276
13508W        W81981   8.345  30.959  12.036
13509W        W81982  20.183  30.526  10.151
13510W        W81983  21.068  34.373   2.880
13511W        W81984  33.100  38.931  11.509
13512W        W81985  24.607   5.352   4.655
13513W        W81986  40.367   5.208   0.410
13514W        W81987  27.080  43.915  12.569
13515W        W81988  36.998  11.693  14.776
13516W        W81989  18.635  35.526   4.745
13517W        W81990  16.776  33.112  11.899
13518W        W81991   2.803  31.043   1.798
13519W        W81992   0.796   8.864  14.487
13520W        W81993   3.710  39.461   0.345
13521W        W81994  36.090  40.524  11.602
13522W        W81995  13.279  15.705  14.977
13523W        W81996  25.202  12.842  11.095
13524W        W81997   2.355  38.335   4.817
13525W        W81998  21.696  10.775   4.352
13526W        W81999   6.423  21.126  12.388
13527W        W82000   8.854   8.194   3.699
13528W        W82001  43.987   7.865   0.950
13529W        W82002   2.294  15.155  10.506
13530W        W82003  14.105  38.440   5.647
13531W        W82004  33.476  39.888  14.856
13532W        W82005   5.218  40.451   3.631
13533W        W82006  25.642  16.280  14.305
13534W        W82007  18.666  17.651  11.992
13535W        W82008  44.324  13.126   1.769
13536W        W82009  13.631  10.382  12.367
13537W        W82010  24.009  19.691  14.455
13538W        W82011  13.734  26.580   1.886
13539W        W82012   7.889   6.279   2.242
13540W        W82013   3.927  22.672  12.909
13541W        W82014  10.183  40.548   9.941
13542W        W82015  10.874  23.008   3.325
13543W        W82016  13.613  25.113   0.338
13544W        W82017  15.207  16.810  11.372
13545W        W82018  14.817  31.644  13.492
13546W        W82019  16.744  28.137  12.528
13547W        W82020  12.683  36.986   2.350
13548W        W82021   8.836  11.638   1.934
13549W        W82022  43.286  37.528   4.237
13550W        W82023  21.554   1.418  13.444
13551W        W82024  33.626  26.631   4.610
13552W        W82025  28.641  10.878   1.807
13553W        W82026   3.337  34.096  11.566
13554W        W82027   9.346  16.209   2.662
13555W        W82028  44.937  23.693  11.507
13556W        W82029  38.869  24.977  13.357
13557W        W82030  37.937  30.910   2.322
13558W        W82031  25.033  41.382  14.305
13559W        W82032  31.627  17.099   3.676
13560W        W82033  42.870   3.827  12.996
13561W        W82034  11.167  14.203  14.947
13562W        W82035  43.482  19.174  13.943
13563W        W82036  13.251  36.883   4.613
13564W        W82037  14.654  44.825  12.568
13565W        W82038   3.440  42.007   4.127
13566W        W82039   8.231  27.540   4.321
13567W        W82040  18.584   4.853   1.424
13568W        W82041  38.899   7.823   3.227
13569W        W82042   2.919  21.081  12.065
13570W        W82043  43.484  13.843  11.547
13571W        W82044  40.304   9.805  12.363
13572W        W82045  23.526  27.670   1.271
13573W        W82046  25.996  10.803   2.283
13574W        W82047  25.475  30.527  11.499
13575W        W82048  13.274  14.280   3.738
13576W        W82049  41.418  15.083   2.332
13577W        W82050  38.959  44.900  10.995
13578W        W82051   3.903  40.473  13.845
13579W        W82052   1.853   9.374  11.111
13580W        W82053  29.564   6.778  11.377
13581W        W82054  15.156  31.029   2.826
13582W        W82055  39.824  15.643   1.257
13583W        W82056  25.598  43.324  12.027
13584W        W82057  25.587  38.886   0.334
13585W        W82058  12.635   4.729  12.896
13586W        W82059  18.155  32.071   0.912
13587W        W82060   6.837  23.071   2.680
13588W        W82061   0.783  38.924  14.300
13589W        W82062  27.008  21.548   2.206
13590W        W82063  22.646  33.492  14.849
13591W        W82064  22.547  14.281  13.898
13592W        W82065  43.271   3.867   2.244
13593W        W82066  42.421  43.347  14.833
13594W        W82067  35.955  32.012  12.981
13595W        W82068  39.034  33.131   2.287
13596W        W82069   7.173  37.993  12.418
13597W        W82070  31.624  25.637  13.039
13598W        W82071  15.201  28.649  11.577
13599W        W82072  29.601  15.578  10.424
13600W        W82073  29.036  24.711   0.384
13601W        W82074  25.695  39.867   3.152
13602W        W82075  23.015  15.136  12.988
13603W        W82076  14.118  34.483  12.450
13604W        W82077  29.104  40.014   1.271
13605W        W82078  19.630  35.452   1.744
13606W        W82079  13.719  41.482  14.382
13607W        W82080  41.852  30.428  11.056
13608W        W82081   3.802   6.799   2.381
13609W        W82082  43.323  17.762   3.306
13610W        W82083  31.023  39.830  14.845
13611W        W82084  10.632  38.532   4.744
13612W        W82085   5.243   1.872   0.364
13613W        W82086  25.020  36.499  11.482
13614W        W82087   6.231   3.843  13.372
13615W        W82088  36.394  21.590  12.533
13616W        W82089  12.718   9.644  10.913
13617W        W82090  40.451  21.550   2.866
13618W        W82091  11.694   2.371   2.306
13619W        W82092  36.560  22.054   2.380
13620W        W82093   5.894  30.495   2.864
13621W        W82094  22.177   2.251   0.477
13622W        W82095  16.667  36.455   1.870
13623W        W82096   7.789   9.681   2.821
13624W        W82097  27.107  41.968   1.879
13625W        W82098  36.061   0.320  10.635
13626W        W82099   2.464   3.934   2.865
13627W        W82100   0.940  41.959   0.420
13628W        W82101  35.538   5.419  12.012
13629W        W82102   0.832  34.915   0.801
13630W        W82103  33.412  32.529   1.837
13631W        W82104   6.905  40.532  12.364
13632W        W82105  30.414   3.415  12.921
13633W        W82106   7.202  37.414   1.889
13634W        W82107  22.549  32.508   4.202
13635W        W82108   3.345  33.056  14.321
13636W        W82109  34.383  32.485   4.684
13637W        W82110  44.905  15.663  12.489
13638W        W82111  10.861  31.465   1.824
13639W        W82112  29.039  41.942  11.430
13640W        W82113  27.478  40.971  12.376
13641W        W82114  10.145  29.017  12.371
13642W        W82115  37.474   4.385  11.611
13643W        W82116  34.505  44.395   1.239
13644W        W82117  35.011  29.928  10.890
13645W        W82118  18.069  22.575  12.858
13646W        W82119  30.053  24.150   1.812
13647W        W82120  41.379  35.092   0.748
13648W        W82121  28.933  27.472  12.348
13649W        W82122  24.724  36.888   0.380
13650W        W82123  39.383  11.341   3.678
13651W        W82124  31.622  44.799  11.119
13652W        W82125   4.730  20.152  13.053
13653W        W82126  28.078  30.465   9.975
13654W        W82127   1.751  38.365  14.025
13655W        W82128  41.844  24.480   2.901
13656W        W82129  30.414   7.729  11.561
13657W        W82130   6.187  12.631  10.517
13658W        W82131  33.885  14.819  12.880
13659W        W82132   6.881  12.180   0.453
13660W        W82133   7.714   8.362   2.355
13661W        W82134  34.921  36.924  14.774
13662W        W82135   0.464  35.363   2.261
13663W        W82136  14.317  16.127  10.959
13664W        W82137   3.819   0.418  14.441
13665W        W82138  30.555  12.691   4.225
13666W        W82139   5.898  39.487  13.418
13667W        W82140  36.542  29.646   2.250
13668W        W82141   0.849  14.828  11.539
13669W        W82142  14.266  27.666  14.438
13670W        W82143  38.847   6.725  14.314
13671W        W82144  13.798  16.318  10.925
13672W        W82145  34.387  43.920  10.943
13673W        W82146   6.313  28.998  11.916
13674W        W82147  14.704  35.916  14.901
13675W        W82148  44.490  38.463  11.073
13676W        W82149  10.185  34.086  12.342
13677W        W82150  32.027  31.607  11.408
13678W        W82151  11.287   3.316  12.494
13679W        W82152  10.753  34.969  10.159
13680W        W82153  17.171   3.453   2.271
13681W        W82154   1.434   4.699   1.301
13682W        W82155  21.725  36.541   2.858
13683W        W82156  16.712  22.632  14.451
13684W        W82157  40.972  39.003   4.344
13685W        W82158   5.399  15.712  12.543
13686W        W82159  28.939  15.743   3.383
13687W        W82160  20.161  26.533  14.450
13688W        W82161  38.536  10.177  10.995
13689W        W82162  29.155   3.238  10.447
13690W        W82163   6.770   9.804   1.427
13691W        W82164  42.853  33.602   2.857
13692W        W82165  20.726   3.766   2.745
13693W        W82166   9.834  17.596   3.336
13694W        W82167  43.431  13.285  11.023
13695W        W82168   8.850  22.203  14.890
13696W        W82169  31.005  35.941  13.819
13697W        W82170   9.151  40.944   3.870
13698W        W82171  14.748  42.908  11.454
13699W        W82172  10.151   5.719  11.965
13700W        W82173   7.233  35.938  11.070
13701W        W82174  10.327  20.183   2.181
13702W        W82175  18.625  41.464   2.695
13703W        W82176   3.252  34.611  12.069
13704W        W82177   7.240  39.516   1.272
13705W        W82178  38.017  33.908  13.840
13706W        W82179   3.843  30.093   4.151
13707W        W82180  32.555  15.604   4.690
13708W        W82181  42.307   0.300   1.389
13709W        W82182  41.344  40.352   1.214
13710W        W82183  30.009   5.909  14.333
13711W        W82184  17.111   6.801   4.349
13712W        W82185  22.629  12.616   0.283
13713W        W82186  18.249  36.463   4.271
13714W        W82187  26.703  31.022  13.845
13715W        W82188  21.031  26.490  11.028
13716W        W82189  35.026  24.493   0.396
13717W        W82190  40.820  36.094  13.039
13718W        W82191   8.855  12.280   1.928
13719W        W82192  35.031  21.178  14.935
13720W        W82193  32.474  31.965  10.545
13721W        W82194  39.330  14.761   0.827
13722W        W82195  34.890  37.438   2.738
13723W        W82196  32.503  22.516  12.573
13724W        W82197  28.034  23.576   0.967
13725W        W82198  33.973  37.439  14.940
13726W        W82199  35.455  30.483   4.765
13727W        W82200  12.815   6.796   3.656
13728W        W82201  38.447  42.993  11.939
13729W        W82202   2.291  29.990   1.899
13730W        W82203   8.793  19.143   3.148
13731W        W82204   7.340  18.582  13.534
13732W        W82205  41.293   4.901   0.350
13733W        W82206   4.783   6.224  14.942
13734W        W82207  31.967   7.337  14.313
13735W        W82208  17.069  20.174   1.802
13736W        W82209  41.313   3.297  12.943
13737W        W82210  25.144  37.383   3.261
13738W        W82211  36.900  31.558   1.395
13739W        W82212  26.199   5.380   4.241
13740W        W82213   4.277   4.701   5.203
13741W        W82214  30.593   6.919  13.900
13742W        W82215  26.522  26.488  14.335
13743W        W82216  20.556  38.013  13.540
13744W        W82217  44.444  39.007  11.037
13745W        W82218  24.200  34.866   0.912
13746W        W82219  10.200  27.579   3.186
13747W        W82220   8.244   7.221  10.406
13748W        W82221  37.066   2.752  10.642
13749W        W82222  12.840  36.545  13.918
13750W        W82223   4.757   1.900  12.910
13751W        W82224  20.273   8.723   1.890
13752W        W82225  37.486  18.090   3.693
13753W        W82226   7.740  37.870  12.826
13754W        W82227  44.795  20.135  11.928
13755W        W82228  23.113  22.672   0.822
13756W        W82229   7.880   4.905   3.236
13757W        W82230   7.361  28.024   4.609
13758W        W82231  29.005  42.339   3.676
13759W        W82232  31.906   2.443   2.371
13760W        W82233  25.080   2.319   3.209
13761W        W82234   6.856  33.585  12.049
13762W        W82235  30.659  15.157  14.789
13763W        W82236  19.071   0.904  13.404
13764W        W82237  26.088  12.266   1.447
13765W        W82238  12.639  15.301   4.729
13766W        W82239  36.901  28.511   0.937
13767W        W82240  26.542  25.993   3.207
13768W        W82241  24.692   4.301   2.853
13769W        W82242  17.798  34.563   1.309
13770W        W82243  27.946  37.899   3.346
13771W        W82244   5.895  10.256   2.273
13772W        W82245   6.692  37.924  10.489
13773W        W82246  30.584   2.791  13.464
13774W        W82247  41.358   6.872   2.880
13775W        W82248  21.058  17.117   5.282
13776W        W82249   2.951   1.893  10.974
13777W        W82250  43.446  19.774  13.972
13778W        W82251  34.990   6.882   2.875
13779W        W82252  43.350   6.685   0.263
13780W        W82253  15.168  16.260   0.828
13781W        W82254  20.527  13.800   2.196
13782W        W82255   6.857  25.676   1.383
13783W        W82256   3.376   5.427  10.540
13784W        W82257  14.131   4.257  11.083
13785W        W82258  10.161  34.993  14.898
13786W        W82259  12.641  19.046   2.357
13787W        W82260  17.689  14.163   0.401
13788W        W82261  32.520  32.058  12.961
13789W        W82262  23.536   4.414   2.732
13790W        W82263  15.594   5.431  14.374
13791W        W82264  14.679  13.751   1.709
13792W        W82265  21.546  12.747  14.882
13793W        W82266  12.271   0.776   0.966
13794W        W82267   4.878  22.615  10.612
13795W        W82268  10.371  27.109  12.907
13796W        W82269   7.185  12.744  11.095
13797W        W82270  27.662  25.185  11.467
13798W        W82271   7.688  43.453   3.863
13799W        W82272  21.512  25.574  12.025
13800W        W82273  42.363  38.517  11.477
13801W        W82274  27.014  23.553   2.256
13802W        W82275  29.920  29.139   0.478
13803W        W82276   6.818  36.913  10.587
13804W        W82277   1.939  12.738  12.465
13805W        W82278   1.751  24.702   4.692
13806W        W82279  14.708   9.872   1.343
13807W        W82280   3.460  16.777  13.826
13808W        W82281  26.525  25.671  14.448
13809W        W82282  24.585  27.037   3.357
13810W        W82283   5.904  35.581  12.029
13811W        W82284  13.724   9.763   0.419
13812W        W82285  12.295  41.876   1.214
13813W        W82286   0.847   5.392  13.368
13814W        W82287  43.866  17.098   4.683
13815W        W82288   3.269  20.662  14.388
13816W        W82289  44.462  23.102  12.566
13817W        W82290  19.768  30.974  13.334
13818W        W82291  35.501  23.051  12.085
13819W        W82292   9.881  41.525   1.390
13820W        W82293  34.011  39.338  13.369
13821W        W82294  27.653  43.322  12.945
13822W        W82295  30.595  33.380  14.903
13823W        W82296  41.408  16.722   0.759
13824W        W82297   6.203   8.331  14.335
13825W        W82298   8.717  36.452  13.366
13826W        W82299  13.251  18.170   3.221
13827W        W82300   5.907  44.359  10.908
13828W        W82301   6.352   2.950  11.927
13829W        W82302  25.077   7.710   1.325
13830W        W82303  22.536   5.719   1.872
13831W        W82304  12.140   5.798   4.139
13832W        W82305   5.283   6.692  11.882
13833W        W82306  16.669  14.317  12.959
13834W        W82307   8.196  40.858  10.505
13835W        W82308  14.762  43.366   2.411
13836W        W82309  36.551  11.130   0.739
13837W        W82310  41.913  24.623  11.114
13838W        W82311  23.123  31.556   3.687
13839W        W82312  27.141   0.380  14.849
13840W        W82313  30.927   3.346   2.302
13841W        W82314  33.006  41.415  14.374
13842W        W82315   4.252  10.254   0.813
13843W        W82316   6.384  32.465  10.442
13844W        W82317  27.500   1.745   3.252
13845W        W82318   7.410  28.543   0.860
13846W        W82319  31.074  16.113  12.847
13847W        W82320   6.229  21.748   3.706
13848W        W82321  13.275  35.404   1.760
13849W        W82322   3.250  42.944  14.762
13850W        W82323  27.988  39.972   0.964
13851W        W82324  28.600  12.151  14.802
13852W        W82325  13.279  24.138  10.436
13853W        W82326  41.526  11.302   2.750
13854W        W82327  14.161  17.636   0.371
13855W        W82328   8.365  18.191   0.465
13856W        W82329   6.731  43.828   3.336
13857W        W82330  14.221  16.259  14.493
13858W        W82331  17.110   1.396  11.597
13859W        W82332  19.266  27.516   3.368
13860W        W82333  40.423  29.424   4.219
13861W        W82334   4.319  36.434   1.891
13862W        W82335  21.027  33.030  11.099
13863W        W82336   7.347  18.052  14.835
13864W        W82337  33.532  35.978   9.996
13865W        W82338  41.929  27.536   4.628
13866W        W82339  30.635  41.355  12.968
13867W        W82340  33.983  29.080   1.356
13868W        W82341  13.208  32.955   3.850
13869W        W82342  17.597  26.464   1.732
13870W        W82343   7.764  44.961  14.913
13871W        W82344  36.480   3.886   3.196
13872W        W82345  27.676  42.979  12.507
13873W        W82346  33.111   0.298  14.799
13874W        W82347   8.694  22.555  12.920
13875W        W82348  44.999  25.073  13.022
13876W        W82349   4.207  13.166  11.975
13877W        W82350   4.910   9.179   3.234
13878W        W82351  28.481  24.135   2.412
13879W        W82352  30.011  33.940  13.907
13880W        W82353   9.334   5.332  12.569
13881W        W82354  17.658  11.219   4.824
13882W        W82355  39.003  38.943   3.216
13883W        W82356  21.143  18.240  11.606
13884W        W82357  34.472  12.258   1.335
13885W        W82358  13.143  34.113   4.184
13886W        W82359   0.803  17.730   4.139
13887W        W82360  16.158  36.974   0.902
13888W        W82361   2.365  22.711  13.401
13889W        W82362  37.537  44.319   0.809
13890W        W82363  20.048  22.164  12.497
13891W        W82364  41.372  16.742  13.385
13892W        W82365   6.278   0.261  10.113
13893W        W82366  26.183  29.661   4.124
13894W        W82367   1.882  38.468  12.011
13895W        W82368  38.546   1.770   2.896
13896W        W82369   7.308  24.141   5.212
13897W        W82370  41.534  24.178  11.908
13898W        W82371  39.533  13.727  10.615
13899W        W82372  26.043  31.621  12.479
13900W        W82373  42.895  36.846   2.296
13901W        W82374   7.205  19.645  10.546
13902W        W82375   8.893  12.290   4.598
13903W        W82376  25.479  32.584  14.916
13904W        W82377  19.625  36.966   1.373
13905W        W82378  30.416  29.094   1.217
13906W        W82379  19.724  36.587  13.534
13907W        W82380  38.425  18.167  12.942
13908W        W82381  17.127  12.658  11.081
13909W        W82382  34.592  24.218  10.513
13910W        W82383   5.693  40.018   1.764
13911W        W82384   2.385   5.729  13.002
13912W        W82385  37.946   2.810   3.191
13913W        W82386  22.037   5.707  14.310
13914W        W82387  27.038   2.943  14.505
13915W        W82388  41.962  16.123   2.815
13916W        W82389  10.290  35.502  10.924
13917W        W82390   8.872  32.990  10.619
13918W        W82391  23.222  10.755  11.040
13919W        W82392   2.439   4.235  11.928
13920W        W82393  24.548   6.922   1.745
13921W        W82394  19.726  12.242   3.637
13922W        W82395  16.262  38.031  13.052
13923W        W82396   7.736   3.741   2.871
13924W        W82397   2.751  32.112  12.341
13925W        W82398   7.353  41.920   2.225
13926W        W82399  29.986   5.800  11.076
13927W        W82400  32.132   5.704  14.992
13928W        W82401  12.210   9.187   2.726
13929W        W82402  16.809   0.271   3.281
13930W        W82403   2.399  35.562   2.290
13931W        W82404  39.976  27.116   1.923
13932W        W82405   0.848  23.170  13.913
13933W        W82406  37.940  23.668   0.469
13934W        W82407   4.759  35.928   5.236
13935W        W82408  17.601  10.807  11.954
13936W        W82409  26.107  38.870   2.193
13937W        W82410   2.401  40.544  14.912
13938W        W82411  18.784  32.111  12.005
13939W        W82412  11.215  17.671   4.200
13940W        W82413   6.771  17.779   4.183
13941W        W82414  26.124  22.064   0.898
13942W        W82415  10.650  40.037  14.329
13943W        W82416  40.037   7.283   4.816
13944W        W82417   9.167   0.917   1.255
13945W        W82418  33.099  30.539   0.753
13946W        W82419  18.627  20.034  13.365
13947W        W82420   1.793  11.842  14.875
13948W        W82421  11.328   7.802  11.919
13949W        W82422  15.178   3.395   1.230
13950W        W82423  27.140  30.634  12.870
13951W        W82424  41.369   3.838  11.044
13952W        W82425   3.832   9.775   1.832
13953W        W82426  28.658  15.083   0.745
13954W        W82427  24.139  27.105  13.344
13955W        W82428  34.119  23.568   0.850
13956W        W82429   5.366  23.706   0.829
13957W        W82430  27.513  23.161   2.351
13958W        W82431  19.098  38.004   1.800
13959W        W82432  30.545  40.442   1.776
13960W        W82433  24.566  17.691  13.002
13961W        W82434   3.280  43.374  14.023
13962W        W82435  17.084  24.542  13.477
13963W        W82436  39.963  20.204  14.391
13964W        W82437  18.200   3.257   4.776
13965W        W82438   2.952  10.877  13.863
13966W        W82439  11.693   1.745   4.621
13967W        W82440  35.876  10.695   3.793
13968W        W82441  33.453  31.154  12.495
13969W        W82442  32.509  30.072  11.578
13970W        W82443  12.848   4.737   0.960
13971W        W82444  40.362   6.742  14.436
13972W        W82445  25.159  20.250  13.316
13973W        W82446  26.009  17.558   2.787
13974W        W82447  36.921  17.610   2.319
13975W        W82448  37.509   1.378  13.489
13976W        W82449  27.492  21.741   3.638
13977W        W82450  23.646  11.171  14.958
13978W        W82451  31.087   9.385   4.120
13979W        W82452  17.241  15.654  12.826
13980W        W82453  35.381  28.582  12.453
13981W        W82454  24.507   4.719   3.167
13982W        W82455  23.216  38.513   2.274
13983W        W82456  24.220  28.517   0.361
13984W        W82457  41.436  26.562  10.418
13985W        W82458  28.147  41.397  13.999
13986W        W82459  32.395  27.461   1.421
13987W        W82460   4.347  15.258   4.333
13988W        W82461  33.475  41.032   0.857
13989W        W82462   6.367  31.121   4.647
13990W        W82463   6.421  39.496  14.813
13991W        W82464  44.774  17.258   4.759
13992W        W82465  13.119  18.271  13.327
13993W        W82466  15.253  34.559  10.910
13994W        W82467  11.315  19.170   1.268
13995W        W82468  23.604  25.051   4.207
13996W        W82469   0.378  41.515  13.344
13997W        W82470   9.709   8.829   4.128
13998W        W82471  18.671  27.073   4.351
13999W        W82472  30.990  25.663   2.382
14000W        W82473  17.759  21.025   4.192
14001W        W82474   7.850  10.375  11.546
14002W        W82475  44.282   4.240  13.372
14003W        W82476  34.052  12.136  14.867
14004W        W82477  14.637   9.674   0.351
14005W        W82478  37.461  31.504  12.018
14006W        W82479  23.126  35.461   2.324
14007W        W82480  26.124  25.082  13.402
14008W        W82481  35.378  29.935   1.348
14009W        W82482  30.650  24.125   3.640
14010W        W82483  33.975  28.167   2.896
14011W        W82484   5.419   9.324  11.503
14012W        W82485   8.324   2.757  13.441
14013W        W82486  36.084   1.367  11.923
14014W        W82487   9.854  23.708  11.986
14015W        W82488  27.116  14.339  10.528
14016W        W82489   6.212   6.403  13.886
14017W        W82490  25.574  21.752  10.532
14018W        W82491  28.613   5.439  14.936
14019W        W82492  31.108   9.806   3.297
14020W        W82493  26.676  14.630  12.552
14021W        W82494  18.154  21.184   4.282
14022W        W82495  31.095  19.572   4.179
14023W        W82496   3.292  35.453   1.317
14024W        W82497   2.879  13.323   3.178
14025W        W82498  43.495  39.504  12.979
14026W        W82499   0.329  28.098  13.898
14027W        W82500  32.483  35.533   0.432
14028W        W82501  34.992   8.200  10.486
14029W        W82502  42.337  44.783   2.779
14030W        W82503   5.332  44.474  12.375
14031W        W82504   8.709   8.839  11.478
14032W        W82505   1.938  31.512  12.366
14033W        W82506  12.195  31.108  13.841
14034W        W82507  33.538  29.150   4.690
14035W        W82508  30.954  26.557   5.103
14036W        W82509  23.194  23.491  11.893
14037W        W82510  27.563  29.151  13.852
14038W        W82511  17.099   4.340  12.918
14039W        W82512  41.936  33.555  11.939
14040W        W82513   2.246  15.637   4.729
14041W        W82514  33.478  28.117  13.019
14042W        W82515  30.078   0.947   1.863
14043W        W82516  14.290   4.297  14.931
14044W        W82517  35.419   9.316  14.859
14045W        W82518   1.269  27.077   1.361
14046W        W82519  20.261  41.431   3.373
14047W        W82520  36.059  44.267   2.890
14048W        W82521  37.072  22.065   1.440
14049W        W82522  34.089  14.776  14.462
14050W        W82523  29.978  33.389  11.530
14051W        W82524   1.285  25.974   1.269
14052W        W82525   4.345  44.791   1.308
14053W        W82526  13.306  43.329   3.778
14054W        W82527  17.647  19.592  11.446
14055W        W82528   2.939  30.029   0.407
14056W        W82529  33.979   1.925   3.292
14057W        W82530  16.271  34.432  13.933
14058W        W82531   3.739   3.908   2.183
14059W        W82532  23.034   9.759  13.524
14060W        W82533   7.176   1.398   0.831
14061W        W82534  34.113  28.053   1.429
14062W        W82535  24.540  34.967   2.887
14063W        W82536  34.088  25.697  12.397
14064W        W82537  11.743   4.855   9.920
14065W        W82538  21.205  18.093   4.680
14066W        W82539  17.254  28.522  11.886
14067W        W82540  13.180  18.159   3.865
14068W        W82541  25.507  12.332   4.606
14069W        W82542   8.784  30.039  13.990
14070W        W82543  10.661  15.743   2.214
14071W        W82544   2.931   4.926   3.261
14072W        W82545  11.769  25.106   0.391
14073W        W82546  14.634  23.560  10.474
14074W        W82547   8.190  20.535  13.006
14075W        W82548  36.366  40.429   3.734
14076W        W82549  14.752  14.330   2.194
14077W        W82550   0.405  30.444   0.895
14078W        W82551  37.882  29.973   0.757
14079W        W82552  30.046  27.184   4.636
14080W        W82553   2.413  13.642   2.348
14081W        W82554  10.690   8.885  13.050
14082W        W82555  16.586  28.667  13.446
14083W        W82556  37.947  11.268  12.012
14084W        W82557  30.082  34.543   3.311
14085W        W82558  34.891  36.060   1.726
14086W        W82559  30.126  36.901  12.016
14087W        W82560  26.957   1.892   1.373
14088W        W82561  11.338  17.795  14.357
14089W        W82562  22.683  31.416  13.431
14090W        W82563  15.252  26.191   0.282
14091W        W82564  13.663  25.592  14.767
14092W        W82565  32.097  36.954  12.909
14093W        W82566  14.248  21.147  14.800
14094W        W82567   0.406  39.920   4.317
14095W        W82568  13.201  23.150  11.025
14096W        W82569  27.532  15.184  12.824
14097W        W82570  10.323  30.414   1.818
14098W        W82571  39.882  43.490   1.888
14099W        W82572   3.382   2.923  12.922
14100W        W82573  38.917   8.784   4.796
14101W        W82574  40.874  26.142  13.870
14102W        W82575  16.790  31.141  13.880
14103W        W82576  33.895   9.680  14.408
14104W        W82577  32.466  24.696  10.108
14105W        W82578  44.281   0.886  13.884
14106W        W82579  38.954  30.539  10.591
14107W        W82580   0.357  34.528   3.205
14108W        W82581  28.952   1.345  11.078
14109W        W82582   4.771  10.213   1.377
14110W        W82583  18.776   6.295  14.411
14111W        W82584  42.820  22.534   0.333
14112W        W82585  14.207  28.108   2.378
14113W        W82586  18.725  23.628  13.346
14114W        W82587  43.431  33.602   2.346
14115W        W82588   6.758   2.259  11.865
14116W        W82589   0.968   1.773  11.007
14117W        W82590   9.283   0.748   2.255
14118W        W82591  28.495  41.353  14.811
14119W        W82592  32.585  36.997   4.727
14120W        W82593  11.204  32.917   3.806
14121W        W82594  38.466  13.700  14.910
14122W        W82595  33.409  42.878   0.252
14123W        W82596  30.629  19.076  13.944
14124W        W82597  39.460  18.175  14.785
14125W        W82598  10.358   6.865   2.355
14126W        W82599  23.562  42.471   3.761
14127W        W82600  17.698  13.740  12.985
14128W        W82601  23.145  25.210   9.993
14129W        W82602  12.637  40.047   3.664
14130W        W82603  33.454  27.034  10.509
14131W        W82604  15.758  43.880   4.616
14132W        W82605  22.147  36.092  13.973
14133W        W82606  20.694  14.804  11.557
14134W        W82607  21.177  17.065  13.805
14135W        W82608  29.562  42.874  11.064
14136W        W82609  18.285  37.996   4.133
14137W        W82610  17.614  14.824  10.453
14138W        W82611  29.951  13.348   2.334
14139W        W82612   1.896  25.477  12.346
14140W        W82613  21.104  21.133  11.939
14141W        W82614  25.130  22.530   3.146
14142W        W82615   9.244   2.832   4.782
14143W        W82616  32.999  11.806   4.763
14144W        W82617   8.275  44.316  12.506
14145W        W82618  28.471  29.024  13.439
14146W        W82619  29.654  29.559  12.398
14147W        W82620  41.854  37.987   1.321
14148W        W82621  13.655   4.446  12.918
14149W        W82622  22.159  12.737   0.890
14150W        W82623  32.509  10.253  13.510
14151W        W82624  19.234  37.543   2.348
14152W        W82625  22.041  31.062   2.879
14153W        W82626  34.076  36.540  11.918
14154W        W82627  12.615  21.590   0.332
14155W        W82628  41.914   4.385   3.241
14156W        W82629  18.569   1.311   0.873
14157W        W82630  41.417  40.815  14.937
14158W        W82631   9.724  14.121   3.280
14159W        W82632  20.230  18.214   0.339
14160W        W82633   6.700  18.747  12.459
14161W        W82634  24.223   5.746   1.748
14162W        W82635   9.787  38.545  14.479
14163W        W82636  17.728  26.669   1.242
14164W        W82637  23.110  24.074  14.840
14165W        W82638   1.830   9.711  14.444
14166W        W82639  14.107  42.310  11.380
14167W        W82640  24.172  32.432   2.885
14168W        W82641   0.269  41.936  11.388
14169W        W82642  41.514  34.049   1.335
14170W        W82643  43.823  16.152  10.441
14171W        W82644   7.704  28.641   4.270
14172W        W82645   7.296  28.533   3.870
14173W        W82646   7.784  20.758  13.995
14174W        W82647  25.162  19.153  14.767
14175W        W82648  22.061  43.766   1.759
14176W        W82649  38.454  26.672  13.477
14177W        W82650  28.064   4.391  13.484
14178W        W82651  31.958  12.362  14.360
14179W        W82652  24.636  13.113  13.063
14180W        W82653   1.941   7.760   2.391
14181W        W82654  14.623  20.175   2.837
14182W        W82655  11.233   5.216   0.352
14183W        W82656   0.426  23.170  13.398
14184W        W82657  24.018  26.172   4.758
14185W        W82658  44.366   0.411  10.420
14186W        W82659  25.566  32.016   3.372
14187W        W82660  11.350  17.580   3.700
14188W        W82661   0.464  15.590  11.511
14189W        W82662  38.998   0.470  14.400
14190W        W82663  24.601  12.143  11.109
14191W        W82664  36.453  14.755  14.763
14192W        W82665  36.963  25.634   0.407
14193W        W82666  19.569  16.621   0.740
14194W        W82667   7.713  31.086   2.849
14195W        W82668   8.295   9.162  12.847
14196W        W82669  25.155   1.258   3.842
14197W        W82670  43.817  21.200  10.123
14198W        W82671  40.399  35.591  12.059
14199W        W82672  18.608  24.065   4.141
14200W        W82673  30.453  16.771   3.277
14201W        W82674  24.982   8.345   2.726
14202W        W82675  40.321  22.609   5.258
14203W        W82676  37.869  26.460   2.843
14204W        W82677  18.684  12.765   3.236
14205W        W82678  38.447  42.865   1.291
14206W        W82679  25.668  25.004  10.487
14207W        W82680  10.742   3.277  10.889
14208W        W82681  20.072   6.399   4.159
14209W        W82682   3.320  16.078  13.465
14210W        W82683  25.135   3.945   1.281
14211W        W82684  40.988  38.485   1.738
14212W        W82685  24.185  13.631   5.302
14213W        W82686  20.585   5.337  14.930
14214W        W82687  36.987   7.293  10.494
14215W        W82688  18.621  29.034  11.412
14216W        W82689  10.191   0.373  10.982
14217W        W82690  35.924  28.606  14.021
14218W        W82691  34.021  33.001   4.352
14219W        W82692   8.757  15.299  11.487
14220W        W82693  28.476   9.371   3.286
14221W        W82694  34.399   5.810   2.411
14222W        W82695  12.355  30.043   0.880
14223W        W82696  33.406  11.329  11.519
14224W        W82697  30.970  31.949   2.728
14225W        W82698   4.763  28.638   2.892
14226W        W82699  44.298  31.009  14.986
14227W        W82700  19.275   9.240   1.442
14228W        W82701  18.145   5.238  12.009
14229W        W82702  24.696  12.687  10.510
14230W        W82703  25.067  27.474   0.406
14231W        W82704  17.243  38.454   4.237
14232W        W82705  21.151  32.419   4.113
14233W        W82706  40.976   8.241   0.466
14234W        W82707  33.505  15.609  14.920
14235W        W82708  33.107   8.309  11.009
14236W        W82709   4.302  11.247   0.390
14237W        W82710  24.717   8.162   3.707
14238W        W82711   6.875  15.269   0.245
14239W        W82712  18.733  33.958   3.310
14240W        W82713  26.579  42.328  11.104
14241W        W82714   0.378  24.661   2.867
14242W        W82715   9.749  42.899  12.986
14243W        W82716  32.075  44.348  13.534
14244W        W82717  23.064  16.683  14.373
14245W        W82718  30.532  26.639   3.157
14246W        W82719  12.120  43.413   2.283
14247W        W82720  12.845   3.429  12.896
14248W        W82721  10.694  16.290  14.813
14249W        W82722  20.564  40.022  13.535
14250W        W82723   1.282  41.975   4.136
14251W        W82724   9.158   2.353   3.751
14252W        W82725  21.031  40.024   2.302
14253W        W82726  20.244   5.307  14.850
14254W        W82727  27.027   3.432  11.513
14255W        W82728  42.362   6.413  12.498
14256W        W82729  42.374  11.245   0.922
14257W        W82730  35.530  38.464   3.793
14258W        W82731  18.077  27.155  11.540
14259W        W82732  23.070  15.626  10.627
14260W        W82733  42.883  43.292   0.357
14261W        W82734   8.859   9.298   2.749
14262W        W82735   4.764  30.998   1.256
14263W        W82736  22.710  13.264   3.277
14264W        W82737  27.136  37.022  12.899
14265W        W82738  28.638  37.372   4.318
14266W        W82739  30.110  23.555  13.916
14267W        W82740  43.388  14.774   0.371
14268W        W82741  35.573  29.437   1.782
14269W        W82742   4.258  23.173   0.883
14270W        W82743  12.804  39.366  13.921
14271W        W82744  40.002  23.674  12.972
14272W        W82745  20.569  18.631   4.774
14273W        W82746  40.001  40.485   3.347
14274W        W82747  24.681   9.741   2.712
14275W        W82748   6.817  39.409   3.261
14276W        W82749   2.739   5.863   0.821
14277W        W82750  11.144   0.872  12.927
14278W        W82751  43.397  35.365   3.787
14279W        W82752  24.997  36.362  14.996
14280W        W82753  14.268  36.079  12.366
14281W        W82754   4.230  41.870  10.987
14282W        W82755  20.127   8.233   2.364
14283W        W82756  22.631   0.969  14.846
14284W        W82757  27.077  33.610   1.841
14285W        W82758  19.244  20.267  13.956
14286W        W82759  31.559  36.013  12.384
14287W        W82760  41.512  27.569  13.362
14288W        W82761  40.343   0.823  11.533
14289W        W82762   2.762  39.405   2.181
14290W        W82763  17.150  40.962  11.114
14291W        W82764  21.174  20.698   4.346
14292W        W82765   9.392  19.687   3.195
14293W        W82766  33.538  38.072   3.768
14294W        W82767  18.754  38.378   2.776
14295W        W82768  16.116  28.601  10.971
14296W        W82769   7.896   4.934  11.063
14297W        W82770  21.752  43.915  14.402
14298W        W82771  27.124  14.766   2.272
14299W        W82772  12.170   6.393   1.912
14300W        W82773  25.712   6.364  14.969
14301W        W82774   7.387  34.919  11.578
14302W        W82775  41.477  29.925   1.753
14303W        W82776  10.663  42.835  14.004
14304W        W82777   4.426  41.502   2.359
14305W        W82778  35.036  36.566   4.192
14306W        W82779  43.510   2.966  12.016
14307W        W82780   1.351  20.089   2.190
14308W        W82781   0.463   4.305  14.347
14309W        W82782   5.294  31.051   2.842
14310W        W82783  37.542   1.278   1.828
14311W        W82784  36.959  13.163   3.732
14312W        W82785  39.046  34.978  10.413
14313W        W82786  23.035  16.168  12.854
14314W        W82787  22.575  15.138   9.500
14315W        W82788  23.593   3.798  11.396
14316W        W82789  39.411  44.848   3.715
14317W        W82790  25.606   1.385  13.972
14318W        W82791  24.186  26.549  12.875
14319W        W82792   7.852  30.599   0.823
14320W        W82793  27.486  34.433  14.834
14321W        W82794  22.106  28.665  10.637
14322W        W82795  10.351   4.317   3.652
14323W        W82796   3.946  28.942  13.449
14324W        W82797  27.053  34.918   1.283
14325W        W82798  10.189  44.287   4.308
14326W        W82799  41.820   6.296   3.319
14327W        W82800  14.657  44.866  10.461
14328W        W82801  34.474  10.156   5.168
14329W        W82802  17.730   1.279   1.271
14330W        W82803  37.901  40.997   4.276
14331W        W82804  23.699  28.570  11.519
14332W        W82805  12.231  10.779   4.277
14333W        W82806  22.178   4.342  11.062
14334W        W82807  43.856  19.191  13.058
14335W        W82808  39.033  15.215   2.754
14336W        W82809  37.419  40.407   4.319
14337W        W82810  18.673  15.759   2.823
14338W        W82811  37.044  28.657   0.430
14339W        W82812   4.285   2.879  12.506
14340W        W82813  13.765   7.393   4.658
14341W        W82814  14.181  36.893   4.686
14342W        W82815  36.078  12.362  10.931
14343W        W82816  31.560   4.742   4.293
14344W        W82817  11.627  40.857   4.623
14345W        W82818  15.584  23.010  10.599
14346W        W82819   3.897  16.583   2.194
14347W        W82820  21.071  35.529  12.022
14348W        W82821  10.155  43.932  14.977
14349W        W82822  27.027   8.281   1.422
14350W        W82823  14.813   8.741   3.691
14351W        W82824  38.564   4.929   3.679
14352W        W82825  16.662  24.583   1.221
14353W        W82826  34.571   3.390  14.507
14354W        W82827  41.361  24.490  10.991
14355W        W82828  13.754  13.230   4.721
14356W        W82829  12.227  13.274  13.488
14357W        W82830  32.957  38.541   2.314
14358W        W82831  40.421  23.104  12.949
14359W        W82832   1.881   5.313  11.990
14360W        W82833  35.028  23.707  13.425
14361W        W82834  31.569   3.282  12.416
14362W        W82835  32.972   3.351  14.318
14363W        W82836   1.340  44.764   2.748
14364W        W82837  13.805  44.810  10.962
14365W        W82838  12.663  13.798   1.413
14366W        W82839  17.595  41.420   1.781
14367W        W82840  26.689   2.398   1.413
14368W        W82841  18.703  33.935  11.957
14369W        W82842   0.860  24.656  13.035
14370W        W82843  14.796   2.733   2.822
14371W        W82844   0.459  31.549   0.763
14372W        W82845  22.539  12.813   2.367
14373W        W82846  10.207   5.726   0.423
14374W        W82847  36.080  29.934  12.991
14375W        W82848   1.244  15.701   4.778
14376W        W82849  42.980  12.122  14.802
14377W        W82850   4.724   4.322  13.847
14378W        W82851   4.292  44.471   2.343
14379W        W82852  37.533  28.183  13.479
14380W        W82853  12.686  35.885   1.726
14381W        W82854  18.759  23.003  14.512
14382W        W82855  16.601   7.237   1.280
14383W        W82856  21.018  19.548  13.375
14384W        W82857   6.913  43.484  12.894
14385W        W82858  32.952   0.876  12.556
14386W        W82859   9.248  33.398  12.058
14387W        W82860   7.704  20.243   4.641
14388W        W82861   5.247  30.492  10.899
14389W        W82862  40.513  29.482  11.412
14390W        W82863  31.033  23.113  10.617
14391W        W82864  44.962  30.144  13.414
14392W        W82865  27.190  33.895  10.452
14393W        W82866  31.521  33.469   1.441
14394W        W82867  13.278  19.681  13.465
14395W        W82868   7.805  18.624  12.848
14396W        W82869  33.547  26.203   4.765
14397W        W82870  19.589   9.721   0.365
14398W        W82871   2.256  17.602   3.170
14399W        W82872   6.312  13.682   3.637
14400W        W82873  24.668  40.050  12.366
14401W        W82874  14.684   5.437   4.600
14402W        W82875  25.060   3.893  11.373
14403W        W82876   8.702  11.754   2.328
14404W        W82877  21.680  15.288  13.929
14405W        W82878  28.122  32.473  14.958
14406W        W82879  14.124  31.109   3.183
14407W        W82880  38.983  16.644   2.856
14408W        W82881   2.778  18.619   1.839
14409W        W82882  40.006   6.250   4.235
14410W        W82883   8.849  39.444  13.445
14411W        W82884  24.178  23.060  14.995
14412W        W82885  31.486  43.304  13.472
14413W        W82886  10.313  23.030  10.984
14414W        W82887  42.931  40.473  12.408
14415W        W82888  31.551  33.940  13.493
14416W        W82889  40.483  25.469   2.275
14417W        W82890   3.833  15.221  11.997
14418W        W82891  18.093  29.513  13.313
14419W        W82892  39.391  11.854   3.753
14420W        W82893  35.463   8.199  13.407
14421W        W82894  20.238  27.471  14.827
14422W        W82895   1.374  41.305   3.773
14423W        W82896   7.242  35.854   0.836
14424W        W82897  24.675  41.382  11.973
14425W        W82898   8.222  13.289  14.790
14426W        W82899  19.551   6.884   0.450
14427W        W82900   6.717   3.795   0.316
14428W        W82901  36.886  34.934   4.312
14429W        W82902  10.710  40.892  12.366
14430W        W82903   3.251   4.701   1.317
14431W        W82904  40.039  10.798   4.666
14432W        W82905   6.312  39.392  13.536
14433W        W82906   7.778   7.358   2.801
14434W        W82907  26.100  24.986  14.398
14435W        W82908  19.267   3.885   2.211
14436W        W82909  28.942  35.380   0.360
14437W        W82910  40.868  36.515   4.670
14438W        W82911  30.582  39.402  11.060
14439W        W82912  26.694  16.733  14.302
14440W        W82913   7.908   0.769  11.103
14441W        W82914  10.832  19.634  13.842
14442W        W82915  20.127  21.675  12.025
14443W        W82916   7.181  16.636  14.840
14444W        W82917  23.047  17.723  12.414
14445W        W82918  32.440   3.904   4.767
14446W        W82919   6.919  24.204  14.863
14447W        W82920   2.353  28.596  11.864
14448W        W82921  38.882   0.775   0.910
14449W        W82922  41.919  11.668   3.165
14450W        W82923   1.947   9.313   4.242
14451W        W82924  37.424  26.981  12.080
14452W        W82925   6.808  11.709  13.004
14453W        W82926  32.555  41.342   4.210
14454W        W82927  43.414  11.699   0.837
14455W        W82928   5.265  13.154   0.915
14456W        W82929  10.167  33.905   3.850
14457W        W82930   4.869  27.955   5.138
14458W        W82931  13.771  24.617  11.874
14459W        W82932  10.728  23.237  13.978
14460W        W82933  28.625  14.216  10.526
14461W        W82934  32.029  33.986   2.363
14462W        W82935   1.252  44.268  13.418
14463W        W82936  36.939  31.424  10.609
14464W        W82937  33.625  35.522   2.718
14465W        W82938  16.291  30.413   1.254
14466W        W82939   1.817  33.450   4.704
14467W        W82940  18.605  37.481   4.123
14468W        W82941  21.627  15.777   3.847
14469W        W82942  30.647  22.612  13.482
14470W        W82943  17.131   7.836   2.683
14471W        W82944  23.200  27.072  13.522
14472W        W82945   5.727  38.486   0.480
14473W        W82946  25.079  43.398   2.879
14474W        W82947  35.069   3.440  11.501
14475W        W82948  23.166  14.336  11.084
14476W        W82949  19.195  36.464   2.754
14477W        W82950  44.965  33.610  10.074
14478W        W82951  23.214   1.305  12.922
14479W        W82952  24.039  26.627   9.574
14480W        W82953  19.041  26.649  12.911
14481W        W82954  14.171   0.928  12.563
14482W        W82955   2.904  44.379   2.375
14483W        W82956  32.471   2.936   0.314
14484W        W82957  14.173  14.161  13.995
14485W        W82958  27.949  26.463  12.399
14486W        W82959   5.261  39.971   3.193
14487W        W82960   5.395  14.641  13.420
14488W        W82961  15.107  42.960  14.787
14489W        W82962  17.127  16.191   2.371
14490W        W82963  27.687  25.005  13.929
14491W        W82964  23.067  25.645  12.962
14492W        W82965  35.919  16.723   3.340
14493W        W82966  21.749  30.570  14.844
14494W        W82967  21.244  20.121   1.315
14495W        W82968  26.114  34.579  13.369
14496W        W82969  10.648  25.484   1.713
14497W        W82970  43.332   6.207   1.408
14498W        W82971  35.041  15.150  10.940
14499W        W82972  31.146  30.017  12.422
14500W        W82973  42.899  43.982   9.956
14501W        W82974  10.792  25.152  11.074
14502W        W82975  32.461   1.422  11.606
14503W        W82976   7.757  15.658  11.581
14504W        W82977  15.711  44.497  13.333
14505W        W82978  25.148  32.916  11.025
14506W        W82979  22.527  30.136  14.453
14507W        W82980  23.181   6.697   0.809
14508W        W82981  44.479  26.087   4.787
14509W        W82982  41.969  30.935   3.676
14510W        W82983   9.658   3.914  13.497
14511W        W82984  38.965  29.966  13.842
14512W        W82985  36.954  24.490   0.768
14513W        W82986  25.220  39.825  13.835
14514W        W82987  33.512  34.441   2.834
14515W        W82988  13.280  31.107   0.375
14516W        W82989  15.766   6.823   5.311
14517W        W82990  12.667  25.099   2.316
14518W        W82991   4.752   1.807   0.291
14519W        W82992  38.944  33.553  11.551
14520W        W82993  41.999  34.374   4.668
14521W        W82994   6.791  24.480   4.662
14522W        W82995  14.209  27.979  12.538
14523W        W82996  25.149  13.681  14.299
14524W        W82997   9.376  35.861   3.185
14525W        W82998  23.096  22.505   2.416
14526W        W82999   7.248  21.068   5.248
14527W        W83000  17.064  34.395   0.457
14528W        W83001   1.760  10.813   1.932
14529W        W83002  23.149   6.299  14.446
14530W        W83003  28.077  26.122  10.015
14531W        W83004  16.091  27.950   0.928
14532W        W83005  17.214  24.095  14.344
14533W        W83006  44.802   2.738  11.404
14534W        W83007  21.059  39.403   3.242
14535W        W83008  40.926  11.293   2.711
14536W        W83009  20.207  27.588   3.789
14537W        W83010  28.598  11.865  13.521
14538W        W83011   0.899  10.178  14.901
14539W        W83012   3.321  36.864   4.803
14540W        W83013  10.195  43.317   1.402
14541W        W83014  39.000  30.611   0.274
14542W        W83015  14.095  18.181   1.345
14543W        W83016   8.305   9.253   2.881
14544W        W83017  41.299  30.062  11.862
14545W        W83018  12.305   0.440  14.339
14546W        W83019   4.443  43.492  14.826
14547W        W83020  15.627  42.292  11.516
14548W        W83021   7.365   0.293  12.371
14549W        W83022   7.394  31.049   0.851
14550W        W83023   9.755   9.248   1.888
14551W        W83024  30.089  16.181   0.741
14552W        W83025  22.208   0.833   4.253
14553W        W83026  36.489  18.610  12.395
14554W        W83027  15.709  35.458  12.395
14555W        W83028  25.495  26.602  14.410
14556W        W83029  43.300   3.316  14.316
14557W        W83030  37.389  41.020  11.907
14558W        W83031  10.246  19.282  13.962
14559W        W83032  42.420  13.282   0.956
14560W        W83033  19.758   5.831   2.700
14561W        W83034  35.535  19.281  14.955
14562W        W83035  33.882  38.484   2.413
14563W        W83036  32.011  10.224  11.878
14564W        W83037  15.687  11.853   3.780
14565W        W83038   7.710  13.711  12.455
14566W        W83039   5.380   5.866  11.929
14567W        W83040  22.156  38.897  14.909
14568W        W83041  36.990   0.384   4.227
14569W        W83042   9.184   0.379   4.215
14570W        W83043  37.853  44.480   3.369
14571W        W83044   9.243  10.209  10.431
14572W        W83045   8.198  15.092   0.275
14573W        W83046  41.962   6.387  10.017
14574W        W83047  39.520  26.591  14.009
14575W        W83048  14.170  29.534  13.905
14576W        W83049  11.845  18.257  10.124
14577W        W83050   2.318  32.098  11.861
14578W        W83051  18.293   2.240   0.800
14579W        W83052  33.122  26.159  14.281
14580W        W83053  38.046  40.903  14.500
14581W        W83054  35.443  11.181  13.382
14582W        W83055   8.299   2.409  10.584
14583W        W83056  25.494  10.204   0.936
14584W        W83057  35.445   8.178   0.796
14585W        W83058  38.538  41.807  12.576
14586W        W83059  24.203  30.016  12.901
14587W        W83060  17.606  32.008  13.820
14588W        W83061   9.259   4.230  12.348
14589W        W83062  39.467  11.736   1.367
14590W        W83063  25.526  15.248   1.738
14591W        W83064  24.098  39.385   4.819
14592W        W83065  23.660  26.695  13.343
14593W        W83066  31.017  40.005   0.471
14594W        W83067  27.158   9.201   3.363
14595W        W83068   5.878  28.670  14.891
14596W        W83069   1.733  40.933  14.976
14597W        W83070  25.664  40.362   3.301
14598W        W83071  18.065   1.291  10.975
14599W        W83072  39.425   8.172   4.612
14600W        W83073  28.481  30.483   2.834
14601W        W83074  43.874  35.380   0.917
14602W        W83075  31.093  43.307   1.766
14603W        W83076   9.665   0.329   1.798
14604W        W83077  37.478  19.725  11.469
14605W        W83078   4.321   6.408   4.812
14606W        W83079   8.809  19.632   4.208
14607W        W83080  29.033  18.095   1.265
14608W        W83081   0.977  27.998  13.015
14609W        W83082   8.883  30.433  13.843
14610W        W83083  38.977  34.403   1.356
14611W        W83084   8.243  11.652   4.669
14612W        W83085  27.068  35.411  13.858
14613W        W83086  39.988   1.930   1.396
14614W        W83087  31.101  18.701   1.414
14615W        W83088  29.015   7.670  14.933
14616W        W83089  29.491   1.388   0.374
14617W        W83090  37.457  11.769   4.123
14618W        W83091  33.577  21.191   4.124
14619W        W83092  43.790  32.083   3.176
14620W        W83093  25.062  19.282   2.309
14621W        W83094  21.641  21.227  14.459
14622W        W83095  12.814  18.605   0.845
14623W        W83096   0.319  30.933   3.180
14624W        W83097  24.042  17.169  10.896
14625W        W83098  40.888  42.508  13.496
14626W        W83099  44.940  44.803   2.227
14627W        W83100  34.374  25.161   1.914
14628W        W83101  13.765  38.837   3.852
14629W        W83102  35.462  19.616   2.290
14630W        W83103  32.507   8.744   5.217
14631W        W83104  13.215  34.014  14.368
14632W        W83105  38.037   6.214  12.530
14633W        W83106  35.997  39.323  13.464
14634W        W83107  31.420  44.273  14.001
14635W        W83108  38.373  17.239   1.402
14636W        W83109   3.353   6.764  14.877
14637W        W83110  16.714  40.483   5.113
14638W        W83111  41.874  37.397   4.154
14639W        W83112  39.411  10.178   2.204
14640W        W83113  16.185  12.730  12.494
14641W        W83114   2.370  21.022   1.405
14642W        W83115  20.112   5.929  11.511
14643W        W83116  17.286  43.981  14.390
14644W        W83117   9.747  10.653  14.821
14645W        W83118  38.850   3.388  12.399
14646W        W83119  42.343  34.068   0.285
14647W        W83120  43.393  17.722  14.437
14648W        W83121   0.820  11.337  11.380
14649W        W83122  17.621  14.688  14.475
14650W        W83123  15.746  25.111  12.384
14651W        W83124  40.012  23.553  11.505
14652W        W83125   8.836  28.936  12.074
14653W        W83126  23.605  37.551   2.365
14654W        W83127  29.962  34.368  13.448
14655W        W83128  15.790  34.484  12.432
14656W        W83129  37.355  36.090  11.538
14657W        W83130   3.271  35.999  10.405
14658W        W83131  34.919  32.088  13.445
14659W        W83132   3.826  16.297  14.827
14660W        W83133  31.056  11.702  14.818
14661W        W83134   5.330  18.678   4.726
14662W        W83135  25.507  41.300   2.183
14663W        W83136  15.787  43.852   3.857
14664W        W83137  43.467   0.374  11.060
14665W        W83138  44.329  26.521  13.027
14666W        W83139  19.179  14.165  11.088
14667W        W83140   4.901  32.084  13.910
14668W        W83141   6.384  34.015   3.288
14669W        W83142  14.254   1.349  12.018
14670W        W83143  24.722  16.197  14.364
14671W        W83144  15.243  22.519   0.909
14672W        W83145  31.911  36.012   1.874
14673W        W83146  34.605  33.528   2.280
14674W        W83147   8.673  10.203   5.249
14675W        W83148  36.562  16.774   0.436
14676W        W83149  20.217  36.000   4.182
14677W        W83150  13.605  24.197   2.792
14678W        W83151   9.286  31.097  13.377
14679W        W83152  27.631  42.294  10.954
14680W        W83153  21.061   9.649   4.334
14681W        W83154  13.758  13.243   1.304
14682W        W83155  20.117  20.550  10.573
14683W        W83156  33.411  44.445   0.318
14684W        W83157  20.237  26.606  12.432
14685W        W83158  12.119  15.187   1.387
14686W        W83159  12.653  11.250   4.345
14687W        W83160   6.383  26.004  11.588
14688W        W83161  14.662   5.904  12.485
14689W        W83162  35.597  18.089   2.738
14690W        W83163  20.574  18.081  10.609
14691W        W83164  23.550  19.722   3.373
14692W        W83165   4.922   2.721   1.314
14693W        W83166   9.247  32.139   0.369
14694W        W83167  33.900  26.540   4.784
14695W        W83168  17.150  19.711   0.249
14696W        W83169  39.938  29.010  14.828
14697W        W83170   7.785   2.951  12.399
14698W        W83171   1.363  14.339   1.729
14699W        W83172  34.868  21.020   0.779
14700W        W83173  30.057  16.682  13.810
14701W        W83174   2.401  15.765   0.854
14702W        W83175  33.479  20.563   3.258
14703W        W83176  35.429  13.722   1.451
14704W        W83177  43.940   7.367   3.692
14705W        W83178  24.142  26.609   2.301
14706W        W83179   4.221  26.965   3.832
14707W        W83180   4.218  19.195  14.760
14708W        W83181  19.621  37.974  11.458
14709W        W83182   6.827  24.104   1.731
14710W        W83183   3.920  41.897   0.375
14711W        W83184  22.641  36.592   1.932
14712W        W83185  39.509  11.199  12.045
14713W        W83186  36.529  21.709  13.855
14714W        W83187  38.027  18.059   0.961
14715W        W83188  16.728   1.417  12.378
14716W        W83189  33.441  37.851  13.892
14717W        W83190  43.007  13.750  10.442
14718W        W83191  14.117  18.557   2.760
14719W        W83192  27.052  39.964  14.787
14720W        W83193  30.921  32.423  14.887
14721W        W83194   2.328  21.056   4.259
14722W        W83195  12.237  35.936  11.860
14723W        W83196  42.985  29.921   4.268
14724W        W83197  29.075  41.321  11.527
14725W        W83198  32.628  30.030   0.476
14726W        W83199  11.804  32.026   0.299
14727W        W83200  41.429  26.995  11.395
14728W        W83201  39.326   1.830  12.499
14729W        W83202   4.207  15.666  11.033
14730W        W83203  31.531   8.663  11.563
14731W        W83204  15.711   7.379   3.787
14732W        W83205  26.181   5.359  12.436
14733W        W83206  37.426  38.407   1.825
14734W        W83207  11.747  20.195   3.162
14735W        W83208  39.391  36.087   0.471
14736W        W83209  29.115   1.358   0.418
14737W        W83210   5.217  16.180   5.159
14738W        W83211   3.946  20.565   2.864
14739W        W83212  39.001   3.255  12.975
14740W        W83213  35.035  16.755  10.632
14741W        W83214  25.566  31.531  11.897
14742W        W83215  20.550  23.558  11.936
14743W        W83216  32.122  23.013  14.497
14744W        W83217  17.661  39.460  13.904
14745W        W83218  33.067  32.531  13.477
14746W        W83219   0.307  37.432  12.885
14747W        W83220   1.237  13.172   3.634
14748W        W83221  11.773   7.325   3.279
14749W        W83222  15.193   9.377  11.908
14750W        W83223  12.803  10.204   1.759
14751W        W83224  36.555  22.135  14.376
14752W        W83225  20.144  32.441  12.881
14753W        W83226   7.245  12.812  14.896
14754W        W83227   9.209  37.992  13.387
14755W        W83228  20.577  37.476   4.746
14756W        W83229  25.493  26.007  14.940
14757W        W83230  32.051  12.849   2.799
14758W        W83231  11.640   8.252  11.985
14759W        W83232  25.565  29.581  12.493
14760W        W83233  21.035   3.726  10.583
14761W        W83234  24.489   9.389  10.493
14762W        W83235   6.284  29.137   4.350
14763W        W83236   5.728  14.747  11.083
14764W        W83237   1.952   5.255   3.342
14765W        W83238  41.810  25.607   4.654
14766W        W83239  35.467  19.753   3.702
14767W        W83240   7.189   8.357   2.334
14768W        W83241  14.765  32.117  11.086
14769W        W83242  19.272  22.183  14.333
14770W        W83243  36.973  12.683   0.483
14771W        W83244   7.857   0.944  13.900
14772W        W83245  32.103  30.974  12.463
14773W        W83246   3.796  11.273  11.859
14774W        W83247  43.990  12.317  10.443
14775W        W83248  37.517  28.516  10.632
14776W        W83249  24.161   7.187   3.328
14777W        W83250  31.466  23.993  10.515
14778W        W83251  44.779   5.402  11.876
14779W        W83252  28.992   8.254   4.148
14780W        W83253  24.226  18.721   2.689
14781W        W83254  11.843   2.245  10.487
14782W        W83255  44.487  13.612  10.056
14783W        W83256  29.933  32.472  10.907
14784W        W83257  19.617  19.206  11.536
14785W        W83258  16.128  42.366   0.878
14786W        W83259  20.205  39.526  10.595
14787W        W83260   3.928   0.843  14.841
14788W        W83261  20.695  23.711   1.241
14789W        W83262   6.305   8.217  10.594
14790W        W83263  14.807  14.173  14.976
14791W        W83264   5.381   6.822  14.327
14792W        W83265  27.493   0.938  10.427
14793W        W83266  23.577  23.042  11.385
14794W        W83267  22.023  27.679  14.829
14795W        W83268   5.907  16.281   3.778
14796W        W83269   7.380  21.702   3.204
14797W        W83270  26.164   6.380  10.507
14798W        W83271   2.357  23.643   2.183
14799W        W83272  12.738  23.193   1.256
14800W        W83273  22.082  16.111   4.267
14801W        W83274  12.289   8.168  13.541
14802W        W83275  11.686   2.345  13.949
14803W        W83276  31.499  13.276  14.882
14804W        W83277   5.818  43.423   2.892
14805W        W83278  14.618  31.130   2.781
14806W        W83279  12.620  42.407  14.355
14807W        W83280  34.875  40.973   2.785
14808W        W83281  30.597  26.617  12.953
14809W        W83282  43.377  37.472   0.248
14810W        W83283  10.362  36.437  10.952
14811W        W83284  11.844  41.935  13.812
14812W        W83285  32.528  44.368   3.230
14813W        W83286  33.513  28.560  10.099
14814W        W83287  32.924  31.907   4.238
14815W        W83288  32.999   2.822   0.823
14816W        W83289  22.554  35.558  12.965
14817W        W83290  25.130  22.250   4.732
14818W        W83291  22.246   8.397  10.503
14819W        W83292  33.495  18.191   2.237
14820W        W83293  38.941   2.957  10.894
14821W        W83294  27.942  42.930   4.601
14822W        W83295   0.407  12.198  14.946
14823W        W83296  26.490  27.976  13.924
14824W        W83297  26.500   9.743  11.479
14825W        W83298  11.225  18.650  14.818
14826W        W83299  21.031  32.487  14.506
14827W        W83300  41.983   1.889   5.081
14828W        W83301   4.712  35.519   2.406
14829W        W83302  14.818  40.353   3.357
14830W        W83303  43.776  23.133   3.297
14831W        W83304  30.984   0.396   0.370
14832W        W83305  18.736   8.860  13.332
14833W        W83306  38.400   6.219   4.802
14834W        W83307  16.175  20.653   4.800
14835W        W83308  34.590  23.055  14.918
14836W        W83309   8.364  21.144  10.889
14837W        W83310  27.058  18.229   0.352
14838W        W83311  28.575  40.322   0.954
14839W        W83312   1.273  22.022   2.382
14840W        W83313  18.649  43.947   2.248
14841W        W83314  24.178  28.147   0.363
14842W        W83315   6.244   3.310   3.251
14843W        W83316  43.951  42.785  10.589
14844W        W83317   8.782  30.601   4.644
14845W        W83318  41.525  14.158   0.806
14846W        W83319  18.114   4.300   2.775
14847W        W83320  40.013  43.378   4.830
14848W        W83321  11.835   8.345   4.317
14849W        W83322  41.957  42.494   2.362
14850W        W83323  20.199   2.849  11.958
14851W        W83324   4.765   3.246   1.792
14852W        W83325  28.116  14.135  11.542
14853W        W83326  29.015  25.467   1.803
14854W        W83327   3.923  37.990  12.940
14855W        W83328  26.198  33.886  12.494
14856W        W83329  39.358  42.980   3.789
14857W        W83330  43.898  37.377  11.056
14858W        W83331  25.534   9.749   4.203
14859W        W83332  33.509  28.625   1.417
14860W        W83333  36.364  22.585   4.145
14861W        W83334  40.947   3.800   4.231
14862W        W83335  20.695  11.649  10.977
14863W        W83336  44.011  35.885  12.942
14864W        W83337   2.344  25.679  10.584
14865W        W83338  21.665  39.410   0.871
14866W        W83339  33.119  33.027   3.826
14867W        W83340  39.956  15.723  14.290
14868W        W83341   2.812   5.421   0.263
14869W        W83342  40.434   6.240   4.754
14870W        W83343  43.510  29.602   2.262
14871W        W83344  38.901  17.762   0.918
14872W        W83345  22.128   2.943  13.873
14873W        W83346  33.615  35.078  14.801
14874W        W83347   8.392  40.436  11.467
14875W        W83348  18.149  19.553   3.368
14876W        W83349   4.208  17.275   2.724
14877W        W83350   3.783  29.500  13.973
14878W        W83351   7.694  34.406  11.516
14879W        W83352   2.376  33.954   1.422
14880W        W83353  20.219  28.091   4.745
14881W        W83354   9.189   8.828  12.896
14882W        W83355  39.938  22.611  14.331
14883W        W83356   4.326  33.385  10.892
14884W        W83357  23.734  27.502   0.439
14885W        W83358  36.906  15.711  14.292
14886W        W83359   8.330  23.639  13.939
14887W        W83360  23.624  11.629   3.213
14888W        W83361  30.123  17.271   3.788
14889W        W83362   4.399  38.896  10.981
14890W        W83363   5.907  16.713  12.934
14891W        W83364  24.195  18.171   4.320
14892W        W83365  15.710  27.514   1.772
14893W        W83366  10.313  17.242   4.181
14894W        W83367   0.305  10.708   1.832
14895W        W83368  29.470  20.691   0.478
14896W        W83369  10.818   2.277  13.399
14897W        W83370  13.154  27.102  13.350
14898W        W83371  39.986  17.267  13.937
14899W        W83372   1.965  22.551  14.011
14900W        W83373  15.755  12.178  14.503
14901W        W83374   9.263   3.925   2.806
14902W        W83375   4.720  20.666  14.959
14903W        W83376  31.989  30.461   2.191
14904W        W83377  14.763  26.457  10.060
14905W        W83378   2.351  24.496   0.401
14906W        W83379  28.570  27.956   2.202
14907W        W83380  26.093  32.903  13.029
14908W        W83381   8.271  10.706  11.515
14909W        W83382   8.771  24.517   2.194
14910W        W83383  21.725  37.534  14.780
14911W        W83384  19.194  31.536   2.790
14912W        W83385  12.127  11.641   1.278
14913W        W83386  18.673  28.563   3.260
14914W        W83387   2.820  25.576  14.992
14915W        W83388  11.333  16.627  14.993
14916W        W83389  35.917  24.221  10.632
14917W        W83390  42.502   7.671   3.854
14918W        W83391   4.363   5.380   0.890
14919W        W83392   5.254   2.756  14.925
14920W        W83393   1.834  40.435   3.288
14921W        W83394  25.068  21.048  11.376
14922W        W83395  37.938   3.906  13.991
14923W        W83396   7.386  20.043  13.830
14924W        W83397  12.612  29.013   3.789
14925W        W83398  14.758  18.721  11.602
14926W        W83399  41.944  19.640   4.650
14927W        W83400  19.238  12.849   1.814
14928W        W83401  13.806  26.492   3.735
14929W        W83402  33.930  40.965  14.452
14930W        W83403  19.270  36.430  11.124
14931W        W83404  44.855  21.728   2.387
14932W        W83405   0.856  23.144   1.713
14933W        W83406  10.301  15.148   5.287
14934W        W83407  40.519  28.609   1.356
14935W        W83408  33.077  16.731   0.432
14936W        W83409  40.505  42.914   0.414
14937W        W83410  43.278  13.752  11.941
14938W        W83411  24.119  38.026   4.631
14939W        W83412   6.681  37.479   1.764
14940W        W83413  35.973   2.227   0.480
14941W        W83414  40.444  34.048  12.391
14942W        W83415  13.292  32.571  13.351
14943W        W83416  21.758  33.594  10.909
14944W        W83417  24.226  36.432   3.365
14945W        W83418  12.754  30.564   3.171
14946W        W83419  41.489   3.282  10.626
14947W        W83420  20.561  32.519  12.872
14948W        W83421  38.377  42.870  13.544
14949W        W83422  10.670   5.314  13.395
14950W        W83423   3.282  21.714  14.283
14951W        W83424   4.928  33.576  11.866
14952W        W83425   6.805   2.355   1.425
14953W        W83426  40.948  16.619  11.090
14954W        W83427  24.059  33.125   1.358
14955W        W83428  23.103  43.767  14.993
14956W        W83429  40.331   0.897  13.332
14957W        W83430  20.619  10.272   1.820
14958W        W83431  17.761  10.142   0.961
14959W        W83432   9.156  12.831   1.416
14960W        W83433   2.933  24.627   0.315
14961W        W83434  34.459   2.356   0.825
14962W        W83435  19.561  28.656  14.858
14963W        W83436  19.757   4.789  14.376
14964W        W83437  15.086   9.213   3.856
14965W        W83438  13.215  35.032  13.522
14966W        W83439  25.189  20.623  10.475
14967W        W83440  44.314  34.419   1.230
14968W        W83441   9.258  38.011  11.543
14969W        W83442  21.653   0.923  14.308
14970W        W83443  27.619  41.518   1.421
14971W        W83444  15.106  10.858   0.814
14972W        W83445  27.675  31.991  14.778
14973W        W83446   4.850  12.318   0.308
14974W        W83447  20.630  18.223   0.949
14975W        W83448  33.130  39.052   1.417
14976W        W83449  24.587  41.494   0.390
14977W        W83450   1.948  28.989  10.951
14978W        W83451   1.883   2.925   0.393
14979W        W83452  40.966  29.657   3.318
14980W        W83453  25.554  44.392  14.895
14981W        W83454  40.395   3.712  11.394
14982W        W83455   6.730  13.241   5.130
14983W        W83456  36.363   2.917   0.329
14984W        W83457  29.151   0.840   2.226
14985W        W83458  21.155  26.068   0.953
14986W        W83459  44.934  33.555   1.306
14987W        W83460  34.880  35.437  12.913
14988W        W83461  21.206  20.103  13.417
14989W        W83462   5.926  15.133   2.810
14990W        W83463  14.610   9.802  11.077
14991W        W83464  27.193  11.341  13.856
14992W        W83465  10.172  24.637   2.771
14993W        W83466  44.850   6.419  12.010
14994W        W83467   6.788  27.645  10.991
14995W        W83468   3.320  34.042  12.057
14996W        W83469   4.904  41.985  11.387
14997W        W83470  43.932  44.008  11.405
14998W        W83471  34.568   3.225   1.243
14999W        W83472  41.008  25.621  10.899
15000W        W83473  36.956   0.981   1.378
15001W        W83474   4.311  41.476   2.874
15002W        W83475   6.841  16.116   9.663
15003W        W83476  26.955  31.458  11.422
15004W        W83477  11.760  27.579  14.377
15005W        W83478   9.279  26.669  10.463
15006W        W83479  44.897  14.132   0.323
15007W        W83480  37.504  34.593   2.705
15008W        W83481  40.045  40.007  11.054
15009W        W83482  25.708  23.033   1.859
15010W        W83483   7.347  12.662   1.339
15011W        W83484  25.596  40.940   1.217
15012W        W83485  12.177  14.331  14.794
15013W        W83486  29.036   8.830  14.319
15014W        W83487  10.649  26.176   1.278
15015W        W83488  28.559  14.151  12.881
15016W        W83489  31.936  29.626   2.210
15017W        W83490   3.266  38.566   1.384
15018W        W83491  17.085  15.223  10.971
15019W        W83492  25.594   7.388  11.409
15020W        W83493  31.519  27.623  10.481
15021W        W83494   6.224  33.026  11.871
15022W        W83495  24.070  37.438  11.890
15023W        W83496  32.512   3.885   0.312
15024W        W83497  22.586  39.376  11.075
15025W        W83498  42.824  29.130  14.309
15026W        W83499  40.012  33.490   4.709
15027W        W83500  41.365  38.892   2.710
15028W        W83501  14.312  31.965   2.839
15029W        W83502  24.617   9.856  12.021
15030W        W83503   8.809  21.633   2.374
15031W        W83504   6.762  22.687   4.715
15032W        W83505  30.069   3.256  10.536
15033W        W83506  35.533  12.217   4.250
15034W        W83507   5.844   3.784  14.383
15035W        W83508  10.272  31.968   0.921
15036W        W83509  43.411  43.449  11.494
15037W        W83510  31.998  16.718  13.025
15038W        W83511  38.001  44.294  10.979
15039W        W83512  42.878   5.242   2.892
15040W        W83513  21.226   2.284  14.898
15041W        W83514   7.726   2.464  11.895
15042W        W83515   7.408  15.165   2.750
15043W        W83516  20.085  19.670  10.002
15044W        W83517  32.059  12.221   3.695
15045W        W83518  10.183  12.682   3.786
15046W        W83519   7.404  43.283   3.715
15047W        W83520  27.678  36.573   4.336
15048W        W83521  12.260  37.866  12.532
15049W        W83522   3.885   3.343   4.719
15050W        W83523  42.346  21.247   3.693
15051W        W83524   2.248   7.716   3.243
15052W        W83525  36.979  38.505  13.987
15053W        W83526   9.812  29.452  14.817
15054W        W83527  19.082   7.187  11.867
15055W        W83528  22.055   7.415   2.270
15056W        W83529  36.538  17.728   0.272
15057W        W83530   3.724  39.523   4.231
15058W        W83531   7.738  14.797   4.632
15059W        W83532  11.632  11.673   1.795
15060W        W83533  11.837  38.465  14.867
15061W        W83534  34.060  24.529   2.380
15062W        W83535  36.593  22.724  11.958
15063W        W83536  20.099  25.987  10.428
15064W        W83537   8.381   3.931  14.817
15065W        W83538   8.376  33.590  13.963
15066W        W83539   1.289  43.935   2.306
15067W        W83540   4.406  12.651  10.571
15068W        W83541  21.583  32.490  12.096
15069W        W83542  35.912   8.299  12.084
15070W        W83543  38.543  18.683  12.884
15071W        W83544   6.301  27.010  12.506
15072W        W83545   9.702  32.565  13.429
15073W        W83546  36.469  11.634   4.711
15074W        W83547  24.570  22.214  12.448
15075W        W83548  20.615  12.733   3.772
15076W        W83549   2.898  24.628   3.304
15077W        W83550  32.964  26.552  10.132
15078W        W83551  19.634   9.349   2.236
15079W        W83552  12.765   0.254  14.287
15080W        W83553  38.472  24.016  12.909
15081W        W83554   6.274  42.456   3.284
15082W        W83555  41.530  20.732  14.977
15083W        W83556   4.843  28.577   5.230
15084W        W83557  33.128  28.123   4.743
15085W        W83558  27.669  25.159   3.184
15086W        W83559  12.699  20.667   0.278
15087W        W83560  30.952  10.708   1.713
15088W        W83561  36.440  39.324   2.258
15089W        W83562  25.696  18.754  10.598
15090W        W83563  16.292  15.684  14.497
15091W        W83564  43.410  10.858  11.023
15092W        W83565   9.661  31.982  13.386
15093W        W83566  18.748  31.108  13.957
15094W        W83567  38.546  15.609  12.860
15095W        W83568   6.738   4.792   0.295
15096W        W83569  12.669  41.801  13.042
15097W        W83570  16.103  23.101   3.245
15098W        W83571   3.353  31.584  13.057
15099W        W83572  11.149  35.495  13.950
15100W        W83573  23.577  33.020   3.268
15101W        W83574   6.320  30.488   2.773
15102W        W83575  12.792  33.033   1.329
15103W        W83576  29.017  10.656  11.940
15104W        W83577  26.571  32.476  14.351
15105W        W83578  26.055  27.455   2.700
15106W        W83579  44.389   6.238   2.768
15107W        W83580   1.258  30.973  10.423
15108W        W83581  40.019  13.324  13.400
15109W        W83582  31.922  35.088   4.777
15110W        W83583  18.098   9.279  14.512
15111W        W83584  15.147   7.234   0.959
15112W        W83585   7.838  17.776  13.962
15113W        W83586   2.317   8.888  10.952
15114W        W83587  10.263   6.808   0.779
15115W        W83588   3.218   7.258   4.330
15116W        W83589  17.611  29.527   2.314
15117W        W83590  31.928   9.344  12.549
15118W        W83591  36.877  43.862  11.042
15119W        W83592  23.510  36.471  12.926
15120W        W83593  14.269   4.748   1.752
15121W        W83594  44.794  14.744  13.830
15122W        W83595  15.328  36.381   3.673
15123W        W83596  25.528  36.068  14.788
15124W        W83597  35.397  13.811  10.446
15125W        W83598  15.221  33.095   0.274
15126W        W83599  13.325  14.774   2.821
15127W        W83600  36.083  11.299   0.814
15128W        W83601  37.530  16.772  13.407
15129W        W83602  21.688  34.492  13.331
15130W        W83603  26.516  43.420   0.282
15131W        W83604  29.629   2.378  12.493
15132W        W83605  14.328  30.617  11.405
15133W        W83606  35.366   2.251   0.410
15134W        W83607  27.570  44.405   4.600
15135W        W83608   9.737  25.145   1.821
15136W        W83609  25.969  24.073  14.959
15137W        W83610  14.110  41.845  13.960
15138W        W83611   2.957  20.112  11.383
15139W        W83612  21.569  16.142  13.319
15140W        W83613  31.910  37.539   4.211
15141W        W83614  16.131  36.506  14.349
15142W        W83615   9.247   1.337  10.561
15143W        W83616  30.907  21.202   1.355
15144W        W83617  34.555  22.224   4.212
15145W        W83618  21.066  21.680  11.467
15146W        W83619  15.203   6.313   1.227
15147W        W83620   9.157   5.718   2.383
15148W        W83621  29.109  28.656  10.551
15149W        W83622  12.264  31.032   1.374
15150W        W83623  18.205  11.728   4.646
15151W        W83624  18.095  34.409   2.314
15152W        W83625  38.052  22.087   3.850
15153W        W83626  21.604   2.930  10.584
15154W        W83627  23.099  28.996  11.045
15155W        W83628   4.848  34.885   0.301
15156W        W83629  19.733  24.554  14.406
15157W        W83630  20.094  36.503   2.677
15158W        W83631  23.644  36.416  11.574
15159W        W83632  13.237   3.947  14.484
15160W        W83633  17.583   4.896   1.828
15161W        W83634  12.353   4.207  13.939
15162W        W83635  38.952  32.487   1.918
15163W        W83636  29.982  23.657   1.915
15164W        W83637  37.547  31.942   1.846
15165W        W83638  20.272  23.563  14.375
15166W        W83639  35.931  38.024  10.894
15167W        W83640  31.617  11.811  14.462
15168W        W83641   1.766   2.346  13.816
15169W        W83642  39.927  12.766  14.444
15170W        W83643  39.003  37.407   2.246
15171W        W83644   4.251  36.935   2.759
15172W        W83645   4.878   3.448   2.708
15173W        W83646   7.892  15.607   3.867
15174W        W83647  22.533   4.768   0.912
15175W        W83648  21.053  21.200   2.226
15176W        W83649  31.048  43.931   4.239
15177W        W83650  34.463  18.197  11.518
15178W        W83651  33.004  28.108  13.950
15179W        W83652   7.755  43.780   4.815
15180W        W83653  43.001   0.797  13.366
15181W        W83654  14.148  33.100  13.006
15182W        W83655  38.855  14.596   0.398
15183W        W83656  31.087  41.449  10.009
15184W        W83657  18.213  43.851   3.178
15185W        W83658  15.167  14.595   0.905
15186W        W83659   6.419   4.848   0.260
15187W        W83660  32.044  21.756   0.287
15188W        W83661  12.240  34.902   2.314
15189W        W83662  43.346  19.221   1.930
15190W        W83663  42.870   5.865   1.354
15191W        W83664  36.892  24.685  12.848
15192W        W83665   6.684  18.293  12.960
15193W        W83666  32.020  25.500  11.108
15194W        W83667  12.649  40.487   3.201
15195W        W83668  15.285  32.101  14.005
15196W        W83669  17.625   0.275   4.138
15197W        W83670   7.317   1.310  10.471
15198W        W83671  31.567  38.842  11.424
15199W        W83672  39.478  22.660  10.621
15200W        W83673  19.676  19.712  11.389
15201W        W83674  27.525   6.734   3.361
15202W        W83675   3.863  43.442  10.927
15203W        W83676  26.088  37.995   4.296
15204W        W83677  33.529  28.608  11.016
15205W        W83678   0.325  39.855  11.996
15206W        W83679  26.608   0.403  13.308
15207W        W83680  12.837  25.148  14.025
15208W        W83681  19.672   2.401   0.461
15209W        W83682  15.628  18.170   9.984
15210W        W83683  19.224  20.659   2.211
15211W        W83684  22.045  30.651  13.399
15212W        W83685  34.913  27.627   1.432
15213W        W83686  13.175  35.932   2.289
15214W        W83687  39.543  12.271   4.229
15215W        W83688  41.941  19.737   1.401
15216W        W83689  42.520   7.750  14.332
15217W        W83690  17.715  22.714   4.637
15218W        W83691  36.038  19.675  12.367
15219W        W83692  35.477  11.813   2.389
15220W        W83693  20.722  22.037   4.796
15221W        W83694  31.925  27.478  14.935
15222W        W83695  32.097  40.019   1.248
15223W        W83696   6.752   6.784   3.867
15224W        W83697  11.211  12.656   3.383
15225W        W83698  20.759  24.553   2.380
15226W        W83699  30.004  31.149   4.761
15227W        W83700  18.705  39.417  11.126
15228W        W83701  24.121  30.060  12.406
15229W        W83702  35.486  30.933  10.589
15230W        W83703  31.976  14.290   0.769
15231W        W83704  12.837  28.087  13.487
15232W        W83705  24.132  18.254   3.191
15233W        W83706  22.091  24.113   3.643
15234W        W83707  33.891   0.785   3.248
15235W        W83708  28.133  17.779   1.415
15236W        W83709   4.395   3.397   1.434
15237W        W83710  44.306  14.251   5.256
15238W        W83711   0.824  30.978   3.758
15239W        W83712  40.854  15.689  13.807
15240W        W83713  13.639  31.570   0.271
15241W        W83714  36.432  29.631  13.060
15242W        W83715   1.331   5.857  11.422
15243W        W83716  16.687  12.262  12.927
15244W        W83717  15.127  36.560  12.508
15245W        W83718  13.825  32.100  11.451
15246W        W83719  16.568  29.654  13.015
15247W        W83720  28.565   5.882   0.281
15248W        W83721  27.552  23.599  14.015
15249W        W83722   7.721   0.447   1.331
15250W        W83723  30.039  15.770  14.933
15251W        W83724   6.677   5.412  11.980
15252W        W83725  12.327  18.069  11.565
15253W        W83726  13.724   0.412  10.947
15254W        W83727  22.690  43.286   2.861
15255W        W83728  23.497   4.359  11.470
15256W        W83729  33.044  35.568  14.491
15257W        W83730   5.195  23.151  11.072
15258W        W83731  27.460  35.428   4.609
15259W        W83732  19.752  15.679  11.427
15260W        W83733  20.754  18.558   3.695
15261W        W83734  20.628  18.219  13.932
15262W        W83735  27.470  33.875   1.342
15263W        W83736  11.192  34.111   5.783
15264W        W83737  13.231   3.304   0.782
15265W        W83738   7.390  39.901  12.576
15266W        W83739  36.968  37.942  13.490
15267W        W83740  29.475  40.415   2.787
15268W        W83741  29.624  38.830  14.312
15269W        W83742  30.062  28.453   3.165
15270W        W83743  22.035  12.777   2.297
15271W        W83744  29.057  15.821   2.686
15272W        W83745   9.859   3.393  14.289
15273W        W83746   7.904  15.149   0.926
15274W        W83747  10.263  15.256  14.960
15275W        W83748  40.052   2.743  11.051
15276W        W83749  15.678   2.724   4.670
15277W        W83750  27.449  41.363  11.567
15278W        W83751  18.615  28.045   0.380
15279W        W83752  39.845   5.243  12.342
15280W        W83753  30.971  38.414   2.292
15281W        W83754  36.081  16.594   1.853
15282W        W83755  34.999  30.471   9.955
15283W        W83756  22.515  43.334   1.240
15284W        W83757  43.835  15.603  14.388
15285W        W83758  24.151  39.862  12.450
15286W        W83759  34.389  25.634   1.888
15287W        W83760  26.659  13.721  14.865
15288W        W83761  32.054  10.296   3.180
15289W        W83762  20.555   2.454  12.930
15290W        W83763  24.003  43.802   3.719
15291W        W83764   4.440  29.027   1.903
15292W        W83765  30.941   0.283   3.755
15293W        W83766  11.739  41.812   1.428
15294W        W83767  23.188  25.690   9.517
15295W        W83768  36.993   2.403  14.956
15296W        W83769  21.612  10.324  11.892
15297W        W83770  13.696  19.695   2.670
15298W        W83771  21.526  42.394  11.897
15299W        W83772  21.727   2.362  10.430
15300W        W83773  35.458  29.444   4.225
15301W        W83774  42.416  34.865   3.809
15302W        W83775  10.336  13.168  14.947
15303W        W83776  25.656  44.841  12.841
15304W        W83777  18.661  28.091  10.440
15305W        W83778   5.368  43.508   1.889
15306W        W83779  40.488  37.972   1.751
15307W        W83780  37.034  31.629  11.063
15308W        W83781   4.302   1.438   1.919
15309W        W83782  33.476  25.153  13.498
15310W        W83783  32.481  17.655   1.342
15311W        W83784  21.679  40.964   0.475
15312W        W83785  40.927   1.854   1.314
15313W        W83786  12.241  16.206  13.991
15314W        W83787   3.760  18.641  12.002
15315W        W83788  28.524  38.551  11.945
15316W        W83789  43.427  14.802   3.818
15317W        W83790  25.513  33.970  11.930
15318W        W83791  33.940  23.126   0.332
15319W        W83792  35.098  14.713   0.854
15320W        W83793  29.921  43.914   2.200
15321W        W83794  35.003  23.528  11.947
15322W        W83795  36.984  21.613  11.039
15323W        W83796  38.068   7.840   0.452
15324W        W83797  23.157  23.209   1.289
15325W        W83798   6.366   5.844  10.948
15326W        W83799  44.868  30.642  12.474
15327W        W83800   9.791  16.807  12.066
15328W        W83801  31.055  26.491  14.854
15329W        W83802  14.749  17.734  12.001
15330W        W83803  15.594   4.843   0.871
15331W        W83804  10.166  17.780  14.388
15332W        W83805   3.336  26.137   1.891
15333W        W83806  42.457  14.694  10.484
15334W        W83807  44.297  11.178   3.366
15335W        W83808  43.326  43.945   4.830
15336W        W83809  41.518  34.478   1.376
15337W        W83810  36.371  41.512  11.110
15338W        W83811   7.193  10.313  12.978
15339W        W83812   1.418  17.228  14.493
15340W        W83813  12.233  16.713   2.238
15341W        W83814  21.734  19.204   3.720
15342W        W83815  31.402  13.210   4.239
15343W        W83816   3.891  26.082   1.704
15344W        W83817  26.114  40.524  11.445
15345W        W83818  20.557  11.354   2.191
15346W        W83819  31.502  25.962   0.822
15347W        W83820  10.639  39.460  11.545
15348W        W83821  23.527  12.166   9.935
15349W        W83822   5.252  33.497  14.452
15350W        W83823  10.697   8.237  13.919
15351W        W83824  41.473  19.755  12.355
15352W        W83825  16.698   5.416   3.272
15353W        W83826   3.723  21.523   4.762
15354W        W83827  43.270  23.490   3.249
15355W        W83828   4.778  20.243   4.183
15356W        W83829  40.548  26.138   4.726
15357W        W83830  22.747  20.584  11.504
15358W        W83831   6.748  40.826   2.747
15359W        W83832   1.820  40.453   2.690
15360W        W83833   9.323  11.796   3.342
15361W        W83834   3.235  42.290   2.850
15362W        W83835  41.476  43.925  14.307
15363W        W83836  39.518  27.948   3.337
15364W        W83837   8.868   7.833  10.996
15365W        W83838  24.584  30.012  14.396
15366W        W83839   1.941  13.250  13.998
15367W        W83840  41.374  30.135   0.364
15368W        W83841  37.846  27.683   4.305
15369W        W83842  40.448  17.203   0.929
15370W        W83843  42.778  23.224   0.938
15371W        W83844   8.252  16.753   0.837
15372W        W83845  36.946  36.524   2.885
15373W        W83846  26.996  20.137   2.406
15374W        W83847  24.060   5.280  12.093
15375W        W83848  15.723   7.392   0.733
15376W        W83849  31.567  14.159   4.302
15377W        W83850   3.865   8.754   1.233
15378W        W83851  42.519   3.215   2.835
15379W        W83852   3.843  37.996   0.316
15380W        W83853  33.914   1.815   0.271
15381W        W83854  27.986  33.413   3.743
15382W        W83855   0.880  18.629  14.369
15383W        W83856  40.303  18.584  13.812
15384W        W83857  17.075   4.859  10.579
15385W        W83858  31.973  38.934  11.468
15386W        W83859  29.045  28.553   4.783
15387W        W83860  35.063  34.037   2.253
15388W        W83861   5.411  13.351   3.784
15389W        W83862  21.577   5.261   3.236
15390W        W83863  12.293   4.418   1.407
15391W        W83864  16.074  39.058   2.757
15392W        W83865  40.373  11.681  13.924
15393W        W83866  39.544  40.539   3.726
15394W        W83867  33.101  22.145  11.451
15395W        W83868  19.164  43.939  14.846
15396W        W83869  37.031  39.034   0.329
15397W        W83870  42.784  31.122   1.401
15398W        W83871   2.904  43.767  11.407
15399W        W83872  27.482   8.162  11.507
15400W        W83873  39.819  26.462   3.683
15401W        W83874  35.063  28.678   4.288
15402W        W83875  14.677   0.981   2.885
15403W        W83876  33.003  13.133  14.882
15404W        W83877   0.841  36.936   3.334
15405W        W83878  42.945  16.782  11.606
15406W        W83879   5.293  39.330   2.676
15407W        W83880  21.692  28.056  12.459
15408W        W83881   0.450  13.326  10.955
15409W        W83882  32.970  29.539   2.259
15410W        W83883   2.854  12.665  14.471
15411W        W83884   8.855   3.909  11.539
15412W        W83885  34.478   5.266   2.391
15413W        W83886  20.700  10.757  14.959
15414W        W83887  32.020   1.392  12.946
15415W        W83888  16.708  43.417   0.449
15416W        W83889  30.065  11.662   2.898
15417W        W83890   5.898  12.789   0.895
15418W        W83891  29.476  42.888   2.673
15419W        W83892   0.357  32.897   1.429
15420W        W83893  33.124   2.785  11.863
15421W        W83894  38.043  18.274  11.067
15422W        W83895  39.450  31.463  11.383
15423W        W83896  20.610  28.931   4.679
15424W        W83897  40.974  43.849  14.427
15425W        W83898  13.303  21.525   1.301
15426W        W83899   8.827  24.626  14.806
15427W        W83900  25.098  14.137  11.990
15428W        W83901  10.690  32.452  13.498
15429W        W83902   2.794  11.761   2.413
15430W        W83903   3.736  26.457  10.581
15431W        W83904  40.427  19.198  14.000
15432W        W83905  38.988  41.348   4.227
15433W        W83906   4.212  14.307   1.342
15434W        W83907  38.881  26.976  12.837
15435W        W83908  23.667   8.219  12.916
15436W        W83909  20.611  40.448   2.211
15437W        W83910  32.562  28.101  10.147
15438W        W83911  36.909  23.003  12.854
15439W        W83912  25.028   8.883   2.384
15440W        W83913  39.339  33.615   2.388
15441W        W83914  43.989  13.261   2.259
15442W        W83915  26.668  22.729   4.317
15443W        W83916  10.759  22.516   4.257
15444W        W83917  37.483   5.319   4.262
15445W        W83918   3.842  36.412  13.372
15446W        W83919   7.707   6.730  10.930
15447W        W83920  30.116   5.752   4.713
15448W        W83921  24.218  31.903  13.000
15449W        W83922  22.046  38.916   1.902
15450W        W83923  43.424  44.933  12.566
15451W        W83924  36.381   7.368  14.811
15452W        W83925  41.454  33.541   0.319
15453W        W83926  31.943   7.666   0.293
15454W        W83927   0.331  16.581  14.454
15455W        W83928  21.582  15.139  12.518
15456W        W83929   6.702  35.922  11.880
15457W        W83930  10.288  34.043   4.352
15458W        W83931  23.713   6.919   4.817
15459W        W83932  19.636  20.232  10.555
15460W        W83933  25.585  24.722   4.213
15461W        W83934  22.228   7.359   2.867
15462W        W83935   6.225  39.844  13.947
15463W        W83936  11.319   9.736   2.196
15464W        W83937  28.530   3.792   0.399
15465W        W83938  34.379  20.580  12.042
15466W        W83939   9.851   5.247  14.758
15467W        W83940  11.262  25.209   2.296
15468W        W83941   0.874  18.197   1.246
15469W        W83942   5.897  40.050   2.725
15470W        W83943  31.407  31.486  12.854
15471W        W83944  25.155  33.402   1.340
15472W        W83945   7.254   4.347  10.568
15473W        W83946  10.722  10.866  11.922
15474W        W83947  30.125  44.280  13.981
15475W        W83948  24.529  34.888  13.458
15476W        W83949  25.169  41.827   3.707
15477W        W83950  38.037  23.611   0.889
15478W        W83951  34.871  13.248  12.558
15479W        W83952   3.753  27.590  10.924
15480W        W83953  37.986  18.667   1.325
15481W        W83954  36.520  24.667   0.908
15482W        W83955  32.433  24.136  13.527
15483W        W83956  39.881  25.597   2.189
15484W        W83957  15.098  28.674   1.900
15485W        W83958   8.281  44.986   2.736
15486W        W83959  35.473  17.240   4.703
15487W        W83960  29.603  25.484   1.743
15488W        W83961  39.957  43.283   0.455
15489W        W83962  15.299   7.380   1.867
15490W        W83963   4.234  44.391   3.633
15491W        W83964  25.580   2.306  12.475
15492W        W83965  18.079  20.561  14.469
15493W        W83966  23.548  15.656   1.343
15494W        W83967   5.206  12.187  12.503
15495W        W83968  16.586   0.835   3.194
15496W        W83969  29.059  38.487   3.241
15497W        W83970  28.448   5.296  12.432
15498W        W83971  32.027  34.486  14.898
15499W        W83972  14.726  41.398   1.283
15500W        W83973  10.203  44.844   0.417
15501W        W83974  27.668  44.815   1.259
15502W        W83975  24.069  13.120  13.526
15503W        W83976   6.758  23.991   0.299
15504W        W83977   2.887  34.503   3.734
15505W        W83978  39.336  32.559   4.236
15506W        W83979  26.575  35.964  14.491
15507W        W83980  40.971   1.977   0.915
15508W        W83981  43.386  37.379  12.403
15509W        W83982  44.473  22.229   1.414
15510W        W83983  44.470  24.082  12.862
15511W        W83984   1.832  38.480   2.357
15512W        W83985  13.107  14.137   2.813
15513W        W83986  36.090  40.879  10.571
15514W        W83987  18.662  40.306  11.589
15515W        W83988   8.337   8.756   5.187
15516W        W83989  22.169  10.247  13.313
15517W        W83990  29.494   8.321   2.324
15518W        W83991   2.914  17.174   2.250
15519W        W83992   8.343  22.708  12.930
15520W        W83993   1.956  14.310  11.476
15521W        W83994  40.823  35.545  11.028
15522W        W83995  12.134  33.476   1.375
15523W        W83996  16.126  11.272  11.011
15524W        W83997  43.002  42.897   3.674
15525W        W83998  17.781  17.190   3.674
15526W        W83999  21.100  33.069  12.945
15527W        W84000  16.286  22.167  11.860
15528W        W84001  29.546   4.717  13.943
15529W        W84002   9.239  26.206  13.859
15530W        W84003  13.784   4.254   3.794
15531W        W84004   6.263  36.451  13.338
15532W        W84005   5.356  18.679  14.826
15533W        W84006  28.098  10.834  12.935
15534W        W84007  18.294  27.103   2.409
15535W        W84008   7.337  16.668  13.916
15536W        W84009   2.912  27.029  14.448
15537W        W84010  20.061   9.279  11.548
15538W        W84011  30.618  31.943   5.243
15539W        W84012  12.713  23.568   1.804
15540W        W84013  32.410   8.257   0.790
15541W        W84014  22.050  16.095   4.710
15542W        W84015  14.719  24.066  13.366
15543W        W84016  36.524  28.043  11.562
15544W        W84017  29.063  43.987   1.744
15545W        W84018  41.968  13.653  12.057
15546W        W84019  19.096   3.912   2.809
15547W        W84020  26.142  16.718   1.250
15548W        W84021   2.433  10.310  12.969
15549W        W84022  25.189  35.064  13.538
15550W        W84023   9.210  37.908  12.455
15551W        W84024  40.478  35.896  12.826
15552W        W84025   2.893  44.301   1.303
15553W        W84026  38.390  22.659  11.047
15554W        W84027  28.170  32.532  13.518
15555W        W84028   7.188  11.318  10.501
15556W        W84029  24.036   2.406  12.374
15557W        W84030  23.153  31.550   4.776
15558W        W84031   8.753  15.712  14.440
15559W        W84032  21.186  16.628   1.413
15560W        W84033  40.877  19.709  13.510
15561W        W84034   7.348  41.936  14.368
15562W        W84035  19.154  23.611   3.856
15563W        W84036  16.264  35.571   3.739
15564W        W84037  26.566  23.188  12.941
15565W        W84038  25.635  17.649   1.890
15566W        W84039  43.983  29.561   0.463
15567W        W84040   6.889  11.326   2.891
15568W        W84041  11.839   4.383  12.865
15569W        W84042  33.106  29.004   4.705
15570W        W84043  43.846   5.382   2.765
15571W        W84044  14.633  40.938   2.395
15572W        W84045  31.050  28.648   3.780
15573W        W84046  41.911   0.380   2.298
15574W        W84047  12.798  30.029  14.957
15575W        W84048  17.609  21.626   4.329
15576W        W84049  21.730  26.988   3.675
15577W        W84050   9.264  40.030  12.577
15578W        W84051  22.146  44.840   1.867
15579W        W84052  33.061   4.763  14.275
15580W        W84053   8.871  26.526   3.235
15581W        W84054  41.501  34.052   4.203
15582W        W84055  27.641  28.537   2.410
15583W        W84056  35.079   3.296   3.735
15584W        W84057  37.030   9.848   1.310
15585W        W84058   0.462  43.780  14.826
15586W        W84059  28.438  36.934  11.883
15587W        W84060  11.322  11.164  14.931
15588W        W84061  20.731  26.520   3.804
15589W        W84062  39.886   9.716   3.381
15590W        W84063  14.340  11.755   5.188
15591W        W84064  28.669  25.586   3.323
15592W        W84065   0.283  43.011   3.149
15593W        W84066  15.633  26.543  12.345
15594W        W84067  29.513   4.880   0.728
15595W        W84068  11.695   8.313   0.853
15596W        W84069  23.046  11.809   2.203
15597W        W84070  31.948  11.199   4.759
15598W        W84071  15.267   8.757   0.358
15599W        W84072   2.730  21.066   3.658
15600W        W84073  24.211   7.252  12.009
15601W        W84074  19.056  36.984   1.887
15602W        W84075  43.378  35.387   1.704
15603W        W84076  33.593  35.019  11.449
15604W        W84077  13.323  21.099   2.367
15605W        W84078  28.020  25.518   4.287
15606W        W84079  44.503  26.188  13.368
15607W        W84080   3.335  39.053  11.905
15608W        W84081   0.324  13.217   2.182
15609W        W84082  17.711  41.949   4.738
15610W        W84083  43.983  21.145  10.933
15611W        W84084  24.077  25.568  13.471
15612W        W84085  35.882  16.706   0.738
15613W        W84086  34.592   9.841  11.577
15614W        W84087  21.259  29.662   0.325
15615W        W84088  28.021   1.874   3.163
15616W        W84089  32.508  17.724   3.847
15617W        W84090   2.440  24.201  13.946
15618W        W84091  22.995  14.655  12.433
15619W        W84092  13.331  11.140   0.246
15620W        W84093  39.989  39.824  14.898
15621W        W84094  39.407  13.614   2.395
15622W        W84095  33.035  27.966   1.301
15623W        W84096  11.242   9.645  13.835
15624W        W84097  33.580  39.406  14.366
15625W        W84098  16.286  17.181   4.682
15626W        W84099  35.574  34.388   2.371
15627W        W84100  37.857  29.072   3.701
15628W        W84101   9.378  25.044   3.159
15629W        W84102   3.316   2.381  12.537
15630W        W84103  22.089  37.956  12.996
15631W        W84104  20.158  30.056  12.061
15632W        W84105  31.486   9.327  14.830
15633W        W84106  22.547   3.287   2.294
15634W        W84107  25.647  24.006   2.893
15635W        W84108  43.421   4.230   3.845
15636W        W84109  12.321  29.073   3.379
15637W        W84110   0.888  20.173   4.152
15638W        W84111  30.005  16.676   0.416
15639W        W84112   6.226  44.960   3.833
15640W        W84113  11.231  27.448  12.557
15641W        W84114  20.080   8.874   5.164
15642W        W84115  33.882  16.241   3.723
15643W        W84116  32.939  39.399  14.359
15644W        W84117   2.384   4.378   1.360
15645W        W84118   2.826  22.539   4.609
15646W        W84119  15.214   7.890  11.518
15647W        W84120   2.244  42.010  11.891
15648W        W84121  10.764  25.039  14.299
15649W        W84122  34.863   3.389   1.859
15650W        W84123  34.018  26.620  13.439
15651W        W84124  35.963  32.413   4.629
15652W        W84125  31.405  20.735  14.017
15653W        W84126  27.490  24.107  12.578
15654W        W84127  44.315  28.086  11.123
15655W        W84128  33.082  15.323   3.386
15656W        W84129  21.742  28.501  13.548
15657W        W84130   8.161  20.168   3.847
15658W        W84131  24.994   1.837  14.864
15659W        W84132   6.409  13.779   9.978
15660W        W84133  22.118  25.122   9.516
15661W        W84134  10.330  29.960  10.485
15662W        W84135  28.437  37.084  14.806
15663W        W84136  18.291  29.545  13.904
15664W        W84137  11.756  36.370  13.870
15665W        W84138  18.248  35.441   2.372
15666W        W84139   6.381  16.614   0.246
15667W        W84140  22.711  17.617  11.397
15668W        W84141  31.560  33.394   0.339
15669W        W84142  33.390  32.909   4.226
15670W        W84143  11.153   6.288   1.751
15671W        W84144  30.158  20.155   0.386
15672W        W84145  22.249  29.569  14.792
15673W        W84146  27.577  23.178   3.229
15674W        W84147   7.282  14.759  11.041
15675W        W84148   7.337   2.841  11.421
15676W        W84149  25.469  33.487  13.510
15677W        W84150  28.975   6.255   0.895
15678W        W84151  15.110  10.365  10.889
15679W        W84152   7.802  23.727   4.634
15680W        W84153  33.097   2.888   0.438
15681W        W84154  37.928  42.441   4.778
15682W        W84155  33.596  44.991   4.197
15683W        W84156   0.297  10.292   4.818
15684W        W84157  40.388  27.527  14.027
15685W        W84158  13.277  25.666  13.474
15686W        W84159   7.824   9.364  10.589
15687W        W84160   9.692   6.806   1.712
15688W        W84161  25.616  16.172  14.022
15689W        W84162  36.420   3.732  13.989
15690W        W84163  18.566  28.168  13.520
15691W        W84164  34.053  28.152   0.368
15692W        W84165  36.851  43.500   2.326
15693W        W84166   3.847  24.568   4.272
15694W        W84167   0.346   4.387  12.381
15695W        W84168   2.347   4.790  13.028
15696W        W84169  17.650  33.083   3.832
15697W        W84170  28.945   5.256  12.493
15698W        W84171  43.418  42.821   5.236
15699W        W84172  20.588  16.755   2.774
15700W        W84173  37.513  43.288   1.840
15701W        W84174  41.313  37.447   1.750
15702W        W84175  21.683  21.077   0.313
15703W        W84176  33.097  11.279  11.096
15704W        W84177  12.242  36.393   4.121
15705W        W84178   7.905  22.563   1.823
15706W        W84179  32.903  23.152  10.628
15707W        W84180   9.848  16.660  13.338
15708W        W84181   5.817  11.338   4.317
15709W        W84182  27.947  31.151   0.336
15710W        W84183  42.523  23.988   0.751
15711W        W84184   2.733  17.662  11.123
15712W        W84185  25.052  39.887  10.562
15713W        W84186  21.686  32.106   1.893
15714W        W84187  19.167  13.322   2.315
15715W        W84188  44.474   4.311   3.300
15716W        W84189  14.275  26.010   1.751
15717W        W84190  31.042  10.703   0.765
15718W        W84191  43.964   6.698   0.243
15719W        W84192  16.754  30.952   0.363
15720W        W84193  39.866  33.513  10.486
15721W        W84194  11.674  28.674   2.258
15722W        W84195  26.181  34.991   1.385
15723W        W84196  25.553  28.027  14.913
15724W        W84197  14.237  44.470  11.484
15725W        W84198   8.883  16.288   1.835
15726W        W84199  12.644  24.076  14.303
15727W        W84200   8.786  40.535   4.262
15728W        W84201  23.715  44.841   5.588
15729W        W84202  15.163   3.856   1.357
15730W        W84203  41.794  32.038  13.831
15731W        W84204  15.164  43.294  13.352
15732W        W84205   6.747  43.000   4.253
15733W        W84206  21.744  13.310  11.980
15734W        W84207  23.236  28.097   0.461
15735W        W84208   4.341  38.403   1.767
15736W        W84209  41.971  18.149  11.569
15737W        W84210   1.865   7.376   1.324
15738W        W84211  31.073   8.787   3.201
15739W        W84212  17.246   7.341  13.983
15740W        W84213   7.365  17.702  11.402
15741W        W84214  25.625  33.532  10.131
15742W        W84215  42.917  43.447   4.672
15743W        W84216  30.983  44.346   2.289
15744W        W84217  11.814  25.668   2.327
15745W        W84218  13.170  22.564   3.253
15746W        W84219  34.025   7.253   4.819
15747W        W84220  43.787  35.369   3.295
15748W        W84221  32.032  43.327   1.270
15749W        W84222  26.702  10.646   0.473
15750W        W84223  32.103  41.337   0.465
15751W        W84224  36.891  33.528   0.902
15752W        W84225  31.549   6.821  10.517
15753W        W84226  16.153  10.369  13.035
15754W        W84227  38.976   0.885   4.143
15755W        W84228  20.533  35.521  13.978
15756W        W84229  36.068  30.455  14.909
15757W        W84230  41.903   1.806  12.826
15758W        W84231  24.213  27.153   2.720
15759W        W84232  18.608  14.341   0.365
15760W        W84233   5.307  11.177   1.762
15761W        W84234  27.525  12.245   4.684
15762W        W84235  38.072  41.797  14.450
15763W        W84236  24.710  27.190  10.160
15764W        W84237  32.548  18.148  12.846
15765W        W84238  11.799  34.377  10.145
15766W        W84239   5.694  40.510   4.229
15767W        W84240  34.005  23.010  10.915
15768W        W84241  18.257  29.453   4.612
15769W        W84242  18.184  40.990   1.387
15770W        W84243  18.761  32.133   2.755
15771W        W84244  21.062   3.840  13.033
15772W        W84245  33.072  24.067  10.040
15773W        W84246  38.897  27.955   1.931
15774W        W84247  14.705  36.485   1.930
15775W        W84248  37.492  15.812   1.899
15776W        W84249  26.178   2.936   1.768
15777W        W84250  17.726  30.482  14.459
15778W        W84251  38.049  32.967   1.303
15779W        W84252   3.911  39.383   0.859
15780W        W84253  24.629  26.992  13.042
15781W        W84254  28.946  43.878   0.803
15782W        W84255  11.681  18.176  10.413
15783W        W84256  38.051  41.310  14.322
15784W        W84257   4.715  18.106  11.438
15785W        W84258   2.251  44.271   0.325
15786W        W84259   1.361  33.480  10.963
15787W        W84260  35.967  36.485  12.869
15788W        W84261   5.352  22.121   4.674
15789W        W84262  42.461  26.132  14.357
15790W        W84263  38.835   2.275   4.192
15791W        W84264  13.608  34.415   0.301
15792W        W84265  44.825  35.368   1.352
15793W        W84266  44.955   1.400  11.102
15794W        W84267   9.735  42.334  11.072
15795W        W84268  13.324  29.640   1.764
15796W        W84269   7.380  11.806  14.012
15797W        W84270  18.626   3.304  10.611
15798W        W84271  22.117  20.268   0.453
15799W        W84272  43.849  27.589  12.063
15800W        W84273  28.647  44.771  12.841
15801W        W84274   5.775  24.010   4.202
15802W        W84275   5.859  31.907  10.046
15803W        W84276  22.737  27.673  12.527
15804W        W84277   1.782  32.038   0.398
15805W        W84278  10.313  31.106   3.333
15806W        W84279   6.370   6.846  11.546
15807W        W84280   0.968   5.797  13.820
15808W        W84281  35.995  30.035   2.679
15809W        W84282  37.851   8.798   0.387
15810W        W84283  36.936  15.606   4.619
15811W        W84284  19.702  28.978  12.033
15812W        W84285  15.168  37.037  10.553
15813W        W84286   6.890  43.291  12.015
15814W        W84287  19.701  27.631  10.994
15815W        W84288   6.207  41.917  11.127
15816W        W84289  33.614  41.020   3.305
15817W        W84290  36.412  37.901  11.041
15818W        W84291  39.944   0.396   1.748
15819W        W84292  22.692  14.256  12.994
15820W        W84293   3.231   0.891   0.388
15821W        W84294  40.337  14.690   4.801
15822W        W84295  23.135  38.022  11.098
15823W        W84296  36.436  44.491   2.273
15824W        W84297  25.121  20.245   5.133
15825W        W84298  23.499  34.462  14.493
15826W        W84299  11.631  19.107  12.355
15827W        W84300  27.065  38.419   3.763
15828W        W84301   4.420  41.962  10.425
15829W        W84302  42.032  34.382  12.053
15830W        W84303  36.071   1.359   3.209
15831W        W84304  33.034  34.446  12.096
15832W        W84305  13.626   7.706  13.821
15833W        W84306  27.482  35.469  13.419
15834W        W84307  30.972  15.649  10.046
15835W        W84308  32.551   6.219   0.966
15836W        W84309  37.426  25.003   2.342
15837W        W84310  39.827  35.429  11.126
15838W        W84311  31.585   1.877   1.857
15839W        W84312  13.714  40.806   1.932
15840W        W84313  16.258  19.264  12.096
15841W        W84314  10.302  18.285   4.675
15842W        W84315  27.085  33.394  10.567
15843W        W84316   9.653  35.104  12.485
15844W        W84317  17.706  23.685  10.992
15845W        W84318   7.367  26.163  11.584
15846W        W84319  29.644   0.792  10.892
15847W        W84320   0.307  37.868   3.730
15848W        W84321  36.442  13.182   2.870
15849W        W84322  10.316   5.404  12.494
15850W        W84323  33.457  24.097   5.192
15851W        W84324  17.757  34.998   3.296
15852W        W84325   8.754  20.167  12.342
15853W        W84326   7.407   9.358   3.641
15854W        W84327  32.035  33.941  13.019
15855W        W84328  32.141  18.722  12.851
15856W        W84329   4.848  15.690   3.159
15857W        W84330  32.628  36.391   3.829
15858W        W84331  16.650   6.371  12.531
15859W        W84332  36.933  29.455  11.107
15860W        W84333  40.491  21.636   4.709
15861W        W84334  21.036  44.785  13.801
15862W        W84335  21.156  27.556   1.335
15863W        W84336  29.533  23.236   1.750
15864W        W84337  16.294  28.973  13.814
15865W        W84338  12.745   1.858  14.967
15866W        W84339  36.984  38.935  12.371
15867W        W84340  44.008  25.484  12.519
15868W        W84341  18.139  23.604  13.925
15869W        W84342  32.992  12.202  14.288
15870W        W84343  40.452  44.002  13.325
15871W        W84344  30.009  13.295   4.828
15872W        W84345  11.740   8.830   2.341
15873W        W84346  43.782  28.119  13.420
15874W        W84347  20.274  12.238  12.093
15875W        W84348   6.752  40.980  11.890
15876W        W84349  29.658  25.708   3.694
15877W        W84350  31.634   7.378   2.755
15878W        W84351  16.179   6.381   3.345
15879W        W84352  13.614  43.448  11.534
15880W        W84353  27.977  35.996  13.936
15881W        W84354  20.190   6.409  11.462
15882W        W84355  22.054  25.110   1.261
15883W        W84356  15.626  37.910   4.263
15884W        W84357   7.765   2.238  11.087
15885W        W84358  30.146  20.189  14.410
15886W        W84359  10.781  26.473   2.738
15887W        W84360  27.959   1.282  11.070
15888W        W84361   1.860   5.704   3.203
15889W        W84362  24.695  25.158  11.595
15890W        W84363  33.473  11.351   4.649
15891W        W84364  35.049  32.900  14.432
15892W        W84365  15.783   6.222  12.355
15893W        W84366  32.446   6.805  11.391
15894W        W84367  26.088   9.762  11.373
15895W        W84368   1.382  10.650  11.103
15896W        W84369  12.318  15.207  12.457
15897W        W84370  16.746  40.527   4.337
15898W        W84371   4.447   5.320   0.346
15899W        W84372   8.356  24.179   0.301
15900W        W84373   7.184  29.493   2.746
15901W        W84374   4.368  38.457  10.598
15902W        W84375  23.006  20.182  11.449
15903W        W84376  13.656  26.959  12.966
15904W        W84377  37.908   9.739   2.837
15905W        W84378  39.808  18.071   0.395
15906W        W84379  23.659  25.025  14.440
15907W        W84380  26.008  43.319   9.962
15908W        W84381  38.847   2.230  11.423
15909W        W84382  13.155   5.205   1.281
15910W        W84383  29.116   1.942  12.844
15911W        W84384   5.273  14.136  10.505
15912W        W84385   0.290  18.680  14.990
15913W        W84386   6.409  28.167   3.738
15914W        W84387  23.690   3.235  13.062
15915W        W84388  27.673   1.370  14.847
15916W        W84389  12.342  32.989   2.793
15917W        W84390  33.428  33.548  11.490
15918W        W84391  41.327   4.288  12.365
15919W        W84392  41.954  28.556   3.700
15920W        W84393  11.287  29.974   0.934
15921W        W84394   1.932  25.619  10.935
15922W        W84395   1.357  30.505   0.346
15923W        W84396  27.091  30.047   4.350
15924W        W84397  14.741   8.853   4.166
15925W        W84398  43.772  40.391   0.438
15926W        W84399  18.279  25.497   4.819
15927W        W84400  15.095  21.564  14.794
15928W        W84401   6.385  23.140  12.450
15929W        W84402  28.986   1.948   0.778
15930W        W84403   6.918  27.161  13.060
15931W        W84404  24.689  35.893  12.095
15932W        W84405  34.019   3.230  12.995
15933W        W84406  42.808  29.610  12.512
15934W        W84407  33.592  22.012   0.765
15935W        W84408  44.859  29.583   0.911
15936W        W84409  24.188  43.470   1.382
15937W        W84410  23.699   5.751   1.350
15938W        W84411  31.088   9.769  14.295
15939W        W84412   5.836  23.211   0.407
15940W        W84413   9.781   4.218   3.243
15941W        W84414  42.032  41.500   3.146
15942W        W84415  21.207  40.887  14.845
15943W        W84416  19.206  27.115  10.929
15944W        W84417  27.104  16.131   4.152
15945W        W84418  36.898  10.323  13.978
15946W        W84419  36.070   4.785   3.759
15947W        W84420  40.398   9.776   1.710
15948W        W84421  14.767  41.947  11.575
15949W        W84422   7.904  44.417   5.111
15950W        W84423   0.251  22.155  10.420
15951W        W84424  18.549  15.705  13.032
15952W        W84425   8.725  19.151  11.610
15953W        W84426  13.837   2.955   0.952
15954W        W84427  36.488  36.373   0.749
15955W        W84428  22.193  40.305  14.484
15956W        W84429  38.568   0.462   2.345
15957W        W84430  40.361  44.473  13.338
15958W        W84431  41.017  32.634  14.902
15959W        W84432  14.804   9.287  12.865
15960W        W84433  32.522  33.927   3.643
15961W        W84434  22.073  42.458  11.947
15962W        W84435  44.448  28.562  12.008
15963W        W84436  26.600  41.870  12.450
15964W        W84437  44.491  27.121  12.975
15965W        W84438   2.347  24.538  13.520
15966W        W84439  35.874  14.760  12.574
15967W        W84440  27.630  25.636  14.322
15968W        W84441  18.744  35.959   3.685
15969W        W84442  14.118  22.021  14.436
15970W        W84443  26.118  39.411   0.386
15971W        W84444   6.365  43.278   2.793
15972W        W84445  12.845  31.130  12.421
15973W        W84446  11.198  28.663   3.786
15974W        W84447  15.182  30.997   0.922
15975W        W84448  27.031   8.353   1.783
15976W        W84449  22.160  16.116   3.828
15977W        W84450  15.275  34.552  13.035
15978W        W84451   3.931  23.583  11.997
15979W        W84452  28.067   2.419   2.724
15980W        W84453  21.125  39.409   2.798
15981W        W84454  10.796  40.538   2.698
15982W        W84455   3.386  10.855  13.006
15983W        W84456  25.514  10.167   1.709
15984W        W84457  16.083  29.511  11.375
15985W        W84458   0.858  11.684  13.408
15986W        W84459  11.272  42.818   4.825
15987W        W84460  17.795  37.978   3.334
15988W        W84461  40.902  18.273  10.931
15989W        W84462  41.958  18.739  11.588
15990W        W84463  35.495  31.089   2.302
15991W        W84464  38.567  24.187   4.725
15992W        W84465   8.232   6.829  14.410
15993W        W84466  12.657  39.048  14.436
15994W        W84467   8.736  33.000  12.376
15995W        W84468  36.546  11.847  10.448
15996W        W84469  40.857  42.517   2.870
15997W        W84470  44.984  32.586  14.928
15998W        W84471  31.918   1.808   2.269
15999W        W84472  10.314  26.192  12.379
16000W        W84473  13.785  41.441   2.793
16001W        W84474  27.064  36.983  12.374
16002W        W84475   4.844  40.806   2.850
16003W        W84476   0.469  30.922  13.547
16004W        W84477  14.801  15.260   4.325
16005W        W84478  29.517  12.720   3.237
16006W        W84479  42.801  20.199   4.162
16007W        W84480  24.669  13.723   2.244
16008W        W84481  21.726  34.015   3.724
16009W        W84482  40.549  43.873  12.575
16010W        W84483  35.433  37.490   2.862
16011W        W84484  41.980  32.000  10.053
16012W        W84485  24.068  11.166  14.856
16013W        W84486  39.433  31.961  11.912
16014W        W84487  31.521  19.143  11.972
16015W        W84488  23.547  36.931  10.565
16016W        W84489  17.179  36.029  12.410
16017W        W84490  26.031  37.887   4.617
16018W        W84491   2.728  26.008   2.885
16019W        W84492  14.787  41.330  12.927
16020W        W84493   1.478  42.946   3.232
16021W        W84494  16.658  39.340  10.540
16022W        W84495  33.971  43.909   2.735
16023W        W84496  10.867   5.769  13.800
16024W        W84497   2.854   3.879  10.487
16025W        W84498   4.222  22.112  14.422
16026W        W84499   7.786  40.801  10.468
16027W        W84500  20.708  42.483   0.809
16028W        W84501  34.021   5.877   3.758
16029W        W84502  24.081   5.237  14.491
16030W        W84503  26.617  28.937  11.581
16031W        W84504  21.703   1.836  11.069
16032W        W84505  18.693  19.611   0.772
16033W        W84506  12.747  26.508  14.425
16034W        W84507  38.060  30.430   2.396
16035W        W84508   2.421   6.398  13.810
16036W        W84509  26.058   5.791   2.317
16037W        W84510  38.342  19.609   3.362
16038W        W84511   2.246  18.221   0.891
16039W        W84512  44.447  10.193   1.696
16040W        W84513  32.129  27.196   4.128
16041W        W84514  26.162  42.524  14.301
16042W        W84515  40.840   1.417  13.800
16043W        W84516  32.918  10.700   1.781
16044W        W84517   4.394  20.199   3.658
16045W        W84518  35.485  44.341   0.911
16046W        W84519  11.625   2.241  12.451
16047W        W84520  41.361   1.933   3.210
16048W        W84521  18.149  20.224   2.811
16049W        W84522  23.534   5.198   1.704
16050W        W84523  30.593  40.935  13.017
16051W        W84524  21.081  22.669  14.031
16052W        W84525  16.756  41.404  13.061
16053W        W84526  33.622  38.055   1.698
16054W        W84527  42.488  22.682   3.832
16055W        W84528  28.111  26.969   2.677
16056W        W84529  26.595   7.317  10.434
16057W        W84530  12.672  25.192   3.224
16058W        W84531   0.340  37.874   1.231
16059W        W84532  11.679  26.555   5.191
16060W        W84533  39.481  13.121  14.498
16061W        W84534  40.874  32.098  12.497
16062W        W84535  18.068  27.092   1.733
16063W        W84536   8.733  35.375   0.347
16064W        W84537   4.927  40.978   4.811
16065W        W84538  35.440   1.769   3.667
16066W        W84539  13.255  37.470   1.325
16067W        W84540  31.433  35.464  11.974
16068W        W84541  32.542   9.159  14.774
16069W        W84542  30.122   5.815   3.314
16070W        W84543  33.523  17.198   3.151
16071W        W84544  43.340   8.299   0.372
16072W        W84545  16.303  27.643   4.765
16073W        W84546   3.389   8.172   1.884
16074W        W84547  14.626  34.521   3.782
16075W        W84548  24.082  30.659   0.257
16076W        W84549  39.366  44.008  14.282
16077W        W84550  39.954  14.788  14.876
16078W        W84551  32.114  30.585  13.057
16079W        W84552  35.965  42.361   2.398
16080W        W84553  19.207  42.906   4.700
16081W        W84554   4.798  36.586   2.181
16082W        W84555  34.893  41.911  13.849
16083W        W84556   3.863  37.351  10.447
16084W        W84557   9.645  21.189  10.945
16085W        W84558  37.411   5.302   0.946
16086W        W84559   6.318  15.171  13.842
16087W        W84560  32.099  29.158  13.799
16088W        W84561  33.132  41.348  11.986
16089W        W84562   8.309  28.521  12.962
16090W        W84563  18.620  41.848  13.353
16091W        W84564   9.664  29.135   3.153
16092W        W84565  43.792   7.866  13.810
16093W        W84566  27.954  36.042   4.213
16094W        W84567  42.007  11.291   1.907
16095W        W84568  23.193   2.423  14.468
16096W        W84569  44.493  42.939   4.678
16097W        W84570   8.710  40.899   4.667
16098W        W84571  18.215  40.818  13.846
16099W        W84572  34.892  23.553  14.285
16100W        W84573  30.461  27.454   4.351
16101W        W84574  27.134  15.712  10.974
16102W        W84575  25.080  28.003  10.593
16103W        W84576  40.348  34.414   1.352
16104W        W84577  14.739  30.448   0.257
16105W        W84578  29.508   7.355  10.023
16106W        W84579   0.977  44.340   1.766
16107W        W84580   9.284  11.282   1.863
16108W        W84581  34.549  10.843  12.857
16109W        W84582   2.762  30.423   1.807
16110W        W84583  24.480  11.232  12.457
16111W        W84584  19.566  42.504  11.985
16112W        W84585  40.388  34.979   2.379
16113W        W84586  29.157  35.993  12.577
16114W        W84587  40.031  19.638  12.418
16115W        W84588  43.446  13.624  10.596
16116W        W84589  28.677  18.288  14.800
16117W        W84590  14.756  25.172   1.309
16118W        W84591  41.538  19.575   1.928
16119W        W84592  43.458   8.717   5.220
16120W        W84593  11.710  19.260   4.233
16121W        W84594  19.261  20.233   1.272
16122W        W84595   1.870   1.853   3.232
16123W        W84596   8.891  40.469   2.313
16124W        W84597  19.749  37.922   2.743
16125W        W84598  37.834  34.581   3.692
16126W        W84599  11.683  34.878  14.432
16127W        W84600  10.277   2.229   4.823
16128W        W84601   7.848  38.833  12.958
16129W        W84602  27.160  13.162   3.327
16130W        W84603  36.860  37.557  12.486
16131W        W84604  33.027  11.852  13.487
16132W        W84605  11.335  29.488   2.661
16133W        W84606  20.044   2.803  10.431
16134W        W84607  23.138   3.265   1.306
16135W        W84608  30.116  38.862   2.834
16136W        W84609  10.213  17.572   1.739
16137W        W84610  44.290  42.454   0.439
16138W        W84611  22.561  38.034  11.373
16139W        W84612  11.309  26.645  11.445
16140W        W84613  10.217  35.020  13.897
16141W        W84614   9.235   7.397  14.008
16142W        W84615  17.590   1.350   0.244
16143W        W84616   4.212  24.128  14.826
16144W        W84617  41.847  34.509   0.845
16145W        W84618  40.446  25.601  11.598
16146W        W84619  31.576  13.770  10.912
16147W        W84620  29.106   5.281  10.975
16148W        W84621  41.973  37.989   3.648
16149W        W84622  34.489  15.305   1.299
16150W        W84623   5.898  22.186  13.889
16151W        W84624  33.552   4.355   1.918
16152W        W84625  17.278  10.299  11.896
16153W        W84626  36.863  15.138   2.851
16154W        W84627   6.879  23.563   2.681
16155W        W84628  13.716   3.875   3.252
16156W        W84629  42.886  36.085   4.263
16157W        W84630  22.121  21.178  13.399
16158W        W84631   7.842   3.755  14.987
16159W        W84632  23.023  37.390  11.944
16160W        W84633  28.535  17.129   4.783
16161W        W84634  42.798   2.434  10.976
16162W        W84635  29.651  21.617   0.383
16163W        W84636  15.188  41.444   3.644
16164W        W84637  10.644  15.305  10.452
16165W        W84638   7.794  15.805  14.288
16166W        W84639  43.915   3.913  12.093
16167W        W84640   2.891  33.982  12.982
16168W        W84641  25.680  28.548   4.186
16169W        W84642  34.891  37.354  13.382
16170W        W84643  14.768  12.117  12.039
16171W        W84644   2.793  13.750  14.993
16172W        W84645  31.904   3.444   0.432
16173W        W84646  44.307  29.490   3.756
16174W        W84647  27.667  21.748   1.877
16175W        W84648   5.765  43.270  14.893
16176W        W84649  14.609  21.624   4.830
16177W        W84650  18.736  36.889   4.833
16178W        W84651   1.421  30.648  12.401
16179W        W84652   1.869   6.185   4.782
16180W        W84653  19.713  21.089   2.718
16181W        W84654  31.424  15.194  14.851
16182W        W84655  13.752  32.462   3.777
16183W        W84656   0.267  11.687  11.610
16184W        W84657  18.128  44.775   2.355
16185W        W84658  18.574   8.816   2.815
16186W        W84659  19.748  39.816  11.484
16187W        W84660  30.500  31.901  11.601
16188W        W84661  18.566  11.689   9.965
16189W        W84662  16.297   6.285  11.456
16190W        W84663  33.097  18.217  13.366
16191W        W84664  35.600  36.083  13.462
16192W        W84665   3.351   1.452   0.927
16193W        W84666  34.967  37.894   2.699
16194W        W84667  41.844  22.226   3.384
16195W        W84668   7.378  28.019   0.823
16196W        W84669   9.334  15.185  13.403
16197W        W84670   4.312   6.191   0.738
16198W        W84671   2.726   2.278  10.535
16199W        W84672  44.879  28.130   3.158
16200W        W84673  18.155  21.625   2.734
16201W        W84674  11.811   3.733   0.937
16202W        W84675  26.098  19.727  12.409
16203W        W84676  41.483   7.669  13.934
16204W        W84677   9.250  10.282  12.488
16205W        W84678  22.500  34.993  14.956
16206W        W84679  38.922   8.220  14.345
16207W        W84680   5.919  34.376  12.427
16208W        W84681  32.889   4.755   1.701
16209W        W84682  36.468  44.262   5.197
16210W        W84683  13.341  35.584   0.447
16211W        W84684  26.642   0.802   3.323
16212W        W84685  24.006  20.748   3.660
16213W        W84686  44.973  19.243  14.393
16214W        W84687   8.319  11.795   1.436
16215W        W84688   3.223  18.772   2.379
16216W        W84689  10.728  19.587  13.367
16217W        W84690  31.485  12.646   3.795
16218W        W84691  36.044  34.949  12.970
16219W        W84692  23.064  24.174  11.066
16220W        W84693  24.200   3.314  14.288
16221W        W84694  21.148   2.813  13.521
16222W        W84695   8.387  10.161   4.308
16223W        W84696  17.679   6.340   2.391
16224W        W84697  31.477  18.125  14.880
16225W        W84698  39.931  19.266   3.716
16226W        W84699  34.934  29.975  14.935
16227W        W84700  28.162  41.410   0.792
16228W        W84701  43.991  20.523  10.890
16229W        W84702  28.943  31.009   3.258
16230W        W84703  18.144   6.298   0.911
16231W        W84704  10.748  15.111   4.205
16232W        W84705   9.658  11.330  11.888
16233W        W84706  36.932  20.141   1.798
16234W        W84707  32.986  44.500   3.288
16235W        W84708   7.798   1.301   3.351
16236W        W84709  34.457  44.785   4.803
16237W        W84710  26.530  41.917   2.834
16238W        W84711  23.545  44.874  14.891
16239W        W84712  35.075  17.064   2.201
16240W        W84713  26.031  35.598  12.057
16241W        W84714  36.986  43.973   3.358
16242W        W84715  33.412   4.939  11.104
16243W        W84716   4.941  21.600  10.973
16244W        W84717   5.439  15.637   3.291
16245W        W84718  29.617  17.185  13.409
16246W        W84719  20.220  19.177   1.699
16247W        W84720  41.509  12.281   4.829
16248W        W84721  20.140  19.239  13.920
16249W        W84722  24.506  37.520  12.461
16250W        W84723  24.986  13.148   1.743
16251W        W84724  19.140  15.305  13.887
16252W        W84725  17.222  19.693  14.474
16253W        W84726  23.733  18.673   2.722
16254W        W84727  32.915  43.477  14.433
16255W        W84728   8.787  16.244  11.107
16256W        W84729   7.712   1.839   3.163
16257W        W84730  10.281  30.920  13.806
16258W        W84731   2.895  35.042  12.479
16259W        W84732  26.066  37.955   1.722
16260W        W84733  26.686  34.102  12.856
16261W        W84734  15.767  14.292  10.156
16262W        W84735  34.595   6.419  11.025
16263W        W84736   7.886   6.372   9.589
16264W        W84737   0.436  17.090  13.856
16265W        W84738   9.863  37.956   4.195
16266W        W84739  42.481  24.204  11.511
16267W        W84740  18.270   4.784  13.018
16268W        W84741  33.029  11.756  14.899
16269W        W84742  11.742  15.327   4.803
16270W        W84743  22.154  30.415  12.432
16271W        W84744  15.672  15.630   5.145
16272W        W84745  31.619  41.907   0.326
16273W        W84746   1.942  31.469   4.206
16274W        W84747  21.605   2.748   4.281
16275W        W84748  14.254  11.353  11.059
16276W        W84749  34.053  39.856  10.448
16277W        W84750  35.907  16.163   1.428
16278W        W84751   1.337   6.902  14.452
16279W        W84752  17.703  12.341   1.348
16280W        W84753  37.508  27.037  10.450
16281W        W84754  22.117   0.294   2.309
16282W        W84755   1.338  20.274  12.835
16283W        W84756  32.562  23.581   3.378
16284W        W84757  43.419   1.419  13.063
16285W        W84758  24.159  27.608  10.048
16286W        W84759  25.093   4.349   1.770
16287W        W84760  42.331  17.095   2.766
16288W        W84761  27.574   9.171   0.882
16289W        W84762  25.615  29.458   3.188
16290W        W84763   9.339  39.928  13.953
16291W        W84764  33.413  39.512  11.603
16292W        W84765   9.790  31.096  14.018
16293W        W84766  40.353   0.274  13.912
16294W        W84767  23.101  19.741   1.778
16295W        W84768  14.699  19.148  14.308
16296W        W84769  27.469  35.592  10.591
16297W        W84770  37.067  38.890  11.066
16298W        W84771   1.859  24.635  10.472
16299W        W84772   1.436  18.202  11.398
16300W        W84773  36.855   8.264  11.115
16301W        W84774  40.803  31.497  12.846
16302W        W84775  30.624  17.241  14.278
16303W        W84776  17.750  38.566   3.217
16304W        W84777  30.108  39.462   2.690
16305W        W84778  13.739  25.135  13.547
16306W        W84779  34.423  19.199   4.203
16307W        W84780  14.753  42.899   0.887
16308W        W84781   5.760  43.974  14.276
16309W        W84782  32.067  25.600  13.913
16310W        W84783  29.430  43.925  12.908
16311W        W84784  35.907  26.631  11.962
16312W        W84785  29.032   3.408  11.596
16313W        W84786   5.436  15.803   3.852
16314W        W84787  24.575  12.785   4.636
16315W        W84788  17.263   6.348   1.410
16316W        W84789  21.152  43.362   2.339
16317W        W84790  25.110   7.725   2.664
16318W        W84791   9.690  20.240   4.646
16319W        W84792  20.722  29.600   4.836
16320W        W84793   8.342  42.432   1.799
16321W        W84794  20.195  19.195  13.533
16322W        W84795  23.576   3.348  13.457
16323W        W84796  15.713  42.334  13.540
16324W        W84797   2.929   5.436   2.343
16325W        W84798   0.830  41.304  11.861
16326W        W84799   4.875  37.030  10.562
16327W        W84800  40.499  39.384   4.629
16328W        W84801  13.269  28.090  12.431
16329W        W84802  39.374  27.070  11.075
16330W        W84803  15.761  15.688   3.336
16331W        W84804  31.630  14.686  14.481
16332W        W84805  12.687  15.709   3.646
16333W        W84806  18.283   0.453   1.418
16334W        W84807  25.164  17.126  13.847
16335W        W84808   5.337  35.580   0.773
16336W        W84809   0.748  12.178   2.849
16337W        W84810  20.574  33.889  12.351
16338W        W84811   5.328  13.620   1.311
16339W        W84812  20.270  12.728   1.798
16340W        W84813  18.280  39.016   4.198
16341W        W84814  24.190  36.988   2.890
16342W        W84815   2.455  17.070   0.948
16343W        W84816  31.642  10.669  10.577
16344W        W84817   5.915   6.203   3.688
16345W        W84818  38.438   8.163  12.961
16346W        W84819  24.987  20.601  13.535
16347W        W84820  21.201  25.211  11.576
16348W        W84821   3.748  10.862   3.689
16349W        W84822   6.869  40.375   1.766
16350W        W84823   4.713  16.799  13.022
16351W        W84824  25.505  44.901   2.264
16352W        W84825  42.388  28.951  13.368
16353W        W84826   6.295   9.797  11.395
16354W        W84827   0.464  17.138  14.911
16355W        W84828   5.910  17.783   2.414
16356W        W84829   6.701  21.564  11.524
16357W        W84830  24.002  22.995   0.249
16358W        W84831  11.177   7.351  14.301
16359W        W84832  33.448  25.974  10.568
16360W        W84833  10.830  30.570  11.887
16361W        W84834  17.067  36.396  13.404
16362W        W84835   7.202  21.582   2.283
16363W        W84836   4.417  19.607   3.830
16364W        W84837  39.905  13.640   1.718
16365W        W84838  26.990  39.335  10.915
16366W        W84839  11.254   5.848  12.064
16367W        W84840  33.097   7.704  11.058
16368W        W84841   3.422  32.462  10.994
16369W        W84842  44.332   4.442  11.468
16370W        W84843   9.376  31.997  11.609
16371W        W84844   7.269  40.038  11.567
16372W        W84845  13.678   6.353   4.611
16373W        W84846  35.990  26.669   0.851
16374W        W84847  34.486   8.859   1.873
16375W        W84848  19.276  28.096   4.182
16376W        W84849   0.825   2.810   0.819
16377W        W84850  42.448  40.408   4.623
16378W        W84851  37.414  32.041   3.316
16379W        W84852   1.952  19.697  14.314
16380W        W84853  35.433  27.486   3.337
16381W        W84854  38.548  34.967   3.376
16382W        W84855  38.465  39.031   4.612
16383W        W84856   2.826  25.578   1.847
16384W        W84857  35.407  14.599   2.286
16385W        W84858  34.426  24.687   4.144
16386W        W84859   5.270  26.135  13.360
16387W        W84860  12.352   5.345  10.542
16388W        W84861  11.352  11.212   3.275
16389W        W84862  34.409  43.304  13.365
16390W        W84863  12.201   7.354  11.380
16391W        W84864   3.408  14.821   2.752
16392W        W84865  18.759   8.388  11.460
16393W        W84866   7.350  23.098   2.215
16394W        W84867  33.019  34.381   1.717
16395W        W84868  37.490   1.824  12.516
16396W        W84869  29.491  31.007  12.511
16397W        W84870  24.206  20.563  10.594
16398W        W84871   1.275  38.512   2.279
16399W        W84872  33.019  16.095  12.888
16400W        W84873  33.070  37.082   2.707
16401W        W84874  40.803  26.565  11.474
16402W        W84875  18.063   1.292   2.745
16403W        W84876  12.126  12.170  13.949
16404W        W84877  13.792  19.251   1.213
16405W        W84878  12.143   2.802  14.388
16406W        W84879   3.767  30.576  14.899
16407W        W84880   6.419  17.239   3.229
16408W        W84881  19.278  42.919  13.385
16409W        W84882  31.482  18.103   0.358
16410W        W84883  37.946  36.083   0.253
16411W        W84884  36.881  22.126   4.784
16412W        W84885  10.759  18.782  14.839
16413W        W84886   9.683  18.151   2.209
16414W        W84887  42.944  28.579  11.433
16415W        W84888   0.830   1.868  10.050
16416W        W84889   7.895  20.726   0.272
16417W        W84890  42.388  39.994  11.002
16418W        W84891  40.013  36.904   3.253
16419W        W84892   2.246   7.771  12.966
16420W        W84893  37.464  19.073  11.498
16421W        W84894  13.711  29.167  12.879
16422W        W84895  25.660  21.683   1.782
16423W        W84896  18.548  31.610   1.400
16424W        W84897  40.039  16.114   0.860
16425W        W84898  40.538  32.568  11.553
16426W        W84899  25.160  21.158  11.925
16427W        W84900  31.648  43.803  11.410
16428W        W84901  27.998  17.175  13.512
16429W        W84902  12.761  37.015  12.981
16430W        W84903   6.720   8.370   4.631
16431W        W84904  43.296  19.608  11.541
16432W        W84905   3.286  43.798  14.956
16433W        W84906  11.840  31.546  11.923
16434W        W84907  10.279  33.061  14.921
16435W        W84908  23.110  14.697  10.972
16436W        W84909  42.497  32.136   4.326
16437W        W84910   8.728  26.204   3.688
16438W        W84911   7.290  36.067  12.826
16439W        W84912  22.238   6.700  13.936
16440W        W84913  43.399   6.716   3.201
16441W        W84914  20.094  20.237  14.904
16442W        W84915   5.355  33.559   4.796
16443W        W84916  11.371  38.527   1.221
16444W        W84917  27.669   0.453  14.481
16445W        W84918   6.844   4.832   3.379
16446W        W84919  41.033  32.052  11.103
16447W        W84920  40.506  13.263   0.406
16448W        W84921  23.014  20.061   2.888
16449W        W84922  25.173   5.762  12.435
16450W        W84923  40.996  40.852  11.937
16451W        W84924  17.643  37.003  10.524
16452W        W84925  34.607  37.958   3.227
16453W        W84926  35.073  17.588  13.448
16454W        W84927  21.087  33.913  10.987
16455W        W84928  28.069   0.387   1.757
16456W        W84929  21.602  41.355  10.623
16457W        W84930  37.081  39.380   1.341
16458W        W84931  31.463  42.292   2.384
16459W        W84932  28.576  16.609   0.455
16460W        W84933  15.190  19.658  13.853
16461W        W84934   0.367  22.135   4.768
16462W        W84935  12.339  29.669   3.702
16463W        W84936   6.816  16.786  12.542
16464W        W84937  42.009  38.516  10.604
16465W        W84938  23.220  25.203   1.855
16466W        W84939  38.501  44.820   1.370
16467W        W84940  23.543  21.073  11.994
16468W        W84941  32.580  15.780  14.893
16469W        W84942   7.303  33.442   4.341
16470W        W84943  14.194  42.985   5.213
16471W        W84944  15.779  14.632   3.793
16472W        W84945  24.223  44.405  13.467
16473W        W84946  12.652  13.275   1.803
16474W        W84947  32.980  17.207  11.606
16475W        W84948   9.886  22.710  10.030
16476W        W84949   1.746  39.951  11.887
16477W        W84950  40.047  28.953  11.041
16478W        W84951  43.513  29.470   3.217
16479W        W84952  23.589  38.891   0.388
16480W        W84953  41.809   3.740   3.751
16481W        W84954  21.658  30.160   1.442
16482W        W84955  28.667   2.373   1.809
16483W        W84956   9.381  27.607  12.473
16484W        W84957  20.274  44.977   2.312
16485W        W84958  44.800  38.927   1.843
16486W        W84959  44.374  14.133   3.306
16487W        W84960  33.988  24.179   1.701
16488W        W84961  41.949  16.661  12.370
16489W        W84962  32.539  10.335  13.841
16490W        W84963  12.145  42.830  14.932
16491W        W84964  10.258  18.604  13.378
16492W        W84965  21.647  18.296   0.332
16493W        W84966  28.151  39.810   4.317
16494W        W84967   1.472  27.556   1.349
16495W        W84968  23.657  26.604   5.221
16496W        W84969  43.877   9.156   0.848
16497W        W84970  38.431   6.396   2.770
16498W        W84971  14.748  40.851   1.879
16499W        W84972  42.898  30.148   3.690
16500W        W84973   1.744  39.535   0.769
16501W        W84974  21.614  16.078  13.822
16502W        W84975   0.402  23.713   3.284
16503W        W84976  39.860  21.592   0.304
16504W        W84977  42.440   2.884  13.795
16505W        W84978  19.541   1.960   4.698
16506W        W84979  16.662  35.856  13.483
16507W        W84980   8.221  23.521  14.477
16508W        W84981   9.840  10.186  12.449
16509W        W84982  21.589   8.718  14.276
16510W        W84983  11.703  38.030   3.245
16511W        W84984  14.336  10.378   1.830
16512W        W84985  10.809  16.318   0.381
16513W        W84986  44.368  18.749   3.154
16514W        W84987  30.556  18.238   2.782
16515W        W84988   8.771  15.778   9.996
16516W        W84989  44.474  26.522  11.569
16517W        W84990  38.017  34.079  13.430
16518W        W84991  23.122   7.265   1.417
16519W        W84992  19.247  41.009   1.277
16520W        W84993  20.270  35.935   2.217
16521W        W84994  23.228  26.476   3.294
16522W        W84995  21.090   9.233   4.307
16523W        W84996  21.145  25.126   2.802
16524W        W84997  12.120  11.698   2.245
16525W        W84998  22.594  31.065  12.852
16526W        W84999  33.079  33.584   1.432
16527W        W85000  32.487  12.159   4.640
16528W        W85001   3.758  25.192   2.384
16529W        W85002  37.075  25.979   4.755
16530W        W85003  36.880  41.859   4.687
16531W        W85004  32.976  23.154  11.014
16532W        W85005  30.998  24.587   1.315
16533W        W85006   2.456  17.677  14.909
16534W        W85007   2.402  32.483   2.404
16535W        W85008  31.491  31.423   1.326
16536W        W85009  35.462  44.934  10.973
16537W        W85010  12.744   2.447   3.674
16538W        W85011   9.162  35.912   5.131
16539W        W85012  41.927   6.308  11.429
16540W        W85013   5.368   4.381   3.710
16541W        W85014  21.256   6.701  14.416
16542W        W85015  15.233  29.667  12.040
16543W        W85016   3.240   4.254  10.923
16544W        W85017  13.818  35.897  13.055
16545W        W85018  31.606  22.182   1.831
16546W        W85019  10.258   9.162  10.505
16547W        W85020  37.450   3.769   3.297
16548W        W85021  28.106  19.716  14.956
16549W        W85022  42.980  41.997   2.700
16550W        W85023  41.312   2.941   1.286
16551W        W85024  33.099  33.490  13.496
16552W        W85025  28.658   1.252  12.945
16553W        W85026  14.202   2.388   2.892
16554W        W85027   7.873  15.599  14.012
16555W        W85028  36.507   0.441  13.986
16556W        W85029  12.148  24.632  10.431
16557W        W85030  32.015   7.263   4.792
16558W        W85031  28.589  41.323   5.190
16559W        W85032   2.960  35.067  11.510
16560W        W85033   9.865  36.392   1.850
16561W        W85034  12.791   8.680   1.279
16562W        W85035  19.101   5.262   3.808
16563W        W85036  10.758  42.350   4.155
16564W        W85037   4.375  27.954  12.561
16565W        W85038  31.903  36.090   2.694
16566W        W85039  39.920  28.643  14.897
16567W        W85040  12.698   8.201  13.793
16568W        W85041  34.990  39.994  14.345
16569W        W85042  40.950  29.097  12.964
16570W        W85043  23.175  44.953  14.381
16571W        W85044  34.910   0.248   1.230
16572W        W85045  24.479   5.208   3.192
16573W        W85046  41.834  37.075  11.964
16574W        W85047   1.956  44.768  10.945
16575W        W85048  27.953  11.349   1.249
16576W        W85049   8.849  22.197   3.221
16577W        W85050  26.699  34.871  14.875
16578W        W85051  10.866  16.745   4.211
16579W        W85052   7.290  38.553   4.220
16580W        W85053   4.419  10.791   0.930
16581W        W85054   2.472   3.714   4.168
16582W        W85055  23.083  32.533   2.900
16583W        W85056  35.445  26.969   4.824
16584W        W85057  14.285  32.439   2.759
16585W        W85058  37.582  28.637  14.483
16586W        W85059  28.073   4.415   4.181
16587W        W85060  38.955   0.468   2.193
16588W        W85061  13.264  34.984  10.962
16589W        W85062  36.446  33.906   3.630
16590W        W85063  35.958  30.636   3.172
16591W        W85064  22.556   6.300   2.276
16592W        W85065  43.460  23.543  10.434
16593W        W85066  43.970  23.531  11.524
16594W        W85067  40.834  14.615   4.267
16595W        W85068   1.758  41.786   3.343
16596W        W85069  12.626   1.909  13.865
16597W        W85070  32.442  41.303  14.990
16598W        W85071  26.112   4.445  12.932
16599W        W85072  20.661  19.549   0.389
16600W        W85073  14.133  23.116  14.357
16601W        W85074  15.179  14.289  12.501
16602W        W85075  14.144  36.392   4.784
16603W        W85076  34.580  38.566  11.060
16604W        W85077  10.651  32.947  12.974
16605W        W85078   4.942   5.758   4.763
16606W        W85079  17.558  29.053   0.436
16607W        W85080  18.052  18.193  12.342
16608W        W85081  32.126  21.623   0.895
16609W        W85082  30.435  32.114   3.682
16610W        W85083  25.662  15.150   2.835
16611W        W85084   1.770  15.583  14.032
16612W        W85085  13.600  17.747   4.272
16613W        W85086  29.138  36.972   2.280
16614W        W85087  10.848  18.156  14.320
16615W        W85088  38.910  31.058  13.434
16616W        W85089   5.263  14.710   4.220
16617W        W85090  27.638  35.063  13.965
16618W        W85091  10.715  11.305   4.778
16619W        W85092  15.708   2.442   3.377
16620W        W85093   0.856  16.717   1.452
16621W        W85094  11.777  44.918   3.843
16622W        W85095  38.510  10.751  12.030
16623W        W85096  19.094  21.244  13.427
16624W        W85097  29.542   7.212  12.952
16625W        W85098   7.389  33.906  13.809
16626W        W85099   4.708  26.560  12.876
16627W        W85100   3.892  42.410  12.855
16628W        W85101  23.667  24.102   4.275
16629W        W85102  21.601  14.802   4.783
16630W        W85103  12.196  42.370  11.009
16631W        W85104   4.341   1.861   4.685
16632W        W85105  33.986  30.949   4.768
16633W        W85106   8.825  33.407   2.344
16634W        W85107  22.194  22.604  13.518
16635W        W85108  26.611  13.222   0.314
16636W        W85109  30.585  22.633   2.307
16637W        W85110  13.612   8.869   3.348
16638W        W85111   3.930   2.748  14.478
16639W        W85112  19.162  25.628  11.504
16640W        W85113  19.576  39.443   1.873
16641W        W85114  16.188   8.222   2.878
16642W        W85115  29.118  21.727   2.816
16643W        W85116  35.877  18.296  11.000
16644W        W85117   2.728   6.748   3.351
16645W        W85118  30.493  31.968  11.873
16646W        W85119  22.730  11.244  12.453
16647W        W85120   6.262  24.503   2.271
16648W        W85121   2.404  11.656  14.338
16649W        W85122  26.991   6.329  13.910
16650W        W85123   3.445  28.043  11.595
16651W        W85124  29.933  42.502   3.376
16652W        W85125  32.953  33.091  11.990
16653W        W85126  31.587  20.767  11.105
16654W        W85127  27.488   7.889   0.406
16655W        W85128  13.649  37.939   3.182
16656W        W85129   6.347  19.645   2.284
16657W        W85130   9.202  38.969   3.290
16658W        W85131   3.425   8.764   2.665
16659W        W85132   0.849   8.828   3.371
16660W        W85133  24.655  31.543  11.015
16661W        W85134  40.945  39.916   0.467
16662W        W85135  42.332  43.876   1.402
16663W        W85136  32.978  29.082  12.366
16664W        W85137  23.645  25.041   4.771
16665W        W85138  23.707  29.604   0.727
16666W        W85139  36.526  13.787   1.240
16667W        W85140  43.838   2.355   2.215
16668W        W85141  11.765  15.748  13.798
16669W        W85142  32.972  29.945   3.294
16670W        W85143   9.213  34.001   9.489
16671W        W85144  18.599  39.011   0.786
16672W        W85145  13.775  29.167  13.863
16673W        W85146   9.192  44.927  12.856
16674W        W85147   9.258  42.503   3.653
16675W        W85148  11.176  22.067  11.492
16676W        W85149   7.834  32.115   4.621
16677W        W85150  20.697  10.310  14.343
16678W        W85151   8.348  17.739   4.250
16679W        W85152   4.937  33.588   0.908
16680W        W85153   7.195  22.500  13.470
16681W        W85154  40.471  38.985   4.190
16682W        W85155   5.310  27.690  11.117
16683W        W85156  35.998  35.454  13.809
16684W        W85157  35.415  16.704   4.207
16685W        W85158  33.083  28.096   3.302
16686W        W85159  34.068  16.783  14.445
16687W        W85160  44.362  10.256   3.668
16688W        W85161  39.424  27.131   2.710
16689W        W85162  20.087  33.878   0.876
16690W        W85163  44.943   0.260  13.914
16691W        W85164  21.095  26.067  11.001
16692W        W85165  19.571  10.867  12.095
16693W        W85166  23.122  41.020   4.154
16694W        W85167   0.983   0.769  11.855
16695W        W85168  12.628  37.369  10.906
16696W        W85169  36.913   4.909  13.891
16697W        W85170  24.700  25.186   0.351
16698W        W85171  21.734  19.237   3.153
16699W        W85172  11.847   0.277  11.594
16700W        W85173  35.894  44.458  10.559
16701W        W85174  26.149  16.309   1.384
16702W        W85175   7.900  29.153  12.011
16703W        W85176  26.190   0.976  12.421
16704W        W85177   9.737  37.393   0.939
16705W        W85178  15.605  22.042  12.531
16706W        W85179  18.173  16.723   4.206
16707W        W85180  36.468  36.481   1.886
16708W        W85181   4.449  32.059  10.948
16709W        W85182  20.666  26.154   9.569
16710W        W85183  32.980  41.938   2.256
16711W        W85184  12.676  22.149   1.728
16712W        W85185  32.470   5.359   0.907
16713W        W85186  25.481   7.689  13.875
16714W        W85187  10.171  36.355   1.236
16715W        W85188   8.288   2.834  11.969
16716W        W85189   0.919   8.229  10.633
16717W        W85190  35.564  23.224   2.418
16718W        W85191  39.850  23.614  12.033
16719W        W85192  14.321   6.340   0.364
16720W        W85193  37.051  33.910   4.699
16721W        W85194   3.278  38.971  13.827
16722W        W85195  25.980  21.735   0.788
16723W        W85196  42.342  36.377   1.825
16724W        W85197  38.560   2.338  13.026
16725W        W85198  15.230  31.585  14.422
16726W        W85199  16.115   6.212  13.313
16727W        W85200  38.820  40.418  11.418
16728W        W85201   0.776  27.950   1.831
16729W        W85202   5.265   3.280  12.016
16730W        W85203  25.520  44.395  10.415
16731W        W85204  14.621  23.550   2.903
16732W        W85205  23.680  12.205  10.455
16733W        W85206   7.704  35.424  10.964
16734W        W85207  18.154  29.002   4.212
16735W        W85208  38.429  36.434  14.005
16736W        W85209  32.484   5.333  13.313
16737W        W85210  42.876  29.584  11.399
16738W        W85211  25.073   8.656   2.751
16739W        W85212  30.144  25.543   2.672
16740W        W85213  42.022   7.253   3.664
16741W        W85214  21.197  36.904  12.426
16742W        W85215  23.639  37.433  14.488
16743W        W85216  42.424  37.908  14.947
16744W        W85217  31.642  16.580  14.975
16745W        W85218  14.096  38.952   1.746
16746W        W85219  27.527  32.505  13.389
16747W        W85220  10.863  14.797   1.338
16748W        W85221  12.349  36.079   3.651
16749W        W85222  15.136  17.188   4.612
16750W        W85223  34.991  37.030  10.563
16751W        W85224  13.256  12.202  12.074
16752W        W85225  43.904  31.502  13.381
16753W        W85226  39.518  21.196  13.438
16754W        W85227  25.600  40.945   2.229
16755W        W85228  12.217   7.883   1.833
16756W        W85229   5.437  35.887  12.036
16757W        W85230  20.178  23.676  12.860
16758W        W85231  18.217  20.713  13.326
16759W        W85232   7.865   1.892  10.005
16760W        W85233  24.116  27.611  11.053
16761W        W85234  10.138  21.173  10.610
16762W        W85235  42.929  24.104  11.868
16763W        W85236  33.112  29.059  13.324
16764W        W85237  37.922  34.595   5.171
16765W        W85238  44.942   4.874   9.932
16766W        W85239  43.295  24.221   3.772
16767W        W85240  44.428  19.635  12.541
16768W        W85241  31.932  43.284   1.735
16769W        W85242   4.850  35.514   3.690
16770W        W85243  25.537  19.256  12.958
16771W        W85244   4.861  28.931  12.049
16772W        W85245  31.934  16.762   0.380
16773W        W85246  41.511  33.411   2.676
16774W        W85247  10.723  27.176   1.708
16775W        W85248   1.806  40.319  11.936
16776W        W85249  43.487  28.959  12.974
16777W        W85250  35.442  25.131  14.809
16778W        W85251  25.553  43.786  12.377
16779W        W85252  17.285  30.611  11.553
16780W        W85253  37.485  44.784   3.318
16781W        W85254  30.595   7.911  12.541
16782W        W85255   8.768  39.365   2.752
16783W        W85256  31.899  40.838  11.031
16784W        W85257  20.029  23.599   1.874
16785W        W85258   3.374  40.435  11.481
16786W        W85259  16.689  39.400   3.291
16787W        W85260   5.310  28.181  10.418
16788W        W85261  41.534  38.443   2.311
16789W        W85262  20.560  27.986   2.679
16790W        W85263  13.286  26.497   5.224
16791W        W85264  12.117  20.614  12.579
16792W        W85265  17.119  14.233   4.705
16793W        W85266  18.217  39.451  14.981
16794W        W85267  31.112  31.503  12.860
16795W        W85268  29.014  24.178   0.278
16796W        W85269  13.277  42.485  12.567
16797W        W85270  34.509  27.512   1.723
16798W        W85271  19.130   2.876   0.768
16799W        W85272  11.237  41.386   2.371
16800W        W85273  21.627  37.061   2.306
16801W        W85274  15.812  33.898   4.615
16802W        W85275  43.313  12.630   3.851
16803W        W85276  24.684  20.741  11.070
16804W        W85277  12.292  37.335  11.997
16805W        W85278  16.691  42.815   4.829
16806W        W85279  44.988  24.190  11.430
16807W        W85280   9.236  17.762  13.459
16808W        W85281   2.822  43.302   3.245
16809W        W85282   9.386  18.061   4.213
16810W        W85283   4.227  13.111  10.567
16811W        W85284  15.204  15.623  10.606
16812W        W85285  15.216   2.764  12.877
16813W        W85286  33.393  11.260  11.106
16814W        W85287  19.248   6.681  13.431
16815W        W85288  37.838  29.604  13.404
16816W        W85289  17.653  35.459   1.225
16817W        W85290  26.591  15.311  13.547
16818W        W85291  16.124  41.003  11.885
16819W        W85292  11.827   2.940  12.895
16820W        W85293  26.146  24.604   2.408
16821W        W85294  10.698   0.795  12.466
16822W        W85295   6.278  19.761   4.264
16823W        W85296   0.807   3.438   1.760
16824W        W85297   5.214  24.207  13.056
16825W        W85298  40.879  24.086   1.773
16826W        W85299   5.205  36.902  12.546
16827W        W85300  34.375  42.355   2.798
16828W        W85301  22.732  16.704  11.913
16829W        W85302  44.906  22.745  12.055
16830W        W85303  25.604  10.821  14.494
16831W        W85304  13.210  38.915   2.201
16832W        W85305  17.604  16.643   2.361
16833W        W85306  12.784  21.533  13.502
16834W        W85307  23.067  38.395  13.400
16835W        W85308  30.926  27.570  12.930
16836W        W85309  39.905   0.363   3.256
16837W        W85310  35.883  20.593  10.996
16838W        W85311   2.790   2.351  12.494
16839W        W85312   4.407  44.353  10.507
16840W        W85313  43.861  17.713   0.838
16841W        W85314   1.786   5.324   0.940
16842W        W85315  26.541  35.020   0.788
16843W        W85316  15.674  40.942   3.196
16844W        W85317  18.076  41.884  14.413
16845W        W85318   7.766   8.263   0.928
16846W        W85319  29.146  19.727  13.993
16847W        W85320  40.051  32.551  12.455
16848W        W85321  32.038  30.039  13.397
16849W        W85322  14.664  36.076   3.716
16850W        W85323  22.034   8.809   4.183
16851W        W85324  20.585  14.724   3.260
16852W        W85325  24.188  21.563   2.698
16853W        W85326  26.190  18.263  13.051
16854W        W85327  31.038  23.631   0.343
16855W        W85328  11.214   3.764   3.858
16856W        W85329  30.980  34.393   1.899
16857W        W85330  10.203  23.664  13.426
16858W        W85331  26.621   4.859   2.400
16859W        W85332  28.147  43.356  14.462
16860W        W85333  43.301   7.272   1.904
16861W        W85334  21.708   2.469  11.977
16862W        W85335  42.804  44.347   0.753
16863W        W85336  40.404  44.484   5.086
16864W        W85337  35.485   2.342   4.813
16865W        W85338  25.668  12.656   3.310
16866W        W85339   7.716  15.114  12.472
16867W        W85340  17.569   4.346   4.836
16868W        W85341  17.296  10.349   5.103
16869W        W85342  44.381  10.359  13.915
16870W        W85343  13.290  19.614   0.858
16871W        W85344  15.179  19.739   2.870
16872W        W85345  16.180  35.392  10.927
16873W        W85346   7.191  44.272  10.418
16874W        W85347  22.514  10.167  11.975
16875W        W85348   0.937  22.070  12.049
16876W        W85349  33.999  19.717  11.054
16877W        W85350  16.652  33.380   2.840
16878W        W85351  33.103  36.999  10.992
16879W        W85352  38.480  24.691  12.835
16880W        W85353  16.124  37.436   2.690
16881W        W85354  34.603   8.243  13.007
16882W        W85355  16.228   6.712   0.255
16883W        W85356  44.271  37.500   4.641
16884W        W85357  43.877   2.918   1.704
16885W        W85358  10.756  12.280  12.395
16886W        W85359   7.210  42.778  14.330
16887W        W85360  20.709   8.307   1.741
16888W        W85361   0.881  40.473  14.481
16889W        W85362  24.660  30.526   2.194
16890W        W85363  34.087  42.945   4.278
16891W        W85364  38.948  23.603  12.447
16892W        W85365  38.846  35.942   4.348
16893W        W85366  18.206   3.262  14.278
16894W        W85367  15.314  43.880  13.425
16895W        W85368  29.980  27.166   3.647
16896W        W85369  15.266  39.427   2.224
16897W        W85370  14.259  31.124   0.397
16898W        W85371  10.637  39.370  12.418
16899W        W85372  41.511  22.529  12.044
16900W        W85373  20.627  22.632  14.913
16901W        W85374  19.088  17.634   2.719
16902W        W85375  17.798  32.470   1.430
16903W        W85376  19.548  30.945  11.060
16904W        W85377  33.113  37.404   9.981
16905W        W85378  13.771  36.523   4.297
16906W        W85379  31.910  30.132   4.132
16907W        W85380  18.743  28.070  11.881
16908W        W85381  36.511   3.949   0.831
16909W        W85382   6.329  25.714   2.183
16910W        W85383  44.299  34.421  13.475
16911W        W85384  15.622  32.018   0.356
16912W        W85385  16.671  15.313   1.792
16913W        W85386  10.681  44.931  12.391
16914W        W85387  34.458  30.145   3.236
16915W        W85388  10.852  11.761   1.764
16916W        W85389  34.090  10.338  14.515
16917W        W85390  38.828   5.845  13.031
16918W        W85391  18.257  44.863  10.528
16919W        W85392  36.918  33.550   4.830
16920W        W85393  42.949  15.167   3.708
16921W        W85394  11.193  30.120   3.354
16922W        W85395  39.837  22.085   0.459
16923W        W85396  42.317  20.206   1.701
16924W        W85397  11.867  12.295  13.471
16925W        W85398  37.552  22.189   2.367
16926W        W85399  15.319  32.587  14.769
16927W        W85400  36.500  23.647   2.782
16928W        W85401  12.634  32.605  12.042
16929W        W85402  35.853   6.246   3.782
16930W        W85403   4.734  18.195  10.635
16931W        W85404   6.341   7.407   0.770
16932W        W85405  25.192  23.617   0.321
16933W        W85406  32.123  17.282   0.800
16934W        W85407  32.067  39.956  10.588
16935W        W85408   8.402   7.402   3.835
16936W        W85409  10.748  21.606  14.902
16937W        W85410  14.686  26.668   0.381
16938W        W85411  21.742  27.150   3.369
16939W        W85412  20.543  44.328   1.234
16940W        W85413   4.832  12.727  10.930
16941W        W85414   4.209   4.814   4.140
16942W        W85415  18.249  37.879  10.493
16943W        W85416   5.904   5.742  13.363
16944W        W85417  10.646  28.532  12.973
16945W        W85418  16.783  41.457  13.382
16946W        W85419  25.545  35.477   0.392
16947W        W85420  38.440   4.806  12.546
16948W        W85421  12.313   1.477  14.365
16949W        W85422   7.751  13.141   4.280
16950W        W85423  34.053  43.803   1.932
16951W        W85424  42.363  20.606  13.871
16952W        W85425  40.389  33.620  13.491
16953W        W85426  31.084   7.813  13.449
16954W        W85427  23.003  30.916   2.715
16955W        W85428  30.150  42.461  11.054
16956W        W85429  27.967  37.030  12.002
16957W        W85430   9.673  10.731   3.271
16958W        W85431  34.571  39.942  12.361
16959W        W85432  28.133  23.115  11.602
16960W        W85433  24.644  24.588   0.853
16961W        W85434  19.632   4.768  12.351
16962W        W85435   1.431  36.974  11.027
16963W        W85436  42.945  31.604  13.894
16964W        W85437  34.612  24.657  14.430
16965W        W85438   0.335   9.215  13.911
16966W        W85439   7.853  20.185   3.738
16967W        W85440  43.844  18.766  11.459
16968W        W85441  18.638   4.214   1.703
16969W        W85442  27.174  32.624  13.504
16970W        W85443   8.374  44.275   2.810
16971W        W85444   8.786  13.609  14.889
16972W        W85445  25.039  17.669   3.754
16973W        W85446  17.205  39.975  12.859
16974W        W85447   0.890  17.203   1.920
16975W        W85448   1.424   9.835  14.451
16976W        W85449  12.325  25.606   2.772
16977W        W85450  14.589  11.370  14.489
16978W        W85451  26.542   1.741   1.414
16979W        W85452  37.053  23.608   2.377
16980W        W85453   4.364  20.598   0.829
16981W        W85454  35.868  43.827   4.150
16982W        W85455   0.317   9.226  14.341
16983W        W85456  36.587  41.329  12.946
16984W        W85457   1.788  12.751   1.847
16985W        W85458  15.222  24.222  13.844
16986W        W85459  15.667  25.630   0.900
16987W        W85460   4.415   1.239   4.163
16988W        W85461  30.955  30.035   0.768
16989W        W85462  26.476   3.715  12.926
16990W        W85463  10.154  29.051   1.450
16991W        W85464   2.432  12.658  13.051
16992W        W85465  27.037  12.337   0.425
16993W        W85466  32.491  41.959   1.280
16994W        W85467   3.893  39.352   3.795
16995W        W85468  16.133  31.067   3.381
16996W        W85469  42.437  18.126  13.809
16997W        W85470  43.365  26.560   2.788
16998W        W85471  21.553  18.636  14.792
16999W        W85472  25.044   2.813   4.315
17000W        W85473  33.954   8.891  13.825
17001W        W85474  42.303  14.800   2.771
17002W        W85475  28.562   5.931   1.226
17003W        W85476  40.399  19.707  14.020
17004W        W85477   5.831   6.283   1.435
17005W        W85478   7.328   3.807   4.240
17006W        W85479  22.021   1.967  11.567
17007W        W85480  36.911   9.192   3.803
17008W        W85481  25.550  42.985  10.951
17009W        W85482  19.734  24.089  14.413
17010W        W85483  42.929   3.445  11.868
17011W        W85484   8.724  24.194   1.449
17012W        W85485  34.436   0.912   2.201
17013W        W85486  10.805  34.021  12.052
17014W        W85487  30.429  21.088   0.417
17015W        W85488   2.761  41.971   1.867
17016W        W85489  29.539   9.381  13.058
17017W        W85490  36.057  36.486  14.477
17018W        W85491  10.143  10.848  12.380
17019W        W85492  43.809  34.121   0.963
17020W        W85493   3.877   2.848  13.003
17021W        W85494  28.641  25.036   2.320
17022W        W85495  42.483   2.733   1.358
17023W        W85496  24.501  18.213   1.297
17024W        W85497   4.374  43.990  11.381
17025W        W85498  12.824  37.344  12.925
17026W        W85499  34.018   5.825  12.575
17027W        W85500  11.141  22.069   1.842
17028W        W85501  43.466   6.807  13.058
17029W        W85502  10.151  29.121   2.850
17030W        W85503  20.199  24.503  10.632
17031W        W85504   1.776  35.075  14.961
17032W        W85505  38.443  38.053   1.272
17033W        W85506  29.054   4.449   1.839
17034W        W85507  19.045  35.948   4.775
17035W        W85508  17.223  17.204   3.637
17036W        W85509  18.547   1.886  11.583
17037W        W85510  14.616  17.102   2.246
17038W        W85511  19.265  41.403  13.362
17039W        W85512  12.191   5.361   2.379
17040W        W85513  11.196  35.521   3.781
17041W        W85514  17.194  17.233  12.355
17042W        W85515  17.166   0.324  11.051
17043W        W85516  10.823  26.128   1.747
17044W        W85517  19.246  11.718   3.254
17045W        W85518   2.951  11.254   3.214
17046W        W85519  39.395   3.768   3.179
17047W        W85520   8.191  24.541  14.011
17048W        W85521  43.455  37.358   4.629
17049W        W85522  23.568  27.579  10.641
17050W        W85523  44.502  12.178  10.404
17051W        W85524  27.671  23.628  12.076
17052W        W85525  33.955  17.291   2.879
17053W        W85526  10.759  11.769  12.834
17054W        W85527  12.239   4.317   2.774
17055W        W85528  29.128  21.749  14.776
17056W        W85529  11.690  18.286   3.739
17057W        W85530  26.590  13.333   1.213
17058W        W85531  35.478   2.227   1.363
17059W        W85532  24.571   2.835  13.822
17060W        W85533  42.405   8.681   1.332
17061W        W85534  25.000  44.433   1.229
17062W        W85535  11.746  21.249   4.342
17063W        W85536  37.894   1.357  10.554
17064W        W85537   3.760  36.057   1.305
17065W        W85538  23.560  13.754   9.991
17066W        W85539  17.265  18.724   0.386
17067W        W85540   9.379  16.715   0.758
17068W        W85541  13.645  17.196  13.793
17069W        W85542  43.950  31.951  11.594
17070W        W85543   5.346  38.542   4.599
17071W        W85544  36.066  13.821  11.544
17072W        W85545  30.570  31.145  11.967
17073W        W85546  36.517  16.106   1.924
17074W        W85547  41.870  14.324   4.320
17075W        W85548   3.248  20.129  10.992
17076W        W85549  23.091   5.334  13.830
17077W        W85550   4.853   2.415  14.825
17078W        W85551  37.375  30.149   3.151
17079W        W85552  29.538  43.855   3.723
17080W        W85553  34.018  27.036   3.767
17081W        W85554  27.135  20.582  13.032
17082W        W85555   2.902  30.532  10.912
17083W        W85556  35.401  39.846   2.714
17084W        W85557  38.340  39.425   4.622
17085W        W85558  15.135   3.340  14.905
17086W        W85559  22.592   1.298   0.274
17087W        W85560  28.442  33.047   2.830
17088W        W85561  28.151  10.296   3.222
17089W        W85562  28.449  10.715  12.060
17090W        W85563  14.186  22.170   3.795
17091W        W85564  34.978  15.803   1.769
17092W        W85565   4.427  27.966  13.913
17093W        W85566  14.332  25.077  11.923
17094W        W85567  24.999  40.509  11.983
17095W        W85568  30.907  37.431   1.232
17096W        W85569  39.852  18.285   2.287
17097W        W85570  14.158  33.045  14.387
17098W        W85571  30.029  33.903  13.052
17099W        W85572  42.497   5.708  11.588
17100W        W85573  20.094  44.460  11.024
17101W        W85574  24.008  16.313   4.205
17102W        W85575   1.320   0.460   0.429
17103W        W85576  21.140  27.588   4.740
17104W        W85577  33.482  21.523   3.251
17105W        W85578  15.099  19.752  10.526
17106W        W85579  33.483  18.650  13.802
17107W        W85580  19.579   3.789   0.832
17108W        W85581  10.739  12.824   3.284
17109W        W85582  18.095   6.409   1.294
17110W        W85583   4.772  23.153  13.034
17111W        W85584  26.640  29.631   3.241
17112W        W85585  15.250  41.790   0.938
17113W        W85586  43.822  13.287  12.376
17114W        W85587  22.139  18.254  11.927
17115W        W85588  31.486  29.922   1.775
17116W        W85589  35.006  36.436   2.737
17117W        W85590  42.388  30.525   4.652
17118W        W85591  17.295  34.576  14.977
17119W        W85592  38.836  38.843   0.818
17120W        W85593  10.702  22.627   0.757
17121W        W85594  28.025  11.715   5.088
17122W        W85595  44.826  33.986  13.804
17123W        W85596  12.619  39.420  10.407
17124W        W85597  20.122  28.044  11.928
17125W        W85598  22.572  38.860   0.873
17126W        W85599  23.138  41.299   3.806
17127W        W85600  19.611  27.597  14.313
17128W        W85601  13.719  42.315   3.753
17129W        W85602  11.291   9.825   1.835
17130W        W85603  44.363  22.664   9.959
17131W        W85604  42.019  10.787   1.922
17132W        W85605  17.774  27.518  10.933
17133W        W85606  21.234   5.210   3.653
17134W        W85607   7.276  16.667  11.121
17135W        W85608  24.083  39.017   1.329
17136W        W85609  11.314  25.027  11.032
17137W        W85610  29.549   9.781  14.865
17138W        W85611  13.642  11.690  10.967
17139W        W85612  14.741  42.864  13.913
17140W        W85613  31.474   8.362  13.417
17141W        W85614   0.282   8.167  10.944
17142W        W85615  13.741  30.518   3.817
17143W        W85616   6.388  22.631  12.569
17144W        W85617  24.162  33.000  12.092
17145W        W85618  22.113  17.702   1.393
17146W        W85619  16.599  39.498   3.865
17147W        W85620   8.370   4.218  11.105
17148W        W85621  35.943  33.927  10.635
17149W        W85622   0.371   4.773   4.300
17150W        W85623  36.503  38.416   0.780
17151W        W85624  43.506   1.869  12.865
17152W        W85625  18.788  28.013   3.633
17153W        W85626  44.987  17.715   0.878
17154W        W85627   2.288   4.377  13.890
17155W        W85628  20.726   5.360  14.279
17156W        W85629   6.704  25.024  13.031
17157W        W85630  37.341  34.994  11.968
17158W        W85631   2.780  25.023  12.428
17159W        W85632  14.792  12.688  14.772
17160W        W85633  43.782  25.691  13.313
17161W        W85634  27.045   5.224   1.243
17162W        W85635   2.926  22.240   0.901
17163W        W85636  18.600  13.721  12.390
17164W        W85637  10.823  25.625  11.954
17165W        W85638   7.861  19.737   3.642
17166W        W85639  38.982  34.586   0.345
17167W        W85640   8.899  43.779  10.965
17168W        W85641  22.178  17.171   2.670
17169W        W85642  21.513  35.434  13.805
17170W        W85643  15.157  38.850   2.191
17171W        W85644  20.105  24.021   1.883
17172W        W85645  11.803  15.238   4.277
17173W        W85646  14.627  35.568   3.844
17174W        W85647  15.637  35.549   4.332
17175W        W85648  42.316  20.708  14.838
17176W        W85649   6.874  10.695   1.717
17177W        W85650  14.669  38.875  12.841
17178W        W85651  17.237  37.996  10.501
17179W        W85652  39.001  15.180   5.084
17180W        W85653  39.839   1.444   3.640
17181W        W85654  10.712  16.630   4.606
17182W        W85655   9.369  16.124  10.581
17183W        W85656  25.963  10.260  12.869
17184W        W85657   8.269  28.110  10.461
17185W        W85658  10.168   3.379  12.991
17186W        W85659  30.582  20.107  14.804
17187W        W85660  39.448  30.136   1.263
17188W        W85661  26.153  14.822  12.907
17189W        W85662  25.022  30.150   0.796
17190W        W85663  35.579  13.130  10.406
17191W        W85664   8.865  44.338   2.898
17192W        W85665  25.627  26.496   4.615
17193W        W85666  34.498   9.256  12.071
17194W        W85667  29.500  22.059  11.404
17195W        W85668  27.052   5.753  10.513
17196W        W85669   7.912  29.474  11.573
17197W        W85670  43.457  39.515   1.357
17198W        W85671   6.706  13.309   2.407
17199W        W85672  15.782  18.629   2.331
17200W        W85673  37.913  22.570   3.721
17201W        W85674  33.908  24.043  12.851
17202W        W85675  13.147  21.197  10.594
17203W        W85676  36.847  26.569   0.726
17204W        W85677  23.119  42.032  13.521
17205W        W85678  13.603   4.297  10.948
17206W        W85679   8.875  19.645  11.592
17207W        W85680   8.870  13.722   2.262
17208W        W85681  11.825   3.263   1.314
17209W        W85682  28.560  43.845   1.368
17210W        W85683  34.602  30.070  12.463
17211W        W85684  33.573  34.870  12.931
17212W        W85685  14.705  23.669  13.054
17213W        W85686  33.469  10.328  12.961
17214W        W85687  26.585  28.957   5.149
17215W        W85688  25.698  34.946   3.671
17216W        W85689  20.085  38.892  13.437
17217W        W85690  25.075  21.543   3.303
17218W        W85691   1.831  42.480  10.621
17219W        W85692  22.087  30.568   0.313
17220W        W85693  34.464  29.048   2.664
17221W        W85694  40.050   4.796  10.497
17222W        W85695  26.094   9.206  12.005
17223W        W85696  27.190  25.170  10.533
17224W        W85697  42.979   2.332  14.906
17225W        W85698   9.245  34.089   3.236
17226W        W85699  35.395  22.071   2.742
17227W        W85700  30.975  33.923   2.807
17228W        W85701  29.055  27.189   4.240
17229W        W85702  30.006  31.943   4.290
17230W        W85703   9.339   2.243  10.953
17231W        W85704  16.197  23.986  10.645
17232W        W85705   2.949  43.336   0.407
17233W        W85706   5.406  21.164   2.400
17234W        W85707  17.590  39.852  12.881
17235W        W85708  28.656  24.717  13.499
17236W        W85709  18.721  37.414  12.082
17237W        W85710  37.891   0.421   4.193
17238W        W85711  12.851  12.129   1.384
17239W        W85712  33.051  34.095  12.397
17240W        W85713  44.805  18.641   2.297
17241W        W85714   7.889  27.118  13.036
17242W        W85715  24.062  34.887   2.417
17243W        W85716  35.463  30.597  11.889
17244W        W85717  30.067   9.306  14.448
17245W        W85718  24.581  30.635  12.944
17246W        W85719   7.841   6.869   4.153
17247W        W85720   3.397   5.688  14.398
17248W        W85721  14.777   9.151   0.925
17249W        W85722  38.402   3.309   4.258
17250W        W85723   3.859  19.051  11.443
17251W        W85724  41.341   4.903   4.147
17252W        W85725  19.549   2.736   2.267
17253W        W85726   5.242  44.938   4.655
17254W        W85727  15.699  29.449  14.488
17255W        W85728  10.793   0.297   0.817
17256W        W85729  13.168   5.332  12.386
17257W        W85730  19.127   3.304   2.315
17258W        W85731  24.525  20.229   1.701
17259W        W85732  31.955  17.801  13.501
17260W        W85733  15.739  20.624   2.903
17261W        W85734  44.756  30.057  11.577
17262W        W85735   0.252  18.666   2.404
17263W        W85736  34.451  30.468   4.650
17264W        W85737  13.213  17.743   4.669
17265W        W85738  40.830  30.103  11.910
17266W        W85739  26.483  40.998  11.446
17267W        W85740  18.725  36.376  11.078
17268W        W85741  22.205  40.801   2.779
17269W        W85742  24.031  43.999  12.091
17270W        W85743   7.233  26.081   2.383
17271W        W85744  34.998  11.212  13.047
17272W        W85745  10.834  16.201  13.871
17273W        W85746  42.862  13.314   1.438
17274W        W85747  40.858  31.627   4.150
17275W        W85748  41.971  31.576  11.444
17276W        W85749  41.912  20.241   4.195
17277W        W85750  12.843  32.539  14.293
17278W        W85751  23.718   6.307  12.895
17279W        W85752  35.034  10.705   0.849
17280W        W85753  27.100  20.643  10.575
17281W        W85754  12.672  41.523  14.768
17282W        W85755  26.487  41.499  11.400
17283W        W85756  35.008   7.214  10.956
17284W        W85757  12.238  13.702  12.079
17285W        W85758  19.162  11.299  11.024
17286W        W85759  29.541  36.359  12.073
17287W        W85760   3.953  31.555  12.404
17288W        W85761  18.192  30.062  10.476
17289W        W85762  17.717  15.684  12.878
17290W        W85763  17.670  41.967   3.298
17291W        W85764  38.984  26.578   0.396
17292W        W85765  23.679   4.260   4.303
17293W        W85766   6.795  26.168  11.985
17294W        W85767  43.946  12.127  14.293
17295W        W85768  21.672  44.285   9.975
17296W        W85769  20.233  33.110   3.258
17297W        W85770   0.330  18.205   4.180
17298W        W85771  33.625  41.968   3.832
17299W        W85772  31.041  39.002  13.327
17300W        W85773  14.105  27.152   2.881
17301W        W85774  44.377  31.087   1.311
17302W        W85775  14.226  21.730  11.879
17303W        W85776  15.156   4.730   2.866
17304W        W85777  37.905  34.975   2.812
17305W        W85778  37.055  20.261   0.258
17306W        W85779  35.563   7.701  12.370
17307W        W85780   7.364  32.527  12.499
17308W        W85781  33.953  38.988   2.282
17309W        W85782  21.043  10.196   2.691
17310W        W85783  33.415  42.445   2.795
17311W        W85784  15.818  22.082  14.380
17312W        W85785   4.812  39.447  13.054
17313W        W85786   6.764  40.808   4.310
17314W        W85787  24.616  38.845   4.295
17315W        W85788  12.678  31.454  10.499
17316W        W85789  13.315   3.232   5.109
17317W        W85790   0.788  40.466  14.915
17318W        W85791  37.556  36.867   2.388
17319W        W85792  43.909  35.551  14.969
17320W        W85793   7.766  34.979   5.190
17321W        W85794  18.164  29.601   3.741
17322W        W85795  37.999   2.932   4.320
17323W        W85796  13.754  41.374   4.350
17324W        W85797  28.117  34.412  12.558
17325W        W85798  22.216  29.031   4.750
17326W        W85799   5.411   6.184   3.825
17327W        W85800  34.037  30.986   0.427
17328W        W85801  30.002  28.442   1.287
17329W        W85802   4.409  21.554   1.426
17330W        W85803   0.889  43.884  10.596
17331W        W85804  21.069   2.228   1.308
17332W        W85805   3.323   4.757  11.606
17333W        W85806  30.981  40.839   2.232
17334W        W85807   1.824   4.824   2.419
17335W        W85808  19.715   0.334   3.746
17336W        W85809  23.139  10.777  12.555
17337W        W85810  15.682  27.452   3.155
17338W        W85811   3.407   1.376   2.737
17339W        W85812   2.466  32.544  11.392
17340W        W85813  39.316  30.565   3.716
17341W        W85814  14.698   6.415  14.930
17342W        W85815  25.580  27.489   0.414
17343W        W85816   7.194  32.454   1.933
17344W        W85817  42.440   3.843  12.893
17345W        W85818  14.292  33.026  11.034
17346W        W85819   1.370  21.583   4.730
17347W        W85820  17.782  22.528   0.874
17348W        W85821  27.113  10.799   1.325
17349W        W85822  16.694  26.020   1.438
17350W        W85823  40.902  12.641   0.759
17351W        W85824  41.368  36.376  14.369
17352W        W85825  32.536  25.025  14.918
17353W        W85826  24.071  13.332   4.740
17354W        W85827  34.439  17.762   2.848
17355W        W85828  15.140   4.850  13.898
17356W        W85829  31.070  26.191   0.843
17357W        W85830   5.872  10.812  14.452
17358W        W85831  16.768  23.997  11.603
17359W        W85832   4.238  22.212  12.831
17360W        W85833   7.234  32.618  11.489
17361W        W85834  31.953   6.185   5.144
17362W        W85835  39.517  24.714  13.397
17363W        W85836  13.734  31.990  13.806
17364W        W85837  44.948  26.130   1.241
17365W        W85838  30.983  40.958  10.596
17366W        W85839  34.592  31.564   0.728
17367W        W85840  42.452  38.929   0.784
17368W        W85841  24.056  22.232   3.716
17369W        W85842  35.010  19.112   0.927
17370W        W85843  41.342  30.561  12.075
17371W        W85844  22.146  19.560   1.915
17372W        W85845   7.868   7.205   1.361
17373W        W85846  34.483  20.687   2.298
17374W        W85847  23.653   5.377  11.538
17375W        W85848   3.865  29.428   1.387
17376W        W85849  39.946  16.202  13.050
17377W        W85850  15.716  29.481   1.807
17378W        W85851  30.152  14.273   3.182
17379W        W85852  33.461  14.310   3.772
17380W        W85853  11.773   6.290  11.931
17381W        W85854  14.229  42.834  12.362
17382W        W85855  35.587   9.286   0.402
17383W        W85856  33.038  21.511  11.518
17384W        W85857  23.671  38.375   1.898
17385W        W85858  11.275   0.288  12.495
17386W        W85859  36.053  29.045   2.835
17387W        W85860  32.102   9.778  10.924
17388W        W85861  22.696  41.017   1.789
17389W        W85862  14.680  41.885   2.761
17390W        W85863  29.082  43.294   0.747
17391W        W85864  27.634  19.777  11.491
17392W        W85865  17.783  10.647  10.571
17393W        W85866  21.135   7.900   2.795
17394W        W85867  21.576  28.003  12.049
17395W        W85868  12.775  39.003  13.052
17396W        W85869   8.330  26.166  10.457
17397W        W85870  20.151  20.626  13.916
17398W        W85871  22.594  35.391  10.964
17399W        W85872  20.177  39.404   2.855
17400W        W85873   1.352   0.311  11.597
17401W        W85874  26.966  44.454   2.191
17402W        W85875   4.846  41.372   3.199
17403W        W85876  42.405  22.600   1.764
17404W        W85877  18.159  43.396   2.868
17405W        W85878  38.327  22.196   2.807
17406W        W85879   8.815  37.459  13.343
17407W        W85880  20.674  26.207   4.693
17408W        W85881  37.069   1.293   0.255
17409W        W85882  16.135   2.945  11.086
17410W        W85883  22.040  20.260  14.485
17411W        W85884  20.664  27.088   9.669
17412W        W85885  39.998  21.237   2.304
17413W        W85886  26.623  11.733  13.821
17414W        W85887  44.465  40.934   1.231
17415W        W85888  15.321  33.948  13.821
17416W        W85889  42.821   9.720   4.835
17417W        W85890  16.805  41.831  11.079
17418W        W85891   6.401  17.182  14.956
17419W        W85892   3.821  24.990   0.962
17420W        W85893  39.964   6.227   0.412
17421W        W85894  19.102  24.011  14.510
17422W        W85895  11.304   1.329   0.729
17423W        W85896   7.742  33.995   1.230
17424W        W85897  11.670  32.419   2.368
17425W        W85898  39.913   6.885   2.816
17426W        W85899   5.703  16.797  12.573
17427W        W85900  34.021  12.797  11.048
17428W        W85901  28.987  43.359   3.387
17429W        W85902  20.198   7.185  14.799
17430W        W85903  26.022  31.461   3.634
17431W        W85904  14.731  38.905  14.927
17432W        W85905  39.873  31.478  11.121
17433W        W85906  22.518  29.429  13.829
17434W        W85907  38.913  39.946  11.438
17435W        W85908  29.477  10.340  10.578
17436W        W85909  25.047  14.658   3.387
17437W        W85910  41.505  36.044  12.527
17438W        W85911  38.984  29.563  13.028
17439W        W85912   6.777  44.496  13.348
17440W        W85913  21.562   5.317   0.728
17441W        W85914  43.336  10.851  10.582
17442W        W85915  35.501  13.631   0.291
17443W        W85916  13.766  41.991  13.326
17444W        W85917  17.586  21.207  12.907
17445W        W85918  15.592  23.671   1.815
17446W        W85919  26.687   8.807   0.437
17447W        W85920  19.772  30.025   1.904
17448W        W85921  18.744  21.653   1.922
17449W        W85922   6.382  24.071   3.869
17450W        W85923  36.542   6.427  12.392
17451W        W85924  40.486   4.888   3.734
17452W        W85925   5.723  39.348   0.790
17453W        W85926  16.209   3.899  14.863
17454W        W85927  24.177  39.366  11.602
17455W        W85928  38.006  23.654   4.215
17456W        W85929  13.777  27.659   2.750
17457W        W85930  25.546   6.849   3.220
17458W        W85931   0.905  38.460  10.569
17459W        W85932  17.262   7.193   2.235
17460W        W85933   9.285  32.619  11.001
17461W        W85934  21.551  36.348   3.297
17462W        W85935   5.411  28.449  13.022
17463W        W85936  21.052  14.170   2.688
17464W        W85937  27.615  19.615   2.296
17465W        W85938  21.724  34.485  10.997
17466W        W85939   3.293  10.239  12.905
17467W        W85940  32.505  38.053  10.895
17468W        W85941   6.427  34.461   4.290
17469W        W85942  41.850   8.872  13.386
17470W        W85943  27.000  25.608   1.809
17471W        W85944  28.088  34.417  11.924
17472W        W85945  11.335  10.833  13.406
17473W        W85946   4.829  11.659   2.898
17474W        W85947  30.566  12.355   1.263
17475W        W85948  38.054   2.468  11.476
17476W        W85949  29.564  12.669   1.872
17477W        W85950  32.972  18.743  13.458
17478W        W85951  44.309  17.643   0.762
17479W        W85952  32.487  24.706  10.903
17480W        W85953  10.835   8.175  12.087
17481W        W85954  30.981  17.306  14.986
17482W        W85955   6.838  16.767   3.641
17483W        W85956  43.455  29.637  14.472
17484W        W85957  36.848  24.180  14.277
17485W        W85958  30.603   7.691  12.030
17486W        W85959  43.806  41.395   1.858
17487W        W85960  32.472  29.453   3.192
17488W        W85961  12.246  25.982  10.571
17489W        W85962  11.789   6.395   0.807
17490W        W85963  32.518  19.672  14.953
17491W        W85964   1.858  43.834   3.361
17492W        W85965  38.509  17.193  13.487
17493W        W85966   4.362  27.497  14.280
17494W        W85967   1.786  25.187   2.859
17495W        W85968  27.944   9.731   1.762
17496W        W85969  38.997  27.571   4.189
17497W        W85970  42.331  23.136  11.881
17498W        W85971  26.638  28.037   0.847
17499W        W85972  10.677  26.181  13.447
17500W        W85973   0.884  23.050   0.457
17501W        W85974  25.679  32.103  11.599
17502W        W85975  20.534  18.257   2.192
17503W        W85976  39.059  27.014  10.928
17504W        W85977   2.928  27.166   4.804
17505W        W85978  42.962  29.462   2.215
17506W        W85979  39.961  19.249   4.687
17507W        W85980  37.534  38.367   3.160
17508W        W85981  13.610  32.086  13.312
17509W        W85982  15.259  25.592   4.615
17510W        W85983  38.848  36.063  12.571
17511W        W85984  32.546  31.999   1.287
17512W        W85985   7.701  39.345  13.995
17513W        W85986   2.896  30.413  12.949
17514W        W85987  44.991   9.756  13.824
17515W        W85988  20.763  43.814   1.851
17516W        W85989  32.488  19.687   0.263
17517W        W85990  27.539  43.294  13.463
17518W        W85991  14.754  22.170  12.536
17519W        W85992  38.401  28.162   4.807
17520W        W85993  26.533  10.642  13.859
17521W        W85994  41.008   0.277   0.309
17522W        W85995  25.636  23.576  11.390
17523W        W85996  33.512  33.458   2.263
17524W        W85997  13.150  26.528  10.595
17525W        W85998  10.186  32.496  11.459
17526W        W85999  15.259   9.359   4.722
17527W        W86000  39.907   4.902  14.330
17528W        W86001  20.528  30.609   2.224
17529W        W86002  26.996  40.507   1.396
17530W        W86003  16.792  42.970  14.278
17531W        W86004  39.438  30.614  14.970
17532W        W86005  41.956  11.816   5.231
17533W        W86006  37.346  28.603  14.926
17534W        W86007   0.493  30.018   1.924
17535W        W86008  27.496  35.417   3.277
17536W        W86009  22.137  13.780   3.668
17537W        W86010  40.860  37.899  12.464
17538W        W86011   3.229   8.776   1.216
17539W        W86012  34.535   8.752  10.404
17540W        W86013  32.996  10.193   2.267
17541W        W86014  21.672  19.539   4.663
17542W        W86015  18.690  25.039   2.821
17543W        W86016  36.033  12.825   1.694
17544W        W86017   7.255   4.794   3.158
17545W        W86018  14.755  37.472  14.825
17546W        W86019  29.592  11.137  12.994
17547W        W86020  30.135  14.602   2.292
17548W        W86021  22.167   1.456   3.209
17549W        W86022  40.991  15.650   5.114
17550W        W86023  18.768   3.944   0.749
17551W        W86024  41.982  37.579  14.881
17552W        W86025  25.042  16.160  12.389
17553W        W86026  26.990   7.353  11.926
17554W        W86027  33.429  25.162   2.663
17555W        W86028  31.986  13.159   1.891
17556W        W86029  20.269  23.695   1.218
17557W        W86030  26.180  35.481   3.302
17558W        W86031  18.572   5.892   4.748
17559W        W86032   9.784  12.670  13.986
17560W        W86033  19.745  32.993  11.386
17561W        W86034  20.068  11.730  12.005
17562W        W86035   4.762  12.857  14.943
17563W        W86036  37.361  27.016  14.988
17564W        W86037   8.252  20.091   2.412
17565W        W86038  20.126  16.583  11.978
17566W        W86039   1.242  38.552  12.823
17567W        W86040  27.965  41.977  14.846
17568W        W86041  36.552  43.471  12.564
17569W        W86042  41.383  25.008   0.316
17570W        W86043  32.082   8.762   5.090
17571W        W86044  40.007  32.472  13.032
17572W        W86045  12.647  39.944   1.229
17573W        W86046  10.803  12.213   3.670
17574W        W86047  37.892   0.394  13.949
17575W        W86048   7.244  30.488  13.503
17576W        W86049  35.074  40.497   1.877
17577W        W86050  15.192  33.985   4.621
17578W        W86051  26.000  17.778  14.821
17579W        W86052  37.405  11.170   3.675
17580W        W86053  28.982  22.236  11.086
17581W        W86054  36.409  11.133  12.829
17582W        W86055  32.512  16.748  14.391
17583W        W86056   4.303  10.171  12.850
17584W        W86057  11.675   7.889   2.712
17585W        W86058   3.849  40.407  14.894
17586W        W86059  42.941  40.019   2.856
17587W        W86060  30.516  10.222  13.415
17588W        W86061   2.754  35.075   0.289
17589W        W86062  36.922  27.691   2.857
17590W        W86063  28.642  21.090  13.400
17591W        W86064  40.987   4.381   4.342
17592W        W86065  15.761   8.166  12.484
17593W        W86066   5.401  22.556  13.321
17594W        W86067  26.679  40.319   2.380
17595W        W86068  43.361  14.215  10.955
17596W        W86069  33.940  43.890  14.020
17597W        W86070   5.219  44.815   0.444
17598W        W86071  32.465  29.175  14.486
17599W        W86072  17.099  30.515  12.451
17600W        W86073  41.836  13.192  10.517
17601W        W86074   6.297  44.886  14.918
17602W        W86075   5.710  37.564   1.828
17603W        W86076  24.171  31.645  12.024
17604W        W86077  40.985  34.425  11.493
17605W        W86078  35.056  18.240   4.264
17606W        W86079  40.932  40.046   3.748
17607W        W86080  42.880  34.914   2.243
17608W        W86081  30.075   6.355  13.823
17609W        W86082  41.972   9.713  14.311
17610W        W86083  11.137  27.192   2.337
17611W        W86084  34.541  10.786  12.342
17612W        W86085  33.479  16.106   3.173
17613W        W86086  38.866  41.848   1.221
17614W        W86087  30.938   7.719   0.420
17615W        W86088   1.282  44.886  13.484
17616W        W86089  32.506  19.245  10.530
17617W        W86090  34.405  20.235  12.041
17618W        W86091  11.764  33.545   3.268
17619W        W86092  29.090  31.987  12.984
17620W        W86093  44.390  41.857  12.340
17621W        W86094  31.075   0.392   2.667
17622W        W86095  33.883   7.885   1.327
17623W        W86096  15.306  24.974  14.321
17624W        W86097  42.498  17.165  10.452
17625W        W86098  15.096  42.028  11.555
17626W        W86099  29.523  29.109   1.697
17627W        W86100  37.001   3.285   4.217
17628W        W86101  23.137  19.244  11.505
17629W        W86102   6.360  38.070  12.479
17630W        W86103  38.058  33.564   0.867
17631W        W86104  28.984  24.168   5.625
17632W        W86105  42.331  26.537  10.539
17633W        W86106  44.002  11.667   2.755
17634W        W86107   1.784  25.539  12.001
17635W        W86108  44.964  34.005  14.490
17636W        W86109  20.527  28.061   0.794
17637W        W86110  28.065  28.448   4.160
17638W        W86111  27.577   0.456   2.832
17639W        W86112  44.380  23.707   9.950
17640W        W86113  43.514  10.730   0.791
17641W        W86114  39.331  32.934   4.182
17642W        W86115   6.861  31.533  12.539
17643W        W86116   8.254  24.124   4.690
17644W        W86117   2.804  39.931  10.964
17645W        W86118  33.003  33.009  14.880
17646W        W86119  32.571  37.957   4.695
17647W        W86120  39.048  29.016   4.787
17648W        W86121  35.454  25.072   2.899
17649W        W86122  36.478  43.496  12.952
17650W        W86123  20.210  34.541  14.029
17651W        W86124  13.224   5.764   4.738
17652W        W86125  21.582   3.273   4.137
17653W        W86126   8.172  19.279  13.862
17654W        W86127  39.313  28.527  14.451
17655W        W86128   7.342  25.671   1.695
17656W        W86129  30.083  34.885   1.290
17657W        W86130  12.731  34.406   4.616
17658W        W86131  25.088  21.071  14.483
17659W        W86132   6.836  36.372  13.325
17660W        W86133   1.823  12.244  14.775
17661W        W86134   8.303  37.026  12.878
17662W        W86135  42.516  30.525   4.124
17663W        W86136  23.623  12.313  12.553
17664W        W86137   4.390  12.688   1.893
17665W        W86138   5.429   9.768  13.001
17666W        W86139  34.046  13.785  13.054
17667W        W86140  30.588  15.221  12.872
17668W        W86141  31.150  10.170  10.576
17669W        W86142  37.027  17.701  13.327
17670W        W86143  14.734  17.754  12.862
17671W        W86144  38.374  14.153  12.929
17672W        W86145  43.445  27.114  14.873
17673W        W86146   1.339  36.068  12.869
17674W        W86147  32.906  41.868  11.576
17675W        W86148  23.222  40.527  13.855
17676W        W86149  28.539  15.593   0.771
17677W        W86150  10.854   2.380   3.181
17678W        W86151  19.753   2.309   2.726
17679W        W86152  13.826   3.387   4.157
17680W        W86153  12.824  21.534  14.854
17681W        W86154   6.907  12.621  13.895
17682W        W86155   6.330  43.346   3.752
17683W        W86156  23.497   7.771  12.342
17684W        W86157  20.189   2.295   0.858
17685W        W86158  11.837  10.179  13.008
17686W        W86159  17.212  27.107   3.771
17687W        W86160   6.250  34.040   2.803
17688W        W86161  28.012  37.020  14.510
17689W        W86162  32.530  30.162   1.721
17690W        W86163   7.780  16.126   0.773
17691W        W86164  41.529   5.777   0.828
17692W        W86165   7.672  13.274   0.301
17693W        W86166  13.626  18.664   2.888
17694W        W86167  35.031  28.148   2.724
17695W        W86168  38.052  21.545  11.007
17696W        W86169  19.671  43.413  10.582
17697W        W86170  33.103  41.035   4.599
17698W        W86171  42.476  36.853   2.679
17699W        W86172  37.880   7.744  14.415
17700W        W86173   6.828  44.370   1.362
17701W        W86174  40.348  36.937  11.383
17702W        W86175  39.453   7.770  14.895
17703W        W86176  30.994  25.599  14.496
17704W        W86177   4.705  19.694   3.732
17705W        W86178  15.162  15.228  13.540
17706W        W86179   6.791  37.554   2.702
17707W        W86180  12.809  40.537  10.891
17708W        W86181  32.107  13.206   0.877
17709W        W86182  14.197   1.292  14.457
17710W        W86183  20.059  18.068   4.784
17711W        W86184  20.531  11.249  11.468
17712W        W86185  11.173   4.231   3.270
17713W        W86186  31.113  22.689  11.081
17714W        W86187  12.741  11.184   1.292
17715W        W86188  29.577  42.834  12.090
17716W        W86189  42.333  34.945  10.577
17717W        W86190  13.321  30.137   3.713
17718W        W86191  35.595   8.872   2.325
17719W        W86192   5.866  15.198   0.730
17720W        W86193  39.384  38.529  11.044
17721W        W86194  21.544  17.755  13.375
17722W        W86195  28.519  13.241   0.265
17723W        W86196  12.269   7.296   3.817
17724W        W86197  38.912  15.090  13.449
17725W        W86198  39.961  31.928   1.855
17726W        W86199  12.200   7.851   2.691
17727W        W86200  18.562   7.816  12.911
17728W        W86201  26.539   6.257  11.402
17729W        W86202   8.664   5.197   0.833
17730W        W86203   0.874  22.231   4.238
17731W        W86204  15.669  23.561   2.860
17732W        W86205  11.762  12.262  11.499
17733W        W86206   5.363  12.792   3.259
17734W        W86207  14.096  11.695   2.830
17735W        W86208   0.812   0.935   4.315
17736W        W86209  18.630  37.416   4.700
17737W        W86210   1.961  12.165  10.627
17738W        W86211  35.406  44.301  12.439
17739W        W86212  44.803  41.925  10.506
17740W        W86213  39.969  10.666  11.461
17741W        W86214   5.240   8.370   1.790
17742W        W86215  26.144  23.216  11.485
17743W        W86216  21.262  40.456   3.246
17744W        W86217  26.187   8.244   3.330
17745W        W86218   2.730  24.017   4.683
17746W        W86219  16.649  38.929  13.380
17747W        W86220  32.113   9.319  14.979
17748W        W86221   9.172  36.010  13.518
17749W        W86222   7.359  23.694  13.831
17750W        W86223  27.163  28.475  12.541
17751W        W86224   5.772  38.857   0.847
17752W        W86225  40.459   0.358  12.941
17753W        W86226   7.760  18.630  12.399
17754W        W86227  19.556   5.910   4.762
17755W        W86228  32.930  15.771  12.070
17756W        W86229  21.733  32.508   0.314
17757W        W86230   3.910  11.792   2.891
17758W        W86231  21.169  26.984  14.413
17759W        W86232  38.008   0.745  11.505
17760W        W86233   0.310  20.531   2.886
17761W        W86234   6.686  10.166   3.250
17762W        W86235   6.224   1.244  10.598
17763W        W86236  28.121  44.846   0.772
17764W        W86237  21.534  15.588  10.611
17765W        W86238  11.637  23.616   0.813
17766W        W86239  24.132  20.621   2.287
17767W        W86240   9.785  43.856   1.409
17768W        W86241  21.585  10.242  10.953
17769W        W86242  10.853  17.185   3.654
17770W        W86243  43.395  18.146  13.454
17771W        W86244  38.907  39.844   9.954
17772W        W86245  40.922  29.097  12.554
17773W        W86246  15.162  38.531  11.466
17774W        W86247  31.910  20.699   4.176
17775W        W86248  41.869  43.000   1.384
17776W        W86249  43.436  23.687   5.128
17777W        W86250  28.103  33.915  13.964
17778W        W86251  29.029  29.533   2.722
17779W        W86252  33.592   1.863   3.689
17780W        W86253  36.062  15.629   4.653
17781W        W86254  24.066  26.600   4.164
17782W        W86255  38.951  23.065   2.252
17783W        W86256  29.660  39.436  14.908
17784W        W86257  36.380  28.611  10.947
17785W        W86258  29.937  35.854   4.181
17786W        W86259  44.763   8.202   2.283
17787W        W86260  24.049   0.430   4.763
17788W        W86261  11.222   6.903  10.542
17789W        W86262  31.496  24.498  11.393
17790W        W86263  33.119  43.434   3.374
17791W        W86264   9.281  18.718  13.005
17792W        W86265  35.555  18.791  12.416
17793W        W86266  25.525  36.901  10.413
17794W        W86267  42.831  17.276   5.149
17795W        W86268  37.540  20.142  11.096
17796W        W86269   6.860  27.491  12.556
17797W        W86270  23.618  33.568   2.822
17798W        W86271  39.915  25.986   3.213
17799W        W86272  25.692  33.002   3.757
17800W        W86273   5.299   3.232   3.734
17801W        W86274  27.140  22.212  11.886
17802W        W86275  12.178  11.747  11.598
17803W        W86276  33.523  27.056   3.385
17804W        W86277  39.877   7.804   0.347
17805W        W86278  44.804  23.578   2.351
17806W        W86279  26.143  32.579   3.208
17807W        W86280  19.736   1.449  14.945
17808W        W86281  12.621  13.175  11.402
17809W        W86282  10.834   7.238  14.495
17810W        W86283  29.938   2.355  14.463
17811W        W86284  13.622  44.888  12.353
17812W        W86285  13.707  24.171   0.291
17813W        W86286  15.754  13.798  13.902
17814W        W86287   9.788  39.528  14.877
17815W        W86288  41.841  25.988  13.514
17816W        W86289  44.448  30.985  10.634
17817W        W86290   0.294  40.019  10.485
17818W        W86291  43.832  42.799   4.728
17819W        W86292  32.139  24.550   3.335
17820W        W86293  26.674   6.837   4.330
17821W        W86294  36.033  20.734   1.439
17822W        W86295  38.329   7.797  11.423
17823W        W86296  25.593   6.807  11.573
17824W        W86297  19.150  26.544  11.871
17825W        W86298   7.816  42.343   4.168
17826W        W86299   8.364  18.142   1.306
17827W        W86300   6.777  24.090   3.759
17828W        W86301   5.330   9.346  10.604
17829W        W86302  25.548   6.229  13.890
17830W        W86303   7.870   1.482  11.515
17831W        W86304  31.041  20.123   0.776
17832W        W86305  17.159  11.706  14.793
17833W        W86306   0.972  24.707   1.865
17834W        W86307   5.762  38.924  13.904
17835W        W86308  39.541   2.949  11.043
17836W        W86309  13.648  38.015   4.838
17837W        W86310  16.147  11.655  13.003
17838W        W86311   4.782  35.051   3.658
17839W        W86312  31.076   3.373   0.437
17840W        W86313   6.243  43.350   1.910
17841W        W86314  43.798   1.757  14.940
17842W        W86315  44.849  13.632   1.813
17843W        W86316   8.812   4.713   4.818
17844W        W86317   1.872  42.514   4.713
17845W        W86318  21.534  20.056   4.227
17846W        W86319  20.127  34.432   4.353
17847W        W86320   6.284   4.397   5.128
17848W        W86321  34.015  29.050  13.369
17849W        W86322   2.745  26.151  11.099
17850W        W86323  13.258  44.297   4.744
17851W        W86324  16.669  35.379   0.967
17852W        W86325   4.922   7.288   0.957
17853W        W86326   9.310  31.036   1.731
17854W        W86327  18.113  37.994   0.366
17855W        W86328  43.289  11.330   3.260
17856W        W86329  43.485  36.506   0.826
17857W        W86330  13.324  35.954   4.270
17858W        W86331  35.431  43.384  12.827
17859W        W86332  36.946  42.866  13.336
17860W        W86333   7.378  41.445   4.682
17861W        W86334  28.477  19.194  14.768
17862W        W86335  13.350  36.536  12.956
17863W        W86336  25.620  32.108   2.809
17864W        W86337  31.071  19.779  12.504
17865W        W86338  39.438  14.256  14.302
17866W        W86339  41.436  34.057  11.041
17867W        W86340  35.087  27.163   2.663
17868W        W86341  10.169   1.969  14.935
17869W        W86342   5.325  29.105  13.949
17870W        W86343  18.696  17.279  13.921
17871W        W86344  16.258  26.075  14.451
17872W        W86345  27.523  37.963  14.956
17873W        W86346  28.092   3.769  14.800
17874W        W86347  41.388  30.110   3.355
17875W        W86348  17.696  27.542  12.561
17876W        W86349   6.310   5.854  10.472
17877W        W86350   7.280   0.284  14.458
17878W        W86351  28.107  17.577   0.347
17879W        W86352  21.187  36.527  11.948
17880W        W86353  38.954  38.916  11.014
17881W        W86354  24.016   8.310  11.046
17882W        W86355   4.219  17.661  13.376
17883W        W86356  12.694  44.409   2.785
17884W        W86357  23.599   8.847  10.616
17885W        W86358  18.787   8.185   4.712
17886W        W86359  13.828  11.172   2.851
17887W        W86360  41.522  27.054  13.328
17888W        W86361  24.566  16.717   0.407
17889W        W86362   7.784  32.012   3.694
17890W        W86363  32.459  13.139  14.897
17891W        W86364  16.310  20.563   3.259
17892W        W86365  33.090  34.512   3.856
17893W        W86366   2.304  12.686   3.363
17894W        W86367  32.532  24.713  13.525
17895W        W86368   4.879  18.666   1.446
17896W        W86369  38.047  31.458   0.892
17897W        W86370  10.178  32.888  14.022
17898W        W86371  16.672   7.722  12.375
17899W        W86372   5.748  40.807   1.934
17900W        W86373  32.005  19.557   3.165
17901W        W86374   0.863   1.859  13.036
17902W        W86375   6.194  23.534  13.927
17903W        W86376  15.674  34.939  14.760
17904W        W86377  32.464  11.729   2.698
17905W        W86378  23.734   8.386   2.217
17906W        W86379  14.237   9.250  13.364
17907W        W86380  39.356  18.687  11.044
17908W        W86381  25.635  13.232   3.725
17909W        W86382  42.393  26.126  11.376
17910W        W86383  44.344  19.660  10.637
17911W        W86384  18.754  21.543   3.795
17912W        W86385  44.307   3.407   4.314
17913W        W86386  30.509   9.658  10.584
17914W        W86387   7.731  21.635  13.061
17915W        W86388  22.040  16.203  11.938
17916W        W86389  33.602  19.204   4.231
17917W        W86390   3.383  21.168  13.339
17918W        W86391  38.410  14.619  14.324
17919W        W86392  24.198   1.448   2.197
17920W        W86393  43.425  43.488   2.309
17921W        W86394  32.474  44.992  11.424
17922W        W86395   3.738  41.812  13.544
17923W        W86396   4.395   3.897  12.035
17924W        W86397   7.856  37.004  11.452
17925W        W86398  10.722  29.090  13.349
17926W        W86399  30.157   1.761  10.978
17927W        W86400  21.688  31.550   4.691
17928W        W86401  31.940  27.635   4.279
17929W        W86402  11.287   0.867   3.793
17930W        W86403  16.093  39.951   1.415
17931W        W86404  15.675  28.548   0.935
17932W        W86405  16.133  23.550  14.276
17933W        W86406  33.480  33.053  11.869
17934W        W86407  29.520  41.469  14.298
17935W        W86408  12.224  44.280   3.870
17936W        W86409  33.590  29.555   2.742
17937W        W86410   2.295  20.643   0.436
17938W        W86411  23.105  36.065   3.781
17939W        W86412  33.885  20.241  13.907
17940W        W86413  21.648  13.258   4.619
17941W        W86414  34.961  31.537  13.850
17942W        W86415  44.955   3.410   4.780
17943W        W86416  36.496  24.510  13.945
17944W        W86417  32.034  38.905   0.763
17945W        W86418  39.020  33.532  14.493
17946W        W86419  12.836  31.005   0.874
17947W        W86420  10.652  16.160  11.945
17948W        W86421  34.879  31.098  10.573
17949W        W86422  34.895  20.559  10.423
17950W        W86423  23.180   5.859  11.874
17951W        W86424  23.054  11.233   2.198
17952W        W86425  27.118  32.903  13.884
17953W        W86426   6.866  28.996  10.928
17954W        W86427   4.240  10.262  13.930
17955W        W86428  18.171  23.027  10.936
17956W        W86429  28.144  27.136   1.294
17957W        W86430  31.118  26.533   5.681
17958W        W86431  15.723  29.942  12.979
17959W        W86432  16.191  14.593  13.529
17960W        W86433  24.071  25.059   0.242
17961W        W86434  26.531   7.314   4.825
17962W        W86435  41.329   7.843  11.885
17963W        W86436  19.039  15.243  14.911
17964W        W86437  39.910  18.776  14.337
17965W        W86438   5.422  33.592   3.330
17966W        W86439   9.858  35.012  13.345
17967W        W86440  25.566  25.026   3.315
17968W        W86441  29.598  36.412  13.011
17969W        W86442  14.174  25.519   4.328
17970W        W86443   5.926  16.087  12.946
17971W        W86444  15.820  42.935  14.362
17972W        W86445  28.127  11.636   1.858
17973W        W86446  37.408  23.113  11.483
17974W        W86447  21.160  18.226  13.315
17975W        W86448  38.375   2.381  13.500
17976W        W86449  14.102   1.848   2.822
17977W        W86450  37.957   1.749   4.741
17978W        W86451  22.690  23.092   2.261
17979W        W86452  33.494  33.442  10.602
17980W        W86453  31.501  10.151   4.603
17981W        W86454  25.574  41.301   0.881
17982W        W86455  43.983  38.489  14.946
17983W        W86456  25.662  20.548  13.901
17984W        W86457   8.713  29.625  10.988
17985W        W86458  23.174  12.684   2.867
17986W        W86459  40.443  35.001  10.504
17987W        W86460   6.718   3.436  12.362
17988W        W86461  27.580  13.280  10.591
17989W        W86462   4.279  36.554  10.579
17990W        W86463  17.296   1.304   3.149
17991W        W86464  26.481  34.385  11.498
17992W        W86465  30.004  10.342   3.694
17993W        W86466  13.761  37.881  11.911
17994W        W86467  23.241  42.293   0.300
17995W        W86468  15.656  31.096  13.544
17996W        W86469  26.524  21.238   9.952
17997W        W86470  15.774  19.214  12.352
17998W        W86471  28.112  33.595   0.360
17999W        W86472  20.154  21.676  11.071
18000W        W86473   0.940  13.257  14.395
18001W        W86474  12.690  19.135  10.550
18002W        W86475  30.592  14.738  12.533
18003W        W86476   3.432  31.903  14.399
18004W        W86477   5.306  42.309   2.194
18005W        W86478  22.089  31.047  11.905
18006W        W86479  22.038   6.801   3.630
18007W        W86480  27.987  39.965  10.912
18008W        W86481  28.109  11.223   4.797
18009W        W86482  23.582   4.409   0.814
18010W        W86483  31.128  32.580   2.857
18011W        W86484   3.241  13.126   3.856
18012W        W86485   6.219  11.775  14.824
18013W        W86486   4.852  43.801   3.639
18014W        W86487  22.130  14.146   1.866
18015W        W86488  36.901  35.552  12.023
18016W        W86489   2.230  33.510  11.981
18017W        W86490  34.006  43.468  13.057
18018W        W86491  38.379   6.361  13.498
18019W        W86492  41.511   7.806  12.479
18020W        W86493  39.451  31.986   4.681
18021W        W86494   0.350  14.786   2.345
18022W        W86495  39.866  35.110   0.322
18023W        W86496  13.781  15.288  12.897
18024W        W86497  41.811  44.947   1.803
18025W        W86498  36.854  37.900  12.931
18026W        W86499  28.085   3.756  10.093
18027W        W86500  19.236  18.547  14.303
18028W        W86501  19.265  37.966   4.187
18029W        W86502  35.965  29.145   3.859
18030W        W86503  27.578   6.836   0.911
18031W        W86504   9.166  32.936   9.511
18032W        W86505  20.685  42.355   0.345
18033W        W86506  17.772  14.278   2.885
18034W        W86507  38.960  31.505   4.777
18035W        W86508  24.045  30.040   3.372
18036W        W86509  18.583  10.839   0.405
18037W        W86510  31.403  11.281  13.853
18038W        W86511   9.270  15.782  11.966
18039W        W86512  29.031  35.956  14.442
18040W        W86513  23.194  35.983   0.423
18041W        W86514   2.763  36.894   0.818
18042W        W86515  10.307   6.223  10.053
18043W        W86516  24.092   4.914   9.964
18044W        W86517   0.301  19.264   4.271
18045W        W86518  25.069  15.778   4.647
18046W        W86519  10.802  10.254  14.487
18047W        W86520  21.180  14.168  13.832
18048W        W86521  39.842  25.495   0.962
18049W        W86522  17.245  28.159  12.439
18050W        W86523   1.323  30.470   2.872
18051W        W86524  13.259  18.707   4.768
18052W        W86525  22.566  36.523   3.706
18053W        W86526   2.813   9.154  11.376
18054W        W86527  26.655   8.262   4.159
18055W        W86528  32.416  35.467   4.756
18056W        W86529   2.826  25.049  12.094
18057W        W86530  19.566  31.496   2.293
18058W        W86531  37.432   0.410  14.471
18059W        W86532  39.942   2.432   1.902
18060W        W86533   8.852  37.569  11.114
18061W        W86534  13.285  41.344  11.612
18062W        W86535  31.498  12.844   0.912
18063W        W86536   4.364   9.718   1.791
18064W        W86537   0.373  35.581  13.869
18065W        W86538   2.438   2.785   0.467
18066W        W86539   0.842   7.891  11.413
18067W        W86540  24.187  25.010  12.053
18068W        W86541  21.146  12.161   2.347
18069W        W86542  44.753   5.703   3.834
18070W        W86543  14.306   1.262  10.525
18071W        W86544  23.239  37.412  12.934
18072W        W86545  22.062  22.078   1.930
18073W        W86546  31.912   0.373   4.772
18074W        W86547   5.290  17.695  14.953
18075W        W86548  11.868  30.134   1.766
18076W        W86549  15.124  23.736  12.001
18077W        W86550   2.744   7.761  11.095
18078W        W86551  43.942  33.476   4.213
18079W        W86552  39.399  17.795   3.338
18080W        W86553  32.396   3.391   3.238
18081W        W86554  39.973  33.386   2.720
18082W        W86555  34.554  41.428   0.835
18083W        W86556  37.513  11.214   0.275
18084W        W86557  36.040  14.737  10.593
18085W        W86558   9.667  28.545  14.982
18086W        W86559  42.862   0.815  10.420
18087W        W86560  15.618  15.634  12.480
18088W        W86561  32.130  39.429   0.399
18089W        W86562  25.986  19.539   0.318
18090W        W86563  38.981  18.781   1.892
18091W        W86564  11.860  37.951  13.903
18092W        W86565  37.363  39.972  10.510
18093W        W86566  43.371   5.857  12.882
18094W        W86567  20.045  44.474   1.891
18095W        W86568  32.003  38.561   2.323
18096W        W86569  34.868   3.877   2.733
18097W        W86570  25.197  30.624  13.843
18098W        W86571   8.166  27.157   0.733
18099W        W86572  29.070   1.961  12.032
18100W        W86573   3.876  32.891  12.495
18101W        W86574  29.597  36.477  14.013
18102W        W86575  17.237  13.604   9.963
18103W        W86576  36.853  15.181  13.403
18104W        W86577  27.028  13.765  11.109
18105W        W86578   5.889  21.262  13.049
18106W        W86579  15.264  40.316  14.465
18107W        W86580  35.572  43.315   3.337
18108W        W86581  25.126   7.361   4.216
18109W        W86582  24.696  43.426  12.832
18110W        W86583  33.543  17.626   1.885
18111W        W86584  15.614  11.149  14.930
18112W        W86585  10.636  28.507   2.220
18113W        W86586  33.621  35.931   1.727
18114W        W86587  39.999  10.180  12.841
18115W        W86588   9.706  36.509  13.370
18116W        W86589  18.227  37.844   4.700
18117W        W86590  37.548   9.190   2.756
18118W        W86591   9.189  22.159   4.199
18119W        W86592  19.275   4.945   4.157
18120W        W86593  30.467  18.749  10.908
18121W        W86594   2.233  27.020  10.526
18122W        W86595  43.913   7.224   2.728
18123W        W86596  22.168  44.764  12.000
18124W        W86597  43.829  18.748  12.084
18125W        W86598  42.856  12.773  14.318
18126W        W86599   2.429  39.349   3.853
18127W        W86600  39.370  25.512  14.963
18128W        W86601  12.611  43.987  11.384
18129W        W86602  21.537  27.188  14.822
18130W        W86603  33.391   7.747  12.919
18131W        W86604  12.733  43.306   0.897
18132W        W86605  20.061  43.818   1.828
18133W        W86606  16.080  27.018   2.251
18134W        W86607  14.770  31.501   2.212
18135W        W86608  11.828  37.507   2.379
18136W        W86609   7.266  10.370  13.339
18137W        W86610  26.553  27.976  14.475
18138W        W86611  26.464  11.812   4.231
18139W        W86612  15.136  34.462  13.344
18140W        W86613  29.002  33.448  11.376
18141W        W86614  25.534  28.069   3.833
18142W        W86615  31.986  23.049   3.813
18143W        W86616  44.930   8.821   3.384
18144W        W86617  34.477  10.141   4.764
18145W        W86618   5.416   4.871   3.816
18146W        W86619  30.924  35.096  10.994
18147W        W86620   9.760   4.261  12.442
18148W        W86621   3.345  42.846   4.807
18149W        W86622  22.128  17.236  11.421
18150W        W86623   0.868  13.271   0.333
18151W        W86624  23.066  12.134  11.545
18152W        W86625  20.069  16.253   2.792
18153W        W86626  17.668  21.624  12.432
18154W        W86627  30.481  26.145  10.533
18155W        W86628  14.645  28.043   4.243
18156W        W86629  20.240  25.186   2.220
18157W        W86630  43.848   3.225   3.279
18158W        W86631   1.792  14.256   2.307
18159W        W86632  32.537  28.079   4.250
18160W        W86633  14.703   1.926   0.451
18161W        W86634  43.964  35.100  13.913
18162W        W86635  38.440   5.237  14.326
18163W        W86636  16.731  40.371   2.892
18164W        W86637   7.743  33.917   3.809
18165W        W86638  27.100  32.533   4.349
18166W        W86639  24.007   4.707   3.631
18167W        W86640  27.950  32.627   0.902
18168W        W86641  42.348  43.814   1.752
18169W        W86642  41.387   4.833   0.820
18170W        W86643   9.869   4.302   0.362
18171W        W86644   2.345  36.907   0.844
18172W        W86645  28.985  24.054  11.900
18173W        W86646   5.277  20.108   2.408
18174W        W86647  35.434  15.674  14.358
18175W        W86648   3.312   6.210  11.861
18176W        W86649   5.783  19.233  14.923
18177W        W86650  21.232  27.588  10.526
18178W        W86651   3.404  22.528   1.382
18179W        W86652  20.617  37.914   1.311
18180W        W86653   1.440  17.745  14.823
18181W        W86654   2.930  38.495   3.855
18182W        W86655  10.376  42.424  10.566
18183W        W86656  31.631  24.216   2.239
18184W        W86657  11.725  21.191  12.892
18185W        W86658   4.421   4.912  13.033
18186W        W86659   5.823   4.419  14.472
18187W        W86660  19.146  32.036   2.793
18188W        W86661  37.883  26.595  14.910
18189W        W86662  26.062   6.291  11.424
18190W        W86663  37.440  35.477  13.543
18191W        W86664   3.925  23.188   2.902
18192W        W86665  28.464  37.425  11.978
18193W        W86666  37.522   2.933  11.581
18194W        W86667   3.943  38.923  10.463
18195W        W86668  22.565  37.050   3.296
18196W        W86669  12.739  17.653  12.560
18197W        W86670   7.394  22.669   4.671
18198W        W86671  18.180  36.582   0.778
18199W        W86672  36.862  15.118  12.510
18200W        W86673  34.396   1.955   1.903
18201W        W86674  14.659  17.665  13.492
18202W        W86675  19.220   4.867  14.322
18203W        W86676   0.810  44.754   2.339
18204W        W86677  28.638   8.369  11.554
18205W        W86678  26.620  23.002  12.352
18206W        W86679  23.529   7.896   0.308
18207W        W86680   1.884  36.022   3.652
18208W        W86681   7.308  20.694  13.812
18209W        W86682  31.968   4.405   4.803
18210W        W86683  13.708  26.007  13.488
18211W        W86684  15.269  17.261   3.645
18212W        W86685  31.431  13.660   1.225
18213W        W86686  10.688  30.927   2.776
18214W        W86687  41.465  11.665   0.960
18215W        W86688  40.914  33.444   2.381
18216W        W86689  12.265  19.112  11.855
18217W        W86690  10.838  34.411  13.940
18218W        W86691   6.826  40.380  14.420
18219W        W86692  26.575  12.317  14.949
18220W        W86693   2.318  17.688  11.505
18221W        W86694   5.791  36.003  10.897
18222W        W86695  39.459  34.105   0.356
18223W        W86696  22.700  13.217  11.997
18224W        W86697  25.712   8.379   2.376
18225W        W86698  32.635   8.785  11.038
18226W        W86699  25.083   5.230   1.346
18227W        W86700  34.027  44.785  14.387
18228W        W86701  40.016   4.773  10.074
18229W        W86702  11.254  20.195   1.842
18230W        W86703   6.305   6.389  12.965
18231W        W86704  33.951  31.440   0.411
18232W        W86705  30.632   9.306   4.721
18233W        W86706  23.662  20.117   3.270
18234W        W86707   3.709  15.118   5.190
18235W        W86708  23.611   0.313   5.715
18236W        W86709  13.684  21.532   0.419
18237W        W86710  17.801  15.675  13.933
18238W        W86711   5.871  42.455   3.678
18239W        W86712   2.740  37.975  14.842
18240W        W86713  13.255   2.265  13.901
18241W        W86714  17.210  27.568  11.093
18242W        W86715  32.096   0.918  13.526
18243W        W86716  27.570  38.848   0.467
18244W        W86717  24.103  18.683  10.959
18245W        W86718  27.048  19.142   4.810
18246W        W86719  11.639  27.117  10.433
18247W        W86720  11.358  37.532  10.475
18248W        W86721  28.049  27.080  13.061
18249W        W86722  40.415  24.590  11.941
18250W        W86723  17.121  22.051  12.051
18251W        W86724  40.798  14.326   3.633
18252W        W86725  13.150   1.855  13.986
18253W        W86726  23.036  27.021   0.401
18254W        W86727  38.824  20.648   1.228
18255W        W86728  40.882  28.472   4.256
18256W        W86729   9.331  25.160  13.881
18257W        W86730  13.242  39.516  12.559
18258W        W86731  34.398  16.126  12.059
18259W        W86732  23.499  19.653  11.856
18260W        W86733  32.947  33.518  11.116
18261W        W86734  12.328  21.682   2.724
18262W        W86735  17.768  29.625  11.420
18263W        W86736  34.494  29.553  10.937
18264W        W86737   7.730  28.516  13.963
18265W        W86738   2.881   7.391  13.535
18266W        W86739   3.902  33.405   0.267
18267W        W86740  33.879  20.598   0.267
18268W        W86741  14.608   4.896  14.447
18269W        W86742  44.321  29.999   2.760
18270W        W86743  43.368  17.687  11.865
18271W        W86744  13.806  22.715   4.137
18272W        W86745   5.715  26.484   3.166
18273W        W86746  28.032  32.078   4.818
18274W        W86747  16.750  11.203   0.861
18275W        W86748  12.676  11.338  14.352
18276W        W86749  22.692  25.679  12.019
18277W        W86750   8.284  14.214  13.976
18278W        W86751   7.252  12.320   3.329
18279W        W86752  41.412  17.595   1.719
18280W        W86753  35.924   4.853   0.327
18281W        W86754  44.301  35.518  12.024
18282W        W86755  39.337  43.895   3.649
18283W        W86756  25.664  32.054   3.667
18284W        W86757  39.529  26.460   3.747
18285W        W86758  23.569  44.862  10.520
18286W        W86759  36.504  34.040  12.448
18287W        W86760  10.334  27.523   1.220
18288W        W86761  40.054  16.215   2.334
18289W        W86762   6.292   7.231   4.175
18290W        W86763   6.787  13.269   1.876
18291W        W86764   2.257   8.897  14.393
18292W        W86765   5.864  27.534   1.332
18293W        W86766   6.228  18.571   1.768
18294W        W86767  28.990   2.960  13.944
18295W        W86768  42.010   7.844  10.622
18296W        W86769   1.923  14.156   1.407
18297W        W86770   7.838  26.183   0.260
18298W        W86771  17.625  29.538   2.820
18299W        W86772   6.413   5.246   4.276
18300W        W86773   6.403  14.812  12.439
18301W        W86774   4.207  34.607  12.485
18302W        W86775   3.800  17.126   2.792
18303W        W86776  21.602  26.159  12.544
18304W        W86777  18.237  44.354   4.318
18305W        W86778   5.884  22.180  12.936
18306W        W86779  11.204  40.518   0.266
18307W        W86780   0.363   3.879  12.828
18308W        W86781  36.349   4.933   0.902
18309W        W86782  13.138   2.297   1.424
18310W        W86783  18.151  10.197  10.892
18311W        W86784  28.511  38.013   0.883
18312W        W86785   2.234  20.717  13.364
18313W        W86786   9.248  34.448  11.057
18314W        W86787  40.383  39.822  11.445
18315W        W86788   7.245  43.788   0.880
18316W        W86789  39.521  10.254  10.153
18317W        W86790  20.691  17.069  14.456
18318W        W86791   1.372  39.354  13.486
18319W        W86792  18.583  41.503   2.297
18320W        W86793  43.968   6.812   0.815
18321W        W86794  35.090  26.459   0.838
18322W        W86795  41.927   8.240   3.258
18323W        W86796  37.457   4.719   0.426
18324W        W86797  26.024  35.019  12.472
18325W        W86798  33.915   7.724   2.689
18326W        W86799   7.696  26.020  11.008
18327W        W86800  40.503  28.951  10.084
18328W        W86801  11.254  13.637   1.285
18329W        W86802  31.132  13.220  14.438
18330W        W86803  27.652  17.212   0.880
18331W        W86804  10.803  30.626   0.336
18332W        W86805  44.879  12.786  12.939
18333W        W86806  23.179  28.645  11.387
18334W        W86807  13.839   6.214   1.895
18335W        W86808  34.523  29.149  13.342
18336W        W86809  41.367  44.273   3.272
18337W        W86810  25.560   0.368   4.716
18338W        W86811  44.273  14.743   3.723
18339W        W86812  41.873   7.192   1.905
18340W        W86813  14.275  44.283  12.885
18341W        W86814   8.276  17.663  11.495
18342W        W86815  42.882  13.211   0.338
18343W        W86816  13.350  28.651  13.977
18344W        W86817  24.570  17.068  11.510
18345W        W86818  35.908  31.076   4.157
18346W        W86819  35.100  34.556  10.447
18347W        W86820   2.744  36.915  12.425
18348W        W86821  14.236  41.432   2.337
18349W        W86822  31.523  17.687  13.331
18350W        W86823   8.347   3.865  14.510
18351W        W86824  11.783  14.820   0.803
18352W        W86825  20.686  27.176   5.755
18353W        W86826  29.078  10.786  12.946
18354W        W86827  44.310   2.307   3.727
18355W        W86828  23.630  27.150   3.299
18356W        W86829  13.700  25.667   3.735
18357W        W86830   4.209  32.103  14.422
18358W        W86831  19.202  14.269   1.449
18359W        W86832  10.647  40.980  14.459
18360W        W86833  17.090  41.015  12.490
18361W        W86834   1.259  16.172  11.886
18362W        W86835   3.392  26.608   3.246
18363W        W86836   4.754  15.691   2.748
18364W        W86837   3.839   5.297  10.525
18365W        W86838   5.756   8.256   2.685
18366W        W86839  17.688   6.362   1.716
18367W        W86840  35.003  18.645   3.302
18368W        W86841   1.959  35.883  11.406
18369W        W86842  35.934   5.870  12.862
18370W        W86843  30.515  38.484  13.944
18371W        W86844  27.999  24.097   1.700
18372W        W86845  30.585  20.597  12.050
18373W        W86846  35.589  31.000   1.230
18374W        W86847  42.919  30.519  11.921
18375W        W86848  15.660  20.142  13.413
18376W        W86849  13.171   0.359  11.993
18377W        W86850   0.798  30.600   3.841
18378W        W86851  14.337  37.849   3.189
18379W        W86852  14.258  24.624   0.841
18380W        W86853  41.890  42.817   4.232
18381W        W86854   6.727  34.021   0.333
18382W        W86855  33.418  16.727   3.213
18383W        W86856  21.219   1.794  10.074
18384W        W86857  34.544  34.574  14.327
18385W        W86858  43.930  16.282  11.075
18386W        W86859  27.092  34.578  12.040
18387W        W86860  29.503  28.060  12.488
18388W        W86861  33.475  27.681   0.446
18389W        W86862  20.224  17.791   3.756
18390W        W86863  32.002   7.293  13.533
18391W        W86864  41.037  21.726  14.401
18392W        W86865  32.592  26.590   4.784
18393W        W86866  43.295  29.032   2.191
18394W        W86867  40.845  27.997   3.794
18395W        W86868  39.499  10.654  11.521
18396W        W86869  44.500  33.588  13.791
18397W        W86870  18.556  28.638   2.820
18398W        W86871   7.763  26.963   0.282
18399W        W86872   6.923  28.035   1.777
18400W        W86873   5.798   0.879   1.795
18401W        W86874  18.660   1.764  12.033
18402W        W86875  40.351  38.835  13.944
18403W        W86876  14.145  19.759   3.161
18404W        W86877  29.024  31.519   0.965
18405W        W86878  21.636  10.827  12.920
18406W        W86879  17.750  21.707   2.699
18407W        W86880  24.650  30.522   3.697
18408W        W86881  23.519  20.702   1.800
18409W        W86882  34.004  21.254  14.371
18410W        W86883  41.402  16.582  13.807
18411W        W86884  22.028  39.554  12.052
18412W        W86885  35.049  39.376   4.769
18413W        W86886  34.569  10.876   1.861
18414W        W86887  18.721  21.699  11.128
18415W        W86888  35.056   4.787   4.668
18416W        W86889  34.518  41.839   1.753
18417W        W86890  44.926  37.574  11.003
18418W        W86891   7.329  27.646  14.016
18419W        W86892   3.349  30.916  12.882
18420W        W86893  28.054  41.921  10.977
18421W        W86894  27.507  14.232  10.634
18422W        W86895  26.500   3.827   2.296
18423W        W86896  33.989  24.054   0.732
18424W        W86897  36.576   5.235   2.310
18425W        W86898  19.645  34.909   4.694
18426W        W86899  23.045  15.735  10.154
18427W        W86900  25.566  27.054   3.746
18428W        W86901  35.510  32.924  11.569
18429W        W86902   0.776  31.008   4.195
18430W        W86903  21.106  35.574   3.174
18431W        W86904  24.069  23.192   2.256
18432W        W86905  10.793  43.451  12.927
18433W        W86906  32.543  32.582  10.513
18434W        W86907  35.455  17.296   0.292
18435W        W86908  11.285   2.313  14.462
18436W        W86909   4.312  13.165  13.866
18437W        W86910  33.516  36.921  10.530
18438W        W86911   8.335  15.210  12.883
18439W        W86912  19.285   1.321  12.849
18440W        W86913  35.057  18.059  11.585
18441W        W86914   3.881   0.821   4.146
18442W        W86915  34.557   3.306   4.350
18443W        W86916   2.945  18.574   3.156
18444W        W86917   1.781  15.757   2.817
18445W        W86918   7.359  27.498   2.702
18446W        W86919  17.670   0.369   3.367
18447W        W86920  20.053  33.568  11.880
18448W        W86921  31.040  43.353  14.002
18449W        W86922  13.718   2.782  12.908
18450W        W86923  30.065  37.962   0.396
18451W        W86924  23.239  22.552   2.702
18452W        W86925  44.369  43.928  11.412
18453W        W86926  39.348  15.282  14.492
18454W        W86927  12.311  14.232  12.870
18455W        W86928   4.734   0.319  13.830
18456W        W86929  38.432  17.773  14.013
18457W        W86930  16.168   0.877   3.846
18458W        W86931   1.873  44.007   2.696
18459W        W86932  21.125  32.444  12.836
18460W        W86933  17.638  28.155  13.390
18461W        W86934  35.434  11.263  11.578
18462W        W86935  34.915  37.549   4.783
18463W        W86936  40.900  29.510  14.847
18464W        W86937  29.651   2.429   0.356
18465W        W86938  39.352  33.495   4.676
18466W        W86939  26.973   2.796   0.447
18467W        W86940  22.731  26.040  12.979
18468W        W86941  38.479  19.047  13.845
18469W        W86942   8.834   3.866   4.606
18470W        W86943  44.363   7.737  14.828
18471W        W86944  32.097  30.138   5.121
18472W        W86945  20.625  30.455   2.838
18473W        W86946  18.257  13.834  13.431
18474W        W86947  21.190  32.102  10.894
18475W        W86948  13.719  35.392   3.771
18476W        W86949  19.576  21.522  10.533
18477W        W86950  33.041  15.736  13.427
18478W        W86951  34.989  41.940  10.627
18479W        W86952  19.601  36.593   5.104
18480W        W86953  10.658  11.303  14.888
18481W        W86954  18.239  27.544  12.906
18482W        W86955  34.075   8.736   1.721
18483W        W86956  17.064  24.014  10.550
18484W        W86957  28.576  31.435   3.245
18485W        W86958  44.372  26.593  13.521
18486W        W86959   8.368  18.574   3.161
18487W        W86960   9.183   5.425   1.797
18488W        W86961  18.051  28.947  13.398
18489W        W86962  39.323  44.485  12.424
18490W        W86963  39.815  41.020   3.751
18491W        W86964  28.949  23.184   0.759
18492W        W86965  44.934  42.904  13.884
18493W        W86966  26.134  26.159  13.423
18494W        W86967  40.026  16.671   2.317
18495W        W86968   9.271  43.797   2.264
18496W        W86969   9.331  39.417   4.225
18497W        W86970  36.370   1.796   0.430
18498W        W86971   9.833  30.157   0.329
18499W        W86972   2.880  20.684  14.344
18500W        W86973  35.898   9.275  12.921
18501W        W86974  14.168   2.782   2.797
18502W        W86975  22.063  21.115   4.761
18503W        W86976  13.276  42.365  11.109
18504W        W86977  19.225  40.334   4.651
18505W        W86978  31.517  11.860   1.881
18506W        W86979  22.012  16.730  12.943
18507W        W86980  24.683  36.390   4.708
18508W        W86981  41.906  36.389   3.737
18509W        W86982  22.092   0.864  13.814
18510W        W86983   3.272  10.749   3.766
18511W        W86984   5.338  31.044  11.060
18512W        W86985  43.929  40.014   4.163
18513W        W86986  18.272   9.174   1.778
18514W        W86987  28.512  15.742   0.267
18515W        W86988  37.083   0.328   0.779
18516W        W86989  12.303   3.810   2.286
18517W        W86990  14.676  40.525  14.857
18518W        W86991  29.467  32.111  14.502
18519W        W86992   4.388  23.631   1.739
18520W        W86993  11.741  24.622  12.904
18521W        W86994  31.017  38.070   2.672
18522W        W86995  24.141  35.540   2.189
18523W        W86996  35.521  15.328   1.217
18524W        W86997   8.729   6.274   4.758
18525W        W86998  12.821   1.765   0.478
18526W        W86999  14.603  43.286   3.178
18527W        W87000  40.348   0.465   3.720
18528W        W87001  22.078  21.642   2.677
18529W        W87002  38.852  12.260   1.764
18530W        W87003  16.186  40.909  11.082
18531W        W87004  17.088   8.670  13.310
18532W        W87005   2.230  34.937   2.196
18533W        W87006   6.240  15.812   4.215
18534W        W87007  39.028   3.358  12.003
18535W        W87008  34.612  36.016  10.548
18536W        W87009   0.754  34.047   2.222
18537W        W87010  11.216  13.655   3.257
18538W        W87011  37.035  30.131  12.449
18539W        W87012  10.836  37.966  11.039
18540W        W87013  20.251  29.027   1.382
18541W        W87014  40.373  14.339  14.384
18542W        W87015  36.988  40.962   3.342
18543W        W87016  36.923  27.499  10.548
18544W        W87017  26.975  10.668   1.862
18545W        W87018  20.134   6.783  14.307
18546W        W87019  28.605   3.270   2.837
18547W        W87020   9.830  40.960  13.366
18548W        W87021  32.024  33.600  14.864
18549W        W87022  41.022  27.147   3.813
18550W        W87023  30.602   6.362   4.658
18551W        W87024  34.561  21.600  10.963
18552W        W87025  25.060  34.412   3.224
18553W        W87026  10.786  22.142  12.005
18554W        W87027   6.840  29.008  14.423
18555W        W87028  35.577  15.612   2.843
18556W        W87029  35.508  12.225   0.354
18557W        W87030   1.885   7.202   4.630
18558W        W87031  44.873   7.198  14.898
18559W        W87032  37.079  18.052   1.856
18560W        W87033  15.298  11.729   1.829
18561W        W87034  38.525  25.686   1.317
18562W        W87035  23.140  10.262  12.938
18563W        W87036  38.010  42.491   4.184
18564W        W87037  37.414  26.552  11.958
18565W        W87038  41.353  27.127  10.438
18566W        W87039  33.602   0.918  13.030
18567W        W87040  28.000   1.399  10.426
18568W        W87041  17.139  33.582  14.468
18569W        W87042  36.067  26.071   1.744
18570W        W87043  29.924   2.843   3.314
18571W        W87044  27.179  22.709   3.333
18572W        W87045  43.419   5.432   0.380
18573W        W87046  19.100  36.502   0.477
18574W        W87047   4.427  29.926  13.908
18575W        W87048  25.677  41.340  14.277
18576W        W87049  11.282  12.120  10.571
18577W        W87050  15.785  23.508  12.022
18578W        W87051  41.871  28.113  10.133
18579W        W87052  36.462  40.988  11.044
18580W        W87053  19.155  36.935  14.339
18581W        W87054  12.727  39.494  12.469
18582W        W87055   2.400  12.261  12.394
18583W        W87056   7.877  24.542  12.891
18584W        W87057  30.648  26.001   3.751
18585W        W87058  24.666  41.811   4.639
18586W        W87059  37.499   1.969   0.355
18587W        W87060  10.372   0.361  10.605
18588W        W87061  22.561  25.686   3.869
18589W        W87062  43.963  40.041   1.292
18590W        W87063  35.881   4.761   3.338
18591W        W87064  20.565  17.616   1.874
18592W        W87065   4.709  32.533  12.551
18593W        W87066   9.170  38.472   1.706
18594W        W87067  40.967   3.850   3.804
18595W        W87068  22.112  44.389  14.381
18596W        W87069   7.862  24.081  11.427
18597W        W87070  38.986   7.709   1.313
18598W        W87071  41.520   5.705   4.184
18599W        W87072  20.737  16.290  12.430
18600W        W87073  29.010  15.800  10.994
18601W        W87074   8.166  34.005  13.523
18602W        W87075   0.786  17.262  13.917
18603W        W87076   6.867  27.184  11.109
18604W        W87077  34.525  15.795   4.635
18605W        W87078  35.950   7.180  14.364
18606W        W87079  15.108  40.444  10.087
18607W        W87080  26.499   3.364   2.250
18608W        W87081  20.268  21.238   0.760
18609W        W87082  36.865  10.141  14.489
18610W        W87083  30.449  22.173  14.286
18611W        W87084  44.852  24.510  11.488
18612W        W87085  39.026  31.143  13.913
18613W        W87086  14.275  31.148  14.871
18614W        W87087  32.038   7.831  13.497
18615W        W87088  10.235  39.508   4.688
18616W        W87089  23.597  15.106   3.711
18617W        W87090  34.442  32.040   3.749
18618W        W87091  24.050  42.391  14.321
18619W        W87092  39.401  13.271   4.788
18620W        W87093  28.105   8.216   0.756
18621W        W87094  18.237   8.394  11.111
18622W        W87095  15.210  27.137   2.340
18623W        W87096  43.018   4.861   3.197
18624W        W87097  12.665  12.248  12.560
18625W        W87098   9.662  16.074  11.023
18626W        W87099  44.820  12.232   1.718
18627W        W87100  21.739  42.477   0.388
18628W        W87101  35.056  21.642   4.734
18629W        W87102  43.899   7.843   3.824
18630W        W87103  43.413  15.090  12.452
18631W        W87104  28.121  36.016   0.296
18632W        W87105   5.391  14.254   4.643
18633W        W87106  33.044  18.639  11.973
18634W        W87107  44.347  26.612  10.589
18635W        W87108  33.599  37.469   5.138
18636W        W87109   9.676  34.608  14.457
18637W        W87110  30.095  44.933  12.381
18638W        W87111  40.477  36.504   1.424
18639W        W87112  27.691   0.300   2.192
18640W        W87113  13.691  11.220   0.775
18641W        W87114  37.552  32.425  12.429
18642W        W87115   0.290  16.249   0.259
18643W        W87116  10.821  38.936  13.037
18644W        W87117  35.534  31.904  11.890
18645W        W87118  26.671   0.742  12.371
18646W        W87119  22.236  35.996   0.767
18647W        W87120  30.987  24.635   0.734
18648W        W87121  31.560  18.641  14.773
18649W        W87122  26.178   8.695   1.375
18650W        W87123   9.809  40.478  13.528
18651W        W87124   8.817  17.262   0.887
18652W        W87125   2.379  41.328  11.060
18653W        W87126  40.387  33.891  13.834
18654W        W87127  40.366  41.817   4.352
18655W        W87128   4.313  42.358   0.941
18656W        W87129  32.931  32.074   2.402
18657W        W87130  35.012  38.363  11.380
18658W        W87131  16.705  21.520   1.704
18659W        W87132  12.797  16.269  10.522
18660W        W87133  34.500  11.647  11.510
18661W        W87134  23.584  39.378   2.798
18662W        W87135  41.440  37.912   1.441
18663W        W87136  17.093  30.428  13.883
18664W        W87137  30.536   3.328   0.455
18665W        W87138   0.457  13.759   0.735
18666W        W87139   1.904  29.514   1.310
18667W        W87140   0.462  43.305   3.663
18668W        W87141  44.372  20.723   0.813
18669W        W87142  41.032  21.642  11.983
18670W        W87143   7.306  34.404   3.801
18671W        W87144  35.900  14.795  14.509
18672W        W87145  24.997  32.974   0.806
18673W        W87146  39.813  10.289  10.540
18674W        W87147  36.913  33.965  11.600
18675W        W87148   5.204  23.094  11.378
18676W        W87149   6.815  34.609  14.356
18677W        W87150   1.259  41.431  11.526
18678W        W87151  10.659   5.328  11.967
18679W        W87152  44.495  22.591  11.969
18680W        W87153   3.886  22.168  12.996
18681W        W87154  26.170  11.340   1.866
18682W        W87155  38.060   3.722  13.525
18683W        W87156  16.690  44.788  13.032
18684W        W87157  40.468   6.420   3.254
18685W        W87158   1.891  20.569   2.850
18686W        W87159  37.437  32.139   2.806
18687W        W87160  26.984   0.347  13.441
18688W        W87161   0.816  25.071   1.381
18689W        W87162   8.221  35.579  14.024
18690W        W87163  27.532  11.702  10.909
18691W        W87164  26.168  14.335  10.945
18692W        W87165  35.927  25.565  10.941
18693W        W87166  42.305  15.681   2.681
18694W        W87167  35.925   3.436  14.820
18695W        W87168  39.928  23.190  11.968
18696W        W87169  44.815  28.056   0.349
18697W        W87170   8.375   3.287  14.446
18698W        W87171   6.748  12.318  14.810
18699W        W87172   1.968   6.910  11.022
18700W        W87173  27.195  27.568   0.318
18701W        W87174  22.535  40.357  14.821
18702W        W87175  27.474   3.878   3.841
18703W        W87176   6.368  38.543  13.963
18704W        W87177   6.913  10.866   2.836
18705W        W87178  34.532  39.547   2.273
18706W        W87179  22.253  32.452  13.985
18707W        W87180  14.755  18.651  12.090
18708W        W87181  17.200  36.430   3.633
18709W        W87182  33.411   4.829  12.427
18710W        W87183  39.947  19.209  11.493
18711W        W87184  25.634  21.597  12.990
18712W        W87185  37.444  19.188  13.399
18713W        W87186  34.551  32.477   1.265
18714W        W87187  36.509   7.872  13.791
18715W        W87188   9.222  12.253  14.933
18716W        W87189  14.188   8.713  10.932
18717W        W87190  21.579  22.131   4.336
18718W        W87191  20.151  41.517  14.859
18719W        W87192  13.791  24.085   0.951
18720W        W87193  17.633   9.216   4.337
18721W        W87194  35.436  24.683  12.413
18722W        W87195  15.169  28.983   0.333
18723W        W87196  10.663  40.875   4.322
18724W        W87197  14.304  43.011  14.307
18725W        W87198  22.574  12.260  12.518
18726W        W87199  39.363  17.619  10.428
18727W        W87200   7.857  12.645  10.466
18728W        W87201  36.423  17.193  11.379
18729W        W87202   9.317  10.172  11.608
18730W        W87203   8.377   0.425  10.571
18731W        W87204  35.944  39.898   4.834
18732W        W87205   7.338   9.820   3.209
18733W        W87206  12.339  18.212  12.928
18734W        W87207  41.406  22.533   3.265
18735W        W87208  20.167  33.049  11.939
18736W        W87209  42.506  30.569   0.777
18737W        W87210   2.909  16.666   2.801
18738W        W87211  23.606   5.892  10.955
18739W        W87212  39.391  11.709   1.929
18740W        W87213  39.892  40.973   0.736
18741W        W87214  35.075  14.683   1.423
18742W        W87215   7.398  37.560  11.938
18743W        W87216   2.883  23.658  14.936
18744W        W87217  26.021  39.510   1.719
18745W        W87218  42.002   4.942   2.700
18746W        W87219  20.151  44.308   5.131
18747W        W87220   9.324  26.599   2.402
18748W        W87221  34.580  19.230   1.277
18749W        W87222  18.140  14.721   2.809
18750W        W87223  31.524  13.250   0.728
18751W        W87224  40.922  30.460   2.662
18752W        W87225  17.637  32.584  12.987
18753W        W87226  25.637   5.387   3.840
18754W        W87227  13.325  27.950   4.681
18755W        W87228   6.314   3.386   5.316
18756W        W87229   0.974   3.764   1.322
18757W        W87230  18.092  29.654   2.367
18758W        W87231   7.808  41.396   9.949
18759W        W87232   7.175  29.476  13.891
18760W        W87233  17.699  38.453   2.778
18761W        W87234  30.164  20.242  11.938
18762W        W87235  25.980  25.651   3.641
18763W        W87236  15.164  37.983  10.910
18764W        W87237  15.611  29.572  14.883
18765W        W87238  28.590  10.820  11.120
18766W        W87239  31.091  18.646   4.763
18767W        W87240  41.005  23.045   2.225
18768W        W87241  37.005  12.204  10.902
18769W        W87242  29.463  24.692  14.368
18770W        W87243  28.939   0.926  12.565
18771W        W87244  37.081  40.538   1.365
18772W        W87245  10.293  23.110   5.158
18773W        W87246  38.902  34.400  11.910
18774W        W87247   7.306  31.557   4.229
18775W        W87248  13.163  39.012   0.798
18776W        W87249  43.498  35.980  12.005
18777W        W87250  35.357  18.633   4.711
18778W        W87251  17.092  14.605   0.469
18779W        W87252  10.163  31.974  14.419
18780W        W87253   6.819  29.654  11.583
18781W        W87254   8.655   9.224  14.324
18782W        W87255  32.971  35.363   3.272
18783W        W87256  25.658  42.997   1.326
18784W        W87257  25.121  14.114   2.363
18785W        W87258  22.741   0.374   0.378
18786W        W87259  40.368   5.194  14.483
18787W        W87260   1.926  23.713   0.908
18788W        W87261  38.947  36.846  11.609
18789W        W87262  26.176  32.023   4.337
18790W        W87263  14.245  21.080   3.205
18791W        W87264  40.000  43.839   1.320
18792W        W87265  33.055  34.929   2.286
18793W        W87266  24.167  16.288  12.088
18794W        W87267  30.639  28.056   0.891
18795W        W87268  39.443  14.756  14.793
18796W        W87269   1.837  11.864  13.482
18797W        W87270  43.394  30.109   3.778
18798W        W87271  36.573  37.834   3.665
18799W        W87272  39.827  27.596  13.481
18800W        W87273   7.890  42.501  13.967
18801W        W87274  38.897   2.268  13.064
18802W        W87275   0.287  37.058   1.260
18803W        W87276  21.206  12.825   3.145
18804W        W87277  31.902  21.241  10.602
18805W        W87278  36.974  33.613  10.636
18806W        W87279  31.988  12.811   3.336
18807W        W87280   5.777  16.145   9.970
18808W        W87281  34.091  24.614  13.367
18809W        W87282   2.337  44.326   5.312
18810W        W87283  27.660  34.052   2.256
18811W        W87284   3.906  37.519   0.804
18812W        W87285   2.751  44.266  13.471
18813W        W87286   9.647  29.159   2.889
18814W        W87287  30.596  42.377   9.611
18815W        W87288  30.570  18.213  11.506
18816W        W87289   7.285  10.214   4.673
18817W        W87290  13.337  24.574  11.938
18818W        W87291  40.405   1.857   0.472
18819W        W87292  19.093  13.685  11.944
18820W        W87293  27.019   6.193   3.372
18821W        W87294  38.026  22.150   1.404
18822W        W87295  33.901  36.988   0.242
18823W        W87296  39.011  19.051   1.443
18824W        W87297  24.646  18.638   2.839
18825W        W87298  40.924  13.159  12.995
18826W        W87299  40.980  25.016   0.360
18827W        W87300  23.495  37.540  13.365
18828W        W87301   2.382  21.211   0.258
18829W        W87302   8.203  41.517   3.814
18830W        W87303  23.628  15.664  11.433
18831W        W87304  23.615   4.778  11.043
18832W        W87305  36.844  38.955  10.413
18833W        W87306   1.303  18.170   0.863
18834W        W87307  12.773  19.251  13.827
18835W        W87308  32.984  36.014  13.343
18836W        W87309   2.901   7.869   4.168
18837W        W87310   2.294  18.553   4.618
18838W        W87311  19.160  23.230  10.965
18839W        W87312  11.337  29.590   0.477
18840W        W87313  27.653  10.851  11.415
18841W        W87314  19.647   6.415  12.084
18842W        W87315  21.049  19.232  14.505
18843W        W87316   2.871   0.914   3.859
18844W        W87317  23.679   3.234  11.558
18845W        W87318  15.592  24.548   2.873
18846W        W87319  14.296  27.598  14.892
18847W        W87320   7.204  24.203   2.811
18848W        W87321   0.939  21.103  13.970
18849W        W87322  40.466   2.761   3.723
18850W        W87323  33.096  29.442   0.348
18851W        W87324  30.961  43.415   4.230
18852W        W87325  42.357  32.066   4.747
18853W        W87326   6.843  40.903  12.452
18854W        W87327   3.222  29.119  14.455
18855W        W87328   2.346  13.106  13.912
18856W        W87329  43.000   1.934  11.081
18857W        W87330  31.989  38.043   3.636
18858W        W87331  33.996  12.298  11.573
18859W        W87332   8.187  33.427   3.840
18860W        W87333  13.339  36.067  11.040
18861W        W87334  15.308  32.451  12.966
18862W        W87335  37.084  22.066   0.484
18863W        W87336  22.594  30.933   3.270
18864W        W87337   9.153  26.008  11.125
18865W        W87338  38.496  36.887   1.910
18866W        W87339   5.707  33.617   2.703
18867W        W87340  38.392   8.894   4.209
18868W        W87341   2.378  11.208  11.917
18869W        W87342  19.144  35.875  12.892
18870W        W87343  12.701  27.484   0.869
18871W        W87344  44.319  19.100   4.609
18872W        W87345  15.324  32.023   2.266
18873W        W87346   0.483  12.748  13.958
18874W        W87347  21.231  33.111   4.236
18875W        W87348  30.610  35.897  13.472
18876W        W87349  30.936  28.110  10.903
18877W        W87350  35.063  24.535  11.378
18878W        W87351  40.054  43.374   2.697
18879W        W87352  25.670   3.419  14.372
18880W        W87353  28.469  28.111   2.716
18881W        W87354  26.076  35.912   3.845
18882W        W87355  34.895   9.723  13.347
18883W        W87356  26.974  25.043   4.659
18884W        W87357  23.523   4.230   4.832
18885W        W87358  21.552  22.638  12.090
18886W        W87359  33.039  21.163  10.924
18887W        W87360  29.669   0.785  11.601
18888W        W87361  13.832   5.865   1.930
18889W        W87362   7.907  15.162  11.939
18890W        W87363  18.577  11.342   4.237
18891W        W87364  35.559   0.378   3.759
18892W        W87365  29.589  42.799   4.309
18893W        W87366  14.125   8.711   3.810
18894W        W87367  32.024  42.281  12.356
18895W        W87368   3.388  44.957  14.960
18896W        W87369  35.435  18.756   2.753
18897W        W87370  34.052  24.203  11.062
18898W        W87371  44.272  13.730   2.674
18899W        W87372  41.928   9.756  11.991
18900W        W87373  22.607  27.958  13.468
18901W        W87374  38.539  26.074  11.125
18902W        W87375  42.482  34.009  14.933
18903W        W87376  25.561  33.500   0.260
18904W        W87377  22.528   2.742   2.849
18905W        W87378  17.187   4.937   2.881
18906W        W87379  31.607  41.806  13.441
18907W        W87380  16.306  41.406  14.819
18908W        W87381  36.487  36.858   4.696
18909W        W87382   8.882  16.190  11.974
18910W        W87383  27.474   3.906   1.761
18911W        W87384  39.429  14.752  11.525
18912W        W87385  17.253  39.332   5.247
18913W        W87386  29.067  25.988   4.795
18914W        W87387  17.264  10.358  10.505
18915W        W87388  32.995  19.173  12.899
18916W        W87389   0.868  37.903  11.063
18917W        W87390  40.873  32.591   0.368
18918W        W87391  31.978  21.033  12.496
18919W        W87392   5.879  39.473  12.453
18920W        W87393  22.148  33.108  12.973
18921W        W87394   4.352  32.474   4.808
18922W        W87395  25.127  15.139  11.126
18923W        W87396   3.796   3.390   3.295
18924W        W87397  27.183  18.061   5.286
18925W        W87398  14.615   4.409  13.998
18926W        W87399  16.135  12.280  11.593
18927W        W87400  22.677  22.037  13.515
18928W        W87401  43.440  11.751  11.102
18929W        W87402  37.014  33.443  11.941
18930W        W87403  15.737  42.943   4.327
18931W        W87404   9.858  42.943  12.568
18932W        W87405  11.750  19.568  10.444
18933W        W87406  12.649  16.269  12.922
18934W        W87407   8.382  20.596   0.853
18935W        W87408  43.319   4.845   0.413
18936W        W87409  42.489   1.746  14.006
18937W        W87410  20.062   7.785   2.817
18938W        W87411  37.950  18.599  11.506
18939W        W87412  18.244   3.218  12.452
18940W        W87413  35.977  33.998  13.315
18941W        W87414  23.159  12.269  12.406
18942W        W87415  16.590  12.614   2.391
18943W        W87416  34.017   5.775  10.899
18944W        W87417  40.829  29.984  13.441
18945W        W87418  10.348  41.952   2.730
18946W        W87419  18.546  35.918  13.835
18947W        W87420  42.342  29.500   2.859
18948W        W87421  19.649  36.925   4.177
18949W        W87422  24.505  17.686   3.332
18950W        W87423  30.977  11.193   4.789
18951W        W87424  11.782  13.135  11.476
18952W        W87425  38.391  35.569  14.933
18953W        W87426  18.698   6.819  11.097
18954W        W87427  33.412  42.000   4.213
18955W        W87428  15.141  22.165  13.354
18956W        W87429  17.084   7.414  14.331
18957W        W87430   2.464  23.080   0.923
18958W        W87431  24.056  30.076   0.317
18959W        W87432  36.411  33.615   2.184
18960W        W87433  30.045  31.048  12.462
18961W        W87434  26.046  12.325  10.588
18962W        W87435  31.505  27.660  13.004
18963W        W87436  42.990  31.510   3.320
18964W        W87437  29.632  14.237   3.671
18965W        W87438  14.755  28.028  11.042
18966W        W87439  26.501  32.036   2.818
18967W        W87440  32.475  42.389   2.408
18968W        W87441  26.204  21.738  13.386
18969W        W87442  39.909  24.638  14.813
18970W        W87443  40.904  36.412  11.586
18971W        W87444  31.123  29.084  13.496
18972W        W87445  18.128   8.760  14.010
18973W        W87446   3.445  23.089   2.891
18974W        W87447  19.157  14.150  14.965
18975W        W87448  34.503  21.082   4.741
18976W        W87449   0.748  28.948  10.571
18977W        W87450  40.935  28.940   3.629
18978W        W87451  17.158  42.331  14.824
18979W        W87452  31.057   7.287   1.784
18980W        W87453  25.530  44.289   2.890
18981W        W87454  44.417   4.939  12.365
18982W        W87455  21.690   6.339  10.525
18983W        W87456  20.213   8.333  13.815
18984W        W87457  17.263  16.655   3.229
18985W        W87458   7.266   0.349  12.921
18986W        W87459   4.825  16.600   4.234
18987W        W87460  11.189  38.435   4.802
18988W        W87461  29.632  15.586   0.431
18989W        W87462  35.518   9.222  13.515
18990W        W87463  37.460   7.351  12.540
18991W        W87464  43.347  41.006   0.905
18992W        W87465  44.915  24.483  14.803
18993W        W87466  15.263   4.789   3.840
18994W        W87467  23.535   3.767  11.081
18995W        W87468  35.872  31.642   1.845
18996W        W87469  26.056  43.874  14.848
18997W        W87470  38.340  33.074   0.304
18998W        W87471   9.386  25.112  14.807
18999W        W87472  19.060   3.868  13.885
19000W        W87473  12.182  14.192  13.396
19001W        W87474  40.510  38.056   4.293
19002W        W87475  14.148   4.427  11.869
19003W        W87476  22.574  11.265  10.579
19004W        W87477  36.473  42.288   0.463
19005W        W87478   5.224   5.416   4.197
19006W        W87479   5.314   3.247   3.253
19007W        W87480  17.160  23.085   1.793
19008W        W87481  43.819   4.903   2.824
19009W        W87482  19.645  39.391   2.848
19010W        W87483  29.934  33.551   1.293
19011W        W87484  30.521   3.928   0.446
19012W        W87485  10.668  26.065   2.317
19013W        W87486  40.396  17.787   3.652
19014W        W87487   8.233  11.133   3.183
19015W        W87488  20.201   2.728   1.930
19016W        W87489   6.183   8.707  13.428
19017W        W87490  26.079  33.467   4.745
19018W        W87491   3.386  20.113   0.259
19019W        W87492  43.772  37.927   2.355
19020W        W87493   9.831  15.249  13.326
19021W        W87494  42.024  21.748   4.170
19022W        W87495  42.404  25.077   5.246
19023W        W87496  39.926  15.299   2.663
19024W        W87497  39.879  28.511   1.353
19025W        W87498   9.672  39.557  11.492
19026W        W87499  42.974  28.586  10.578
19027W        W87500   5.876  34.433   2.271
19028W        W87501  25.013  18.545  10.632
19029W        W87502  13.337   0.313   4.281
19030W        W87503   9.220  16.613   1.803
19031W        W87504  16.648   2.268   1.907
19032W        W87505  18.626   3.775   2.734
19033W        W87506  12.781  16.169  11.890
19034W        W87507   9.708   2.286  13.412
19035W        W87508  26.169  30.640   4.600
19036W        W87509  23.590   3.720  13.956
19037W        W87510  21.652   0.389   1.372
19038W        W87511  36.540  35.860   0.843
19039W        W87512  39.993   2.781   2.898
19040W        W87513  24.604  25.071   3.289
19041W        W87514   9.345  20.540  13.791
19042W        W87515   2.815   9.842  10.537
19043W        W87516  39.039  23.018   0.728
19044W        W87517  43.445  13.129  13.988
19045W        W87518  44.437  25.989  11.877
19046W        W87519  10.707  37.011   4.189
19047W        W87520  14.198  21.724   3.655
19048W        W87521  27.452  31.039   3.707
19049W        W87522  23.502  41.939   4.121
19050W        W87523   5.701  22.570  14.833
19051W        W87524   2.452  14.228  12.374
19052W        W87525   7.902  18.709   2.787
19053W        W87526  16.638  31.601   0.919
19054W        W87527  34.509  38.558   2.740
19055W        W87528  13.704   4.752   3.312
19056W        W87529  37.982  26.017   0.323
19057W        W87530  29.071  40.862  13.897
19058W        W87531  36.066  32.444  11.913
19059W        W87532  27.051  13.143   1.877
19060W        W87533  30.611  35.536   3.367
19061W        W87534  22.512  37.854   2.333
19062W        W87535   4.337  20.110  10.468
19063W        W87536   3.414  33.890   0.941
19064W        W87537  25.182   4.724   3.254
19065W        W87538  28.150  30.585   1.419
19066W        W87539  15.093  16.137  10.502
19067W        W87540   6.196  11.299  13.932
19068W        W87541  25.527   9.881   2.246
19069W        W87542   4.352  10.772   2.263
19070W        W87543  30.937  41.485  13.865
19071W        W87544  33.458  37.490   0.743
19072W        W87545   4.870  39.981   4.201
19073W        W87546  21.627  14.667  11.589
19074W        W87547  20.188  41.330   1.273
19075W        W87548   4.771  42.981   1.776
19076W        W87549  30.082  38.041   1.341
19077W        W87550  13.307  13.845   2.728
19078W        W87551  37.396  18.204  10.913
19079W        W87552   3.352  43.920  12.382
19080W        W87553  11.733   2.380  12.908
19081W        W87554  42.903  40.009   3.683
19082W        W87555  43.940  19.778  10.638
19083W        W87556   6.313  28.063   3.383
19084W        W87557  15.592  25.590   3.805
19085W        W87558   3.318  23.536   3.769
19086W        W87559  22.185  27.628  14.310
19087W        W87560  11.157  31.981   2.762
19088W        W87561  15.638  10.727  14.003
19089W        W87562  11.150   4.902   0.801
19090W        W87563  33.071  37.942   4.778
19091W        W87564  33.992  15.778  14.366
19092W        W87565  37.029  36.870  11.917
19093W        W87566  13.148  41.408  12.990
19094W        W87567  30.594  20.570   2.771
19095W        W87568  38.945  11.838  12.351
19096W        W87569   9.681  31.100   4.704
19097W        W87570  34.901  38.871  13.899
19098W        W87571  36.447  12.345   1.818
19099W        W87572  28.568  13.177   1.351
19100W        W87573  28.596  33.050  14.910
19101W        W87574   8.840  41.506   3.387
19102W        W87575   8.356   7.406  13.468
19103W        W87576   0.251   4.273  11.545
19104W        W87577  41.812  40.511   3.669
19105W        W87578  42.294  33.459  13.315
19106W        W87579   2.343  32.498  14.315
19107W        W87580  20.260   3.263  14.463
19108W        W87581  28.542   9.838  10.930
19109W        W87582  27.105  34.957  10.514
19110W        W87583  43.398  34.878  12.869
19111W        W87584  28.490   7.412   3.227
19112W        W87585   4.301  44.311   1.376
19113W        W87586  40.913   3.379   4.651
19114W        W87587  21.568  40.973   4.786
19115W        W87588  31.122  30.583   2.883
19116W        W87589   2.923  28.143  14.846
19117W        W87590   0.755   6.328  12.076
19118W        W87591  14.112  13.145  13.423
19119W        W87592   2.430  20.178   3.263
19120W        W87593  21.574  29.464   0.823
19121W        W87594   3.242  39.520   2.717
19122W        W87595   3.736  13.713   2.803
19123W        W87596   9.756  26.574   5.198
19124W        W87597  43.348  37.043   4.140
19125W        W87598  24.018  41.849   3.678
19126W        W87599  24.010  39.007   2.353
19127W        W87600  21.516  10.297  12.883
19128W        W87601   5.413  43.304  14.477
19129W        W87602   8.784  44.343   0.478
19130W        W87603   6.837   6.756  10.969
19131W        W87604  31.601  27.965   2.250
19132W        W87605  26.660   8.758   1.764
19133W        W87606   0.742  28.115  10.414
19134W        W87607  31.540   5.708   4.133
19135W        W87608  25.687  19.141  14.380
19136W        W87609   7.877   8.875  11.556
19137W        W87610  35.980  19.201  12.556
19138W        W87611  29.066  32.976   1.843
19139W        W87612  34.053  16.574  10.930
19140W        W87613   7.893   4.431  14.375
19141W        W87614  42.367  39.459  11.429
19142W        W87615  24.539  34.553  10.896
19143W        W87616   5.848   7.845   4.231
19144W        W87617  31.988  25.144   4.662
19145W        W87618  21.183  21.629  11.007
19146W        W87619  21.609   2.887  13.326
19147W        W87620   1.790  34.461   2.253
19148W        W87621  34.042  37.850   4.601
19149W        W87622  14.166   7.820   1.923
19150W        W87623  14.250  25.169   0.380
19151W        W87624   7.355  38.462   3.690
19152W        W87625  35.877  22.238  12.007
19153W        W87626  37.379  35.064  13.020
19154W        W87627   7.712  42.461  14.316
19155W        W87628  26.206  24.588   3.737
19156W        W87629   3.303   2.435  14.506
19157W        W87630  34.881   6.417  13.852
19158W        W87631  19.148  39.418   2.834
19159W        W87632  23.637  22.657   2.374
19160W        W87633   6.786  42.959  12.390
19161W        W87634  36.573  44.918   0.368
19162W        W87635  41.839  34.083  10.894
19163W        W87636  43.398   7.887   2.695
19164W        W87637  15.148  35.912   1.444
19165W        W87638  14.171  19.046   2.189
19166W        W87639   7.882  11.304   3.301
19167W        W87640  11.194  43.908   1.751
19168W        W87641  35.440  12.202   2.313
19169W        W87642  16.236  37.964   2.750
19170W        W87643   4.338  43.492  12.876
19171W        W87644  18.099  20.181  10.518
19172W        W87645  18.718  28.003  13.866
19173W        W87646  18.626  19.058  13.925
19174W        W87647   1.244  14.630  14.805
19175W        W87648  27.193  20.559   1.216
19176W        W87649  28.621  42.008   4.643
19177W        W87650  33.933  37.422   0.384
19178W        W87651   9.735  40.344   0.383
19179W        W87652  15.233  44.922  12.052
19180W        W87653  36.004  39.979  12.340
19181W        W87654  44.860  36.996  13.443
19182W        W87655  16.626   3.396   4.229
19183W        W87656  32.414   9.861   3.151
19184W        W87657   2.874  17.215  12.366
19185W        W87658   2.908  41.827  11.545
19186W        W87659   2.464  39.938   3.703
19187W        W87660  27.110  13.132   3.718
19188W        W87661  32.095  33.969   4.261
19189W        W87662  44.319  22.224   3.362
19190W        W87663  10.787   8.884   2.369
19191W        W87664   1.277  29.484  11.483
19192W        W87665  33.064  27.960   2.855
19193W        W87666  32.435  39.531  12.882
19194W        W87667   9.673  29.073   4.300
19195W        W87668   5.317   7.361  11.548
19196W        W87669   7.380  11.180  12.010
19197W        W87670   8.175   6.251   1.284
19198W        W87671   6.424   3.943   5.204
19199W        W87672  11.189  37.337   2.686
19200W        W87673   5.296  13.143   5.680
19201W        W87674  18.741  29.922   4.770
19202W        W87675  14.215  33.560   4.174
19203W        W87676  30.980  17.690  10.924
19204W        W87677  21.533  43.815  13.502
19205W        W87678   3.776   2.822  13.847
19206W        W87679  21.556  27.055   9.951
19207W        W87680  10.239  41.435   0.964
19208W        W87681  21.605   4.207   1.256
19209W        W87682  19.229   4.304  12.894
19210W        W87683  33.496  18.104   1.339
19211W        W87684  30.617  25.646   3.767
19212W        W87685   2.818  42.373   3.165
19213W        W87686  21.153   1.769  14.878
19214W        W87687   2.964  22.150   4.688
19215W        W87688  44.925  23.211   3.764
19216W        W87689  18.059   8.217   3.754
19217W        W87690  39.956  24.091  12.918
19218W        W87691  13.601   5.366   3.149
19219W        W87692   7.243  37.086   0.760
19220W        W87693  29.524  10.311   2.250
19221W        W87694  39.333  13.108  14.951
19222W        W87695  39.507  37.504  13.873
19223W        W87696  31.465   7.385  12.431
19224W        W87697  43.999  35.574  14.002
19225W        W87698  36.869  30.102  13.878
19226W        W87699  32.446  17.178   4.725
19227W        W87700   9.293  19.555  10.998
19228W        W87701  18.573  14.819   4.774
19229W        W87702  20.628   8.665  13.415
19230W        W87703  40.494  32.902   4.702
19231W        W87704  36.870  24.567   4.635
19232W        W87705  13.791  34.959  11.478
19233W        W87706  35.919  41.433   3.375
19234W        W87707   3.280  21.659   1.843
19235W        W87708  36.971  15.274  14.419
19236W        W87709  17.062  16.572   1.926
19237W        W87710  24.126  14.667   4.675
19238W        W87711  20.148  32.950   4.243
19239W        W87712   3.821  26.130   0.902
19240W        W87713  35.429  26.577   5.106
19241W        W87714  10.144  24.185   0.298
19242W        W87715  31.424  10.366   3.336
19243W        W87716  15.125  40.385   0.783
19244W        W87717  22.086   3.861   4.717
19245W        W87718  42.365   2.412  12.501
19246W        W87719  27.533  43.965   5.084
19247W        W87720  10.188  19.736   1.343
19248W        W87721  35.419  20.542   4.227
19249W        W87722  22.203   3.408   4.682
19250W        W87723  16.209   0.408  11.995
19251W        W87724  29.593  44.491  14.802
19252W        W87725  14.329  13.287   4.169
19253W        W87726   6.784  33.418   3.291
19254W        W87727   0.367  26.632  12.559
19255W        W87728   0.863  14.648   3.197
19256W        W87729   8.307  35.055   0.950
19257W        W87730  26.456  13.144  14.357
19258W        W87731  44.956  14.287  13.462
19259W        W87732  30.097  13.120   0.953
19260W        W87733  25.048  20.705   1.334
19261W        W87734  21.686  21.177   3.765
19262W        W87735  41.043  39.395   2.370
19263W        W87736  20.641   0.282   1.819
19264W        W87737   8.206  36.559   3.844
19265W        W87738   3.727  14.706  11.604
19266W        W87739  24.529  27.005  13.352
19267W        W87740   7.853  28.005  14.994
19268W        W87741   8.684  25.689   2.830
19269W        W87742   7.203  37.936  14.477
19270W        W87743   7.798   9.289  14.920
19271W        W87744  36.461  28.441   1.727
19272W        W87745  16.292  18.690   2.674
19273W        W87746  40.418  25.098  12.908
19274W        W87747  10.165  35.040  11.107
19275W        W87748   9.719  13.146   1.758
19276W        W87749  20.693  38.858   0.854
19277W        W87750  30.953  36.467  10.467
19278W        W87751  37.937  25.179   0.829
19279W        W87752  15.175  42.451   3.857
19280W        W87753  21.563  32.122   4.279
19281W        W87754  36.088  13.254   4.178
19282W        W87755  25.600  23.186  14.501
19283W        W87756  18.625  29.530  10.891
19284W        W87757  37.911  20.571  14.981
19285W        W87758  10.771  27.688   4.694
19286W        W87759  30.028  39.424  12.409
19287W        W87760   1.944  33.433  12.945
19288W        W87761  32.452   9.373  13.408
19289W        W87762   9.842  13.221  10.912
19290W        W87763  19.131   6.380  13.054
19291W        W87764   5.911  42.876  14.027
19292W        W87765  43.446  30.417  14.299
19293W        W87766   1.900   8.243   1.696
19294W        W87767  21.166  14.754  12.903
19295W        W87768  38.395  10.793  14.811
19296W        W87769  31.483  41.498  13.060
19297W        W87770  29.040  19.187  13.021
19298W        W87771  15.306  23.223  12.013
19299W        W87772  28.455  33.535  14.001
19300W        W87773  36.053  39.849   2.798
19301W        W87774  16.317  21.036   0.457
19302W        W87775  40.359  33.543  14.338
19303W        W87776  20.110  34.888  11.401
19304W        W87777  42.947   6.781   2.333
19305W        W87778  17.250  41.792  14.323
19306W        W87779   8.721  31.496  14.403
19307W        W87780  29.604  15.166   3.295
19308W        W87781  11.719  31.426  13.834
19309W        W87782  25.528  33.385  10.937
19310W        W87783   5.762  33.604  14.936
19311W        W87784  20.034   7.184   2.178
19312W        W87785  33.440  19.651  13.460
19313W        W87786  36.096  43.450   0.791
19314W        W87787   4.412  44.504   3.150
19315W        W87788  28.176  35.974  11.961
19316W        W87789   2.274  22.556   3.211
19317W        W87790  44.354  36.405  10.966
19318W        W87791  23.029   2.265  11.608
19319W        W87792  32.586  23.994   2.367
19320W        W87793  17.605   5.763   3.736
19321W        W87794  37.385  14.318   3.317
19322W        W87795   1.478  11.810   1.733
19323W        W87796  10.318  11.803   1.401
19324W        W87797  37.372  20.237  14.409
19325W        W87798  27.125  39.929   1.822
19326W        W87799   6.721  36.385   0.889
19327W        W87800  15.705   6.861  11.973
19328W        W87801   0.409  42.952   1.281
19329W        W87802  16.268  17.718  14.461
19330W        W87803  37.487  17.066  13.893
19331W        W87804  19.717  42.934   3.218
19332W        W87805   2.244   2.753  12.407
19333W        W87806   7.369  42.985   0.892
19334W        W87807   3.901   7.352   2.816
19335W        W87808  30.001  36.449   4.719
19336W        W87809  19.603  30.540  12.079
19337W        W87810  30.654  30.509  12.834
19338W        W87811  11.276  10.737  13.930
19339W        W87812   1.794   6.716   0.941
19340W        W87813  38.983  26.174   4.179
19341W        W87814  28.472   5.819   0.925
19342W        W87815   9.877  44.877   3.730
19343W        W87816   3.246   6.761   1.344
19344W        W87817  43.298  35.972  14.387
19345W        W87818  15.310  14.768   1.291
19346W        W87819  23.680  34.863  10.907
19347W        W87820  18.701  15.641  10.094
19348W        W87821  23.546  17.702   3.782
19349W        W87822  38.461  10.773   4.158
19350W        W87823  14.801   7.768  13.900
19351W        W87824  23.129  34.374   3.309
19352W        W87825  10.179  40.418   3.268
19353W        W87826  32.441  17.118   0.306
19354W        W87827  19.714   4.221   1.934
19355W        W87828  20.249  20.559   4.197
19356W        W87829   5.904   7.191  12.911
19357W        W87830  13.329  44.819   2.786
19358W        W87831   5.727  37.546  12.343
19359W        W87832   1.970  16.639   0.800
19360W        W87833  14.668  12.153   2.902
19361W        W87834   9.234  22.214   3.348
19362W        W87835  25.600  39.401  10.945
19363W        W87836   8.845   8.800   1.381
19364W        W87837  12.209  16.206   3.152
19365W        W87838   7.756  26.536  12.498
19366W        W87839  25.568   6.369   3.738
19367W        W87840  25.084  16.234   0.399
19368W        W87841  23.648  24.206   3.329
19369W        W87842  22.050  23.995  11.060
19370W        W87843  32.938  26.498   3.804
19371W        W87844  42.511  22.061  14.023
19372W        W87845  23.198  22.588  12.988
19373W        W87846  39.951  26.650  12.013
19374W        W87847  24.983  26.103  14.305
19375W        W87848  24.564  21.192  11.594
19376W        W87849  19.265  15.806  10.452
19377W        W87850  29.036   2.897   2.417
19378W        W87851  10.656  34.571  13.521
19379W        W87852  43.349  27.573   2.209
19380W        W87853   4.375  14.317  10.444
19381W        W87854  25.514  16.173   4.293
19382W        W87855  19.738  30.526   1.745
19383W        W87856   3.892  42.298  12.508
19384W        W87857  16.634   9.784  12.082
19385W        W87858  26.627  15.087   1.238
19386W        W87859  18.652  35.933  12.072
19387W        W87860  27.645  38.931  10.063
19388W        W87861  18.146  14.174   2.181
19389W        W87862  22.709  38.422   3.257
19390W        W87863  12.241  26.520  14.394
19391W        W87864   8.894  37.492  13.031
19392W        W87865  42.313  32.629   4.676
19393W        W87866  12.714  19.163   1.381
19394W        W87867   0.358  40.358  10.520
19395W        W87868  24.521  31.587   4.601
19396W        W87869  41.010  29.631  12.451
19397W        W87870  39.939  13.295   3.299
19398W        W87871  23.619  37.352   0.362
19399W        W87872  32.429  11.188   2.882
19400W        W87873  44.847   5.436  14.415
19401W        W87874   6.414   8.272  11.054
19402W        W87875  31.591  26.677   0.378
19403W        W87876  12.355  38.915   3.255
19404W        W87877  21.515   1.942  12.066
19405W        W87878  34.607  18.176   3.637
19406W        W87879  27.177  33.059  11.972
19407W        W87880  36.872  38.436  14.466
19408W        W87881  29.057  11.328   2.678
19409W        W87882  42.495  40.845   0.379
19410W        W87883  13.620   0.438  12.525
19411W        W87884   3.277   8.209   4.261
19412W        W87885  28.591  19.659   4.670
19413W        W87886  23.587  33.447   3.657
19414W        W87887  31.017  14.639  13.811
19415W        W87888  17.738   9.363   1.820
19416W        W87889  31.440  24.716  13.039
19417W        W87890  29.542  12.624   2.799
19418W        W87891  27.012  37.493  10.573
19419W        W87892  40.847   4.281   0.757
19420W        W87893  36.069  15.657   4.131
19421W        W87894  13.670   2.307   1.709
19422W        W87895  28.134  20.529   0.860
19423W        W87896  24.091  27.107   1.833
19424W        W87897   3.459  44.418  10.989
19425W        W87898   3.889  22.503  14.999
19426W        W87899  28.534   5.384   3.671
19427W        W87900  18.713  18.236  12.514
19428W        W87901  41.505  34.049   2.765
19429W        W87902  44.755  19.258   2.826
19430W        W87903   0.813  10.757  14.848
19431W        W87904  40.436  37.835  11.537
19432W        W87905  13.157   7.413  13.899
19433W        W87906  34.552  11.262   4.622
19434W        W87907  35.097  20.650   2.830
19435W        W87908  33.047   0.359   4.205
19436W        W87909   5.301   1.398  10.426
19437W        W87910  40.016  24.028   1.291
19438W        W87911   2.854   8.734  10.955
19439W        W87912  37.851  23.139   0.909
19440W        W87913  22.111  35.442   0.924
19441W        W87914  33.053  15.821   1.871
19442W        W87915  23.004   9.735   1.773
19443W        W87916  30.510  30.581  11.407
19444W        W87917  42.818  14.687  10.964
19445W        W87918   0.954  23.991   2.214
19446W        W87919  12.322   8.775   1.385
19447W        W87920   2.237   9.777  10.899
19448W        W87921  35.358  27.649  13.525
19449W        W87922  24.051  16.260   1.903
19450W        W87923  39.000  38.392   2.890
19451W        W87924  44.494  39.894  10.104
19452W        W87925   1.436  30.559  10.488
19453W        W87926  17.798  11.148  14.515
19454W        W87927  12.786  39.463  11.907
19455W        W87928  29.149   4.252   4.138
19456W        W87929  20.565   4.257  11.408
19457W        W87930  39.478  32.086  10.572
19458W        W87931   3.953  35.953   2.882
19459W        W87932  40.836  17.722   0.395
19460W        W87933  18.576  21.029   1.280
19461W        W87934  43.438  18.146  11.103
19462W        W87935   4.730  14.269  14.299
19463W        W87936  28.614  41.789  13.532
19464W        W87937  37.062  17.092   0.870
19465W        W87938   9.198   2.236   3.286
19466W        W87939  31.611  36.497  12.507
19467W        W87940   7.200  21.520   4.156
19468W        W87941  20.599   5.402   3.786
19469W        W87942  39.540   9.700   1.351
19470W        W87943  43.800  41.014  12.924
19471W        W87944  42.027   8.373  12.359
19472W        W87945  17.147  22.187   2.878
19473W        W87946  13.622   1.930  14.011
19474W        W87947  43.367  26.564  11.556
19475W        W87948  29.453   0.298   3.353
19476W        W87949  34.005  36.488  14.459
19477W        W87950  27.076  17.303  14.800
19478W        W87951  16.641  43.412   3.690
19479W        W87952  37.582   8.721   4.747
19480W        W87953  11.177  19.214  12.373
19481W        W87954   4.395   0.276  12.414
19482W        W87955  34.520   4.700  11.094
19483W        W87956  38.937  28.011  14.895
19484W        W87957  24.038  11.769   0.859
19485W        W87958  12.310  30.471   3.804
19486W        W87959  15.822  36.059   2.417
19487W        W87960  13.842  22.136  12.859
19488W        W87961  38.369  18.171  11.497
19489W        W87962  16.613  24.545   4.682
19490W        W87963  31.475  34.435   1.816
19491W        W87964  28.045  32.122   0.831
19492W        W87965  13.625   8.780  14.439
19493W        W87966  23.136   6.840  13.477
19494W        W87967  32.004  15.699   0.381
19495W        W87968  34.882  34.452   1.735
19496W        W87969  26.557  12.786   1.332
19497W        W87970   4.888  40.005   1.698
19498W        W87971   0.442  39.893  10.953
19499W        W87972   2.334  28.437   0.408
19500W        W87973  36.047   8.162   2.723
19501W        W87974  12.358  23.640   3.382
19502W        W87975  22.108  18.771  12.361
19503W        W87976  10.800  29.537  13.522
19504W        W87977  16.791   0.483   2.723
19505W        W87978  25.187   5.244  13.369
19506W        W87979  43.970  16.806  10.621
19507W        W87980  16.623   8.851   0.470
19508W        W87981   0.932  17.202  11.596
19509W        W87982   5.850  19.106   4.622
19510W        W87983  22.548  15.095   4.240
19511W        W87984  31.936   9.265  10.992
19512W        W87985  32.992  36.075  10.465
19513W        W87986   7.209   1.362  12.901
19514W        W87987  13.230  35.404  11.543
19515W        W87988   2.813   7.736   3.864
19516W        W87989  21.612  31.995   2.310
19517W        W87990  33.476  22.213  14.871
19518W        W87991   8.880  34.445  14.908
19519W        W87992  20.642  21.584  10.473
19520W        W87993  16.171   3.856  10.573
19521W        W87994  19.218  41.523  12.064
19522W        W87995  30.576  42.474  12.374
19523W        W87996  26.637  10.282  10.457
19524W        W87997  43.772  35.467  11.981
19525W        W87998  17.236  35.930  14.462
19526W        W87999  25.971   4.428   0.242
19527W        W88000  35.049   4.938  13.429
19528W        W88001   1.808  19.637  14.926
19529W        W88002  41.346  43.937  12.445
19530W        W88003  23.199  29.660   4.266
19531W        W88004  24.187  40.308   4.183
19532W        W88005  30.489  28.162  11.507
19533W        W88006  18.592  13.722  10.578
19534W        W88007  30.506   4.889  10.634
19535W        W88008  38.340  21.676  13.889
19536W        W88009  44.322  30.415   4.788
19537W        W88010  23.629  21.163   0.457
19538W        W88011   7.901  37.572  13.520
19539W        W88012  32.053  36.350   1.255
19540W        W88013  32.419  38.995   1.777
19541W        W88014  32.131  30.062  11.452
19542W        W88015   6.186   6.792   9.599
19543W        W88016   0.478  26.192  12.413
19544W        W88017  41.412  43.987  12.833
19545W        W88018   5.288  32.917  10.579
19546W        W88019   6.773  43.958   1.821
19547W        W88020  10.684  25.996   4.346
19548W        W88021  38.897  12.796  14.002
19549W        W88022  32.004  22.624   0.910
19550W        W88023   6.313  42.921  11.537
19551W        W88024  43.452  21.228   5.241
19552W        W88025   3.888  24.584   0.290
19553W        W88026  25.136   4.404   4.680
19554W        W88027   0.922  37.847   3.231
19555W        W88028  35.993  17.571  12.348
19556W        W88029  19.739   0.481   0.469
19557W        W88030  10.246  15.139   0.735
19558W        W88031  13.150  14.799   2.382
19559W        W88032  34.952  43.914  10.515
19560W        W88033  30.521   5.924   3.659
19561W        W88034  14.794   5.893   0.332
19562W        W88035  34.392  21.125  12.966
19563W        W88036   1.397  37.487   3.279
19564W        W88037  40.386  10.715  14.362
19565W        W88038  22.035   7.739  12.954
19566W        W88039   2.765  25.617   0.795
19567W        W88040  13.312  33.907   3.221
19568W        W88041  25.117  22.247  10.993
19569W        W88042  10.212  37.477  12.921
19570W        W88043  39.946  21.150  12.439
19571W        W88044   9.394   3.808   1.758
19572W        W88045  28.065  15.688   4.121
19573W        W88046  31.572  31.574  14.442
19574W        W88047  20.151  24.490  13.407
19575W        W88048  13.729  23.139   2.799
19576W        W88049   8.403  11.226  13.524
19577W        W88050  17.065  18.106  13.538
19578W        W88051  34.901  40.965   1.759
19579W        W88052   7.667  32.965  12.022
19580W        W88053  32.966  15.739  13.018
19581W        W88054  26.992  19.732  11.400
19582W        W88055   2.304  32.403   4.714
19583W        W88056  17.279  44.916   3.238
19584W        W88057  25.018  32.577   3.762
19585W        W88058   2.242  17.619  11.984
19586W        W88059  22.739  15.109   5.693
19587W        W88060   0.851   9.705   4.697
19588W        W88061  37.445  21.062   0.297
19589W        W88062  28.497  40.342  13.395
19590W        W88063  22.564  23.655  13.016
19591W        W88064   5.840  29.508   3.825
19592W        W88065  14.124   8.264   0.422
19593W        W88066  18.791  11.822   4.159
19594W        W88067   4.711  24.181  10.022
19595W        W88068  11.208  40.052  11.054
19596W        W88069  23.577  10.673  13.486
19597W        W88070  36.485  20.746   3.771
19598W        W88071  26.970  40.353   3.247
19599W        W88072   1.904   6.336  11.015
19600W        W88073  24.594  34.055   0.283
19601W        W88074   8.292  38.848   2.900
19602W        W88075  38.048  39.979  12.093
19603W        W88076  38.833   4.934  14.769
19604W        W88077  19.090  37.419  14.913
19605W        W88078  14.330   7.670   4.211
19606W        W88079  16.276  35.397  14.280
19607W        W88080  11.298  44.772  11.521
19608W        W88081  28.105  20.582  11.026
19609W        W88082  39.413  43.346  14.411
19610W        W88083  22.573  34.948  11.092
19611W        W88084  14.333  30.157  14.329
19612W        W88085  43.845  11.799   3.146
19613W        W88086  12.792  13.154  12.958
19614W        W88087  16.226  27.590   3.199
19615W        W88088  20.075  21.155  12.920
19616W        W88089  27.134   6.293   0.433
19617W        W88090  28.518   3.423  11.111
19618W        W88091  13.149   6.862  14.505
19619W        W88092  25.549  26.655   1.449
19620W        W88093   4.379  11.647   2.720
19621W        W88094  41.442  16.304   3.788
19622W        W88095  24.101  14.240  13.940
19623W        W88096  20.249  14.176  13.958
19624W        W88097  10.169  21.200   1.725
19625W        W88098   4.891  42.031   3.339
19626W        W88099  21.748  29.669   4.807
19627W        W88100   2.470  26.992  13.813
19628W        W88101  33.973  15.166  14.760
19629W        W88102  13.132   5.917   1.771
19630W        W88103  12.782   2.960   4.620
19631W        W88104  21.645   7.866  14.841
19632W        W88105  42.414  13.785   0.770
19633W        W88106   6.901  24.993   4.599
19634W        W88107  10.855   6.276  12.897
19635W        W88108  43.387  11.373   4.674
19636W        W88109  42.512  21.212   0.410
19637W        W88110  35.108  11.366  12.358
19638W        W88111   2.864  34.482  10.977
19639W        W88112  44.957  22.152   4.764
19640W        W88113  44.857   2.284   0.897
19641W        W88114  15.694   2.465  11.598
19642W        W88115  37.022  35.540   1.924
19643W        W88116  29.428  31.061  11.558
19644W        W88117  31.496  24.187  14.951
19645W        W88118   9.680  44.945   2.819
19646W        W88119   3.928  24.538   2.344
19647W        W88120  14.787   9.295   3.745
19648W        W88121   0.887   3.905  12.015
19649W        W88122  11.369  31.490   2.810
19650W        W88123  29.627  40.807   4.750
19651W        W88124  16.175  20.101  12.472
19652W        W88125  28.068  42.299   0.327
19653W        W88126  40.925  43.496   1.401
19654W        W88127  37.949  28.503   4.327
19655W        W88128   7.348  27.075  13.520
19656W        W88129  32.101  28.551   4.169
19657W        W88130   9.773  30.471   0.928
19658W        W88131  22.187   2.403   2.407
19659W        W88132  24.166  30.436   0.917
19660W        W88133   3.380  15.180   3.365
19661W        W88134  38.074  39.033  13.910
19662W        W88135  31.080  26.700   3.318
19663W        W88136  10.779   5.813   1.283
19664W        W88137   2.319  31.918   5.201
19665W        W88138  12.676  24.177   4.275
19666W        W88139  17.668   3.270   1.360
19667W        W88140  22.012  36.872  11.120
19668W        W88141  34.106  41.958  11.957
19669W        W88142  31.073  22.644   3.186
19670W        W88143  35.869  25.105  14.808
19671W        W88144  22.673   7.339   0.808
19672W        W88145   1.426  22.157  13.542
19673W        W88146   1.294  40.991  13.056
19674W        W88147  42.322  31.035   4.758
19675W        W88148   0.301  26.551   0.841
19676W        W88149  15.623   1.895   0.802
19677W        W88150  32.521   5.730   3.354
19678W        W88151   6.767  26.471  14.515
19679W        W88152  35.934  31.431  13.314
19680W        W88153  15.604  43.998   1.272
19681W        W88154  28.147  30.084  12.944
19682W        W88155  11.660  21.111   1.361
19683W        W88156  34.118  12.794   4.345
19684W        W88157  35.436   6.821  11.559
19685W        W88158   9.205  14.797  13.926
19686W        W88159  10.824  31.617  14.788
19687W        W88160  19.716   0.383  13.823
19688W        W88161   1.319  33.558   2.218
19689W        W88162  36.873  18.723  14.454
19690W        W88163  30.500  37.418  12.452
19691W        W88164  43.404  35.481   4.624
19692W        W88165  19.670  40.892   3.352
19693W        W88166  15.819  31.128   2.197
19694W        W88167  36.512  33.979  13.840
19695W        W88168  31.625  43.857   1.888
19696W        W88169  25.111  14.193   0.339
19697W        W88170  16.072   6.722   3.700
19698W        W88171   9.831  38.994   4.197
19699W        W88172  24.218  29.498  14.790
19700W        W88173  33.893   8.875   1.244
19701W        W88174   6.830  28.066  13.532
19702W        W88175  18.288  29.063  14.352
19703W        W88176  13.642  40.880  10.411
19704W        W88177  38.440  18.763   3.278
19705W        W88178   7.700   5.778   2.349
19706W        W88179  35.416  28.525  14.467
19707W        W88180  40.994  32.137   0.798
19708W        W88181  31.108   5.409  11.042
19709W        W88182  39.560  13.817   3.816
19710W        W88183  21.035  10.843   4.190
19711W        W88184  42.310  42.995   2.894
19712W        W88185  22.157  11.344  11.871
19713W        W88186  10.305  44.424  11.437
19714W        W88187  37.539  41.920  10.964
19715W        W88188  18.739   5.931   2.306
19716W        W88189  33.990  25.174  13.999
19717W        W88190  21.660  28.519  11.064
19718W        W88191  27.968  39.995  10.545
19719W        W88192  35.998   6.791   1.864
19720W        W88193  35.082  35.046   1.261
19721W        W88194  20.556  17.780  12.053
19722W        W88195   1.370  17.651  10.919
19723W        W88196  22.558  31.984   4.816
19724W        W88197  35.898   1.765   2.380
19725W        W88198  29.934  43.936  14.007
19726W        W88199  43.959  30.911  10.482
19727W        W88200   2.897  37.357  14.371
19728W        W88201  32.050  32.476   3.869
19729W        W88202  16.301  38.844  12.005
19730W        W88203   5.908  28.095   1.285
19731W        W88204  38.899   0.481  11.434
19732W        W88205  44.412   7.363  11.485
19733W        W88206  37.545  25.020   0.392
19734W        W88207  27.587  19.072  14.419
19735W        W88208   7.665  10.754  10.538
19736W        W88209   8.374  28.600   3.683
19737W        W88210  21.129  35.020  11.564
19738W        W88211  30.981  16.591  11.119
19739W        W88212   1.760  30.634  12.481
19740W        W88213   6.846   9.221   3.675
19741W        W88214   6.385  22.639   5.266
19742W        W88215   8.777   8.250  13.355
19743W        W88216  25.033  12.673   4.611
19744W        W88217  31.044  26.092  10.454
19745W        W88218  13.111  21.225   0.835
19746W        W88219  41.866  43.312   3.673
19747W        W88220  36.034  20.169  14.970
19748W        W88221  31.948  37.012  10.999
19749W        W88222   8.800  42.821  11.457
19750W        W88223  12.738   5.405   0.814
19751W        W88224  26.199   3.719  13.845
19752W        W88225  14.215  24.713  14.794
19753W        W88226  27.180  21.590   3.725
19754W        W88227  24.499  42.986   4.685
19755W        W88228  31.940  13.765  10.619
19756W        W88229  16.083  35.505   4.647
19757W        W88230  34.966  18.123  12.032
19758W        W88231   2.311  11.136   0.814
19759W        W88232  40.445   5.728   2.717
19760W        W88233   3.449  15.116   1.908
19761W        W88234  15.791  32.557  11.515
19762W        W88235  25.981   5.298   3.237
19763W        W88236  34.069  36.562   2.275
19764W        W88237  37.070   9.822  13.838
19765W        W88238  35.480  25.537   4.759
19766W        W88239   8.349  41.933   1.305
19767W        W88240  29.998  36.395  13.372
19768W        W88241  27.124  18.649   3.853
19769W        W88242   1.758  42.006   1.762
19770W        W88243  40.017   8.234   1.754
19771W        W88244  41.828  13.230  12.424
19772W        W88245   8.737   2.388   3.702
19773W        W88246  14.111  20.629   2.672
19774W        W88247  22.583   7.303  14.028
19775W        W88248  37.367  31.484  12.965
19776W        W88249  42.409  37.353   2.222
19777W        W88250  21.087  13.200  13.860
19778W        W88251   5.907  43.483   2.226
19779W        W88252  15.748  10.713   4.826
19780W        W88253  22.125  12.846   3.846
19781W        W88254  13.771   1.822   0.277
19782W        W88255  40.014   7.890   2.701
19783W        W88256  42.313   2.349  11.041
19784W        W88257  36.895  42.911  13.035
19785W        W88258  44.929   1.965   0.741
19786W        W88259  24.563  41.325  10.441
19787W        W88260   1.745  29.061   1.384
19788W        W88261  43.795  17.604  13.001
19789W        W88262  42.307  10.701  11.919
19790W        W88263  44.503   4.275   2.739
19791W        W88264   5.429   7.238   1.375
19792W        W88265  24.613  11.309   4.663
19793W        W88266   4.369   9.835   3.244
19794W        W88267  38.363   0.808  11.432
19795W        W88268  27.615  41.478  10.553
19796W        W88269  15.164  36.972   2.819
19797W        W88270  19.221  21.165   2.180
19798W        W88271  14.783  33.423  10.625
19799W        W88272  12.684   3.457  12.001
19800W        W88273  18.204   9.656  10.428
19801W        W88274  14.800  29.507  14.027
19802W        W88275  27.631  13.279   3.645
19803W        W88276   2.805  40.807  12.439
19804W        W88277  11.768  27.011  13.487
19805W        W88278  31.899  36.483  14.437
19806W        W88279  12.781  14.218   3.807
19807W        W88280  23.235  19.611   4.779
19808W        W88281  12.763  37.902   4.327
19809W        W88282  42.502  24.657  14.966
19810W        W88283  36.519  28.590   4.140
19811W        W88284   2.851   0.449   0.750
19812W        W88285  28.448  14.652  14.366
19813W        W88286  38.342  43.835  14.804
19814W        W88287  39.870   9.737  13.959
19815W        W88288  44.802  43.849   2.898
19816W        W88289  34.946   8.198  11.465
19817W        W88290   8.882  34.008   3.744
19818W        W88291  14.635  11.733  14.990
19819W        W88292  37.572   5.197  14.340
19820W        W88293  37.892   5.276   3.824
19821W        W88294   6.904  33.590   0.271
19822W        W88295  21.165  38.053  14.818
19823W        W88296  10.194  14.130   3.759
19824W        W88297   0.937  11.162   1.807
19825W        W88298  43.332  22.617  12.049
19826W        W88299   1.915   2.912  14.296
19827W        W88300  23.209  23.166   0.388
19828W        W88301  26.007  10.343  10.024
19829W        W88302  13.312  26.555  11.376
19830W        W88303  31.469  16.711  13.316
19831W        W88304  29.067  42.856  10.984
19832W        W88305  11.152  24.188  12.343
19833W        W88306  28.929  17.295  14.414
19834W        W88307  18.587  40.518   4.247
19835W        W88308  20.680  28.063   9.944
19836W        W88309   8.187   3.829   1.898
19837W        W88310  15.612  34.425   3.724
19838W        W88311  33.439  34.898   3.242
19839W        W88312  23.637  39.438  11.029
19840W        W88313  43.815  23.238  11.495
19841W        W88314  19.660   2.899  14.277
19842W        W88315   6.205  39.550   0.307
19843W        W88316  11.135  38.484  13.958
19844W        W88317  37.563   2.801  11.048
19845W        W88318  31.911  41.846   1.268
19846W        W88319  22.641  37.352  12.010
19847W        W88320  23.039  41.855   4.129
19848W        W88321  32.959  15.807   1.362
19849W        W88322  21.591  26.522  14.490
19850W        W88323   3.915   6.386   0.870
19851W        W88324  44.371  15.122  14.452
19852W        W88325  39.880  39.552  11.109
19853W        W88326  29.995  26.116  12.349
19854W        W88327  32.139  23.622   5.130
19855W        W88328  15.131  43.774  10.511
19856W        W88329   4.786  19.759   3.219
19857W        W88330  37.409  44.798  12.833
19858W        W88331  28.951  14.833  11.457
19859W        W88332  29.926   5.711   0.270
19860W        W88333   0.765  44.960   3.785
19861W        W88334  18.663  26.694  14.495
19862W        W88335  37.414  20.716  13.441
19863W        W88336   9.349  22.185   0.252
19864W        W88337  38.983   7.719   0.960
19865W        W88338  10.742  34.113  10.498
19866W        W88339  23.148  21.560  14.483
19867W        W88340  31.565  24.583  12.568
19868W        W88341  41.463  41.347   0.461
19869W        W88342   9.265   6.393  14.373
19870W        W88343   7.889  11.236  11.524
19871W        W88344  12.778  32.078  13.816
19872W        W88345  21.570  42.407   3.305
19873W        W88346  23.143  27.486   3.637
19874W        W88347  36.962  27.113  10.468
19875W        W88348  12.125   7.792   2.217
19876W        W88349  16.737  36.519  14.859
19877W        W88350  29.054  20.745   4.117
19878W        W88351  44.386   0.810  10.634
19879W        W88352   1.888  14.122   0.866
19880W        W88353  31.405  27.954   2.714
19881W        W88354  14.235  21.032  12.877
19882W        W88355   8.210  30.414  10.549
19883W        W88356   0.878  11.155   1.230
19884W        W88357  18.630  17.122   2.408
19885W        W88358   4.413  44.888   1.791
19886W        W88359  29.495   8.206   0.341
19887W        W88360   7.717  36.439   1.430
19888W        W88361   8.727  43.313   2.318
19889W        W88362   9.713  34.110  14.298
19890W        W88363  15.824   6.695   0.313
19891W        W88364   9.876  34.889   4.761
19892W        W88365   5.918  17.771   1.760
19893W        W88366  28.977  10.369   4.345
19894W        W88367  29.927  10.351  10.535
19895W        W88368   0.473  12.158  12.937
19896W        W88369  16.797  36.040  11.913
19897W        W88370  33.074  43.420  11.995
19898W        W88371   4.796  25.713   0.751
19899W        W88372   3.720  34.582  12.467
19900W        W88373  28.491   2.907  11.930
19901W        W88374   6.211   2.270   1.370
19902W        W88375  18.263  37.485  13.875
19903W        W88376   2.390  14.743   0.310
19904W        W88377  23.546  13.225   4.127
19905W        W88378   7.281   1.427   1.777
19906W        W88379  18.070   5.713  12.538
19907W        W88380  42.413   9.886  11.916
19908W        W88381   9.179  17.215   4.834
19909W        W88382  10.632  21.601  11.971
19910W        W88383  27.462  13.787   0.336
19911W        W88384  36.501  17.061  13.532
19912W        W88385   7.321  35.471   1.243
19913W        W88386  33.083  22.014   0.291
19914W        W88387   2.888  22.141  10.436
19915W        W88388  16.241   7.232  11.404
19916W        W88389   4.222  41.444   0.796
19917W        W88390   4.238  15.222   0.813
19918W        W88391  33.106  42.358   0.482
19919W        W88392  30.422  17.738  13.913
19920W        W88393  15.109  15.742  13.477
19921W        W88394  38.448  12.338  13.052
19922W        W88395  23.632  13.666   2.847
19923W        W88396  30.421  38.820   1.404
19924W        W88397  42.928  16.655  13.327
19925W        W88398   2.767  39.049   0.481
19926W        W88399  26.539  26.694   1.449
19927W        W88400  40.924  13.136   2.373
19928W        W88401  17.159  23.549   3.152
19929W        W88402  30.058  26.667  13.337
19930W        W88403  30.439   8.672  10.590
19931W        W88404  40.307   4.320   3.712
19932W        W88405  18.722  39.368  13.913
19933W        W88406  28.600   7.752  14.512
19934W        W88407  36.907  38.394  11.874
19935W        W88408  15.245  44.939   1.443
19936W        W88409  21.226  42.469  14.028
19937W        W88410  22.744  31.545  11.589
19938W        W88411   6.320  40.040  11.042
19939W        W88412  11.705  15.274   1.332
19940W        W88413  42.366  18.208   4.624
19941W        W88414  11.186  14.653   0.741
19942W        W88415   8.383  15.150  12.424
19943W        W88416  26.486   1.975   1.725
19944W        W88417  40.346  27.534  12.451
19945W        W88418  20.707   2.764   3.759
19946W        W88419  35.537  37.396   4.836
19947W        W88420  38.066  42.333   2.894
19948W        W88421  22.210  24.504  13.314
19949W        W88422   6.400   4.287  12.563
19950W        W88423  20.228   5.775  12.884
19951W        W88424  25.132  31.913   0.453
19952W        W88425  39.436   9.365  13.411
19953W        W88426  33.582  16.199   1.251
19954W        W88427  11.310  19.282   1.879
19955W        W88428  15.159  21.546   3.343
19956W        W88429  11.721  28.018  13.420
19957W        W88430  31.516   1.843  12.460
19958W        W88431  31.058  32.515  12.031
19959W        W88432   6.678   0.363   0.754
19960W        W88433  25.152  15.603  14.804
19961W        W88434  24.993  20.114   4.805
19962W        W88435   6.911  15.240  12.498
19963W        W88436  38.960  20.156   4.197
19964W        W88437  38.518   5.236  13.894
19965W        W88438  10.268  30.489   3.299
19966W        W88439  40.428  29.950  11.110
19967W        W88440  20.231  27.162   3.857
19968W        W88441  30.525   1.290   0.781
19969W        W88442  30.927  39.530  14.497
19970W        W88443   1.327  34.978  12.955
19971W        W88444  15.132   4.707   1.352
19972W        W88445   9.276  29.614   0.253
19973W        W88446  28.097  34.071  12.368
19974W        W88447  30.463  33.556  13.956
19975W        W88448  19.041  20.082  11.402
19976W        W88449  27.066   3.328   0.733
19977W        W88450  34.959  22.513  10.995
19978W        W88451  16.783   3.768  13.397
19979W        W88452  40.379  27.681   0.946
19980W        W88453   2.348  25.063  13.907
19981W        W88454  40.502  11.861  12.552
19982W        W88455   2.309  39.879  10.477
19983W        W88456   0.802  26.189   0.276
19984W        W88457  29.524  26.658  11.440
19985W        W88458  42.867  17.164  13.355
19986W        W88459  29.069  37.529  11.580
19987W        W88460   9.788  34.083   1.448
19988W        W88461  14.134   0.884   3.305
19989W        W88462   4.342  44.933  14.326
19990W        W88463  28.113   5.829   1.240
19991W        W88464  40.805  40.488  11.912
19992W        W88465  37.493  31.109   3.198
19993W        W88466   4.258   8.863  12.070
19994W        W88467  41.976   9.355   4.644
19995W        W88468   2.799  33.395  11.953
19996W        W88469  43.464   9.810   4.617
19997W        W88470  44.934  29.510   3.235
19998W        W88471   7.335  21.645   1.239
19999W        W88472  30.991   6.845   4.202
20000W        W88473  18.773   9.375  10.938
20001W        W88474  30.581  10.741   3.752
20002W        W88475  39.885   0.965   4.181
20003W        W88476  27.531  21.652  14.926
20004W        W88477  12.246  25.468   4.643
20005W        W88478  33.019  36.588  13.021
20006W        W88479   6.295   0.923   0.896
20007W        W88480  15.269  23.002   4.807
20008W        W88481   0.268  22.527  13.416
20009W        W88482   6.425  37.898  11.111
20010W        W88483  22.018  32.448  13.056
20011W        W88484  24.000   6.827   4.221
20012W        W88485  27.132   4.434  13.000
20013W        W88486  29.425  20.681  14.785
20014W        W88487  41.302  10.205  11.884
20015W        W88488  28.022  23.138  13.343
20016W        W88489  12.610  40.880   0.768
20017W        W88490  37.570  32.035  12.030
20018W        W88491   0.271   3.288  11.977
20019W        W88492  42.818   0.395   4.304
20020W        W88493   0.428   7.333  12.498
20021W        W88494  43.434  14.204   1.369
20022W        W88495  31.152   9.149  13.380
20023W        W88496  35.881  28.519   3.756
20024W        W88497  16.693  39.818  11.371
20025W        W88498  38.854  27.460  13.357
20026W        W88499  15.119  14.682  12.454
20027W        W88500  11.354  23.627   0.283
20028W        W88501  19.259  40.495  13.002
20029W        W88502  30.445  27.119  11.549
20030W        W88503  39.927  18.108  14.882
20031W        W88504  16.224  39.408  13.352
20032W        W88505  34.490  21.681  14.852
20033W        W88506   6.794   8.279   3.668
20034W        W88507  24.519  23.127  13.422
20035W        W88508  19.146  31.618   0.276
20036W        W88509  30.476  34.895  13.548
20037W        W88510  13.760  22.686   0.814
20038W        W88511  34.903  14.143   3.228
20039W        W88512  13.599  21.571   3.207
20040W        W88513  23.163  37.929   3.836
20041W        W88514   5.375  42.447  11.476
20042W        W88515  30.424  21.706  11.413
20043W        W88516  31.531  25.985   4.764
20044W        W88517  20.536  43.398   0.888
20045W        W88518  37.571  22.648   2.415
20046W        W88519  31.142  21.643   0.845
20047W        W88520  33.006  41.523  12.881
20048W        W88521  28.680  20.605  13.352
20049W        W88522  37.349   1.976   1.748
20050W        W88523  41.528  26.184  13.935
20051W        W88524  24.694  29.435   2.794
20052W        W88525  42.833   2.943   0.822
20053W        W88526   5.256   3.432  13.469
20054W        W88527   9.860   9.743  10.924
20055W        W88528  17.211   1.909   4.190
20056W        W88529   4.390  16.236  10.127
20057W        W88530   2.423  42.810   2.674
20058W        W88531  29.002  36.444  11.609
20059W        W88532  15.718  40.496  14.478
20060W        W88533  39.484  30.046   3.333
20061W        W88534  41.791  16.793  13.011
20062W        W88535  17.187  22.057   4.798
20063W        W88536  20.599  32.407  10.924
20064W        W88537  11.215  30.504  11.605
20065W        W88538   7.346  23.171   1.447
20066W        W88539   7.848  26.037   3.217
20067W        W88540   0.949  13.648  11.097
20068W        W88541  11.291   0.901  12.021
20069W        W88542  32.926  33.031  11.515
20070W        W88543   7.748   7.731  14.858
20071W        W88544  33.100   8.161   0.744
20072W        W88545   6.266  10.146  11.100
20073W        W88546  33.083   3.938  14.467
20074W        W88547  16.192  41.508  10.572
20075W        W88548  44.371   2.406   5.084
20076W        W88549  40.521  13.688   0.347
20077W        W88550  13.118  22.128   0.926
20078W        W88551   3.888  29.519  14.314
20079W        W88552  10.265   6.217  10.952
20080W        W88553  35.386  14.184   2.240
20081W        W88554   5.298  30.105  14.317
20082W        W88555  44.993  39.066  14.775
20083W        W88556  42.369  13.763   0.407
20084W        W88557  22.633  18.051   0.399
20085W        W88558  27.047  42.027   4.806
20086W        W88559  39.380  43.444  11.520
20087W        W88560  33.129  21.688  10.582
20088W        W88561  13.802  18.251  13.971
20089W        W88562   5.867  38.835  13.476
20090W        W88563  18.689  35.012   3.348
20091W        W88564   9.678  39.956   3.237
20092W        W88565  36.546  29.635  13.825
20093W        W88566  27.153  18.635  11.017
20094W        W88567  21.136  44.897  11.906
20095W        W88568   1.409   0.862  10.518
20096W        W88569  34.884  23.574  13.855
20097W        W88570  34.998  23.706   1.428
20098W        W88571  17.141  41.427   2.756
20099W        W88572  37.395  39.997   1.408
20100W        W88573  30.929   9.803   4.767
20101W        W88574  18.247  12.277   1.739
20102W        W88575   0.256  20.061   3.157
20103W        W88576  39.469   3.435   2.348
20104W        W88577   7.810   2.731   1.224
20105W        W88578  42.947  13.146  10.944
20106W        W88579  42.314  35.999  12.035
20107W        W88580  23.523   8.214  11.488
20108W        W88581  12.236  43.467  13.357
20109W        W88582   5.321  31.422  13.359
20110W        W88583  44.894  42.977  11.437
20111W        W88584   8.320  26.557   2.306
20112W        W88585  28.440  20.603  14.874
20113W        W88586  14.800   6.792   4.328
20114W        W88587   9.845  38.521   0.742
20115W        W88588   2.782   0.941  13.990
20116W        W88589  37.919   0.919   3.726
20117W        W88590  14.825   3.886   0.767
20118W        W88591  37.508   4.733  12.464
20119W        W88592  42.926   5.786   9.951
20120W        W88593  43.937   8.897   2.267
20121W        W88594  33.007  16.244  11.994
20122W        W88595  33.909  42.966  11.888
20123W        W88596  18.081  35.415   1.773
20124W        W88597  25.047  42.793  10.974
20125W        W88598  40.936   7.346   3.814
20126W        W88599  42.789  43.511   2.800
20127W        W88600  17.166  16.122  12.477
20128W        W88601  34.921  13.197  11.385
20129W        W88602  41.937  34.379   0.415
20130W        W88603   1.841   9.751   2.341
20131W        W88604  36.505  34.501   0.365
20132W        W88605  13.688  11.804  10.424
20133W        W88606  41.015  35.540   2.834
20134W        W88607  19.265   0.314  11.549
20135W        W88608  40.901  34.430   4.834
20136W        W88609   5.870  16.658   1.371
20137W        W88610  26.953   5.317   4.282
20138W        W88611  35.860  35.978  14.982
20139W        W88612   9.666  27.191  13.852
20140W        W88613  21.255   5.277   4.123
20141W        W88614  39.854  16.201   2.703
20142W        W88615  10.868  35.456   1.703
20143W        W88616  12.336  24.645   1.337
20144W        W88617  42.944  26.160   4.716
20145W        W88618  28.088  24.098  13.961
20146W        W88619   5.298  43.787   4.735
20147W        W88620  37.560  32.937  11.885
20148W        W88621  18.058  28.120   2.239
20149W        W88622  35.497  34.932  12.974
20150W        W88623   2.263   1.889  11.022
20151W        W88624  28.085   0.927   2.898
20152W        W88625  39.483  17.263  12.536
20153W        W88626  23.604  34.388   2.247
20154W        W88627  26.159  43.294  10.912
20155W        W88628  14.721  12.204  14.503
20156W        W88629  28.968  10.334   3.855
20157W        W88630  43.321  37.447   1.236
20158W        W88631   0.816  43.495  11.597
20159W        W88632  39.487  19.039   4.632
20160W        W88633   4.390  10.139  10.617
20161W        W88634  30.628   0.417  10.938
20162W        W88635  35.546   2.779   1.803
20163W        W88636   1.770   7.867   4.328
20164W        W88637  40.414  22.723   0.339
20165W        W88638  33.093  36.378   0.860
20166W        W88639  43.479  37.930  14.940
20167W        W88640  39.340   2.959   4.697
20168W        W88641  19.128  24.496  11.414
20169W        W88642  34.976  42.386  12.371
20170W        W88643  31.416  42.448   0.307
20171W        W88644   1.749  44.858   0.828
20172W        W88645  40.312  37.998   0.328
20173W        W88646   3.870  11.364  10.586
20174W        W88647   8.306  41.995  14.960
20175W        W88648  33.958  43.305  13.409
20176W        W88649  29.036  34.416   4.295
20177W        W88650  13.172  39.459  14.984
20178W        W88651  41.406  33.120  14.792
20179W        W88652  14.213   2.966   2.182
20180W        W88653  38.398  43.933   3.373
20181W        W88654  14.241  41.018  12.971
20182W        W88655  11.351  37.844  10.950
20183W        W88656   7.406   9.386  11.968
20184W        W88657  37.976  37.960   2.870
20185W        W88658  16.579   1.868   0.880
20186W        W88659  27.564  24.204  13.807
20187W        W88660  30.578  25.122  10.919
20188W        W88661  34.055  17.576   3.249
20189W        W88662  36.984  41.937  13.978
20190W        W88663   0.289  38.461  12.471
20191W        W88664  38.874  33.076   3.649
20192W        W88665  23.542   1.375  12.481
20193W        W88666   0.440  39.856   0.846
20194W        W88667  29.426  25.566  13.341
20195W        W88668  29.657  35.057   0.839
20196W        W88669  33.557   5.814   1.902
20197W        W88670  25.678   8.898  13.356
20198W        W88671  17.557  26.161   0.377
20199W        W88672  18.683  19.712  14.897
20200W        W88673  36.473  32.448  12.995
20201W        W88674  35.600  27.649  14.418
20202W        W88675  44.980   1.956  11.429
20203W        W88676  35.545  25.558  12.053
20204W        W88677  19.213  29.496  12.373
20205W        W88678  18.659  30.026   2.755
20206W        W88679  40.952   5.373   4.839
20207W        W88680   6.723  33.925   1.861
20208W        W88681  39.553  32.576   2.388
20209W        W88682  44.450  38.023   3.694
20210W        W88683  20.648  26.025  11.560
20211W        W88684  19.699   6.373  13.937
20212W        W88685  29.107  16.311   2.779
20213W        W88686  37.076  36.852   1.344
20214W        W88687  10.310  14.182   1.804
20215W        W88688  40.004  16.264  12.007
20216W        W88689   4.778  29.172   1.924
20217W        W88690  22.562   7.250   2.814
20218W        W88691   0.326  19.583  12.558
20219W        W88692  22.579  12.761   2.901
20220W        W88693  21.161  31.413  12.487
20221W        W88694  44.328  30.999   2.725
20222W        W88695  29.648  44.468  11.998
20223W        W88696  17.162  33.391  11.898
20224W        W88697   5.714  39.915   4.838
20225W        W88698  10.177  11.760   5.139
20226W        W88699   6.360  13.315   3.368
20227W        W88700   7.816   1.396   1.821
20228W        W88701  13.693  44.821  13.888
20229W        W88702   5.697  17.682  12.380
20230W        W88703  23.491  21.714   1.433
20231W        W88704  21.660  15.195   3.851
20232W        W88705  27.469   0.777   1.926
20233W        W88706   0.430   5.220  13.916
20234W        W88707  14.291  24.063  13.031
20235W        W88708  29.964  22.569  12.977
20236W        W88709   0.899  11.336   2.769
20237W        W88710  25.122   1.845   4.819
20238W        W88711  29.044   6.309   4.819
20239W        W88712  30.976  17.652   4.205
20240W        W88713   5.421  14.727   4.827
20241W        W88714  33.009   3.773  11.107
20242W        W88715   7.394  27.111  11.113
20243W        W88716   7.221  40.313   4.662
20244W        W88717  29.930   2.273   2.249
20245W        W88718   6.246   0.965  14.382
20246W        W88719  40.326  39.467   3.157
20247W        W88720  42.280  31.516   3.743
20248W        W88721   2.953  40.030  13.036
20249W        W88722  15.216  26.118  10.607
20250W        W88723  35.942  34.931  11.986
20251W        W88724  15.729  42.346  10.889
20252W        W88725  28.952   9.862  10.422
20253W        W88726  34.472   0.812  11.858
20254W        W88727  40.042   6.685   1.932
20255W        W88728  21.511  28.025   2.183
20256W        W88729  22.019  21.518   1.252
20257W        W88730   6.850  24.092   4.344
20258W        W88731  20.263  14.193  11.018
20259W        W88732   8.405   4.807  11.477
20260W        W88733  42.915  29.153   1.327
20261W        W88734  31.642  12.140   0.263
20262W        W88735  21.223   0.827   5.291
20263W        W88736  10.784  15.679  12.546
20264W        W88737  23.992  15.609  12.464
20265W        W88738   6.369  23.026  11.450
20266W        W88739  24.184  11.260  10.517
20267W        W88740  23.079  41.524   3.173
20268W        W88741  34.478  34.380  14.978
20269W        W88742  23.565  10.690  12.934
20270W        W88743  11.654  37.385  10.624
20271W        W88744  19.665  37.423  12.052
20272W        W88745  32.620   4.878   1.763
20273W        W88746  15.760  44.479   3.768
20274W        W88747   5.201  34.908   0.383
20275W        W88748  23.132  43.325  14.030
20276W        W88749  32.006  14.260  14.380
20277W        W88750  36.380  13.702   3.162
20278W        W88751   1.342  19.114   4.167
20279W        W88752   5.860  14.173  13.004
20280W        W88753  33.521  17.801  11.577
20281W        W88754   3.243  44.445  12.039
20282W        W88755   8.222  36.007   5.614
20283W        W88756  10.769  12.621   2.896
20284W        W88757  43.315  24.168  10.559
20285W        W88758   9.827  23.579  11.485
20286W        W88759  28.085   1.768  11.886
20287W        W88760  18.654  39.411   3.263
20288W        W88761   7.185  20.686   2.216
20289W        W88762  23.203  39.355  13.373
20290W        W88763  42.786  42.444   1.766
20291W        W88764  35.884   5.324  14.962
20292W        W88765  44.318  39.995  11.399
20293W        W88766  42.817  25.609  13.916
20294W        W88767  35.006  44.909  13.985
20295W        W88768  38.528   2.239   2.256
20296W        W88769  24.604  37.063  10.573
20297W        W88770  36.986  11.697   3.245
20298W        W88771  22.010  33.609  12.364
20299W        W88772  32.964  32.992   1.432
20300W        W88773  14.788  14.301  14.336
20301W        W88774  27.664   7.296  11.901
20302W        W88775  11.314  43.838  13.518
20303W        W88776  41.883   3.854  14.999
20304W        W88777  43.339  12.664  14.822
20305W        W88778  30.946  11.843  12.441
20306W        W88779  30.093  23.591  14.761
20307W        W88780  18.683  14.103  10.139
20308W        W88781  38.500  38.470   1.791
20309W        W88782  39.833  20.628   4.622
20310W        W88783  38.980  37.392   3.371
20311W        W88784  28.101  20.742   2.788
20312W        W88785  21.130  16.153  14.400
20313W        W88786   3.285  16.153  14.853
20314W        W88787  26.987  11.791  14.016
20315W        W88788  13.208   8.395  10.611
20316W        W88789  34.613  28.044  11.441
20317W        W88790  14.716   3.410   5.083
20318W        W88791  41.819  11.241   2.692
20319W        W88792  34.867  16.588  13.506
20320W        W88793   7.749  27.010   2.418
20321W        W88794  16.215   2.377   1.845
20322W        W88795   8.287  23.560  10.467
20323W        W88796  14.191  13.834   1.284
20324W        W88797  27.125   0.474   5.184
20325W        W88798   6.323   0.372   1.325
20326W        W88799  28.182  16.752   1.725
20327W        W88800  31.536  39.014   2.300
20328W        W88801  13.266  25.646   3.289
20329W        W88802  18.676  41.007  13.307
20330W        W88803   2.832  40.986   1.279
20331W        W88804  16.659  21.189  14.472
20332W        W88805  38.860  34.058  13.906
20333W        W88806  29.567  11.678  13.989
20334W        W88807   5.900   7.192   2.767
20335W        W88808  44.887  42.958   4.638
20336W        W88809   8.697   2.916  12.900
20337W        W88810  23.103  29.670  11.986
20338W        W88811  30.923   2.442   2.395
20339W        W88812  38.912   2.270   3.647
20340W        W88813  10.140  12.117  11.061
20341W        W88814   7.330  11.714  12.057
20342W        W88815   5.731  19.093   3.699
20343W        W88816  10.705   7.290  13.408
20344W        W88817  18.704  41.533  12.415
20345W        W88818  43.839   6.756  12.410
20346W        W88819  24.520  39.024  11.922
20347W        W88820   4.336   7.689  10.891
20348W        W88821   4.375   7.882   1.273
20349W        W88822  19.739  40.328  14.022
20350W        W88823  44.409   9.690   4.289
20351W        W88824  32.102  31.151   2.888
20352W        W88825  10.733  24.014  12.480
20353W        W88826  20.576  35.989  14.863
20354W        W88827  22.708  39.469  11.579
20355W        W88828  12.179  40.983   4.753
20356W        W88829   3.908   6.727   3.200
20357W        W88830  18.567  29.483   3.722
20358W        W88831   3.795  41.956  12.369
20359W        W88832   4.292  10.785   4.271
20360W        W88833  26.203  20.202   4.629
20361W        W88834  13.720  25.999   3.820
20362W        W88835  12.257   8.868  11.439
20363W        W88836   7.204   1.256   1.356
20364W        W88837  44.846  39.020   3.176
20365W        W88838  23.618  32.029   0.400
20366W        W88839  35.549  17.608  10.529
20367W        W88840  31.907   5.387   1.871
20368W        W88841  37.487  37.951  11.575
20369W        W88842  44.963  24.088   4.289
20370W        W88843   7.205  44.449   0.395
20371W        W88844   9.173  43.963  14.827
20372W        W88845  13.177  17.738  13.369
20373W        W88846  19.049  12.745   2.251
20374W        W88847  16.084  35.381  12.834
20375W        W88848   8.306   6.301  10.127
20376W        W88849  23.496   6.797   0.763
20377W        W88850  41.426   2.743  13.317
20378W        W88851   6.365  11.171   1.934
20379W        W88852  28.976  36.510   2.416
20380W        W88853  23.213  28.049  12.950
20381W        W88854  21.261  31.097   5.262
20382W        W88855  35.377  13.206   1.338
20383W        W88856  31.526  20.690   4.629
20384W        W88857  18.066  28.117   1.373
20385W        W88858  41.332   0.825  12.913
20386W        W88859  11.205   8.264  14.317
20387W        W88860  40.010   9.322  11.072
20388W        W88861  34.552  30.423   1.717
20389W        W88862  24.649  17.120   0.298
20390W        W88863  19.230  41.992   1.222
20391W        W88864  40.459  12.643  12.455
20392W        W88865   3.376  36.548   1.361
20393W        W88866   4.754  31.532  13.397
20394W        W88867  28.605  19.747  12.924
20395W        W88868   6.694  40.001  13.361
20396W        W88869  32.401  32.925   3.228
20397W        W88870  21.732  28.122  12.835
20398W        W88871   2.391  42.911   3.850
20399W        W88872  30.536  37.421   3.321
20400W        W88873   2.309   8.883  11.387
20401W        W88874  15.264  22.688   4.834
20402W        W88875  24.514  17.683  13.327
20403W        W88876  21.175  18.201   0.473
20404W        W88877  41.465  25.468  14.802
20405W        W88878  40.526  28.089   4.192
20406W        W88879  21.656  15.154  10.507
20407W        W88880   4.701   4.727   5.157
20408W        W88881   5.868  35.528   4.354
20409W        W88882  42.816  26.159  12.554
20410W        W88883  32.494   2.424   1.418
20411W        W88884  39.520  10.722   0.822
20412W        W88885   7.370  34.456  14.970
20413W        W88886  35.483  40.998   3.697
20414W        W88887  22.657  44.323   0.329
20415W        W88888  27.615  11.326  14.763
20416W        W88889  41.498  42.792   3.783
20417W        W88890  12.118  34.584   4.816
20418W        W88891  33.966   6.334   2.239
20419W        W88892  40.541  18.603   0.303
20420W        W88893  34.083  25.090   1.270
20421W        W88894  34.504  31.575   1.355
20422W        W88895  41.405  26.966  14.429
20423W        W88896  10.189  15.099  11.919
20424W        W88897   9.363  13.291   3.699
20425W        W88898  44.287  44.500   2.248
20426W        W88899  28.115  14.126   0.271
20427W        W88900   3.289  43.784  11.544
20428W        W88901  33.502   3.868   1.420
20429W        W88902  28.098  17.801  14.864
20430W        W88903   0.766   6.302  10.981
20431W        W88904  27.076  39.360   4.268
20432W        W88905   7.256  29.443   4.202
20433W        W88906  22.058   4.810  10.421
20434W        W88907  21.695  39.388   2.205
20435W        W88908  29.648  37.342  13.509
20436W        W88909  28.970  43.940  14.468
20437W        W88910  21.687  30.958   0.287
20438W        W88911  16.655  22.696  12.841
20439W        W88912  27.179  12.320  13.490
20440W        W88913  25.091  10.666   2.704
20441W        W88914  19.172  37.515   0.283
20442W        W88915  14.192  28.513  14.314
20443W        W88916  37.408  33.623  12.894
20444W        W88917   1.421   3.430  12.050
20445W        W88918  15.145  14.806  12.845
20446W        W88919  15.248   4.804  11.985
20447W        W88920  42.972  17.630   0.939
20448W        W88921   4.217   3.377  14.765
20449W        W88922  16.603  18.697   2.855
20450W        W88923  31.978  22.140  11.449
20451W        W88924  28.538  16.190  10.577
20452W        W88925  22.511  14.247   3.645
20453W        W88926  40.019  12.691   4.315
20454W        W88927  18.602   3.389  12.934
20455W        W88928  39.532   9.644  14.942
20456W        W88929  31.041  25.065  10.423
20457W        W88930  40.449   7.691  10.463
20458W        W88931  12.156  44.328   3.158
20459W        W88932   1.387  36.890   3.820
20460W        W88933  13.798  42.912   0.754
20461W        W88934  24.064  16.685   4.229
20462W        W88935  34.110  11.643  14.415
20463W        W88936  27.660   3.846   4.823
20464W        W88937  26.128  26.539   0.849
20465W        W88938   5.908  41.455   3.638
20466W        W88939  21.235  29.456   1.410
20467W        W88940   4.855  44.878   4.122
20468W        W88941   4.241  13.786   0.755
20469W        W88942  35.998   4.368   1.783
20470W        W88943  12.349  12.635   2.260
20471W        W88944  42.474  43.945  12.042
20472W        W88945  25.104   6.913   3.287
20473W        W88946   3.433  11.265   0.451
20474W        W88947  43.868  13.171   4.800
20475W        W88948  19.278  30.075  14.888
20476W        W88949   4.798  16.791   3.715
20477W        W88950  15.163  31.627  11.956
20478W        W88951   2.863  13.202   3.630
20479W        W88952  43.784  41.325  13.892
20480W        W88953  20.603  36.068   0.456
20481W        W88954   7.800  41.436  14.985
20482W        W88955  34.955  31.988  14.498
20483W        W88956   7.285  32.501  13.000
20484W        W88957  36.982  27.075  14.943
20485W        W88958  18.625  34.937   4.212
20486W        W88959  29.647  35.535  12.460
20487W        W88960  38.937   7.718  13.820
20488W        W88961  22.644   4.715   2.795
20489W        W88962  33.876   2.373   0.269
20490W        W88963  12.772  11.679   2.705
20491W        W88964  23.090  38.338  13.876
20492W        W88965  28.621  43.799   2.226
20493W        W88966  26.180  41.482   1.743
20494W        W88967  16.773  27.542   2.384
20495W        W88968  15.824  15.252   2.412
20496W        W88969  39.878   7.792   2.403
20497W        W88970  36.414  26.138  13.940
20498W        W88971  33.099  10.175  10.037
20499W        W88972  37.990  13.251   3.147
20500W        W88973   3.457  12.829  13.502
20501W        W88974  35.603  20.049   4.613
20502W        W88975  34.878  29.055   4.641
20503W        W88976  39.012  34.086  12.999
20504W        W88977  12.231  44.498  13.029
20505W        W88978   4.391  31.996  14.966
20506W        W88979   8.363  19.268   0.786
20507W        W88980   7.255  43.352  13.051
20508W        W88981   1.964  39.459   3.646
20509W        W88982  38.508   5.232   3.840
20510W        W88983  42.855  44.457   1.281
20511W        W88984  36.353  36.379  14.436
20512W        W88985  28.470  44.334  14.513
20513W        W88986  41.488  39.827   4.135
20514W        W88987   9.835  27.963  14.354
20515W        W88988  10.694  16.663  12.977
20516W        W88989  29.959   5.765   2.746
20517W        W88990  35.467  30.622   0.245
20518W        W88991   6.825   3.324  10.503
20519W        W88992  30.918  33.056  13.499
20520W        W88993   9.782  13.678  13.516
20521W        W88994   3.316  34.524   0.389
20522W        W88995  38.475   5.753  12.406
20523W        W88996  30.980  42.886  12.490
20524W        W88997  33.999  43.832  12.359
20525W        W88998   4.824  33.000  13.966
20526W        W88999  36.591   7.258  12.060
20527W        W89000  39.424   6.260   2.752
20528W        W89001  23.644  38.360   0.757
20529W        W89002  11.684   1.316  13.424
20530W        W89003  25.497  12.314  12.980
20531W        W89004  32.917  43.793   2.825
20532W        W89005  41.916  43.988   1.254
20533W        W89006  37.886  43.981   0.748
20534W        W89007   9.374  30.568   1.737
20535W        W89008  12.357  16.136   2.381
20536W        W89009  10.824  18.140   2.903
20537W        W89010   8.340  28.091   2.750
20538W        W89011   7.231  33.429   1.223
20539W        W89012  42.479  18.622  13.490
20540W        W89013  15.786   1.936   1.373
20541W        W89014  21.654  13.146   1.240
20542W        W89015   0.799  11.169   2.366
20543W        W89016   5.315  25.180  11.085
20544W        W89017  10.167  41.413   3.304
20545W        W89018  14.274  39.988  10.513
20546W        W89019   8.820  27.001  11.108
20547W        W89020  26.199  25.666  13.939
20548W        W89021   5.863  31.538  14.508
20549W        W89022  16.643  18.115   4.241
20550W        W89023  25.085  21.163   0.319
20551W        W89024   0.931  12.361   2.199
20552W        W89025  10.201  29.995  12.548
20553W        W89026  44.768   1.956  11.086
20554W        W89027  35.060  13.700   2.394
20555W        W89028  10.764  24.587   2.835
20556W        W89029  30.444   9.326   2.234
20557W        W89030   8.244   0.353   2.387
20558W        W89031  17.175  27.192  12.991
20559W        W89032   6.244  18.224   0.820
20560W        W89033  22.613  35.867  14.416
20561W        W89034  15.695  20.626  10.944
20562W        W89035  15.262  36.411   4.178
20563W        W89036  16.296  40.378  14.022
20564W        W89037  12.322   8.405   2.895
20565W        W89038  40.898   1.821   0.445
20566W        W89039  29.042  19.630  12.413
20567W        W89040   3.413   5.262  13.381
20568W        W89041  37.893   2.750  11.427
20569W        W89042  31.154  33.538   5.261
20570W        W89043  35.051  26.188   0.799
20571W        W89044  17.727   7.888  12.068
20572W        W89045   8.830  35.534  13.050
20573W        W89046  31.597   6.719   2.321
20574W        W89047  10.761  10.707  14.278
20575W        W89048  31.024  26.056  14.977
20576W        W89049   0.415   3.301   5.319
20577W        W89050  39.947  24.487  13.026
20578W        W89051   1.758  30.917  11.891
20579W        W89052   0.870  12.329   4.637
20580W        W89053   0.934   0.427  11.068
20581W        W89054   5.316  25.172  13.514
20582W        W89055  37.368  10.855  14.790
20583W        W89056  15.749  16.665  14.900
20584W        W89057   3.448  30.081  13.047
20585W        W89058  36.943   9.266  14.423
20586W        W89059  12.333  29.004   2.719
20587W        W89060  41.454  10.308   3.774
20588W        W89061   9.744  29.131  13.840
20589W        W89062  24.563   9.375   1.710
20590W        W89063  36.563  11.203   3.735
20591W        W89064  32.951  30.481   1.918
20592W        W89065  44.431  21.097  10.440
20593W        W89066  31.149  24.481  11.904
20594W        W89067  35.581  24.029  11.113
20595W        W89068  43.285  42.953   0.349
20596W        W89069  23.598   9.203  10.564
20597W        W89070  31.634  40.909  10.554
20598W        W89071  21.573   8.742  10.566
20599W        W89072   0.863  44.953   1.337
20600W        W89073  13.800  43.487   2.196
20601W        W89074  21.068  23.678   0.910
20602W        W89075  32.913  27.187  11.599
20603W        W89076  35.407  16.697   3.248
20604W        W89077  29.490   1.900   1.841
20605W        W89078   1.243  42.391  11.549
20606W        W89079  24.525  41.464   4.287
20607W        W89080  43.896  22.034   3.306
20608W        W89081  39.538  24.564   4.349
20609W        W89082  30.938   0.750   3.670
20610W        W89083  33.076   9.889  13.307
20611W        W89084  10.267  37.882   4.290
20612W        W89085  26.000   3.415  14.873
20613W        W89086  39.364  21.578  13.025
20614W        W89087   4.244  14.792  14.763
20615W        W89088   2.738  27.031  10.925
20616W        W89089  40.362  29.956   2.302
20617W        W89090   3.271  19.157  13.438
20618W        W89091  17.074   5.261   1.868
20619W        W89092   9.273  27.970   4.226
20620W        W89093  39.318  21.615   4.633
20621W        W89094   3.234  33.474  12.438
20622W        W89095   1.884  31.057   3.740
20623W        W89096  34.383  42.296  10.483
20624W        W89097  29.574  27.197   0.856
20625W        W89098  36.904  22.245   2.821
20626W        W89099   6.336   1.769   1.771
20627W        W89100  36.855   0.356  13.982
20628W        W89101   2.446   4.432  10.627
20629W        W89102  20.102  14.259  10.486
20630W        W89103  29.488   4.928   0.338
20631W        W89104  23.227   8.401  14.354
20632W        W89105  31.473  15.256  10.548
20633W        W89106   7.360   0.845  12.888
20634W        W89107  44.965  10.380   4.208
20635W        W89108   2.825  17.622   4.831
20636W        W89109  37.880  10.720   2.404
20637W        W89110  39.025  19.557   4.682
20638W        W89111  30.556   7.814  14.915
20639W        W89112  28.643  44.375   3.277
20640W        W89113  30.490  25.639   0.415
20641W        W89114  34.992  38.445   2.340
20642W        W89115  25.555  31.059   2.701
20643W        W89116  19.267  13.722   0.843
20644W        W89117  44.325  21.178   3.354
20645W        W89118  22.050  40.511   3.686
20646W        W89119  44.873  23.683   3.289
20647W        W89120  38.375  14.819  12.521
20648W        W89121  32.459  30.076  11.923
20649W        W89122  23.118  25.098   2.893
20650W        W89123   8.333  12.296  13.546
20651W        W89124  23.541  24.536  12.579
20652W        W89125   1.369  12.800  12.979
20653W        W89126  11.716  26.516   4.163
20654W        W89127   8.198  17.626  14.822
20655W        W89128  17.110   5.800  13.343
20656W        W89129   1.237  17.771   1.416
20657W        W89130  33.996   0.304  12.971
20658W        W89131  42.823  27.969   0.472
20659W        W89132  14.772  13.725  12.434
20660W        W89133  19.640  11.211  14.954
20661W        W89134  13.316  25.116   0.333
20662W        W89135  32.982  27.986   4.213
20663W        W89136  23.135   5.285  13.442
20664W        W89137  14.277  29.090  13.998
20665W        W89138  24.145  23.221  13.399
20666W        W89139  33.889  34.977  11.382
20667W        W89140  38.346  40.510   0.913
20668W        W89141  38.950  18.073   4.134
20669W        W89142  30.068  39.484  13.838
20670W        W89143   9.384   4.900   0.961
20671W        W89144   0.762   2.279  13.427
20672W        W89145  31.418   6.391   3.743
20673W        W89146  41.928  31.023  13.981
20674W        W89147  11.215  17.157   4.745
20675W        W89148  32.454  40.547   0.871
20676W        W89149  14.217  41.897   4.117
20677W        W89150  18.282  42.343  14.888
20678W        W89151  23.005  30.979   3.224
20679W        W89152  24.617  15.295  10.976
20680W        W89153   4.375   4.310  10.409
20681W        W89154  33.973  30.640  11.928
20682W        W89155   1.932  43.365  11.490
20683W        W89156  35.421  10.847   4.330
20684W        W89157   9.163  11.842  11.108
20685W        W89158  13.745  28.495  11.379
20686W        W89159  24.148  25.179   4.257
20687W        W89160   1.926  17.221   4.835
20688W        W89161   8.733  22.143  10.972
20689W        W89162  30.456  11.850   3.178
20690W        W89163  22.042  40.463  13.545
20691W        W89164  43.387  29.972  12.003
20692W        W89165   3.239   3.399  10.498
20693W        W89166  10.679  21.261  14.400
20694W        W89167  42.466  32.599   3.656
20695W        W89168   0.837  11.241   4.634
20696W        W89169  42.410  20.527   3.257
20697W        W89170  10.181  17.285   3.386
20698W        W89171  28.458  38.925   2.662
20699W        W89172  27.519  41.862   3.363
20700W        W89173  41.872   3.360   5.197
20701W        W89174   5.705  12.716   4.767
20702W        W89175   3.881  20.668   1.324
20703W        W89176  14.336  35.894  14.432
20704W        W89177  11.316   6.822   4.288
20705W        W89178  21.581  44.887  14.871
20706W        W89179  35.109  15.746   2.711
20707W        W89180  13.134  25.661   4.171
20708W        W89181  33.974   4.428   4.236
20709W        W89182  24.554  10.803  13.975
20710W        W89183  13.232  34.902  14.380
20711W        W89184  23.106  15.273   5.185
20712W        W89185   3.381  37.531   0.468
20713W        W89186  17.662   6.869   3.277
20714W        W89187  15.323  31.500   2.281
20715W        W89188  18.118  25.537   2.258
20716W        W89189  11.349   9.807   4.147
20717W        W89190   1.915  28.047   0.408
20718W        W89191  20.178  14.263   3.848
20719W        W89192  21.101  15.717   3.822
20720W        W89193  19.754  40.905  12.031
20721W        W89194  21.538  20.679  10.583
20722W        W89195  22.110  14.817  12.847
20723W        W89196   2.830  24.189  13.419
20724W        W89197  15.214  22.136  13.007
20725W        W89198  30.092   2.745   4.304
20726W        W89199  30.471  29.940   3.795
20727W        W89200  42.387   1.269  14.329
20728W        W89201  37.894  36.358  11.049
20729W        W89202  26.106  20.256  12.407
20730W        W89203  38.394  30.114  11.028
20731W        W89204  36.422  38.001  14.420
20732W        W89205  18.778   2.384  11.052
20733W        W89206  32.090   4.245   0.786
20734W        W89207  13.742  16.691   2.850
20735W        W89208  32.109  29.512  11.110
20736W        W89209  42.916  34.878   0.883
20737W        W89210   2.284   3.774   3.859
20738W        W89211  40.013   3.280   0.885
20739W        W89212  16.756  10.235   1.707
20740W        W89213  30.135  35.485   4.270
20741W        W89214  21.201  28.465   4.155
20742W        W89215  40.530  41.487  10.444
20743W        W89216  27.684   6.205   1.785
20744W        W89217   1.853  31.036  14.921
20745W        W89218  22.099  30.071   3.663
20746W        W89219  22.590  10.312   5.212
20747W        W89220  10.239  36.513   2.237
20748W        W89221  41.005  37.008  11.415
20749W        W89222  43.959   5.377   4.816
20750W        W89223  18.772   7.845  11.045
20751W        W89224  34.483  18.116   4.310
20752W        W89225  20.186  31.431   0.382
20753W        W89226  32.633  23.490   0.392
20754W        W89227   1.757  30.926   1.316
20755W        W89228  35.073  23.039  10.423
20756W        W89229  32.890  11.659  14.376
20757W        W89230  44.771  12.230   1.434
20758W        W89231   7.797  26.516   3.775
20759W        W89232  18.602  19.186  11.923
20760W        W89233  10.845  28.144  14.466
20761W        W89234  41.006  31.489   0.794
20762W        W89235  16.749  40.475   2.233
20763W        W89236  30.470  22.192   2.798
20764W        W89237   4.240   6.706  14.319
20765W        W89238  20.669  13.214  14.290
20766W        W89239  37.475   0.435  12.421
20767W        W89240  19.271  11.209   0.879
20768W        W89241  27.162  23.995  13.419
20769W        W89242  26.569  12.639  11.938
20770W        W89243  14.327  44.003  13.836
20771W        W89244  29.437  22.745   1.279
20772W        W89245  25.971  14.339  10.574
20773W        W89246  20.052  38.851  14.286
20774W        W89247  20.127   4.888  10.974
20775W        W89248   8.871  14.104  11.898
20776W        W89249  33.040  20.545  11.917
20777W        W89250   2.864   0.456  14.470
20778W        W89251  14.682  29.435   4.794
20779W        W89252  23.602  41.381  10.938
20780W        W89253  42.934   0.361   3.249
20781W        W89254   0.949   5.932   0.243
20782W        W89255   2.325   9.249   0.890
20783W        W89256  22.589  23.693  10.624
20784W        W89257   6.856  17.126  14.343
20785W        W89258  42.865  20.242   0.411
20786W        W89259   3.404  29.983   4.705
20787W        W89260  10.252   3.343  10.576
20788W        W89261   9.192  35.590   2.839
20789W        W89262  21.109  28.935  12.916
20790W        W89263  44.314   5.711  13.918
20791W        W89264  16.126  44.964   1.317
20792W        W89265  17.151  35.360   2.808
20793W        W89266   4.866  23.213  10.906
20794W        W89267  22.607  29.943   3.382
20795W        W89268  18.126  30.479  14.390
20796W        W89269  35.541   1.451   2.902
20797W        W89270  14.272  33.389   2.336
20798W        W89271   8.291  17.670   1.316
20799W        W89272  40.924  42.301  10.979
20800W        W89273  40.891  35.900   4.319
20801W        W89274  21.551   8.307   0.884
20802W        W89275  13.819  42.806   0.251
20803W        W89276   8.690  42.873   1.247
20804W        W89277   5.761   1.333  13.883
20805W        W89278  20.576  15.212  13.937
20806W        W89279  35.502  27.588  13.034
20807W        W89280  44.967  12.793  14.956
20808W        W89281  22.515  22.553   4.821
20809W        W89282  26.492  18.262   3.845
20810W        W89283  28.046  18.076   2.819
20811W        W89284  19.172  27.623   4.226
20812W        W89285   1.416  25.101  12.401
20813W        W89286   2.904  40.849  13.928
20814W        W89287  29.073  28.932  13.490
20815W        W89288  22.640  12.167   3.842
20816W        W89289  29.171  41.486   0.777
20817W        W89290  23.591  25.610  10.444
20818W        W89291  32.094  11.629  11.076
20819W        W89292  11.690  29.441  13.439
20820W        W89293  42.406  25.601  14.008
20821W        W89294  14.111  43.915   4.216
20822W        W89295   3.345   1.746  13.912
20823W        W89296  27.454  23.038  13.984
20824W        W89297  43.011  43.954   1.338
20825W        W89298  39.362   4.778   1.298
20826W        W89299  44.495  21.638   4.827
20827W        W89300  23.209  26.024  11.058
20828W        W89301   2.385  20.595  14.783
20829W        W89302   3.843  41.506  10.059
20830W        W89303  34.422   6.222  11.528
20831W        W89304   5.303  25.186   0.753
20832W        W89305  41.906  39.478   1.870
20833W        W89306  36.533   9.749  11.420
20834W        W89307  21.743  41.375   5.234
20835W        W89308  35.363  15.606   4.196
20836W        W89309   3.728  12.353   0.823
20837W        W89310   4.894  12.178  10.599
20838W        W89311  22.731   1.740  10.151
20839W        W89312  20.655   0.845  11.576
20840W        W89313  31.403  32.570   1.899
20841W        W89314  23.173  20.679   2.262
20842W        W89315  27.122  25.635   4.246
20843W        W89316  17.794  17.167   3.299
20844W        W89317   6.193  14.110   1.283
20845W        W89318  21.601  17.779  14.332
20846W        W89319  24.197  33.960   3.323
20847W        W89320  30.004  39.470  14.996
20848W        W89321  27.076  34.032  11.416
20849W        W89322  19.265  25.693  14.822
20850W        W89323  15.236  33.429   2.734
20851W        W89324  15.169  11.824  14.972
20852W        W89325  12.347  33.968   2.694
20853W        W89326  34.506  28.499   1.364
20854W        W89327  44.944  42.404  13.802
20855W        W89328  35.919  30.423  11.560
20856W        W89329  35.479   6.303  12.553
20857W        W89330  14.321  19.048  10.490
20858W        W89331  40.499  12.678   4.699
20859W        W89332  25.668  21.658  14.897
20860W        W89333   7.331  43.881  10.443
20861W        W89334  10.719  31.040   0.893
20862W        W89335   7.248  11.148   4.353
20863W        W89336  30.083  43.415   3.357
20864W        W89337   3.316  14.592  11.564
20865W        W89338  16.713  20.028  10.992
20866W        W89339   2.771   2.904   4.700
20867W        W89340  22.534  19.718   0.307
20868W        W89341  15.629  35.889  11.064
20869W        W89342  18.732  31.465  13.859
20870W        W89343  15.161  28.938   2.888
20871W        W89344  27.682  39.856   3.787
20872W        W89345  27.567  21.717   0.266
20873W        W89346   1.957  41.890   4.758
20874W        W89347  32.628  13.244   2.414
20875W        W89348  34.493  21.125   0.905
20876W        W89349  10.636   6.377   3.200
20877W        W89350  12.224  32.608   1.390
20878W        W89351  40.884  42.367  12.010
20879W        W89352  20.134  34.063   4.819
20880W        W89353  42.806  32.927   0.786
20881W        W89354  18.572   2.375   0.477
20882W        W89355  43.379  40.912  12.053
20883W        W89356  22.715  29.451   3.652
20884W        W89357  13.799  16.781   2.367
20885W        W89358  14.173  14.331   4.239
20886W        W89359  33.567   8.743  11.067
20887W        W89360  38.525  22.590   1.767
20888W        W89361  38.334  13.752  10.589
20889W        W89362  25.484  43.385   1.423
20890W        W89363  34.435   4.703   4.753
20891W        W89364   2.964  44.400   4.665
20892W        W89365  19.086  12.663   3.763
20893W        W89366  40.960  14.697   3.697
20894W        W89367  12.803  21.652   3.282
20895W        W89368  32.074  29.138   1.935
20896W        W89369  43.794  20.093   1.286
20897W        W89370   4.276  41.360   3.693
20898W        W89371  43.502  21.649   1.784
20899W        W89372  33.458  32.595   4.290
20900W        W89373   3.348   0.750  11.069
20901W        W89374  12.856  40.810   0.268
20902W        W89375   5.234  18.561  14.396
20903W        W89376   3.254  24.490  13.330
20904W        W89377  40.474   6.212  11.495
20905W        W89378  26.473   5.691  13.449
20906W        W89379  25.189  23.161   1.238
20907W        W89380  35.409   9.309  14.512
20908W        W89381  22.136  25.626  11.578
20909W        W89382  33.126   2.389   4.655
20910W        W89383  35.375  34.611  13.014
20911W        W89384  34.550  36.051  10.907
20912W        W89385  13.247  15.660   1.750
20913W        W89386   0.864  28.097  13.975
20914W        W89387   2.869  24.180   1.699
20915W        W89388  33.429   3.913  10.962
20916W        W89389  14.636  30.066   2.883
20917W        W89390  20.672  12.237   0.931
20918W        W89391  10.826  14.816  14.019
20919W        W89392  22.542   3.276   9.980
20920W        W89393   7.790   1.248  13.358
20921W        W89394  28.134  36.935   2.840
20922W        W89395  31.080   5.812   0.386
20923W        W89396  35.500  44.503   2.284
20924W        W89397   7.770  34.996   2.218
20925W        W89398  36.490  30.966  11.016
20926W        W89399  22.073   4.366   2.253
20927W        W89400   7.905  15.604   1.219
20928W        W89401  17.744  33.391   1.224
20929W        W89402  34.590  29.002  11.054
20930W        W89403  22.187  24.556   3.259
20931W        W89404  15.267   6.289   3.745
20932W        W89405  26.143  41.407   1.352
20933W        W89406  40.862  24.126   4.237
20934W        W89407  15.708  17.198   4.243
20935W        W89408   2.814   4.427  10.975
20936W        W89409  25.061  35.982   4.773
20937W        W89410  40.925  11.206   0.887
20938W        W89411  21.714  37.582   3.340
20939W        W89412  23.581  30.658   0.306
20940W        W89413  40.894  26.614  10.988
20941W        W89414  37.482  31.642  14.463
20942W        W89415  16.082  25.103  14.320
20943W        W89416  26.519  39.859   1.811
20944W        W89417  23.105  24.588   4.701
20945W        W89418   1.287  29.117   4.808
20946W        W89419  31.021  14.748   2.885
20947W        W89420  23.722  40.545   0.321
20948W        W89421   5.206  36.091  12.541
20949W        W89422  24.077  18.563   3.635
20950W        W89423   6.303  11.690   3.693
20951W        W89424   3.264  20.715   4.820
20952W        W89425   0.906  26.643  13.030
20953W        W89426  41.890   7.232   1.214
20954W        W89427  25.485   7.816   4.648
20955W        W89428  28.991  39.543   0.298
20956W        W89429   8.239  16.277   2.309
20957W        W89430  34.923  29.633   5.230
20958W        W89431   0.423  27.185  13.053
20959W        W89432  43.354  26.539  14.965
20960W        W89433  14.116  20.090  14.005
20961W        W89434  27.153  42.307   2.688
20962W        W89435  22.647   9.742  11.057
20963W        W89436  27.544  42.017   1.736
20964W        W89437   4.250  14.207   3.172
20965W        W89438  11.332   0.920  14.317
20966W        W89439  19.644   8.659   4.745
20967W        W89440   4.846  22.670   0.810
20968W        W89441  27.052  34.431   3.659
20969W        W89442   5.223  14.205  13.904
20970W        W89443  30.067  29.173   3.202
20971W        W89444  22.047  12.132   4.609
20972W        W89445  21.079  17.301   1.749
20973W        W89446  16.574  26.082  13.903
20974W        W89447  15.775  29.507  12.499
20975W        W89448  29.147  22.623  11.931
20976W        W89449  11.157  24.694   4.615
20977W        W89450  20.039  39.964  10.596
20978W        W89451   8.852   3.795   0.956
20979W        W89452  13.254   0.852  13.434
20980W        W89453  24.655   2.793  12.009
20981W        W89454   3.365  36.025   4.713
20982W        W89455   6.886  43.275  11.582
20983W        W89456  33.570  27.186  10.970
20984W        W89457  10.732   6.772  10.537
20985W        W89458  32.029  10.338  13.514
20986W        W89459  25.093  19.219   0.941
20987W        W89460  24.487  42.392  12.879
20988W        W89461  37.853  11.301   2.808
20989W        W89462  22.014  37.047  12.517
20990W        W89463  26.561  11.752  14.878
20991W        W89464  32.579  34.059  12.842
20992W        W89465  33.091   8.180  14.461
20993W        W89466  15.589  22.664   3.297
20994W        W89467  39.008   5.885   3.378
20995W        W89468  42.987   9.652   0.746
20996W        W89469   2.886  12.319  14.767
20997W        W89470  14.237  31.055   5.198
20998W        W89471  31.965  18.218   4.838
20999W        W89472  17.748  12.824  12.940
21000W        W89473  32.519   8.785   3.636
21001W        W89474  12.655  23.073  11.387
21002W        W89475  32.486  42.015  14.823
21003W        W89476  25.086  12.856   3.838
21004W        W89477   3.878  12.768  10.034
21005W        W89478  15.269  23.577   4.637
21006W        W89479  38.566  27.136  11.372
21007W        W89480  22.243  29.654  13.540
21008W        W89481  25.033   6.395   5.136
21009W        W89482   9.806  15.626   1.406
21010W        W89483  15.677   8.389   3.801
21011W        W89484  27.115   8.394   2.296
21012W        W89485  26.537  32.956  11.866
21013W        W89486  37.345  14.668  14.289
21014W        W89487  20.699   5.843  14.298
21015W        W89488  21.255  34.929   3.857
21016W        W89489  27.155  18.246   9.989
21017W        W89490  13.705  41.007   0.738
21018W        W89491   3.868  31.149  14.863
21019W        W89492  22.125   8.888   0.737
21020W        W89493   8.820  38.375  14.352
21021W        W89494  17.215  17.584   3.793
21022W        W89495  40.931  23.196   4.245
21023W        W89496  12.268   7.271  14.804
21024W        W89497   8.370  30.581   3.236
21025W        W89498  28.033  38.994   0.816
21026W        W89499   9.238  25.969  10.041
21027W        W89500  15.758  24.986  13.516
21028W        W89501  17.631  21.569   3.789
21029W        W89502  38.893  10.282   3.823
21030W        W89503   1.425  26.119   4.612
21031W        W89504  18.552  21.677  11.898
21032W        W89505  35.921  41.393  14.026
21033W        W89506  28.585  16.802   0.844
21034W        W89507   8.876  32.574  14.489
21035W        W89508  32.559  44.504   4.737
21036W        W89509  28.547  21.030   4.684
21037W        W89510  42.403  35.062  13.538
21038W        W89511  35.387   1.910   1.308
21039W        W89512  37.072  35.439  14.332
21040W        W89513  36.931  15.817  13.529
21041W        W89514   5.386  16.668   9.499
21042W        W89515  15.634  23.045  14.395
21043W        W89516  19.157  15.101  10.468
21044W        W89517  22.574  25.005   0.798
21045W        W89518  31.474   5.778  13.919
21046W        W89519  35.041   9.853  10.974
21047W        W89520  30.542  32.481   0.401
21048W        W89521  40.855  23.079  11.505
21049W        W89522  41.003  10.296  12.460
21050W        W89523  16.688  24.503  12.454
21051W        W89524  40.519  21.143  14.488
21052W        W89525  30.097   7.218   3.269
21053W        W89526  12.650  17.088   3.280
21054W        W89527  43.469  37.580   3.273
21055W        W89528   4.850   2.904   4.732
21056W        W89529  20.720   5.359  12.933
21057W        W89530  28.966  13.733  14.885
21058W        W89531  23.077  22.689  12.415
21059W        W89532  16.253  18.289  11.885
21060W        W89533  18.644   6.212   2.765
21061W        W89534  39.451  28.624   4.165
21062W        W89535  14.721  35.080  12.573
21063W        W89536  44.325  21.189   4.251
21064W        W89537  29.103  29.965  11.415
21065W        W89538  10.310  19.096   3.766
21066W        W89539   3.337   0.309  11.010
21067W        W89540  20.111   1.379   1.854
21068W        W89541  18.198   7.853  14.330
21069W        W89542  30.547  33.920   0.392
21070W        W89543  41.487  44.753  12.891
21071W        W89544   2.402  18.545   1.296
21072W        W89545  32.098   0.909   5.283
21073W        W89546   7.822   1.393   2.902
21074W        W89547  41.299  33.128  13.010
21075W        W89548  25.623   3.461  14.970
21076W        W89549  29.075   0.410  14.770
21077W        W89550  25.677  39.485   0.330
21078W        W89551  26.557  38.509  11.904
21079W        W89552   2.244   6.344   2.809
21080W        W89553  27.143  19.179   1.734
21081W        W89554   1.476  10.198  14.941
21082W        W89555  30.584  32.570   4.236
21083W        W89556  31.963  41.932   4.168
21084W        W89557  32.451   7.855  13.407
21085W        W89558   2.467  40.388  13.986
21086W        W89559  24.179  24.155  10.512
21087W        W89560  28.647  30.658  10.635
21088W        W89561   4.238  43.970   4.230
21089W        W89562  28.658   7.838  13.861
21090W        W89563  14.130  33.085   3.147
21091W        W89564   2.427  38.929   1.280
21092W        W89565  31.897  44.770  13.791
21093W        W89566   8.315  23.056  13.061
21094W        W89567  23.127  14.675   4.286
21095W        W89568  28.947   7.325   1.213
21096W        W89569  36.014  21.229  10.935
21097W        W89570  27.083  30.548  13.817
21098W        W89571  24.549  32.997   4.831
21099W        W89572  34.432  43.386   0.799
21100W        W89573  40.537  37.414  12.059
21101W        W89574   9.870   9.381  12.035
21102W        W89575  42.781  32.896   3.851
21103W        W89576  25.666  22.745  10.410
21104W        W89577  35.451  10.381  11.516
21105W        W89578   2.920  13.651  14.000
21106W        W89579  39.414  37.510  14.293
21107W        W89580  27.154  22.602  12.991
21108W        W89581  38.342  44.398   3.683
21109W        W89582  26.605  42.869   3.284
21110W        W89583  20.193   9.805  10.501
21111W        W89584  35.387  24.018   3.165
21112W        W89585   8.236  10.829   4.336
21113W        W89586  11.740  27.561  12.843
21114W        W89587  43.465  11.815   2.410
21115W        W89588  16.579  13.618   2.277
21116W        W89589  26.147  21.053   4.608
21117W        W89590  36.422  37.558  14.950
21118W        W89591  19.768  16.204   3.313
21119W        W89592  34.991  23.518   4.298
21120W        W89593  17.282   7.688   4.245
21121W        W89594   5.915   2.286   2.725
21122W        W89595  21.673   0.368  13.433
21123W        W89596   9.309  36.446  11.095
21124W        W89597   4.388  31.582   0.771
21125W        W89598  12.350  12.616  13.927
21126W        W89599  18.191  37.947  14.384
21127W        W89600  38.419   9.178  12.439
21128W        W89601  31.435  23.086   2.367
21129W        W89602  27.151   7.328  13.794
21130W        W89603   6.231  34.981  10.148
21131W        W89604  43.940   5.213   1.407
21132W        W89605  22.690   9.199  13.844
21133W        W89606   2.324  43.857  14.799
21134W        W89607  37.399  37.422  11.385
21135W        W89608  28.118  16.093   3.775
21136W        W89609  27.666  17.774  12.013
21137W        W89610  23.623  25.152  10.427
21138W        W89611  36.062   7.716  14.796
21139W        W89612  42.822  14.629   1.292
21140W        W89613  29.109   4.435  12.944
21141W        W89614  42.397  42.389   3.297
21142W        W89615  37.548  10.357   2.307
21143W        W89616  41.020  35.521  14.406
21144W        W89617  38.888  27.679   1.849
21145W        W89618  33.538  15.154   2.386
21146W        W89619  15.776  36.892   3.188
21147W        W89620   4.861  20.692   1.240
21148W        W89621  28.988  41.361   4.165
21149W        W89622  35.527  23.211   1.875
21150W        W89623  19.545  17.080   3.678
21151W        W89624  24.061  27.174  14.392
21152W        W89625   0.405   7.757   1.369
21153W        W89626  27.561  40.950  10.423
21154W        W89627  33.938  43.842  12.867
21155W        W89628  28.622  36.071   0.366
21156W        W89629   9.687  21.705   3.282
21157W        W89630  11.231  36.559  14.006
21158W        W89631  24.136  21.067   2.263
21159W        W89632  10.740  18.647   1.819
21160W        W89633  41.947  15.141   3.633
21161W        W89634  33.396  36.923  14.370
21162W        W89635   5.251  27.141   1.294
21163W        W89636   8.330  19.614   2.271
21164W        W89637   5.812  44.770  14.322
21165W        W89638  15.253  37.363  12.569
21166W        W89639  27.644   9.336   1.374
21167W        W89640  10.221  26.663  12.075
21168W        W89641  28.476  26.156   2.277
21169W        W89642  20.693  44.888  12.544
21170W        W89643  29.984  35.591  13.841
21171W        W89644  30.000   2.749  13.049
21172W        W89645   3.939  40.905   0.847
21173W        W89646  12.132  26.148   2.735
21174W        W89647  30.930   2.380   4.676
21175W        W89648  32.957  23.233   4.352
21176W        W89649  43.949  26.688   5.182
21177W        W89650  14.336   7.195  14.423
21178W        W89651  40.368  40.483  10.425
21179W        W89652  11.215  13.304  10.904
21180W        W89653  32.067  33.994   2.729
21181W        W89654  24.494  15.631   2.820
21182W        W89655  33.981  26.039   1.427
21183W        W89656  12.703  39.491   2.848
21184W        W89657  18.780  10.744  12.973
21185W        W89658  28.005  10.373   5.305
21186W        W89659  20.035  33.917   1.849
21187W        W89660  10.276  43.285   4.742
21188W        W89661  44.906   1.805  14.400
21189W        W89662  19.179  30.488   4.167
21190W        W89663  21.087  10.380  11.444
21191W        W89664  28.962  21.171   0.815
21192W        W89665   6.298   1.334   0.363
21193W        W89666  28.087  28.013  14.458
21194W        W89667  36.046  37.396  14.849
21195W        W89668  44.753  25.525   0.770
21196W        W89669  28.553   9.283   2.291
21197W        W89670   9.754   7.843  13.309
21198W        W89671  22.580  39.854  14.972
21199W        W89672   9.832  12.667  14.292
21200W        W89673  19.563  25.488  11.418
21201W        W89674  35.481  34.960   0.902
21202W        W89675  30.069  27.579   3.319
21203W        W89676  34.507  15.109   2.790
21204W        W89677  10.322  21.078   9.974
21205W        W89678  31.988  19.563   0.872
21206W        W89679  12.157  42.867   3.791
21207W        W89680  23.135   7.200   3.857
21208W        W89681  23.137  15.759  11.887
21209W        W89682  20.042  34.939   1.883
21210W        W89683  37.836   6.323   1.789
21211W        W89684  16.151   8.366   0.833
21212W        W89685  12.670  39.028   4.152
21213W        W89686  24.510   2.327  14.847
21214W        W89687  42.420  33.014   0.931
21215W        W89688  17.658  38.440   3.711
21216W        W89689  25.608   2.448  11.983
21217W        W89690  30.163  37.980  12.441
21218W        W89691  13.746   2.250   4.187
21219W        W89692  22.054  34.977  14.347
21220W        W89693  43.897  27.089   2.777
21221W        W89694  20.623  41.504  11.946
21222W        W89695  36.509   9.861   1.700
21223W        W89696  22.143  35.491  14.781
21224W        W89697  10.163  19.060  11.107
21225W        W89698  43.790  24.576   2.237
21226W        W89699  11.169   3.371   2.284
21227W        W89700   3.381  13.609  14.306
21228W        W89701  29.081  19.608  11.577
21229W        W89702  40.452  13.286   3.160
21230W        W89703  33.579  11.271   1.773
21231W        W89704  19.672   0.788  14.009
21232W        W89705  43.768  23.211  12.022
21233W        W89706   3.221  22.204  10.618
21234W        W89707  27.968  35.908  13.506
21235W        W89708  36.042  30.059  12.509
21236W        W89709  39.485  31.985   4.337
21237W        W89710  15.804   4.705   5.269
21238W        W89711  28.446  31.928  10.608
21239W        W89712  25.632  22.110  14.951
21240W        W89713  21.158  17.647   1.702
21241W        W89714   3.413   2.303   2.790
21242W        W89715   8.750  37.831  12.433
21243W        W89716  40.534   8.774  14.302
21244W        W89717  24.484   7.208   1.800
21245W        W89718  12.691  41.870  14.877
21246W        W89719   6.390  39.458  11.884
21247W        W89720  18.206  37.973  13.403
21248W        W89721   0.957  16.766   1.868
21249W        W89722   5.194  41.927  13.485
21250W        W89723  12.347  10.834  13.417
21251W        W89724   0.965   5.226  12.394
21252W        W89725   2.787  18.180   1.264
21253W        W89726  18.185  19.635   2.747
21254W        W89727  34.456  11.370   2.359
21255W        W89728   3.905  13.350   0.441
21256W        W89729   0.474   6.335   0.800
21257W        W89730  12.813   1.890   1.821
21258W        W89731  26.521  16.662   3.197
21259W        W89732  39.963  27.571   3.715
21260W        W89733   7.759   0.451  10.414
21261W        W89734   3.351   7.788   4.310
21262W        W89735  39.064  37.041   4.785
21263W        W89736   6.207  21.082   1.791
21264W        W89737  31.471  10.191  13.918
21265W        W89738  41.848  27.538  14.933
21266W        W89739  12.821  33.104   2.790
21267W        W89740   5.376  41.905   1.378
21268W        W89741  27.163  27.071   2.219
21269W        W89742  41.423  27.998   3.166
21270W        W89743  31.407  30.043   2.381
21271W        W89744  25.025   2.278   2.253
21272W        W89745  15.149  42.967   3.713
21273W        W89746  32.038  20.235  12.939
21274W        W89747   6.374  36.875  12.507
21275W        W89748  15.283  16.209   3.831
21276W        W89749  26.953  15.738  10.025
21277W        W89750  18.162  16.597   1.749
21278W        W89751  34.868  24.524   3.666
21279W        W89752   4.721  37.570   0.800
21280W        W89753  17.557   3.236  12.452
21281W        W89754  34.994  22.721  12.961
21282W        W89755  29.584  27.127  11.505
21283W        W89756  28.128  36.462   1.393
21284W        W89757  22.525  14.598   0.854
21285W        W89758  26.701   8.187   2.840
21286W        W89759  36.592  23.516   0.344
21287W        W89760  25.671  40.054  10.627
21288W        W89761  14.830  16.197   2.261
21289W        W89762  34.514  26.667   4.661
21290W        W89763  37.937  28.154  12.391
21291W        W89764  38.354  25.676   4.806
21292W        W89765  18.572   5.257  13.353
21293W        W89766  40.379  15.805   0.738
21294W        W89767  27.469  32.596  12.443
21295W        W89768   9.690  16.103   1.361
21296W        W89769  28.621   8.662  10.899
21297W        W89770   9.768  10.851  12.089
21298W        W89771  43.949  26.130   3.678
21299W        W89772  38.872  21.246  14.805
21300W        W89773  18.568   3.408   3.714
21301W        W89774  42.031  36.976   2.819
21302W        W89775  30.625  15.669  11.935
21303W        W89776  42.510  31.958   2.715
21304W        W89777  14.337  13.317   2.261
21305W        W89778   4.932  31.622  14.370
21306W        W89779   3.421  12.142   2.207
21307W        W89780   4.903   5.904   3.186
21308W        W89781  26.621  15.220  11.934
21309W        W89782  39.854  32.555   1.396
21310W        W89783  36.001  29.526  14.012
21311W        W89784  39.845  26.475  12.893
21312W        W89785   1.443  17.069  13.040
21313W        W89786  37.376  34.481   2.366
21314W        W89787  10.733  27.994  10.134
21315W        W89788   0.979  28.527   0.941
21316W        W89789  16.105  32.584   4.173
21317W        W89790   0.482  37.516   4.289
21318W        W89791  29.520  14.693   3.729
21319W        W89792   8.722  23.193   0.293
21320W        W89793  24.141  19.208  11.086
21321W        W89794  44.379  36.358  11.863
21322W        W89795   1.237  36.860  12.562
21323W        W89796  10.716  42.456  12.929
21324W        W89797  10.747  19.671  10.576
21325W        W89798  29.173  32.478  10.560
21326W        W89799  18.753  14.201  13.841
21327W        W89800  36.079  31.899   9.948
21328W        W89801  20.702  33.964  11.069
21329W        W89802  42.848  17.784   1.737
21330W        W89803  20.035   9.852   3.198
21331W        W89804   6.340  32.598  11.599
21332W        W89805   4.776  13.328  12.096
21333W        W89806  13.308  10.756   3.856
21334W        W89807  27.634  43.485  14.907
21335W        W89808   4.779   6.744  12.581
21336W        W89809  43.298  13.633   3.685
21337W        W89810   2.367   1.803  14.959
21338W        W89811   8.751   1.296  12.531
21339W        W89812   8.186  44.914  12.531
21340W        W89813   4.700  30.583   3.322
21341W        W89814  10.742   3.266   0.863
21342W        W89815  23.490   5.805  14.934
21343W        W89816   1.844  31.911   4.630
21344W        W89817   7.744  44.836   0.802
21345W        W89818  14.251  33.127  10.461
21346W        W89819  15.705  13.193   2.271
21347W        W89820  23.679  39.815   3.371
21348W        W89821  38.019  26.126  11.050
21349W        W89822   2.272  18.631  11.991
21350W        W89823  15.110   5.733  13.794
21351W        W89824  19.704  32.453   0.439
21352W        W89825  35.905  42.291  14.912
21353W        W89826  29.463  31.506  12.494
21354W        W89827  40.424  41.900  11.473
21355W        W89828  44.895  33.618  11.934
21356W        W89829   5.776   3.447   4.762
21357W        W89830   3.865  32.116  10.917
21358W        W89831  11.853  44.966   0.391
21359W        W89832  26.684   5.746   0.363
21360W        W89833  27.038  26.546  12.067
21361W        W89834  18.195  32.566   3.691
21362W        W89835   8.673   7.236  13.953
21363W        W89836   8.671   8.226  12.526
21364W        W89837  23.987  26.592  14.856
21365W        W89838  33.931  43.001   9.553
21366W        W89839  35.863  42.983   3.654
21367W        W89840  37.062   7.861  14.923
21368W        W89841  25.165  39.391   3.150
21369W        W89842  42.897   1.960  12.022
21370W        W89843   5.372  38.870  14.298
21371W        W89844  25.005  28.594  13.922
21372W        W89845  37.008  24.135   0.824
21373W        W89846  42.327  41.370   2.300
21374W        W89847  39.876  12.845   1.362
21375W        W89848  22.716  26.084  12.474
21376W        W89849  26.203   6.258  13.849
21377W        W89850  26.150  20.638   3.188
21378W        W89851   5.757   4.708  14.347
21379W        W89852   5.293  38.458   0.422
21380W        W89853  19.575  17.560  13.392
21381W        W89854   8.281  42.841   4.148
21382W        W89855  22.189  33.566  10.961
21383W        W89856  17.065   9.697  10.961
21384W        W89857  11.336  34.874  11.413
21385W        W89858   8.384  12.129   2.854
21386W        W89859  21.562   0.775  11.117
21387W        W89860  21.607   0.454   3.693
21388W        W89861  37.943  34.562   0.267
21389W        W89862   3.326  36.423  14.498
21390W        W89863  32.076   2.800   1.753
21391W        W89864   0.282  44.777  12.093
21392W        W89865  23.524  16.769  10.986
21393W        W89866  26.032   6.710  12.477
21394W        W89867  42.848  11.337   1.215
21395W        W89868  43.294   1.454  13.481
21396W        W89869  21.687   3.283  12.446
21397W        W89870  27.501  31.615   3.710
21398W        W89871  12.268  17.609   4.271
21399W        W89872  19.628  32.507   1.842
21400W        W89873  15.153  19.154   3.782
21401W        W89874  36.492  28.943  11.373
21402W        W89875  25.167   2.864  13.905
21403W        W89876  44.917  22.666   1.374
21404W        W89877  23.100   9.214   0.941
21405W        W89878  22.175   7.372  14.798
21406W        W89879   8.179  27.035  14.894
21407W        W89880  35.546  15.327  13.435
21408W        W89881  40.428  44.259  10.582
21409W        W89882  15.763  21.078   5.166
21410W        W89883   2.948  20.059  12.048
21411W        W89884  18.061  16.658   2.755
21412W        W89885  39.891  29.024   1.361
21413W        W89886  44.460   9.872  12.410
21414W        W89887  32.556  32.127   2.271
21415W        W89888  41.334  27.574   4.826
21416W        W89889  39.333  37.996  11.435
21417W        W89890  21.077  37.874  11.007
21418W        W89891  33.096  40.852   3.334
21419W        W89892   7.854  29.642  10.046
21420W        W89893  37.413  28.066   1.401
21421W        W89894  18.630  13.311   1.389
21422W        W89895  17.743  39.005   0.323
21423W        W89896   6.395  33.621  12.866
21424W        W89897  15.619   8.814   2.690
21425W        W89898  13.786  25.568   0.258
21426W        W89899  42.851  19.059   0.430
21427W        W89900  44.374  35.500  12.492
21428W        W89901   0.453  29.577  12.539
21429W        W89902  35.391  13.677   3.212
21430W        W89903  25.141  37.365  14.018
21431W        W89904  37.021  17.223  14.327
21432W        W89905   3.384  26.482  11.385
21433W        W89906  22.113  33.891   1.397
21434W        W89907  36.880  34.568  13.396
21435W        W89908  13.742  34.559  12.926
21436W        W89909  14.615  30.565  12.889
21437W        W89910  17.157   5.932   3.241
21438W        W89911  39.502  22.512   4.336
21439W        W89912   2.727  22.155   3.272
21440W        W89913  27.494  28.973  13.335
21441W        W89914   5.285  12.256   4.677
21442W        W89915   7.839  29.451   4.202
21443W        W89916  21.161  40.805  12.942
21444W        W89917  23.085   7.213  14.473
21445W        W89918  15.792  12.741   3.265
21446W        W89919  23.668  43.770   2.798
21447W        W89920  38.821  30.479  12.839
21448W        W89921  12.784  28.543   0.330
21449W        W89922  24.185  31.510   0.838
21450W        W89923  24.133  15.170   1.723
21451W        W89924  43.859  23.011   2.822
21452W        W89925  25.561   6.370   1.258
21453W        W89926  11.724  15.781   3.799
21454W        W89927  19.248  23.630   0.905
21455W        W89928  19.219   3.792  14.328
21456W        W89929  11.627  35.057   5.233
21457W        W89930  31.995  29.164   4.265
21458W        W89931  34.505   1.751  11.390
21459W        W89932  38.936  23.736  13.901
21460W        W89933  43.797  38.416   4.219
21461W        W89934  27.620  13.815   4.335
21462W        W89935  38.497  24.076   0.947
21463W        W89936  43.855  30.608  13.405
21464W        W89937  25.154  19.567   4.706
21465W        W89938  25.593  19.224   2.770
21466W        W89939  29.124  35.996   2.663
21467W        W89940  32.136   9.224   2.745
21468W        W89941   3.419  18.700   2.712
21469W        W89942   3.397  41.027   4.224
21470W        W89943  25.163   5.792  14.890
21471W        W89944  22.559  11.217  13.468
21472W        W89945  41.292  11.838   2.371
21473W        W89946  42.027   2.270  12.093
21474W        W89947   6.378  13.632  13.979
21475W        W89948   6.842  44.413   0.373
21476W        W89949  40.956  13.272   1.233
21477W        W89950  18.113   0.364  13.402
21478W        W89951  35.544  21.713  11.983
21479W        W89952  17.179   0.346  14.781
21480W        W89953  30.648  31.946   4.130
21481W        W89954  24.982   1.805   1.931
21482W        W89955  38.359  27.608  12.828
21483W        W89956  22.188   9.324   3.661
21484W        W89957  43.946  38.024  11.022
21485W        W89958   1.435  38.462   3.744
21486W        W89959  34.412  11.236  13.825
21487W        W89960   1.454  40.826  12.487
21488W        W89961  36.948  14.757  12.032
21489W        W89962  14.710  10.683   0.426
21490W        W89963  33.435  19.075   4.645
21491W        W89964  17.069  37.056  10.635
21492W        W89965  25.563  40.858   2.849
21493W        W89966  40.831  44.943  12.364
21494W        W89967  38.871   6.200   2.386
21495W        W89968  16.635  35.571  12.042
21496W        W89969  25.056  43.345  12.842
21497W        W89970  32.022  10.816   4.762
21498W        W89971  29.043   7.854   0.854
21499W        W89972   3.421  27.465  10.627
21500W        W89973  20.082  28.965   3.207
21501W        W89974  18.075  11.361   3.182
21502W        W89975   2.796  41.994  12.951
21503W        W89976  43.942  42.488  10.454
21504W        W89977   6.253  11.141   1.212
21505W        W89978  14.289   6.789   3.764
21506W        W89979  27.561  37.864   2.682
21507W        W89980  21.213  22.647   1.784
21508W        W89981  30.484  14.656  11.491
21509W        W89982   6.298  13.642  11.475
21510W        W89983   8.782  38.445   2.887
21511W        W89984   9.190   8.304   1.219
21512W        W89985  23.695  35.962   4.616
21513W        W89986  30.494   4.306  14.952
21514W        W89987  30.965  31.046   1.892
21515W        W89988  33.572  26.087  13.519
21516W        W89989   3.740  12.131   1.699
21517W        W89990  19.207  43.445  14.350
21518W        W89991  29.027  16.619  14.310
21519W        W89992   8.321  38.330   4.759
21520W        W89993  19.568  11.655  14.897
21521W        W89994  27.535  33.507  12.430
21522W        W89995   4.877  17.208   9.929
21523W        W89996  44.844  17.165  13.014
21524W        W89997  24.662  17.644   2.724
21525W        W89998  32.526  20.708  13.799
21526W        W89999  21.054  42.784   0.459
21527W        W90000  31.523  19.546   1.409
21528W        W90001   3.228   2.353  12.920
21529W        W90002   9.749  31.005  14.508
21530W        W90003  37.882  43.514   2.274
21531W        W90004   2.885  20.653  12.511
21532W        W90005  23.575   0.362  11.025
21533W        W90006  44.943   4.262  10.991
21534W        W90007   9.158  18.641   1.435
21535W        W90008   0.378  18.583  13.905
21536W        W90009  18.152  29.463   1.288
21537W        W90010  13.750  37.941  14.322
21538W        W90011  26.996  27.610  12.990
21539W        W90012   5.718  32.109   3.844
21540W        W90013   5.754   6.397   2.221
21541W        W90014  39.344   4.910  10.947
21542W        W90015  39.343   7.250   3.251
21543W        W90016  25.032  27.960   0.247
21544W        W90017  15.182  33.476  13.439
21545W        W90018  25.190  20.609  10.965
21546W        W90019  18.647  20.233   0.337
21547W        W90020   9.677  20.127  11.416
21548W        W90021  44.870  20.676   4.648
21549W        W90022  23.571  25.694  11.102
21550W        W90023  25.991   0.323  13.516
21551W        W90024  27.650  29.090   2.694
21552W        W90025   3.925  44.351  11.430
21553W        W90026  23.593  29.005  13.434
21554W        W90027  38.392  28.550   1.813
21555W        W90028   6.856  22.506   1.388
21556W        W90029  29.077   8.250  10.517
21557W        W90030  25.141  30.468   3.274
21558W        W90031  41.435  13.203  14.885
21559W        W90032  43.416  14.304   2.309
21560W        W90033   7.293   4.430   1.854
21561W        W90034  36.572  32.070   2.676
21562W        W90035   5.365  27.456   4.783
21563W        W90036  15.321  40.936   1.813
21564W        W90037   3.437   7.742  11.862
21565W        W90038  14.226   8.245   3.235
21566W        W90039   1.279   7.370  11.542
21567W        W90040  38.513  44.820   4.168
21568W        W90041  43.324  22.681   0.316
21569W        W90042  20.242  17.139   2.843
21570W        W90043  28.119  34.970  11.579
21571W        W90044  44.454  42.445  11.070
21572W        W90045  15.307  44.795   0.349
21573W        W90046  27.974  17.113   0.908
21574W        W90047  33.558  40.853   4.838
21575W        W90048  31.953  42.342   0.864
21576W        W90049  33.409  35.045   1.698
21577W        W90050   4.808  44.828  10.614
21578W        W90051   2.960   3.826   4.659
21579W        W90052  13.153  18.195   4.343
21580W        W90053  29.442   1.925   3.244
21581W        W90054  16.598  31.546   0.479
21582W        W90055  14.176   5.264   4.123
21583W        W90056  34.945  38.016   1.450
21584W        W90057  24.055  13.219  12.342
21585W        W90058  40.967  17.261  14.455
21586W        W90059  42.806  34.106  13.842
21587W        W90060  18.693  31.489  14.969
21588W        W90061  33.971  37.980  10.924
21589W        W90062  28.505   4.783   3.180
21590W        W90063  13.110   1.900   1.712
21591W        W90064  13.723   3.709  10.932
21592W        W90065  34.901  14.245  14.405
21593W        W90066  17.203  12.273  14.816
21594W        W90067   0.979  38.501  13.928
21595W        W90068   0.365  16.577  13.933
21596W        W90069  37.964  42.889  13.470
21597W        W90070  15.786  27.972   1.442
21598W        W90071  44.415   4.835  14.383
21599W        W90072  14.661  16.629   0.440
21600W        W90073  42.315  14.678   2.403
21601W        W90074  27.535  14.214   2.778
21602W        W90075  41.298  26.193   4.132
21603W        W90076  18.579   9.302  14.862
21604W        W90077  41.851  27.037  11.920
21605W        W90078  41.323  11.840  14.361
21606W        W90079  27.169  43.820  10.038
21607W        W90080  19.135  16.142  14.834
21608W        W90081  32.460   8.761   1.794
21609W        W90082  38.057   8.721   2.876
21610W        W90083  35.026  35.091   3.724
21611W        W90084   9.173  40.960  13.332
21612W        W90085  24.483  16.808  12.423
21613W        W90086  34.471  19.152   0.391
21614W        W90087  20.091  33.586   1.398
21615W        W90088  19.542  40.872  12.430
21616W        W90089  36.469  26.615   3.175
21617W        W90090  27.069  13.305  12.551
21618W        W90091   0.960  26.614  11.068
21619W        W90092  43.365  19.275   3.253
21620W        W90093  16.752  43.475  10.581
21621W        W90094  10.349   8.806   1.397
21622W        W90095   8.174  19.765  13.929
21623W        W90096  25.133  11.706   0.915
21624W        W90097  15.812  16.083  11.934
21625W        W90098  17.150  31.959   4.324
21626W        W90099   7.815  43.827  13.379
21627W        W90100  12.808  14.664   4.137
21628W        W90101  26.123  42.957   3.234
21629W        W90102  13.832  31.405   2.385
21630W        W90103   5.747  13.825  12.902
21631W        W90104   2.337  18.571   0.350
21632W        W90105  18.680   0.894   4.274
21633W        W90106   6.227   3.223   1.304
21634W        W90107   1.976  28.581  12.985
21635W        W90108  12.757  25.176  13.331
21636W        W90109   1.951  31.435  11.387
21637W        W90110  41.788  16.281  13.034
21638W        W90111  13.824  30.154   1.854
21639W        W90112  31.975  33.006   0.919
21640W        W90113  40.871   7.692  11.480
21641W        W90114  34.532  34.377   4.341
21642W        W90115   5.292  25.143   0.315
21643W        W90116  31.488   7.221  14.288
21644W        W90117  14.129  17.099  10.508
21645W        W90118  19.136  28.539  11.030
21646W        W90119  17.200   8.749   3.856
21647W        W90120   9.717  23.588  12.477
21648W        W90121  25.029  11.186   3.166
21649W        W90122   3.719   0.796   4.675
21650W        W90123  11.789   3.337  10.084
21651W        W90124  34.492  38.352  13.822
21652W        W90125  14.723  31.484  10.406
21653W        W90126   6.769  35.075  11.882
21654W        W90127  36.583   6.254   2.326
21655W        W90128   3.734  31.071  13.352
21656W        W90129   6.716  41.799   4.619
21657W        W90130  33.535  14.602   2.821
21658W        W90131  43.954  39.011   2.740
21659W        W90132  16.599  32.955   2.228
21660W        W90133  41.021   8.731   2.755
21661W        W90134  29.951  10.746   2.254
21662W        W90135  30.972   1.842   2.699
21663W        W90136   6.210  22.216  10.478
21664W        W90137   8.179  23.187  10.090
21665W        W90138  12.202   3.232  10.633
21666W        W90139  44.875  12.854   0.449
21667W        W90140   0.876  15.246  13.992
21668W        W90141  18.691   3.413  13.908
21669W        W90142  25.161   5.225   3.691
21670W        W90143  34.420  15.243   2.393
21671W        W90144   3.295  38.047   0.460
21672W        W90145  11.624  29.667  11.976
21673W        W90146  10.351  28.064   4.695
21674W        W90147   1.400  35.024   1.762
21675W        W90148   0.304  28.672   3.684
21676W        W90149  40.921  18.139  11.915
21677W        W90150  34.551   8.804   0.460
21678W        W90151  41.009  32.465  13.940
21679W        W90152  26.681   7.271   1.696
21680W        W90153  26.628   0.868  12.840
21681W        W90154  44.502  39.927   0.896
21682W        W90155  12.143  28.971   0.322
21683W        W90156  25.523  41.822   3.809
21684W        W90157   3.865  44.309   1.254
21685W        W90158  43.331   3.927  13.924
21686W        W90159  13.171  19.760   1.377
21687W        W90160  39.029  22.728  13.333
21688W        W90161  13.264  38.377   0.387
21689W        W90162  18.627  44.965   0.251
21690W        W90163  33.530  33.031   2.692
21691W        W90164   2.421   2.450   3.325
21692W        W90165  22.652  33.392  14.445
21693W        W90166  16.570  26.072   2.215
21694W        W90167  20.632   5.337   4.282
21695W        W90168  40.527  40.809   4.670
21696W        W90169   1.480  40.477   3.795
21697W        W90170   4.421   0.776   0.374
21698W        W90171  19.595  23.568   0.771
21699W        W90172  39.864  16.685  14.026
21700W        W90173  15.312  31.984  14.824
21701W        W90174  23.679   6.920  14.356
21702W        W90175  30.601  22.596   4.657
21703W        W90176  36.022   7.211  14.025
21704W        W90177   5.393   2.400   2.238
21705W        W90178   6.741  17.263  12.918
21706W        W90179  24.140  34.896  13.547
21707W        W90180  28.994  27.636   0.390
21708W        W90181  42.468  24.623   4.296
21709W        W90182  22.025  42.438  14.803
21710W        W90183  13.797   8.319   2.338
21711W        W90184   6.307  33.389  14.902
21712W        W90185  25.078  33.615  14.788
21713W        W90186  38.546  39.010  10.515
21714W        W90187  10.216  34.568  14.882
21715W        W90188  22.573  17.715   2.822
21716W        W90189  40.966  34.429  11.903
21717W        W90190  33.397  27.555   3.252
21718W        W90191  32.071   8.698   2.732
21719W        W90192   3.401  26.131   2.697
21720W        W90193   3.401  32.887   3.749
21721W        W90194   3.751   9.341  14.380
21722W        W90195  44.407  38.361   4.162
21723W        W90196  40.406  38.907   1.695
21724W        W90197  17.565  11.294   1.417
21725W        W90198  28.455  28.475   3.289
21726W        W90199  42.422  42.323   0.328
21727W        W90200  33.883   9.821   3.663
21728W        W90201   2.411  20.693  14.340
21729W        W90202  28.940  25.679  11.518
21730W        W90203  20.556  32.938  11.573
21731W        W90204   6.885   2.366  13.531
21732W        W90205  37.029  28.151   3.652
21733W        W90206  41.518   9.381  12.419
21734W        W90207  42.982  29.051  11.393
21735W        W90208   0.372  22.096  11.489
21736W        W90209  33.111  43.862  14.998
21737W        W90210  30.412  28.527  12.538
21738W        W90211  41.836  17.707  14.868
21739W        W90212   9.654  36.422   2.685
21740W        W90213  13.228  19.553  11.992
21741W        W90214   6.774   6.195  13.502
21742W        W90215  43.816  22.733   2.401
21743W        W90216   2.832  28.944  10.892
21744W        W90217  27.953   5.256  10.055
21745W        W90218   9.851  21.648  12.418
21746W        W90219  22.553   8.227   0.822
21747W        W90220  35.860  30.585   0.930
21748W        W90221  19.208  26.202   3.634
21749W        W90222  41.315  27.960  14.453
21750W        W90223  39.044  39.355  14.849
21751W        W90224   0.843  29.982   1.332
21752W        W90225  30.955   8.261   2.764
21753W        W90226   0.481  32.538   4.171
21754W        W90227  22.506  15.299   0.296
21755W        W90228   5.362   5.864  14.312
21756W        W90229   8.704   7.401  11.061
21757W        W90230   8.392  12.646  14.492
21758W        W90231  13.303  24.502   0.268
21759W        W90232  20.045  16.670  12.350
21760W        W90233  38.851  28.181   3.806
21761W        W90234  43.767  42.867  11.073
21762W        W90235  27.456  13.800  13.991
21763W        W90236  37.362   3.777   2.747
21764W        W90237  43.973   5.914   4.279
21765W        W90238   9.306  14.637   3.325
21766W        W90239  44.270  15.667   3.743
21767W        W90240  31.094  25.652   5.177
21768W        W90241  15.590  25.481  12.992
21769W        W90242  31.613  30.923   1.217
21770W        W90243  12.784   6.276   2.739
21771W        W90244  18.181  17.703   3.781
21772W        W90245   6.259  14.180   0.940
21773W        W90246   4.800  36.557   0.911
21774W        W90247   6.813  27.182  12.531
21775W        W90248  25.596  17.589  13.969
21776W        W90249  31.429   6.414   3.339
21777W        W90250  37.359   9.248  14.796
21778W        W90251  10.686   9.663  13.935
21779W        W90252  14.588  39.516   4.202
21780W        W90253  22.733  11.770  14.304
21781W        W90254  10.827  37.069  14.419
21782W        W90255  43.913   7.271  11.543
21783W        W90256  34.519   6.815   4.210
21784W        W90257   0.463  43.305   2.339
21785W        W90258  36.025  43.300  11.547
21786W        W90259  19.776  33.047   1.892
21787W        W90260  12.232  32.596  11.871
21788W        W90261  29.937  28.038   4.335
21789W        W90262  15.771  22.587  10.439
21790W        W90263  26.152  38.516   1.329
21791W        W90264   3.770   2.887   1.786
21792W        W90265   5.277   4.286  10.532
21793W        W90266  29.430  29.147  11.986
21794W        W90267  32.062  39.993   0.923
21795W        W90268   9.694  20.124   2.836
21796W        W90269   9.268  18.734   3.288
21797W        W90270  15.801  33.901  12.534
21798W        W90271  14.249   0.797  11.915
21799W        W90272  37.067  19.190   2.894
21800W        W90273  15.236  34.453   2.691
21801W        W90274  28.038  21.153   4.725
21802W        W90275   3.728   5.261  12.864
21803W        W90276  31.915  36.037   3.385
21804W        W90277  29.995   6.796   4.775
21805W        W90278  33.530  11.672   4.598
21806W        W90279  40.333  29.924  13.461
21807W        W90280   4.291  43.304  12.457
21808W        W90281   3.724   0.439   2.305
21809W        W90282  12.651  14.670   3.862
21810W        W90283  18.080   3.367   2.827
21811W        W90284   3.278  36.879  13.538
21812W        W90285  12.322  11.788   0.863
21813W        W90286   7.887  10.867  13.839
21814W        W90287  11.163  24.039   1.294
21815W        W90288  30.637  44.309   2.417
21816W        W90289  29.649  25.157  13.405
21817W        W90290   8.358  37.423  10.569
21818W        W90291   2.813  11.203  11.111
21819W        W90292  30.631   6.247  13.014
21820W        W90293  20.126  16.135   0.933
21821W        W90294   4.813   6.382   0.928
21822W        W90295  29.544  24.594   5.314
21823W        W90296  14.739  24.206   2.730
21824W        W90297  15.251  34.101  11.444
21825W        W90298  41.510  26.669   1.923
21826W        W90299  21.110   5.903   4.689
21827W        W90300  37.885  29.028   4.252
21828W        W90301  42.476  39.389   0.795
21829W        W90302  36.427  26.699   5.195
21830W        W90303  32.419  37.015  13.380
21831W        W90304  15.265  30.062   2.667
21832W        W90305  34.973  10.153   1.439
21833W        W90306  38.425  11.221  12.017
21834W        W90307  34.613  30.027   4.624
21835W        W90308  22.041  16.151  14.296
21836W        W90309  44.809  26.148   3.238
21837W        W90310  23.490  15.158  12.991
21838W        W90311   5.208  17.775  10.986
21839W        W90312   0.345  41.815   0.856
21840W        W90313  18.253  38.389   2.760
21841W        W90314  20.096  39.433   3.843
21842W        W90315   3.400   0.473   0.264
21843W        W90316  29.951  30.989  14.334
21844W        W90317  28.945  14.761  14.879
21845W        W90318   3.448  15.104  12.951
21846W        W90319  16.597  19.271  12.532
21847W        W90320   4.322   1.307   2.400
21848W        W90321  15.299   4.906  10.548
21849W        W90322  31.464   4.295   2.768
21850W        W90323   7.272  26.026  12.979
21851W        W90324   1.375  38.955  11.038
21852W        W90325   4.334   9.295  11.874
21853W        W90326  33.106  30.438   2.410
21854W        W90327   1.333   7.286   0.363
21855W        W90328  31.606  21.017   1.840
21856W        W90329  44.783  30.523  14.785
21857W        W90330  10.244  18.171  12.021
21858W        W90331  35.401  38.841  11.551
21859W        W90332   3.715  20.048   3.715
21860W        W90333  33.913  31.537  10.916
21861W        W90334  33.610  28.494   1.770
21862W        W90335  43.912  36.519   2.342
21863W        W90336  29.108  25.609  13.450
21864W        W90337  23.565  18.082  11.897
21865W        W90338  15.098  11.315   4.834
21866W        W90339   8.672  28.130   3.214
21867W        W90340   4.718  18.557   0.740
21868W        W90341  18.115  20.074  12.478
21869W        W90342  28.128  33.095   0.351
21870W        W90343   9.310   2.392   4.120
21871W        W90344  38.991  38.860   4.607
21872W        W90345  11.138  31.950   3.741
21873W        W90346  20.705  39.014  11.462
21874W        W90347   1.395  43.999  14.307
21875W        W90348   9.294  16.621   3.371
21876W        W90349  25.593  22.619  12.985
21877W        W90350  44.421  24.508   2.709
21878W        W90351   0.305   7.734   1.792
21879W        W90352  39.368   2.747   0.911
21880W        W90353  20.272  43.298  10.547
21881W        W90354  10.310  17.286  12.058
21882W        W90355  13.786  15.164  11.482
21883W        W90356  20.227  20.718  13.358
21884W        W90357  41.846  20.089  13.522
21885W        W90358  30.608  24.545   2.741
21886W        W90359  25.106  12.291   0.955
21887W        W90360  12.324   3.859   3.319
21888W        W90361  13.811  34.452  11.482
21889W        W90362   2.843  16.081   4.764
21890W        W90363  24.564  32.522  10.921
21891W        W90364   2.258  22.671  12.907
21892W        W90365   0.412   6.329   3.288
21893W        W90366  29.639   0.336  11.418
21894W        W90367  24.682  42.396   2.386
21895W        W90368  27.521  13.116  12.017
21896W        W90369  18.700  17.153   3.247
21897W        W90370  44.429  32.400   3.363
21898W        W90371  31.090  33.449  14.363
21899W        W90372  13.196  37.058  11.455
21900W        W90373  19.618  41.943   3.289
21901W        W90374  44.896  43.770   0.397
21902W        W90375   6.371  41.340  14.014
21903W        W90376  39.865   5.413   2.190
21904W        W90377  29.446   8.725   3.858
21905W        W90378  14.094  38.948  14.280
21906W        W90379  44.460  17.143   2.765
21907W        W90380  44.384  27.509   3.237
21908W        W90381  21.651  25.200   0.430
21909W        W90382  28.175  20.115   0.269
21910W        W90383   7.744  10.157  12.873
21911W        W90384  44.335  28.660  14.476
21912W        W90385  18.251  27.487   1.282
21913W        W90386  29.980  41.523  11.096
21914W        W90387  21.131  41.373   1.836
21915W        W90388  20.079  16.270   4.837
21916W        W90389  19.179  35.993  14.986
21917W        W90390  13.728   2.369   1.378
21918W        W90391   3.219   6.214  11.025
21919W        W90392  26.596  26.137  14.298
21920W        W90393   8.329   7.729   1.801
21921W        W90394  12.218  23.087   2.190
21922W        W90395  16.667  13.126   1.314
21923W        W90396  33.952   2.916   2.841
21924W        W90397   6.400   0.489  12.410
21925W        W90398  30.650   3.435   4.145
21926W        W90399  14.098  36.569   3.313
21927W        W90400  44.897  26.653  12.829
21928W        W90401  31.414  20.541  12.085
21929W        W90402  34.411  15.642   1.747
21930W        W90403  18.708  44.437  12.833
21931W        W90404  11.311  13.737   4.277
21932W        W90405   4.768   7.828  10.109
21933W        W90406   1.754  16.596   2.375
21934W        W90407  40.424  11.734   0.746
21935W        W90408  33.962  10.308  10.497
21936W        W90409  26.072  34.968  13.322
21937W        W90410   3.934   0.461  13.370
21938W        W90411  43.976   7.843  14.877
21939W        W90412  12.679   9.303  12.459
21940W        W90413  32.022  23.651   1.901
21941W        W90414   3.738   3.856   2.783
21942W        W90415  41.397  28.626  11.095
21943W        W90416  20.710  30.638   1.240
21944W        W90417  35.406   5.206   2.890
21945W        W90418  17.712  12.186  14.822
21946W        W90419  33.521  36.381   1.723
21947W        W90420  32.898   6.405  10.478
21948W        W90421  26.520  34.927   0.461
21949W        W90422   8.235  37.947  12.428
21950W        W90423  25.491  41.979  12.037
21951W        W90424   7.207  16.724  13.388
21952W        W90425   3.241  41.406  12.853
21953W        W90426  32.421  30.005  12.444
21954W        W90427   5.319  33.389  10.927
21955W        W90428  27.508  24.183   3.347
21956W        W90429   6.315  16.220   4.224
21957W        W90430  38.491  30.597   3.312
21958W        W90431  33.569   8.163  10.465
21959W        W90432  38.935  24.138   0.305
21960W        W90433  30.622   7.204   4.321
21961W        W90434  43.919  26.590  14.276
21962W        W90435  10.215   1.296   1.330
21963W        W90436  42.850  13.740  14.392
21964W        W90437   8.265  38.858  13.455
21965W        W90438  18.081  27.968  11.998
21966W        W90439  31.103   9.753   1.402
21967W        W90440  38.510  23.734   1.259
21968W        W90441  38.932  10.157   0.776
21969W        W90442  42.947  32.028   4.605
21970W        W90443  23.559  42.284   0.291
21971W        W90444  34.095   6.822  13.492
21972W        W90445   3.403  30.979   0.257
21973W        W90446  25.973  18.109  11.968
21974W        W90447  39.510  39.916  14.835
21975W        W90448  13.845   7.294   2.690
21976W        W90449  44.901   5.370   0.852
21977W        W90450  26.647  19.235  13.831
21978W        W90451  40.491  15.220   3.333
21979W        W90452  27.525  32.018  10.546
21980W        W90453   2.442  38.370  12.467
21981W        W90454  14.295  41.381   9.975
21982W        W90455  23.180  28.060   5.092
21983W        W90456  35.934  43.015   0.769
21984W        W90457  19.041   7.291  14.867
21985W        W90458   7.365  36.964   0.476
21986W        W90459  16.596   3.450  11.007
21987W        W90460   0.848  18.574  14.820
21988W        W90461  38.857  17.770   1.402
21989W        W90462   7.339   1.889   3.675
21990W        W90463  17.203  23.991  11.958
21991W        W90464  16.596   6.365   1.327
21992W        W90465  40.960  12.662  13.850
21993W        W90466   5.728  21.576  10.471
21994W        W90467  10.754  44.805  12.073
21995W        W90468  17.601  18.561   0.778
21996W        W90469  12.116   0.297   1.266
21997W        W90470  44.375  24.669   0.347
21998W        W90471  25.692  32.536  14.276
21999W        W90472   4.813  37.545  10.112
22000W        W90473  30.020  33.946  11.567
22001W        W90474  17.200  24.074   3.857
22002W        W90475   8.820  17.702  10.453
22003W        W90476  30.465   5.425  13.826
22004W        W90477   9.217   7.218  14.825
22005W        W90478  31.582  13.350  13.544
22006W        W90479  43.976  41.456   3.798
22007W        W90480   7.357  43.291   2.361
22008W        W90481   5.770  13.692  11.380
22009W        W90482  30.977  15.744   4.626
22010W        W90483  10.187  19.281   4.281
22011W        W90484  14.266  28.102   1.336
22012W        W90485  33.929  12.195   0.455
22013W        W90486  27.615   2.939   3.863
22014W        W90487   4.347  44.839   2.197
22015W        W90488   4.291   6.357   2.717
22016W        W90489   7.791  12.282   1.403
22017W        W90490  28.678  16.176   3.724
22018W        W90491  44.978   2.736   0.332
22019W        W90492  14.745   6.739   0.372
22020W        W90493  35.358  19.658  11.944
22021W        W90494  18.136  15.243   4.704
22022W        W90495  17.185  31.946   2.816
22023W        W90496  14.755  39.809   5.631
22024W        W90497  33.533   1.944   2.885
22025W        W90498  29.978  25.986   1.319
22026W        W90499  35.005  29.144  11.038
22027W        W90500  24.491  20.097  11.606
22028W        W90501  26.587   7.229   3.685
22029W        W90502  36.959  10.765   3.781
22030W        W90503  42.291  21.733   0.754
22031W        W90504  12.755   6.702   3.323
22032W        W90505  16.766  43.390   2.372
22033W        W90506  26.153  42.408   0.310
22034W        W90507   9.736  23.601   1.898
22035W        W90508  26.470  23.033   0.901
22036W        W90509  24.615  34.453   2.244
22037W        W90510  16.606   4.888  14.914
22038W        W90511  37.495  28.020  11.005
22039W        W90512  12.246  27.031  14.457
22040W        W90513  18.097  30.942   3.377
22041W        W90514  19.563  17.798   0.462
22042W        W90515   2.410  32.471   2.835
22043W        W90516  21.074   1.943   3.700
22044W        W90517  33.980  19.282  12.457
22045W        W90518  16.231  28.047   4.676
22046W        W90519  29.103  33.030  11.918
22047W        W90520   9.728  23.138   4.676
22048W        W90521  43.275   0.250   3.328
22049W        W90522  35.381  17.776   3.348
22050W        W90523   4.919  40.522  11.398
22051W        W90524  41.426  35.434   2.748
22052W        W90525  13.743  30.458   2.731
22053W        W90526   6.192  32.124  12.094
22054W        W90527   3.388   5.713  10.955
22055W        W90528  14.823  25.678  10.431
22056W        W90529  33.011  31.422  12.555
22057W        W90530  34.985  33.974   0.901
22058W        W90531  17.171  43.444  13.802
22059W        W90532  19.644   9.860   2.288
22060W        W90533  41.014  16.283  14.483
22061W        W90534   0.348  20.058  12.905
22062W        W90535  18.121   2.268   1.414
22063W        W90536  37.377  27.186   0.401
22064W        W90537  10.189  39.868   2.808
22065W        W90538  29.166  27.005   3.259
22066W        W90539   6.318  39.027   0.927
22067W        W90540  13.329   1.947   0.903
22068W        W90541  42.497  25.102  13.481
22069W        W90542   9.659   0.389  13.512
22070W        W90543  28.112  20.262   4.653
22071W        W90544   0.308   8.866   3.786
22072W        W90545   4.853   0.760   2.869
22073W        W90546  12.326  43.937  12.956
22074W        W90547  12.290  17.595   1.349
22075W        W90548  37.830   1.811  12.887
22076W        W90549  21.729  43.438   3.185
22077W        W90550   1.806   2.404   4.706
22078W        W90551   8.239  11.764  12.564
22079W        W90552  26.637   4.844  11.097
22080W        W90553  14.618  18.064  12.501
22081W        W90554   7.832   3.810   4.664
22082W        W90555  20.118   5.838  14.378
22083W        W90556  36.069  18.788   3.818
22084W        W90557  21.148  20.647   0.356
22085W        W90558  13.312  14.157   1.395
22086W        W90559  17.223   0.494   2.180
22087W        W90560   4.925  36.584  10.942
22088W        W90561  37.954   5.810  10.407
22089W        W90562  27.947  38.433  11.560
22090W        W90563  23.558  12.267   3.676
22091W        W90564  23.650  31.017   3.711
22092W        W90565  41.802  27.484  13.798
22093W        W90566  40.976  41.385   3.716
22094W        W90567  19.155  37.507   1.701
22095W        W90568  28.062   4.837   0.245
22096W        W90569  36.366  35.067  12.487
22097W        W90570  39.933  38.848  13.879
22098W        W90571   3.312   4.328  14.791
22099W        W90572  43.328   5.717  13.459
22100W        W90573   5.772  11.685  11.040
22101W        W90574  24.617   7.884   3.372
22102W        W90575   3.456  30.503  13.857
22103W        W90576  10.178  22.103   3.266
22104W        W90577  19.163   9.264  11.566
22105W        W90578   8.780  26.572  12.877
22106W        W90579  23.535  44.765   0.921
22107W        W90580  18.633  16.629  14.768
22108W        W90581  25.522   2.914  10.406
22109W        W90582   5.907   8.727   0.341
22110W        W90583  21.716   3.946   2.684
22111W        W90584  33.392   9.718   2.836
22112W        W90585  41.814   7.699   1.421
22113W        W90586  42.413   4.838   4.199
22114W        W90587  18.239  36.505   1.698
22115W        W90588   7.311  13.241   3.744
22116W        W90589  36.425  28.499  11.433
22117W        W90590  28.976  10.642   1.861
22118W        W90591  29.524  35.024  13.997
22119W        W90592   4.734  37.910  12.420
22120W        W90593  41.858  33.047  14.897
22121W        W90594   1.359  29.050   1.727
22122W        W90595   7.789  42.441  14.765
22123W        W90596  43.022  40.444  11.382
22124W        W90597  28.586   5.243   4.275
22125W        W90598  11.306   6.920   2.281
22126W        W90599   3.356  43.321   1.847
22127W        W90600  26.115  34.950   0.766
22128W        W90601  13.649  43.425  10.998
22129W        W90602  21.193  25.195  13.001
22130W        W90603   9.837  25.714   5.596
22131W        W90604   5.773  27.183  13.436
22132W        W90605   6.351  17.116  12.091
22133W        W90606  10.705  21.516  13.852
22134W        W90607   2.815   3.383  11.439
22135W        W90608  12.710  44.341   4.673
22136W        W90609   1.834  23.099   0.254
22137W        W90610  39.404   7.788   4.632
22138W        W90611  42.007  35.994  14.944
22139W        W90612  37.367  40.345   3.860
22140W        W90613  33.045  21.049   3.356
22141W        W90614   7.893  33.928  13.487
22142W        W90615  10.189  25.095  10.497
22143W        W90616  17.067  44.337   4.686
22144W        W90617  25.165  16.175   0.932
22145W        W90618   6.184  18.572  13.376
22146W        W90619  15.641  12.821   2.777
22147W        W90620   7.221  35.583  11.880
22148W        W90621  37.839   7.397  13.429
22149W        W90622   0.788  36.363   4.238
22150W        W90623   3.879  12.315  13.391
22151W        W90624  28.165  40.031  13.051
22152W        W90625  10.818  35.979   2.859
22153W        W90626  37.403  11.694   3.243
22154W        W90627  44.990  38.827   1.410
22155W        W90628  11.762  18.704  14.806
22156W        W90629  34.044  12.317  12.911
22157W        W90630  41.043   6.181  12.868
22158W        W90631  16.698  19.634   2.286
22159W        W90632  13.822   7.888  10.582
22160W        W90633  33.600  33.412   2.822
22161W        W90634   5.927   3.255  10.422
22162W        W90635   0.411  28.618  12.993
22163W        W90636   3.945  24.131  12.051
22164W        W90637  26.511  21.202   2.259
22165W        W90638  11.205  11.286  13.828
22166W        W90639  38.052  26.050   0.940
22167W        W90640  22.017  11.811  12.868
22168W        W90641  42.928  25.547  14.818
22169W        W90642  38.403   1.936  10.568
22170W        W90643  32.516  43.416   1.789
22171W        W90644  36.882  27.535  11.074
22172W        W90645  42.916  40.839  10.593
22173W        W90646  16.813  21.264   0.476
22174W        W90647  41.031   3.218   1.835
22175W        W90648   4.858  32.601   3.647
22176W        W90649  26.525   9.721   4.782
22177W        W90650   6.737   2.308  13.808
22178W        W90651  33.484  21.547   2.314
22179W        W90652  14.623  39.481  13.949
22180W        W90653  40.403  18.643  13.535
22181W        W90654  42.299   9.829   4.335
22182W        W90655  18.260  18.658   2.202
22183W        W90656  44.943   0.952   4.616
22184W        W90657  35.962   2.352  11.889
22185W        W90658  33.094   7.351  12.375
22186W        W90659  43.897  34.995   3.288
22187W        W90660  18.572  44.375  13.501
22188W        W90661  20.121   4.241   1.289
22189W        W90662  43.829  14.296  14.972
22190W        W90663  38.059  35.470   2.824
22191W        W90664   5.296  44.350   3.673
22192W        W90665  22.500  44.847  13.809
22193W        W90666   7.219  20.733   0.431
22194W        W90667  24.713  38.507  11.029
22195W        W90668   1.392   1.352  14.438
22196W        W90669   8.879  25.158   9.957
22197W        W90670  16.647  29.959   4.824
22198W        W90671  36.069  40.860   4.798
22199W        W90672  33.521  42.021  11.008
22200W        W90673   6.383  39.045   2.741
22201W        W90674  20.186  30.524   4.724
22202W        W90675  27.977   2.274   0.880
22203W        W90676  19.614  39.834  14.951
22204W        W90677  17.220  21.529  14.514
22205W        W90678  20.154  38.532  14.861
22206W        W90679  20.616  31.086  11.507
22207W        W90680  10.254  29.030   3.276
22208W        W90681  36.534  26.064   3.866
22209W        W90682  36.958  40.519  12.876
22210W        W90683  32.955   1.868   4.264
22211W        W90684  41.511   7.298  14.997
22212W        W90685  10.208  19.253  11.438
22213W        W90686  44.994  18.132   4.295
22214W        W90687  33.573  18.139   2.734
22215W        W90688  44.010   9.171  11.536
22216W        W90689   4.847  29.984  13.343
22217W        W90690  28.053  31.964  10.978
22218W        W90691   4.231  22.018   3.665
22219W        W90692  26.960  34.517  14.848
22220W        W90693  40.420  11.143   3.684
22221W        W90694  18.734  31.014   1.417
22222W        W90695  42.393  43.954   4.324
22223W        W90696  44.822  44.261  13.064
22224W        W90697  11.826  26.051  11.912
22225W        W90698   9.759   3.458   0.915
22226W        W90699   5.413  30.057  13.462
22227W        W90700   3.736  26.133  13.835
22228W        W90701  44.450  15.754  13.428
22229W        W90702  36.850  42.941   1.763
22230W        W90703  43.989  39.386   1.925
22231W        W90704  42.285  31.136   4.333
22232W        W90705  39.042  30.131  13.052
22233W        W90706  30.960  14.171   2.417
22234W        W90707  13.207  31.522  12.058
22235W        W90708  25.519  43.874   5.182
22236W        W90709  27.526  10.798  14.893
22237W        W90710  36.930   6.345  10.986
22238W        W90711  13.260  31.084  11.000
22239W        W90712  23.222  29.527  12.492
22240W        W90713  19.068  28.468  11.990
22241W        W90714  38.350  11.246  13.536
22242W        W90715  21.680  15.609   1.336
22243W        W90716  18.600  28.048   5.188
22244W        W90717  31.037  10.363   1.398
22245W        W90718  36.569  20.043  11.544
22246W        W90719  18.607  13.151  11.941
22247W        W90720  13.702   2.814   0.302
22248W        W90721  42.827  19.134  13.891
22249W        W90722  15.189   5.331   0.431
22250W        W90723  35.419  35.512   3.723
22251W        W90724   2.859  14.663  14.762
22252W        W90725  43.390  33.977  14.002
22253W        W90726  31.038  26.001   3.798
22254W        W90727  13.622  43.497   0.373
22255W        W90728  21.194   0.325   0.439
22256W        W90729  39.994  41.888   3.382
22257W        W90730   9.338  15.224  12.434
22258W        W90731  43.836  28.516  12.403
22259W        W90732  13.653  42.834  13.036
22260W        W90733  44.305  41.423  12.423
22261W        W90734  14.640  14.225  14.012
22262W        W90735  38.377   6.380  12.429
22263W        W90736   8.885  21.590  14.390
22264W        W90737   3.847   4.278  10.514
22265W        W90738  24.016  39.922  13.450
22266W        W90739  22.740   5.214  14.984
22267W        W90740  32.947  42.884   0.372
22268W        W90741  23.074  25.013   1.419
22269W        W90742   5.194  15.251   4.620
22270W        W90743  32.585  15.771  14.501
22271W        W90744  17.162   8.766  14.337
22272W        W90745  40.907   1.782  14.969
22273W        W90746  18.701  35.888   4.337
22274W        W90747  34.458  25.497  11.510
22275W        W90748  42.964   7.679  10.949
22276W        W90749  29.456  27.121   2.772
22277W        W90750  32.045   6.711   3.274
22278W        W90751  33.527  17.083  12.860
22279W        W90752  11.265  29.081   1.241
22280W        W90753   8.363  38.961   0.327
22281W        W90754  13.670  15.808   2.790
22282W        W90755  29.109   1.283   4.149
22283W        W90756  36.032  32.038  11.560
22284W        W90757   4.232  21.040   2.778
22285W        W90758  31.605  35.410   4.147
22286W        W90759   8.729  12.750   4.115
22287W        W90760   2.868  22.034  13.311
22288W        W90761  21.157  39.388   1.341
22289W        W90762  44.933  28.651  14.480
22290W        W90763  21.228  18.272  10.406
22291W        W90764  38.482  29.081   1.211
22292W        W90765  39.326  28.466   2.350
22293W        W90766  32.535  26.669   0.737
22294W        W90767  14.751  13.612   4.238
22295W        W90768  14.607  24.569   2.233
22296W        W90769  10.804   7.834   1.721
22297W        W90770  21.111  30.999   3.771
22298W        W90771  20.526  10.355  11.102
22299W        W90772  21.617  24.117  14.964
22300W        W90773   1.762  38.410   4.169
22301W        W90774   8.216  21.684  12.938
22302W        W90775  31.009  10.750  13.833
22303W        W90776  18.173  41.461   2.205
22304W        W90777  27.645  37.912  11.112
22305W        W90778  37.048  24.551  11.067
22306W        W90779  38.506   5.809  12.986
22307W        W90780  25.012  22.668   4.282
22308W        W90781  39.549  31.047   0.893
22309W        W90782  21.213  12.324   9.984
22310W        W90783  34.956   8.819   0.888
22311W        W90784   5.265  41.429  14.858
22312W        W90785  33.400   6.710   3.285
22313W        W90786  38.916  10.151   4.236
22314W        W90787   8.362  41.417  11.396
22315W        W90788  38.991  43.990   4.818
22316W        W90789   7.369  32.976   0.803
22317W        W90790  23.060  39.894   2.785
22318W        W90791  44.298  40.451  11.906
22319W        W90792  14.279   4.769   0.300
22320W        W90793  39.833  17.655   4.277
22321W        W90794  18.770  18.116   0.795
22322W        W90795  41.790  20.229   2.743
22323W        W90796  13.757  38.945   4.163
22324W        W90797   5.754  25.119   5.251
22325W        W90798  14.588  35.450  13.520
22326W        W90799  35.958  16.807  14.865
22327W        W90800  40.817  44.484   4.622
22328W        W90801  20.567  31.489   2.712
22329W        W90802  38.829  31.107   0.831
22330W        W90803  40.334  31.458  11.066
22331W        W90804  30.967  38.390   3.697
22332W        W90805   6.389  19.536  10.008
22333W        W90806  40.972  15.152   4.213
22334W        W90807  13.767  36.399   4.824
22335W        W90808   3.448  14.741   4.164
22336W        W90809  12.337  13.639   0.732
22337W        W90810  17.722  38.022   3.760
22338W        W90811  10.192  14.332   2.210
22339W        W90812   9.818  19.098   0.914
22340W        W90813  42.851   7.803   4.631
22341W        W90814  15.738  21.668  14.920
22342W        W90815  40.812  10.179   4.778
22343W        W90816  21.169  14.818   0.377
22344W        W90817  30.617   7.799   4.836
22345W        W90818  19.231  23.215  13.008
22346W        W90819  41.470  12.732  13.010
22347W        W90820  23.165  42.863   3.258
22348W        W90821  29.057  21.757   4.308
22349W        W90822  18.569  27.054  11.077
22350W        W90823  17.673  43.800  11.060
22351W        W90824   9.801  15.108   0.781
22352W        W90825  17.628  26.199  12.975
22353W        W90826  13.823  36.424  14.438
22354W        W90827   5.199  16.089   1.821
22355W        W90828  36.002   0.422  11.924
22356W        W90829   8.826  23.126  12.435
22357W        W90830  24.976   1.310   2.178
22358W        W90831  44.866  37.549   1.697
22359W        W90832  23.026  27.446   1.709
22360W        W90833   8.366   4.778  14.314
22361W        W90834  22.101  14.766  11.110
22362W        W90835  44.952  15.696   2.837
22363W        W90836  12.749  22.996   4.305
22364W        W90837  30.004  18.092   0.778
22365W        W90838   6.858  14.323   1.350
22366W        W90839  29.171  33.925   2.798
22367W        W90840  25.133  10.650  10.576
22368W        W90841  37.523  21.093  13.931
22369W        W90842   9.651  18.076   0.939
22370W        W90843   9.203  35.426  14.844
22371W        W90844   0.813   4.376  11.946
22372W        W90845  24.049  26.969   4.731
22373W        W90846   8.837  12.356  11.962
22374W        W90847  32.092  14.320  13.536
22375W        W90848   3.270  40.951   0.789
22376W        W90849  25.552  24.190   0.370
22377W        W90850  26.517  16.111  11.508
22378W        W90851  44.909  11.701   3.660
22379W        W90852  39.891  24.116   0.385
22380W        W90853  27.983  17.686   0.808
22381W        W90854  44.976   9.738   2.257
22382W        W90855  19.075  23.224   1.406
22383W        W90856  37.998  25.107   3.308
22384W        W90857  28.990  30.598  13.446
22385W        W90858  12.188  43.798  10.412
22386W        W90859  24.982  28.130   3.150
22387W        W90860  22.656   4.913   3.190
22388W        W90861   7.396  33.112   2.672
22389W        W90862  41.828  33.532  12.552
22390W        W90863  38.987  22.593   2.714
22391W        W90864   3.229  37.950   0.861
22392W        W90865  19.585  19.270  10.613
22393W        W90866  39.369   9.649   0.819
22394W        W90867  16.206  35.565   1.817
22395W        W90868  34.088  21.251  12.399
22396W        W90869  21.667  44.494   2.702
22397W        W90870  28.632  19.235   3.306
22398W        W90871   6.275  32.960  10.583
22399W        W90872  25.502  23.130  14.993
22400W        W90873   8.287  18.229   4.621
22401W        W90874  22.505  24.190   3.292
22402W        W90875   8.294  17.780   2.415
22403W        W90876  16.119  25.705  14.499
22404W        W90877  33.381  23.624   1.292
22405W        W90878  22.613  37.541  14.355
22406W        W90879  35.924  18.084  11.969
22407W        W90880  27.571  40.486   4.797
22408W        W90881  32.129  25.196  11.532
22409W        W90882   2.784  13.604  11.944
22410W        W90883  44.427  39.357  13.002
22411W        W90884   6.352   1.257   0.869
22412W        W90885   0.331  31.018   1.779
22413W        W90886  25.047  15.682   1.386
22414W        W90887  22.038  26.208   4.597
22415W        W90888  31.065  44.444   0.841
22416W        W90889  25.471   8.766   3.252
22417W        W90890  17.215  30.527   4.834
22418W        W90891  32.032  15.671   4.161
22419W        W90892  26.583   6.229   4.226
22420W        W90893  44.002  34.464  14.778
22421W        W90894  10.253  15.115  12.832
22422W        W90895   4.813  26.156   1.878
22423W        W90896  17.175  21.115  12.449
22424W        W90897  31.578  38.908  13.317
22425W        W90898  25.059  43.995   3.189
22426W        W90899  13.665  25.208  11.517
22427W        W90900  39.031  18.100   5.175
22428W        W90901   4.776   4.331   4.277
22429W        W90902   9.658   7.752  11.059
22430W        W90903  16.152  10.727  12.007
22431W        W90904   9.337   0.447   3.194
22432W        W90905  44.445  29.560   3.174
22433W        W90906  29.103  37.020  13.916
22434W        W90907  29.066  36.538  11.947
22435W        W90908  22.012  30.997   3.688
22436W        W90909  42.810  40.533   0.961
22437W        W90910  30.915   6.302   1.747
22438W        W90911  33.974  21.033  10.533
22439W        W90912  11.302  17.778  14.912
22440W        W90913  38.043  15.599   1.887
22441W        W90914  27.994  40.942   0.858
22442W        W90915  26.598  33.429   5.305
22443W        W90916  41.347   8.679   0.855
22444W        W90917   2.382  44.496  13.378
22445W        W90918  20.091  19.178   1.408
22446W        W90919  26.042   0.783   5.103
22447W        W90920  17.101  39.919  11.055
22448W        W90921  44.843  18.170  12.548
22449W        W90922  26.045  14.590   1.355
22450W        W90923  20.141  32.073   2.235
22451W        W90924  16.708  39.035  13.059
22452W        W90925  19.674  37.534   2.309
22453W        W90926  28.944  24.077   4.275
22454W        W90927  16.257  11.330  14.787
22455W        W90928  24.219  22.042   4.211
22456W        W90929  27.549  22.580  10.494
22457W        W90930  35.454  19.672   2.727
22458W        W90931   0.336  22.535   2.382
22459W        W90932  33.550  27.149   1.812
22460W        W90933   6.381   4.410   2.379
22461W        W90934  44.422  11.297  13.490
22462W        W90935  20.643  39.942  14.771
22463W        W90936  34.034  26.458  12.507
22464W        W90937  10.338  43.292   0.867
22465W        W90938  27.687  10.212  11.027
22466W        W90939  38.337   7.759  14.354
22467W        W90940  30.023  24.610   3.304
22468W        W90941  37.542  38.871  11.581
22469W        W90942  21.180  10.169  13.990
22470W        W90943   7.819  42.879   3.811
22471W        W90944  32.494   7.354   4.270
22472W        W90945   4.356  37.552  10.981
22473W        W90946  23.595  40.835  11.488
22474W        W90947  40.935  21.262  12.401
22475W        W90948  23.074  15.808  14.405
22476W        W90949  35.397  28.078  12.923
22477W        W90950  38.391   7.847   2.383
22478W        W90951   3.423  35.568   2.233
22479W        W90952  18.680  36.850  11.989
22480W        W90953  39.500  43.437   2.810
22481W        W90954  13.349   9.742   3.258
22482W        W90955  32.061  16.271   1.720
22483W        W90956  40.849  35.078   3.649
22484W        W90957  15.756   6.197   2.207
22485W        W90958   0.316  37.034   3.870
22486W        W90959  37.465  17.174   1.210
22487W        W90960  34.010  22.583   0.883
22488W        W90961  23.532   2.455   0.771
22489W        W90962  42.472  20.073  13.441
22490W        W90963  36.411  10.846   2.238
22491W        W90964  44.754  26.961   2.386
22492W        W90965  41.894   5.194   1.713
22493W        W90966  16.654  14.690   3.781
22494W        W90967  30.413  31.939   1.272
22495W        W90968  43.827  14.818  14.283
22496W        W90969   7.877  42.950  10.132
22497W        W90970  24.104   5.828  11.459
22498W        W90971  18.197  11.795   0.246
22499W        W90972  30.130  32.092   4.621
22500W        W90973   4.845   3.730   9.954
22501W        W90974  24.616  24.672  13.327
22502W        W90975   9.811  27.060   4.329
22503W        W90976  32.053  39.432  11.011
22504W        W90977   7.281   4.436   4.817
22505W        W90978  39.062   0.754   5.162
22506W        W90979   1.941  26.682  12.065
22507W        W90980  32.990  41.371   3.744
22508W        W90981   3.389  19.252   0.913
22509W        W90982  30.488  31.587   0.467
22510W        W90983  38.063   7.192   0.312
22511W        W90984   9.867   0.399  14.811
22512W        W90985  16.095  33.975   0.905
22513W        W90986  21.677  26.055   4.649
22514W        W90987  27.079  11.838  12.572
22515W        W90988  27.593  16.200  14.788
22516W        W90989  30.434  40.307  11.968
22517W        W90990   0.413  31.627   2.887
22518W        W90991  34.074   2.751  12.998
22519W        W90992  12.340  16.592   4.637
22520W        W90993  24.723  21.681   0.361
22521W        W90994  43.802  12.744  13.462
22522W        W90995   9.743   2.732   3.848
22523W        W90996  41.397  38.534   3.815
22524W        W90997  38.903  26.575  11.085
22525W        W90998  30.964  43.907   4.672
22526W        W90999   8.200  23.546  10.973
22527W        W91000   1.888  18.067  14.859
22528W        W91001  19.275  17.766  14.457
22529W        W91002  41.327  38.529  10.498
22530W        W91003  40.037  39.557  14.016
22531W        W91004  20.235  32.517  10.577
22532W        W91005  29.991  22.056  14.790
22533W        W91006  10.670  37.079   0.820
22534W        W91007  33.100   2.450  14.791
22535W        W91008   1.897   0.769   4.127
22536W        W91009   7.713  29.591  14.932
22537W        W91010  27.472  20.712  10.426
22538W        W91011  43.871  42.893   0.827
22539W        W91012  35.965  24.011   1.911
22540W        W91013  15.811  34.396   1.755
22541W        W91014   7.665  22.088   2.413
22542W        W91015   4.412  18.608  12.991
22543W        W91016  39.354  29.571   4.704
22544W        W91017  12.251  16.672  11.603
22545W        W91018  11.263  23.734   2.296
22546W        W91019  37.052  30.016  13.413
22547W        W91020  14.225  36.470  12.985
22548W        W91021  28.518  22.580   0.762
22549W        W91022  22.576   4.842  13.370
22550W        W91023  35.529  42.513   4.218
22551W        W91024  12.315   8.766  12.092
22552W        W91025  36.498  41.786  13.500
22553W        W91026  19.192  11.763  10.559
22554W        W91027  14.642   7.674  11.901
22555W        W91028  17.802   8.216  10.541
22556W        W91029  41.949  41.936   4.294
22557W        W91030  12.136   1.313  12.531
22558W        W91031  16.289  29.925   4.804
22559W        W91032  44.424   1.392   1.706
22560W        W91033   8.233  38.825  11.504
22561W        W91034   7.221  24.547  11.482
22562W        W91035  40.375  35.492  14.926
22563W        W91036  14.292  36.450  10.992
22564W        W91037  36.480   1.398   4.268
22565W        W91038  40.957  33.912  13.965
22566W        W91039  11.844  18.208  11.885
22567W        W91040  40.397  20.547   1.289
22568W        W91041  31.964  15.624   2.369
22569W        W91042  32.051  38.421   3.871
22570W        W91043  24.672   0.338  11.965
22571W        W91044   3.285  10.868   1.351
22572W        W91045  16.752  38.485   3.708
22573W        W91046  19.656  27.596   4.191
22574W        W91047   1.423  25.983  12.081
22575W        W91048  13.318   4.316  12.439
22576W        W91049  11.233  35.989   0.856
22577W        W91050  14.235  15.130  11.985
22578W        W91051  24.144  39.495  13.433
22579W        W91052  21.712  15.155  11.913
22580W        W91053  31.408  11.631  14.012
22581W        W91054  11.312  35.108   0.776
22582W        W91055  20.151  34.906   0.887
22583W        W91056  42.849   2.740  13.968
22584W        W91057   9.283  28.554   1.912
22585W        W91058  33.068  22.630   4.194
22586W        W91059  36.381  34.963   4.173
22587W        W91060  25.010  35.024   0.252
22588W        W91061  22.545   4.403   2.394
22589W        W91062  13.160   3.399  12.395
22590W        W91063   4.934  19.217   2.280
22591W        W91064  27.552  10.817   2.808
22592W        W91065  13.796  15.142   4.353
22593W        W91066  29.062  26.979  12.351
22594W        W91067  16.147  21.147  13.344
22595W        W91068  12.649  32.571   3.772
22596W        W91069   5.691   8.244  11.870
22597W        W91070  26.149  23.227   0.345
22598W        W91071  13.157  16.152  12.533
22599W        W91072  41.808  33.493   2.187
22600W        W91073   0.329  17.745   0.461
22601W        W91074  10.366  31.406   1.376
22602W        W91075  23.536  20.240  12.351
22603W        W91076   9.694  16.789  12.577
22604W        W91077  20.700  10.240   4.751
22605W        W91078  15.727  12.728  13.817
22606W        W91079  19.104  27.193   4.786
22607W        W91080  44.299  35.049   0.955
22608W        W91081  25.567   7.855   0.801
22609W        W91082  21.690  41.905  11.910
22610W        W91083  10.375  29.123  13.974
22611W        W91084  15.780  19.706   4.827
22612W        W91085  27.515   9.713   2.235
22613W        W91086  29.605   1.792  13.525
22614W        W91087  28.951  19.580   4.751
22615W        W91088  12.124  14.266  11.006
22616W        W91089  20.165  42.916   2.330
22617W        W91090  21.018  42.795   1.234
22618W        W91091  33.063  28.185   0.457
22619W        W91092  10.781  21.102  13.937
22620W        W91093  12.632  44.765  10.447
22621W        W91094  39.042   7.694  12.859
22622W        W91095  18.101  21.170  13.348
22623W        W91096  34.383  39.979   4.261
22624W        W91097  10.243   4.822   4.675
22625W        W91098  14.791  16.695  12.474
22626W        W91099   8.323  30.468   1.335
22627W        W91100  35.527   0.324  13.057
22628W        W91101  21.068  44.410  10.631
22629W        W91102  21.194  32.051   0.753
22630W        W91103  36.546  20.217   4.620
22631W        W91104  29.661  11.131   0.410
22632W        W91105   0.435  32.597  12.929
22633W        W91106  39.024   1.314   4.159
22634W        W91107   5.904  38.452  14.335
22635W        W91108  25.992  29.014   2.768
22636W        W91109  13.786   3.382  14.384
22637W        W91110  23.203   8.708  14.365
22638W        W91111  10.138  18.065  10.100
22639W        W91112   2.818  11.269   4.268
22640W        W91113  29.517  27.157   2.317
22641W        W91114  30.121  24.076  10.955
22642W        W91115  29.442  11.853  14.325
22643W        W91116  36.523   2.744  14.819
22644W        W91117  26.509  34.573   9.968
22645W        W91118  25.216  22.129   1.906
22646W        W91119  12.213  41.394   4.167
22647W        W91120  35.854   5.230   1.214
22648W        W91121  13.755  43.295   0.904
22649W        W91122  27.464  25.635  10.968
22650W        W91123  41.942  10.170  12.344
22651W        W91124  18.135  22.157   4.677
22652W        W91125  15.584  31.063   1.736
22653W        W91126  34.922   6.717   1.774
22654W        W91127  38.338  16.802   2.313
22655W        W91128  14.616  33.492  10.951
22656W        W91129   2.364  32.959  11.902
22657W        W91130  14.832  19.266  10.513
22658W        W91131  19.676  26.069  13.326
22659W        W91132   1.731  33.888  14.288
22660W        W91133   8.289   6.293   4.806
22661W        W91134  17.717   3.278   1.854
22662W        W91135  25.204   1.747  13.883
22663W        W91136  27.602  12.857   3.292
22664W        W91137   4.903  15.316  11.599
22665W        W91138  20.575  44.836   3.370
22666W        W91139   5.313  33.443  14.991
22667W        W91140  16.797  17.684  11.118
22668W        W91141  11.679  35.491  14.452
22669W        W91142  11.339  22.652   4.738
22670W        W91143   4.413  11.788  11.984
22671W        W91144  10.367   1.789   3.348
22672W        W91145  28.667  23.507   2.702
22673W        W91146  26.192   9.207  12.984
22674W        W91147  18.617  26.028   1.819
22675W        W91148  27.126  39.354   3.367
22676W        W91149  30.492  16.614   0.405
22677W        W91150  29.070  40.472  14.827
22678W        W91151  11.225  14.781  13.435
22679W        W91152  41.988  24.151   0.776
22680W        W91153  23.698  41.503   1.828
22681W        W91154  26.662  32.028   3.323
22682W        W91155   4.254  26.605   2.301
22683W        W91156  44.824  36.557   1.328
22684W        W91157  24.202  10.169  14.918
22685W        W91158  28.018  42.433   2.760
22686W        W91159   1.757  35.448  14.310
22687W        W91160  42.357  23.038   1.447
22688W        W91161   8.325  22.124  13.417
22689W        W91162  18.787  43.836  13.891
22690W        W91163  20.267  39.324  11.026
22691W        W91164   5.826  30.596   1.302
22692W        W91165  19.230   5.876  14.377
22693W        W91166   9.859  29.657  10.437
22694W        W91167  10.281  41.945  12.551
22695W        W91168  12.619   5.335  11.518
22696W        W91169  43.351   1.744  13.427
22697W        W91170  34.482  28.994  11.952
22698W        W91171  39.504   4.228   2.853
22699W        W91172  15.813  26.007  10.996
22700W        W91173   3.767   7.841   0.259
22701W        W91174  43.902  31.053   0.270
22702W        W91175   3.900  33.588   2.676
22703W        W91176  23.628  33.963  10.507
22704W        W91177  41.463  36.593   3.705
22705W        W91178  15.256  29.065  10.547
22706W        W91179  12.632  35.918   4.212
22707W        W91180  36.943   9.297   0.953
22708W        W91181  27.047  15.276  11.391
22709W        W91182  42.898   0.335   2.706
22710W        W91183  15.750  17.191   1.319
22711W        W91184  37.371  34.598  10.896
22712W        W91185  20.577  42.283   1.308
22713W        W91186  24.712  37.521  10.923
22714W        W91187  42.826  29.668   4.640
22715W        W91188  24.061  19.779  11.388
22716W        W91189  35.469  21.592   3.800
22717W        W91190  33.124   0.831   2.215
22718W        W91191  40.452  23.116   2.337
22719W        W91192  23.637  21.602  14.414
22720W        W91193  44.905  21.085  13.350
22721W        W91194  34.426   3.742   0.303
22722W        W91195  25.112  42.820  10.029
22723W        W91196  43.503  35.592   1.323
22724W        W91197  42.883  22.653   1.430
22725W        W91198   3.824  33.453   4.659
22726W        W91199   7.404   4.429   0.808
22727W        W91200   6.894  37.961   0.776
22728W        W91201  18.550   2.388  11.416
22729W        W91202   4.224  26.107   1.353
22730W        W91203  36.855  21.161  12.453
22731W        W91204   5.819  14.242   3.348
22732W        W91205  13.231  31.410  13.471
22733W        W91206  11.224  16.605  12.506
22734W        W91207   0.983  14.261   4.275
22735W        W91208   0.793  32.529  11.937
22736W        W91209   9.805  11.657  13.422
22737W        W91210  44.363  12.277   4.661
22738W        W91211  10.840  10.753   1.731
22739W        W91212  22.696   5.375  11.891
22740W        W91213  39.904  25.560   4.604
22741W        W91214  36.891   3.435   4.766
22742W        W91215  17.159   1.382   4.131
22743W        W91216   5.424  25.966   2.195
22744W        W91217   6.698  33.880   3.789
22745W        W91218  38.019   8.865   0.846
22746W        W91219  18.250  15.321  14.951
22747W        W91220   2.393  35.986  10.996
22748W        W91221  16.155   6.838  13.055
22749W        W91222  24.492   7.754   0.446
22750W        W91223  11.821  12.278  12.887
22751W        W91224  33.899  28.661   4.292
22752W        W91225  29.638   0.871   0.908
22753W        W91226  37.938  44.967   2.185
22754W        W91227   3.763  30.986   1.798
22755W        W91228   0.394  29.148   4.652
22756W        W91229  40.924  22.102   3.632
22757W        W91230  35.042  27.509   3.216
22758W        W91231  12.798  13.723  11.918
22759W        W91232   5.408  42.509  14.372
22760W        W91233  21.073  10.836  13.862
22761W        W91234  29.656  16.277   4.782
22762W        W91235  20.761  31.556   4.710
22763W        W91236  32.414  17.260  10.951
22764W        W91237  34.979  40.332  12.096
22765W        W91238  28.667  38.912   4.636
22766W        W91239  39.322  19.600  10.590
22767W        W91240  32.498  15.767  11.888
22768W        W91241  15.621   0.756   5.253
22769W        W91242  33.901  43.979   5.756
22770W        W91243  32.008   8.280  14.770
22771W        W91244  37.501   0.892  11.862
22772W        W91245   9.366  39.343  12.494
22773W        W91246   6.334  43.953   4.207
22774W        W91247  12.359  12.222   4.687
22775W        W91248  30.011  26.554  14.292
22776W        W91249  11.700  44.865  13.440
22777W        W91250  42.494  12.624   0.457
22778W        W91251  43.887  18.256   2.686
22779W        W91252   2.315   2.239  10.440
22780W        W91253  31.914   0.788   0.385
22781W        W91254  35.873   6.304  11.545
22782W        W91255  10.653  15.694  14.991
22783W        W91256  10.257   9.323  13.537
22784W        W91257  44.331  10.752  14.431
22785W        W91258  41.493   9.725  13.477
22786W        W91259  33.613  40.355   3.189
22787W        W91260  12.203  13.304  11.610
22788W        W91261  39.467  30.072  12.935
22789W        W91262  42.817   5.435   2.214
22790W        W91263  38.345  30.612   4.269
22791W        W91264  36.966  41.997  11.033
22792W        W91265  40.328  15.296  12.036
22793W        W91266  24.089  38.339  14.774
22794W        W91267  13.755  26.580   1.389
22795W        W91268  31.918  44.480   3.332
22796W        W91269   5.217  20.719   3.314
22797W        W91270  15.715  40.860   3.751
22798W        W91271  22.698  43.827   4.773
22799W        W91272   4.798  15.651   5.248
22800W        W91273   5.255   0.908  10.637
22801W        W91274   3.329  33.536   1.214
22802W        W91275  43.389  44.364   2.750
22803W        W91276   6.700  11.308  11.432
22804W        W91277  32.509  17.214  11.446
22805W        W91278   7.181  42.296  11.516
22806W        W91279   4.940  44.788  14.947
22807W        W91280  23.027  44.757  14.926
22808W        W91281  11.708  39.517   0.935
22809W        W91282  39.347  37.406  14.778
22810W        W91283  35.594   4.433  13.972
22811W        W91284  39.442  19.628   4.188
22812W        W91285  20.712   6.853  14.941
22813W        W91286   4.849  10.186   5.176
22814W        W91287  17.708   7.806   0.397
22815W        W91288   0.921  19.634   4.688
22816W        W91289  25.626   5.244  10.962
22817W        W91290   6.372   3.804  10.970
22818W        W91291  21.193   5.300  14.880
22819W        W91292   4.802  17.761  12.959
22820W        W91293  35.986  37.450   4.835
22821W        W91294  36.364  25.219  14.759
22822W        W91295  26.138  35.393  12.473
22823W        W91296  32.121  16.251  13.795
22824W        W91297  23.099  36.069  11.865
22825W        W91298  33.887  14.815  12.536
22826W        W91299  15.096  37.563  14.346
22827W        W91300  33.513  23.636   2.738
22828W        W91301   0.916   8.177   1.714
22829W        W91302   4.228  21.712  13.866
22830W        W91303  32.507  44.301  14.452
22831W        W91304   0.260  42.481   4.631
22832W        W91305  27.578  20.600  12.486
22833W        W91306  30.041  19.607   1.427
22834W        W91307  32.902  31.014  13.987
22835W        W91308  31.067  32.955  11.403
22836W        W91309  17.272   7.709  14.846
22837W        W91310  39.836   2.735   3.242
22838W        W91311   8.294   2.738   2.371
22839W        W91312  25.966  44.007   2.678
22840W        W91313  14.295  12.266  13.936
22841W        W91314   8.248   6.391   5.738
22842W        W91315  33.913   8.676   4.190
22843W        W91316   6.313  30.541  11.589
22844W        W91317  11.704  42.973   1.436
22845W        W91318   5.380  40.869   3.320
22846W        W91319  25.091  42.025   3.321
22847W        W91320  43.992  39.887  13.896
22848W        W91321  39.855  33.402   4.250
22849W        W91322  44.497  34.971  13.484
22850W        W91323  37.048  42.782  13.993
22851W        W91324   3.954  21.513   1.885
22852W        W91325  10.812  38.373   2.665
22853W        W91326  21.713  17.107   4.613
22854W        W91327  34.104   7.232   2.890
22855W        W91328  34.591  23.031  12.863
22856W        W91329  38.505   6.414   0.251
22857W        W91330  29.081   8.348   3.762
22858W        W91331  43.432  43.360  12.491
22859W        W91332  21.558   1.271  13.810
22860W        W91333  30.458  39.909  10.997
22861W        W91334  21.743  17.679  11.888
22862W        W91335   3.930  13.275  13.838
22863W        W91336  37.924  11.268  10.536
22864W        W91337  20.161  26.595  11.875
22865W        W91338  25.007  26.003  13.048
22866W        W91339  31.949  22.731  12.515
22867W        W91340  20.126  18.252  10.581
22868W        W91341  11.751  24.488  10.925
22869W        W91342  23.032   4.311  12.556
22870W        W91343  12.728  29.160   2.842
22871W        W91344  27.131  14.306  11.394
22872W        W91345   0.250  42.832   0.960
22873W        W91346  18.736  41.354  13.922
22874W        W91347  27.009  12.722   1.377
22875W        W91348   8.343   3.728  10.627
22876W        W91349   9.767  25.681   2.706
22877W        W91350  41.479  28.461  11.902
22878W        W91351  16.570  23.576   3.750
22879W        W91352  39.316  28.168   4.291
22880W        W91353  17.104  24.194  10.959
22881W        W91354  10.779  34.516  14.952
22882W        W91355  31.437   3.359  11.001
22883W        W91356  33.499  10.382   4.774
22884W        W91357  24.147  26.196  14.314
22885W        W91358  34.008   6.219  10.001
22886W        W91359  13.801  38.909  13.478
22887W        W91360  44.972  36.497   2.781
22888W        W91361  19.678  23.036   2.250
22889W        W91362  27.095  40.845  12.909
22890W        W91363  15.120   6.905   0.469
22891W        W91364  26.636  29.165  12.926
22892W        W91365  36.993  43.397  11.112
22893W        W91366  18.640  40.949  11.111
22894W        W91367  41.835  15.145  14.790
22895W        W91368  26.107  28.535   3.771
22896W        W91369  43.427  36.018  11.461
22897W        W91370  39.809  33.480  14.482
22898W        W91371  11.655  41.464   3.855
22899W        W91372   9.840   4.442   4.276
22900W        W91373   7.306  29.006   2.386
22901W        W91374   9.159   7.756  14.374
22902W        W91375  37.364   8.377  12.410
22903W        W91376  13.274  18.588  11.580
22904W        W91377  42.411  27.625  13.792
22905W        W91378  29.941  28.024  12.888
22906W        W91379  30.514  40.459  14.853
22907W        W91380  18.174  34.876   2.815
22908W        W91381  15.325   3.395   0.429
22909W        W91382  30.145  19.755  14.494
22910W        W91383  24.562  27.953   1.928
22911W        W91384  19.213  32.632   0.952
22912W        W91385  39.811  13.246  11.491
22913W        W91386  15.141  39.822  12.944
22914W        W91387  38.547   7.698  10.449
22915W        W91388  31.964  44.428  13.832
22916W        W91389  23.500  23.102   2.301
22917W        W91390  30.650  42.849  13.875
22918W        W91391   0.376   5.356   1.224
22919W        W91392  15.614  32.002   2.236
22920W        W91393  29.960  18.262   4.633
22921W        W91394  19.701  28.994  13.360
22922W        W91395  29.502  30.989   1.793
22923W        W91396  28.042   0.787   3.259
22924W        W91397  27.538  31.903   4.701
22925W        W91398   1.874  23.650  11.469
22926W        W91399   3.384  27.946   0.864
22927W        W91400  27.690  14.624  12.979
22928W        W91401  23.180  30.544   1.308
22929W        W91402   6.268  22.700   3.205
22930W        W91403  12.220   3.936  14.293
22931W        W91404  12.798  40.372   1.220
22932W        W91405  19.252  14.644  14.498
22933W        W91406   4.798   7.859   3.241
22934W        W91407  12.748  27.477  12.060
22935W        W91408  24.121  41.411   2.415
22936W        W91409  43.802  41.912  11.006
22937W        W91410  15.637  30.549   2.855
22938W        W91411  15.281  13.285  12.519
22939W        W91412  28.513  41.940   3.842
22940W        W91413   9.188  32.962   0.429
22941W        W91414  40.508  27.467  14.962
22942W        W91415  10.796  29.595  10.601
22943W        W91416  33.037   5.297  12.086
22944W        W91417   7.903  15.251  10.589
22945W        W91418  19.225   7.276  14.328
22946W        W91419  12.661  14.135   0.842
22947W        W91420   5.697  28.157   3.233
22948W        W91421  16.806  29.164   3.278
22949W        W91422   5.329  35.574   1.265
22950W        W91423  31.046  43.396  12.425
22951W        W91424  16.748  12.705  11.481
22952W        W91425   9.159   8.283   4.339
22953W        W91426  20.160  25.021  12.026
22954W        W91427  18.241   3.356   0.408
22955W        W91428  33.417  21.564  12.003
22956W        W91429   9.283   2.766   2.665
22957W        W91430   3.771  21.163   1.785
22958W        W91431   0.309  13.785   2.811
22959W        W91432  30.468  31.648  14.404
22960W        W91433   2.468  24.101  11.588
22961W        W91434   2.882  12.194   3.304
22962W        W91435  37.930  33.525   0.421
22963W        W91436  19.774  36.888   3.338
22964W        W91437  36.925  21.244   1.449
22965W        W91438  44.499  35.889   2.358
22966W        W91439  42.449  40.805   1.849
22967W        W91440  41.858  30.415   4.625
22968W        W91441  43.399  35.062  11.068
22969W        W91442  12.834  21.742  12.887
22970W        W91443   8.685  40.854   1.802
22971W        W91444  26.662   5.409  12.473
22972W        W91445   9.700  14.788  12.881
22973W        W91446  31.516  15.792   1.427
22974W        W91447   9.658  36.393  14.882
22975W        W91448  33.920  19.222   0.399
22976W        W91449  24.644  22.522   3.738
22977W        W91450  39.521   0.986  14.976
22978W        W91451  38.547  41.987  11.502
22979W        W91452  31.453   9.767   4.753
22980W        W91453  18.732  30.566   2.678
22981W        W91454   8.673   8.866  10.542
22982W        W91455  18.162  12.821  13.920
22983W        W91456   9.797  15.767   4.681
22984W        W91457   7.206   9.159  12.393
22985W        W91458  42.778  34.421  11.595
22986W        W91459  41.414  26.692  14.857
22987W        W91460   3.224  11.740   3.854
22988W        W91461  24.190   5.383   1.323
22989W        W91462   9.844  41.335  13.892
22990W        W91463  15.686  38.348  11.388
22991W        W91464  32.023   3.397  13.026
22992W        W91465   4.388  29.102   3.770
22993W        W91466   3.283  19.722  13.403
22994W        W91467  14.248  21.528  13.526
22995W        W91468  38.833   0.763   3.763
22996W        W91469  13.310   3.345  13.871
22997W        W91470   8.224  43.349   0.420
22998W        W91471  27.135  13.297   4.168
22999W        W91472  12.248  30.569   4.319
23000W        W91473  44.310  28.064   5.085
23001W        W91474   1.326  33.460   0.759
23002W        W91475  34.428  12.206  12.471
23003W        W91476  28.062  23.058   2.371
23004W        W91477  14.641  16.781   2.700
23005W        W91478  32.902  28.629  12.449
23006W        W91479   9.653  44.502  14.771
23007W        W91480  13.211   6.836   0.733
23008W        W91481  19.702  28.181  10.901
23009W        W91482  38.062  16.080   2.320
23010W        W91483  36.379  15.611   2.879
23011W        W91484  32.111  39.472   1.225
23012W        W91485  14.313  40.546  11.374
23013W        W91486  27.488  12.126  13.507
23014W        W91487  38.821  36.466   3.247
23015W        W91488   7.820   4.785  14.937
23016W        W91489   7.247  30.044   2.180
23017W        W91490  13.754  17.222  11.030
23018W        W91491  33.382  44.392  14.030
23019W        W91492  10.356   8.270   0.420
23020W        W91493  15.296  25.538   0.825
23021W        W91494  25.969  38.487  14.366
23022W        W91495  29.056   4.723   2.759
23023W        W91496  32.448  20.747  14.825
23024W        W91497   3.459  24.043  13.048
23025W        W91498  27.448  33.986   1.801
23026W        W91499  33.108  13.333  10.570
23027W        W91500  19.595  38.061  12.002
23028W        W91501  30.916   0.810   0.771
23029W        W91502  36.462   0.893   1.333
23030W        W91503  26.503  17.755  10.464
23031W        W91504  25.062  16.598   0.305
23032W        W91505   2.827  32.943  13.860
23033W        W91506   9.703  36.363   9.531
23034W        W91507  10.804  44.312   0.356
23035W        W91508  23.031  37.862   0.743
23036W        W91509  20.733  41.826  14.812
23037W        W91510  35.896  18.245  14.787
23038W        W91511  41.448  36.889  14.405
23039W        W91512  27.160  31.640   0.405
23040W        W91513   4.430   9.264   0.270
23041W        W91514  30.553   9.307  14.007
23042W        W91515  38.372  27.140   2.233
23043W        W91516  32.135   3.812   4.601
23044W        W91517  40.483  14.184  11.976
23045W        W91518  43.510   9.255  13.513
23046W        W91519  39.320  42.026  12.911
23047W        W91520  44.259  13.828  12.436
23048W        W91521  36.952  43.362   0.369
23049W        W91522  39.325  31.488  12.908
23050W        W91523  27.974  30.494  14.435
23051W        W91524  36.531  14.163   2.810
23052W        W91525  17.226  38.999  10.892
23053W        W91526  15.593   8.324  12.040
23054W        W91527  14.652  25.641   2.227
23055W        W91528   0.468  44.758  11.006
23056W        W91529  34.936   2.375  11.937
23057W        W91530  18.295  23.131  12.070
23058W        W91531  12.166  21.084  11.892
23059W        W91532  17.712  33.509   0.759
23060W        W91533  23.521   9.239  11.382
23061W        W91534   2.319  16.147   2.786
23062W        W91535  21.054  40.435  11.424
23063W        W91536  36.360  12.273  13.498
23064W        W91537  14.690  41.297  12.344
23065W        W91538  39.525  41.448  12.409
23066W        W91539   2.341  22.508   3.651
23067W        W91540  33.048  27.988  11.053
23068W        W91541  30.929  44.422   5.673
23069W        W91542  32.456  35.853  12.470
23070W        W91543  38.361  17.119   0.256
23071W        W91544  40.939  18.548  13.932
23072W        W91545  19.769  41.951   1.447
23073W        W91546  37.994  34.080  11.941
23074W        W91547  22.224  27.944  10.056
23075W        W91548   5.930   4.310  12.361
23076W        W91549  26.074  16.077  11.487
23077W        W91550  12.637  18.700  14.283
23078W        W91551  16.727  14.269   3.824
23079W        W91552  25.557  36.874  11.498
23080W        W91553  32.501  10.281  10.021
23081W        W91554  16.139  23.648  11.602
23082W        W91555   4.425  16.276   9.514
23083W        W91556  28.649   4.399  12.929
23084W        W91557  42.893  41.861  12.414
23085W        W91558  27.553  27.476   1.408
23086W        W91559  25.575  26.491  10.557
23087W        W91560  23.049  23.496  10.511
23088W        W91561  44.791  21.151  14.365
23089W        W91562  44.805  22.191  11.397
23090W        W91563  17.288  23.570   2.781
23091W        W91564  16.102  36.549   2.855
23092W        W91565   0.799  10.215   4.663
23093W        W91566  29.580  14.238  14.473
23094W        W91567  18.286   6.239   0.385
23095W        W91568  23.637  13.294  10.436
23096W        W91569  36.096  18.058   1.838
23097W        W91570  35.453   5.418   4.139
23098W        W91571  41.454  18.592  13.395
23099W        W91572  24.528  38.830   0.299
23100W        W91573  15.313  21.142   3.209
23101W        W91574  32.542  12.241  14.483
23102W        W91575  11.176  22.080   3.326
23103W        W91576  26.551  12.695   3.196
23104W        W91577  27.572   3.789   0.456
23105W        W91578  12.346   8.261   1.810
23106W        W91579   2.794  10.266   4.756
23107W        W91580  28.121   2.756  12.360
23108W        W91581   5.776  30.070   0.436
23109W        W91582   6.768  19.233   3.281
23110W        W91583   5.210   8.829  12.522
23111W        W91584  36.508  22.159   4.837
23112W        W91585  16.755   3.255  12.373
23113W        W91586  37.882  33.878  10.600
23114W        W91587  14.805  31.630  10.980
23115W        W91588  12.627  22.573   0.963
23116W        W91589   1.775  38.530  11.427
23117W        W91590  20.170  41.987   2.303
23118W        W91591  28.168  35.551  14.947
23119W        W91592  34.040   2.262   3.171
23120W        W91593  33.572  16.073  11.880
23121W        W91594   5.398   4.758  10.408
23122W        W91595  40.311  40.367  14.918
23123W        W91596   9.850  33.525   3.168
23124W        W91597  16.685  13.758   3.682
23125W        W91598   1.789  14.677  10.470
23126W        W91599  33.096  32.551  12.467
23127W        W91600   1.289  19.758   0.859
23128W        W91601  27.638  16.721   1.777
23129W        W91602   2.317   5.368   3.228
23130W        W91603  22.166  14.273   3.335
23131W        W91604  21.599  13.234   1.844
23132W        W91605  32.623   4.925   3.159
23133W        W91606  17.102  27.612  13.406
23134W        W91607  30.619  10.690  12.908
23135W        W91608  20.262  22.161   4.329
23136W        W91609  11.351  25.558   5.778
23137W        W91610  19.621   7.817   5.252
23138W        W91611  28.444  44.887   3.700
23139W        W91612  11.854  42.319  14.813
23140W        W91613  32.434  32.110  11.003
23141W        W91614  42.809   8.672   1.711
23142W        W91615  30.141  27.446  12.061
23143W        W91616  27.484  16.242   4.202
23144W        W91617  30.569   4.775  11.903
23145W        W91618  29.930  37.494   5.196
23146W        W91619   4.389  33.428  14.810
23147W        W91620  33.517  30.088  10.985
23148W        W91621  44.365  16.732  11.112
23149W        W91622  21.563   7.738  13.548
23150W        W91623  33.408  21.049  12.569
23151W        W91624  23.729   3.356   0.371
23152W        W91625  24.087  25.694  10.139
23153W        W91626  33.626   6.881   1.870
23154W        W91627   9.832  12.740  11.051
23155W        W91628  17.306  40.016  12.371
23156W        W91629   3.788  30.441   2.831
23157W        W91630   2.340  22.121  13.534
23158W        W91631  24.522  37.432   1.817
23159W        W91632  26.141   1.320   0.753
23160W        W91633  22.624   1.764   1.805
23161W        W91634  33.543  31.518  12.029
23162W        W91635  11.835  28.668   3.384
23163W        W91636  27.959  32.466   4.738
23164W        W91637  38.896  17.661  10.468
23165W        W91638  32.072  19.668  11.413
23166W        W91639  28.570  13.169   2.838
23167W        W91640  10.747  36.537   0.767
23168W        W91641  37.419  28.991  10.013
23169W        W91642  36.930  36.419  12.374
23170W        W91643  27.002  42.415   4.758
23171W        W91644  31.432  32.419  14.451
23172W        W91645  24.999  19.695  14.025
23173W        W91646   8.366  32.607   0.846
23174W        W91647  36.948  42.794   2.382
23175W        W91648   5.801   5.354  11.973
23176W        W91649  13.705  35.567  12.069
23177W        W91650  37.511  10.211  11.475
23178W        W91651  15.125   3.751  12.578
23179W        W91652   4.408   6.810   1.725
23180W        W91653  22.206  34.071   3.190
23181W        W91654   0.390  41.971  13.948
23182W        W91655   9.320  33.057   2.897
23183W        W91656  11.295  34.583   3.298
23184W        W91657   9.785  35.444   2.705
23185W        W91658  36.975  24.561  13.373
23186W        W91659   8.406  14.200   5.227
23187W        W91660  27.998   6.884  14.284
23188W        W91661  30.533  32.123  10.072
23189W        W91662  34.405  23.707  14.020
23190W        W91663  41.823  16.713   4.755
23191W        W91664  44.875  41.467  13.342
23192W        W91665  21.186  44.935   0.433
23193W        W91666   6.752  43.503   2.394
23194W        W91667  18.130  28.645  13.331
23195W        W91668  41.022  31.044  13.457
23196W        W91669   7.400  19.586   3.207
23197W        W91670  43.944   0.388   3.359
23198W        W91671   6.767  31.996  13.319
23199W        W91672  24.557  42.888  10.429
23200W        W91673  27.495  35.993   3.775
23201W        W91674  30.421   8.737   3.686
23202W        W91675  18.548   0.778   1.851
23203W        W91676  33.072  26.621   2.849
23204W        W91677  44.382   3.233  12.388
23205W        W91678  16.810  23.216  13.050
23206W        W91679   5.748  42.306  14.987
23207W        W91680  20.184   7.234   3.664
23208W        W91681  29.529  28.568   0.338
23209W        W91682   7.336   8.220  11.869
23210W        W91683  42.781  31.500  12.000
23211W        W91684  10.197  34.388   4.731
23212W        W91685   2.453   0.415  13.546
23213W        W91686  39.939  42.312   2.330
23214W        W91687  14.171   3.754  11.503
23215W        W91688  18.767  30.985   2.749
23216W        W91689  12.619  32.992  14.460
23217W        W91690  36.569  29.439  12.017
23218W        W91691  22.625  16.109   3.716
23219W        W91692  25.621  12.239  10.901
23220W        W91693  12.736  26.069  12.466
23221W        W91694  22.107  32.633   1.911
23222W        W91695  27.555  41.799  11.516
23223W        W91696  37.845  26.024   4.333
23224W        W91697   2.231  37.913  12.347
23225W        W91698   0.761  43.787   3.311
23226W        W91699  31.437  31.564  12.433
23227W        W91700   6.736  28.127  11.532
23228W        W91701   8.699  29.447   3.824
23229W        W91702  18.617  38.524   2.296
23230W        W91703  42.873  12.828   0.911
23231W        W91704  11.168  21.722  11.431
23232W        W91705  39.440   4.285  13.833
23233W        W91706  36.046  39.380  12.847
23234W        W91707   7.768  24.633   3.838
23235W        W91708   0.852  26.063   3.801
23236W        W91709  20.144  17.663  14.810
23237W        W91710  22.649  28.057   0.956
23238W        W91711  39.375   1.465  14.361
23239W        W91712  19.603   9.811  11.608
23240W        W91713  35.085  26.076   0.282
23241W        W91714  30.587   6.331  12.558
23242W        W91715   0.746   7.834  14.502
23243W        W91716   7.292  15.310   0.361
23244W        W91717  22.659  23.665  14.785
23245W        W91718  35.894   2.835  11.426
23246W        W91719  16.189  26.138  10.912
23247W        W91720  35.022  36.559   0.387
23248W        W91721  30.042   6.321   2.262
23249W        W91722  38.552  24.050  10.469
23250W        W91723   3.719  27.113   0.475
23251W        W91724  30.453  41.036   4.120
23252W        W91725  29.582  22.700   4.200
23253W        W91726  20.619   9.209  10.542
23254W        W91727  42.965  36.015   0.398
23255W        W91728  26.066  36.504  13.314
23256W        W91729  16.265  11.677   1.719
23257W        W91730  26.685  11.150   4.790
23258W        W91731   7.342  41.835  12.349
23259W        W91732  33.988  17.213   1.854
23260W        W91733  16.623  25.573   0.809
23261W        W91734  43.387  12.219  13.412
23262W        W91735  30.135  21.634  13.368
23263W        W91736   5.369  25.593  13.864
23264W        W91737  32.521  36.040  14.936
23265W        W91738  17.274  14.165  11.588
23266W        W91739  18.236  29.136  11.513
23267W        W91740  25.509  12.653  10.108
23268W        W91741  43.896   0.772  10.630
23269W        W91742  12.765  29.487  11.009
23270W        W91743  13.742  23.652  13.385
23271W        W91744  11.352  24.532   3.170
23272W        W91745  37.920   4.925   1.772
23273W        W91746  25.151  29.497  14.345
23274W        W91747  40.517  27.019  11.887
23275W        W91748  27.611  23.134   0.247
23276W        W91749  34.452  23.129   1.393
23277W        W91750   6.314   1.314  12.845
23278W        W91751  21.173  26.483  14.817
23279W        W91752  41.013  26.073   2.687
23280W        W91753  28.996  13.161  13.527
23281W        W91754  31.980  31.906   5.174
23282W        W91755  11.260  35.537   0.839
23283W        W91756  15.681   5.742  12.062
23284W        W91757  40.507  28.109   0.355
23285W        W91758  31.630  35.552   2.404
23286W        W91759  27.070  36.958  13.421
23287W        W91760   5.405  18.295   0.878
23288W        W91761  15.784  44.926  10.629
23289W        W91762  29.958  25.975   4.142
23290W        W91763   3.283  16.724  11.962
23291W        W91764   6.801  39.840   1.243
23292W        W91765  28.483  25.480  12.441
23293W        W91766  42.983   8.874  11.118
23294W        W91767  42.836  14.173   0.361
23295W        W91768  22.181  21.170   0.252
23296W        W91769   1.808  43.836  13.939
23297W        W91770   8.807  21.127  13.343
23298W        W91771  25.137   4.843   4.615
23299W        W91772   5.706  40.926  10.640
23300W        W91773  19.619  11.365   4.737
23301W        W91774  15.211  39.821   9.934
23302W        W91775  44.473   4.381  12.935
23303W        W91776  12.290  16.599   0.762
23304W        W91777   8.297  12.278   3.153
23305W        W91778  34.431  14.313   2.294
23306W        W91779  33.978  24.532   3.629
23307W        W91780   3.792  11.726   4.343
23308W        W91781  20.745  21.048  12.053
23309W        W91782  35.550   3.943   3.686
23310W        W91783  43.018  31.122  13.342
23311W        W91784  42.495  37.354   3.639
23312W        W91785   3.244  37.952  13.988
23313W        W91786  21.145   1.766  11.512
23314W        W91787  38.915   3.327   5.314
23315W        W91788  42.941  41.847  13.896
23316W        W91789  38.992  42.351  11.511
23317W        W91790  24.185  31.052   4.227
23318W        W91791  19.690   2.422  14.385
23319W        W91792  14.662  38.330  11.437
23320W        W91793  16.074  12.695   0.837
23321W        W91794   7.903   1.893   4.118
23322W        W91795  11.242  27.067   3.337
23323W        W91796  16.641  33.409  14.307
23324W        W91797   0.795   0.356   1.739
23325W        W91798  16.583  23.603   4.280
23326W        W91799   8.786  33.900   0.817
23327W        W91800  38.431  18.100   3.725
23328W        W91801  31.050  35.395  14.781
23329W        W91802  22.095  27.943  11.104
23330W        W91803  35.551  41.877  11.372
23331W        W91804  39.350   2.776  12.463
23332W        W91805  29.061  21.122   3.309
23333W        W91806  29.174  33.921   0.395
23334W        W91807  10.333  12.652  11.485
23335W        W91808  32.948  34.415  12.485
23336W        W91809  23.702   0.779   2.817
23337W        W91810  28.596   5.368  13.824
23338W        W91811   3.311  30.954  12.518
23339W        W91812  40.337  38.439   1.436
23340W        W91813  39.323  36.964  13.478
23341W        W91814  40.339  28.981  13.002
23342W        W91815   4.397  16.616  14.286
23343W        W91816   0.908  44.980  12.059
23344W        W91817   5.289  32.044   4.139
23345W        W91818   2.246  30.646  13.423
23346W        W91819  27.147  13.751  14.940
23347W        W91820  44.856  18.208   1.913
23348W        W91821  29.531   3.246   3.759
23349W        W91822  14.608  33.023   4.335
23350W        W91823  12.737  22.209  10.472
23351W        W91824   5.363  20.251  10.634
23352W        W91825  27.578   4.759   3.746
23353W        W91826  41.365  18.785   5.252
23354W        W91827  19.715  24.206   0.967
23355W        W91828  13.334   4.390   4.316
23356W        W91829  35.377   8.723  13.346
23357W        W91830   1.784  27.462  10.491
23358W        W91831  31.029   2.404  14.309
23359W        W91832  34.557  42.421  10.888
23360W        W91833  18.568   2.845   3.179
23361W        W91834  44.780  11.321  12.382
23362W        W91835  32.084  23.498  12.342
23363W        W91836  33.456   6.322   3.736
23364W        W91837  15.756  24.519  12.466
23365W        W91838   6.841   5.930   3.220
23366W        W91839  11.326   5.780  12.932
23367W        W91840  33.401  23.544  12.868
23368W        W91841  23.124  26.639  12.051
23369W        W91842  20.189   4.294  12.871
23370W        W91843   1.830  30.008   1.697
23371W        W91844  24.160  10.719   3.759
23372W        W91845   7.389  20.737   1.906
23373W        W91846  18.220  32.519   0.448
23374W        W91847   7.829   8.670  11.025
23375W        W91848  38.034  37.504  14.397
23376W        W91849  16.784  28.450  12.477
23377W        W91850  20.206  40.408  12.985
23378W        W91851  12.187   2.911  12.484
23379W        W91852   9.795   9.659   2.355
23380W        W91853  21.714  44.844   1.259
23381W        W91854  19.710  35.956  12.853
23382W        W91855  37.945   4.415  11.022
23383W        W91856   4.773  31.467   2.879
23384W        W91857  31.085  41.348   0.938
23385W        W91858  22.593   4.422   4.138
23386W        W91859  10.173  14.169   4.165
23387W        W91860  42.031  22.505   2.789
23388W        W91861   2.872  27.598   1.927
23389W        W91862  40.889  42.859  14.334
23390W        W91863  31.119  27.662  14.960
23391W        W91864  40.537  27.033   2.357
23392W        W91865  11.771  29.963   4.660
23393W        W91866  32.458   5.882  13.937
23394W        W91867  17.171  22.579   2.728
23395W        W91868  38.076  25.104  10.468
23396W        W91869  17.269  24.615   2.190
23397W        W91870  16.126  31.508  12.087
23398W        W91871  29.455  16.624  12.899
23399W        W91872  29.061  27.553  14.274
23400W        W91873  25.085   8.163   0.931
23401W        W91874  24.724  19.214  12.537
23402W        W91875  15.276   5.241   4.688
23403W        W91876  40.480  36.993  14.021
23404W        W91877  30.075   8.403   0.938
23405W        W91878   6.252  35.578   3.363
23406W        W91879   4.242  33.930  14.414
23407W        W91880  32.935  40.413   4.731
23408W        W91881  21.754  25.524   3.823
23409W        W91882   9.656  28.550  10.893
23410W        W91883  12.671  16.688  14.997
23411W        W91884  16.651  27.114   3.264
23412W        W91885  37.938  41.485  11.561
23413W        W91886  26.988  10.275  13.950
23414W        W91887   9.796  43.417   0.412
23415W        W91888  19.208  28.047  13.535
23416W        W91889  15.749  14.831   4.653
23417W        W91890  29.953  18.210  13.478
23418W        W91891  39.917  20.185  14.907
23419W        W91892   9.187  40.501   4.268
23420W        W91893  32.973   5.393  12.520
23421W        W91894   7.742  26.575  11.458
23422W        W91895   9.349  13.661  10.577
23423W        W91896  37.489  18.686  10.450
23424W        W91897   8.372  20.212   2.689
23425W        W91898  37.417   8.707  11.085
23426W        W91899  39.994   1.326   2.781
23427W        W91900  44.921  31.447  13.387
23428W        W91901   4.437   2.301   2.868
23429W        W91902  12.789  15.730  13.487
23430W        W91903  28.561   6.297   4.172
23431W        W91904  41.473  42.329   4.731
23432W        W91905  40.513  26.154  11.077
23433W        W91906   8.289   1.783  12.499
23434W        W91907  10.366   1.426  10.644
23435W        W91908   3.727  35.372   3.195
23436W        W91909  11.298  10.645   0.446
23437W        W91910   2.285  23.172   4.703
23438W        W91911  30.608  21.574   3.191
23439W        W91912   3.412  36.962  11.967
23440W        W91913  39.554  26.997   4.735
23441W        W91914  28.087  38.424  14.870
23442W        W91915  35.882   5.255  12.062
23443W        W91916  21.746   4.419   0.347
23444W        W91917  32.076  20.153  14.337
23445W        W91918  25.668   3.886   3.846
23446W        W91919  17.172   5.843  10.409
23447W        W91920  22.080  39.532   1.266
23448W        W91921  35.543  10.676  10.555
23449W        W91922  29.981   6.715   2.770
23450W        W91923   0.799   6.246   3.653
23451W        W91924   0.273  26.173   0.937
23452W        W91925  40.849  14.225  14.863
23453W        W91926  22.040  24.633   9.574
23454W        W91927  25.049  33.620   0.340
23455W        W91928  21.140  33.948  14.769
23456W        W91929  19.537   0.888  13.062
23457W        W91930  17.615  38.567  12.540
23458W        W91931  12.714  34.589   4.209
23459W        W91932  44.299  19.221  12.839
23460W        W91933   6.888  42.498   0.366
23461W        W91934  37.407  13.317  11.448
23462W        W91935  21.207  27.989  10.016
23463W        W91936  16.574  38.954  10.627
23464W        W91937  14.193  36.993  12.896
23465W        W91938  23.025  32.136  12.556
23466W        W91939   8.166  20.685   4.761
23467W        W91940  41.013  18.585  13.332
23468W        W91941  39.417  12.816   3.300
23469W        W91942  20.584   9.781   4.686
23470W        W91943   0.867   6.882  11.538
23471W        W91944  33.937  22.520   1.402
23472W        W91945  31.028  18.163   9.942
23473W        W91946  29.058  43.768  14.995
23474W        W91947  21.541  25.664   2.834
23475W        W91948  26.187  21.619   1.393
23476W        W91949  30.956  25.154  13.512
23477W        W91950  20.525  41.455  10.901
23478W        W91951  41.942  38.445   0.388
23479W        W91952  11.799  40.054   4.756
23480W        W91953  21.758  32.904   2.285
23481W        W91954  12.645  26.549  14.894
23482W        W91955  15.669  28.659   4.820
23483W        W91956   2.903  36.073  10.430
23484W        W91957  31.464  25.108   4.760
23485W        W91958   6.680  33.464  10.520
23486W        W91959  27.549  31.954   0.962
23487W        W91960  38.970  33.530   4.257
23488W        W91961  44.311   8.180  14.973
23489W        W91962   0.401  35.030   4.268
23490W        W91963   6.762  25.197  11.105
23491W        W91964  33.915  38.841  14.487
23492W        W91965  14.806  42.929  13.483
23493W        W91966  36.502  41.455   1.390
23494W        W91967  42.930  24.603   4.330
23495W        W91968  12.829   6.307  13.979
23496W        W91969  29.491  11.141  12.012
23497W        W91970  11.276  32.412  13.813
23498W        W91971  19.047  39.827   2.746
23499W        W91972  43.372  38.035  11.032
23500W        W91973  16.810  33.936  12.033
23501W        W91974  28.680  29.635   3.359
23502W        W91975  24.568  12.722  13.888
23503W        W91976   7.749   4.827   5.103
23504W        W91977  32.046  37.494  11.858
23505W        W91978  44.905  11.658   0.809
23506W        W91979  27.510  42.920   3.718
23507W        W91980   0.263  38.466   3.680
23508W        W91981  21.219   9.715  10.490
23509W        W91982   6.368  43.389   3.282
23510W        W91983  28.617  21.090   2.260
23511W        W91984   5.915  29.494  14.307
23512W        W91985  18.730  18.785  14.391
23513W        W91986  30.614   8.660  14.853
23514W        W91987  35.489  39.062   1.421
23515W        W91988   5.756   5.705  13.866
23516W        W91989  31.961  10.188   5.103
23517W        W91990   7.726   2.328   2.207
23518W        W91991  18.217  25.120   4.289
23519W        W91992  34.458  37.367   4.680
23520W        W91993  42.839   5.296   1.829
23521W        W91994   6.904   0.839  12.967
23522W        W91995  29.941  26.129  12.864
23523W        W91996  12.302   0.884   2.760
23524W        W91997  26.952  17.251  13.015
23525W        W91998  19.779  24.039  12.077
23526W        W91999  31.903  12.184   4.190
23527W        W92000  14.152  38.540   9.644
23528W        W92001   8.251   5.891  14.462
23529W        W92002  37.546   8.763  14.026
23530W        W92003  15.757  38.557  14.945
23531W        W92004  10.322  33.398   5.254
23532W        W92005  13.613   3.349  12.363
23533W        W92006  30.431  25.496  11.544
23534W        W92007   4.841   9.362   1.919
23535W        W92008  31.459  17.077  13.962
23536W        W92009  20.645  14.235   5.095
23537W        W92010  11.859  32.984  10.894
23538W        W92011   5.287  22.701   1.245
23539W        W92012  42.455  29.431   2.214
23540W        W92013   2.250  36.553  11.937
23541W        W92014  26.090   0.424   5.262
23542W        W92015  35.995   0.482  14.872
23543W        W92016  40.827  31.464  12.382
23544W        W92017   2.362  40.978   0.353
23545W        W92018  18.130  43.453  12.526
23546W        W92019  41.997   2.351   0.906
23547W        W92020  40.372  42.913  14.390
23548W        W92021  38.838  26.036   2.816
23549W        W92022  15.139  27.611   4.206
23550W        W92023  17.607  38.424   4.828
23551W        W92024   7.205  40.924   3.761
23552W        W92025  40.977  10.824  13.956
23553W        W92026  20.273  31.520   2.822
23554W        W92027  10.192  23.101   5.715
23555W        W92028  31.478   0.393  13.033
23556W        W92029  29.670  15.748   5.100
23557W        W92030   8.770  10.338   4.134
23558W        W92031  10.331  41.884   3.339
23559W        W92032  44.970  16.185   1.849
23560W        W92033   9.233  28.517  14.414
23561W        W92034   5.252  15.303   3.384
23562W        W92035  26.491  26.607   4.656
23563W        W92036  28.612  10.666  14.516
23564W        W92037  10.772  36.398  12.577
23565W        W92038  20.660  32.027   2.849
23566W        W92039  30.507  28.175   4.651
23567W        W92040   5.332  39.952  13.854
23568W        W92041  44.388  23.987   4.650
23569W        W92042   9.706  41.797   0.410
23570W        W92043  42.414  13.334  11.582
23571W        W92044  42.443   4.401   4.257
23572W        W92045   1.371  21.680  13.532
23573W        W92046   8.217  34.929  14.943
23574W        W92047  31.978  40.808   5.260
23575W        W92048  12.705  25.066  12.894
23576W        W92049  19.630  15.731  14.496
23577W        W92050   6.753  25.601   2.735
23578W        W92051  23.025  34.393  13.051
23579W        W92052  44.911   9.760  14.813
23580W        W92053  29.479   7.403   5.273
23581W        W92054   4.944   5.295   9.993
23582W        W92055  10.655  17.223  11.014
23583W        W92056  31.492  43.810  14.454
23584W        W92057  27.176  33.973  14.872
23585W        W92058  13.780  32.635  11.493
23586W        W92059  18.732   7.239  11.991
23587W        W92060  37.438  30.418  11.448
23588W        W92061  27.539  25.587   1.781
23589W        W92062  21.168   1.386  14.366
23590W        W92063  26.573  27.139   0.809
23591W        W92064  23.233  15.686   5.220
23592W        W92065  37.046  33.471  11.078
23593W        W92066  13.252  37.556  12.095
23594W        W92067   8.302  24.084  14.433
23595W        W92068  39.346  28.680   1.440
23596W        W92069   9.780  33.009  14.420
23597W        W92070  14.775  16.158   4.126
23598W        W92071   4.793  26.117   4.138
23599W        W92072  19.660   9.852  11.921
23600W        W92073  30.017  36.872  10.560
23601W        W92074  17.154  27.997   0.471
23602W        W92075   8.368   8.238  12.425
23603W        W92076   4.275  23.612  13.864
23604W        W92077   7.741   5.777   1.291
23605W        W92078  31.081  15.705  12.021
23606W        W92079  34.927  28.677   1.270
23607W        W92080  13.118  36.499  11.949
23608W        W92081  13.690   6.780  13.343
23609W        W92082  22.617   7.667   2.783
23610W        W92083   5.934  12.822  10.595
23611W        W92084  30.110   1.940   2.748
23612W        W92085  41.388  19.664  11.015
23613W        W92086  28.020  32.930   3.838
23614W        W92087  10.167  14.658   0.393
23615W        W92088   0.311   9.202   3.380
23616W        W92089  27.651   2.928  14.865
23617W        W92090  40.008  26.546  13.872
23618W        W92091  42.438  26.092   3.670
23619W        W92092  41.449   0.784   4.687
23620W        W92093  31.054  25.126  14.327
23621W        W92094  26.960  20.635   2.819
23622W        W92095  40.510  16.627   4.235
23623W        W92096  32.468  24.718  14.455
23624W        W92097  28.019  14.594   2.386
23625W        W92098  40.536   3.777   4.236
23626W        W92099  40.348  24.977   3.651
23627W        W92100  33.395  38.840   2.733
23628W        W92101  23.607   9.316   3.167
23629W        W92102  14.123   8.817   1.925
23630W        W92103  44.354   4.447  12.552
23631W        W92104   1.270   0.962   2.716
23632W        W92105  34.956  21.100   4.738
23633W        W92106   7.896  28.663   2.838
23634W        W92107  20.686  23.024   0.762
23635W        W92108   7.835  43.378   0.857
23636W        W92109   2.254   1.784   0.756
23637W        W92110  21.232  22.671  10.965
23638W        W92111  17.261  17.277   1.380
23639W        W92112  10.799  12.237  10.559
23640W        W92113   0.279  33.476  14.277
23641W        W92114  30.579  37.863   3.351
23642W        W92115  16.777  41.012   2.217
23643W        W92116   3.367   7.285  14.375
23644W        W92117  44.807   6.840   3.679
23645W        W92118  15.097  33.477  12.537
23646W        W92119  12.170  31.443   2.348
23647W        W92120   6.418  41.931  13.354
23648W        W92121  20.687  36.488  14.826
23649W        W92122  37.006   2.958  11.120
23650W        W92123  20.674  36.360  13.820
23651W        W92124   0.388  35.949   4.154
23652W        W92125  38.384   8.284  12.554
23653W        W92126  40.011  18.274  10.546
23654W        W92127  16.611  40.337   9.961
23655W        W92128   5.719  24.222  11.959
23656W        W92129   9.668  22.081  12.405
23657W        W92130   0.804  13.191  11.078
23658W        W92131  24.026  25.147   5.285
23659W        W92132   5.226  29.932   1.915
23660W        W92133  11.218   1.892  13.318
23661W        W92134  10.242  29.668  11.397
23662W        W92135   7.912  33.105  14.884
23663W        W92136  27.136  19.263   0.451
23664W        W92137  36.486  30.933   1.420
23665W        W92138  41.810  37.383   3.318
23666W        W92139  38.900   5.232   1.342
23667W        W92140   3.784  36.963   0.825
23668W        W92141  20.638  17.235  12.864
23669W        W92142  38.513  17.638  11.877
23670W        W92143   2.902   5.820  11.898
23671W        W92144  15.683  33.597  14.876
23672W        W92145  27.589  20.577   2.410
23673W        W92146  15.719  14.618   0.899
23674W        W92147  19.189  37.838  12.407
23675W        W92148  18.638   8.179   4.309
23676W        W92149   7.837  31.545   3.305
23677W        W92150   9.862  40.480  14.900
23678W        W92151  26.507  36.398   3.705
23679W        W92152  38.559  34.508   2.262
23680W        W92153  35.604   7.258   1.874
23681W        W92154   5.908  39.816  12.377
23682W        W92155  23.140  35.484   1.421
23683W        W92156  17.779  44.002   2.693
23684W        W92157  36.925   0.815   2.219
23685W        W92158  17.138  31.419   1.374
23686W        W92159   1.277  44.795  13.027
23687W        W92160  41.396   2.900   3.705
23688W        W92161  19.721  17.262  13.370
23689W        W92162   8.180   0.838  11.018
23690W        W92163  22.731   0.862   4.248
23691W        W92164  33.080   3.722   1.350
23692W        W92165   8.373  33.907  12.536
23693W        W92166   1.914   9.759  13.464
23694W        W92167  20.537  43.407   2.387
23695W        W92168  13.660  16.776  14.476
23696W        W92169  35.890  15.623   1.401
23697W        W92170  24.705  31.645  12.341
23698W        W92171  30.430   3.918   1.724
23699W        W92172  13.288  22.115  13.897
23700W        W92173  15.814  21.561   2.294
23701W        W92174   5.359  29.534  12.068
23702W        W92175   7.756   7.208   0.797
23703W        W92176  43.484   8.260   3.374
23704W        W92177   6.392   4.945  13.892
23705W        W92178  26.128  32.904   1.447
23706W        W92179  20.600  14.102   3.738
23707W        W92180  35.560  31.523  13.434
23708W        W92181  43.889  37.500   4.686
23709W        W92182   0.252   5.697  10.959
23710W        W92183  34.037   0.304   1.760
23711W        W92184   9.257  39.555   3.187
23712W        W92185  28.627  18.184   0.760
23713W        W92186   3.898  13.250  11.078
23714W        W92187  44.352  24.526   4.789
23715W        W92188  14.791  34.512  11.994
23716W        W92189  11.695  38.915  14.903
23717W        W92190  42.447   1.768  12.053
23718W        W92191  41.432  24.490  14.917
23719W        W92192   6.840  30.559   0.925
23720W        W92193  36.017  10.378   4.807
23721W        W92194  27.194  12.787   2.762
23722W        W92195  38.409   4.381   0.762
23723W        W92196  26.699  10.791   3.702
23724W        W92197   3.417  41.377  14.511
23725W        W92198  41.004  10.712   0.950
23726W        W92199   0.865  29.127   0.337
23727W        W92200  34.917  36.587  13.948
23728W        W92201  44.911  28.535  14.032
23729W        W92202   6.739   2.805  11.497
23730W        W92203  33.393  15.768  12.402
23731W        W92204  18.758  36.409  12.985
23732W        W92205  25.177   4.795  14.512
23733W        W92206  25.175  31.451  13.018
23734W        W92207  27.567  37.346  10.898
23735W        W92208  36.902  24.090  10.939
23736W        W92209   8.725  19.621   3.659
23737W        W92210  40.988  27.031   0.296
23738W        W92211   8.708  39.498  13.869
23739W        W92212  43.822  12.628   3.271
23740W        W92213   3.774  21.581  14.452
23741W        W92214  24.009  23.704  14.375
23742W        W92215  40.017  26.467  13.420
23743W        W92216  19.547   5.236   4.707
23744W        W92217  27.968  20.104  12.388
23745W        W92218  10.803  39.390   3.180
23746W        W92219   6.380   4.251   3.332
23747W        W92220   6.898   5.408   0.957
23748W        W92221   8.240   8.896   4.273
23749W        W92222  34.519   5.840  14.411
23750W        W92223  23.044   3.347  10.563
23751W        W92224  25.555   5.398   1.846
23752W        W92225  38.901  30.024   0.310
23753W        W92226  29.473  33.985   1.899
23754W        W92227   7.766  19.087   3.281
23755W        W92228  20.068  40.329   1.899
23756W        W92229  15.236   1.313   0.758
23757W        W92230  32.976  29.071   1.861
23758W        W92231  25.150   5.400  10.465
23759W        W92232  19.681  18.693  13.902
23760W        W92233   0.828  31.903   2.269
23761W        W92234  31.897   7.728   1.875
23762W        W92235   9.695  31.064   1.295
23763W        W92236  34.950  32.905  11.423
23764W        W92237  38.999  14.227  12.444
23765W        W92238  44.755  12.309  14.445
23766W        W92239  39.834   7.237  11.980
23767W        W92240   7.313  23.002   2.719
23768W        W92241  16.599  14.796   4.741
23769W        W92242  42.354  14.188   0.960
23770W        W92243  37.060  23.599   1.434
23771W        W92244   2.288  43.460  14.513
23772W        W92245  40.354  19.225  14.470
23773W        W92246  44.376  24.162   4.210
23774W        W92247   6.855   1.896   2.867
23775W        W92248  24.170   0.435   2.288
23776W        W92249  14.834  43.961  14.487
23777W        W92250   6.792  14.200  13.530
23778W        W92251  34.431  10.693   0.406
23779W        W92252  39.541  11.362  12.471
23780W        W92253  16.578  23.724   2.404
23781W        W92254  19.283  42.494   0.914
23782W        W92255  28.055  40.858   1.813
23783W        W92256   1.801  10.866   3.796
23784W        W92257  31.557  12.786  12.549
23785W        W92258   9.338  10.335   2.688
23786W        W92259  42.779  24.635  13.461
23787W        W92260  33.108  43.448   3.775
23788W        W92261   6.216   7.346  13.536
23789W        W92262  18.071  21.565   3.154
23790W        W92263  29.502   0.809  12.372
23791W        W92264  29.158  31.484  11.394
23792W        W92265   1.430  14.662  12.488
23793W        W92266  44.273  37.414   0.842
23794W        W92267  41.827  16.245  13.903
23795W        W92268  41.320  15.286  12.453
23796W        W92269   1.411  20.264  12.523
23797W        W92270  44.478  24.980   1.388
23798W        W92271  17.682  17.620   4.320
23799W        W92272  41.476  41.399   2.394
23800W        W92273  43.785  10.732   3.266
23801W        W92274  42.295  11.696   3.241
23802W        W92275  23.520  30.615   4.135
23803W        W92276   4.420   0.858   4.296
23804W        W92277  34.029  44.935  12.458
23805W        W92278  24.106  41.816   4.613
23806W        W92279  23.058   2.937   4.745
23807W        W92280  36.476  36.926  14.278
23808W        W92281  15.579  25.094  10.581
23809W        W92282  24.562   7.901   2.840
23810W        W92283  28.951  11.191  14.806
23811W        W92284  43.490  29.098   0.464
23812W        W92285   5.709  40.055   3.385
23813W        W92286  37.900  35.526  11.396
23814W        W92287  41.355  20.686   1.401
23815W        W92288  21.046  29.155  14.974
23816W        W92289  19.202  26.198   2.678
23817W        W92290  31.585   8.710   3.232
23818W        W92291   0.465  42.485  11.413
23819W        W92292  13.268  41.025  12.472
23820W        W92293  18.147  17.645   1.713
23821W        W92294   0.859   8.677  10.004
23822W        W92295  37.907  14.331   5.295
23823W        W92296  39.811  30.111  14.926
23824W        W92297  25.569  26.575   1.846
23825W        W92298  44.776   5.801  11.858
23826W        W92299   1.790  33.952   2.280
23827W        W92300  19.762   8.779   1.841
23828W        W92301  15.646  29.651  10.986
23829W        W92302  31.056  36.841   1.760
23830W        W92303  16.722  35.517   4.272
23831W        W92304   8.338  34.559  13.036
23832W        W92305  35.468  30.583  14.018
23833W        W92306  24.035  10.684   4.190
23834W        W92307   7.850  41.933   2.365
23835W        W92308  31.446  25.072   2.746
23836W        W92309  20.251  16.269  10.636
23837W        W92310  25.484  10.303   4.732
23838W        W92311   6.417   7.820   4.713
23839W        W92312  39.873  34.936  10.900
23840W        W92313   8.699  31.453  14.833
23841W        W92314  32.083  11.182  10.975
23842W        W92315  14.313  26.190  13.866
23843W        W92316   8.700  10.745  14.354
23844W        W92317   1.963  19.696   2.803
23845W        W92318   9.858  14.753   4.601
23846W        W92319  42.999  37.960  14.481
23847W        W92320  10.239  18.669   0.340
23848W        W92321   9.225  40.538   3.190
23849W        W92322   2.747  33.883   4.195
23850W        W92323  27.653  24.025  11.025
23851W        W92324  20.728  37.484  10.943
23852W        W92325  17.659  25.696   1.824
23853W        W92326  37.350  15.628  13.407
23854W        W92327  31.550  25.518   3.164
23855W        W92328   1.842  19.042   3.788
23856W        W92329  41.973  15.598   0.967
23857W        W92330  18.134   5.847  13.437
23858W        W92331   3.235   0.791   4.164
23859W        W92332  22.049  31.454  10.445
23860W        W92333  14.614  32.951   2.760
23861W        W92334  16.251  20.593  12.892
23862W        W92335  37.996  32.437   0.965
23863W        W92336  42.848  23.492  11.905
23864W        W92337   9.183   9.223   4.259
23865W        W92338  37.069  26.703  13.006
23866W        W92339  31.443  38.020   1.252
23867W        W92340  40.361  27.102  13.054
23868W        W92341  19.749  22.099   1.326
23869W        W92342   1.742  16.767  13.896
23870W        W92343   3.290  36.051  12.981
23871W        W92344  44.264  25.050   0.776
23872W        W92345   3.318   6.809   0.838
23873W        W92346  31.445  25.966   3.630
23874W        W92347  33.617  18.060   4.353
23875W        W92348   5.282   4.887  10.137
23876W        W92349  14.248  24.602  10.892
23877W        W92350  32.984  24.105   4.226
23878W        W92351  15.212   8.783  12.918
23879W        W92352   4.843   9.388   1.449
23880W        W92353  22.716  44.754   1.281
23881W        W92354  13.287  23.093  12.361
23882W        W92355  27.185  36.893  14.308
23883W        W92356  21.017  37.856   1.444
23884W        W92357  28.446  38.912   0.775
23885W        W92358  32.042  14.624  12.375
23886W        W92359   1.311   0.346  12.412
23887W        W92360   5.322  37.355  13.461
23888W        W92361   0.292  39.433  12.057
23889W        W92362  39.839  38.438  10.592
23890W        W92363  42.867  24.012  11.380
23891W        W92364   2.457  18.193   3.310
23892W        W92365  29.935  22.612  13.790
23893W        W92366  22.661  29.587  11.101
23894W        W92367  25.475  17.293   0.731
23895W        W92368  22.033   9.350  14.472
23896W        W92369  31.097   2.951  14.811
23897W        W92370  26.624  30.031  11.557
23898W        W92371  19.605  18.613  14.453
23899W        W92372  22.094   1.360  13.819
23900W        W92373  40.877  23.698   4.185
23901W        W92374  29.120  11.288   3.646
23902W        W92375   4.831   6.373   5.157
23903W        W92376  14.215   0.806   4.206
23904W        W92377  17.165   4.378   4.692
23905W        W92378  14.592   0.951  12.406
23906W        W92379  21.670  38.475  12.439
23907W        W92380  11.655  36.952  11.518
23908W        W92381  25.643  14.324   2.799
23909W        W92382   9.813   8.799   4.613
23910W        W92383  15.327   6.849   4.837
23911W        W92384  27.075  37.062   0.828
23912W        W92385  11.253   9.392   2.262
23913W        W92386  10.246   3.349  12.465
23914W        W92387  43.359   0.486  11.503
23915W        W92388  38.980  13.643  13.338
23916W        W92389  44.000  18.294  11.546
23917W        W92390  37.983  12.132   2.843
23918W        W92391   6.349  32.610   2.743
23919W        W92392  31.061  17.132  11.430
23920W        W92393  11.216  14.123   2.814
23921W        W92394  41.311  15.270  12.079
23922W        W92395  25.644   3.764  12.370
23923W        W92396  17.717   5.726   1.915
23924W        W92397  15.593   0.338  10.431
23925W        W92398  16.721  39.938   5.626
23926W        W92399  17.074   2.313   3.380
23927W        W92400  41.021   7.901  14.397
23928W        W92401  17.611  40.443  10.484
23929W        W92402  35.927   8.859  12.844
23930W        W92403  42.446  41.400   3.808
23931W        W92404   2.806  31.030   3.173
23932W        W92405  18.152  18.550  14.482
23933W        W92406  36.900  25.998  11.074
23934W        W92407  28.961   7.860  12.051
23935W        W92408  12.836  17.612   4.684
23936W        W92409   9.837  27.514  12.883
23937W        W92410  16.117  33.008   4.217
23938W        W92411  20.259  33.954   4.178
23939W        W92412   5.789   1.293  11.087
23940W        W92413  14.783   5.798   4.246
23941W        W92414  20.727  13.721  10.892
23942W        W92415  35.074  32.987   1.327
23943W        W92416  44.864  37.981  10.572
23944W        W92417  27.498   7.810  14.775
23945W        W92418  20.636  33.071  14.835
23946W        W92419   7.858  21.251  11.591
23947W        W92420  22.590  23.173   4.836
23948W        W92421  26.654  30.473   1.424
23949W        W92422   5.235  31.972  12.997
23950W        W92423   0.442  21.224  11.021
23951W        W92424  25.673  12.658   0.482
23952W        W92425  41.480  34.607   4.620
23953W        W92426  38.345  12.852   0.477
23954W        W92427  42.455  22.009  12.536
23955W        W92428   7.398  39.896  14.433
23956W        W92429  16.627  41.530   0.939
23957W        W92430  24.632  34.484  13.979
23958W        W92431  25.964   5.907   1.808
23959W        W92432  20.147  11.710  11.484
23960W        W92433  11.169  38.021   4.352
23961W        W92434  21.018  18.653  11.611
23962W        W92435   7.888  24.703   4.772
23963W        W92436  13.308  26.574   1.295
23964W        W92437  23.503  19.565  11.551
23965W        W92438  13.613   7.676  13.545
23966W        W92439   5.345  23.159  14.928
23967W        W92440   4.776  42.797   4.169
23968W        W92441  31.101  25.591  10.127
23969W        W92442  23.148  40.990   2.703
23970W        W92443  42.795  34.577   1.857
23971W        W92444  39.406  16.663   2.776
23972W        W92445  17.653   2.816   0.438
23973W        W92446  39.055  40.373   1.862
23974W        W92447  19.239  17.693   4.783
23975W        W92448   3.417  11.363   3.363
23976W        W92449  17.291   9.748  14.483
23977W        W92450  32.536   1.483   1.421
23978W        W92451  18.777  39.060  12.407
23979W        W92452   4.798  39.998  11.070
23980W        W92453  37.963  28.646  14.021
23981W        W92454  24.708  23.152  12.501
23982W        W92455  30.024  13.236   4.181
23983W        W92456   9.312   3.809  13.526
23984W        W92457  39.417  20.189   1.279
23985W        W92458  29.955  43.956   4.829
23986W        W92459   9.849   4.725  12.419
23987W        W92460  13.164  20.092  13.919
23988W        W92461  24.012  13.633  11.490
23989W        W92462   5.833  43.950  10.464
23990W        W92463  32.886  33.380  12.045
23991W        W92464  37.492   6.293   0.908
23992W        W92465  32.434  17.698   2.399
23993W        W92466  16.740   8.311  10.513
23994W        W92467  26.611  42.957  11.073
23995W        W92468  17.683  37.936   2.297
23996W        W92469  22.046   8.720   0.254
23997W        W92470  32.087   3.456   1.442
23998W        W92471  41.901  23.082   1.749
23999W        W92472  21.035  44.453   0.921
24000W        W92473  10.765  25.688  12.494
24001W        W92474  40.818   5.696   0.271
24002W        W92475  40.467  29.549   1.730
24003W        W92476   0.771  26.137  11.542
24004W        W92477  11.198  11.776   2.306
24005W        W92478  10.185  43.443  12.973
24006W        W92479  11.862   2.799  13.531
24007W        W92480  19.707  31.629   3.170
24008W        W92481  18.616  29.039   2.709
24009W        W92482  37.579  25.059  11.608
24010W        W92483  34.036  41.518  12.029
24011W        W92484  14.796   9.819   0.771
24012W        W92485  19.041   1.772   2.784
24013W        W92486   1.795   0.263   0.350
24014W        W92487  37.442  36.035  12.893
24015W        W92488  31.960  39.990  13.489
24016W        W92489  36.470  40.888  12.077
24017W        W92490  10.354  32.024   4.811
24018W        W92491   7.215  12.356   0.416
24019W        W92492  20.133   9.698   1.250
24020W        W92493  20.093  26.673   1.435
24021W        W92494  32.915  26.009   3.780
24022W        W92495  44.872  28.566   3.202
24023W        W92496  38.887  14.207   1.260
24024W        W92497  37.980  26.069  12.492
24025W        W92498   8.192  33.959  14.370
24026W        W92499  34.959  25.603  12.022
24027W        W92500   4.717   6.777  12.083
24028W        W92501  28.060  36.413   3.751
24029W        W92502  29.650  13.822  10.474
24030W        W92503  36.400   2.881   2.296
24031W        W92504   2.314   2.942  10.404
24032W        W92505  25.107  29.104  14.276
24033W        W92506   1.439  40.487  12.080
24034W        W92507   3.934  30.471   4.328
24035W        W92508   9.249  16.127   4.705
24036W        W92509  22.219   7.701   4.614
24037W        W92510  34.085  13.736   0.287
24038W        W92511  29.161  26.608   1.321
24039W        W92512  39.887  31.019   2.416
24040W        W92513  43.945  31.133   3.368
24041W        W92514   9.262  31.921   3.314
24042W        W92515   3.874  35.423   2.694
24043W        W92516  29.929  26.619   5.235
24044W        W92517  27.539  19.139  14.003
24045W        W92518  35.577  23.572   4.298
24046W        W92519  27.100  28.580  14.320
24047W        W92520  44.906   3.447  10.606
24048W        W92521  25.118   4.211   2.228
24049W        W92522  22.609  23.118   1.809
24050W        W92523  21.613  29.055   4.667
24051W        W92524  43.006  27.452  10.954
24052W        W92525  27.646  41.988  10.984
24053W        W92526  32.893  39.842  10.535
24054W        W92527  18.187  42.312   1.280
24055W        W92528  37.849  41.473   2.409
24056W        W92529  14.151  15.823   4.727
24057W        W92530  36.961  28.079   0.309
24058W        W92531  33.548  28.473  12.866
24059W        W92532  24.719   3.279  12.924
24060W        W92533  41.855  35.971   1.765
24061W        W92534   9.367   3.940   4.314
24062W        W92535   6.193   9.727   4.698
24063W        W92536  20.662  14.135  10.640
24064W        W92537  29.100  31.626  14.791
24065W        W92538  32.514  38.009  12.431
24066W        W92539  41.873  16.170  14.308
24067W        W92540   4.382  38.833   4.330
24068W        W92541  21.245   7.694  13.844
24069W        W92542   3.922  18.674  12.987
24070W        W92543  20.273  29.522  13.792
24071W        W92544  10.663  31.448  12.993
24072W        W92545  13.649  22.681  12.477
24073W        W92546  19.581   3.719   2.355
24074W        W92547   4.221  43.361  11.902
24075W        W92548  36.354  23.550  14.382
24076W        W92549   7.223  31.076   1.323
24077W        W92550  20.109  35.944  11.543
24078W        W92551  29.954  10.175  12.849
24079W        W92552  36.505  29.040   4.775
24080W        W92553  14.248  23.213   4.638
24081W        W92554  32.460  17.779   0.761
24082W        W92555   5.429  29.605   4.212
24083W        W92556  43.988  23.704  13.999
24084W        W92557  27.143  26.060   1.424
24085W        W92558  18.573  24.066  11.575
24086W        W92559  29.454   5.758  14.331
24087W        W92560  19.767  11.846  13.904
24088W        W92561  27.029  27.512  13.489
24089W        W92562  31.619  27.945   3.161
24090W        W92563  38.377  34.883  13.371
24091W        W92564  10.307  25.545  10.075
24092W        W92565   3.718  41.956  14.405
24093W        W92566  25.094  29.534  12.556
24094W        W92567  42.502  37.035  10.614
24095W        W92568  40.815  43.774   0.964
24096W        W92569  38.960  10.206   4.614
24097W        W92570  32.079  30.600   3.775
24098W        W92571  43.013  20.608   3.762
24099W        W92572  44.351  22.185  13.484
24100W        W92573  39.528  22.093   4.160
24101W        W92574  35.906  18.231  13.881
24102W        W92575   4.402   3.876  12.853
24103W        W92576  18.555  14.255  14.877
24104W        W92577  13.222  20.585  11.868
24105W        W92578  25.474  31.927  10.602
24106W        W92579  17.162  15.756   2.227
24107W        W92580  38.952   9.809  12.038
24108W        W92581  26.601  24.646   4.197
24109W        W92582  28.613  31.512  13.980
24110W        W92583  39.477  39.062  13.932
24111W        W92584  21.191  29.564  14.324
24112W        W92585  15.269   4.866   3.387
24113W        W92586  13.788   9.669  12.824
24114W        W92587  22.661  34.079   4.122
24115W        W92588  13.735   7.818  12.973
24116W        W92589  14.284  16.218   2.232
24117W        W92590  29.582  23.707  12.430
24118W        W92591  43.920  35.984  11.989
24119W        W92592  29.550  25.104  10.421
24120W        W92593   7.315  26.176  14.785
24121W        W92594  26.653   7.764  11.973
24122W        W92595   4.926   1.368  11.532
24123W        W92596   1.406  15.696  10.474
24124W        W92597  20.040   3.368   3.204
24125W        W92598  23.652  43.910   0.270
24126W        W92599  39.968  18.643   2.816
24127W        W92600   6.216  31.119   1.372
24128W        W92601  42.785  31.122   2.336
24129W        W92602  43.797   1.352  14.792
24130W        W92603  26.668  14.275  10.413
24131W        W92604  44.847  13.756   3.226
24132W        W92605   5.871   1.311   4.805
24133W        W92606  20.659  21.031   3.639
24134W        W92607   8.896  30.586   0.947
24135W        W92608  10.268  34.118   1.817
24136W        W92609  34.397  13.700  11.555
24137W        W92610  32.104  37.078  13.473
24138W        W92611  17.699  12.764  12.499
24139W        W92612  14.098  27.666   2.199
24140W        W92613  42.506  11.762   4.175
24141W        W92614  22.225   2.866   2.830
24142W        W92615  27.639  39.847   0.810
24143W        W92616  25.506  35.990  10.463
24144W        W92617  44.481  23.651  11.415
24145W        W92618  42.341  37.433  11.473
24146W        W92619  18.662  25.546  13.364
24147W        W92620  13.791  12.219   3.202
24148W        W92621  43.974  11.773  14.510
24149W        W92622   3.947  17.739  12.882
24150W        W92623   0.799  33.921  14.770
24151W        W92624  26.173  43.404  13.472
24152W        W92625   7.834   0.289  12.859
24153W        W92626  41.328  24.072  14.899
24154W        W92627   3.787  11.637  13.937
24155W        W92628   0.943  19.228   1.908
24156W        W92629  11.216  39.006  13.032
24157W        W92630   8.163  32.078   4.136
24158W        W92631  16.157   0.357  14.780
24159W        W92632  40.929  21.229   4.355
24160W        W92633  21.752  12.700  10.061
24161W        W92634  23.082   5.752   2.681
24162W        W92635   8.232  42.499  13.981
24163W        W92636  42.505  32.431  12.437
24164W        W92637  29.560   1.268   2.353
24165W        W92638  35.558   3.794  14.433
24166W        W92639  21.071  41.879   2.743
24167W        W92640  15.692   2.282  13.465
24168W        W92641  13.811  16.095   0.837
24169W        W92642  23.622   1.805  12.064
24170W        W92643  41.013  30.451  13.980
24171W        W92644  39.477  33.568  14.973
24172W        W92645   6.384  18.090  12.460
24173W        W92646  11.268  31.035   4.723
24174W        W92647  18.168   8.296  12.031
24175W        W92648  36.887  44.504   2.271
24176W        W92649  36.040   0.943  14.965
24177W        W92650   7.881  30.421  11.987
24178W        W92651  18.599  11.138   1.879
24179W        W92652   2.746  16.105   0.307
24180W        W92653  29.969   6.300  12.434
24181W        W92654  37.377  32.405  12.989
24182W        W92655  33.613  14.108  14.843
24183W        W92656   8.246  25.521   2.756
24184W        W92657  40.350  30.501  13.968
24185W        W92658  26.103   4.272   4.713
24186W        W92659  16.624  30.534   3.654
24187W        W92660  32.021  37.434  10.431
24188W        W92661  23.147  13.616  14.413
24189W        W92662  34.074  39.552   0.903
24190W        W92663  30.045  25.101  13.909
24191W        W92664   0.465  16.121  11.038
24192W        W92665  17.658  43.371   2.213
24193W        W92666   4.786   7.696  11.931
24194W        W92667  25.155  36.066  14.989
24195W        W92668  36.585  36.536   4.641
24196W        W92669   6.729   2.305   1.804
24197W        W92670  44.907  34.966  14.926
24198W        W92671  29.944  17.573  11.498
24199W        W92672  44.317  40.407   0.267
24200W        W92673   5.905  34.047  13.370
24201W        W92674  18.079  19.761  12.024
24202W        W92675  18.705  44.900  11.861
24203W        W92676  32.554  36.042   4.338
24204W        W92677  44.781  12.621  13.438
24205W        W92678  39.007  10.690   1.800
24206W        W92679  11.760  44.472  13.519
24207W        W92680  14.825   4.233  14.813
24208W        W92681   8.313  26.984  12.879
24209W        W92682  27.155  28.947  11.423
24210W        W92683  33.055  12.234   4.627
24211W        W92684  44.895  12.210  13.829
24212W        W92685  14.255   8.718   2.224
24213W        W92686  17.632  27.062  14.874
24214W        W92687  20.212  20.172   1.296
24215W        W92688  34.011  22.019  14.949
24216W        W92689  29.667  13.249   0.935
24217W        W92690  27.164  23.236   1.285
24218W        W92691  21.129   8.217   2.351
24219W        W92692  21.219  37.029  10.433
24220W        W92693   7.846  42.010  12.088
24221W        W92694  31.014  35.102   1.335
24222W        W92695  25.493  10.639  11.974
24223W        W92696   7.743  23.564  12.461
24224W        W92697  42.951  17.078  11.067
24225W        W92698  42.425   1.839  10.483
24226W        W92699  11.693  15.658   1.892
24227W        W92700   0.306  29.574   2.218
24228W        W92701   4.923   0.959  13.993
24229W        W92702   7.352   7.405   1.887
24230W        W92703  13.208  21.140   1.698
24231W        W92704  42.820  38.951  11.607
24232W        W92705  21.021   4.935   3.730
24233W        W92706  33.532  14.103   0.289
24234W        W92707  15.705  39.915   9.563
24235W        W92708  16.147  24.981  10.480
24236W        W92709  32.481  19.762  10.431
24237W        W92710  15.243  25.036  11.012
24238W        W92711  12.816   3.278   3.274
24239W        W92712  34.404  22.027   2.304
24240W        W92713   7.405   8.772  10.437
24241W        W92714   4.343   8.254   2.330
24242W        W92715   4.788  24.177   3.314
24243W        W92716  22.674   7.378  13.356
24244W        W92717   7.896  43.423  14.942
24245W        W92718  29.092  36.949   0.302
24246W        W92719  31.046  41.905  10.982
24247W        W92720   6.216  39.536  14.276
24248W        W92721   7.323  29.494  12.996
24249W        W92722   8.295  10.338  10.887
24250W        W92723  19.277  27.113   2.783
24251W        W92724   3.347   4.811  12.985
24252W        W92725  21.066  43.971   3.636
24253W        W92726  31.091  43.302   5.113
24254W        W92727  20.548  33.478   4.644
24255W        W92728  21.024  36.895   4.195
24256W        W92729  38.534  44.337  12.486
24257W        W92730  31.513   6.197  11.984
24258W        W92731   0.315  22.029  12.076
24259W        W92732  28.156  22.704  10.542
24260W        W92733  32.436  16.731   1.855
24261W        W92734  17.679  22.508  11.399
24262W        W92735  39.329  21.063   4.287
24263W        W92736  36.929  25.197   4.747
24264W        W92737  32.903  28.027   0.806
24265W        W92738  16.714   8.898   1.228
24266W        W92739  21.198  32.554   1.356
24267W        W92740  12.633  33.067  13.896
24268W        W92741   6.784  23.985  12.358
24269W        W92742  26.030  35.586  11.521
24270W        W92743  16.077   4.238  13.544
24271W        W92744  41.803   7.688  14.816
24272W        W92745  35.897  17.769   2.822
24273W        W92746  36.027  39.414   4.598
24274W        W92747   9.706  13.234  12.468
24275W        W92748  21.656  16.667   1.904
24276W        W92749  37.863  16.302  13.511
24277W        W92750  44.916  11.813  11.097
24278W        W92751  15.238  34.552   0.889
24279W        W92752  31.404  24.142  11.561
24280W        W92753  44.491  38.828   2.792
24281W        W92754  31.008  15.772   4.137
24282W        W92755   0.423   7.175  14.804
24283W        W92756  35.021  18.777  12.408
24284W        W92757  22.227  12.714   4.168
24285W        W92758  44.903  29.062  10.523
24286W        W92759  21.060   4.916   0.838
24287W        W92760  11.764   0.328  13.506
24288W        W92761  20.622  39.558  10.571
24289W        W92762  20.563  16.216  14.955
24290W        W92763  39.999   4.233  13.040
24291W        W92764  37.354  28.441  11.446
24292W        W92765  36.978  28.142   4.695
24293W        W92766   2.955  36.074   4.251
24294W        W92767  36.066  29.116   0.266
24295W        W92768  26.016  24.523  14.799
24296W        W92769   2.241  21.614   3.725
24297W        W92770  41.838   2.289  10.624
24298W        W92771  22.044   2.368  11.549
24299W        W92772  32.982  16.652   1.313
24300W        W92773  42.363   1.853   1.444
24301W        W92774  17.774  21.222  13.391
24302W        W92775  21.714  24.127   3.674
24303W        W92776  18.678   8.810  12.383
24304W        W92777   5.308   3.942  13.043
24305W        W92778   9.377  39.456   2.309
24306W        W92779  11.282  41.881   1.801
24307W        W92780  38.826  28.485  10.925
24308W        W92781  28.492  14.664  11.476
24309W        W92782  37.366  42.522  13.359
24310W        W92783  11.734  22.638   4.350
24311W        W92784  37.419   5.300  13.406
24312W        W92785   8.178  34.988  13.966
24313W        W92786  24.017  37.924   2.711
24314W        W92787  34.040  37.969   1.234
24315W        W92788  24.222  16.767  12.851
24316W        W92789  33.969  27.071  11.009
24317W        W92790  41.888  15.101  12.534
24318W        W92791  13.154  23.648  11.968
24319W        W92792  25.105  39.920   3.734
24320W        W92793   4.427  30.506   2.685
24321W        W92794  37.488  44.008   2.303
24322W        W92795  29.532  30.593   3.750
24323W        W92796  42.476  15.675   0.893
24324W        W92797  30.658  13.774  11.593
24325W        W92798  18.130  35.421   0.401
24326W        W92799  11.689   3.404   0.342
24327W        W92800  12.350  32.575  14.367
24328W        W92801  42.293  11.202   3.208
24329W        W92802  10.341  34.026  11.025
24330W        W92803   7.826  28.439  14.367
24331W        W92804  42.792  18.632  14.977
24332W        W92805  16.121  37.546  12.838
24333W        W92806  10.203  19.760  12.830
24334W        W92807  44.940  17.205  14.992
24335W        W92808  23.573  33.889   3.767
24336W        W92809  32.899   2.759  11.113
24337W        W92810  31.537  29.658  10.970
24338W        W92811   1.315  35.588  12.533
24339W        W92812  43.277  30.505   4.714
24340W        W92813  27.958  32.900   4.286
24341W        W92814  40.384   7.311  10.098
24342W        W92815   1.804   6.866   3.636
24343W        W92816  33.986  25.218  14.896
24344W        W92817  21.699   3.215   1.844
24345W        W92818   4.405  25.576   1.875
24346W        W92819  30.986  43.501   4.659
24347W        W92820  42.393  12.240  12.022
24348W        W92821  22.006  12.318   1.364
24349W        W92822  27.185  11.805   2.408
24350W        W92823  38.383  34.374   3.863
24351W        W92824  19.241  28.536   3.153
24352W        W92825   9.362  26.520   1.785
24353W        W92826  40.361  26.545  10.537
24354W        W92827  37.036   4.941  11.078
24355W        W92828  35.902  23.582   1.384
24356W        W92829   8.383   1.879  10.622
24357W        W92830   0.298  40.413  12.436
24358W        W92831   0.775  35.002   1.830
24359W        W92832  25.208   0.865  11.982
24360W        W92833  41.460  42.835  12.451
24361W        W92834  34.495   5.202   1.925
24362W        W92835  43.836  29.558  13.831
24363W        W92836  29.156  14.251   3.378
24364W        W92837  22.020  30.975  10.923
24365W        W92838  32.000  33.587  11.566
24366W        W92839   8.818  21.146  13.032
24367W        W92840  42.446   3.232   0.828
24368W        W92841  43.901   0.386   3.754
24369W        W92842  11.342  32.563   1.356
24370W        W92843   0.320  35.892   0.245
24371W        W92844  31.550   4.288   3.335
24372W        W92845  37.924  26.989  13.387
24373W        W92846  23.668  10.790  11.423
24374W        W92847  40.522  41.972   2.418
24375W        W92848  10.140  17.562  10.076
24376W        W92849  13.816   9.262  10.987
24377W        W92850  25.553  40.994  10.983
24378W        W92851  25.120  25.059   3.253
24379W        W92852  36.990   7.701   2.356
24380W        W92853  19.104  32.078  13.404
24381W        W92854  11.635  41.386   0.413
24382W        W92855  15.662  21.052  13.962
24383W        W92856   1.305  18.255   3.217
24384W        W92857  28.078  29.055   5.312
24385W        W92858   4.839   7.292  13.850
24386W        W92859  22.199  22.199  10.954
24387W        W92860  31.922  35.550   0.761
24388W        W92861  33.110  23.563  14.306
24389W        W92862  18.641   9.781  14.765
24390W        W92863   3.258  43.310  12.988
24391W        W92864  18.558  24.179  10.544
24392W        W92865   9.375   6.799  13.481
24393W        W92866  21.114  38.859   4.820
24394W        W92867  41.487   5.363   2.863
24395W        W92868   4.926   9.777  12.341
24396W        W92869  24.150  15.709   4.709
24397W        W92870   2.894   0.256  11.506
24398W        W92871  20.611   0.787  12.925
24399W        W92872  27.637  23.991  10.565
24400W        W92873  37.490  19.159   3.160
24401W        W92874  39.532  27.454  13.505
24402W        W92875   3.897   6.421  13.386
24403W        W92876   6.223   3.307  14.332
24404W        W92877  29.051  11.688  11.010
24405W        W92878  12.143  13.756  11.535
24406W        W92879  25.122   6.907   4.737
24407W        W92880  21.554  39.869  14.824
24408W        W92881  30.435  22.153   0.247
24409W        W92882   8.395   9.675  14.855
24410W        W92883   1.427  25.978   2.204
24411W        W92884  14.266  38.828   3.722
24412W        W92885  20.100  24.552   2.190
24413W        W92886   4.232   9.162   2.322
24414W        W92887  28.026  42.840  10.902
24415W        W92888  39.027  30.936   1.919
24416W        W92889  31.999   7.733   1.416
24417W        W92890   2.919  39.893  11.574
24418W        W92891   5.238  23.584   2.330
24419W        W92892  43.447   8.806  10.515
24420W        W92893  20.572  39.009   3.357
24421W        W92894  34.032  28.945   0.398
24422W        W92895  44.757  37.372   4.238
24423W        W92896  17.091  28.958  12.374
24424W        W92897  26.638  17.609   0.346
24425W        W92898   1.279  18.777  10.450
24426W        W92899  13.196  25.065  12.899
24427W        W92900  42.941  12.301   3.731
24428W        W92901  31.576  25.576   5.218
24429W        W92902   7.793   2.396  13.323
24430W        W92903   9.206  35.957  14.846
24431W        W92904  20.656   0.832   4.266
24432W        W92905   4.857  22.015  13.849
24433W        W92906  37.028  25.503  11.455
24434W        W92907   9.670  22.179   3.786
24435W        W92908  26.699  13.222   5.095
24436W        W92909  12.211   6.707   0.385
24437W        W92910   9.660  38.467   2.674
24438W        W92911  18.622  33.595   2.757
24439W        W92912   4.802  38.478   0.873
24440W        W92913  14.764  25.169  14.929
24441W        W92914  30.072  33.100   2.740
24442W        W92915   9.311   0.847  14.371
24443W        W92916   2.322   3.710   1.318
24444W        W92917  30.141  36.516   0.444
24445W        W92918  32.897  40.951  12.390
24446W        W92919  28.518  31.940  13.937
24447W        W92920   8.808   8.879   0.873
24448W        W92921   5.414   8.894   3.188
24449W        W92922  26.016   3.738   2.883
24450W        W92923  27.964  40.354  14.363
24451W        W92924  33.079  26.048  13.316
24452W        W92925  19.630  29.035   1.768
24453W        W92926  25.676  33.424   2.863
24454W        W92927  44.855  38.423   0.892
24455W        W92928  13.286  22.155  10.539
24456W        W92929  20.541  31.438   1.360
24457W        W92930  29.163   5.387  10.440
24458W        W92931  19.753  41.515   0.783
24459W        W92932  33.097   0.835   4.781
24460W        W92933  34.065  13.740   0.918
24461W        W92934   5.228  33.989   2.791
24462W        W92935   0.906  27.027   1.791
24463W        W92936  38.560  30.129   2.199
24464W        W92937   6.352  38.329   0.731
24465W        W92938  44.318   5.259  13.891
24466W        W92939   8.237  35.574  10.536
24467W        W92940  29.665  33.520   1.254
24468W        W92941   7.189  24.132  13.443
24469W        W92942  25.109  12.716  11.865
24470W        W92943  15.153  12.661   4.740
24471W        W92944  32.950  32.041   2.718
24472W        W92945  10.747  31.045  12.943
24473W        W92946   6.770  27.037   3.298
24474W        W92947  29.616  42.403  14.858
24475W        W92948   9.665   4.357  14.846
24476W        W92949  34.401   1.909  12.857
24477W        W92950  41.308  24.543  12.887
24478W        W92951  37.419  25.988  13.057
24479W        W92952   1.268  34.068   1.715
24480W        W92953  11.255  23.022  12.563
24481W        W92954  34.876  28.148  10.606
24482W        W92955  33.993  29.962   0.952
24483W        W92956   6.190  37.918   3.848
24484W        W92957  12.283  28.570  13.517
24485W        W92958  36.570   2.317  13.798
24486W        W92959  39.989  17.187  14.996
24487W        W92960  44.441   7.346   9.954
24488W        W92961   8.731  14.276  12.843
24489W        W92962  19.607  11.348   1.711
24490W        W92963  29.637  31.029  12.840
24491W        W92964  34.061  34.001   3.746
24492W        W92965  21.605   5.815   0.783
24493W        W92966   6.312  27.956  13.852
24494W        W92967  13.707  31.582   4.192
24495W        W92968  28.626  10.665  13.869
24496W        W92969  40.025  36.491   2.416
24497W        W92970  44.828  19.776  10.504
24498W        W92971  17.227  32.550  12.827
24499W        W92972  31.560  31.583   1.827
24500W        W92973  29.969  13.771  10.523
24501W        W92974  36.490  34.550  10.971
24502W        W92975   4.312  31.430  13.895
24503W        W92976   0.299   8.253   3.802
24504W        W92977   3.738   4.734  12.985
24505W        W92978  10.139  29.619  12.851
24506W        W92979  36.375  12.138   4.262
24507W        W92980  12.227   8.221   4.259
24508W        W92981  30.000  28.054  11.080
24509W        W92982   8.239  20.683   3.162
24510W        W92983  20.603  17.074   3.636
24511W        W92984  29.489   1.798   4.705
24512W        W92985  17.081  28.081   4.326
24513W        W92986  43.826  15.725   3.646
24514W        W92987  37.986  32.089   3.368
24515W        W92988   2.844   6.791   2.848
24516W        W92989  38.418  30.572   0.939
24517W        W92990   7.776  23.027   3.792
24518W        W92991   5.405  11.297  13.980
24519W        W92992   2.910   6.325   3.383
24520W        W92993  35.557  17.279   3.694
24521W        W92994  24.024  42.812  11.891
24522W        W92995  16.258  16.153   3.843
24523W        W92996  27.062  27.068   3.384
24524W        W92997  28.026   9.387  10.051
24525W        W92998  25.490   9.885  10.602
24526W        W92999   3.840   6.692   1.875
24527W        W93000  42.958  27.958  12.365
24528W        W93001  36.931  41.854  13.547
24529W        W93002  21.653  35.490  10.907
24530W        W93003  24.124  10.764   1.311
24531W        W93004   5.377   7.260  10.638
24532W        W93005  17.168  43.414   2.250
24533W        W93006  41.462   1.383   0.305
24534W        W93007  13.756  20.121   3.780
24535W        W93008  29.572  30.154   1.877
24536W        W93009   7.842  42.991  12.055
24537W        W93010  27.652  24.670   0.360
24538W        W93011  15.181  29.584  13.036
24539W        W93012  11.175  32.127   0.418
24540W        W93013  30.045   8.197   3.247
24541W        W93014  36.463  43.931   2.389
24542W        W93015  26.140   8.693   2.879
24543W        W93016  20.585  17.624   2.670
24544W        W93017  38.462  30.971   4.743
24545W        W93018  22.566  39.319  14.488
24546W        W93019  41.798  13.344  13.408
24547W        W93020  43.789  10.783  11.528
24548W        W93021  40.911  37.893   2.371
24549W        W93022  43.825   3.946   4.192
24550W        W93023  25.141   9.159  14.887
24551W        W93024  33.075   7.257  13.004
24552W        W93025  16.719  21.520   0.835
24553W        W93026  18.585  12.735   2.684
24554W        W93027  38.020   5.736   1.336
24555W        W93028  36.036   6.881   3.210
24556W        W93029  38.352  11.861  14.863
24557W        W93030  26.499  26.971   0.409
24558W        W93031   0.334  36.503   2.281
24559W        W93032   6.707  10.299   1.399
24560W        W93033  25.982   3.270   1.324
24561W        W93034   0.351  42.389  12.482
24562W        W93035   9.329  16.205  11.879
24563W        W93036  40.882  16.782   0.889
24564W        W93037  34.443  11.196  12.470
24565W        W93038  10.307  17.079  10.537
24566W        W93039  13.224  20.760   2.263
24567W        W93040  44.877  37.402  13.794
24568W        W93041  31.140  23.667  10.584
24569W        W93042  26.460  18.578   2.349
24570W        W93043  44.962  37.369  10.004
24571W        W93044  14.806   6.275  11.014
24572W        W93045   5.929  11.193  13.386
24573W        W93046  44.466  31.597  14.958
24574W        W93047  18.228  11.326  14.281
24575W        W93048  35.592  33.064  10.487
24576W        W93049  24.036   8.702  11.520
24577W        W93050  37.353  38.394  11.441
24578W        W93051  40.943  41.037   3.642
24579W        W93052  22.028  19.239  12.873
24580W        W93053  15.772  24.979  12.044
24581W        W93054   2.922  14.812  12.902
24582W        W93055  26.484  21.181  10.476
24583W        W93056  25.562  23.103   4.198
24584W        W93057   3.356  35.520  14.772
24585W        W93058  28.981  29.598   1.264
24586W        W93059   6.881   4.849   2.242
24587W        W93060  42.907  35.438  12.891
24588W        W93061  38.517   6.751   2.818
24589W        W93062  28.503  14.238  11.070
24590W        W93063  16.184  18.567   0.375
24591W        W93064  42.917  13.845  13.950
24592W        W93065   4.388  25.053   3.278
24593W        W93066   3.859  32.610  14.878
24594W        W93067   2.271  11.296  13.487
24595W        W93068   9.887  16.204  14.311
24596W        W93069  14.131  41.985   2.902
24597W        W93070  18.174  35.512  10.927
24598W        W93071  43.487  11.299  12.925
24599W        W93072  24.680  37.009  13.851
24600W        W93073  24.085   9.765  13.997
24601W        W93074  20.740  18.683  14.303
24602W        W93075  24.700  19.189  14.510
24603W        W93076  22.589  21.720  14.811
24604W        W93077  22.218  29.093  14.420
24605W        W93078  43.878  26.597   0.801
24606W        W93079  26.559  15.186   1.926
24607W        W93080   6.776  37.431   4.809
24608W        W93081  17.071   5.933   0.952
24609W        W93082  19.617  36.464   4.284
24610W        W93083  12.651  27.063  13.905
24611W        W93084  39.957   4.391   3.328
24612W        W93085  43.966  42.442   0.742
24613W        W93086  35.861  41.508   0.243
24614W        W93087  40.369   3.342  10.615
24615W        W93088   2.891  29.468  12.436
24616W        W93089   4.382  25.475  12.483
24617W        W93090   0.922  23.621  10.888
24618W        W93091  25.060  21.238   2.295
24619W        W93092  25.584   6.725   2.345
24620W        W93093  18.243  16.812   4.785
24621W        W93094  19.716  27.659  12.927
24622W        W93095  31.588  23.595  10.481
24623W        W93096  18.595  14.754   2.697
24624W        W93097  11.677  15.701   0.421
24625W        W93098   0.895  37.893  12.465
24626W        W93099  42.292  16.201   3.712
24627W        W93100  20.192  18.786   0.297
24628W        W93101  32.457  21.063  13.820
24629W        W93102  12.146  38.328  12.480
24630W        W93103  11.786  37.957   0.471
24631W        W93104  15.635  38.933   1.752
24632W        W93105   9.736  36.588   4.354
24633W        W93106   0.419  44.849  13.955
24634W        W93107  39.326  39.982   4.722
24635W        W93108  10.252  32.450   2.863
24636W        W93109  33.998  43.305  11.109
24637W        W93110  34.054  28.492  10.904
24638W        W93111  37.877  17.685   0.829
24639W        W93112  26.120  27.497  10.905
24640W        W93113  19.581  44.796   4.161
24641W        W93114  25.594  23.647  12.556
24642W        W93115  41.439   1.923   1.875
24643W        W93116  43.461   6.286   0.281
24644W        W93117   4.241  23.226   2.388
24645W        W93118   0.369  36.494  11.438
24646W        W93119  23.021  40.434   4.264
24647W        W93120  39.953  26.669   0.842
24648W        W93121  23.220   0.904  10.624
24649W        W93122  29.155  18.088   4.324
24650W        W93123  43.484  12.356  10.915
24651W        W93124  15.214  28.006   1.857
24652W        W93125  40.896  30.030   4.345
24653W        W93126  10.723   9.867   0.905
24654W        W93127   3.270  20.642   1.834
24655W        W93128  42.407  36.900   3.772
24656W        W93129   0.872  10.271  12.571
24657W        W93130  21.511   6.739   3.319
24658W        W93131  10.763   7.373  14.765
24659W        W93132  32.407  22.173  14.445
24660W        W93133  32.621  15.164  10.981
24661W        W93134   1.445   8.253  13.422
24662W        W93135  11.335  40.017   3.186
24663W        W93136  30.420  32.578  11.938
24664W        W93137   1.387  44.777   3.239
24665W        W93138  27.522  24.054  14.760
24666W        W93139  35.477  19.554  13.372
24667W        W93140  38.551  37.549   4.792
24668W        W93141  21.037  13.842  12.966
24669W        W93142   0.283  42.021  12.530
24670W        W93143   7.734  31.072  12.024
24671W        W93144  41.521   5.772   3.772
24672W        W93145   5.379  17.079   1.370
24673W        W93146  40.905  18.635   4.341
24674W        W93147  16.316  42.335  13.337
24675W        W93148  12.716  27.082  13.435
24676W        W93149  37.497  17.729  12.516
24677W        W93150  12.672  31.077  13.040
24678W        W93151   0.775  35.457   4.268
24679W        W93152  17.073  10.269   2.791
24680W        W93153  14.199  41.869  13.029
24681W        W93154  41.398   5.403  10.466
24682W        W93155  30.082  44.787  10.991
24683W        W93156  10.813  30.120  12.917
24684W        W93157   1.343  10.744  10.405
24685W        W93158  25.533  16.635  11.043
24686W        W93159  23.635   5.933  13.867
24687W        W93160  33.894  14.774  10.643
24688W        W93161  30.571  17.263   0.385
24689W        W93162  14.159  30.521  12.448
24690W        W93163  36.479  42.416  10.950
24691W        W93164  13.190   7.790   0.396
24692W        W93165  10.144  26.054   1.407
24693W        W93166  20.700  38.964  12.988
24694W        W93167   6.737  31.488   1.367
24695W        W93168   9.162  35.522   0.250
24696W        W93169  16.166   5.435  10.976
24697W        W93170   5.430  13.722  12.826
24698W        W93171  42.812  10.651  12.888
24699W        W93172  28.534  41.513   2.230
24700W        W93173  38.892  27.074   3.710
24701W        W93174  41.008  33.951  14.344
24702W        W93175  42.509  44.893   1.926
24703W        W93176  30.937  29.549   0.371
24704W        W93177  13.267  18.103  10.095
24705W        W93178  34.569  27.052   1.764
24706W        W93179  12.635   4.924  14.813
24707W        W93180   3.368   0.340  13.447
24708W        W93181  22.116  33.508  12.989
24709W        W93182  27.093  28.995  12.828
24710W        W93183  29.168   2.777  14.811
24711W        W93184  40.322  15.678  11.926
24712W        W93185  33.612   0.958  11.866
24713W        W93186  30.107  34.082   3.288
24714W        W93187   5.408  36.886  13.951
24715W        W93188  13.243  28.603   1.336
24716W        W93189  28.454   6.289   2.418
24717W        W93190   3.843  16.633  12.950
24718W        W93191  27.512  35.501  10.947
24719W        W93192  32.406  26.660  12.428
24720W        W93193  15.779  33.625  12.070
24721W        W93194  40.816  11.152   1.376
24722W        W93195  25.083   7.860  10.541
24723W        W93196  15.666  30.080   0.795
24724W        W93197  32.484   7.212  12.986
24725W        W93198   2.295  15.780   4.143
24726W        W93199   3.433  37.961  14.314
24727W        W93200   5.728  40.321   1.892
24728W        W93201  15.206  39.397  13.033
24729W        W93202  42.518  34.902   4.117
24730W        W93203  15.199  12.823   2.666
24731W        W93204  33.530  41.333  10.946
24732W        W93205  21.738   9.877   2.829
24733W        W93206   9.310  44.303  10.892
24734W        W93207  39.325  37.514   2.748
24735W        W93208  23.140  38.458  10.977
24736W        W93209  25.994  10.808  10.933
24737W        W93210  12.219  22.639   4.772
24738W        W93211  26.078   3.391   0.324
24739W        W93212   4.319  36.971  11.973
24740W        W93213  17.562  42.010  12.517
24741W        W93214  30.644  35.362   3.668
24742W        W93215  41.315   9.373   3.757
24743W        W93216  16.084  30.469  12.371
24744W        W93217  27.059  38.457   1.887
24745W        W93218  26.141  29.628   1.909
24746W        W93219  24.139  33.943  14.933
24747W        W93220   8.708  35.473  13.355
24748W        W93221  21.085   6.229   3.869
24749W        W93222  10.785  37.042  11.415
24750W        W93223  37.340  20.682  11.961
24751W        W93224   3.743   4.744   2.740
24752W        W93225  37.445  39.863  10.977
24753W        W93226  39.472  41.844   3.809
24754W        W93227  37.534   2.816  13.476
24755W        W93228  41.820  39.528  12.959
24756W        W93229  19.173  35.541  13.027
24757W        W93230  20.246   4.766  13.524
24758W        W93231  18.211   6.854   3.213
24759W        W93232  16.084   6.217   1.911
24760W        W93233  24.557  30.013   3.717
24761W        W93234  16.626  42.964   1.349
24762W        W93235  25.039  35.453  13.809
24763W        W93236   8.849  17.622  14.899
24764W        W93237  38.399  25.534  12.516
24765W        W93238  30.615  36.931  12.423
24766W        W93239  25.180  25.190   0.291
24767W        W93240  27.483  39.429  13.353
24768W        W93241   4.381   1.303  12.049
24769W        W93242   1.334  31.154  14.364
24770W        W93243   1.244  18.547  12.920
24771W        W93244  16.658  25.041   1.863
24772W        W93245  43.791  11.200  13.921
24773W        W93246   2.864  23.560   3.200
24774W        W93247  43.000   2.886  12.001
24775W        W93248   7.831  19.200  10.990
24776W        W93249  33.116  17.771  11.082
24777W        W93250  36.405  26.629   2.388
24778W        W93251  16.806  27.656  14.872
24779W        W93252  21.162   0.416   3.281
24780W        W93253   5.319  11.823   3.250
24781W        W93254  20.611   6.238   2.414
24782W        W93255  22.530  35.358   4.231
24783W        W93256  39.007  32.975  12.985
24784W        W93257   7.172  37.940   0.958
24785W        W93258  20.679  38.054  13.938
24786W        W93259  33.128  28.535   1.850
24787W        W93260  13.608  13.687   1.279
24788W        W93261  24.134  30.076  10.917
24789W        W93262  43.315   7.407  12.395
24790W        W93263   2.284   2.738  13.842
24791W        W93264  40.855  23.092   0.252
24792W        W93265   6.257  16.084  10.985
24793W        W93266   8.294   0.286  12.426
24794W        W93267   4.774  21.225  13.957
24795W        W93268   7.377  27.123   3.637
24796W        W93269  26.467  35.425   3.194
24797W        W93270   5.931   8.386  14.945
24798W        W93271  26.182  23.542   0.296
24799W        W93272  17.571  21.142  11.934
24800W        W93273  30.592  21.523  12.920
24801W        W93274  21.205  10.710  13.490
24802W        W93275  29.431  23.685  11.873
24803W        W93276  17.114  33.511  10.002
24804W        W93277  22.117  24.001   2.285
24805W        W93278  39.559  33.050  14.462
24806W        W93279  15.100   8.323   1.813
24807W        W93280  13.683  23.626   1.417
24808W        W93281   3.394   7.383  12.577
24809W        W93282   1.464  11.638   3.838
24810W        W93283   3.332   2.308   2.250
24811W        W93284   9.664  12.237   4.143
24812W        W93285  26.192  41.038  13.962
24813W        W93286  40.332  36.886   2.405
24814W        W93287   0.788  26.606   0.347
24815W        W93288  14.312  20.032   2.722
24816W        W93289  20.605   7.388  14.314
24817W        W93290  22.144  19.551  11.545
24818W        W93291  29.502  16.094   3.227
24819W        W93292  21.108   0.473   3.866
24820W        W93293  22.540  30.137   1.421
24821W        W93294  23.535  14.759   0.761
24822W        W93295  18.203  13.154   4.670
24823W        W93296  18.117  36.373  14.833
24824W        W93297   3.875   9.353  11.040
24825W        W93298   9.176  37.552   0.748
24826W        W93299  10.268   1.310   2.721
24827W        W93300  44.881  33.944  11.107
24828W        W93301  41.935  28.619   4.629
24829W        W93302  17.689  16.081  11.102
24830W        W93303  21.185  16.198  10.557
24831W        W93304  31.047  32.573  13.820
24832W        W93305  13.268  20.078   4.186
24833W        W93306  43.328  21.653   3.672
24834W        W93307  17.208  22.601  14.002
24835W        W93308  15.322  11.202  12.495
24836W        W93309  44.322  28.103   1.356
24837W        W93310  32.114  30.962   0.278
24838W        W93311  31.566  21.094   1.386
24839W        W93312  13.331  32.028   0.403
24840W        W93313   8.230  42.420   1.243
24841W        W93314  35.994  26.667  12.850
24842W        W93315  12.131  42.473  14.315
24843W        W93316  34.475  37.023   2.386
24844W        W93317  31.983  36.994  11.887
24845W        W93318   0.278  10.857   1.227
24846W        W93319  28.595  22.061  12.017
24847W        W93320   2.420  20.180   3.766
24848W        W93321  41.454  34.894  14.839
24849W        W93322  30.950   6.393  13.450
24850W        W93323  11.226  16.582  11.967
24851W        W93324  37.500  40.053   4.125
24852W        W93325  41.323  10.870  14.979
24853W        W93326  25.628   6.726   2.818
24854W        W93327  30.601   8.678  13.859
24855W        W93328   4.205   4.429   5.278
24856W        W93329  13.689   1.360  10.960
24857W        W93330  25.680   7.910  13.475
24858W        W93331  37.521   6.326  13.414
24859W        W93332  39.987  36.392   3.690
24860W        W93333  10.700   6.336  13.808
24861W        W93334  28.170  40.933   4.344
24862W        W93335  30.546   8.746   0.283
24863W        W93336  27.975  23.607   1.273
24864W        W93337  28.949  20.127   3.182
24865W        W93338   3.458  21.626   1.376
24866W        W93339  24.510  34.497   3.638
24867W        W93340  13.134  22.552   4.162
24868W        W93341  10.187  19.663  13.366
24869W        W93342  31.514  39.024  12.900
24870W        W93343  18.163  21.202   2.886
24871W        W93344   5.253  31.019  13.521
24872W        W93345  27.645  27.554  14.431
24873W        W93346  38.391  37.009  11.385
24874W        W93347  31.093  36.847  13.318
24875W        W93348  37.990  22.674   4.796
24876W        W93349  43.804  42.403  12.038
24877W        W93350  41.437  29.963  14.778
24878W        W93351   8.664  34.881  14.461
24879W        W93352  34.028  22.997  10.513
24880W        W93353  40.863   8.799  14.328
24881W        W93354  23.643  40.870  13.447
24882W        W93355   3.250  24.149   2.776
24883W        W93356  13.610   4.722  13.970
24884W        W93357  44.381   2.427  12.536
24885W        W93358  35.508   7.218   3.323
24886W        W93359  41.350   7.383   2.710
24887W        W93360  13.710  36.893  11.034
24888W        W93361  35.006   1.364  10.922
24889W        W93362   2.964  35.577   4.314
24890W        W93363  25.607  17.703  12.535
24891W        W93364  34.435  12.159  12.069
24892W        W93365  15.297  30.610   2.249
24893W        W93366  14.715   3.815  13.890
24894W        W93367  30.449  14.750  10.973
24895W        W93368  18.294  20.527   0.260
24896W        W93369  39.973  26.585  12.394
24897W        W93370  31.930  36.404   1.779
24898W        W93371  32.127  14.623  11.931
24899W        W93372   0.744   4.891   3.166
24900W        W93373  28.146  34.520   3.667
24901W        W93374  12.623  13.144  12.569
24902W        W93375  12.335  35.453   4.837
24903W        W93376  20.171  37.862   3.654
24904W        W93377   6.373  38.567   1.376
24905W        W93378   4.824  30.616  14.288
24906W        W93379  26.580  37.958  11.403
24907W        W93380  43.350   3.299   1.877
24908W        W93381  40.352  25.995  13.884
24909W        W93382  22.602  31.589  12.545
24910W        W93383  10.316  23.227   0.756
24911W        W93384   2.737  25.112   0.291
24912W        W93385  32.425  20.065  13.396
24913W        W93386  28.939  44.418  14.968
24914W        W93387  42.000  10.725   2.870
24915W        W93388   1.382   9.851  13.995
24916W        W93389  20.718  36.381   0.757
24917W        W93390  10.717   4.328  11.451
24918W        W93391  15.821  28.081   4.816
24919W        W93392  14.786  16.101  13.013
24920W        W93393  27.484  19.160   2.857
24921W        W93394   3.289   2.389   0.359
24922W        W93395  29.446  24.168  10.975
24923W        W93396   2.442  12.781   0.430
24924W        W93397  31.415  12.686   2.852
24925W        W93398   5.722  35.411  10.513
24926W        W93399   4.428  20.108   0.351
24927W        W93400  40.444   1.470  10.617
24928W        W93401  44.430  11.768   3.204
24929W        W93402  10.866  16.711   1.344
24930W        W93403  27.529   2.281  14.925
24931W        W93404   0.876   0.911   0.441
24932W        W93405   8.302  35.877   5.093
24933W        W93406  12.619   2.448   5.099
24934W        W93407  23.715  40.988   0.854
24935W        W93408  40.810  10.299   0.435
24936W        W93409  22.016   1.253   0.947
24937W        W93410  34.498  32.079  14.401
24938W        W93411  27.616  16.155  13.318
24939W        W93412  10.642  24.505  11.527
24940W        W93413  40.410  39.039   4.769
24941W        W93414  35.381  33.604   3.799
24942W        W93415  33.461  32.024   4.160
24943W        W93416  25.622  21.137  11.568
24944W        W93417  43.449  25.063  14.974
24945W        W93418  38.375  28.569  12.536
24946W        W93419  21.536  24.226   1.923
24947W        W93420  34.966  24.107  14.805
24948W        W93421  39.025  15.711  10.438
24949W        W93422  32.490  28.471  12.044
24950W        W93423  36.929  43.933  13.315
24951W        W93424  22.714  11.633  11.990
24952W        W93425  21.195   2.299   0.252
24953W        W93426  25.536  14.603   4.345
24954W        W93427   2.434   1.930  13.316
24955W        W93428  27.465  18.158   2.870
24956W        W93429  16.111   3.818  12.039
24957W        W93430  18.748  39.439   1.377
24958W        W93431  24.559  30.956   4.805
24959W        W93432  28.989  40.030   1.764
24960W        W93433  36.088  14.806  14.883
24961W        W93434  19.058  26.064  14.825
24962W        W93435  42.323   8.876   1.747
24963W        W93436  41.831  16.259   1.254
24964W        W93437   6.222  41.529   9.922
24965W        W93438  15.227   6.839   0.962
24966W        W93439   5.278   4.814   0.937
24967W        W93440  31.510  10.348  14.459
24968W        W93441  38.390  13.734   1.369
24969W        W93442   6.190  19.087   0.963
24970W        W93443  21.235  42.913  10.932
24971W        W93444  21.538  21.674  14.846
24972W        W93445  33.565  42.778   4.150
24973W        W93446  34.001  11.672   4.176
24974W        W93447  10.322  15.119   0.461
24975W        W93448  16.795  14.164  11.002
24976W        W93449  19.572  23.170  12.365
24977W        W93450  37.976  21.668  13.044
24978W        W93451   0.412   8.828  13.874
24979W        W93452  34.575  16.161   4.762
24980W        W93453  36.956   8.786   1.742
24981W        W93454  14.748   8.323   1.321
24982W        W93455  39.321   6.189   0.803
24983W        W93456  24.654  39.466  11.457
24984W        W93457  27.687  30.137  14.810
24985W        W93458  42.381  39.528   3.227
24986W        W93459   8.840  14.786   2.878
24987W        W93460  30.970  39.846   3.748
24988W        W93461  28.436   4.242  12.410
24989W        W93462   4.945  17.630  14.320
24990W        W93463  43.493  17.731   3.854
24991W        W93464  42.328  35.500   3.674
24992W        W93465  28.447   8.161  12.569
24993W        W93466  42.483  34.907   1.878
24994W        W93467   9.860  23.151   1.741
24995W        W93468   0.898  29.040   1.796
24996W        W93469   6.693  11.833  13.336
24997W        W93470  38.328  35.999   4.702
24998W        W93471  10.364  39.904   0.303
24999W        W93472  26.551  11.164   3.772
25000W        W93473  27.516  24.199  13.356
25001W        W93474   2.380  35.976   4.645
25002W        W93475  11.134  26.578   0.846
25003W        W93476  34.607  20.165  10.478
25004W        W93477   2.779  13.837   4.817
25005W        W93478  38.520  10.236  13.007
25006W        W93479  28.024  36.005   4.706
25007W        W93480  12.195  20.215   3.667
25008W        W93481  29.990  42.396   5.301
25009W        W93482  32.454   3.827  10.888
25010W        W93483  21.143  17.611  11.576
25011W        W93484  27.168  40.894  11.471
25012W        W93485  18.278  12.626   0.410
25013W        W93486  16.619  43.877   1.727
25014W        W93487  32.938  22.582  13.935
25015W        W93488  22.127  20.692   4.777
25016W        W93489  21.635   9.329   2.855
25017W        W93490  12.841  22.074   2.268
25018W        W93491  42.500  12.829   2.332
25019W        W93492  28.552   5.908  10.589
25020W        W93493  10.138  38.930   4.189
25021W        W93494   3.460  24.626  10.960
25022W        W93495  44.926   8.228   4.345
25023W        W93496   7.262   8.788   3.862
25024W        W93497  41.479  29.965   1.362
25025W        W93498  17.256  12.324  10.625
25026W        W93499   6.342  39.535   2.182
25027W        W93500   6.820  27.608   3.807
25028W        W93501  22.561  13.679  11.604
25029W        W93502  37.994  42.346  11.402
25030W        W93503  20.525  15.298  11.907
25031W        W93504  13.732  32.039  12.983
25032W        W93505   9.331   8.231   0.355
25033W        W93506  12.663  20.171  14.411
25034W        W93507  16.742  26.985   4.350
25035W        W93508  19.081  24.214   4.734
25036W        W93509  43.375   3.356  10.543
25037W        W93510  28.982  39.364   4.264
25038W        W93511  21.086  10.633   2.258
25039W        W93512  40.914  35.548  12.991
25040W        W93513   5.324  44.301   0.891
25041W        W93514  43.366   4.283   2.200
25042W        W93515  13.193  19.652   4.303
25043W        W93516  25.044  21.165  13.929
25044W        W93517   7.695  15.580   4.730
25045W        W93518  16.140   7.756  14.332
25046W        W93519  23.015  33.471  14.303
25047W        W93520  25.610  17.735  13.538
25048W        W93521  34.043  25.074  10.459
25049W        W93522  37.934  19.556  13.332
25050W        W93523   7.378  33.924   3.375
25051W        W93524  41.040  22.080   1.812
25052W        W93525   9.757  29.612   0.276
25053W        W93526  10.676  20.071   2.207
25054W        W93527   5.859  41.794   4.659
25055W        W93528   4.271  13.218   3.803
25056W        W93529  26.598  17.704   4.826
25057W        W93530  11.816  11.741  10.090
25058W        W93531   3.240  20.540   2.234
25059W        W93532  44.288  40.989   4.260
25060W        W93533  28.466  21.093  12.504
25061W        W93534   0.328   1.783  13.308
25062W        W93535  16.263  22.633  11.119
25063W        W93536  33.978  29.518   2.194
25064W        W93537  44.769  27.654  12.867
25065W        W93538   1.381   8.291   0.403
25066W        W93539  27.045  25.176   4.167
25067W        W93540  41.423  40.331  14.811
25068W        W93541  35.377   1.334   4.208
25069W        W93542  26.184  23.020   4.599
25070W        W93543  37.923  42.011  13.815
25071W        W93544   4.837  17.785  10.538
25072W        W93545  41.837   8.305  12.868
25073W        W93546  31.076  36.046  12.883
25074W        W93547  10.637  34.110   3.197
25075W        W93548   2.464  24.179  12.450
25076W        W93549  17.259  42.866  11.881
25077W        W93550  27.596   6.769  12.907
25078W        W93551  42.351   5.340   2.714
25079W        W93552  37.977  44.900   4.263
25080W        W93553  40.404  19.164   1.927
25081W        W93554  39.523   6.322   1.390
25082W        W93555   7.290  43.915   3.808
25083W        W93556   9.153  23.656  11.608
25084W        W93557  14.609  33.112  12.357
25085W        W93558  39.335  41.900   2.412
25086W        W93559   8.667   0.854  14.835
25087W        W93560   5.252  27.605   1.214
25088W        W93561  30.614   8.293   3.217
25089W        W93562  12.307   1.736   3.865
25090W        W93563   0.981   2.910   2.720
25091W        W93564  33.022  19.266  13.354
25092W        W93565  36.417  37.992   4.804
25093W        W93566  36.974  11.210   1.386
25094W        W93567  21.195  13.249  12.837
25095W        W93568  38.499   7.758  13.340
25096W        W93569  10.146  42.506  11.488
25097W        W93570  14.117  14.806   4.831
25098W        W93571  10.850   8.671  14.328
25099W        W93572   8.857   2.777   4.606
25100W        W93573   2.294   8.329  14.828
25101W        W93574  30.960   3.859   4.752
25102W        W93575  28.152  16.656  10.095
25103W        W93576  10.252  27.150  14.915
25104W        W93577  34.488  38.066   1.269
25105W        W93578  43.393  25.517  11.503
25106W        W93579  30.112  23.180  12.452
25107W        W93580  36.903  14.804   3.355
25108W        W93581  33.874  19.778  14.999
25109W        W93582   1.467  29.004  11.485
25110W        W93583   6.719  20.723  10.493
25111W        W93584  27.961  42.285  14.787
25112W        W93585  37.533  21.033   4.759
25113W        W93586  15.138  24.515  12.958
25114W        W93587  10.710  38.846   0.310
25115W        W93588  30.926  17.144   2.711
25116W        W93589  33.108   6.425  14.332
25117W        W93590  18.597   8.852  14.958
25118W        W93591   2.408  28.969  10.524
25119W        W93592   7.910  23.041   1.218
25120W        W93593  27.048   8.203  13.340
25121W        W93594   7.211   1.784  12.407
25122W        W93595  21.732  39.039   2.720
25123W        W93596  41.369  14.105   1.923
25124W        W93597  34.439  26.692  10.558
25125W        W93598  44.439   9.884   2.732
25126W        W93599   4.277  35.107  10.589
25127W        W93600  43.871   2.468   0.440
25128W        W93601   6.340  43.420   0.408
25129W        W93602  21.569  39.396  12.468
25130W        W93603  35.416   6.846  13.388
25131W        W93604  27.651   1.413  12.005
25132W        W93605   0.747  20.052  12.911
25133W        W93606  18.763   5.374  10.635
25134W        W93607  19.591  22.552   3.687
25135W        W93608  18.750  15.273  11.501
25136W        W93609  18.636  37.439  13.896
25137W        W93610  43.515   3.351  11.478
25138W        W93611  15.179  41.306  12.071
25139W        W93612  10.373  42.908   2.845
25140W        W93613   5.232  44.784  13.984
25141W        W93614  14.292   2.247   3.315
25142W        W93615  29.082  30.519   1.295
25143W        W93616   6.901  19.650  14.334
25144W        W93617   1.734   5.814   2.787
25145W        W93618  42.417  18.206  13.517
25146W        W93619  44.308  28.507  13.850
25147W        W93620  15.086  13.810   0.967
25148W        W93621  18.720  24.993  13.966
25149W        W93622  22.608  28.020  10.594
25150W        W93623  12.666   6.391  12.421
25151W        W93624   5.226   9.735  13.411
25152W        W93625  10.297  38.047  13.397
25153W        W93626  28.598  25.087  13.993
25154W        W93627  32.094  35.570   1.714
25155W        W93628  37.972  18.555   3.263
25156W        W93629   5.814  26.106   1.893
25157W        W93630  33.924  39.374  12.997
25158W        W93631  27.148  39.859  12.044
25159W        W93632  30.944  35.364  14.401
25160W        W93633   4.815  33.437   2.351
25161W        W93634   2.747   0.309   0.368
25162W        W93635  36.951  17.560  13.043
25163W        W93636  25.968  17.681   3.773
25164W        W93637   5.345  25.056   3.735
25165W        W93638  21.209  18.146   0.949
25166W        W93639  12.710  16.151   0.876
25167W        W93640   9.730  41.015   2.877
25168W        W93641  37.075  30.132   4.151
25169W        W93642  42.459   6.904  11.469
25170W        W93643  27.616  38.865   1.337
25171W        W93644   8.822   3.896   0.344
25172W        W93645  23.514  23.177   3.684
25173W        W93646   3.274  14.700   2.288
25174W        W93647  25.512  28.016   2.361
25175W        W93648  37.447  30.436   4.797
25176W        W93649  36.497  29.669  12.437
25177W        W93650   4.936  44.917   2.804
25178W        W93651  15.619  32.521  14.356
25179W        W93652  44.879   6.700  12.498
25180W        W93653  43.987  33.564   0.270
25181W        W93654  11.854  34.872   3.362
25182W        W93655  17.721  22.219   1.340
25183W        W93656  20.217   7.803   2.215
25184W        W93657  32.030   3.711  10.993
25185W        W93658  35.916  10.849  13.407
25186W        W93659  13.613  44.950  11.504
25187W        W93660  42.305  28.066  14.443
25188W        W93661  15.824  25.563  12.024
25189W        W93662  16.219   9.725   4.154
25190W        W93663   2.885  10.316  12.461
25191W        W93664  17.063  19.748  11.529
25192W        W93665  42.355   2.363   2.797
25193W        W93666  41.871  33.884  11.598
25194W        W93667  38.475  14.742   2.275
25195W        W93668   4.762  34.930   4.299
25196W        W93669  28.668  33.103  11.971
25197W        W93670  28.538  28.164   1.786
25198W        W93671  42.330  44.764  14.768
25199W        W93672  23.548  37.350  12.568
25200W        W93673  15.261  23.054   1.831
25201W        W93674  24.527  33.104  11.091
25202W        W93675  39.994   1.289   3.285
25203W        W93676  22.530  38.547  13.361
25204W        W93677  40.380  28.619   3.757
25205W        W93678  43.325  30.065   0.254
25206W        W93679  16.667  19.219   2.754
25207W        W93680  43.822  20.540  12.020
25208W        W93681   8.370  11.702  13.842
25209W        W93682  25.190  35.584   0.804
25210W        W93683  14.193  34.943   4.138
25211W        W93684  23.119   6.250   4.301
25212W        W93685  39.946  12.155  14.850
25213W        W93686  24.608  25.505  14.020
25214W        W93687   1.789  14.620  12.918
25215W        W93688  39.827  19.560   0.299
25216W        W93689  19.569  29.132   2.233
25217W        W93690  19.731  20.644   4.239
25218W        W93691  14.803   3.853  11.533
25219W        W93692  24.094   5.373  10.459
25220W        W93693  13.197  16.221  10.440
25221W        W93694  21.072  44.894   2.771
25222W        W93695  32.934   4.215   1.276
25223W        W93696   6.261  33.901   0.481
25224W        W93697  15.789  19.664   3.740
25225W        W93698  35.393  22.713  13.396
25226W        W93699  43.871  37.957   0.733
25227W        W93700  42.869  39.550   2.861
25228W        W93701  30.546  30.018   1.922
25229W        W93702  29.493  26.542  11.935
25230W        W93703  41.494   5.825   4.817
25231W        W93704  40.500  20.759   1.712
25232W        W93705  13.346   0.849   0.477
25233W        W93706  33.499  44.405   2.402
25234W        W93707  41.409  11.631  10.906
25235W        W93708  38.831  42.834  11.537
25236W        W93709  23.174  36.845   1.796
25237W        W93710  27.555  25.545   3.373
25238W        W93711  11.794  10.866   3.369
25239W        W93712  35.436  14.232  11.944
25240W        W93713  38.533  18.725   3.710
25241W        W93714   7.908  20.551  14.305
25242W        W93715  16.654  34.097   0.829
25243W        W93716   6.817  41.506  12.506
25244W        W93717   8.716  37.440  11.947
25245W        W93718  10.684   8.877   1.722
25246W        W93719  31.036  12.840   3.864
25247W        W93720   2.955   7.879   1.371
25248W        W93721  18.652  38.046   3.800
25249W        W93722  33.040  26.594  12.826
25250W        W93723  28.491  27.653   2.683
25251W        W93724   8.823  17.605  11.929
25252W        W93725  33.538  31.643   1.339
25253W        W93726   4.726   4.215   3.276
25254W        W93727   1.954  27.581  12.955
25255W        W93728  29.945  13.710   3.265
25256W        W93729  40.492  11.668  11.872
25257W        W93730  34.371   7.857   3.815
25258W        W93731  14.830   3.263  10.935
25259W        W93732  17.658   5.715  10.532
25260W        W93733  40.016   8.336   2.747
25261W        W93734  29.596  32.106   2.757
25262W        W93735  42.283  21.707  10.555
25263W        W93736   3.322  14.726  14.487
25264W        W93737  10.786  44.857   3.328
25265W        W93738   9.821  22.116   5.111
25266W        W93739  39.390   3.262   0.246
25267W        W93740   7.783  24.640   5.151
25268W        W93741  11.645  27.670   0.797
25269W        W93742  17.724  36.526  11.593
25270W        W93743  17.269  30.044   3.755
25271W        W93744  36.497  35.992   4.211
25272W        W93745  27.515  40.008   1.852
25273W        W93746  35.448  25.534  11.445
25274W        W93747  25.202  16.777   4.830
25275W        W93748   9.365  21.144   1.907
25276W        W93749  16.253  21.662   4.624
25277W        W93750  38.347  26.184   2.664
25278W        W93751  10.766  25.001   1.436
25279W        W93752  24.024  10.788  12.529
25280W        W93753  35.936  30.126   3.360
25281W        W93754   5.867  38.418   1.819
25282W        W93755  11.847  17.292   3.166
25283W        W93756  41.936  30.597   1.279
25284W        W93757   0.285   4.285  12.829
25285W        W93758  25.047  36.093  11.444
25286W        W93759   9.238   4.207   0.894
25287W        W93760  32.564  12.682   1.402
25288W        W93761   4.351   6.426  12.879
25289W        W93762  39.044  25.071  10.461
25290W        W93763  28.479  30.514   4.215
25291W        W93764  35.023  40.949  14.945
25292W        W93765  34.001  16.202   2.240
25293W        W93766   7.267  14.193   4.190
25294W        W93767   1.417  31.452  10.621
25295W        W93768  20.683  10.689   2.712
25296W        W93769   6.884  28.486  12.038
25297W        W93770  23.236   1.292  12.457
25298W        W93771   5.913  18.191  10.457
25299W        W93772  11.297   7.757  12.909
25300W        W93773  28.951  18.055  11.382
25301W        W93774  24.585  19.673   4.245
25302W        W93775  12.665  17.749   0.338
25303W        W93776  29.562   3.304  14.766
25304W        W93777  38.950   9.733  14.998
25305W        W93778  40.548  32.583   3.820
25306W        W93779   5.415   5.323   1.872
25307W        W93780  28.179  17.719   4.176
25308W        W93781   0.748  25.093  13.879
25309W        W93782  15.300  36.567  11.490
25310W        W93783  17.647   8.392   4.786
25311W        W93784  12.777  42.314   0.746
25312W        W93785  32.456  17.144  14.398
25313W        W93786   1.962  27.090  14.425
25314W        W93787  11.327  10.846   4.612
25315W        W93788  23.005  32.488  12.021
25316W        W93789  12.793  12.851  14.960
25317W        W93790  20.712  33.013  10.914
25318W        W93791   6.304  40.391   0.311
25319W        W93792  11.266  40.515  14.025
25320W        W93793  43.877  22.710   1.712
25321W        W93794  16.614  21.191   3.702
25322W        W93795  17.170  17.641  13.989
25323W        W93796  41.816  33.407  14.488
25324W        W93797  25.193   7.788   2.228
25325W        W93798  15.180  17.666  14.391
25326W        W93799   4.441  26.505  11.058
25327W        W93800   3.831  19.622   0.318
25328W        W93801  17.775   1.458   0.815
25329W        W93802  24.622  18.091  12.382
25330W        W93803  14.724  35.098   3.319
25331W        W93804   4.311  40.484   0.927
25332W        W93805  41.793   2.462  14.812
25333W        W93806  38.471   9.236  13.822
25334W        W93807  31.080   5.193  11.572
25335W        W93808   4.241  37.024  14.928
25336W        W93809   8.897  34.088   2.787
25337W        W93810  39.540  10.230  11.436
25338W        W93811  35.384  12.357  12.096
25339W        W93812  13.717  20.104  14.779
25340W        W93813  27.567  10.272  13.473
25341W        W93814  18.690   0.358  14.857
25342W        W93815  28.674  24.189   3.157
25343W        W93816   1.310  41.861   2.247
25344W        W93817  11.252  27.976  12.487
25345W        W93818  31.646  19.616  13.860
25346W        W93819  37.367  35.397   4.163
25347W        W93820  41.409  13.192  12.088
25348W        W93821  39.911  24.699  14.422
25349W        W93822  31.914  37.512  14.799
25350W        W93823  16.802  15.625  10.493
25351W        W93824  12.648   8.173   2.373
25352W        W93825  19.148  13.754   4.810
25353W        W93826  14.590  41.380   0.910
25354W        W93827  31.404  30.601  14.474
25355W        W93828  22.699  38.379   4.157
25356W        W93829  40.847  35.558   3.275
25357W        W93830  15.211  44.386   3.341
25358W        W93831  35.974  23.047   4.640
25359W        W93832  31.644  18.761   0.362
25360W        W93833  16.104  10.633   2.731
25361W        W93834  27.125  25.125   0.482
25362W        W93835  39.907  19.042   1.828
25363W        W93836  38.895  26.005   0.884
25364W        W93837  37.348   2.227   0.852
25365W        W93838  22.155  30.097   3.194
25366W        W93839  31.009  33.117   0.340
25367W        W93840  19.222  29.138  10.954
25368W        W93841  26.026  23.207  12.085
25369W        W93842  35.932  20.586  12.061
25370W        W93843  36.385   3.416   0.276
25371W        W93844  20.692  41.916  11.413
25372W        W93845  25.116  36.006  14.307
25373W        W93846  26.088   6.410  12.540
25374W        W93847  26.177  14.775   2.311
25375W        W93848  25.683  10.777   4.673
25376W        W93849  10.368   2.455   2.703
25377W        W93850  44.425  30.416  10.637
25378W        W93851  28.615  26.979  10.575
25379W        W93852   7.255  21.589   0.484
25380W        W93853   0.331  10.176   1.762
25381W        W93854   9.165  34.975  14.995
25382W        W93855  29.153  34.874   4.330
25383W        W93856  25.590   4.251  14.489
25384W        W93857   2.358   6.768   0.831
25385W        W93858  32.958  27.011   2.323
25386W        W93859  22.661  28.168   5.232
25387W        W93860  21.070  15.692  14.852
25388W        W93861   4.367  15.305   1.794
25389W        W93862  42.809  19.249  14.370
25390W        W93863  22.645   8.386   3.846
25391W        W93864  12.621   5.922   1.262
25392W        W93865   5.389  35.069  12.830
25393W        W93866  39.340  40.422   2.813
25394W        W93867  31.963  32.142  13.364
25395W        W93868  12.328  41.905  13.889
25396W        W93869  14.807  10.186   2.414
25397W        W93870  44.320  37.056   2.291
25398W        W93871  43.819  39.810  11.078
25399W        W93872  38.029  19.172  12.940
25400W        W93873  13.332  10.257  12.938
25401W        W93874   8.385  35.950   9.667
25402W        W93875  33.427  11.818   1.908
25403W        W93876  17.557  19.204   3.781
25404W        W93877   9.308   5.343   4.231
25405W        W93878  35.876  29.923  13.409
25406W        W93879   7.297  26.494  13.454
25407W        W93880  14.149  28.111   0.461
25408W        W93881  19.636  12.789  13.324
25409W        W93882  19.778   4.761   3.202
25410W        W93883  16.111  39.930   2.773
25411W        W93884  33.420   6.223  14.399
25412W        W93885  17.070  19.084   3.378
25413W        W93886  22.047  13.707  12.900
25414W        W93887  19.585  15.325  13.859
25415W        W93888  43.990  41.901   0.826
25416W        W93889   0.287   7.896  12.449
25417W        W93890  43.470  26.491  10.968
25418W        W93891  14.228  32.101   4.819
25419W        W93892  29.558  29.633   3.368
25420W        W93893   5.243  12.777  11.872
25421W        W93894  39.018   1.304  10.611
25422W        W93895  32.546  16.304   0.475
25423W        W93896   6.905  41.835  13.051
25424W        W93897  40.477  13.344   0.794
25425W        W93898  44.984  43.284  10.532
25426W        W93899   3.785   6.317  14.476
25427W        W93900  23.686   1.266  11.588
25428W        W93901  15.699  41.951  11.478
25429W        W93902  32.004  19.125  12.398
25430W        W93903  44.394  31.499   2.844
25431W        W93904  21.746  44.988   0.280
25432W        W93905  27.105  40.901   2.273
25433W        W93906  25.200   4.744  13.808
25434W        W93907  21.742  39.354   3.710
25435W        W93908  26.637  38.886   3.686
25436W        W93909  37.382  36.039  10.065
25437W        W93910   2.834   0.344   3.245
25438W        W93911  41.317   9.839   4.774
25439W        W93912   2.274  13.125  14.952
25440W        W93913   6.902  17.061  13.487
25441W        W93914  34.884  26.651  13.963
25442W        W93915  35.070  41.932  11.379
25443W        W93916  15.217  23.644   4.122
25444W        W93917  15.631  10.650  11.109
25445W        W93918  35.580  16.685   0.304
25446W        W93919  31.597  34.117   3.721
25447W        W93920  14.293   1.950  10.608
25448W        W93921   2.370  15.819   0.411
25449W        W93922  18.699  12.201   0.875
25450W        W93923  43.485  43.295   1.252
25451W        W93924  41.950  25.534   0.352
25452W        W93925  33.076  18.150   2.355
25453W        W93926  30.441   3.384  13.938
25454W        W93927  33.100   6.324  12.516
25455W        W93928  15.134   7.804   4.200
25456W        W93929  33.526  10.668   2.329
25457W        W93930  38.432  30.960   0.798
25458W        W93931  32.512  27.983  11.909
25459W        W93932  27.627  16.708  11.886
25460W        W93933  37.454  20.721  12.985
25461W        W93934  35.559  15.282  12.554
25462W        W93935  38.005  30.633   3.749
25463W        W93936   2.331  41.512   1.298
25464W        W93937   1.409  17.260   0.472
25465W        W93938   8.210   5.893  14.006
25466W        W93939  43.927  12.787   2.228
25467W        W93940   4.726  28.113  14.899
25468W        W93941  17.722   7.182  13.409
25469W        W93942   9.801  10.172  14.378
25470W        W93943  37.871  17.186   3.301
25471W        W93944  21.635  21.246   0.943
25472W        W93945  32.040   1.281  11.115
25473W        W93946  33.941   6.401   1.789
25474W        W93947  27.598  13.800   3.231
25475W        W93948  29.124  31.403  11.992
25476W        W93949   5.439   2.918  13.507
25477W        W93950  38.978  36.068   1.233
25478W        W93951   2.291   1.739  14.481
25479W        W93952  17.777  22.016  13.866
25480W        W93953  29.927  28.575   3.688
25481W        W93954  33.910  40.389   0.850
25482W        W93955  28.127   3.827   2.782
25483W        W93956  13.319  34.864   2.706
25484W        W93957  44.367  31.139  12.556
25485W        W93958  44.818   4.815   0.951
25486W        W93959  43.976  16.310   0.767
25487W        W93960  27.061   1.799   2.273
25488W        W93961  40.054  31.538   4.763
25489W        W93962  31.631  35.492   0.756
25490W        W93963  16.809  33.064   3.359
25491W        W93964  37.921  36.548  13.867
25492W        W93965  43.926   9.886  10.945
25493W        W93966   0.930  36.964   3.638
25494W        W93967   7.890  44.338   4.154
25495W        W93968  39.462   0.914  14.505
25496W        W93969  30.452  41.318  13.919
25497W        W93970  23.994  10.286  13.947
25498W        W93971  17.204   7.676   1.864
25499W        W93972  36.918  22.608  13.372
25500W        W93973   7.302  27.662  11.557
25501W        W93974  37.550  35.991   1.852
25502W        W93975  29.170  24.563  12.446
25503W        W93976  11.717  15.618  11.115
25504W        W93977  27.146  28.142  10.159
25505W        W93978  25.121  19.174   0.466
25506W        W93979  44.328  25.556   2.301
25507W        W93980  16.597  34.384   4.638
25508W        W93981  12.636  21.168   1.344
25509W        W93982  16.720  40.325   4.769
25510W        W93983  15.236  44.403   4.698
25511W        W93984  19.628  43.837  10.521
25512W        W93985  37.886   0.750   0.860
25513W        W93986  26.083  10.304  11.103
25514W        W93987  42.937   3.273   2.271
25515W        W93988  42.801  44.872   2.797
25516W        W93989  17.155  25.077   0.246
25517W        W93990  11.628  17.305   0.789
25518W        W93991  27.563   5.798   0.278
25519W        W93992   1.422  32.098  12.008
25520W        W93993  34.418  25.568  14.943
25521W        W93994   3.380  26.078  12.030
25522W        W93995   5.365  15.229   2.837
25523W        W93996  16.680  28.174  11.068
25524W        W93997  31.622   7.724   3.732
25525W        W93998  26.958  30.636  14.351
25526W        W93999  32.419  33.905  12.405
25527W        W94000  15.097  43.779   4.644
25528W        W94001  33.073   0.796  14.442
25529W        W94002  21.639  36.026   4.260
25530W        W94003  41.360  25.125  12.057
25531W        W94004   1.757  25.113  13.934
25532W        W94005   9.827  27.561   1.280
25533W        W94006  29.034  43.875   4.323
25534W        W94007  33.445  32.560   0.736
25535W        W94008  19.265   6.324   0.788
25536W        W94009  22.565  42.491  14.009
25537W        W94010  27.623   9.831  11.407
25538W        W94011   2.278  33.905  10.588
25539W        W94012  17.079  17.161   4.317
25540W        W94013  21.630  44.886  14.375
25541W        W94014   2.749  26.097  10.454
25542W        W94015  38.831  35.376   3.754
25543W        W94016   4.898  36.347   3.718
25544W        W94017   9.338   9.158   2.891
25545W        W94018  13.260  25.014  13.374
25546W        W94019  36.930  20.079  10.643
25547W        W94020  44.811  19.678   3.703
25548W        W94021  26.109  14.742  12.370
25549W        W94022  17.771   0.450  13.986
25550W        W94023  33.493  30.413  13.336
25551W        W94024  30.927  29.136  10.534
25552W        W94025  39.825   7.293  11.510
25553W        W94026  28.548   8.322  11.029
25554W        W94027  27.488   3.420   2.853
25555W        W94028  36.982  15.787  12.050
25556W        W94029   6.700  16.594   4.798
25557W        W94030   2.395   0.880   0.396
25558W        W94031  17.075  23.559  12.494
25559W        W94032   0.874  28.985   3.358
25560W        W94033  16.575  20.110  11.950
25561W        W94034   1.417  20.047  13.858
25562W        W94035  31.560   9.300  14.451
25563W        W94036  34.576  38.473   1.370
25564W        W94037  27.992   0.856   4.348
25565W        W94038  11.740  11.163   2.388
25566W        W94039   1.336  33.952   2.180
25567W        W94040  41.006  15.606  10.446
25568W        W94041   5.301  23.686  14.937
25569W        W94042  31.534  44.320   0.376
25570W        W94043  20.262  40.834   3.802
25571W        W94044  23.122  39.491   0.787
25572W        W94045  26.569   1.263   2.836
25573W        W94046  19.677  29.573   3.759
25574W        W94047  22.713  44.323   1.934
25575W        W94048  23.653  11.784   1.747
25576W        W94049  38.015  44.966  12.869
25577W        W94050   7.771   7.798  11.026
25578W        W94051  41.032   1.940  14.378
25579W        W94052   7.335  31.420   3.300
25580W        W94053   5.906   3.257   1.901
25581W        W94054   7.357  19.040  12.477
25582W        W94055  31.404  14.177   0.318
25583W        W94056  30.130   6.918  10.963
25584W        W94057  43.945  41.336   2.884
25585W        W94058   2.889  43.787   3.852
25586W        W94059  37.034   2.416  14.406
25587W        W94060  22.178  43.457   1.360
25588W        W94061   7.847  14.157  14.352
25589W        W94062  21.069  30.605   4.648
25590W        W94063  24.552  24.054   0.405
25591W        W94064  33.068  11.220  14.894
25592W        W94065  14.604  30.134  11.596
25593W        W94066  21.682  24.520  11.582
25594W        W94067   3.756   8.240  14.514
25595W        W94068  31.976  29.664   2.827
25596W        W94069  16.242   4.764   4.793
25597W        W94070   6.211  33.589   1.829
25598W        W94071  27.585  36.512   2.833
25599W        W94072  10.279  36.484  13.857
25600W        W94073  14.730  30.998   3.636
25601W        W94074  33.077  12.218  12.964
25602W        W94075  30.914  34.543   3.748
25603W        W94076  31.451  17.303   0.923
25604W        W94077  34.558  26.184  12.872
25605W        W94078  33.059  38.037  13.028
25606W        W94079  20.563  34.080  10.522
25607W        W94080  24.517  28.626   3.744
25608W        W94081   7.228  25.516   3.781
25609W        W94082  42.999  27.476  10.431
25610W        W94083  22.726  42.888   1.823
25611W        W94084  30.447  43.387  11.999
25612W        W94085  10.877  24.146   4.839
25613W        W94086  34.038  11.296   2.693
25614W        W94087  30.529  16.077  12.909
25615W        W94088  29.526   9.729  13.031
25616W        W94089  15.656  44.770   2.313
25617W        W94090   3.223  11.744  10.628
25618W        W94091  31.977  29.630  12.842
25619W        W94092  13.644  30.054  14.899
25620W        W94093  27.987  17.176   0.412
25621W        W94094  44.930  34.003  12.941
25622W        W94095  20.098  31.962  13.494
25623W        W94096  31.601   4.437   1.935
25624W        W94097  41.844   3.722  11.530
25625W        W94098  13.800  35.872  12.533
25626W        W94099  38.925  44.383   4.793
25627W        W94100  14.601  16.713  13.400
25628W        W94101  42.340  37.994  10.473
25629W        W94102  29.642   6.291   1.895
25630W        W94103  19.681  21.710   4.682
25631W        W94104  29.065  11.149  12.833
25632W        W94105  33.461   6.368  12.915
25633W        W94106  32.570   2.949  10.558
25634W        W94107   8.689  39.416   4.349
25635W        W94108  29.968  31.031   2.720
25636W        W94109  37.918   0.346  11.456
25637W        W94110  16.689  22.998   4.717
25638W        W94111  22.207   4.861   2.336
25639W        W94112  11.800  31.092   0.393
25640W        W94113  38.396   8.790   2.879
25641W        W94114  23.085   7.709   2.369
25642W        W94115  39.018   5.233  13.995
25643W        W94116  20.747  27.607   1.908
25644W        W94117  32.596  14.192  12.501
25645W        W94118  12.123  30.994   4.286
25646W        W94119  12.790  10.829  14.857
25647W        W94120  29.487  23.004   2.882
25648W        W94121  24.209   4.885   3.163
25649W        W94122   8.754  22.008   2.845
25650W        W94123  15.101  44.339  10.968
25651W        W94124  34.958  37.860   3.842
25652W        W94125  24.995  31.080   4.605
25653W        W94126   6.221  33.936   4.314
25654W        W94127  13.607   8.785  11.381
25655W        W94128  20.714  15.756  14.432
25656W        W94129  14.105  35.584  12.877
25657W        W94130  15.732   9.872   4.681
25658W        W94131  16.252  22.523  13.484
25659W        W94132   5.782  34.516  14.428
25660W        W94133  13.184   2.857  12.892
25661W        W94134  33.973  28.453  11.944
25662W        W94135   7.291  11.348  11.015
25663W        W94136  28.089   5.382   4.227
25664W        W94137  38.889   9.324  12.035
25665W        W94138  12.307   7.729   1.421
25666W        W94139   0.884  43.019   4.130
25667W        W94140   4.851  30.061   2.208
25668W        W94141   7.380   7.806  14.411
25669W        W94142   6.388  19.198  11.429
25670W        W94143  43.998  34.044  12.543
25671W        W94144  37.384   7.208   2.402
25672W        W94145  23.072  40.458   2.825
25673W        W94146  41.028  42.522   3.641
25674W        W94147   0.890   9.870  14.956
25675W        W94148  38.412  14.315   2.859
25676W        W94149  30.098  19.779   2.843
25677W        W94150  12.836  41.933   3.183
25678W        W94151  27.168  19.081  13.814
25679W        W94152  10.373  42.814   3.752
25680W        W94153   7.870  42.491   0.935
25681W        W94154  28.058  22.038  11.000
25682W        W94155   4.439  14.146  11.091
25683W        W94156  23.571   3.236   3.386
25684W        W94157  29.953  16.188  14.953
25685W        W94158  28.657  33.400   3.852
25686W        W94159  44.933   7.310   2.231
25687W        W94160  29.092  37.350   1.216
25688W        W94161  33.591  28.526   0.303
25689W        W94162  22.123  17.711   0.306
25690W        W94163  23.492  39.824  11.909
25691W        W94164  11.818  18.103  14.359
25692W        W94165  31.468  10.642   0.278
25693W        W94166  44.386   8.842  14.836
25694W        W94167  33.003   4.767  11.074
25695W        W94168  30.012  40.038  12.534
25696W        W94169  36.459  37.867  12.883
25697W        W94170   9.222  14.807   1.217
25698W        W94171   9.331  36.524   2.774
25699W        W94172   5.380   6.346  10.544
25700W        W94173   8.716  31.138  10.636
25701W        W94174  16.769  25.614  11.090
25702W        W94175  24.986  22.066  11.498
25703W        W94176   9.776   8.767  14.382
25704W        W94177  18.549  28.037  11.120
25705W        W94178   0.778   5.244   2.327
25706W        W94179  41.399  36.015   3.192
25707W        W94180  16.144  43.421  14.498
25708W        W94181   3.905  39.331  10.425
25709W        W94182  23.085  29.526  11.455
25710W        W94183  34.515  42.912   1.919
25711W        W94184  33.088   1.977  12.989
25712W        W94185   1.399  34.612   1.824
25713W        W94186   6.794   9.205  11.962
25714W        W94187  10.639  39.841   1.747
25715W        W94188  41.913  34.403   1.876
25716W        W94189  43.478  33.433  12.374
25717W        W94190  36.509  10.671   2.722
25718W        W94191  19.149  27.162  12.417
25719W        W94192  15.578  22.041   4.294
25720W        W94193  28.576  31.077  14.848
25721W        W94194  14.753  20.616  13.854
25722W        W94195  35.380  23.551  13.394
25723W        W94196  23.684  31.073   0.754
25724W        W94197  11.808  10.225   4.293
25725W        W94198  21.556  28.488   3.365
25726W        W94199  28.148  10.719   1.449
25727W        W94200  29.487   3.790  11.096
25728W        W94201   4.292  20.274   1.752
25729W        W94202  28.602  30.146   4.213
25730W        W94203  16.680   9.197  12.949
25731W        W94204  30.984  23.233  11.602
25732W        W94205  23.652  17.730   3.336
25733W        W94206  19.052   3.818  11.456
25734W        W94207  34.568  31.092  13.498
25735W        W94208   2.364  23.117  14.488
25736W        W94209  40.421  10.214   0.758
25737W        W94210  15.683  43.923  11.408
25738W        W94211  28.137   7.679  10.545
25739W        W94212   0.817  39.381   2.215
25740W        W94213  32.480  15.135   1.243
25741W        W94214   3.262  28.460  10.467
25742W        W94215  23.070  36.025  10.560
25743W        W94216  24.688  25.160  13.897
25744W        W94217  14.779   7.788  14.953
25745W        W94218  10.718  44.882   4.118
25746W        W94219  44.843  18.159  14.368
25747W        W94220  15.214  17.570  13.818
25748W        W94221  21.017   7.878  14.510
25749W        W94222  20.177  37.540  10.018
25750W        W94223  23.101  12.247   1.237
25751W        W94224  20.265  35.939   1.441
25752W        W94225   5.843  20.665  10.474
25753W        W94226   5.723  16.297  13.887
25754W        W94227  13.767  37.499   3.702
25755W        W94228   5.256  39.036  13.370
25756W        W94229   6.702  42.842  12.939
25757W        W94230   4.240  36.013   0.769
25758W        W94231  34.101  17.618   1.419
25759W        W94232  24.653  42.418   3.690
25760W        W94233  44.273  43.490  14.363
25761W        W94234  18.676  10.352  11.036
25762W        W94235  41.884  29.164   4.141
25763W        W94236   6.866   9.286   4.737
25764W        W94237  16.740  14.815   0.877
25765W        W94238  36.966  11.242   2.816
25766W        W94239  21.185  20.748   3.376
25767W        W94240  33.409  44.436   0.961
25768W        W94241   9.285  30.422   4.837
25769W        W94242   2.950  19.253   3.707
25770W        W94243   8.381  42.439   3.158
25771W        W94244  15.817   8.758  12.829
25772W        W94245  40.960   8.388  13.447
25773W        W94246   8.740  42.306  11.024
25774W        W94247  32.569  29.458   0.261
25775W        W94248  28.602  16.764   1.262
25776W        W94249   9.318   8.805  12.523
25777W        W94250  38.361   5.244   2.759
25778W        W94251   4.875  22.722  11.492
25779W        W94252  34.994   4.220   0.444
25780W        W94253  23.647  29.062   3.778
25781W        W94254  42.321  24.204   4.792
25782W        W94255   8.667   6.361  10.939
25783W        W94256  12.788   6.344  13.314
25784W        W94257   3.393   5.369  11.101
25785W        W94258  30.487   7.689  13.324
25786W        W94259  11.341  22.199   3.648
25787W        W94260  25.178  37.877  12.467
25788W        W94261   2.339   2.388   3.675
25789W        W94262  25.155  23.240   3.649
25790W        W94263  43.467  38.565  11.914
25791W        W94264   5.349   9.213   0.382
25792W        W94265  19.683   4.734  10.939
25793W        W94266   1.423  24.706  11.550
25794W        W94267  36.381  24.127  11.462
25795W        W94268  35.518  28.649  14.010
25796W        W94269  21.609   9.274   0.780
25797W        W94270  43.353  33.520  12.096
25798W        W94271  32.471  29.669   2.698
25799W        W94272  29.106  11.218   4.800
25800W        W94273  12.801  25.619  12.458
25801W        W94274  29.094  35.866   2.347
25802W        W94275  44.498  29.126   1.424
25803W        W94276  23.236  19.699  12.033
25804W        W94277  12.359  38.967   0.881
25805W        W94278  14.803   2.397  11.435
25806W        W94279  35.017  10.140   0.848
25807W        W94280   7.248  18.244   1.432
25808W        W94281  22.709   8.316  14.376
25809W        W94282  33.483  10.665  12.019
25810W        W94283  24.722  38.417   0.828
25811W        W94284   1.396  32.894   2.878
25812W        W94285  23.014  20.221  14.994
25813W        W94286  28.436  44.287  11.550
25814W        W94287  27.552  36.086  12.518
25815W        W94288  14.599  40.965   4.648
25816W        W94289  20.226  25.192  10.954
25817W        W94290  44.789   2.379   4.627
25818W        W94291  10.261  27.975   0.751
25819W        W94292  26.094  12.856  11.023
25820W        W94293  36.583   6.799   3.253
25821W        W94294   7.731  13.844  14.961
25822W        W94295   7.706   5.365  11.910
25823W        W94296   7.321  11.202  11.520
25824W        W94297   0.874   5.299   1.929
25825W        W94298  26.155   7.890   4.342
25826W        W94299  23.503   9.343   0.954
25827W        W94300  13.236  20.212  12.834
25828W        W94301  26.533   4.379   1.783
25829W        W94302  38.985  20.124  13.059
25830W        W94303  35.062   9.845   4.626
25831W        W94304  13.328  28.970   0.443
25832W        W94305   0.952  15.318  14.980
25833W        W94306  35.554   1.456   1.810
25834W        W94307  13.732  29.047  13.376
25835W        W94308  25.484  39.871  10.157
25836W        W94309  11.681  25.176  10.613
25837W        W94310  43.355  24.628  11.392
25838W        W94311   8.789  39.000  13.015
25839W        W94312  13.136   4.940  10.012
25840W        W94313   3.303  21.518  10.477
25841W        W94314  23.219   4.397  10.533
25842W        W94315   4.800  17.151   1.863
25843W        W94316  11.755  12.116   3.386
25844W        W94317   3.423  33.537   2.842
25845W        W94318   5.699  34.431   4.791
25846W        W94319   5.812  35.043   2.194
25847W        W94320  31.648  44.964   0.950
25848W        W94321  28.622  32.133   0.300
25849W        W94322  30.461  11.190  13.020
25850W        W94323  34.948  22.693  13.506
25851W        W94324   2.925   0.758  10.997
25852W        W94325  26.518  11.139   9.932
25853W        W94326   8.899  42.909   3.809
25854W        W94327  19.721  37.563   0.805
25855W        W94328  19.692  15.265   3.187
25856W        W94329  17.213  39.940   4.645
25857W        W94330  25.168  10.693   3.699
25858W        W94331  25.550  32.531   4.239
25859W        W94332  37.464  19.057  12.063
25860W        W94333  30.934  34.458  11.044
25861W        W94334  27.620   7.200   0.317
25862W        W94335  21.687  16.086  10.496
25863W        W94336  43.920   7.694   2.876
25864W        W94337  31.498   1.386  14.994
25865W        W94338  39.428   9.804   3.796
25866W        W94339   3.356  15.309  14.828
25867W        W94340  39.468   7.739  12.976
25868W        W94341  24.661  16.148  14.862
25869W        W94342  19.696   9.332   1.421
25870W        W94343   7.887  28.070   4.312
25871W        W94344  26.035  37.345   2.901
25872W        W94345   8.712  39.385  14.895
25873W        W94346  14.212  44.952  14.315
25874W        W94347  42.525  42.407  11.030
25875W        W94348   3.729  16.587   3.743
25876W        W94349  40.954  20.162   0.256
25877W        W94350  33.054  36.422   0.457
25878W        W94351   7.742   6.858  11.608
25879W        W94352  21.518  15.260  14.839
25880W        W94353  24.491  42.781  14.320
25881W        W94354  34.004  15.603  13.318
25882W        W94355  27.629  44.493  12.445
25883W        W94356  27.591  26.960   3.738
25884W        W94357  28.047  44.444  13.053
25885W        W94358  18.628   7.253  11.393
25886W        W94359  15.215  23.043  11.407
25887W        W94360  35.495  21.735  13.914
25888W        W94361  27.056  16.210  14.423
25889W        W94362  17.709  17.074   4.165
25890W        W94363   2.227   4.381   0.468
25891W        W94364  25.552  41.431  12.984
25892W        W94365  38.492   2.257   3.837
25893W        W94366  14.302  18.657  14.878
25894W        W94367   5.689  25.703   2.402
25895W        W94368   7.896  43.770  10.638
25896W        W94369  25.553  41.792  11.490
25897W        W94370   0.451   1.965   0.383
25898W        W94371   2.455   8.683   2.683
25899W        W94372   2.841  37.481  11.969
25900W        W94373  12.808  10.169  12.574
25901W        W94374   7.292  29.555   4.736
25902W        W94375  16.274  25.119   0.924
25903W        W94376  23.049  18.232  13.335
25904W        W94377   7.392  23.005  13.309
25905W        W94378  12.853   1.869   2.300
25906W        W94379  35.482  40.359  14.384
25907W        W94380  31.423  22.157   3.653
25908W        W94381   2.382  21.036  14.362
25909W        W94382  24.708  25.094   4.815
25910W        W94383   5.760   2.844  10.447
25911W        W94384  22.653   7.880   0.250
25912W        W94385  17.195  21.612  11.427
25913W        W94386  40.461  31.521   3.339
25914W        W94387   7.909  23.521  10.130
25915W        W94388  27.519  37.058  10.967
25916W        W94389  17.607  26.575   3.768
25917W        W94390  40.966  30.525  11.944
25918W        W94391   0.904   5.873  14.897
25919W        W94392  25.651  26.006  10.463
25920W        W94393   0.836  23.664   3.704
25921W        W94394  41.480  39.905  13.855
25922W        W94395  26.498  35.584   1.395
25923W        W94396   4.367  26.558   1.240
25924W        W94397  30.931   9.707  12.838
25925W        W94398  37.834  26.536  13.808
25926W        W94399  10.201  41.429  10.005
25927W        W94400  43.416  33.103   3.739
25928W        W94401  19.212  27.187  14.327
25929W        W94402  19.164  34.505   0.334
25930W        W94403  42.376  27.019   4.133
25931W        W94404  29.583  13.300  10.563
25932W        W94405  32.442  33.960   2.782
25933W        W94406  44.876  23.027  12.348
25934W        W94407   1.871  32.096  12.503
25935W        W94408  18.681  31.922   4.157
25936W        W94409  12.160  44.834  13.492
25937W        W94410  12.696  14.218   3.173
25938W        W94411  30.102  23.074   0.418
25939W        W94412   8.189  20.582  14.004
25940W        W94413  16.622  43.825  13.963
25941W        W94414  17.748  44.326  13.881
25942W        W94415  29.919  29.089   3.751
25943W        W94416  10.305  28.027   3.366
25944W        W94417  34.551  32.493   2.417
25945W        W94418  22.607  32.086   1.723
25946W        W94419  23.989  19.643   2.702
25947W        W94420  34.915   7.700  13.008
25948W        W94421  41.950  40.370  11.060
25949W        W94422  32.542  23.075   4.334
25950W        W94423  22.580   5.211  13.467
25951W        W94424  33.526   1.298  10.590
25952W        W94425   9.158   1.260   3.241
25953W        W94426  42.997  25.036  11.478
25954W        W94427   2.838   4.305   2.786
25955W        W94428  34.561  39.815  12.833
25956W        W94429  15.610  11.773   1.300
25957W        W94430  26.671  13.291  11.890
25958W        W94431   4.212   4.762  13.885
25959W        W94432   2.254  35.060  11.559
25960W        W94433  23.663  25.497  13.894
25961W        W94434  35.371   5.885   3.325
25962W        W94435   4.244  17.715   1.709
25963W        W94436   3.292  43.018   3.291
25964W        W94437   0.904  14.313   1.284
25965W        W94438   9.788  21.737   4.645
25966W        W94439  12.158  16.096  12.499
25967W        W94440  15.232   5.350   1.274
25968W        W94441  34.562  25.494  12.566
25969W        W94442  39.425  11.804  14.858
25970W        W94443  38.454  43.295   1.934
25971W        W94444  36.439  38.380   0.244
25972W        W94445  29.648  15.211  12.830
25973W        W94446  12.118  30.054  12.357
25974W        W94447   7.259  37.435   2.810
25975W        W94448  28.576  20.033  11.517
25976W        W94449   3.295  35.534  13.325
25977W        W94450  28.464  24.596  10.642
25978W        W94451  30.484  33.542   3.726
25979W        W94452  21.255  23.148   1.875
25980W        W94453  38.006  10.643   0.963
25981W        W94454   2.258   9.282   1.303
25982W        W94455   0.773   2.836  14.771
25983W        W94456   6.699  42.389   2.228
25984W        W94457   8.186  13.247  11.022
25985W        W94458  41.386   1.363  11.528
25986W        W94459  42.778   6.732  10.953
25987W        W94460  19.233   2.325   3.219
25988W        W94461  30.911  44.294  12.483
25989W        W94462  42.298   1.309   3.745
25990W        W94463   4.801  36.034  13.974
25991W        W94464  11.178  18.265  14.380
25992W        W94465  22.089  32.097   2.271
25993W        W94466  23.212  25.218   3.747
25994W        W94467  17.760  16.576   4.771
25995W        W94468  29.991   1.958  13.039
25996W        W94469   4.449  42.885   4.814
25997W        W94470   8.293  35.077   3.870
25998W        W94471   0.349  39.547   0.440
25999W        W94472  38.968  29.542  12.452
26000W        W94473  36.855  43.017   2.868
26001W        W94474   6.231  28.678   3.263
26002W        W94475  31.076  34.556   0.282
26003W        W94476  44.425  10.333  14.404
26004W        W94477   1.362  39.408   0.869
26005W        W94478   5.310  10.329   4.705
26006W        W94479  38.027   3.368   3.660
26007W        W94480  25.658   5.805   1.769
26008W        W94481  13.649  11.622  13.455
26009W        W94482  21.159  16.709  11.982
26010W        W94483   0.933  15.219   0.878
26011W        W94484  29.632  32.426  14.469
26012W        W94485  37.855  11.332  14.300
26013W        W94486   5.922  26.011  12.453
26014W        W94487  35.469  14.139   0.347
26015W        W94488  24.128  25.078   0.892
26016W        W94489   3.456  12.767  12.453
26017W        W94490  17.235   2.862  10.941
26018W        W94491  32.014   4.858   0.342
26019W        W94492   9.818  10.219   3.369
26020W        W94493  13.633  24.054   3.170
26021W        W94494  40.401   5.729  12.987
26022W        W94495  19.691   6.886  14.787
26023W        W94496  22.627  41.398  12.033
26024W        W94497  33.610  31.082   2.805
26025W        W94498  23.006  20.264   4.325
26026W        W94499  20.547   9.694  14.952
26027W        W94500   9.654  14.777  11.477
26028W        W94501  25.585  29.503   2.189
26029W        W94502   0.776   0.349  11.609
26030W        W94503  41.971  17.602   2.820
26031W        W94504  42.849  21.023   1.904
26032W        W94505  26.190  23.628  11.565
26033W        W94506  37.064  27.044   0.832
26034W        W94507  37.062  22.689  12.538
26035W        W94508  28.177  32.944  11.871
26036W        W94509  14.106  28.609   3.777
26037W        W94510  36.032  26.177   4.801
26038W        W94511  44.304  26.128   1.820
26039W        W94512  31.036  37.528  12.446
26040W        W94513  25.024  24.553   1.424
26041W        W94514  22.726  30.511   1.915
26042W        W94515  26.560  18.239  14.787
26043W        W94516   4.352  44.459  13.055
26044W        W94517  40.956  27.132  13.812
26045W        W94518  41.306   1.354   0.792
26046W        W94519  41.970  38.820  14.421
26047W        W94520   9.736  31.129   0.427
26048W        W94521  40.541  29.029   0.895
26049W        W94522  33.880  21.755   0.306
26050W        W94523  40.494  32.973   2.383
26051W        W94524  14.329  34.955  13.008
26052W        W94525   1.784  32.609  12.017
26053W        W94526  15.166  13.314  11.426
26054W        W94527   9.394  18.295  11.525
26055W        W94528   8.835   7.898  13.326
26056W        W94529  24.988  32.945  11.503
26057W        W94530  42.917  16.647   1.367
26058W        W94531  20.045  39.057   2.383
26059W        W94532  20.030  40.529  10.494
26060W        W94533  13.105   9.208  13.367
26061W        W94534   7.182  33.485   1.726
26062W        W94535  15.185   0.266  12.967
26063W        W94536  27.607   9.188  10.427
26064W        W94537  26.511   4.348   2.724
26065W        W94538  15.620  26.480   4.258
26066W        W94539  23.653  43.862  11.862
26067W        W94540   0.787  12.231  14.503
26068W        W94541  26.460  22.093  14.776
26069W        W94542  28.076  23.631   4.152
26070W        W94543  22.515  10.797  12.876
26071W        W94544  33.119  20.128  13.510
26072W        W94545  32.457  37.947   1.851
26073W        W94546  14.314  29.542   2.216
26074W        W94547  21.113   1.796   1.773
26075W        W94548   8.794  20.691  10.917
26076W        W94549  39.533  26.525  10.931
26077W        W94550  27.126  29.158  14.872
26078W        W94551  19.614   3.768   1.815
26079W        W94552  26.619  31.026  11.574
26080W        W94553  43.787  30.929   3.676
26081W        W94554   7.665  16.633  14.423
26082W        W94555  26.029  30.089  12.841
26083W        W94556  32.443  42.962  11.378
26084W        W94557  30.009  31.536   4.121
26085W        W94558  13.125  22.615  12.866
26086W        W94559   7.333   9.861  12.462
26087W        W94560  42.336  23.720  10.581
26088W        W94561  41.337  11.675  13.031
26089W        W94562  41.302  38.009   3.379
26090W        W94563  14.128  23.009   4.269
26091W        W94564  24.111  32.628   0.867
26092W        W94565   9.852  38.000  12.446
26093W        W94566  38.861   5.688   2.279
26094W        W94567   2.431  42.948   1.275
26095W        W94568  16.766  18.745  14.447
26096W        W94569  27.584   8.250   2.192
26097W        W94570  28.452  34.097   1.384
26098W        W94571  40.453  36.882  10.509
26099W        W94572  32.894  10.812  14.894
26100W        W94573  22.691   0.373   2.355
26101W        W94574  28.078  29.612   0.384
26102W        W94575  44.328  32.535  13.882
26103W        W94576  32.940  40.004  13.806
26104W        W94577  41.292  36.948   1.267
26105W        W94578  43.484  38.013   2.391
26106W        W94579   2.909  31.929   3.754
26107W        W94580  17.167  14.777   1.224
26108W        W94581  23.237  35.864   1.724
26109W        W94582  28.996  33.536  14.020
26110W        W94583  22.050  13.233  10.600
26111W        W94584  26.568  33.564  11.387
26112W        W94585   1.962  30.513  11.063
26113W        W94586  31.402  42.998  14.347
26114W        W94587  20.652   0.783   2.245
26115W        W94588  19.582  19.717   0.253
26116W        W94589  18.754  34.925  11.554
26117W        W94590  37.947  34.005   3.782
26118W        W94591  36.028  37.970   3.682
26119W        W94592  12.801   7.819   1.711
26120W        W94593  20.701  44.466   3.252
26121W        W94594  27.140   8.704   4.179
26122W        W94595  15.579  30.419   4.314
26123W        W94596  15.223  40.948  11.038
26124W        W94597  25.038  37.438   1.722
26125W        W94598   0.919  21.196  10.994
26126W        W94599   1.789   5.695  14.503
26127W        W94600  24.514  33.984   1.872
26128W        W94601  13.236  28.577   3.284
26129W        W94602  42.940  10.799  12.420
26130W        W94603   9.175  22.207   2.813
26131W        W94604  19.705  43.956  14.332
26132W        W94605  26.513  14.330   2.196
26133W        W94606  42.432   8.803   4.332
26134W        W94607  39.846  11.826   0.946
26135W        W94608  26.676  44.373   0.414
26136W        W94609  13.256  38.840  12.424
26137W        W94610  43.412  34.537  11.084
26138W        W94611  41.912   6.888   2.898
26139W        W94612  21.656  16.687   2.859
26140W        W94613  38.394  10.834  10.468
26141W        W94614   3.366  15.143   9.949
26142W        W94615   5.899   7.207   0.319
26143W        W94616   0.346  23.633  13.499
26144W        W94617  11.789  13.811  14.516
26145W        W94618   5.851  41.898   3.292
26146W        W94619  36.371  43.886   3.771
26147W        W94620   6.913   8.877  14.419
26148W        W94621  25.605   9.369   3.260
26149W        W94622  37.930  28.572  13.036
26150W        W94623  20.028  15.633   1.859
26151W        W94624   5.356   4.785   3.264
26152W        W94625  27.512  31.115  13.947
26153W        W94626  43.937  29.967  12.863
26154W        W94627  12.692   4.317  12.016
26155W        W94628  15.153  40.341   0.433
26156W        W94629  12.727   2.889  14.384
26157W        W94630  15.109  33.883   3.648
26158W        W94631  17.671   6.775  11.607
26159W        W94632   7.180  30.549   3.826
26160W        W94633   7.281  34.569   4.789
26161W        W94634   1.905  12.766  10.427
26162W        W94635  11.847  30.599   3.778
26163W        W94636  33.130  15.137   1.323
26164W        W94637  16.745  42.314   2.838
26165W        W94638  17.781  19.568  13.832
26166W        W94639  33.911  20.563   0.917
26167W        W94640  43.819  30.541   0.292
26168W        W94641  32.462   0.315  11.373
26169W        W94642  16.234  40.050  13.039
26170W        W94643  16.146  34.409  10.471
26171W        W94644  37.055  20.566   4.158
26172W        W94645   6.209   1.841   4.331
26173W        W94646   8.665   0.469  11.062
26174W        W94647  41.380  28.976   2.245
26175W        W94648  22.685   5.410   9.977
26176W        W94649  32.084  10.851  11.923
26177W        W94650  10.348   9.846  11.373
26178W        W94651   7.202  19.211   2.845
26179W        W94652  44.848  30.086  12.941
26180W        W94653  32.634   2.790   4.726
26181W        W94654  27.672   9.284  13.983
26182W        W94655  30.958  38.565  14.965
26183W        W94656  20.584  10.690  14.402
26184W        W94657  17.562   9.307  14.797
26185W        W94658  31.506  29.575  12.455
26186W        W94659  28.078  18.233   2.220
26187W        W94660  20.076  26.124   0.386
26188W        W94661  25.964   7.774  12.932
26189W        W94662  44.477  34.936   3.250
26190W        W94663  40.007  33.100  11.092
26191W        W94664  35.400   4.857  12.987
26192W        W94665  32.619  41.371   2.894
26193W        W94666  11.329   2.431   4.191
26194W        W94667  40.975  32.934   2.303
26195W        W94668   9.792  18.270  11.863
26196W        W94669  19.248  19.061  13.436
26197W        W94670  16.807   8.761  14.818
26198W        W94671  24.192   6.335   3.774
26199W        W94672  16.719  25.104   3.782
26200W        W94673   8.370   1.411   0.803
26201W        W94674  18.115  33.967   2.393
26202W        W94675  27.533  24.648  11.453
26203W        W94676  11.226  17.068   3.744
26204W        W94677   6.815   1.403  12.011
26205W        W94678  26.545  12.742   0.766
26206W        W94679  20.718  39.875   1.745
26207W        W94680  44.900  33.899   2.808
26208W        W94681  16.136  10.208   0.864
26209W        W94682   1.481  28.178  12.025
26210W        W94683  14.603  12.651   2.797
26211W        W94684  42.819   8.314  13.975
26212W        W94685   2.262   7.894   4.280
26213W        W94686   6.192  34.084   0.876
26214W        W94687  37.567  36.844  11.097
26215W        W94688  35.930  22.561   3.167
26216W        W94689   0.767  20.734  11.027
26217W        W94690  14.809  21.616  10.960
26218W        W94691   8.835   8.170  12.890
26219W        W94692  17.658   8.213  13.041
26220W        W94693  21.577   8.208  10.517
26221W        W94694  37.427   8.263  10.426
26222W        W94695  19.752  17.085  10.993
26223W        W94696   7.262  18.134   2.672
26224W        W94697   2.266   7.358   2.786
26225W        W94698  10.358  16.177  11.610
26226W        W94699  21.237  10.357  10.609
26227W        W94700  37.931  17.736   1.709
26228W        W94701   0.866  31.092  14.941
26229W        W94702   4.218   4.307   3.162
26230W        W94703  26.202  13.329   1.395
26231W        W94704  20.646  24.031  12.385
26232W        W94705  39.489  30.567   2.830
26233W        W94706  28.010  42.779  13.408
26234W        W94707  31.408  19.774   4.738
26235W        W94708  18.217  17.715  14.787
26236W        W94709   5.708  40.462   2.341
26237W        W94710  14.189  29.953   0.339
26238W        W94711  38.885  44.977  13.542
26239W        W94712   4.269  26.477   0.367
26240W        W94713  15.228  29.026   1.442
26241W        W94714   1.470  11.373  12.498
26242W        W94715   1.462   9.171   2.341
26243W        W94716  15.760  11.747   3.236
26244W        W94717  40.052  40.377  10.522
26245W        W94718  21.140   4.787   3.381
26246W        W94719  18.600  12.335  14.973
26247W        W94720  12.321  18.122  14.841
26248W        W94721  29.522  36.479   3.174
26249W        W94722  39.888  10.346   0.451
26250W        W94723  21.605  32.119   3.380
26251W        W94724  29.557  36.447  10.457
26252W        W94725  38.370  21.717   4.732
26253W        W94726  12.345  25.112  13.967
26254W        W94727  11.194  30.648  10.609
26255W        W94728   5.880   3.732   0.251
26256W        W94729  23.064  30.924  11.047
26257W        W94730   8.204   5.336   0.862
26258W        W94731   4.213  32.631  11.016
26259W        W94732  28.601  32.542  11.858
26260W        W94733  13.325  26.672  14.026
26261W        W94734  33.444  19.160   3.183
26262W        W94735  39.988   1.767  13.023
26263W        W94736   1.912  22.567   3.213
26264W        W94737   1.289  16.284   0.888
26265W        W94738   1.819  37.424   0.251
26266W        W94739  15.773   6.339   4.288
26267W        W94740  40.922  34.594   1.828
26268W        W94741   8.674  14.100   3.676
26269W        W94742  32.440  24.024  10.544
26270W        W94743  25.080  13.797  13.349
26271W        W94744  24.068  18.058   2.749
26272W        W94745   7.171  42.963  10.998
26273W        W94746  36.528  29.996  13.500
26274W        W94747  31.410   2.839   1.239
26275W        W94748   5.254   2.851  10.436
26276W        W94749  23.045  24.621   0.327
26277W        W94750  28.662  16.226  12.894
26278W        W94751  20.647   4.241  10.549
26279W        W94752  24.105  40.401  11.958
26280W        W94753  10.277  15.302   1.295
26281W        W94754   7.347  22.598   2.893
26282W        W94755  31.431   3.314  13.411
26283W        W94756  44.502  44.943  13.023
26284W        W94757  33.588  17.307  11.588
26285W        W94758  12.329  22.053  13.876
26286W        W94759  36.892  33.409   0.267
26287W        W94760  15.264  32.085   0.772
26288W        W94761  30.618  43.795   1.794
26289W        W94762   7.258  24.592  12.045
26290W        W94763  36.360   5.239  13.536
26291W        W94764  24.079  18.713   3.199
26292W        W94765  35.558  30.126  14.888
26293W        W94766   4.280  19.605   2.360
26294W        W94767  36.984  13.134   4.118
26295W        W94768   4.736  37.399   5.166
26296W        W94769   4.880  18.127  11.908
26297W        W94770  35.502   9.323   1.909
26298W        W94771  20.528  44.358   1.853
26299W        W94772   7.203  20.750   4.281
26300W        W94773  36.441  16.571  11.475
26301W        W94774  22.642  36.852  11.433
26302W        W94775   6.415  42.282  10.483
26303W        W94776  43.435   1.475   2.802
26304W        W94777  26.179  37.461  13.861
26305W        W94778  13.159  33.625   1.308
26306W        W94779  13.746   3.942  13.819
26307W        W94780   0.831   3.917  13.333
26308W        W94781  19.229  35.050   0.316
26309W        W94782  34.060  16.145  14.861
26310W        W94783   3.718  36.431   2.677
26311W        W94784  36.977  22.064  11.606
26312W        W94785   4.339  31.008  12.459
26313W        W94786  15.324  40.955   1.299
26314W        W94787  27.647   8.194  13.875
26315W        W94788  42.013  31.642  11.126
26316W        W94789  18.599  21.173   1.846
26317W        W94790  30.048   9.737   2.214
26318W        W94791  24.668  42.809  13.829
26319W        W94792   6.342  36.076  11.085
26320W        W94793   6.728   8.399   0.479
26321W        W94794   1.307  35.930  14.400
26322W        W94795  33.104   3.764  13.901
26323W        W94796  39.374   1.352  13.031
26324W        W94797  30.586  39.406  11.562
26325W        W94798  12.781  11.659  14.435
26326W        W94799   7.362  18.143  12.951
26327W        W94800  14.685   9.680  14.333
26328W        W94801   6.771   4.944   1.288
26329W        W94802  44.413  20.204   1.399
26330W        W94803  17.157  32.931   0.726
26331W        W94804   8.679  18.696   3.851
26332W        W94805  31.048  17.194   5.240
26333W        W94806  40.917  42.893   0.447
26334W        W94807  27.070   4.834   4.218
26335W        W94808  11.244  13.209  14.489
26336W        W94809  19.540  21.516   4.212
26337W        W94810  22.015  38.415   1.793
26338W        W94811  23.558  26.134   5.219
26339W        W94812  12.308  36.543   2.684
26340W        W94813  36.877  23.675  10.621
26341W        W94814  28.152   2.922  13.816
26342W        W94815  28.482   6.337   0.732
26343W        W94816   4.320  19.259   3.284
26344W        W94817  32.986  10.680  13.850
26345W        W94818   3.327  18.598   3.315
26346W        W94819  30.482  23.501   4.751
26347W        W94820  39.550  30.926   3.839
26348W        W94821  41.356  39.559  10.513
26349W        W94822   4.274  32.390   3.663
26350W        W94823  22.197   1.450  14.761
26351W        W94824  39.315  36.449  14.963
26352W        W94825  44.772  25.586  12.018
26353W        W94826  16.309  20.721  13.311
26354W        W94827  25.663  27.019  10.912
26355W        W94828  30.063   7.745   0.406
26356W        W94829  17.712  24.671   2.227
26357W        W94830   3.285  18.692  14.854
26358W        W94831  25.574  11.223   2.845
26359W        W94832  25.057   6.369   0.357
26360W        W94833  36.075  15.687   2.671
26361W        W94834  22.032   6.409   2.900
26362W        W94835  13.258   9.376   0.342
26363W        W94836   6.386  35.438   3.651
26364W        W94837  43.338   8.708  10.916
26365W        W94838  33.932  26.170   3.810
26366W        W94839   3.766  35.405  14.349
26367W        W94840  44.324   4.936   0.929
26368W        W94841  34.092  13.318  10.964
26369W        W94842  38.043   2.360   0.840
26370W        W94843  33.521   6.401  13.370
26371W        W94844  38.946  33.455  12.985
26372W        W94845  24.019   1.394  13.953
26373W        W94846  44.333  41.042   0.747
26374W        W94847  18.790  33.108   1.853
26375W        W94848  38.837  38.963  14.302
26376W        W94849  14.734  34.069   1.922
26377W        W94850  38.001  34.014  12.867
26378W        W94851  27.552  24.507  13.822
26379W        W94852  14.272  29.021   3.758
26380W        W94853  39.968  10.295   2.826
26381W        W94854  40.974  18.655   1.912
26382W        W94855  20.149  29.557   4.313
26383W        W94856  18.597  14.174   4.113
26384W        W94857   0.766  25.013  11.051
26385W        W94858  42.793   3.236   3.187
26386W        W94859  44.819  44.875   1.301
26387W        W94860   3.399   4.206  13.031
26388W        W94861  39.466   2.401   1.780
26389W        W94862   6.716  40.346  11.895
26390W        W94863   1.959  10.297  14.932
26391W        W94864  10.634  23.237   5.321
26392W        W94865  37.977  25.650  13.348
26393W        W94866  39.392  33.886   1.390
26394W        W94867  40.832  33.595  12.837
26395W        W94868   8.669   9.877   3.779
26396W        W94869   5.297   8.783  11.582
26397W        W94870  34.036  23.009  13.526
26398W        W94871  41.810  41.418  14.293
26399W        W94872  35.098  22.111  12.340
26400W        W94873  32.002   5.408   0.823
26401W        W94874   8.821  12.727   0.386
26402W        W94875  26.207  36.999  13.819
26403W        W94876   0.331   8.315   1.330
26404W        W94877  25.594   7.377  12.435
26405W        W94878   7.343  28.043   1.431
26406W        W94879  17.660  32.465  12.010
26407W        W94880  10.719  43.423  11.956
26408W        W94881   3.916  20.117   3.171
26409W        W94882  13.237   4.439   0.931
26410W        W94883  31.603   3.774   2.803
26411W        W94884   0.476  22.234   1.871
26412W        W94885   1.810  11.778   0.879
26413W        W94886   3.233  27.627   1.318
26414W        W94887  24.995  14.601   2.258
26415W        W94888  31.946  27.945   4.812
26416W        W94889   9.297  42.419   4.146
26417W        W94890  28.961  24.138  14.998
26418W        W94891   0.808  35.004   3.841
26419W        W94892  34.019  10.200   1.430
26420W        W94893   8.853   2.735   1.417
26421W        W94894  42.031  22.217  10.930
26422W        W94895  22.673  18.628  12.853
26423W        W94896  18.679  32.510   0.275
26424W        W94897  14.320  33.437  11.078
26425W        W94898  26.139  26.022  10.467
26426W        W94899  12.202  25.538  14.774
26427W        W94900   9.662   1.822   0.371
26428W        W94901  30.920   3.755  10.564
26429W        W94902  41.404  39.927   1.250
26430W        W94903  30.433  16.592  13.955
26431W        W94904   3.736  19.268  11.060
26432W        W94905  16.310  40.417  14.967
26433W        W94906   9.780  38.885   0.893
26434W        W94907  17.604  23.038   4.598
26435W        W94908  22.045   6.301  12.868
26436W        W94909  16.783  14.299  14.386
26437W        W94910  37.449   1.345  10.538
26438W        W94911  32.908  17.654   1.793
26439W        W94912  39.945  16.568   4.230
26440W        W94913  17.146  39.507  14.401
26441W        W94914  28.635  42.830   4.718
26442W        W94915  35.909  27.545   1.819
26443W        W94916   9.868  32.442   1.821
26444W        W94917  26.639  14.787  13.957
26445W        W94918   5.204  31.095  13.952
26446W        W94919  33.932  17.710   2.724
26447W        W94920  27.579  40.988  13.443
26448W        W94921  42.023  36.867  12.471
26449W        W94922   2.929  38.953   4.126
26450W        W94923  18.182  22.122  13.043
26451W        W94924   8.315   5.719   5.690
26452W        W94925  37.421  28.006  11.945
26453W        W94926  38.924   4.715  11.057
26454W        W94927   6.737  28.082  12.825
26455W        W94928   6.189   3.945  12.468
26456W        W94929   1.466  42.023   3.745
26457W        W94930  35.422  34.450   0.451
26458W        W94931   0.270  16.680   0.256
26459W        W94932  42.376  31.012   0.362
26460W        W94933  37.383   0.250   9.981
26461W        W94934  10.245  26.057   2.178
26462W        W94935  25.158   2.255  12.847
26463W        W94936  31.502  24.550   1.267
26464W        W94937  32.616  31.495   1.387
26465W        W94938  28.942  20.758   4.812
26466W        W94939  32.479   3.221   0.371
26467W        W94940  12.262  10.210   1.258
26468W        W94941  20.255  28.518  13.954
26469W        W94942   0.471   8.309  11.962
26470W        W94943   7.838   7.699  12.352
26471W        W94944  39.512  12.176   3.293
26472W        W94945  35.881   7.787   0.918
26473W        W94946  31.000  11.242   4.173
26474W        W94947  26.623  35.018  11.991
26475W        W94948  28.651  12.836  11.479
26476W        W94949  17.595   6.699   4.675
26477W        W94950  21.662  31.441   1.431
26478W        W94951   7.358  24.143  11.111
26479W        W94952  19.656  12.641  12.448
26480W        W94953  32.010   4.273   3.369
26481W        W94954   6.393  21.180   1.421
26482W        W94955  27.459  32.406  10.509
26483W        W94956   8.684   1.350  14.342
26484W        W94957  32.933  38.563  14.022
26485W        W94958  44.933  23.579  10.896
26486W        W94959  19.120  10.344  13.901
26487W        W94960  32.497  28.087   0.258
26488W        W94961  23.094  23.707  13.346
26489W        W94962   0.788   6.881   1.406
26490W        W94963  19.116  25.039  14.771
26491W        W94964   7.346  27.956   2.712
26492W        W94965  11.287  36.519  12.923
26493W        W94966  44.905  41.538   2.253
26494W        W94967  16.168  26.191  10.572
26495W        W94968  15.797  38.027   1.275
26496W        W94969   4.749  36.902  13.389
26497W        W94970  31.912  35.091   4.278
26498W        W94971   4.275  23.554  11.076
26499W        W94972  38.847   5.729   5.301
26500W        W94973   2.814  17.290  14.885
26501W        W94974  18.105  30.026  12.919
26502W        W94975   9.302  34.031  12.031
26503W        W94976   7.364   4.365   1.399
26504W        W94977  14.638   7.241  12.575
26505W        W94978  35.588  24.649   0.279
26506W        W94979  17.085  22.646  12.029
26507W        W94980   0.900  11.642  11.068
26508W        W94981  36.889  29.659  12.402
26509W        W94982  14.608  14.716  11.971
26510W        W94983  42.924  14.306  14.947
26511W        W94984   3.949   0.933  11.005
26512W        W94985   7.327  44.976  12.537
26513W        W94986  13.675   0.374  13.361
26514W        W94987  40.459  33.099  12.391
26515W        W94988   1.240  33.569   3.192
26516W        W94989  10.377  34.095   0.795
26517W        W94990   9.667  33.039   1.790
26518W        W94991  22.068  37.916   4.647
26519W        W94992  35.375   7.269  12.037
26520W        W94993  35.399   3.817  10.964
26521W        W94994  10.319  39.974   1.758
26522W        W94995  43.979  14.197  12.948
26523W        W94996  33.907  44.880   3.728
26524W        W94997  36.448  15.737  13.474
26525W        W94998  31.907   5.881   3.678
26526W        W94999  32.560  40.425  13.317
26527W        W95000  19.697   3.456  10.132
26528W        W95001  33.407  15.791   1.919
26529W        W95002  13.307   1.734   3.210
26530W        W95003  12.308  37.469   2.266
26531W        W95004  11.236  17.178  12.563
26532W        W95005   6.202  25.693  10.908
26533W        W95006  43.374  31.583  13.822
26534W        W95007  13.176  39.871   4.273
26535W        W95008  21.717  19.135  10.408
26536W        W95009  10.234  29.954  13.463
26537W        W95010   3.916  32.554   3.792
26538W        W95011  15.113  40.391  13.381
26539W        W95012   8.676  39.363   3.320
26540W        W95013  15.228  26.487   3.232
26541W        W95014   0.267  41.292   4.735
26542W        W95015   5.394  36.473  14.828
26543W        W95016  21.192   0.895   1.318
26544W        W95017  42.369  14.648  13.839
26545W        W95018  16.150  18.233   0.848
26546W        W95019   0.412  23.212   2.289
26547W        W95020  43.771  43.414  14.441
26548W        W95021  26.554  31.015  13.407
26549W        W95022   2.397  39.851   1.846
26550W        W95023  32.599  18.153  13.548
26551W        W95024  38.918  29.497  11.932
26552W        W95025  28.146  38.997   1.294
26553W        W95026   5.234  16.251   0.880
26554W        W95027   8.381  14.158  14.435
26555W        W95028  38.842  13.342  10.126
26556W        W95029  38.535  36.957   4.247
26557W        W95030  12.213   2.873  10.569
26558W        W95031  40.965  36.521  13.974
26559W        W95032   6.287  28.158  12.061
26560W        W95033   7.908   8.231   1.839
26561W        W95034  27.002  13.810  14.449
26562W        W95035   5.721   3.407  10.020
26563W        W95036   3.710  32.470  14.304
26564W        W95037   9.730  24.991   0.431
26565W        W95038  41.015  36.988   1.854
26566W        W95039  37.365  36.083   1.308
26567W        W95040   6.415  29.603  11.376
26568W        W95041  31.525  16.166   1.303
26569W        W95042  17.141  42.922   3.312
26570W        W95043  10.232   5.911  10.539
26571W        W95044  44.418  34.987   4.802
26572W        W95045   9.858  21.226   0.481
26573W        W95046  12.833  24.218   1.894
26574W        W95047   7.693  11.832   1.803
26575W        W95048  42.311  20.159   3.747
26576W        W95049  28.533  22.247  13.970
26577W        W95050  34.523  20.086   0.315
26578W        W95051  29.520  15.117  14.889
26579W        W95052  30.036  29.039   0.963
26580W        W95053   3.455  40.305  11.933
26581W        W95054   3.324  41.859   5.214
26582W        W95055  22.100  28.174  13.435
26583W        W95056   9.391  28.516  14.803
26584W        W95057  28.980  28.094  13.341
26585W        W95058  19.580  15.675   3.734
26586W        W95059  38.970  28.494   2.389
26587W        W95060  17.774  31.997   0.787
26588W        W95061   9.873  28.660   2.843
26589W        W95062   9.848  12.238   3.700
26590W        W95063   5.764  21.120  10.911
26591W        W95064   1.413   6.412   4.772
26592W        W95065  33.936  23.079   0.956
26593W        W95066   1.964  16.782   1.739
26594W        W95067  40.517  22.606   3.847
26595W        W95068   9.728  24.136  10.559
26596W        W95069  20.687  19.165  14.442
26597W        W95070  36.545  25.145   4.186
26598W        W95071  36.440  15.746  10.921
26599W        W95072   1.907  21.669   4.182
26600W        W95073  10.144  40.327   2.828
26601W        W95074  10.316  15.588   4.598
26602W        W95075  21.556  36.952  13.410
26603W        W95076  43.297  18.662  10.447
26604W        W95077  23.628  32.013  11.027
26605W        W95078  33.979  34.079  13.928
26606W        W95079  14.740  28.965   1.370
26607W        W95080   2.801   4.938   4.138
26608W        W95081   0.851  19.615   1.217
26609W        W95082  21.601  28.611  10.600
26610W        W95083  43.354   1.331   4.703
26611W        W95084  34.908   2.955  13.996
26612W        W95085   9.332  13.267   4.685
26613W        W95086  37.393  33.458  13.799
26614W        W95087  35.472  14.244  13.845
26615W        W95088  39.542   9.151   3.837
26616W        W95089  12.780  12.237  12.090
26617W        W95090  12.254  37.522   3.265
26618W        W95091  27.681   2.352   2.791
26619W        W95092  14.799   5.857   0.801
26620W        W95093  34.110  12.345  13.852
26621W        W95094  24.564  41.469   2.848
26622W        W95095  15.725  17.085  12.438
26623W        W95096   1.342  31.961   3.864
26624W        W95097  13.135  30.109   0.816
26625W        W95098  16.240  23.223  12.986
26626W        W95099  11.639  17.684  13.986
26627W        W95100  22.638  37.513   1.318
26628W        W95101  42.909  15.196  11.916
26629W        W95102  27.125  12.170   3.194
26630W        W95103  42.016   0.785   1.706
26631W        W95104   5.309  13.112  13.489
26632W        W95105  39.494  23.582  11.488
26633W        W95106  29.016  41.003   4.818
26634W        W95107  22.738  22.232   4.660
26635W        W95108   1.239  32.620   0.865
26636W        W95109   1.279   1.939  14.447
26637W        W95110   7.246   2.446   1.920
26638W        W95111  28.968  24.030   1.315
26639W        W95112  22.607  42.431  11.039
26640W        W95113  35.486   8.189   1.298
26641W        W95114   3.222  42.501   3.245
26642W        W95115  38.067  36.444   2.867
26643W        W95116   1.252  41.493   3.171
26644W        W95117  34.373  43.439   4.319
26645W        W95118  25.204   5.752   3.674
26646W        W95119  22.549  17.224   3.837
26647W        W95120  17.630  15.093   1.280
26648W        W95121  24.069   9.328   3.652
26649W        W95122  43.018  38.847   4.772
26650W        W95123  42.025  44.879  13.404
26651W        W95124  31.471  23.565   5.771
26652W        W95125  13.787  38.399   2.242
26653W        W95126   4.439  40.939  11.923
26654W        W95127  30.908  24.657   2.266
26655W        W95128  42.909  34.019  11.595
26656W        W95129  36.907  37.575  13.871
26657W        W95130   2.229  26.165   4.721
26658W        W95131  39.809   2.424  13.026
26659W        W95132  35.970   2.791   0.283
26660W        W95133  35.424  16.266   3.679
26661W        W95134   7.709  12.156   3.665
26662W        W95135   0.420  20.767   2.292
26663W        W95136   4.258  12.311   0.378
26664W        W95137   7.833  44.433   4.838
26665W        W95138  38.540  12.287  10.580
26666W        W95139  41.364  23.644   0.259
26667W        W95140  27.474  16.216  12.973
26668W        W95141  20.681  24.219   3.655
26669W        W95142  18.790  10.725  10.930
26670W        W95143  12.247  42.446  12.948
26671W        W95144  10.797  42.981   2.719
26672W        W95145  14.698  14.114   0.751
26673W        W95146  34.401  22.093  11.533
26674W        W95147   6.391  25.085  12.496
26675W        W95148  22.601   8.790   5.148
26676W        W95149  12.325   8.706   3.321
26677W        W95150  20.672  11.795  14.440
26678W        W95151  22.520  13.659   1.798
26679W        W95152   0.800   6.413   2.696
26680W        W95153  26.104  43.778  13.868
26681W        W95154   6.744  36.540  11.598
26682W        W95155  15.173   9.200   3.145
26683W        W95156   9.348  43.942  13.399
26684W        W95157  27.628  16.228  11.595
26685W        W95158  41.014  24.532  14.932
26686W        W95159  30.943  12.238   0.948
26687W        W95160  39.324  39.884  13.504
26688W        W95161  25.074  37.019   3.320
26689W        W95162  23.538   6.282   2.823
26690W        W95163  10.378  38.555   0.733
26691W        W95164  35.922   4.891   4.635
26692W        W95165  14.644  22.121   3.212
26693W        W95166   9.272  41.976   0.918
26694W        W95167   8.883  44.799  12.066
26695W        W95168  33.071  42.889  10.474
26696W        W95169  14.633   3.827   4.720
26697W        W95170  15.760  14.312   5.208
26698W        W95171   5.353  44.442  11.526
26699W        W95172   1.929  22.141  13.007
26700W        W95173   5.838  39.914   1.257
26701W        W95174   0.424   8.323   0.439
26702W        W95175  11.282  17.224   1.324
26703W        W95176  36.578  13.829  13.860
26704W        W95177  39.522  27.531  11.540
26705W        W95178  24.598  16.745   4.273
26706W        W95179  28.530  42.305   2.811
26707W        W95180  41.919  35.459   1.821
26708W        W95181  10.151  36.440   0.353
26709W        W95182   2.229  37.037   0.255
26710W        W95183   6.703   4.307   3.632
26711W        W95184  31.128  27.060  11.862
26712W        W95185  29.537  33.415   5.313
26713W        W95186   0.447  31.535   4.329
26714W        W95187  38.895   1.789   9.977
26715W        W95188  16.273  36.422   4.189
26716W        W95189  24.125  22.569   3.261
26717W        W95190  40.039  27.008   2.397
26718W        W95191  33.382   3.253   9.969
26719W        W95192  12.236  36.937  13.028
26720W        W95193  35.891  40.886   2.367
26721W        W95194  26.020   9.886  13.879
26722W        W95195   8.204   8.791  13.521
26723W        W95196  41.435  35.871   1.868
26724W        W95197  38.883  21.031  12.419
26725W        W95198   5.822  12.196  14.423
26726W        W95199   8.852   2.831   4.255
26727W        W95200  19.675  32.519   0.945
26728W        W95201  30.623  43.512   3.832
26729W        W95202  28.605  22.190  11.100
26730W        W95203   1.370  26.524  11.036
26731W        W95204   7.315  31.454  10.559
26732W        W95205   5.340  12.233   0.799
26733W        W95206   7.769  25.570  11.092
26734W        W95207  11.369  38.001   0.768
26735W        W95208  27.542  27.636   0.410
26736W        W95209   2.866  42.442  12.847
26737W        W95210  20.546  13.697   0.931
26738W        W95211  26.475  39.344  13.510
26739W        W95212  24.174  21.168   4.151
26740W        W95213  13.665   1.324   2.404
26741W        W95214  41.807  40.887   4.665
26742W        W95215   2.797  39.514  14.760
26743W        W95216  11.740  38.831  13.393
26744W        W95217  10.704  40.034   0.440
26745W        W95218   7.774  25.148  14.930
26746W        W95219  34.489  29.088  12.920
26747W        W95220  23.691  19.601  12.856
26748W        W95221  22.563  30.619   3.732
26749W        W95222   2.243  28.975  14.844
26750W        W95223  15.671  14.189   2.283
26751W        W95224  10.808  30.483  13.341
26752W        W95225  43.822  32.625  14.829
26753W        W95226  23.053  32.973  10.438
26754W        W95227   1.756  40.841  10.506
26755W        W95228  18.271   6.788  12.570
26756W        W95229  19.555  30.924  14.822
26757W        W95230  12.172  37.377  13.001
26758W        W95231   4.329  39.006  11.422
26759W        W95232  11.832  43.371   4.730
26760W        W95233   4.926  38.901   2.712
26761W        W95234  44.479   9.744  12.087
26762W        W95235  30.005  22.215   1.731
26763W        W95236  11.325  15.260  10.549
26764W        W95237  30.593  20.122   0.928
26765W        W95238  44.432  14.175  12.518
26766W        W95239   4.855   0.781   0.940
26767W        W95240  33.448  19.204  10.932
26768W        W95241  12.198  15.667  12.476
26769W        W95242  38.861  36.014  10.440
26770W        W95243  31.066  22.234  12.847
26771W        W95244  24.148  28.680   4.711
26772W        W95245  33.907  18.279   4.254
26773W        W95246  16.141  25.706   0.250
26774W        W95247  34.439  32.097   1.338
26775W        W95248  21.528  42.809  14.434
26776W        W95249  43.370  12.804  11.948
26777W        W95250  14.303  34.604  11.469
26778W        W95251  29.113   7.286   2.783
26779W        W95252   4.845  19.261   3.632
26780W        W95253  29.547  13.646  12.366
26781W        W95254  40.343  17.603  12.017
26782W        W95255  16.773  38.027  14.834
26783W        W95256  16.102  42.514   4.293
26784W        W95257  39.808  26.692   4.249
26785W        W95258  33.097   9.800   1.780
26786W        W95259  30.067  39.055   0.373
26787W        W95260  26.576  36.874   2.180
26788W        W95261  21.563  39.873   2.761
26789W        W95262  12.658  21.554   1.394
26790W        W95263   2.396   5.773   2.703
26791W        W95264  33.097   7.730   0.382
26792W        W95265  24.148   9.657   4.649
26793W        W95266  17.623  40.388   0.484
26794W        W95267   1.965  13.796   2.372
26795W        W95268   3.821  21.036   0.384
26796W        W95269  20.586  35.020   3.249
26797W        W95270  14.652  42.395  11.045
26798W        W95271   4.817  43.501   3.207
26799W        W95272  39.838  25.709   4.250
26800W        W95273  26.516  20.548  11.385
26801W        W95274  14.602  39.405   5.083
26802W        W95275  20.271  25.107  10.101
26803W        W95276  26.002   8.333  13.873
26804W        W95277   7.731  36.371  13.936
26805W        W95278  38.039  23.714   1.883
26806W        W95279   3.282  12.251   4.780
26807W        W95280  23.621  42.847   0.317
26808W        W95281  24.110   4.280  13.352
26809W        W95282  44.004  10.164   1.799
26810W        W95283   1.243  31.642  11.394
26811W        W95284  17.262   0.861  12.904
26812W        W95285  27.666   9.817   0.959
26813W        W95286  32.050   8.320  14.020
26814W        W95287  30.439  23.197   5.280
26815W        W95288  38.544  11.683  13.357
26816W        W95289  13.604   4.778  14.882
26817W        W95290   6.901  15.819   4.710
26818W        W95291   8.397   7.289   3.262
26819W        W95292  41.300  11.180   1.696
26820W        W95293   3.846   5.337   3.155
26821W        W95294  25.653  25.662   2.820
26822W        W95295   2.858  16.782  12.445
26823W        W95296   0.871  10.794   1.890
26824W        W95297   3.774  32.444   0.855
26825W        W95298  42.398  38.488  11.938
26826W        W95299  25.687   0.803  13.972
26827W        W95300   6.406  36.464   1.338
26828W        W95301  42.522  25.643   1.776
26829W        W95302  31.030   9.267   3.789
26830W        W95303  37.020   9.152  14.846
26831W        W95304  19.102  28.030   2.803
26832W        W95305  28.079  16.194   2.391
26833W        W95306   6.903  21.050  13.938
26834W        W95307  33.526  26.203  11.079
26835W        W95308  24.685   5.217  14.881
26836W        W95309   9.887  18.120  14.854
26837W        W95310  44.799  30.499   4.345
26838W        W95311  37.481  19.567   1.451
26839W        W95312  11.201  21.592   0.420
26840W        W95313  39.883   1.836   2.201
26841W        W95314   2.318  28.655  14.418
26842W        W95315  22.592   9.256   3.753
26843W        W95316  43.403  30.948   2.681
26844W        W95317   0.926  33.415  10.967
26845W        W95318  39.897  25.574  14.979
26846W        W95319  31.103  18.644   1.834
26847W        W95320  10.233  43.016  12.421
26848W        W95321   4.367  36.387   3.366
26849W        W95322  29.541  29.950   1.407
26850W        W95323   5.341   8.256   1.299
26851W        W95324  22.166  36.848   2.373
26852W        W95325  16.318  35.592   3.157
26853W        W95326  32.631  26.683   1.859
26854W        W95327   1.972  39.976  14.812
26855W        W95328  43.933  33.976   1.875
26856W        W95329  18.722  18.640  11.427
26857W        W95330  11.712  34.497   4.656
26858W        W95331   7.800  28.100  14.368
26859W        W95332  21.650  19.257  11.007
26860W        W95333  40.388  39.881   2.760
26861W        W95334  21.017  33.922  10.630
26862W        W95335  30.001  19.570  11.986
26863W        W95336  33.936  36.351  10.533
26864W        W95337  13.164   1.365  12.509
26865W        W95338  42.483  34.542   1.301
26866W        W95339  12.611  36.570   0.444
26867W        W95340   2.933  26.954   0.727
26868W        W95341  29.154  22.048  14.785
26869W        W95342   2.240  43.432  14.774
26870W        W95343  24.053  34.588  13.916
26871W        W95344  35.045  29.508   4.781
26872W        W95345  38.860  31.479  13.805
26873W        W95346  33.512  13.822  13.926
26874W        W95347   5.269   9.211  14.512
26875W        W95348  44.872  23.091   2.187
26876W        W95349   6.780  42.434  12.941
26877W        W95350  31.533  32.085  14.981
26878W        W95351  30.069  10.180  13.826
26879W        W95352  36.514  21.230  11.374
26880W        W95353  36.402  12.679  11.066
26881W        W95354   6.890   4.320  10.614
26882W        W95355  30.059   9.828   0.349
26883W        W95356  34.018   2.890  11.379
26884W        W95357  33.024   0.327  12.412
26885W        W95358  23.507  20.190  14.402
26886W        W95359  29.969  35.038  13.477
26887W        W95360  42.433   4.800  11.388
26888W        W95361  20.095   3.367  12.417
26889W        W95362  26.188   6.840  14.414
26890W        W95363  14.193  12.849  14.482
26891W        W95364  23.203  15.635   4.617
26892W        W95365  19.616  18.281  13.502
26893W        W95366  27.633  12.240   1.898
26894W        W95367  43.499  32.969   1.704
26895W        W95368  30.155  34.515   2.773
26896W        W95369  32.599   0.892  10.054
26897W        W95370  24.598  32.437   1.807
26898W        W95371  31.936   3.301  13.527
26899W        W95372  43.776  26.070   0.422
26900W        W95373  32.016  39.510   2.791
26901W        W95374  37.366  38.882   5.138
26902W        W95375  34.047  17.575  12.003
26903W        W95376  31.122  44.856  14.863
26904W        W95377  12.706  23.657  13.396
26905W        W95378  28.027  16.747   4.259
26906W        W95379   5.346  21.568  13.321
26907W        W95380  25.583  10.676   3.863
26908W        W95381   8.245  43.332   2.376
26909W        W95382  12.349   2.806  14.907
26910W        W95383  17.713   9.253  13.395
26911W        W95384   7.855  40.889  14.883
26912W        W95385  35.575  44.943  10.559
26913W        W95386  33.486  30.589   0.298
26914W        W95387   4.746  33.410   2.739
26915W        W95388   6.292  41.334  10.910
26916W        W95389  29.509  43.857  14.028
26917W        W95390  21.537  23.634  13.849
26918W        W95391  43.321  43.935   4.136
26919W        W95392  16.766   3.901  14.355
26920W        W95393  44.283  38.955   0.855
26921W        W95394  28.461  39.891   1.727
26922W        W95395  19.668   0.922   2.883
26923W        W95396   4.794   7.852  11.573
26924W        W95397  44.981  36.431  10.935
26925W        W95398  41.936  26.481  10.929
26926W        W95399  20.070   3.301   2.861
26927W        W95400  19.557  14.825  13.004
26928W        W95401  16.251   9.673  14.964
26929W        W95402   1.344   7.860   0.876
26930W        W95403  15.124  16.762  14.923
26931W        W95404   4.270   3.333   2.279
26932W        W95405  31.061  27.590   3.311
26933W        W95406  32.111  35.106  12.409
26934W        W95407   1.269  35.402  13.349
26935W        W95408  35.571  38.430   4.239
26936W        W95409  35.945  27.954  14.452
26937W        W95410  34.387  37.440  10.920
26938W        W95411  44.325  27.464  13.331
26939W        W95412  25.017   5.842   3.218
26940W        W95413  36.489  13.693  11.553
26941W        W95414   8.750  12.163   2.787
26942W        W95415  10.654   5.839  14.894
26943W        W95416  15.143   6.826  13.513
26944W        W95417   3.902   4.358  11.886
26945W        W95418   0.426  28.030   3.742
26946W        W95419  40.818  29.556  13.906
26947W        W95420  22.118  19.108  13.450
26948W        W95421  44.277  39.858   2.274
26949W        W95422   7.219  39.337   4.646
26950W        W95423  28.521  12.191  13.909
26951W        W95424  39.412   3.825  12.004
26952W        W95425  35.603  19.263   2.263
26953W        W95426   6.428  20.755  13.503
26954W        W95427  10.818  31.944  13.023
26955W        W95428  40.932  33.474   1.383
26956W        W95429  16.129  16.723   1.387
26957W        W95430  30.605   2.833  14.388
26958W        W95431  21.526  23.240  14.858
26959W        W95432   1.338   7.839  14.454
26960W        W95433  36.440  10.876   0.773
26961W        W95434  30.059  15.264   3.666
26962W        W95435  21.571  40.050  12.560
26963W        W95436  32.067  16.075  14.303
26964W        W95437   7.222  20.545  11.866
26965W        W95438  38.879  23.499  10.029
26966W        W95439  30.054   6.776   3.745
26967W        W95440  12.832  10.357   0.285
26968W        W95441   6.845  29.535   1.379
26969W        W95442  28.036  28.133   1.923
26970W        W95443  20.270  15.804   4.333
26971W        W95444  28.124  10.357  10.150
26972W        W95445  13.236  14.166  11.594
26973W        W95446  37.945  28.093   3.323
26974W        W95447  29.555  29.545   4.299
26975W        W95448  21.693   4.323   4.612
26976W        W95449   0.769  24.082  12.352
26977W        W95450  23.541  29.070  11.117
26978W        W95451  11.717   7.396  10.951
26979W        W95452   4.863  34.502  10.625
26980W        W95453  12.812  22.501   4.808
26981W        W95454  20.636   5.810   2.301
26982W        W95455  24.129  21.618  10.449
26983W        W95456  41.914   6.864   3.238
26984W        W95457  32.451  14.094   0.414
26985W        W95458  43.516  19.689   4.289
26986W        W95459  32.619  36.583  12.928
26987W        W95460  29.493  25.106   3.756
26988W        W95461  20.239  10.317  14.396
26989W        W95462  33.425  35.402   1.217
26990W        W95463  20.596  10.278  12.490
26991W        W95464  29.127  18.698  11.404
26992W        W95465   0.881  17.668  12.860
26993W        W95466  39.042  42.915  14.319
26994W        W95467  15.742  41.963  10.994
26995W        W95468  24.072   8.882   1.902
26996W        W95469  42.434  23.129   2.269
26997W        W95470  15.814  27.648  12.558
26998W        W95471   0.320  33.991   4.621
26999W        W95472  25.490  41.831  13.481
27000W        W95473  33.457  39.421  11.067
27001W        W95474  44.463  43.388   2.326
27002W        W95475  13.732  27.985   2.231
27003W        W95476  36.098  14.207  11.613
27004W        W95477   3.439  16.809   0.391
27005W        W95478  12.161   7.904  12.025
27006W        W95479  39.448  30.909   4.346
27007W        W95480  30.953  25.689  12.933
27008W        W95481  16.137  39.510   2.724
27009W        W95482  25.149  13.673  10.405
27010W        W95483  39.983   8.248  13.475
27011W        W95484  25.099  31.134   5.101
27012W        W95485  36.903   1.900  14.483
27013W        W95486  19.154  28.071  11.964
27014W        W95487  39.514  25.061  14.859
27015W        W95488  37.940  30.014   3.641
27016W        W95489   4.735   5.318   1.420
27017W        W95490  23.702  14.131   2.667
27018W        W95491  34.431  20.229  11.380
27019W        W95492  16.149  37.903   9.508
27020W        W95493   7.727  43.933  12.012
27021W        W95494  42.297  19.653   4.306
27022W        W95495  18.684  29.464   2.272
27023W        W95496  42.307   1.471  11.409
27024W        W95497  32.983   1.321   0.778
27025W        W95498  39.879  15.680   2.289
27026W        W95499  37.862  12.254  10.942
27027W        W95500  28.938  19.050  10.519
27028W        W95501  20.029   4.729   4.732
27029W        W95502  25.971  42.997  12.077
27030W        W95503   2.289  37.342  11.479
27031W        W95504  23.643  25.554  10.084
27032W        W95505  10.666  29.059   2.901
27033W        W95506  13.740   4.310   3.166
27034W        W95507   4.777  34.492   3.358
27035W        W95508  44.931  35.487   3.353
27036W        W95509  41.488  43.509  11.028
27037W        W95510  11.718  20.180   0.739
27038W        W95511  19.701  16.592  10.414
27039W        W95512  23.686  21.718  12.878
27040W        W95513   9.345  41.412   4.186
27041W        W95514  27.152  19.621  13.963
27042W        W95515   8.228  32.079  12.452
27043W        W95516  18.057   3.401   4.161
27044W        W95517  36.404  18.756   1.855
27045W        W95518  24.116  36.473  11.914
27046W        W95519  21.640   5.770   2.293
27047W        W95520  26.484  15.310   3.859
27048W        W95521  21.160  19.712  10.146
27049W        W95522   1.958   0.887  11.413
27050W        W95523  10.286   4.446  10.570
27051W        W95524  40.318  12.353  13.440
27052W        W95525  31.562  33.888  14.429
27053W        W95526  22.009  40.828   4.599
27054W        W95527  33.456  12.176   3.687
27055W        W95528  28.538  36.025  14.009
27056W        W95529  39.423  44.418   1.311
27057W        W95530   4.767  34.884  13.986
27058W        W95531  39.037  22.027  10.562
27059W        W95532  30.993   2.283  11.079
27060W        W95533  37.993  25.072   2.760
27061W        W95534  43.996   5.817  10.590
27062W        W95535  31.582  24.022   5.274
27063W        W95536  24.680  31.484  14.276
27064W        W95537  17.114  15.729  10.919
27065W        W95538  15.091  21.741   0.857
27066W        W95539  10.691  31.526  12.465
27067W        W95540  16.107   7.882   0.950
27068W        W95541  38.501  10.254   1.717
27069W        W95542  44.349   8.220  13.438
27070W        W95543   0.292  28.442  10.449
27071W        W95544  22.996  21.730   0.861
27072W        W95545   1.368  26.081  14.476
27073W        W95546  16.273  16.576   0.370
27074W        W95547  15.706  25.202   4.809
27075W        W95548  19.743  25.020   2.345
27076W        W95549  13.258   8.765  11.397
27077W        W95550  41.476  32.956   3.820
27078W        W95551   7.398  35.038   0.824
27079W        W95552  11.658   3.724  14.451
27080W        W95553  37.840  28.632  11.398
27081W        W95554  15.220   1.799  10.583
27082W        W95555  17.782  43.386   1.352
27083W        W95556  41.450   1.416   3.216
27084W        W95557   3.886   0.262   0.340
27085W        W95558  36.460  14.146   2.190
27086W        W95559   2.823  13.275   2.362
27087W        W95560   7.749  26.543   3.199
27088W        W95561  12.796  26.973  11.052
27089W        W95562  37.927  28.979  12.031
27090W        W95563  40.930  16.791   1.750
27091W        W95564  22.034  35.051  14.768
27092W        W95565  44.832  18.116   3.149
27093W        W95566  42.351  30.022  11.123
27094W        W95567  22.037  39.007   1.313
27095W        W95568  28.047  17.776  10.982
27096W        W95569  30.456  44.489   1.363
27097W        W95570  27.090  41.488   3.828
27098W        W95571  28.152  38.513   3.633
27099W        W95572  23.095  34.015   0.833
27100W        W95573   1.439  23.087   0.783
27101W        W95574  17.663  23.571   1.805
27102W        W95575  32.603   2.771  13.859
27103W        W95576  19.067  41.814  13.468
27104W        W95577  16.600   7.893   4.266
27105W        W95578  30.093  40.308   0.777
27106W        W95579   8.839  27.464  10.581
27107W        W95580  30.014  38.892  14.985
27108W        W95581  16.112  27.948   3.246
27109W        W95582  35.462   8.320   1.816
27110W        W95583   3.268  40.302   0.336
27111W        W95584  41.443  33.431   3.630
27112W        W95585   9.370  24.100  10.154
27113W        W95586  30.922  29.032  14.937
27114W        W95587  21.519   4.932  13.985
27115W        W95588  40.548  21.130  13.950
27116W        W95589   1.382   5.239   2.664
27117W        W95590   5.797   5.433   4.797
27118W        W95591  44.276  21.709   1.343
27119W        W95592  23.013  24.479  12.005
27120W        W95593  27.563   1.318   4.836
27121W        W95594  29.622  33.050   3.719
27122W        W95595  29.480   1.861   3.726
27123W        W95596   8.703  42.891   2.810
27124W        W95597  19.239  38.025  14.857
27125W        W95598  13.777  38.912   0.280
27126W        W95599  17.634  18.227   2.258
27127W        W95600   2.347  33.581  14.891
27128W        W95601  16.594   9.347   2.343
27129W        W95602  31.064  12.325   4.826
27130W        W95603  24.155  35.454  13.062
27131W        W95604  28.491  26.552   5.235
27132W        W95605   9.341  24.131   0.467
27133W        W95606  14.689  33.939   4.211
27134W        W95607   0.814  39.967  14.453
27135W        W95608   1.459  12.356   1.218
27136W        W95609   6.873  11.791  11.430
27137W        W95610  29.550  35.541  14.929
27138W        W95611   6.405  34.988   5.223
27139W        W95612  21.536  40.037   4.624
27140W        W95613  11.698  25.497  13.345
27141W        W95614  20.057   6.803   0.737
27142W        W95615   8.181  39.557   0.268
27143W        W95616  21.060  23.595  10.470
27144W        W95617  22.672   2.416  13.806
27145W        W95618   4.216  19.047   1.340
27146W        W95619  14.737   1.846   4.200
27147W        W95620  42.024  19.229   3.644
27148W        W95621  43.345  42.824   2.867
27149W        W95622  28.578   1.735   1.349
27150W        W95623  29.475  27.138   0.322
27151W        W95624   3.310   3.948   5.086
27152W        W95625  42.310  37.891  13.058
27153W        W95626   0.883  41.862  13.408
27154W        W95627  38.482  28.038   2.830
27155W        W95628  27.492  43.993   3.633
27156W        W95629  43.804  30.092   2.281
27157W        W95630  28.562  44.432  12.363
27158W        W95631  21.511  32.033  10.980
27159W        W95632  23.501  41.828  10.993
27160W        W95633  27.457  31.605   2.393
27161W        W95634   6.890  11.226  12.927
27162W        W95635  20.727  43.455   4.226
27163W        W95636   7.848  26.080   2.900
27164W        W95637  39.058  31.494  12.959
27165W        W95638  23.090  42.887  13.353
27166W        W95639   9.263  17.306  12.875
27167W        W95640  21.148   8.838   4.149
27168W        W95641  16.658   9.251   1.336
27169W        W95642  32.558   0.826   4.731
27170W        W95643  19.589  25.625   2.322
27171W        W95644  28.668  37.077   2.766
27172W        W95645   1.379   9.290  11.896
27173W        W95646  32.042  37.422  12.477
27174W        W95647   9.237   3.955   3.646
27175W        W95648  39.837  20.710  11.546
27176W        W95649  18.243  32.437  11.982
27177W        W95650  29.920  15.600  10.608
27178W        W95651  21.172  22.714   0.962
27179W        W95652  38.847  14.655   4.741
27180W        W95653  17.695  10.723   2.748
27181W        W95654  38.053  40.928   2.287
27182W        W95655   3.798  40.020   3.305
27183W        W95656   2.789  27.176  14.993
27184W        W95657   8.895   0.347   0.303
27185W        W95658  25.547   5.786  12.507
27186W        W95659  44.429  18.675  13.980
27187W        W95660  24.515  18.682  12.950
27188W        W95661  18.599   7.854   4.602
27189W        W95662  43.469   9.765   3.235
27190W        W95663  44.898   8.683   3.807
27191W        W95664  38.443  26.617   3.869
27192W        W95665  31.012  30.618   0.333
27193W        W95666  18.602  22.173   2.820
27194W        W95667  14.769  29.599  14.376
27195W        W95668  22.593  38.963   4.287
27196W        W95669   9.159  30.148  14.423
27197W        W95670  17.114  19.214   2.683
27198W        W95671  44.303  16.791  10.598
27199W        W95672  34.482   3.265  12.885
27200W        W95673   8.174  40.931  11.091
27201W        W95674   9.247   6.898   4.194
27202W        W95675  30.435   9.785  11.569
27203W        W95676  16.744   5.393  14.765
27204W        W95677   1.871  20.540   0.832
27205W        W95678   0.381  41.873   1.773
27206W        W95679   8.764  11.228  14.839
27207W        W95680   6.891  35.563   2.879
27208W        W95681  33.111  39.981  11.895
27209W        W95682   3.366   0.870  13.374
27210W        W95683  22.633   8.786   0.739
27211W        W95684  25.188  24.211   2.363
27212W        W95685  25.676  40.529  11.126
27213W        W95686  30.463  42.365  13.030
27214W        W95687  20.114  29.529  14.911
27215W        W95688  27.194  15.770   5.118
27216W        W95689  28.960  19.685   1.916
27217W        W95690   5.821  37.855   3.796
27218W        W95691  31.521   6.885  14.398
27219W        W95692   0.462  32.461  12.416
27220W        W95693  34.915  12.697   4.607
27221W        W95694  20.752  21.629  11.392
27222W        W95695  10.753   5.793   0.793
27223W        W95696  33.887  34.612   0.281
27224W        W95697  13.329  17.561   2.855
27225W        W95698  10.315  19.184  12.095
27226W        W95699  26.694   2.815   1.412
27227W        W95700  33.981   3.913  13.975
27228W        W95701  24.058  28.521   1.345
27229W        W95702   6.263  41.964   0.752
27230W        W95703  44.320  35.895  13.965
27231W        W95704  44.841  44.810  11.402
27232W        W95705  14.598   2.872  11.904
27233W        W95706   6.239  11.821   2.753
27234W        W95707  13.255  15.128  12.482
27235W        W95708  21.079  22.544  11.903
27236W        W95709   3.252  30.934  11.081
27237W        W95710  29.517   6.278  10.476
27238W        W95711  26.077  33.429   0.410
27239W        W95712   2.287  34.486   2.814
27240W        W95713   7.240   2.938  12.017
27241W        W95714  43.475  22.041  13.952
27242W        W95715  37.451  40.021  13.820
27243W        W95716   0.906  27.673   0.812
27244W        W95717  24.098   8.336  13.470
27245W        W95718  34.468  11.332  14.342
27246W        W95719  17.662  26.060  11.106
27247W        W95720  26.195  28.439   1.729
27248W        W95721  34.604  26.521   3.721
27249W        W95722  13.665  18.744   4.257
27250W        W95723  34.467  40.362   1.717
27251W        W95724  40.505  40.002  12.000
27252W        W95725  33.941  15.746  12.970
27253W        W95726  22.105  21.713   3.337
27254W        W95727  28.112  32.635   3.306
27255W        W95728   4.285  26.155  10.562
27256W        W95729  44.409  10.807  10.593
27257W        W95730   0.298  12.314   4.838
27258W        W95731  13.193  44.279   2.802
27259W        W95732  32.519  36.886  12.493
27260W        W95733  24.974   3.809  12.023
27261W        W95734  16.265   0.428   3.220
27262W        W95735  12.743   6.209   3.765
27263W        W95736  35.567  33.009  11.063
27264W        W95737   7.768  40.982   3.303
27265W        W95738  17.154  27.619  13.937
27266W        W95739  24.039  17.735  10.438
27267W        W95740   6.356  21.750  12.008
27268W        W95741   4.909  11.751  12.523
27269W        W95742   2.780  22.237  11.390
27270W        W95743  22.624  22.223   1.707
27271W        W95744  23.227  28.635   9.931
27272W        W95745  37.341  17.737  13.382
27273W        W95746  18.061  22.515   2.844
27274W        W95747   9.250  32.527  10.598
27275W        W95748  21.718  34.956  10.483
27276W        W95749   8.798  23.579   4.150
27277W        W95750  30.432   4.762   4.173
27278W        W95751   8.793  29.551  13.510
27279W        W95752  38.833  29.485   5.288
27280W        W95753  24.639  33.971   4.113
27281W        W95754   4.344  26.977  12.465
27282W        W95755   5.416  13.726   2.769
27283W        W95756  20.538  29.468   3.195
27284W        W95757  22.056   6.350  12.529
27285W        W95758  18.224  24.535  11.515
27286W        W95759   8.232   6.252  14.808
27287W        W95760  33.511  33.474   0.968
27288W        W95761   0.493  27.464   3.362
27289W        W95762  42.481  30.628   3.835
27290W        W95763   0.388  27.079  11.388
27291W        W95764  38.870   5.353   2.381
27292W        W95765  38.981  42.454  12.036
27293W        W95766  26.058  32.435   1.825
27294W        W95767  27.076   0.299  13.988
27295W        W95768  33.052  21.209  10.111
27296W        W95769   5.694  36.402  12.008
27297W        W95770  36.570   3.335  10.004
27298W        W95771  21.648  32.937  12.980
27299W        W95772  12.359  29.429  10.459
27300W        W95773  44.277  11.734   1.786
27301W        W95774  43.964  17.218  11.918
27302W        W95775   0.783  16.761   4.137
27303W        W95776  23.495  17.299   1.920
27304W        W95777  35.422  36.566  13.951
27305W        W95778  27.094  30.955   2.680
27306W        W95779  36.518  32.894  12.341
27307W        W95780   1.316  14.827   1.230
27308W        W95781  27.497  20.589  14.379
27309W        W95782  32.423  30.589   2.293
27310W        W95783  16.184  41.308  14.350
27311W        W95784  16.783  32.059  12.861
27312W        W95785  41.468  30.464  14.939
27313W        W95786  33.083   7.324  11.390
27314W        W95787  18.287   6.412  13.056
27315W        W95788   1.471  10.353  12.434
27316W        W95789  38.500  34.610   3.316
27317W        W95790  37.348   2.281   1.325
27318W        W95791   8.705  33.884   1.316
27319W        W95792  21.204   5.327  12.990
27320W        W95793   3.449  22.641  10.539
27321W        W95794  36.896  39.326   3.207
27322W        W95795  26.561  10.741  14.282
27323W        W95796  29.991   4.754  13.819
27324W        W95797   5.792  12.851  14.804
27325W        W95798  11.701  43.934  11.969
27326W        W95799   6.202   1.869   1.397
27327W        W95800  32.588   2.369   4.147
27328W        W95801  38.924  19.044   0.758
27329W        W95802   1.849  36.545  11.560
27330W        W95803  38.857  32.550  10.412
27331W        W95804  26.674   0.855  13.903
27332W        W95805  44.367   4.313  13.934
27333W        W95806  34.088  36.889   1.758
27334W        W95807   9.163  30.116  12.083
27335W        W95808   5.439  34.477   1.739
27336W        W95809  10.723   0.911   1.260
27337W        W95810   1.848  30.448   4.303
27338W        W95811  36.541  11.286   4.193
27339W        W95812  36.081  43.869   2.300
27340W        W95813  29.033   7.265   3.679
27341W        W95814  14.596   7.667  12.495
27342W        W95815  25.146  37.428   2.722
27343W        W95816  38.922  10.344  14.886
27344W        W95817  38.497   2.405  12.547
27345W        W95818  18.229  11.180  13.413
27346W        W95819  10.839  10.240  13.341
27347W        W95820   4.277  37.424  10.106
27348W        W95821  27.605  29.160   4.801
27349W        W95822   6.913  30.561  10.564
27350W        W95823  22.599  37.921  12.997
27351W        W95824   2.962   5.750   3.723
27352W        W95825  17.078  27.511  14.764
27353W        W95826  38.551  34.409   1.821
27354W        W95827  12.159  14.256  11.439
27355W        W95828  22.635  18.789   9.958
27356W        W95829  38.907  35.031  13.821
27357W        W95830  41.344  15.203   1.450
27358W        W95831  44.990   2.295  10.554
27359W        W95832   2.832  41.362   1.403
27360W        W95833  12.264  26.626   4.801
27361W        W95834   7.270  25.498   4.280
27362W        W95835   0.976  15.310  12.858
27363W        W95836  19.118  19.139   4.814
27364W        W95837   3.324  10.164  11.075
27365W        W95838  14.776  41.833  14.897
27366W        W95839  23.519  28.528   4.347
27367W        W95840  12.296  25.975  13.046
27368W        W95841  29.448  39.002   0.463
27369W        W95842  38.927  38.555  11.959
27370W        W95843  12.628  34.942   0.265
27371W        W95844  37.563  36.847  12.047
27372W        W95845   1.762   7.393  10.578
27373W        W95846  22.736  44.825   2.666
27374W        W95847  13.207  28.460   1.733
27375W        W95848  32.573  24.561   2.895
27376W        W95849   3.726  30.636  11.968
27377W        W95850  38.506  44.907  13.007
27378W        W95851  36.588  38.042   4.234
27379W        W95852  30.010  12.298  12.508
27380W        W95853  30.419  32.121   4.622
27381W        W95854  28.984  38.923   1.263
27382W        W95855  33.452  29.141   2.240
27383W        W95856  41.909   0.822  11.970
27384W        W95857  37.930  18.638  14.964
27385W        W95858  24.598  16.760   2.751
27386W        W95859  15.729  35.381   2.716
27387W        W95860   2.303  34.040   0.308
27388W        W95861   1.312  26.618  12.952
27389W        W95862  40.001  13.604   1.332
27390W        W95863  31.048  37.922   1.339
27391W        W95864   6.391   3.287   1.781
27392W        W95865   1.902   3.407   2.256
27393W        W95866  42.410  15.293   4.335
27394W        W95867  14.635  44.897   3.328
27395W        W95868  42.346  44.417  12.988
27396W        W95869  13.115  27.031  12.081
27397W        W95870  22.664  40.043   3.284
27398W        W95871  42.955  32.919  12.902
27399W        W95872   0.930   3.282  14.919
27400W        W95873  40.471   7.333  12.945
27401W        W95874   4.279   4.409  14.415
27402W        W95875  30.014  12.783  11.597
27403W        W95876   6.852  19.212  12.354
27404W        W95877  19.763  12.331  14.428
27405W        W95878   3.292  22.598   0.367
27406W        W95879  27.101   6.712  10.457
27407W        W95880  15.251  12.283  13.427
27408W        W95881  10.637  32.931   3.351
27409W        W95882  19.677  19.074   2.315
27410W        W95883   2.907  22.554  12.363
27411W        W95884  11.688  18.676   2.334
27412W        W95885  39.316   7.365  12.565
27413W        W95886  24.575   0.443   1.430
27414W        W95887  33.956  11.294   3.786
27415W        W95888  20.579   9.298  13.338
27416W        W95889   7.274  35.452   0.434
27417W        W95890   3.390  40.487  13.879
27418W        W95891   3.250  31.965  10.962
27419W        W95892  14.244  42.945   0.732
27420W        W95893  34.898  31.048   0.882
27421W        W95894  16.183  22.133  11.541
27422W        W95895  38.956   2.775   3.841
27423W        W95896   7.891  42.984   2.187
27424W        W95897  40.938  30.136   1.372
27425W        W95898  34.880   5.256  14.879
27426W        W95899  14.183  34.886   2.332
27427W        W95900  39.448  41.037   3.676
27428W        W95901  12.695   1.876  13.377
27429W        W95902  22.711  17.563   0.807
27430W        W95903   2.947  33.506   4.291
27431W        W95904  36.464  27.133   0.837
27432W        W95905  28.448   9.885  14.847
27433W        W95906  15.114  14.759  14.461
27434W        W95907   5.739   5.265   2.833
27435W        W95908   6.688  26.957   0.942
27436W        W95909  44.405  40.882   2.705
27437W        W95910  17.107   1.375   0.953
27438W        W95911  44.376  26.701   2.701
27439W        W95912  42.289   3.261   4.637
27440W        W95913  43.885  44.983  11.894
27441W        W95914  14.599  30.491  10.934
27442W        W95915  30.911  13.193   4.147
27443W        W95916  14.338  44.010   2.324
27444W        W95917  28.566   6.276   1.898
27445W        W95918   2.450  27.509  10.499
27446W        W95919  41.463  34.600  13.916
27447W        W95920   8.332  14.820   1.810
27448W        W95921   0.770  26.990  14.297
27449W        W95922  38.344  15.750   0.432
27450W        W95923  40.366  37.424   2.799
27451W        W95924  31.448  28.522   2.248
27452W        W95925  24.624  42.807  11.120
27453W        W95926  38.463  10.306   4.349
27454W        W95927  20.053  35.856   0.366
27455W        W95928   5.787  14.744   3.210
27456W        W95929   6.362  11.855   5.283
27457W        W95930  29.581  28.530   1.762
27458W        W95931  32.566  36.465   0.308
27459W        W95932  23.580  12.145   5.086
27460W        W95933  40.526  23.498   4.755
27461W        W95934  29.620  16.583   1.733
27462W        W95935  17.628  38.929  14.880
27463W        W95936   8.804  24.580  13.888
27464W        W95937  18.264   8.193  13.316
27465W        W95938   0.956  28.557   1.316
27466W        W95939   4.393  21.580  12.524
27467W        W95940  33.064  29.053  14.408
27468W        W95941  11.357  30.049  11.981
27469W        W95942  16.201  42.914  12.525
27470W        W95943  29.533  23.493  14.953
27471W        W95944  26.555  40.311   0.448
27472W        W95945  43.854   2.963  11.109
27473W        W95946   3.299  34.977   2.356
27474W        W95947  42.888  35.397  12.043
27475W        W95948   3.308  39.970   3.810
27476W        W95949  15.303   3.788  13.902
27477W        W95950  18.554  24.506   4.272
27478W        W95951  43.422   2.887  10.981
27479W        W95952  15.686   0.897  12.990
27480W        W95953  38.074  19.762  13.976
27481W        W95954   9.250   6.742  12.490
27482W        W95955   9.196  39.862  10.581
27483W        W95956  31.405   7.220  12.095
27484W        W95957  27.012  44.338  14.275
27485W        W95958  42.999  41.884   1.882
27486W        W95959  21.620   6.889   2.299
27487W        W95960  36.423  16.762  13.984
27488W        W95961   5.329  19.198   0.352
27489W        W95962  34.511  12.136   0.891
27490W        W95963  20.676  19.572   2.192
27491W        W95964   0.268  20.667   3.171
27492W        W95965  33.036  12.613   3.290
27493W        W95966  39.422  34.908  12.572
27494W        W95967  38.848  18.758   0.781
27495W        W95968  36.094   5.329  10.637
27496W        W95969  13.827  21.563  10.606
27497W        W95970  10.297  25.035   0.306
27498W        W95971  33.902  31.642   2.797
27499W        W95972  41.422  16.584   4.814
27500W        W95973  42.331  34.444  10.949
27501W        W95974  37.040   9.352   3.215
27502W        W95975  42.959  35.533   1.779
27503W        W95976  19.662  19.627  12.080
27504W        W95977   3.739   7.416   2.292
27505W        W95978  42.868  43.354   1.245
27506W        W95979  39.020  41.345   1.707
27507W        W95980   5.362  33.592  12.348
27508W        W95981  39.019  24.628   4.798
27509W        W95982  14.182  22.060  11.602
27510W        W95983  20.597  42.409  11.500
27511W        W95984   0.784  32.506   4.747
27512W        W95985  41.520  22.027   4.710
27513W        W95986  25.605  22.038   3.372
27514W        W95987  23.232  33.466   1.319
27515W        W95988  38.011   6.914   0.808
27516W        W95989  20.573  12.260  12.570
27517W        W95990  42.013   7.336  14.826
27518W        W95991  41.027   9.373  10.453
27519W        W95992  41.302  18.645  14.332
27520W        W95993  31.475  39.972  11.917
27521W        W95994   2.893  12.676   3.149
27522W        W95995  15.322  29.581   4.764
27523W        W95996  15.690  10.352  13.019
27524W        W95997  30.977  32.606   4.628
27525W        W95998  14.712  32.045   1.803
27526W        W95999  34.073  11.171  13.478
27527W        W96000   5.386  29.507  13.045
27528W        W96001   4.449   2.918  10.449
27529W        W96002   9.868  15.599  13.937
27530W        W96003  30.099  26.124  13.472
27531W        W96004  16.313  25.117  14.793
27532W        W96005   0.325  31.113  14.802
27533W        W96006  25.599  13.675   3.288
27534W        W96007  41.376  35.060   2.393
27535W        W96008  38.999  38.509   4.258
27536W        W96009  39.541   0.414   1.781
27537W        W96010  16.159   2.959   0.905
27538W        W96011  14.752  33.002  14.341
27539W        W96012   7.687  14.595  14.761
27540W        W96013  11.248  12.646  11.953
27541W        W96014   3.241  14.648  13.476
27542W        W96015  11.727   9.727   1.382
27543W        W96016  20.560  42.447   3.802
27544W        W96017  17.111  10.856  11.946
27545W        W96018   3.221  41.526  12.441
27546W        W96019  23.691   0.376   4.677
27547W        W96020  31.473  16.311  10.905
27548W        W96021   2.738  25.027  11.417
27549W        W96022  43.975  43.967  12.082
27550W        W96023  27.525  18.644   2.845
27551W        W96024  17.562  25.622  10.414
27552W        W96025  40.019  20.132   0.416
27553W        W96026   4.764   8.270  13.443
27554W        W96027  10.355  26.689  10.463
27555W        W96028  39.401   1.352  11.910
27556W        W96029  27.977   4.784  13.516
27557W        W96030  44.330  14.274  14.318
27558W        W96031  16.170  13.332  14.919
27559W        W96032   5.862  13.132   4.233
27560W        W96033   8.167  36.538   5.147
27561W        W96034  22.181  40.483   2.834
27562W        W96035  37.376  32.893  10.474
27563W        W96036   2.330  23.171   1.699
27564W        W96037   8.209   5.876   3.357
27565W        W96038   7.407  34.024  12.981
27566W        W96039  30.604   8.352  11.939
27567W        W96040  38.509  26.472   0.269
27568W        W96041  21.090  32.933  13.803
27569W        W96042  39.962  28.941  11.443
27570W        W96043  36.061   6.233  13.868
27571W        W96044  22.182  28.064  14.462
27572W        W96045  34.481  41.826  11.399
27573W        W96046  14.266  26.626  11.905
27574W        W96047   7.305  32.416  10.441
27575W        W96048  13.241  31.056   3.716
27576W        W96049  24.016  34.046   2.877
27577W        W96050   6.332  35.541  10.918
27578W        W96051  19.554  21.675  11.546
27579W        W96052  43.493  11.248   0.875
27580W        W96053  19.562   6.206   1.221
27581W        W96054  14.204   4.779  13.811
27582W        W96055  17.277  28.144   2.679
27583W        W96056  13.135  29.662  11.914
27584W        W96057  31.525  36.449   0.770
27585W        W96058   0.763  32.921   0.831
27586W        W96059  21.660   8.278  14.949
27587W        W96060  37.878   2.811  12.043
27588W        W96061  23.732  11.197   3.173
27589W        W96062  21.662   0.491  12.940
27590W        W96063  34.564   8.857  11.045
27591W        W96064   3.300  11.812   5.097
27592W        W96065  15.820  26.581   3.173
27593W        W96066  36.038   6.372   1.283
27594W        W96067  10.315  17.596   0.466
27595W        W96068  40.852  20.624   0.468
27596W        W96069  43.388  24.061  14.834
27597W        W96070  13.758   4.424   4.218
27598W        W96071  40.509  19.174  10.563
27599W        W96072  34.088   6.726  11.552
27600W        W96073  32.020  34.080  13.526
27601W        W96074  26.564  43.311   2.209
27602W        W96075   8.762  38.383   2.210
27603W        W96076  22.122  23.568   2.410
27604W        W96077  12.120  20.098  11.895
27605W        W96078   1.255  13.217   2.675
27606W        W96079  17.257  19.682   2.348
27607W        W96080  22.659  34.947  12.965
27608W        W96081   9.873   7.206   4.810
27609W        W96082  27.008  11.216  12.509
27610W        W96083  34.537   9.785  12.003
27611W        W96084  34.477   5.289  13.037
27612W        W96085  11.342  44.972   0.363
27613W        W96086  16.706  22.196   1.406
27614W        W96087  30.128  37.572  14.866
27615W        W96088  29.952  24.610   3.642
27616W        W96089  38.523  32.580   2.265
27617W        W96090  35.490  35.014   2.239
27618W        W96091  42.009   6.397  14.950
27619W        W96092  37.498  42.903   0.435
27620W        W96093  14.613  36.349  12.020
27621W        W96094  19.204  40.881  12.575
27622W        W96095  23.047  30.986  13.940
27623W        W96096  41.912  31.924   2.718
27624W        W96097   9.189  14.638  11.439
27625W        W96098  18.200  21.714   2.263
27626W        W96099  14.254  37.037   2.669
27627W        W96100  27.975   6.415  10.466
27628W        W96101  44.975  30.577   0.868
27629W        W96102  31.568  14.728  13.794
27630W        W96103   7.177   1.419  11.115
27631W        W96104   9.787  17.133  14.785
27632W        W96105  35.991  17.212  14.287
27633W        W96106  38.969  33.926   3.775
27634W        W96107   6.764   1.306   3.696
27635W        W96108   1.286  29.925   3.812
27636W        W96109   9.315  39.024  14.382
27637W        W96110  25.518  24.032  12.505
27638W        W96111  44.852  40.991  12.499
27639W        W96112   6.361  26.497  10.012
27640W        W96113  28.017  43.018  12.065
27641W        W96114  13.672   5.267   0.452
27642W        W96115   6.758  29.015   4.622
27643W        W96116   9.236  24.707   2.232
27644W        W96117   4.751   3.783   1.894
27645W        W96118  40.432  10.683   2.389
27646W        W96119  21.695   3.859  11.466
27647W        W96120   1.856  24.711   2.251
27648W        W96121  34.019  34.887  14.275
27649W        W96122   9.838  13.718   4.336
27650W        W96123   2.796  38.060   1.237
27651W        W96124  19.764   6.916   4.834
27652W        W96125  41.396   3.759   0.819
27653W        W96126  18.100   2.408  10.435
27654W        W96127  42.940  16.687   0.479
27655W        W96128  41.928  31.637   0.837
27656W        W96129  19.539   9.216  10.620
27657W        W96130  18.640  10.648   2.787
27658W        W96131  25.981  42.421   1.352
27659W        W96132  13.731  36.911  12.959
27660W        W96133  11.626  36.433  14.433
27661W        W96134  33.887  23.142   3.861
27662W        W96135   7.674  26.045  10.563
27663W        W96136   8.715  44.953   4.623
27664W        W96137   3.879  13.223  14.916
27665W        W96138   1.818  15.782  12.023
27666W        W96139  29.170  42.337  12.878
27667W        W96140  32.105  25.683  12.576
27668W        W96141  19.065   3.289   1.312
27669W        W96142   2.786  29.429   3.250
27670W        W96143   1.796  17.152   4.236
27671W        W96144  27.007   5.915   3.356
27672W        W96145  18.561  44.400   4.672
27673W        W96146  17.169  40.370   2.325
27674W        W96147  27.962  39.399   0.747
27675W        W96148  12.274  37.034   4.638
27676W        W96149  39.324   5.432   0.932
27677W        W96150  26.007   9.877   0.414
27678W        W96151  38.879  24.664  12.936
27679W        W96152  13.695  10.184   1.867
27680W        W96153  34.058  36.519  14.944
27681W        W96154  18.109  13.350  14.450
27682W        W96155  17.615  18.578  14.319
27683W        W96156   6.374  11.342  11.903
27684W        W96157  22.658  16.581  13.500
27685W        W96158  10.286  22.592   2.264
27686W        W96159  32.103  18.633  13.540
27687W        W96160  23.075   7.880  11.019
27688W        W96161   8.737  43.329  14.372
27689W        W96162  44.480  43.357  13.368
27690W        W96163  27.973  20.753  10.409
27691W        W96164  24.563   6.863  11.466
27692W        W96165  13.755  42.426   2.779
27693W        W96166   9.778  22.638  12.539
27694W        W96167  19.701   1.310  10.571
27695W        W96168   9.672  14.824  13.340
27696W        W96169   4.724  37.986  11.471
27697W        W96170  31.533  27.554   2.341
27698W        W96171  24.491  20.069  10.947
27699W        W96172  40.996  10.267   0.766
27700W        W96173  44.260  37.460  10.585
27701W        W96174   2.792   6.717   0.841
27702W        W96175  12.771  44.812  13.800
27703W        W96176  34.483  31.628  13.439
27704W        W96177  24.622  42.339   4.667
27705W        W96178  44.284  34.101  13.357
27706W        W96179  28.477  34.437   3.645
27707W        W96180  40.400  26.027  12.001
27708W        W96181  43.467   5.837  14.445
27709W        W96182  17.304  11.624   3.709
27710W        W96183  30.020  16.666   3.235
27711W        W96184  24.566  27.121  12.575
27712W        W96185  36.468   1.372  14.917
27713W        W96186  11.145  20.628  13.426
27714W        W96187  17.267  38.468  14.965
27715W        W96188  12.183  10.752   1.302
27716W        W96189   0.274  14.277  10.426
27717W        W96190   8.657  19.661   1.722
27718W        W96191  11.330  35.596   2.345
27719W        W96192   3.792   2.433  11.933
27720W        W96193  43.498  24.685  13.845
27721W        W96194  34.099  19.700  11.386
27722W        W96195   1.937  36.504  10.418
27723W        W96196  12.123  26.986   0.840
27724W        W96197  31.024  28.005  13.857
27725W        W96198  15.785   6.274  13.334
27726W        W96199  29.982  19.269   1.354
27727W        W96200  30.646  36.479  12.922
27728W        W96201  11.791  20.181   4.206
27729W        W96202  17.215  21.036   2.206
27730W        W96203   1.804  28.580  13.367
27731W        W96204  10.817  31.964  11.433
27732W        W96205  34.891  41.953   2.265
27733W        W96206  37.389  26.497   3.661
27734W        W96207   7.184  23.634   5.315
27735W        W96208  16.791  18.207   2.224
27736W        W96209  26.703  20.089  13.854
27737W        W96210  29.626  17.085   2.289
27738W        W96211  20.534  37.529   4.324
27739W        W96212  15.115   8.294  14.805
27740W        W96213   7.732   1.834  14.821
27741W        W96214   6.397  35.993   5.104
27742W        W96215  32.441  18.176   1.271
27743W        W96216   1.432   8.695  12.029
27744W        W96217  19.744  34.881   1.356
27745W        W96218  29.636   0.402  11.124
27746W        W96219   7.334  16.807   2.778
27747W        W96220  33.564  24.023  11.594
27748W        W96221  12.160  28.481  14.860
27749W        W96222  29.176  37.344   4.242
27750W        W96223   2.801  10.156   0.732
27751W        W96224  10.380  28.059   4.258
27752W        W96225   8.881  20.701  12.009
27753W        W96226  16.793  15.648  11.025
27754W        W96227   0.872   9.179   2.208
27755W        W96228  36.580  36.951   2.718
27756W        W96229  37.504   3.768  10.620
27757W        W96230   7.810   8.379   1.245
27758W        W96231   9.222  37.394  11.993
27759W        W96232  20.138  20.261  11.058
27760W        W96233  33.551  33.002  13.883
27761W        W96234  16.678  18.117   3.213
27762W        W96235  42.793   8.825  14.335
27763W        W96236  36.028   4.264   2.393
27764W        W96237  27.150  16.796  14.918
27765W        W96238   8.225  22.599   0.967
27766W        W96239  40.816  12.710   0.467
27767W        W96240  24.654  20.105  10.497
27768W        W96241   2.231  44.933  11.372
27769W        W96242  28.962  41.475   4.749
27770W        W96243  28.678  20.106  12.917
27771W        W96244  22.555   3.253   5.130
27772W        W96245  44.284  43.852   1.365
27773W        W96246  35.411  43.931   2.322
27774W        W96247  17.689  37.049  11.969
27775W        W96248  34.985  35.370  14.306
27776W        W96249  35.436  44.877   0.824
27777W        W96250  20.159  39.009   4.264
27778W        W96251  35.879  19.071   2.329
27779W        W96252   0.908   8.296   4.747
27780W        W96253   2.259  14.138  12.932
27781W        W96254  30.940   9.171   2.821
27782W        W96255   8.798   5.325   3.228
27783W        W96256   5.763  31.115  14.321
27784W        W96257   9.351  39.313  11.520
27785W        W96258  38.852   7.819  13.538
27786W        W96259  25.108   1.414  11.995
27787W        W96260   2.250  22.160  12.490
27788W        W96261  22.607  21.128   3.740
27789W        W96262  28.065   1.465  13.818
27790W        W96263  40.042   7.826  11.380
27791W        W96264  35.865  36.370  13.336
27792W        W96265   7.677  40.417  12.835
27793W        W96266  29.017   8.198   0.300
27794W        W96267  11.655  43.821  11.097
27795W        W96268  20.128  44.420   0.751
27796W        W96269  34.377  13.705   1.721
27797W        W96270  32.399  28.073   2.690
27798W        W96271  14.774  29.136  13.974
27799W        W96272  32.006  16.730   1.347
27800W        W96273  27.649  11.169  14.292
27801W        W96274   1.479  31.120   4.742
27802W        W96275  28.459  19.105   3.690
27803W        W96276  43.309  10.728  14.029
27804W        W96277  21.707  38.439  13.404
27805W        W96278  15.801  20.684  13.313
27806W        W96279   8.670  30.046  12.348
27807W        W96280  33.418  38.412  11.859
27808W        W96281  22.507  18.067   1.889
27809W        W96282  15.256   9.232   2.698
27810W        W96283  31.948  31.028  13.938
27811W        W96284  11.275  20.057  14.885
27812W        W96285  33.044  39.819   0.889
27813W        W96286  20.099  41.832  10.446
27814W        W96287  28.949  22.096   1.215
27815W        W96288  37.018  35.370   1.385
27816W        W96289  35.562  22.068   1.315
27817W        W96290  19.685  12.270   4.122
27818W        W96291  36.929   2.899  11.572
27819W        W96292  33.050  12.711  11.886
27820W        W96293   4.777   2.772  13.976
27821W        W96294  36.900  42.010   0.343
27822W        W96295  27.654  39.875  14.490
27823W        W96296   1.282  13.822  12.045
27824W        W96297  44.895  43.935  14.004
27825W        W96298  20.563  17.247   3.380
27826W        W96299  32.050   8.900   1.228
27827W        W96300  15.327  35.108   1.902
27828W        W96301   9.688   7.333   0.259
27829W        W96302  37.085   6.819  13.521
27830W        W96303  28.468   8.799  14.329
27831W        W96304  23.082   4.904   3.328
27832W        W96305  18.578  10.342  10.042
27833W        W96306   1.932  28.629  14.938
27834W        W96307  20.063  39.318  14.410
27835W        W96308  36.907  26.065   1.788
27836W        W96309  12.672  39.944  11.871
27837W        W96310  31.502   2.861  14.354
27838W        W96311  41.005  38.879   2.251
27839W        W96312  28.632  25.562   1.862
27840W        W96313  23.210  26.669  10.140
27841W        W96314  21.731  40.974  14.395
27842W        W96315  15.811   3.893   4.266
27843W        W96316  31.604  35.383   2.839
27844W        W96317   3.953  12.846   0.274
27845W        W96318   5.193  40.803  11.537
27846W        W96319  29.017   4.436   0.387
27847W        W96320  35.504  21.249   4.794
27848W        W96321  27.543  24.676  12.415
27849W        W96322   2.234  36.037   3.380
27850W        W96323  18.162   2.880   3.300
27851W        W96324  32.608  29.512  11.996
27852W        W96325  14.695  29.499  14.763
27853W        W96326   6.237  34.457  12.868
27854W        W96327   9.781  38.836  10.404
27855W        W96328   4.875  12.841  12.470
27856W        W96329  11.282  36.409  12.044
27857W        W96330   0.971   5.868  11.124
27858W        W96331  21.035  25.538   4.212
27859W        W96332  18.171  10.164   2.889
27860W        W96333  42.399  10.685   0.357
27861W        W96334   5.300  29.539   1.835
27862W        W96335  41.944  22.742   0.465
27863W        W96336   7.895  14.241   9.926
27864W        W96337   9.671  16.578   0.423
27865W        W96338  21.742  41.986  13.855
27866W        W96339  16.647  16.678   2.389
27867W        W96340  33.113   6.850   0.257
27868W        W96341  27.568  43.829  10.495
27869W        W96342  42.964  39.404  14.759
27870W        W96343  20.653  44.869   2.393
27871W        W96344  22.727  42.488   1.213
27872W        W96345  29.004  43.809  11.996
27873W        W96346  32.464  44.820  10.508
27874W        W96347   0.493  21.238  10.602
27875W        W96348  21.156  44.872  14.453
27876W        W96349  40.853  23.541  13.535
27877W        W96350  39.461  22.010  14.454
27878W        W96351  44.931  32.976   2.691
27879W        W96352  18.697  28.548  14.863
27880W        W96353  40.032  32.101   1.336
27881W        W96354  37.560  37.423  14.838
27882W        W96355  20.529  38.966   1.835
27883W        W96356   4.902  10.687   1.377
27884W        W96357  31.475  34.905  14.508
27885W        W96358  40.373  37.957  12.395
27886W        W96359  27.083  40.053   4.657
27887W        W96360   9.209  40.411   0.866
27888W        W96361   0.819   7.300   3.147
27889W        W96362  27.550  44.340   3.808
27890W        W96363  26.070   8.775   2.281
27891W        W96364   1.952  31.908  10.448
27892W        W96365   3.426   8.276  13.948
27893W        W96366  19.550  14.810   4.634
27894W        W96367  14.781  41.450  12.038
27895W        W96368  27.498  25.163  10.409
27896W        W96369  27.998  44.906   0.243
27897W        W96370   0.969  39.017   3.833
27898W        W96371  30.457  19.101   1.382
27899W        W96372  31.489  17.766   4.126
27900W        W96373  20.598  33.091  13.991
27901W        W96374  43.402   4.819   1.830
27902W        W96375  30.617   6.820   2.243
27903W        W96376  36.986  21.726   1.795
27904W        W96377  22.229   6.727  10.576
27905W        W96378  12.682  19.237   0.915
27906W        W96379  39.871   3.354  13.426
27907W        W96380   9.321  13.641   1.821
27908W        W96381  19.212  30.163   4.286
27909W        W96382  24.698  25.505   0.796
27910W        W96383  38.929   3.387   4.157
27911W        W96384  32.547  41.009   3.354
27912W        W96385  39.375  43.910   0.351
27913W        W96386  14.620   6.861  14.961
27914W        W96387  39.992  20.175   1.702
27915W        W96388  12.673  17.733  11.530
27916W        W96389   0.397  11.675  11.979
27917W        W96390   5.727  13.163  11.448
27918W        W96391  43.285  16.627   1.300
27919W        W96392  36.059   4.406  11.440
27920W        W96393   0.331  30.543   1.432
27921W        W96394  32.502  14.325  11.412
27922W        W96395  33.584  29.101  13.937
27923W        W96396  42.473  22.725  14.374
27924W        W96397  10.291  30.628  10.109
27925W        W96398  18.735  27.531   4.133
27926W        W96399  28.532  18.728   4.331
27927W        W96400   1.753  35.596   1.287
27928W        W96401   8.216   1.800  10.997
27929W        W96402  15.759  38.335   0.953
27930W        W96403  15.796  12.851  14.318
27931W        W96404  15.155  40.315  11.544
27932W        W96405   6.894  22.207  14.485
27933W        W96406  28.541  32.008   5.233
27934W        W96407  38.449  43.774   1.307
27935W        W96408  30.650   4.811   2.396
27936W        W96409   9.816  20.576  14.320
27937W        W96410  34.943   1.745  10.160
27938W        W96411  35.491  31.627   3.373
27939W        W96412  31.904  38.938  12.448
27940W        W96413  30.553  39.486  12.429
27941W        W96414  31.597   0.885  14.414
27942W        W96415  36.351   0.778  10.106
27943W        W96416  26.115  34.099  13.989
27944W        W96417  42.032  23.512  13.970
27945W        W96418   4.346   4.861  10.509
27946W        W96419  28.491  17.745   3.654
27947W        W96420  15.253  39.024   3.676
27948W        W96421   4.750   5.864  11.402
27949W        W96422  12.225  16.260  13.338
27950W        W96423  28.562  35.536  14.015
27951W        W96424  44.449  32.911   1.417
27952W        W96425  16.611  19.115  14.926
27953W        W96426  12.829  44.438  13.056
27954W        W96427  28.602  16.102  13.808
27955W        W96428  12.709   6.746  10.550
27956W        W96429  16.571  20.157   4.225
27957W        W96430  25.617  15.252  12.527
27958W        W96431  37.479  11.163  13.343
27959W        W96432  20.728  40.391  13.981
27960W        W96433   3.257  32.637   3.862
27961W        W96434  28.477  11.760  11.053
27962W        W96435  17.100  13.173   4.135
27963W        W96436  24.562  43.808  12.061
27964W        W96437  28.044  26.499   4.702
27965W        W96438  23.613   8.732   1.759
27966W        W96439  21.246   5.249   3.240
27967W        W96440  15.222   8.787   4.245
27968W        W96441  14.318  29.038  12.944
27969W        W96442   3.277  31.064  13.323
27970W        W96443  19.041  30.454  12.944
27971W        W96444  21.520  28.974   1.210
27972W        W96445  21.688  29.525   0.358
27973W        W96446  36.481   3.263   4.225
27974W        W96447   8.393  40.843   0.768
27975W        W96448  17.720  20.739   1.224
27976W        W96449   1.394   6.801  10.548
27977W        W96450  13.264  43.433   4.200
27978W        W96451  16.287  18.105   1.748
27979W        W96452  27.600  18.759   3.686
27980W        W96453   3.328  30.481  12.068
27981W        W96454  25.611  23.617  14.460
27982W        W96455  26.975  13.229   1.354
27983W        W96456  20.534   7.276  11.514
27984W        W96457   3.876  20.637   2.205
27985W        W96458   8.801  24.680  12.039
27986W        W96459  33.543  29.113   1.336
27987W        W96460  24.041  36.438   1.407
27988W        W96461  13.614   3.223   0.253
27989W        W96462  27.971  28.598   1.801
27990W        W96463   7.327  44.407   0.740
27991W        W96464  42.911  36.372   4.347
27992W        W96465  24.524  38.474  14.356
27993W        W96466  40.423  17.142   4.311
27994W        W96467  37.977  17.717  14.797
27995W        W96468  21.695  44.361  11.469
27996W        W96469  17.278  14.713   3.364
27997W        W96470  23.099  10.343  10.406
27998W        W96471   6.814  10.725  14.393
27999W        W96472   8.175  21.233   2.267
28000W        W96473  33.992   7.237   0.460
28001W        W96474  28.997  28.087  11.515
28002W        W96475  31.060  21.571  14.416
28003W        W96476  13.299  27.196   1.724
28004W        W96477  28.535  27.018  13.382
28005W        W96478  14.270  14.641   0.434
28006W        W96479  15.322  10.260   2.676
28007W        W96480   1.933   4.321  13.938
28008W        W96481  26.673  37.578  11.900
28009W        W96482  16.783  38.414   4.747
28010W        W96483  30.433  34.449   4.826
28011W        W96484   9.780  38.429  13.847
28012W        W96485  16.260  25.541  11.483
28013W        W96486   8.251   8.275  12.068
28014W        W96487  13.809  28.531  14.836
28015W        W96488  31.563  16.642  11.413
28016W        W96489  38.412  38.988   0.307
28017W        W96490  23.549  37.025  11.489
28018W        W96491  37.381  27.661   1.747
28019W        W96492   9.306  10.280   4.326
28020W        W96493  22.711   1.818  14.008
28021W        W96494  22.059  25.644   3.797
28022W        W96495  20.042  11.290  13.929
28023W        W96496  21.715  42.498  13.038
28024W        W96497  26.654  19.718   3.644
28025W        W96498  39.944  35.600  14.795
28026W        W96499  20.167  22.008  14.786
28027W        W96500   1.874   8.173  14.890
28028W        W96501  16.690  39.356  10.960
28029W        W96502  10.248  33.430  13.869
28030W        W96503  44.288  33.400  11.090
28031W        W96504  23.604  31.017  13.057
28032W        W96505   1.283  14.730  11.035
28033W        W96506   6.190  31.431  14.784
28034W        W96507  11.710   0.906   2.789
28035W        W96508  37.018  40.529   2.364
28036W        W96509  37.037   5.434   4.747
28037W        W96510  13.778   6.684  14.816
28038W        W96511  26.667  14.599   1.768
28039W        W96512  30.416  19.191  14.411
28040W        W96513   5.279  27.176   1.778
28041W        W96514   3.459  15.793   1.917
28042W        W96515   1.267   3.452   3.697
28043W        W96516  35.399   7.724   2.824
28044W        W96517  27.994   4.319   2.275
28045W        W96518  37.002   3.250  12.083
28046W        W96519   1.237  33.007  10.594
28047W        W96520  12.730  24.495   1.408
28048W        W96521  30.942  32.491   3.767
28049W        W96522  13.628   7.803   3.788
28050W        W96523  12.734  18.730   3.349
28051W        W96524  39.344  39.957   3.695
28052W        W96525  25.566  37.894  11.926
28053W        W96526  37.870  13.219   1.890
28054W        W96527  31.473  32.088   0.252
28055W        W96528  34.381   7.678  12.095
28056W        W96529  19.724   4.392  11.575
28057W        W96530  34.404  24.696  13.865
28058W        W96531  27.055  12.680  13.903
28059W        W96532  24.088   3.323  12.444
28060W        W96533   0.292  37.502  14.316
28061W        W96534  19.201  21.053   0.252
28062W        W96535   5.854  20.200  11.098
28063W        W96536  29.086  35.417  14.316
28064W        W96537  40.835  19.275  10.953
28065W        W96538   4.273  13.268   0.905
28066W        W96539  31.423  21.745  14.814
28067W        W96540   9.319  34.998   0.961
28068W        W96541  12.730  34.406  12.560
28069W        W96542  23.203   5.774   1.866
28070W        W96543  11.839  10.817  11.901
28071W        W96544  17.575  18.079  13.983
28072W        W96545  17.097  24.652  13.819
28073W        W96546  25.602  14.232  10.435
28074W        W96547  24.134  12.701  13.479
28075W        W96548  14.279   6.894   0.751
28076W        W96549  34.064  15.612   4.773
28077W        W96550  21.636  16.170  12.551
28078W        W96551  21.614   1.367  12.506
28079W        W96552  35.975  26.483   3.304
28080W        W96553  30.074  31.496  10.983
28081W        W96554  27.569  34.050   3.359
28082W        W96555  34.981  34.584   0.855
28083W        W96556  41.880  10.634   0.865
28084W        W96557  42.015   7.232   4.320
28085W        W96558  10.712   8.226  12.929
28086W        W96559  19.078  17.267  13.921
28087W        W96560  31.088   3.421  12.024
28088W        W96561  21.647   7.283  14.768
28089W        W96562  18.082   2.397  13.948
28090W        W96563  31.091  36.391  14.333
28091W        W96564   8.264  19.701   0.329
28092W        W96565   7.226  26.071  12.548
28093W        W96566  14.835  26.167  12.857
28094W        W96567   5.781  38.952  14.444
28095W        W96568  14.632  35.458  14.880
28096W        W96569  40.801  23.074  14.892
28097W        W96570  33.471   7.816   2.741
28098W        W96571  11.352  26.511  10.944
28099W        W96572   7.722   3.278  12.569
28100W        W96573   3.796   8.884  10.018
28101W        W96574   7.898  33.526  13.547
28102W        W96575  19.689  38.858  11.543
28103W        W96576  17.286  31.097  11.920
28104W        W96577  22.510  32.490   1.282
28105W        W96578  18.654   4.936  13.878
28106W        W96579   6.807  36.470   1.329
28107W        W96580  26.147  28.514  14.382
28108W        W96581  13.213   3.865  12.525
28109W        W96582  13.653  35.509   4.117
28110W        W96583  24.484  27.087   0.339
28111W        W96584  20.713   2.751   1.893
28112W        W96585  37.017  32.052  11.448
28113W        W96586  27.992  26.651   3.728
28114W        W96587  42.365  10.340  12.051
28115W        W96588  15.811  16.805   0.794
28116W        W96589  36.084  28.123   2.230
28117W        W96590  28.005  10.794   4.217
28118W        W96591  44.473  40.417  13.426
28119W        W96592   2.803  31.423   2.825
28120W        W96593  35.900  24.669   3.167
28121W        W96594   5.696   2.809   3.865
28122W        W96595   1.453  11.663   3.332
28123W        W96596  15.320  27.595   4.682
28124W        W96597  37.460   7.808  13.952
28125W        W96598  27.187  42.382   0.420
28126W        W96599   0.828   1.950  14.891
28127W        W96600  14.796  30.025  12.538
28128W        W96601   5.409  40.873   3.633
28129W        W96602   6.780  44.824  11.459
28130W        W96603  42.921   0.354  13.545
28131W        W96604  17.111  34.965  14.876
28132W        W96605  19.730  29.073  11.517
28133W        W96606  43.286  12.854   4.776
28134W        W96607  10.356  29.068  15.000
28135W        W96608   8.192  19.757  11.901
28136W        W96609  30.050  29.926   4.683
28137W        W96610  20.687  31.636   0.963
28138W        W96611  31.424  39.314  13.895
28139W        W96612   3.384  15.739  13.974
28140W        W96613  18.263   8.195  11.396
28141W        W96614   3.717  14.275   4.219
28142W        W96615  25.144   7.708   0.286
28143W        W96616  43.815  34.915   4.131
28144W        W96617  25.581  39.495   1.308
28145W        W96618  16.304  20.687  10.505
28146W        W96619  36.533  41.505   3.700
28147W        W96620  40.356  31.576  14.513
28148W        W96621  37.008   2.798  14.998
28149W        W96622  25.619  41.997   1.798
28150W        W96623  24.538  32.049   3.630
28151W        W96624  24.105  35.577   3.196
28152W        W96625  25.123  36.354   5.179
28153W        W96626  15.282  12.648  13.046
28154W        W96627   5.300  44.985  12.502
28155W        W96628  41.413   7.327   0.300
28156W        W96629  34.102  38.062  12.340
28157W        W96630  42.410  24.052   1.375
28158W        W96631  18.725  34.596  10.602
28159W        W96632  26.614  12.315   0.887
28160W        W96633  44.932   7.296   4.346
28161W        W96634  39.530  10.314  13.063
28162W        W96635  43.790  21.188   2.277
28163W        W96636   1.777  32.133   3.815
28164W        W96637   1.465  41.971  11.951
28165W        W96638  18.604  31.947  13.054
28166W        W96639  34.961   7.779  12.564
28167W        W96640  26.501  27.014  13.889
28168W        W96641  18.262  22.184  14.344
28169W        W96642  23.067  17.164   1.730
28170W        W96643  17.157  16.639  14.858
28171W        W96644  12.276  13.816  14.759
28172W        W96645  35.034  26.673   2.702
28173W        W96646   8.823   4.213   2.734
28174W        W96647   9.770   9.289  13.484
28175W        W96648  27.651  38.873  10.491
28176W        W96649  19.217   8.256   0.368
28177W        W96650   1.811   4.425   3.831
28178W        W96651   2.727  24.141  14.467
28179W        W96652   4.298   5.768  10.010
28180W        W96653  34.566  35.513   1.870
28181W        W96654  32.479  22.999  10.616
28182W        W96655   4.859  37.443   2.404
28183W        W96656  43.427  13.817  14.461
28184W        W96657  28.039  39.946  12.359
28185W        W96658   2.872   4.870  12.465
28186W        W96659  35.532   6.384   1.745
28187W        W96660  28.934  42.294   0.761
28188W        W96661  14.818   4.314  11.383
28189W        W96662  28.970  33.621  10.541
28190W        W96663  26.462  11.253  14.405
28191W        W96664  28.957   2.949  11.446
28192W        W96665  12.256  35.964   2.874
28193W        W96666  17.098  41.829  12.894
28194W        W96667  43.285   4.794   4.175
28195W        W96668   0.857   3.323  14.485
28196W        W96669  33.403  35.897   2.699
28197W        W96670  32.057  32.133   3.243
28198W        W96671  32.631   2.960   3.700
28199W        W96672  41.888  16.626   2.862
28200W        W96673   3.325  19.268  12.050
28201W        W96674  38.434  42.323   0.253
28202W        W96675  33.982  23.662  10.935
28203W        W96676   2.953   0.438   2.757
28204W        W96677  13.660  23.627  10.568
28205W        W96678  16.789  25.687  11.415
28206W        W96679  24.189  39.970  10.992
28207W        W96680  26.586   4.732   4.219
28208W        W96681  23.583  26.616  11.376
28209W        W96682   8.367  23.556   0.825
28210W        W96683   3.281  33.008   2.243
28211W        W96684  26.632  34.387  10.988
28212W        W96685  33.926   0.951   4.671
28213W        W96686  42.393  40.994   4.771
28214W        W96687  43.356  26.512   3.829
28215W        W96688  30.125  23.991  14.882
28216W        W96689  22.064   4.257  14.830
28217W        W96690  39.815  20.249  13.922
28218W        W96691  14.744   9.689   2.784
28219W        W96692  20.048  10.236  11.048
28220W        W96693  36.396  20.116   2.244
28221W        W96694  18.085  39.385  14.288
28222W        W96695   2.934  19.628  14.817
28223W        W96696  34.473  32.584   3.264
28224W        W96697  41.516  19.074   1.259
28225W        W96698  12.266  33.984   2.193
28226W        W96699  34.985  42.286   0.867
28227W        W96700  15.228  34.400   3.689
28228W        W96701  21.535  40.412   4.187
28229W        W96702  18.710   6.194  13.908
28230W        W96703  17.738  35.020  11.928
28231W        W96704  35.438  20.156   0.446
28232W        W96705  33.095  37.904  14.458
28233W        W96706  30.138  29.494   4.659
28234W        W96707  16.271  20.058  13.045
28235W        W96708  42.010  43.855   2.412
28236W        W96709  11.838  16.656  11.581
28237W        W96710  38.012  35.529   4.182
28238W        W96711   7.415  22.157  10.585
28239W        W96712  16.096  25.682   2.279
28240W        W96713  38.520  41.379  12.373
28241W        W96714  20.730  28.965   0.962
28242W        W96715  19.134  33.470   1.797
28243W        W96716  28.480  35.465   1.314
28244W        W96717  43.489  32.541   3.339
28245W        W96718  39.828  12.702   4.810
28246W        W96719   4.870  12.143   4.800
28247W        W96720  36.574  31.138   0.397
28248W        W96721   6.342  36.482  11.027
28249W        W96722  44.357  16.765  11.373
28250W        W96723  42.950  41.432  12.933
28251W        W96724   1.413  30.654   2.353
28252W        W96725  29.946   5.298  12.063
28253W        W96726   6.252  41.995  10.640
28254W        W96727   9.864  17.220  13.443
28255W        W96728  22.669  33.516  13.044
28256W        W96729  10.755  24.513  10.433
28257W        W96730   8.662   7.250  12.431
28258W        W96731   0.947  44.334  11.543
28259W        W96732  44.758   1.843   4.659
28260W        W96733  20.160  15.113  10.956
28261W        W96734  35.548   4.823   4.124
28262W        W96735   7.286  21.178   3.187
28263W        W96736  30.579   7.205  14.930
28264W        W96737  21.166  23.648  14.496
28265W        W96738  14.591  19.710  14.471
28266W        W96739   8.858  44.340   3.298
28267W        W96740  30.412  14.302  12.905
28268W        W96741  22.117  43.865  14.275
28269W        W96742  32.558  39.511  12.561
28270W        W96743  39.821   9.765   0.377
28271W        W96744  24.667  30.434  12.064
28272W        W96745  31.022  13.729  11.474
28273W        W96746  20.095  22.581  14.275
28274W        W96747  28.559  13.646   1.316
28275W        W96748  37.060  18.787   4.151
28276W        W96749  41.000  23.657   3.834
28277W        W96750  23.540  28.644  14.486
28278W        W96751  19.173  19.114  14.368
28279W        W96752  14.694  27.953   3.166
28280W        W96753   0.493  35.937   3.347
28281W        W96754  38.496  34.440   2.696
28282W        W96755  11.175  42.950  14.792
28283W        W96756  16.758  33.903  12.997
28284W        W96757   2.273   1.284   2.877
28285W        W96758  29.457   4.762   4.762
28286W        W96759  25.033   5.365   4.760
28287W        W96760  34.462  16.778   4.264
28288W        W96761  42.456   5.797   3.648
28289W        W96762  32.049   1.325   0.764
28290W        W96763  29.642  32.943  11.413
28291W        W96764  31.627  10.860  13.055
28292W        W96765   5.925   3.941   3.357
28293W        W96766  14.596  27.940  14.985
28294W        W96767  17.768   7.753   2.399
28295W        W96768  32.987  31.552  12.873
28296W        W96769  18.243  33.397  14.357
28297W        W96770  25.594  28.508   2.735
28298W        W96771   7.304  26.523   1.339
28299W        W96772  14.648  32.417   1.762
28300W        W96773  18.675  32.973   1.259
28301W        W96774  19.128  41.320   0.346
28302W        W96775  13.698  22.557  13.044
28303W        W96776  36.510  42.934   0.433
28304W        W96777  38.854   6.698   4.655
28305W        W96778  35.081  38.877   2.696
28306W        W96779  35.563  38.063  13.492
28307W        W96780  42.324  28.587   4.266
28308W        W96781  34.440  10.706  14.992
28309W        W96782  17.191  18.574   5.199
28310W        W96783  31.986  26.994   1.442
28311W        W96784  16.310  42.366  10.510
28312W        W96785  37.367  20.053  12.962
28313W        W96786   9.365  13.755  13.822
28314W        W96787  33.061   0.947   1.270
28315W        W96788   9.376  16.608   3.717
28316W        W96789  27.617  16.696  13.487
28317W        W96790  10.745  28.443  12.371
28318W        W96791  24.689  31.004  13.540
28319W        W96792  16.603  37.049   2.344
28320W        W96793  22.006  17.256   0.840
28321W        W96794  28.049  25.151   3.682
28322W        W96795  20.062  27.082   0.815
28323W        W96796  17.300  11.637  11.887
28324W        W96797  22.057  40.907   2.213
28325W        W96798   8.813  12.635   2.200
28326W        W96799  38.435  15.186   1.870
28327W        W96800  25.993  20.665   2.710
28328W        W96801  40.897  23.569   2.417
28329W        W96802  12.152   4.754  11.012
28330W        W96803   4.889  19.211  14.312
28331W        W96804  42.921  31.006   2.720
28332W        W96805  44.416   7.718   0.796
28333W        W96806  22.072  21.695   3.754
28334W        W96807  28.131  26.634   2.388
28335W        W96808  15.693  44.430  11.578
28336W        W96809   5.332  16.653  11.471
28337W        W96810  37.856   7.183   2.381
28338W        W96811  39.023  20.033   2.209
28339W        W96812   6.761  31.080  14.404
28340W        W96813   8.405  33.109  11.538
28341W        W96814  39.468  34.873   0.767
28342W        W96815  38.872   7.820  10.483
28343W        W96816  28.493  30.938   1.444
28344W        W96817  39.859   5.885   0.427
28345W        W96818   7.174  38.523  10.559
28346W        W96819  37.421  25.529  12.477
28347W        W96820  11.665  36.368   3.313
28348W        W96821   4.745  44.435  13.538
28349W        W96822  21.639  20.238  11.565
28350W        W96823   3.377  21.590  11.494
28351W        W96824  23.112   9.649  12.897
28352W        W96825   7.679  41.298   0.258
28353W        W96826  32.932  44.380  10.581
28354W        W96827   8.764  34.097   1.833
28355W        W96828  28.468  27.552  12.925
28356W        W96829  24.983  39.809   1.361
28357W        W96830  19.062   7.738  13.997
28358W        W96831  30.556   8.350  13.921
28359W        W96832   5.924   2.322  12.360
28360W        W96833  26.685  13.160   1.734
28361W        W96834   3.286  36.873  12.404
28362W        W96835  30.014  42.526  12.428
28363W        W96836   4.758  32.464  13.498
28364W        W96837  27.028   3.950  10.494
28365W        W96838  36.934   9.290  14.021
28366W        W96839   3.777  39.019  10.981
28367W        W96840  31.139  39.416  12.405
28368W        W96841   1.369   1.243   0.293
28369W        W96842  32.955  27.087   3.349
28370W        W96843  32.986  43.341  14.824
28371W        W96844  37.512  42.350  11.471
28372W        W96845  43.786  32.103   5.122
28373W        W96846  27.688   3.252   1.413
28374W        W96847  33.955  36.841   3.337
28375W        W96848  12.849  36.428   1.349
28376W        W96849  22.710  39.460   3.852
28377W        W96850   4.386  30.117  12.858
28378W        W96851  21.027  13.108   4.824
28379W        W96852  39.001  15.810   0.843
28380W        W96853  44.483  18.146  13.360
28381W        W96854  23.013  42.431   1.429
28382W        W96855  35.074   5.884   2.279
28383W        W96856  11.276  19.041   0.804
28384W        W96857   1.899  27.576  10.927
28385W        W96858   2.788  30.146  10.632
28386W        W96859  33.924  10.180   3.813
28387W        W96860  27.526  17.125  13.966
28388W        W96861  12.295  28.650  12.905
28389W        W96862  38.916  14.103  10.490
28390W        W96863   1.368  23.179  12.826
28391W        W96864  17.735  43.927   4.124
28392W        W96865  34.080  13.701   4.191
28393W        W96866  16.134  31.511  14.312
28394W        W96867  34.085   4.932  11.481
28395W        W96868  19.071   8.706  14.909
28396W        W96869  16.739  43.858  13.052
28397W        W96870  14.102  13.114   2.750
28398W        W96871  39.838  15.723   1.778
28399W        W96872  42.486  16.317   0.382
28400W        W96873  24.124  43.888   0.261
28401W        W96874   5.795  31.581   0.417
28402W        W96875  37.003   3.718  10.503
28403W        W96876  34.089  39.929   3.229
28404W        W96877   1.237   8.782  12.953
28405W        W96878  40.507  42.799   2.762
28406W        W96879  27.163   4.750   9.945
28407W        W96880   3.937  32.913  14.985
28408W        W96881   7.372  27.687  14.330
28409W        W96882  24.629  41.388   2.192
28410W        W96883  41.992  13.291  13.941
28411W        W96884   9.843   1.797  12.513
28412W        W96885   6.907  18.194  12.431
28413W        W96886  27.131  15.271  14.995
28414W        W96887  40.400  11.140   3.245
28415W        W96888  30.959  39.845   2.228
28416W        W96889  19.158  12.710  14.957
28417W        W96890   0.457  28.103   0.387
28418W        W96891  23.499  20.232   4.322
28419W        W96892  38.071  35.863  14.291
28420W        W96893  12.317  11.207   1.796
28421W        W96894  14.124  35.405   0.764
28422W        W96895  36.897  29.656   1.296
28423W        W96896  25.576  42.421   2.276
28424W        W96897  14.107  27.600   0.889
28425W        W96898  42.865  10.282   2.404
28426W        W96899  42.344   3.914   1.428
28427W        W96900  16.618  38.452   2.893
28428W        W96901  28.040   0.743   3.750
28429W        W96902  38.969  25.489   2.362
28430W        W96903   9.648  19.595   1.424
28431W        W96904  18.629  26.606  11.062
28432W        W96905  12.641  12.645   3.777
28433W        W96906   6.678  29.520   1.733
28434W        W96907   5.822  12.232   2.742
28435W        W96908  39.447  36.453   0.398
28436W        W96909  36.394  27.188  11.970
28437W        W96910  27.182  16.718  14.495
28438W        W96911  19.590  27.940  12.540
28439W        W96912  11.147  26.545  13.389
28440W        W96913  25.584  21.732   0.478
28441W        W96914  37.569   3.779   4.781
28442W        W96915  44.856  20.756  14.889
28443W        W96916  10.338  34.963  12.055
28444W        W96917  20.030  42.287   0.293
28445W        W96918  39.830   4.360   2.738
28446W        W96919  26.502  28.950   0.854
28447W        W96920  38.570  24.505   1.731
28448W        W96921  40.905  43.491   0.428
28449W        W96922   7.206  26.137  13.858
28450W        W96923   6.897  16.672  14.970
28451W        W96924  32.069  37.540   1.254
28452W        W96925  40.945  21.018  11.005
28453W        W96926   9.711  30.512  12.504
28454W        W96927  17.165  43.949   3.360
28455W        W96928  42.878  41.395   3.242
28456W        W96929  31.975  32.126  11.870
28457W        W96930  13.227   8.310   3.250
28458W        W96931  23.500  39.052  11.951
28459W        W96932  35.368  22.517   0.786
28460W        W96933  10.823  32.484   0.745
28461W        W96934  42.929  12.314  13.047
28462W        W96935   5.744  29.024  12.998
28463W        W96936  26.111   3.259   4.222
28464W        W96937   7.322  44.955   3.784
28465W        W96938  31.475   8.745  14.423
28466W        W96939  19.607  34.067  12.067
28467W        W96940   1.481   5.740   2.720
28468W        W96941  44.830  35.459  10.938
28469W        W96942  15.793   1.466   2.688
28470W        W96943  25.516  15.237   3.827
28471W        W96944  33.512  25.977  11.465
28472W        W96945  24.170   9.149   4.691
28473W        W96946  36.990  20.566   0.832
28474W        W96947  41.310   7.708   4.199
28475W        W96948  17.245  10.207   2.376
28476W        W96949  22.036  31.997  11.520
28477W        W96950  24.009   9.315  10.962
28478W        W96951  23.122   0.988  12.940
28479W        W96952  43.774  15.742  11.555
28480W        W96953   6.817   8.185   1.250
28481W        W96954  31.941   9.682  12.905
28482W        W96955  21.256  19.726  12.981
28483W        W96956   0.340  13.131  12.995
28484W        W96957  41.336   2.724   2.274
28485W        W96958  43.891  16.074   4.822
28486W        W96959  34.913   1.363   0.852
28487W        W96960  12.772  18.143   0.784
28488W        W96961  38.479  38.353  13.440
28489W        W96962  42.029  10.314   2.813
28490W        W96963  30.060  38.958  11.524
28491W        W96964  39.462  37.494  13.373
28492W        W96965   7.391   1.951  14.005
28493W        W96966  26.633  33.907   2.803
28494W        W96967  35.090  15.654   3.697
28495W        W96968  14.160   9.853  13.884
28496W        W96969  31.939  19.140  10.974
28497W        W96970  12.357  39.976   3.691
28498W        W96971  17.084  32.448   3.328
28499W        W96972  31.417  27.992  12.467
28500W        W96973  29.170  38.390   4.736
28501W        W96974  20.762   4.737   3.661
28502W        W96975  30.431  33.918   4.140
28503W        W96976   3.844  13.185   3.697
28504W        W96977  19.716  35.010   1.741
28505W        W96978  23.536  34.417   1.751
28506W        W96979  31.476   0.814  14.973
28507W        W96980  43.806   8.290   0.839
28508W        W96981  32.484  26.078   0.826
28509W        W96982   7.738  39.401  11.523
28510W        W96983  22.715  23.161  13.883
28511W        W96984  33.063   3.747   3.764
28512W        W96985   3.375  15.143   0.426
28513W        W96986  11.865  36.427  14.763
28514W        W96987  34.105  27.169   4.164
28515W        W96988  34.955  13.198  10.602
28516W        W96989   3.813  13.824   5.609
28517W        W96990  40.930  25.481  14.352
28518W        W96991   0.384  15.630  14.296
28519W        W96992  32.068  43.861  14.839
28520W        W96993  36.444  13.707  10.924
28521W        W96994  20.263  37.006   3.665
28522W        W96995  38.402  26.003  12.362
28523W        W96996  37.554  38.826  12.394
28524W        W96997  13.740   3.269  13.846
28525W        W96998  19.139  24.539  14.903
28526W        W96999  26.009  27.961  12.972
28527W        W97000   7.783  32.410  11.919
28528W        W97001  27.964  24.625   3.191
28529W        W97002  34.094  44.757  13.052
28530W        W97003   4.884   3.746  11.483
28531W        W97004  30.500  27.123   0.898
28532W        W97005   2.902  20.743  14.789
28533W        W97006  35.896  28.995   2.203
28534W        W97007  28.552  44.759   3.357
28535W        W97008  23.047  38.909   4.705
28536W        W97009  43.020  38.352  11.903
28537W        W97010   5.899  11.725   1.722
28538W        W97011  15.733  20.525   1.246
28539W        W97012   1.764  12.659   0.245
28540W        W97013  37.541   4.210   0.803
28541W        W97014  31.088  39.044   0.961
28542W        W97015  27.605  36.864  14.963
28543W        W97016  33.547  42.478   0.785
28544W        W97017  37.919  42.979  12.092
28545W        W97018  26.676  24.095  14.357
28546W        W97019  37.977   9.350   3.720
28547W        W97020  25.541  19.742   3.651
28548W        W97021  32.005  18.119  14.781
28549W        W97022  24.674   6.716  14.340
28550W        W97023  10.157  39.918  11.898
28551W        W97024   0.263  26.173   3.710
28552W        W97025  20.147  39.542   4.340
28553W        W97026  19.189  35.430  13.437
28554W        W97027  17.169   0.949  10.446
28555W        W97028   2.829  40.416  10.524
28556W        W97029  13.309  42.020   2.746
28557W        W97030  28.439  44.758  12.054
28558W        W97031  43.344  12.652   0.756
28559W        W97032   1.903  10.377   4.765
28560W        W97033  11.357  19.657  14.301
28561W        W97034  36.439  43.899  14.460
28562W        W97035  21.089  24.017   5.162
28563W        W97036  29.039  26.075   3.696
28564W        W97037   4.737  35.110  14.804
28565W        W97038   0.438  37.990  12.954
28566W        W97039   2.368  19.124  11.871
28567W        W97040  42.820  29.655  10.462
28568W        W97041  16.136   1.272  12.541
28569W        W97042  31.971  23.172  13.854
28570W        W97043  18.195   3.797  14.341
28571W        W97044  27.479  40.987   1.715
28572W        W97045  38.473  12.209   4.259
28573W        W97046  30.958  21.087  12.027
28574W        W97047  35.047  36.421  11.504
28575W        W97048   4.216  31.598   2.731
28576W        W97049  33.060   4.346  13.430
28577W        W97050  39.479  19.186  12.518
28578W        W97051   7.264   5.434   2.853
28579W        W97052  17.242  41.031  13.886
28580W        W97053  26.164  15.688   1.300
28581W        W97054  15.138  41.926   3.295
28582W        W97055  14.772  27.961  13.836
28583W        W97056  22.081   0.759   1.890
28584W        W97057  18.576   6.331   3.208
28585W        W97058   0.248  32.141   1.731
28586W        W97059  42.798  39.980   4.639
28587W        W97060  42.002   0.424   4.679
28588W        W97061  11.851  12.675   0.838
28589W        W97062  25.177  38.842  12.997
28590W        W97063  23.220   8.296  12.545
28591W        W97064  21.636  32.979  13.838
28592W        W97065  39.496  32.489   2.791
28593W        W97066  37.417  23.696  13.840
28594W        W97067  34.439   1.267   1.883
28595W        W97068  37.503  34.059  11.045
28596W        W97069  43.477   9.327   1.783
28597W        W97070  31.955  37.989  12.486
28598W        W97071  22.997   8.683   2.279
28599W        W97072  17.749  44.775   3.744
28600W        W97073  38.896  40.026   4.250
28601W        W97074  10.259   5.419   4.835
28602W        W97075  36.859  16.297   4.724
28603W        W97076  41.880   7.715  11.473
28604W        W97077  11.644  22.146   4.623
28605W        W97078  41.894  42.849   0.310
28606W        W97079  37.432  35.604  11.127
28607W        W97080  41.486  27.683  12.012
28608W        W97081   0.251  42.816  14.409
28609W        W97082  28.547  18.095   2.361
28610W        W97083  23.512   8.823   2.402
28611W        W97084   4.444  35.037   3.262
28612W        W97085  24.973  32.024  12.389
28613W        W97086  30.515  41.348   0.357
28614W        W97087   2.312  33.984  10.995
28615W        W97088   7.180   6.422   9.936
28616W        W97089  28.036  43.869  12.500
28617W        W97090  18.094  36.027   2.803
28618W        W97091   4.721  36.467  10.098
28619W        W97092  30.012  10.329   1.818
28620W        W97093  26.692  24.716   2.202
28621W        W97094  34.999  37.918   0.872
28622W        W97095  31.489  40.548   1.716
28623W        W97096   0.421   3.407  13.373
28624W        W97097  44.460   3.260   4.830
28625W        W97098  22.613  14.167   4.137
28626W        W97099  11.654  29.153   2.225
28627W        W97100  12.664  42.470   2.771
28628W        W97101   3.342   7.226   3.283
28629W        W97102  42.908  31.949   1.446
28630W        W97103  22.051  37.454   3.732
28631W        W97104  10.766   1.798   4.263
28632W        W97105  36.451  32.090  14.023
28633W        W97106  10.706  40.004   1.272
28634W        W97107  44.464  16.735   4.703
28635W        W97108  43.954  26.057   2.235
28636W        W97109  17.295  28.127  10.933
28637W        W97110  29.461  25.676  14.326
28638W        W97111  23.232  14.706   9.568
28639W        W97112   8.353   0.388   3.653
28640W        W97113  44.954  33.900   1.430
28641W        W97114  15.585  34.469  10.113
28642W        W97115  44.879  12.824   2.700
28643W        W97116  15.586  11.726   4.718
28644W        W97117  39.847   1.775  13.948
28645W        W97118  37.872  23.520  14.989
28646W        W97119  33.909   8.311  10.442
28647W        W97120  44.259  40.464  12.339
28648W        W97121  17.087   9.216   3.705
28649W        W97122  22.630  13.769   4.340
28650W        W97123  24.079  15.711  14.908
28651W        W97124  17.065   3.311  12.831
28652W        W97125  19.253  38.366  12.864
28653W        W97126  38.334  34.865   2.222
28654W        W97127  30.495  37.944   0.412
28655W        W97128   6.767  42.026  11.958
28656W        W97129  29.605  13.295   4.771
28657W        W97130  30.539  12.623  11.093
28658W        W97131  28.032  39.488   2.388
28659W        W97132   0.986  35.872   5.258
28660W        W97133  11.849   0.797  12.987
28661W        W97134  41.414  25.468   2.344
28662W        W97135   3.357  23.656   0.891
28663W        W97136  38.824  40.492  10.606
28664W        W97137  34.069  12.791   2.372
28665W        W97138   8.194  38.844   1.430
28666W        W97139  31.643  36.008   3.723
28667W        W97140   9.885   2.340  13.876
28668W        W97141   6.862  12.728  10.022
28669W        W97142  36.089   4.423   4.763
28670W        W97143   8.239  39.492   2.888
28671W        W97144  20.103  42.462   2.259
28672W        W97145  24.105   1.840  14.954
28673W        W97146   3.864  35.931   5.237
28674W        W97147  17.592  16.257  14.486
28675W        W97148  44.756  10.294   3.788
28676W        W97149  15.136  19.268   3.221
28677W        W97150  27.982  37.369  11.973
28678W        W97151  25.588  28.530  13.523
28679W        W97152  17.289  40.505   1.228
28680W        W97153   3.365   9.844   4.292
28681W        W97154  41.495   6.239   2.189
28682W        W97155  32.052  38.333  12.573
28683W        W97156  42.377  26.476  14.950
28684W        W97157  14.337   5.428  11.544
28685W        W97158  25.540  29.561   1.698
28686W        W97159  20.089  43.416  12.848
28687W        W97160   4.737  23.200   3.788
28688W        W97161  42.381  30.572  10.422
28689W        W97162   0.968  25.042  14.274
28690W        W97163  38.556   9.704   4.120
28691W        W97164   2.831  38.338  10.975
28692W        W97165  42.009  23.148  14.849
28693W        W97166  37.339   6.370   4.300
28694W        W97167  14.323  28.176   4.675
28695W        W97168  25.168  29.632  10.414
28696W        W97169  25.669  32.912  10.469
28697W        W97170  39.915  30.955   2.664
28698W        W97171   1.272   2.300  13.415
28699W        W97172  26.606   8.321   0.926
28700W        W97173  24.627  24.704   4.726
28701W        W97174  36.502  40.384  12.955
28702W        W97175  24.714  17.083  10.501
28703W        W97176  24.720   4.889   3.860
28704W        W97177  38.069   1.269  10.940
28705W        W97178  19.204  31.106  13.991
28706W        W97179  10.763  23.586   2.793
28707W        W97180  33.058  12.790  13.544
28708W        W97181  21.184   0.864   1.843
28709W        W97182  29.578  22.104  14.882
28710W        W97183  39.443  33.482  12.487
28711W        W97184  33.919  32.902   1.261
28712W        W97185  37.535  22.195  12.358
28713W        W97186  22.625   3.422   4.749
28714W        W97187  28.493  22.209  14.841
28715W        W97188   2.272  34.454   2.379
28716W        W97189  11.672  27.445   3.376
28717W        W97190  22.185  34.476   4.732
28718W        W97191   5.872  27.456   1.738
28719W        W97192  12.194  13.167   1.919
28720W        W97193  13.256  25.707  14.424
28721W        W97194  17.773  40.431  12.344
28722W        W97195  35.858  30.582   2.669
28723W        W97196   3.339   6.394   1.429
28724W        W97197   8.734  32.047   4.838
28725W        W97198  15.262  32.428   4.346
28726W        W97199  14.727  33.459  14.283
28727W        W97200   7.369  35.500   0.891
28728W        W97201  30.149  14.172  12.340
28729W        W97202  28.535  14.788   1.213
28730W        W97203   3.803   8.253   2.684
28731W        W97204   5.365  39.537  14.361
28732W        W97205  31.431  15.696   3.633
28733W        W97206   8.688  31.478   2.865
28734W        W97207  27.491   3.829   0.926
28735W        W97208  38.947  37.984  10.456
28736W        W97209  28.520  12.680  13.321
28737W        W97210  22.515  40.045   4.131
28738W        W97211  32.056  16.634   9.977
28739W        W97212  30.520   4.812   3.848
28740W        W97213   3.827  13.349  12.021
28741W        W97214  36.356  21.223   2.805
28742W        W97215  10.757  43.873  14.952
28743W        W97216  10.331  21.633  14.282
28744W        W97217  30.442  40.529   1.251
28745W        W97218   9.661  28.984  10.895
28746W        W97219  23.594  21.080  11.123
28747W        W97220  29.575  16.131  14.489
28748W        W97221  40.450  26.567   0.742
28749W        W97222  36.032  27.170  14.874
28750W        W97223  29.536  37.401   2.705
28751W        W97224  44.887  26.484   4.339
28752W        W97225  24.680  11.802  14.914
28753W        W97226  26.583   7.890   5.147
28754W        W97227  19.071  11.810  11.967
28755W        W97228  13.644  14.725  11.438
28756W        W97229  38.858  13.829   1.787
28757W        W97230   1.448  32.617  12.958
28758W        W97231  20.549  14.337   3.226
28759W        W97232  20.691  43.970   2.289
28760W        W97233  29.598   1.816  10.632
28761W        W97234  27.040  32.091   5.095
28762W        W97235  10.805  18.259  12.517
28763W        W97236   5.357  29.989   2.671
28764W        W97237  28.058  14.804   1.376
28765W        W97238   7.174   0.901   0.388
28766W        W97239  44.326  28.999   3.853
28767W        W97240  12.287  29.166   1.801
28768W        W97241  29.657  25.680   9.667
28769W        W97242   2.462  37.083   4.705
28770W        W97243  44.797  37.911  12.052
28771W        W97244   6.790  33.884  12.012
28772W        W97245  26.595  38.370  12.937
28773W        W97246  44.865  41.025   2.244
28774W        W97247   6.845  31.054   1.313
28775W        W97248  30.018  43.779   1.422
28776W        W97249  17.225  17.120  13.908
28777W        W97250  39.335  20.571   3.221
28778W        W97251  12.308  26.488   2.190
28779W        W97252  43.288  39.440   3.233
28780W        W97253  32.481  38.332   3.194
28781W        W97254   0.369  33.091  12.012
28782W        W97255   9.707  23.144   9.969
28783W        W97256  36.494  14.202  10.446
28784W        W97257  31.440  13.156  11.886
28785W        W97258   6.245  35.570  14.956
28786W        W97259  35.072  34.542  11.970
28787W        W97260  29.171   4.703   2.344
28788W        W97261  39.948  18.689   1.235
28789W        W97262  38.031  12.749   2.757
28790W        W97263  34.924  25.474   4.783
28791W        W97264   3.340  39.902   3.359
28792W        W97265  28.645  19.731   0.811
28793W        W97266   3.329   5.347   3.749
28794W        W97267  28.127  35.903   9.956
28795W        W97268  22.645   0.315   1.719
28796W        W97269  20.711  33.103   3.788
28797W        W97270   2.752  21.126   4.739
28798W        W97271   3.861  43.347  13.932
28799W        W97272  34.889  34.506  12.403
28800W        W97273   4.375  40.453  13.402
28801W        W97274   5.726  32.573  10.984
28802W        W97275  22.049  41.537   0.766
28803W        W97276  43.304  18.209   2.396
28804W        W97277  26.649  42.828  12.928
28805W        W97278   8.796   4.370  11.098
28806W        W97279  12.727  40.484  14.389
28807W        W97280  26.500  31.441  12.379
28808W        W97281  29.117  30.640  12.537
28809W        W97282  35.010  42.855   4.169
28810W        W97283  30.624  20.725   4.705
28811W        W97284  15.724   9.705   4.184
28812W        W97285  24.174  12.738  12.874
28813W        W97286  44.003  19.572  14.908
28814W        W97287  27.576  22.232   1.754
28815W        W97288   4.362  32.564   4.290
28816W        W97289  38.869  10.160  10.560
28817W        W97290  13.606  44.924   1.281
28818W        W97291  10.659   8.748   4.727
28819W        W97292  44.448  39.408  13.337
28820W        W97293  38.925  21.237   4.351
28821W        W97294  41.029   5.249   2.730
28822W        W97295   9.706   4.901   0.307
28823W        W97296  34.019  32.419  14.983
28824W        W97297  23.002  30.017   2.283
28825W        W97298  17.603  29.466  11.881
28826W        W97299  17.085  38.854   0.846
28827W        W97300  41.935  42.410   3.802
28828W        W97301  16.148  20.617   4.329
28829W        W97302  21.736   6.407  13.389
28830W        W97303  37.442  13.142   2.740
28831W        W97304   9.316  25.610   2.767
28832W        W97305  28.149  37.070   4.317
28833W        W97306   5.721  16.103  14.433
28834W        W97307  37.546   5.907  13.964
28835W        W97308   6.908  13.286   3.217
28836W        W97309  16.286  30.613   3.290
28837W        W97310  14.625  29.604   0.462
28838W        W97311  30.107   7.240   0.929
28839W        W97312  16.754  24.976  13.044
28840W        W97313   0.427  12.705  13.030
28841W        W97314  29.942  43.376  12.930
28842W        W97315  31.444  36.866   2.677
28843W        W97316  31.041  40.005   1.760
28844W        W97317  16.746  33.114  14.998
28845W        W97318  38.526  17.784   4.165
28846W        W97319  14.333  33.439   3.652
28847W        W97320  20.198  26.587  13.836
28848W        W97321  44.911  31.504   2.293
28849W        W97322   3.228  35.984   1.735
28850W        W97323   2.922   9.697  10.964
28851W        W97324   6.399   9.174   4.644
28852W        W97325  36.074  29.172  12.916
28853W        W97326  29.638  20.044   3.823
28854W        W97327  27.035  13.107   0.259
28855W        W97328  41.857  29.918  13.374
28856W        W97329  38.404   1.854  12.896
28857W        W97330  32.077  16.638  14.279
28858W        W97331  10.185  23.212   9.567
28859W        W97332  37.069  25.993   3.336
28860W        W97333  37.087  44.465   0.318
28861W        W97334  11.223  24.516   5.215
28862W        W97335  13.614  15.129  13.531
28863W        W97336  33.567  30.068   0.292
28864W        W97337  44.756   9.819  13.053
28865W        W97338  15.303  32.529   1.444
28866W        W97339  27.681  37.010   4.626
28867W        W97340  35.088  10.218  11.886
28868W        W97341  40.426  34.935  11.064
28869W        W97342   2.957  42.445   4.285
28870W        W97343  30.619  40.400  13.885
28871W        W97344  26.072  44.469  13.968
28872W        W97345  10.275  23.205  12.980
28873W        W97346  26.591  37.960  13.989
28874W        W97347  35.959  38.498  11.011
28875W        W97348  32.417  34.945   3.835
28876W        W97349  34.572  22.510   0.271
28877W        W97350  24.633  39.986   4.266
28878W        W97351  27.553  14.631   0.453
28879W        W97352  22.104  28.474  13.862
28880W        W97353   3.295  18.152   0.287
28881W        W97354   7.224  23.697   2.347
28882W        W97355  44.404  14.120   0.889
28883W        W97356  37.344  15.145   0.856
28884W        W97357  37.035   3.832  14.376
28885W        W97358  38.955  29.424   4.187
28886W        W97359  40.881  10.266   3.788
28887W        W97360  19.209  15.777   3.734
28888W        W97361  21.143  36.486   2.866
28889W        W97362  24.628  22.219  14.023
28890W        W97363   7.792  17.080   1.415
28891W        W97364  16.248  35.407   0.442
28892W        W97365  30.507  14.599   2.834
28893W        W97366   4.761  26.171   0.736
28894W        W97367  22.725  21.613   4.303
28895W        W97368  24.724   8.750   2.681
28896W        W97369  39.967  11.315  12.828
28897W        W97370  10.656   9.764   3.654
28898W        W97371  16.800   4.220  11.942
28899W        W97372  28.513   8.292   4.832
28900W        W97373   9.212  26.647  10.985
28901W        W97374  29.450   8.831   1.378
28902W        W97375   3.358  27.592  14.907
28903W        W97376   9.170  22.706   3.371
28904W        W97377  19.090  39.523   0.844
28905W        W97378  26.994  29.551   1.865
28906W        W97379  17.714  25.493   0.903
28907W        W97380   6.274  42.869  14.388
28908W        W97381  27.953  18.225   4.214
28909W        W97382  12.312   4.883   1.367
28910W        W97383   2.359   6.405  10.940
28911W        W97384  39.959   1.251   2.186
28912W        W97385  12.733  26.633   3.185
28913W        W97386  43.511  19.643  10.434
28914W        W97387  33.903  37.985   3.859
28915W        W97388  28.559  40.052  12.038
28916W        W97389  43.433  17.166  11.536
28917W        W97390  25.618   7.214  13.940
28918W        W97391  37.015  34.098  12.470
28919W        W97392  17.092   0.840   1.336
28920W        W97393   8.205  16.237  14.495
28921W        W97394   1.310  31.514  14.311
28922W        W97395  23.506  27.092   1.809
28923W        W97396  42.941   4.350   1.791
28924W        W97397  27.123  36.523  13.031
28925W        W97398  10.364   5.709  13.849
28926W        W97399  13.661  39.896  13.495
28927W        W97400  40.878  34.878   1.725
28928W        W97401  13.777  15.585  10.421
28929W        W97402  12.788  34.554  11.522
28930W        W97403   3.952  23.033  14.385
28931W        W97404  24.019  23.644   0.314
28932W        W97405  34.410  29.930   3.752
28933W        W97406  23.543   6.722  10.481
28934W        W97407  18.660  28.030  14.939
28935W        W97408  31.407  23.513  11.129
28936W        W97409  21.020  27.560  12.978
28937W        W97410  19.257  18.651  11.403
28938W        W97411  14.755   5.293  10.406
28939W        W97412  28.107  30.930  13.884
28940W        W97413  19.126  41.958   4.831
28941W        W97414  43.826  27.165   1.797
28942W        W97415  24.105  35.052   9.981
28943W        W97416  37.395  17.126  11.876
28944W        W97417  29.109  13.675  13.879
28945W        W97418  20.609  38.356   0.437
28946W        W97419  24.697  44.366   3.700
28947W        W97420  36.890  22.188  12.479
28948W        W97421  15.719  32.058  13.955
28949W        W97422  40.308   9.878   4.205
28950W        W97423  34.454   6.857  13.851
28951W        W97424  16.744  40.039  12.850
28952W        W97425  28.457  37.904  14.839
28953W        W97426  42.358  28.079   2.290
28954W        W97427  14.286   0.384  11.514
28955W        W97428  30.014  31.449  14.968
28956W        W97429  43.306  43.955   3.236
28957W        W97430  13.275   0.435   0.266
28958W        W97431   9.348  33.544   4.285
28959W        W97432  18.278  21.629   0.385
28960W        W97433  11.201  33.473  11.486
28961W        W97434  24.173   8.772  11.918
28962W        W97435  34.450  18.669  12.828
28963W        W97436  17.157  40.375  10.045
28964W        W97437  10.186  16.287   4.618
28965W        W97438  34.912  12.194   3.833
28966W        W97439  22.051  20.580   2.369
28967W        W97440  20.094  23.036   1.838
28968W        W97441  20.738   5.294   1.253
28969W        W97442  34.872   7.743   0.374
28970W        W97443  28.087   6.306  10.059
28971W        W97444  32.007  23.608  13.363
28972W        W97445   2.452   4.942  13.401
28973W        W97446  32.529  23.160  12.472
28974W        W97447   7.787  17.092   0.778
28975W        W97448  10.157  23.688  13.909
28976W        W97449  11.779   6.854  10.408
28977W        W97450  37.048  26.022  10.638
28978W        W97451  21.639  22.219  11.566
28979W        W97452   1.947  10.273   0.432
28980W        W97453  39.480  34.400  10.888
28981W        W97454  25.006  35.586  14.467
28982W        W97455  31.034  37.450   3.649
28983W        W97456   7.238  36.995   2.354
28984W        W97457  19.696  31.052  12.483
28985W        W97458  33.608  44.360  14.868
28986W        W97459   1.479   8.870  10.613
28987W        W97460   4.233   8.169   1.822
28988W        W97461   3.825  10.347  12.522
28989W        W97462   7.814   8.756  14.286
28990W        W97463  21.080  21.665  12.339
28991W        W97464  23.093  12.856   4.688
28992W        W97465  42.808   3.418   4.808
28993W        W97466  25.186  16.689   2.827
28994W        W97467  37.991  26.588   1.804
28995W        W97468  17.259  21.558   2.358
28996W        W97469  28.591  33.047   3.782
28997W        W97470  34.425   2.389   3.322
28998W        W97471  32.578   2.877   4.353
28999W        W97472  40.840  22.234  14.347
29000W        W97473  28.075   1.958   0.782
29001W        W97474  40.038  12.285   3.656
29002W        W97475  13.649  15.235  10.473
29003W        W97476   6.216  40.830  14.406
29004W        W97477  26.149  11.661  12.515
29005W        W97478   2.877   2.344  14.340
29006W        W97479  17.671   0.309   0.292
29007W        W97480  16.204  17.632   0.816
29008W        W97481  36.389  29.478  10.948
29009W        W97482  15.282  22.503   1.265
29010W        W97483  18.082  10.297   4.776
29011W        W97484  28.944  28.635   1.397
29012W        W97485  23.021  35.941   4.682
29013W        W97486  40.941  10.158   9.993
29014W        W97487  26.521  29.116  13.867
29015W        W97488  17.143  33.124  10.059
29016W        W97489  33.553  24.576   1.741
29017W        W97490   4.393  19.694  13.436
29018W        W97491  40.015  41.308  12.862
29019W        W97492  17.235  23.049   3.229
29020W        W97493  35.375  33.434  13.481
29021W        W97494  19.092  19.133  10.944
29022W        W97495   9.787  16.672  10.961
29023W        W97496  16.288   5.389  12.834
29024W        W97497   8.754   1.738  12.048
29025W        W97498   0.844  32.936  11.037
29026W        W97499  12.128  30.464   1.345
29027W        W97500  21.025  15.734   4.323
29028W        W97501   1.795  24.985   0.449
29029W        W97502  17.659   8.747  11.969
29030W        W97503   6.260  42.835  14.844
29031W        W97504  25.218   7.394  13.407
29032W        W97505  12.639  23.192  11.103
29033W        W97506  36.442   8.767  11.889
29034W        W97507  19.695   9.821   1.719
29035W        W97508  43.353  23.716   4.130
29036W        W97509   4.756  38.337   4.183
29037W        W97510  33.926  28.996   3.751
29038W        W97511  33.989   4.879  13.307
29039W        W97512  44.010  34.597  11.034
29040W        W97513  39.876  18.618   4.249
29041W        W97514  29.659  10.794  14.845
29042W        W97515  13.298   5.398   2.287
29043W        W97516   7.912  38.500   1.913
29044W        W97517  20.695   3.711   2.292
29045W        W97518  13.320  36.562  11.123
29046W        W97519  23.498   2.305   4.740
29047W        W97520  17.620  16.683  10.913
29048W        W97521  13.197  19.088   4.813
29049W        W97522   1.481  26.164  13.336
29050W        W97523  39.313  14.301   2.694
29051W        W97524  22.068  14.147   2.852
29052W        W97525  10.813   2.801  10.942
29053W        W97526  14.336  11.355  14.978
29054W        W97527  39.870  39.040   4.629
29055W        W97528  33.501  10.672   3.799
29056W        W97529  20.163   0.486  12.988
29057W        W97530   2.290  14.649  13.372
29058W        W97531  24.642  44.370  13.512
29059W        W97532  13.149   2.442  10.447
29060W        W97533  39.845  41.979  10.977
29061W        W97534  41.035  32.429   1.710
29062W        W97535  41.995  39.440   3.217
29063W        W97536  20.659   7.267   0.910
29064W        W97537  16.143  34.935  14.487
29065W        W97538   8.755  28.034   0.966
29066W        W97539   3.955  29.521  12.403
29067W        W97540   4.398  32.444  12.925
29068W        W97541   8.282  31.918  11.052
29069W        W97542  36.051   2.464   3.314
29070W        W97543   5.339  11.820   4.314
29071W        W97544  22.739  25.126   2.766
29072W        W97545  13.314  15.592  11.858
29073W        W97546  40.959  33.901   0.319
29074W        W97547  28.563  36.444  12.400
29075W        W97548  39.884   1.932  11.944
29076W        W97549  44.318   4.380  10.596
29077W        W97550   8.241   7.866  13.545
29078W        W97551  15.146   6.372   3.296
29079W        W97552  27.952   5.370   1.783
29080W        W97553  27.651  35.385  14.408
29081W        W97554  14.637  43.895  10.917
29082W        W97555   7.234  19.641  14.899
29083W        W97556  24.528  33.875  14.968
29084W        W97557  10.272  36.495   5.764
29085W        W97558  17.292  13.143   4.831
29086W        W97559  37.459  23.204  11.059
29087W        W97560  13.611  22.530   0.369
29088W        W97561  12.619   5.260   1.283
29089W        W97562  35.980  12.333   3.756
29090W        W97563  43.431  10.168  10.070
29091W        W97564   0.338  33.395   3.631
29092W        W97565  14.662  44.435  13.374
29093W        W97566  12.178  38.328   3.772
29094W        W97567  17.649  21.614  11.405
29095W        W97568   9.704  23.539   3.702
29096W        W97569   1.423  29.600   2.321
29097W        W97570  22.664  32.994  10.622
29098W        W97571  30.445  43.870  14.289
29099W        W97572   1.875  43.436  14.788
29100W        W97573  43.508  23.016  14.363
29101W        W97574  23.202  17.254   3.867
29102W        W97575  33.488  34.871  12.055
29103W        W97576   3.762  20.202  14.907
29104W        W97577  39.411  24.599   4.818
29105W        W97578  33.890  42.404   1.434
29106W        W97579  24.142  37.468  11.468
29107W        W97580  25.670  24.170   1.788
29108W        W97581  30.103  39.428  13.454
29109W        W97582  19.093   7.322   1.797
29110W        W97583  35.580  34.976  11.924
29111W        W97584  23.531  34.378   1.256
29112W        W97585  12.336  43.806   0.243
29113W        W97586   6.411  19.539  12.037
29114W        W97587  21.156  36.368  13.841
29115W        W97588  13.756  27.124   2.326
29116W        W97589  17.294   8.371  14.300
29117W        W97590  20.257  32.588  11.016
29118W        W97591  44.504  24.671  10.601
29119W        W97592  43.775  43.775   3.230
29120W        W97593  17.753  36.523   1.387
29121W        W97594  17.597  39.848   3.344
29122W        W97595  18.566  14.808  14.365
29123W        W97596   6.810  23.568  13.412
29124W        W97597  19.194  44.772   1.244
29125W        W97598  30.156  28.669   0.843
29126W        W97599   1.745  10.183   2.418
29127W        W97600  37.908  40.390  13.929
29128W        W97601  25.474  33.441  11.573
29129W        W97602  17.115  11.864   0.895
29130W        W97603  29.456  22.093   1.303
29131W        W97604  44.885   2.340  13.811
29132W        W97605  40.971  28.125   0.297
29133W        W97606  41.352   3.868   4.312
29134W        W97607  38.854  23.725   3.188
29135W        W97608   9.331   5.249  14.833
29136W        W97609  41.342   3.434  11.885
29137W        W97610  15.693  10.757   3.798
29138W        W97611  37.438  44.759   4.674
29139W        W97612   1.464  23.054  11.913
29140W        W97613  40.031  22.170  12.868
29141W        W97614  12.275  31.507  11.973
29142W        W97615  36.585  35.440  10.937
29143W        W97616  10.384  41.942   9.959
29144W        W97617  30.456  43.375   0.348
29145W        W97618  32.006  32.395   0.358
29146W        W97619  38.937  36.879  10.573
29147W        W97620   6.395  17.265  10.931
29148W        W97621  40.954  21.136   2.273
29149W        W97622   7.747  39.823  13.953
29150W        W97623  25.572  36.039  11.114
29151W        W97624   7.827  25.162  14.001
29152W        W97625  26.965  13.658   3.345
29153W        W97626   4.258  25.146  11.031
29154W        W97627   3.809  17.115   1.821
29155W        W97628  13.264  36.034   1.443
29156W        W97629  27.178  44.276   4.701
29157W        W97630  30.651  43.375  11.054
29158W        W97631  28.151   8.252  14.001
29159W        W97632  18.153  28.592   4.280
29160W        W97633  42.381  28.630  12.040
29161W        W97634  13.691  23.033  12.415
29162W        W97635  22.245   5.718  12.912
29163W        W97636  16.194  14.225  10.628
29164W        W97637  36.959  43.338   2.706
29165W        W97638  11.128  20.620   3.861
29166W        W97639   2.913  38.073  10.933
29167W        W97640  18.624  34.471   3.668
29168W        W97641  28.986  34.409  14.300
29169W        W97642  10.684  33.061  14.874
29170W        W97643  35.949  21.622   1.359
29171W        W97644  42.920   7.821   1.889
29172W        W97645  42.511  25.002  13.944
29173W        W97646   8.379  27.057  10.894
29174W        W97647  29.466   2.346  12.853
29175W        W97648  10.321  19.691  11.928
29176W        W97649  27.601  43.409  11.921
29177W        W97650  33.902  25.086  11.997
29178W        W97651  33.624  25.064   1.729
29179W        W97652  27.615  12.853   0.473
29180W        W97653  38.476  21.700  14.458
29181W        W97654   3.917   9.375   4.837
29182W        W97655   1.898   7.389  14.027
29183W        W97656  13.238  16.283  14.284
29184W        W97657  16.294  23.110   4.223
29185W        W97658  25.087  28.594  10.436
29186W        W97659  41.524  42.458   1.852
29187W        W97660  37.993  12.289   4.611
29188W        W97661  17.711  31.955  12.090
29189W        W97662  17.629  12.693  11.093
29190W        W97663  15.691   4.242  10.625
29191W        W97664  33.423  37.422   3.200
29192W        W97665  31.493  19.634  10.633
29193W        W97666  15.667  43.386  13.515
29194W        W97667   7.388  22.511   2.190
29195W        W97668  19.169  22.641   0.740
29196W        W97669  43.903  22.095   3.711
29197W        W97670  42.804   2.388   2.229
29198W        W97671   9.225  43.783  12.438
29199W        W97672  13.244  34.110  14.814
29200W        W97673  12.347  38.453  11.044
29201W        W97674  20.624  20.710  14.871
29202W        W97675  33.461  17.649   4.201
29203W        W97676  21.135   1.252   2.754
29204W        W97677  29.929   9.393  12.575
29205W        W97678  16.105  37.033   2.824
29206W        W97679  19.156  25.974   1.930
29207W        W97680  10.753  27.533  13.543
29208W        W97681   3.224  39.493   1.760
29209W        W97682  26.680  21.063   2.797
29210W        W97683   5.730   1.260  14.860
29211W        W97684   7.320  28.651   2.680
29212W        W97685   5.296  28.967   5.090
29213W        W97686  11.674  13.277  13.489
29214W        W97687  25.088  16.286  13.859
29215W        W97688   7.901  39.887   2.242
29216W        W97689  37.906  30.420  10.981
29217W        W97690  35.889  12.821  12.970
29218W        W97691  38.508  23.041   1.878
29219W        W97692  30.912  43.012  12.833
29220W        W97693  23.994   9.687  12.952
29221W        W97694  19.591  19.637   4.149
29222W        W97695  28.021  19.581  10.115
29223W        W97696  23.103  25.596   3.681
29224W        W97697  32.118   6.214  11.114
29225W        W97698  39.518  19.595  11.520
29226W        W97699  30.614  35.054   1.857
29227W        W97700  20.655  22.570   3.670
29228W        W97701   6.332  41.421  13.541
29229W        W97702   8.225   0.314  14.880
29230W        W97703  22.598  25.542   1.433
29231W        W97704  43.478  40.433   1.697
29232W        W97705  19.756  36.386   0.368
29233W        W97706  26.467   8.302  14.967
29234W        W97707  13.782  18.200   4.248
29235W        W97708   3.440  10.338  11.901
29236W        W97709   0.841  15.298   0.358
29237W        W97710  29.004  41.463  12.966
29238W        W97711  39.021  41.441   2.745
29239W        W97712   4.797  16.619  13.388
29240W        W97713  26.059  12.764  13.040
29241W        W97714   5.346  33.099  13.931
29242W        W97715  18.681  10.737  12.357
29243W        W97716   2.314   0.818   2.876
29244W        W97717  44.931  29.049   4.797
29245W        W97718  12.779  19.672  12.025
29246W        W97719  35.571   0.263  12.350
29247W        W97720  41.796  36.418  13.016
29248W        W97721   2.400   1.779   3.761
29249W        W97722  37.452  11.641  11.861
29250W        W97723   8.834  27.474   3.314
29251W        W97724  26.180  16.567   1.713
29252W        W97725  29.962  13.233  13.915
29253W        W97726   1.266  18.678  12.575
29254W        W97727  23.684   7.307  14.918
29255W        W97728  42.847   6.851  10.468
29256W        W97729  10.240  34.021  13.023
29257W        W97730  28.601  32.614  12.828
29258W        W97731  41.925  14.099  10.044
29259W        W97732  36.485   3.386   3.745
29260W        W97733  42.439   8.893  13.540
29261W        W97734  20.040   8.188   0.765
29262W        W97735   7.876   6.700  11.875
29263W        W97736  15.609  29.588   3.830
29264W        W97737  43.477   4.319  12.069
29265W        W97738  44.795  32.466   1.851
29266W        W97739  30.436  34.968   1.346
29267W        W97740  27.567  37.943   1.783
29268W        W97741  27.099   1.465  10.984
29269W        W97742   9.823   9.311   4.342
29270W        W97743  29.461  27.452   2.894
29271W        W97744  22.225  30.550   0.966
29272W        W97745   2.230  15.590   3.208
29273W        W97746  44.454  28.114   0.268
29274W        W97747  23.717  21.711  13.894
29275W        W97748  35.972  40.493   3.666
29276W        W97749  18.778  19.214  12.382
29277W        W97750   7.846  32.115  14.969
29278W        W97751  17.758   7.849   0.798
29279W        W97752   7.271  23.183  14.913
29280W        W97753  38.821  29.575  13.864
29281W        W97754  35.891  33.066  12.549
29282W        W97755  18.620  20.533   1.825
29283W        W97756  30.427   8.737   5.136
29284W        W97757  19.725  29.554  10.965
29285W        W97758  44.810  12.848   3.823
29286W        W97759  13.708  25.642  13.310
29287W        W97760   9.300   9.690   2.789
29288W        W97761  37.493  14.605   2.670
29289W        W97762  26.029  44.454   2.833
29290W        W97763  27.104  28.006   1.341
29291W        W97764  12.857   8.829  11.496
29292W        W97765  37.422  20.174  13.415
29293W        W97766  24.551  28.455  14.811
29294W        W97767  26.630  19.563  13.351
29295W        W97768   7.691  34.066   2.781
29296W        W97769  30.045  39.013   4.820
29297W        W97770  42.808  44.278  11.064
29298W        W97771  23.031  11.773  11.417
29299W        W97772  39.500   4.825   1.792
29300W        W97773  39.883  29.173   2.878
29301W        W97774  38.325  35.478   4.207
29302W        W97775  29.465  35.396   1.897
29303W        W97776   3.329  27.952  12.842
29304W        W97777  20.686  19.633   4.149
29305W        W97778  44.863  14.237   2.185
29306W        W97779  23.122  34.089   2.803
29307W        W97780   6.696  39.849  12.444
29308W        W97781  14.669  15.705   0.733
29309W        W97782  43.988  26.542   1.766
29310W        W97783  18.235   6.749  11.556
29311W        W97784   3.725  19.550   3.724
29312W        W97785  25.490   6.206  12.381
29313W        W97786  13.830  30.606  11.912
29314W        W97787   1.743  26.463   0.765
29315W        W97788  17.268   9.881  12.828
29316W        W97789  27.032   9.854  12.969
29317W        W97790  22.042  40.312   4.238
29318W        W97791  44.307   5.403   2.204
29319W        W97792  21.031  24.538  11.428
29320W        W97793  23.547  19.579  14.881
29321W        W97794  24.083   4.427   3.665
29322W        W97795  24.512  29.967   1.421
29323W        W97796  14.291  37.069  13.919
29324W        W97797   2.823  13.757   4.227
29325W        W97798  40.471  15.634   1.760
29326W        W97799  37.077  44.988   2.827
29327W        W97800  31.451  14.163  12.902
29328W        W97801  34.011   2.254  14.310
29329W        W97802  22.589  10.862  12.574
29330W        W97803  25.037  19.261   1.283
29331W        W97804   0.392   6.364  13.377
29332W        W97805   2.333  24.101   4.149
29333W        W97806  34.374  21.725   0.951
29334W        W97807  21.163  31.064  11.040
29335W        W97808  38.533  16.569   1.909
29336W        W97809  20.186   0.373  12.040
29337W        W97810  24.084   8.761   0.900
29338W        W97811  42.975  36.440   2.896
29339W        W97812   1.403  27.548  12.885
29340W        W97813  42.426  40.539   2.852
29341W        W97814  31.601  32.963  13.476
29342W        W97815  15.154  15.235   2.766
29343W        W97816  24.616  25.202  14.776
29344W        W97817  14.791  23.564  10.994
29345W        W97818  22.237  29.019   1.809
29346W        W97819  28.527   0.250   3.805
29347W        W97820  15.758  12.319  13.352
29348W        W97821  28.092  41.463   4.680
29349W        W97822  33.613  36.932  12.972
29350W        W97823  22.009   9.737   4.740
29351W        W97824  29.479  20.541   4.818
29352W        W97825  38.894  13.662   4.300
29353W        W97826  24.640  16.802   1.775
29354W        W97827  33.571  30.124  12.946
29355W        W97828  38.537   1.390  11.571
29356W        W97829  26.193  37.033   1.354
29357W        W97830  36.070  14.255   2.741
29358W        W97831  24.983  33.574  13.494
29359W        W97832  32.436  29.485   1.717
29360W        W97833  19.040  25.568   1.814
29361W        W97834  13.315  29.432   1.317
29362W        W97835  41.445   5.290  13.322
29363W        W97836   6.182   0.914  12.014
29364W        W97837  20.570   3.929  11.010
29365W        W97838  35.886  37.411   4.218
29366W        W97839   3.296  12.320   3.630
29367W        W97840   2.428  20.732  11.546
29368W        W97841  13.237  30.575  14.493
29369W        W97842   3.443  24.599   1.445
29370W        W97843  20.162  17.240   3.160
29371W        W97844   4.748   1.925   0.858
29372W        W97845  43.504  25.002  14.282
29373W        W97846  27.117  41.962   0.817
29374W        W97847  28.169   9.677   4.177
29375W        W97848  44.830  14.679   2.883
29376W        W97849  34.373  16.260   4.153
29377W        W97850   5.218  17.063   5.310
29378W        W97851   2.753  33.883   4.642
29379W        W97852  35.094  37.886  11.885
29380W        W97853  12.128  35.982  10.454
29381W        W97854   1.427  33.396   2.699
29382W        W97855  42.484  42.979  13.346
29383W        W97856  16.773  29.031  11.024
29384W        W97857  27.457  39.536  11.101
29385W        W97858   0.784   0.296   0.904
29386W        W97859  16.310  10.837   0.453
29387W        W97860  33.036  19.118   3.255
29388W        W97861  19.675   6.405  13.392
29389W        W97862   6.689  36.365   3.263
29390W        W97863  20.245  28.601  12.916
29391W        W97864   6.687  40.914   0.788
29392W        W97865  17.250  12.129   1.363
29393W        W97866  41.802  19.119   4.616
29394W        W97867   4.716  32.981   2.207
29395W        W97868  41.956  40.833   1.416
29396W        W97869  15.164  23.121   0.760
29397W        W97870  20.723   7.855   4.661
29398W        W97871  17.158   0.289  12.449
29399W        W97872   4.328   9.192  12.890
29400W        W97873  40.038  21.599  11.571
29401W        W97874  14.808  12.334  14.969
29402W        W97875  30.933  28.656   0.823
29403W        W97876  43.406  39.442   4.223
29404W        W97877  39.388  42.439  13.020
29405W        W97878  38.459  43.364  12.963
29406W        W97879  35.456   7.767   4.727
29407W        W97880  35.061  19.570  14.995
29408W        W97881  39.982  41.856   3.830
29409W        W97882   2.764   2.345   0.881
29410W        W97883   0.311  38.441  11.095
29411W        W97884   0.958  36.463   3.219
29412W        W97885  41.869   3.326   3.866
29413W        W97886  25.629  29.950  13.522
29414W        W97887   3.320   1.429  14.811
29415W        W97888  44.288   9.832   2.233
29416W        W97889  41.025  38.872  13.332
29417W        W97890  42.498  26.579   3.756
29418W        W97891   6.740  26.201   4.339
29419W        W97892  26.001   1.308  11.434
29420W        W97893  36.084  10.714   0.898
29421W        W97894  43.873  34.535   1.703
29422W        W97895  43.395  11.694   3.349
29423W        W97896  34.873  27.099  11.987
29424W        W97897   6.371  31.090  14.855
29425W        W97898  22.739  12.686   4.813
29426W        W97899  12.837  29.556   2.823
29427W        W97900   3.270  27.561  12.951
29428W        W97901  32.546  30.940  11.520
29429W        W97902  18.753  24.509   3.385
29430W        W97903  31.453  16.728  13.994
29431W        W97904  40.522  16.691   2.338
29432W        W97905  41.369  16.287  10.421
29433W        W97906  33.486  36.428  14.368
29434W        W97907  13.779  11.349  14.850
29435W        W97908  11.794  37.979   3.680
29436W        W97909  39.964   9.153  14.768
29437W        W97910   9.729   8.241   1.408
29438W        W97911  35.098   9.801  12.022
29439W        W97912   5.744  11.719   3.737
29440W        W97913   4.764  11.236   2.180
29441W        W97914  35.109  38.000   1.780
29442W        W97915  27.488  21.093   1.776
29443W        W97916  39.379   5.806   0.929
29444W        W97917  10.877   4.746  13.927
29445W        W97918   3.747  21.645   2.409
29446W        W97919   3.776  40.546  12.492
29447W        W97920  22.563  41.357   2.784
29448W        W97921  13.111  29.075   1.431
29449W        W97922  33.103  34.397   4.267
29450W        W97923  21.658  27.011   4.768
29451W        W97924   9.232  12.641   2.688
29452W        W97925   7.408   1.801  10.591
29453W        W97926  24.576  33.078   0.459
29454W        W97927  21.682  22.078  14.859
29455W        W97928  26.167  44.953  14.799
29456W        W97929  23.145   5.864  10.914
29457W        W97930  30.562  22.523   0.737
29458W        W97931  14.717  34.465  13.971
29459W        W97932  31.046  25.552   0.788
29460W        W97933  38.974  24.110   2.865
29461W        W97934  39.056  43.773   3.778
29462W        W97935  20.610  34.503  11.944
29463W        W97936  18.639   3.841   0.454
29464W        W97937   9.840  27.521   2.798
29465W        W97938  41.954  31.967   2.231
29466W        W97939  38.916  43.495  12.479
29467W        W97940  31.979  42.984   3.812
29468W        W97941   3.399  20.639  13.386
29469W        W97942  27.528   1.960  11.882
29470W        W97943  30.572  33.519  14.331
29471W        W97944  36.382   1.309  13.901
29472W        W97945  39.031   4.260  12.876
29473W        W97946  23.498  38.930   1.728
29474W        W97947  16.653   7.321   0.867
29475W        W97948  14.282  18.075  12.062
29476W        W97949  41.330  19.168   3.698
29477W        W97950  34.423  25.655  10.478
29478W        W97951  31.512  36.979   4.668
29479W        W97952   0.454  42.943  11.856
29480W        W97953  42.877  12.784  10.534
29481W        W97954   4.722  17.282   3.631
29482W        W97955   5.914  41.486   2.878
29483W        W97956  34.120  35.448   0.874
29484W        W97957  19.737   9.671   4.683
29485W        W97958  26.977   3.456   0.262
29486W        W97959  42.414  43.806   3.378
29487W        W97960  35.106   0.954  11.973
29488W        W97961  43.319  18.143   3.184
29489W        W97962  30.576  21.693   3.835
29490W        W97963  43.994  37.063   0.925
29491W        W97964  38.872  33.448   2.740
29492W        W97965  37.541   4.347  13.481
29493W        W97966  39.361  27.051   1.829
29494W        W97967  12.676  24.135  10.526
29495W        W97968  20.107  39.988   4.706
29496W        W97969   6.399  39.017   3.170
29497W        W97970   0.748  25.123  13.532
29498W        W97971  27.011  24.991  12.917
29499W        W97972  34.507   5.265  13.899
29500W        W97973  38.462  28.571  14.934
29501W        W97974  22.630  27.030  13.845
29502W        W97975   6.231  25.640  12.547
29503W        W97976   3.927  40.393  11.884
29504W        W97977  13.648  38.895  12.906
29505W        W97978   2.290  44.829   3.859
29506W        W97979  10.253  23.096   0.389
29507W        W97980  23.019  25.177  13.918
29508W        W97981  22.091  16.146  13.442
29509W        W97982   7.299   3.456   4.682
29510W        W97983  28.680   2.756   1.399
29511W        W97984  19.175  24.002   2.893
29512W        W97985   3.877  35.010  12.482
29513W        W97986  29.614  24.987  14.328
29514W        W97987   4.889   9.752   5.320
29515W        W97988  28.939  26.458  13.473
29516W        W97989  32.891  35.537   1.369
29517W        W97990  21.146  26.687  12.982
29518W        W97991  19.659  38.938   4.734
29519W        W97992  10.307  25.050  10.992
29520W        W97993  25.038   6.231  11.046
29521W        W97994  37.002  42.346  14.939
29522W        W97995  15.313  15.611  11.383
29523W        W97996  37.844  13.801  13.984
29524W        W97997  27.648  40.922   3.754
29525W        W97998  14.162   3.830  13.025
29526W        W97999  37.972  30.127  13.819
29527W        W98000   1.397  29.167   1.234
29528W        W98001  39.034  34.427   1.866
29529W        W98002  35.391  15.664   2.263
29530W        W98003  40.539  36.019   0.243
29531W        W98004  41.335  40.414  14.476
29532W        W98005  35.068  33.039  13.823
29533W        W98006  32.566  44.916   1.352
29534W        W98007  32.061  21.121  14.883
29535W        W98008  10.839   2.761   3.349
29536W        W98009   7.398  30.554  11.555
29537W        W98010  23.231  27.526  14.973
29538W        W98011  25.214  43.006  11.539
29539W        W98012   1.353   2.894   2.197
29540W        W98013  22.503  26.528   0.398
29541W        W98014  10.208   3.752   1.838
29542W        W98015  17.689   5.860   2.264
29543W        W98016  19.555  44.471  14.514
29544W        W98017  38.821  17.123  12.426
29545W        W98018   0.456  27.548  13.445
29546W        W98019  37.073  32.110   2.251
29547W        W98020  19.242  32.543  12.475
29548W        W98021   3.833  35.925   0.855
29549W        W98022  37.354  16.163   0.827
29550W        W98023   0.438   4.927   3.796
29551W        W98024   9.798   7.891   0.379
29552W        W98025  32.634   3.314   2.881
29553W        W98026  37.551   3.422  12.006
29554W        W98027   6.266  16.171   3.210
29555W        W98028  10.829  14.606  11.531
29556W        W98029   8.304  31.446   3.782
29557W        W98030  34.939   7.209   1.811
29558W        W98031   2.340  26.185   3.673
29559W        W98032  21.033   9.826   4.780
29560W        W98033  17.691  35.531   2.841
29561W        W98034  31.084  14.711  12.483
29562W        W98035  25.044   2.268   3.822
29563W        W98036  10.226  25.201   2.890
29564W        W98037  20.155  10.836  14.363
29565W        W98038  24.020  40.854  10.888
29566W        W98039  32.076  36.509  10.959
29567W        W98040  23.237  12.660  10.421
29568W        W98041  24.090  44.843   2.829
29569W        W98042  23.050  24.527   2.382
29570W        W98043   9.384  18.203   1.313
29571W        W98044  34.455   4.784   1.733
29572W        W98045   5.901  21.073   1.700
29573W        W98046  23.490  41.303  11.538
29574W        W98047  15.110   9.867  12.080
29575W        W98048   2.356  19.683  10.927
29576W        W98049  24.674   8.272   2.288
29577W        W98050  36.843  35.001   2.417
29578W        W98051   2.318  12.287  13.835
29579W        W98052  15.185  19.089  13.793
29580W        W98053  29.159  39.885   0.356
29581W        W98054  40.354  11.258  10.452
29582W        W98055  30.619  14.307  14.938
29583W        W98056  30.973  27.578   4.673
29584W        W98057  16.112  16.715   2.761
29585W        W98058   6.329  35.381   4.127
29586W        W98059  20.580  28.000  13.387
29587W        W98060  23.670  29.960   4.202
29588W        W98061   6.705  35.926   3.239
29589W        W98062  33.622  24.032  12.829
29590W        W98063  34.054  35.494   2.707
29591W        W98064  18.060   5.922  12.076
29592W        W98065  28.608  27.998   0.886
29593W        W98066  30.985  28.666  12.865
29594W        W98067  39.353  26.575   1.273
29595W        W98068   3.365  26.495   0.836
29596W        W98069   1.875  38.057   2.333
29597W        W98070  34.945  27.616   4.611
29598W        W98071  35.990  28.981  11.075
29599W        W98072   2.841  44.909  11.921
29600W        W98073   8.850   8.260   2.390
29601W        W98074  30.058  17.735  10.408
29602W        W98075   5.727  20.616  13.363
29603W        W98076  32.545  43.966   1.874
29604W        W98077  23.491  34.954  14.408
29605W        W98078  40.405  22.583  11.866
29606W        W98079   3.457  33.066   3.337
29607W        W98080  19.151  33.594   2.318
29608W        W98081   5.419  15.764  13.838
29609W        W98082   5.338  29.624   2.800
29610W        W98083   7.341  36.386   1.263
29611W        W98084  21.153   7.201  11.563
29612W        W98085  44.888  32.456  10.434
29613W        W98086  38.869   1.746   5.154
29614W        W98087   9.187  36.936   3.806
29615W        W98088  34.575  24.690   2.676
29616W        W98089  29.174  25.592   4.343
29617W        W98090   4.428  38.536   4.242
29618W        W98091  15.595  32.914   0.791
29619W        W98092  19.182  11.338   3.358
29620W        W98093  15.112  17.571  11.942
29621W        W98094  23.635  27.564   0.856
29622W        W98095   7.813  31.438  12.925
29623W        W98096   1.768   9.760  11.910
29624W        W98097  41.787   6.682  14.447
29625W        W98098  29.519  35.389  12.835
29626W        W98099  29.525  27.997   5.264
29627W        W98100   4.211  32.491   3.223
29628W        W98101   5.743   5.262   1.856
29629W        W98102  19.257  27.093  14.887
29630W        W98103  20.245   1.446  11.046
29631W        W98104  39.016  32.587   3.692
29632W        W98105  10.213  25.967   4.645
29633W        W98106  12.646  30.165  14.449
29634W        W98107  25.514  39.501   4.733
29635W        W98108  36.018  22.080  13.546
29636W        W98109  34.476  21.554  10.645
29637W        W98110  23.503   4.698   2.743
29638W        W98111  14.701   7.268   3.742
29639W        W98112  22.648  17.708  13.035
29640W        W98113   7.669  11.651   5.087
29641W        W98114  44.355  23.091   3.286
29642W        W98115  25.145   9.152  10.901
29643W        W98116  30.993  11.668  13.837
29644W        W98117  27.091  18.144   4.794
29645W        W98118  29.941  43.435  14.431
29646W        W98119  11.699  24.108   1.694
29647W        W98120  17.718   8.809   4.336
29648W        W98121  22.193   5.360   4.707
29649W        W98122  32.987  41.526   1.858
29650W        W98123  41.531   5.329  14.510
29651W        W98124  42.360  13.148  14.375
29652W        W98125  10.869  25.159  10.612
29653W        W98126  35.460  41.329   0.780
29654W        W98127   1.845  24.538  11.937
29655W        W98128  25.522  29.028  12.356
29656W        W98129   0.279  19.185   1.357
29657W        W98130  17.614  29.163   4.622
29658W        W98131  43.869  21.194  14.337
29659W        W98132   5.715  23.215   3.652
29660W        W98133  22.101   7.350   0.406
29661W        W98134  40.043  34.939  13.939
29662W        W98135  17.149  11.802   5.172
29663W        W98136  41.799  20.083   4.728
29664W        W98137  26.097  13.625  14.930
29665W        W98138  36.921  10.336   4.124
29666W        W98139   3.348  26.654  13.386
29667W        W98140  29.950   7.219   1.718
29668W        W98141  31.561  19.673  11.387
29669W        W98142  22.160   4.437   1.430
29670W        W98143   1.250  20.655   2.245
29671W        W98144  13.767   7.414   3.145
29672W        W98145   1.398  12.661  10.600
29673W        W98146  29.041  34.893   2.197
29674W        W98147   5.289  28.510  14.316
29675W        W98148  15.324  23.534   2.688
29676W        W98149  30.616  11.820   4.188
29677W        W98150  30.088  11.689  13.991
29678W        W98151  28.636   0.943  14.377
29679W        W98152  18.140  12.194  14.779
29680W        W98153  10.196  11.730   0.270
29681W        W98154  40.524   7.718  13.452
29682W        W98155   8.319  42.464  13.433
29683W        W98156  23.080  21.063   0.859
29684W        W98157  28.667   3.348   3.791
29685W        W98158  23.507   2.749   0.911
29686W        W98159  34.987   9.164   4.690
29687W        W98160  37.564   6.775   1.704
29688W        W98161  33.559   8.373   3.238
29689W        W98162  29.510  14.325  11.052
29690W        W98163  28.637   0.430  12.826
29691W        W98164  30.649  30.980  13.411
29692W        W98165  13.127  25.148  14.989
29693W        W98166  28.650  36.080   4.770
29694W        W98167   9.827  28.646   2.335
29695W        W98168   8.287  41.845  13.942
29696W        W98169  29.473  39.010   9.975
29697W        W98170  35.490  29.103  11.428
29698W        W98171  17.775  17.302   0.332
29699W        W98172   0.930   1.269   4.827
29700W        W98173  39.944  31.404  14.401
29701W        W98174  17.286  38.963   9.967
29702W        W98175  36.404  44.359   3.308
29703W        W98176  30.563  14.120   2.252
29704W        W98177  14.229  25.012   1.215
29705W        W98178  38.843  18.050   1.409
29706W        W98179   1.251   9.645   1.836
29707W        W98180  38.989  19.705   1.244
29708W        W98181  40.446   6.273   9.965
29709W        W98182  16.625  15.304   3.791
29710W        W98183  44.393  15.786  12.008
29711W        W98184   9.242  32.616  11.983
29712W        W98185  31.011   3.317  11.421
29713W        W98186   8.758  40.816   3.228
29714W        W98187  32.553  36.478  14.914
29715W        W98188  40.022  38.532   3.182
29716W        W98189  33.046  19.753  11.499
29717W        W98190   9.863   4.887   4.755
29718W        W98191  32.043  16.568   0.916
29719W        W98192  35.575  23.623  14.850
29720W        W98193  24.717  19.567   0.855
29721W        W98194   5.715  36.584  12.455
29722W        W98195  39.884  37.547   3.270
29723W        W98196  24.125  36.491   3.769
29724W        W98197  12.837  19.146  13.061
29725W        W98198  23.029  31.408  11.587
29726W        W98199  14.674  19.750   1.421
29727W        W98200  14.158  10.850   3.159
29728W        W98201  20.720  40.340   0.795
29729W        W98202  41.832  26.974  11.521
29730W        W98203  37.560  38.908   2.686
29731W        W98204   5.412  16.693  13.894
29732W        W98205  26.057  19.213   4.262
29733W        W98206  14.701  23.060  13.907
29734W        W98207  31.955  40.930  12.409
29735W        W98208  23.722   1.314   0.329
29736W        W98209  39.914  11.194  12.543
29737W        W98210  30.012   8.273   1.263
29738W        W98211  25.214  10.155   0.483
29739W        W98212  31.946  43.966   2.780
29740W        W98213  23.189  20.759  11.869
29741W        W98214  34.539  27.545   4.164
29742W        W98215  15.747  10.687  10.414
29743W        W98216  37.380  36.007   4.197
29744W        W98217  35.054   6.305  11.910
29745W        W98218  17.778  28.124  12.386
29746W        W98219  14.274  31.620   4.329
29747W        W98220  22.612  39.349   2.839
29748W        W98221  42.382  43.425  11.473
29749W        W98222  27.068  14.245  13.928
29750W        W98223  42.400  42.786  14.776
29751W        W98224   9.238   5.354   3.794
29752W        W98225  11.660  10.289   9.980
29753W        W98226  13.273  18.268  14.469
29754W        W98227  43.997  35.091  11.925
29755W        W98228  37.451  38.848   0.470
29756W        W98229  36.501  38.437  14.937
29757W        W98230  29.601   4.341   3.837
29758W        W98231  30.946  34.593  12.871
29759W        W98232  31.413  25.568  14.845
29760W        W98233  31.092  44.378  14.319
29761W        W98234  22.649  21.121   9.923
29762W        W98235  37.560  20.055   4.274
29763W        W98236  18.184  42.290  14.007
29764W        W98237   8.793  44.925  14.983
29765W        W98238   7.901  20.043   4.287
29766W        W98239  35.084   0.874   5.145
29767W        W98240  26.695  35.980   1.378
29768W        W98241  27.968  29.424  10.452
29769W        W98242  41.529  22.203  14.469
29770W        W98243  19.064  34.102  13.360
29771W        W98244  25.693   4.850  13.940
29772W        W98245  29.640   1.758  12.976
29773W        W98246  19.601  32.446   3.804
29774W        W98247  12.352   2.462  13.874
29775W        W98248  37.998   7.909  11.595
29776W        W98249  43.270   2.821   1.235
29777W        W98250  25.001  42.004  12.357
29778W        W98251  23.153  16.209   0.802
29779W        W98252  34.487  33.509  13.948
29780W        W98253  10.820   9.233   1.317
29781W        W98254   7.702  31.048  11.469
29782W        W98255  24.582  12.696  12.936
29783W        W98256  23.206  36.468   4.836
29784W        W98257  38.054  24.037   1.856
29785W        W98258  25.184  41.925   1.911
29786W        W98259  31.133  39.948   5.089
29787W        W98260   9.868  38.448   3.864
29788W        W98261   3.751  38.950  10.065
29789W        W98262  35.581  10.675  14.305
29790W        W98263   2.240   2.371  11.459
29791W        W98264   6.343  16.145   3.640
29792W        W98265  34.591  38.025  12.364
29793W        W98266   7.725  43.950  11.579
29794W        W98267   4.827  31.048  12.904
29795W        W98268  11.693  18.132   2.179
29796W        W98269  43.433  34.554  14.340
29797W        W98270  10.168  41.882   2.391
29798W        W98271  36.027  40.915  12.477
29799W        W98272   3.954  21.045   1.437
29800W        W98273   5.296   0.877   0.294
29801W        W98274  17.704  28.986   3.279
29802W        W98275  36.364  13.274   0.366
29803W        W98276  20.218   7.398   4.727
29804W        W98277  40.967  17.304   2.844
29805W        W98278  17.562  30.028  10.926
29806W        W98279   2.852  12.303  10.471
29807W        W98280  27.145   8.753   4.769
29808W        W98281  22.670  31.599   3.165
29809W        W98282  23.702  17.746   4.805
29810W        W98283  37.890  11.230  12.941
29811W        W98284  34.494   2.262  12.837
29812W        W98285  17.135  25.101   3.862
29813W        W98286  12.716  12.294   3.723
29814W        W98287   0.802   9.811  12.493
29815W        W98288  41.909  19.621   2.816
29816W        W98289  36.583  33.484  12.039
29817W        W98290  27.069  15.734  13.479
29818W        W98291  41.884  44.301  13.432
29819W        W98292  34.515  17.104  14.464
29820W        W98293  15.683  15.727  11.944
29821W        W98294  28.056   8.701   4.672
29822W        W98295  23.674  40.799   1.293
29823W        W98296  41.951  16.637  10.995
29824W        W98297   5.428  31.082   4.831
29825W        W98298  44.313  34.956  14.332
29826W        W98299  41.029   0.771   0.836
29827W        W98300  35.558  43.984  11.421
29828W        W98301  12.300   6.226   2.202
29829W        W98302   2.318  34.447  11.078
29830W        W98303   6.755  42.852   1.778
29831W        W98304  39.043  10.171   2.210
29832W        W98305  27.980   2.934   2.189
29833W        W98306  31.093   1.962  13.804
29834W        W98307  41.347   2.785  12.547
29835W        W98308  10.347  15.250   2.675
29836W        W98309   2.432  31.032  12.395
29837W        W98310   3.904   8.774  13.473
29838W        W98311  25.654  12.644  12.062
29839W        W98312  40.916  24.549   1.272
29840W        W98313  24.482  41.804  13.515
29841W        W98314  37.542  41.996  13.938
29842W        W98315  32.428   6.289   3.701
29843W        W98316  44.005  40.409  13.449
29844W        W98317  16.783   9.257   0.915
29845W        W98318  15.219  17.142  12.507
29846W        W98319  30.976  23.513  13.802
29847W        W98320   6.890  17.591   0.880
29848W        W98321  25.034   5.296  12.368
29849W        W98322  41.002  37.853  14.359
29850W        W98323  36.489   8.720  13.324
29851W        W98324   5.706   2.347   3.321
29852W        W98325  30.907  11.188   1.777
29853W        W98326  30.134  31.994   3.800
29854W        W98327  42.511  18.573   1.349
29855W        W98328  13.290  12.284  12.451
29856W        W98329  13.674   1.449   4.833
29857W        W98330  38.076  24.026  10.576
29858W        W98331  28.930   6.200  14.867
29859W        W98332  34.031  13.324   0.380
29860W        W98333  21.018  14.751   3.762
29861W        W98334  29.486  15.579   3.699
29862W        W98335  16.615  32.902  12.357
29863W        W98336  18.576  25.615   3.751
29864W        W98337  30.603  23.196   2.724
29865W        W98338  27.970  38.995  14.773
29866W        W98339  32.636  34.439  11.570
29867W        W98340  34.872   2.887  14.879
29868W        W98341   1.911  16.306   2.326
29869W        W98342   6.736   7.215  14.366
29870W        W98343  18.651  18.148   3.257
29871W        W98344  37.001   3.752  11.468
29872W        W98345  14.800   5.921   1.396
29873W        W98346  36.046  18.124  12.552
29874W        W98347  31.454   8.235   3.735
29875W        W98348  14.693   8.664   3.356
29876W        W98349  37.477  43.948   4.685
29877W        W98350   7.784  22.744  12.424
29878W        W98351  30.482  25.173   2.418
29879W        W98352  14.127  10.384   3.678
29880W        W98353  20.603   7.354   3.641
29881W        W98354  21.203   1.436   0.835
29882W        W98355  19.259  42.001  11.128
29883W        W98356  33.069  16.286  12.521
29884W        W98357  23.529  38.037  14.495
29885W        W98358  22.204  23.720   0.869
29886W        W98359  25.048  17.113  13.353
29887W        W98360  20.651  27.122  13.450
29888W        W98361  23.699  16.809   1.787
29889W        W98362  33.453  23.656   5.097
29890W        W98363  33.106   9.767  11.008
29891W        W98364  17.791  39.912   9.993
29892W        W98365  27.042  32.922   3.346
29893W        W98366  38.966  10.718   1.349
29894W        W98367  43.839  22.213   4.289
29895W        W98368  32.597  37.578   0.888
29896W        W98369  30.963  41.312  10.895
29897W        W98370   8.318  28.024   0.822
29898W        W98371  38.992  41.801  11.948
29899W        W98372  25.202   4.394  10.418
29900W        W98373  40.042  39.319  14.816
29901W        W98374  21.711  44.450  14.462
29902W        W98375   4.826  10.144   3.186
29903W        W98376  10.649  34.025   1.291
29904W        W98377  32.623   2.247  12.526
29905W        W98378   4.835  33.999   1.279
29906W        W98379  16.095  43.812  14.026
29907W        W98380  34.535  18.781   3.735
29908W        W98381  35.601  18.213   3.320
29909W        W98382   4.266  11.669  12.440
29910W        W98383  35.449  40.466  13.853
29911W        W98384  44.274  18.756   3.831
29912W        W98385  33.899  22.616  12.861
29913W        W98386  43.365   4.343  11.563
29914W        W98387  28.044   9.858   2.807
29915W        W98388  32.928  20.663   3.839
29916W        W98389  34.554   5.746   2.775
29917W        W98390  42.993  21.137  10.985
29918W        W98391  18.164  26.064  11.547
29919W        W98392   5.862  40.039  14.786
29920W        W98393   7.335  14.699  12.825
29921W        W98394   1.901  40.526   4.256
29922W        W98395   0.482  26.557  14.278
29923W        W98396  35.004   7.724   3.697
29924W        W98397  33.123  13.762   0.927
29925W        W98398   4.318  33.959  11.076
29926W        W98399  18.631  10.836  14.805
29927W        W98400  28.530  21.729  13.499
29928W        W98401   3.330  11.317   4.821
29929W        W98402  16.255   3.728   3.239
29930W        W98403  35.875  28.457  10.495
29931W        W98404  15.195  20.046   2.260
29932W        W98405  26.593  29.581   4.772
29933W        W98406  34.605  14.180  13.325
29934W        W98407  28.952  10.744   2.684
29935W        W98408   4.744  23.581   3.332
29936W        W98409  27.197  22.623   0.838
29937W        W98410  22.631  23.172   4.131
29938W        W98411  23.107  36.516   3.741
29939W        W98412  13.302  16.715   3.670
29940W        W98413  21.572  30.471  10.503
29941W        W98414  34.370   5.371  11.446
29942W        W98415  26.991  14.780   4.116
29943W        W98416  20.233  13.761  10.527
29944W        W98417   3.236   5.246   0.446
29945W        W98418  29.621  31.612   2.761
29946W        W98419  31.034  25.605   1.843
29947W        W98420  12.714  18.775  12.888
29948W        W98421  26.114   0.279   0.414
29949W        W98422  42.935  21.049  14.359
29950W        W98423  40.813  40.535   3.703
29951W        W98424   3.865  13.785   5.090
29952W        W98425  22.552  13.802   2.349
29953W        W98426  42.310  17.267   4.201
29954W        W98427  18.713  26.593   1.791
29955W        W98428   3.428  14.820  10.415
29956W        W98429   1.286  38.033  11.409
29957W        W98430  30.446  32.609  14.966
29958W        W98431  22.566   8.718  11.901
29959W        W98432  26.108  18.212   4.645
29960W        W98433  27.527  39.410  10.453
29961W        W98434  42.787  39.388  13.379
29962W        W98435  18.231  41.961  14.812
29963W        W98436  14.143  12.809  12.384
29964W        W98437  33.951  13.163   3.282
29965W        W98438  20.102  37.049  11.475
29966W        W98439  25.178  39.427   0.300
29967W        W98440  12.134  19.273  13.396
29968W        W98441  11.214  31.541  10.978
29969W        W98442   8.162  29.582  10.970
29970W        W98443  26.027   1.249  13.998
29971W        W98444  12.240  40.513  13.533
29972W        W98445  14.147   5.311   1.364
29973W        W98446  38.035   4.871  14.782
29974W        W98447  14.206  10.711  12.360
29975W        W98448  35.445  34.421  13.835
29976W        W98449  41.837   7.843  12.841
29977W        W98450   1.806  17.288  14.986
29978W        W98451  12.837  25.994   3.149
29979W        W98452  42.440  24.196  11.881
29980W        W98453  39.441   5.430  11.439
29981W        W98454   7.352  15.820  10.438
29982W        W98455  13.686  33.010   0.891
29983W        W98456  36.417  38.896   1.812
29984W        W98457   3.351   9.234  13.888
29985W        W98458  42.365  37.364   3.277
29986W        W98459  20.030  39.855   1.830
29987W        W98460  39.397  39.905   1.311
29988W        W98461  13.337   8.361  11.027
29989W        W98462   8.400   2.382   4.252
29990W        W98463  32.411  25.680   0.910
29991W        W98464  35.445  37.574   1.330
29992W        W98465  32.901  25.987  11.089
29993W        W98466  13.179  15.328   3.747
29994W        W98467  41.294  41.332  11.071
29995W        W98468  41.331  43.359  13.356
29996W        W98469  33.394  40.442   3.813
29997W        W98470  21.086  16.569  10.450
29998W        W98471  12.810  30.963  13.933
29999W        W98472  32.443  18.632   2.740
30000W        W98473  15.768  39.448  11.894
30001W        W98474  33.884  13.745   2.759
30002W        W98475  29.943  17.747  13.345
30003W        W98476  43.779   1.976   2.309
30004W        W98477  37.877  33.606  10.049
30005W        W98478  32.083   5.401   1.299
30006W        W98479  20.538  31.993   3.230
30007W        W98480   0.400  20.234   0.890
30008W        W98481  11.344   6.345   4.234
30009W        W98482  17.231   3.219  13.906
30010W        W98483  18.569  34.580  13.511
30011W        W98484   3.438  13.694   2.721
30012W        W98485  40.977   3.446  11.029
30013W        W98486   8.797  26.491   2.743
30014W        W98487  23.582  40.479   0.810
30015W        W98488  20.601   7.253  12.557
30016W        W98489  27.578  14.634  11.503
30017W        W98490  29.175  30.437   3.728
30018W        W98491  30.623  37.396   4.288
30019W        W98492  25.499   1.911   4.637
30020W        W98493  14.244  40.390  14.510
30021W        W98494  35.391  20.672  14.318
30022W        W98495  32.419  16.639   1.296
30023W        W98496  16.256   2.420  13.418
30024W        W98497  40.822  19.540   1.727
30025W        W98498  34.951  30.000  13.841
30026W        W98499  30.056  24.114   3.738
30027W        W98500  41.457  24.562   0.952
30028W        W98501  14.764  17.214  13.449
30029W        W98502  33.030  30.031   0.815
30030W        W98503  21.516  29.614  11.496
30031W        W98504   0.887  12.293  13.891
30032W        W98505  35.986  24.130  13.809
30033W        W98506   3.784  20.558  11.575
30034W        W98507  27.169  19.674   1.909
30035W        W98508  11.773   6.718  13.542
30036W        W98509  18.258  42.031  11.910
30037W        W98510   2.931  24.162  11.026
30038W        W98511   0.778  44.456   1.377
30039W        W98512  31.079  26.630  11.527
30040W        W98513  42.888  33.019  10.977
30041W        W98514  44.995   2.334   1.331
30042W        W98515  12.794   1.759  14.483
30043W        W98516  30.961  22.014  12.537
30044W        W98517   7.786  35.425  11.396
30045W        W98518  40.330  15.301  13.323
30046W        W98519  19.261  22.682  12.362
30047W        W98520  11.865  43.875  10.437
30048W        W98521  43.993   7.707  14.503
30049W        W98522  15.177  13.122   0.883
30050W        W98523  11.170   4.914  10.906
30051W        W98524  18.170  12.719   0.932
30052W        W98525  28.067  12.697   0.360
30053W        W98526   8.847  20.114   2.675
30054W        W98527  28.575  18.712   3.384
30055W        W98528  23.221  29.657   1.445
30056W        W98529  38.567  33.916   1.393
30057W        W98530  14.201  42.508   3.333
30058W        W98531  14.629  10.226  10.892
30059W        W98532  14.126  10.863   1.798
30060W        W98533   2.448  22.202  11.881
30061W        W98534  14.306  42.467  12.975
30062W        W98535  41.977  14.218   0.966
30063W        W98536  17.718   1.763  13.909
30064W        W98537  34.383  25.477  11.860
30065W        W98538   5.331  10.337  11.455
30066W        W98539  22.035  38.045   1.306
30067W        W98540  23.114  12.132  14.314
30068W        W98541  18.227  13.815   2.875
30069W        W98542   2.442   6.195   4.774
30070W        W98543   6.242  36.351  12.036
30071W        W98544  37.025  20.752   4.771
30072W        W98545  37.057  11.164   0.757
30073W        W98546  27.532  12.246   2.680
30074W        W98547  21.679   2.739  11.052
30075W        W98548  15.186   0.491  13.841
30076W        W98549   3.894  27.057   2.712
30077W        W98550  14.097  19.125   4.173
30078W        W98551  37.879  13.258   2.838
30079W        W98552  34.586  33.939  11.517
30080W        W98553  44.455  13.119  14.279
30081W        W98554  16.689   0.291  11.920
30082W        W98555  42.391  44.817   3.375
30083W        W98556  17.615   2.245  13.522
30084W        W98557  28.518  10.210   1.441
30085W        W98558  22.105  27.184   4.333
30086W        W98559   3.275  25.533  11.593
30087W        W98560  10.182  37.532  10.573
30088W        W98561  35.031  29.068   3.200
30089W        W98562  24.174  10.332   4.828
30090W        W98563  42.804  35.042  14.940
30091W        W98564   7.371  40.315   3.767
30092W        W98565  41.365  22.521  14.279
30093W        W98566  44.327  28.961  11.914
30094W        W98567   1.264  44.374   2.686
30095W        W98568  39.516  23.117   2.765
30096W        W98569   4.881  44.897   0.385
30097W        W98570  40.833  13.303   1.855
30098W        W98571  19.646  17.609  11.553
30099W        W98572   2.433   7.254  12.441
30100W        W98573  35.060  22.113   0.746
30101W        W98574  35.567  37.474  14.774
30102W        W98575  32.598  28.082  11.403
30103W        W98576  44.448  29.986   4.821
30104W        W98577  10.383  28.936   2.225
30105W        W98578  42.383  32.424  12.842
30106W        W98579   0.492  11.351   3.205
30107W        W98580   5.336  10.350  12.574
30108W        W98581  20.143  33.002  14.400
30109W        W98582  38.897  36.914   1.743
30110W        W98583  29.125  41.805  13.415
30111W        W98584  32.034  40.326  11.551
30112W        W98585   2.744  21.626  11.125
30113W        W98586  42.936   0.355  13.870
30114W        W98587  26.158  31.643   2.778
30115W        W98588  44.294   8.895   2.259
30116W        W98589  41.786  14.598   1.215
30117W        W98590  28.615   2.917  13.963
30118W        W98591  37.084  37.489  11.060
30119W        W98592  37.354  23.021   3.189
30120W        W98593  36.367   1.422   3.641
30121W        W98594  32.032  44.805   0.270
30122W        W98595  13.217  12.721  12.913
30123W        W98596  17.105  16.719  11.947
30124W        W98597  25.038  14.670  14.299
30125W        W98598  44.273  41.032  14.996
30126W        W98599  10.728  22.676   0.296
30127W        W98600  29.113  36.501   1.377
30128W        W98601  32.552  25.687   9.967
30129W        W98602   3.819  19.736   2.683
30130W        W98603  20.700  26.558   5.777
30131W        W98604  18.640   5.920   2.799
30132W        W98605  12.340  34.580   2.404
30133W        W98606  24.704  10.641  12.378
30134W        W98607  33.129  20.680  10.490
30135W        W98608  42.806  23.116   4.721
30136W        W98609  23.639  43.950  13.061
30137W        W98610  31.547   4.402  11.578
30138W        W98611  39.037  13.707   2.796
30139W        W98612  18.785  33.470  10.631
30140W        W98613  43.782   8.369  11.441
30141W        W98614  44.473  38.394  11.611
30142W        W98615  36.891   3.884   4.255
30143W        W98616  33.538  12.162   4.752
30144W        W98617   3.892  44.853  11.566
30145W        W98618  26.509  12.792  11.604
30146W        W98619  30.419  38.832  14.449
30147W        W98620   2.771  41.428   1.926
30148W        W98621   4.418  32.931  11.427
30149W        W98622   9.783   4.270   0.754
30150W        W98623  39.542  44.783   4.636
30151W        W98624  11.199  16.751   0.333
30152W        W98625  17.783   3.741   1.926
30153W        W98626  27.661  43.376   3.631
30154W        W98627  15.657  37.519   0.809
30155W        W98628   5.370  27.565   0.758
30156W        W98629  32.998  19.617  11.005
30157W        W98630  16.636  28.944  14.424
30158W        W98631  39.410  39.326  14.015
30159W        W98632   6.736  32.513   1.435
30160W        W98633  15.769   6.733   0.913
30161W        W98634   3.828   7.815   2.369
30162W        W98635  32.453  20.163  10.483
30163W        W98636  32.977  40.383   3.319
30164W        W98637  16.695  39.492  12.952
30165W        W98638  44.450  37.030   2.724
30166W        W98639  43.497  43.333  12.987
30167W        W98640  32.030  30.498  11.078
30168W        W98641   5.336  34.576  11.892
30169W        W98642  24.573  45.000  10.917
30170W        W98643  36.070  24.585  11.888
30171W        W98644  39.837  21.039   0.881
30172W        W98645  37.465  43.966   3.821
30173W        W98646  42.812  12.782  14.024
30174W        W98647   8.812  22.677  12.369
30175W        W98648   4.446  21.170  11.548
30176W        W98649  42.366  13.613   2.398
30177W        W98650   0.766   9.833  10.572
30178W        W98651  19.203  23.097   3.328
30179W        W98652  35.069  39.854   5.114
30180W        W98653  37.429  16.653   3.207
30181W        W98654  36.889  10.143   3.665
30182W        W98655  34.528  33.452  10.476
30183W        W98656  39.537  19.055   1.795
30184W        W98657   3.215  15.277   2.297
30185W        W98658  16.149  36.540  12.413
30186W        W98659  26.183  10.820   0.403
30187W        W98660  11.675  43.472  12.473
30188W        W98661  23.150  28.640  12.912
30189W        W98662  31.479  25.099  11.019
30190W        W98663  33.426   4.241   3.362
30191W        W98664  37.444  40.814  14.409
30192W        W98665  24.662  27.032  14.278
30193W        W98666  44.452  30.035   2.225
30194W        W98667  11.791  37.413  11.112
30195W        W98668  23.716  29.984   3.637
30196W        W98669  26.070  13.787   2.817
30197W        W98670   6.371  28.634   2.803
30198W        W98671  19.619  38.469   3.646
30199W        W98672  21.668  26.092   5.287
30200W        W98673  37.946   8.867   5.277
30201W        W98674  40.450   2.901   4.794
30202W        W98675   5.880  42.941   0.741
30203W        W98676  14.168   0.972   1.921
30204W        W98677  14.191   4.445   0.782
30205W        W98678  27.132  26.052  10.959
30206W        W98679  12.806   2.359   2.272
30207W        W98680  26.463  34.004   0.417
30208W        W98681  23.576  17.129   0.860
30209W        W98682  27.979  21.643  12.546
30210W        W98683  39.508   5.438   3.786
30211W        W98684  20.572  29.579  13.983
30212W        W98685  40.026  14.145   1.378
30213W        W98686   8.364   6.339  13.394
30214W        W98687   3.237  10.690  11.545
30215W        W98688  31.519  40.975   3.809
30216W        W98689  33.528  16.291   4.806
30217W        W98690  11.633   4.809   4.678
30218W        W98691  27.503   0.922   9.948
30219W        W98692  11.157  26.513  12.422
30220W        W98693  26.673  37.845   3.250
30221W        W98694  41.792  15.644   3.304
30222W        W98695  25.976  23.005   0.926
30223W        W98696  26.021   3.884   4.732
30224W        W98697   4.884   5.273   2.744
30225W        W98698  44.307  21.719   3.713
30226W        W98699  24.066  39.521   2.706
30227W        W98700  35.563  42.999  10.499
30228W        W98701  44.866  39.556   0.901
30229W        W98702   6.702  44.275   3.834
30230W        W98703  36.003  13.829   3.668
30231W        W98704  11.269  16.120  10.518
30232W        W98705  36.533  11.638  11.902
30233W        W98706  30.122  35.415  10.974
30234W        W98707   1.422  31.558   2.755
30235W        W98708   2.857  39.002  11.383
30236W        W98709  21.204  13.651   4.148
30237W        W98710  32.431  44.789  12.548
30238W        W98711  22.580  26.018   2.309
30239W        W98712  25.484  29.019   9.942
30240W        W98713  39.506   7.883   3.739
30241W        W98714   8.337   7.677   4.258
30242W        W98715  32.053  15.250  14.985
30243W        W98716  19.735  28.493   4.792
30244W        W98717  35.499   1.468   1.298
30245W        W98718  13.124  38.877  14.769
30246W        W98719   3.419  32.392  14.902
30247W        W98720   2.406  33.529  11.123
30248W        W98721  40.339  28.530  12.064
30249W        W98722  41.852  23.003  13.469
30250W        W98723  30.435  12.833   1.336
30251W        W98724  15.176  29.162  13.429
30252W        W98725  11.297  32.474  14.903
30253W        W98726  34.407  26.960  10.893
30254W        W98727  39.052  41.305  13.488
30255W        W98728  26.049  19.260   4.718
30256W        W98729  12.754  17.735  12.042
30257W        W98730  27.996   3.880   4.301
30258W        W98731  22.736  40.894   0.776
30259W        W98732  20.588  20.655  14.370
30260W        W98733  32.620  35.069   0.876
30261W        W98734  30.619  34.503  14.399
30262W        W98735  28.135  39.376  11.606
30263W        W98736  37.507  22.099   3.214
30264W        W98737  35.475  43.337   0.437
30265W        W98738  23.011  29.134   2.722
30266W        W98739  13.302   5.834  12.910
30267W        W98740  41.029   9.184   4.742
30268W        W98741  27.982  17.595   2.662
30269W        W98742  34.573   2.894  14.855
30270W        W98743  12.617   8.343  11.013
30271W        W98744  34.909  44.258  11.860
30272W        W98745  16.196  26.074   4.230
30273W        W98746  44.877  40.029  10.412
30274W        W98747  41.359  25.682  11.034
30275W        W98748  24.006  24.649  13.410
30276W        W98749   0.295   4.342   3.154
30277W        W98750  19.242   3.824  14.822
30278W        W98751  40.307  15.684   0.392
30279W        W98752  11.137  39.518   2.372
30280W        W98753  23.004  15.180  13.400
30281W        W98754  37.450   7.192  14.297
30282W        W98755  39.503   1.977   4.677
30283W        W98756   0.386  27.451   1.248
30284W        W98757  27.182   9.796   4.342
30285W        W98758  31.014   9.304  10.629
30286W        W98759   0.441  44.359  13.316
30287W        W98760  29.667  36.430   2.183
30288W        W98761  22.564  28.069  14.351
30289W        W98762   3.368  17.733   0.454
30290W        W98763  37.884  12.791   1.806
30291W        W98764   2.349  36.443  13.955
30292W        W98765   8.815  34.566   0.836
30293W        W98766  14.745  35.566  14.483
30294W        W98767   7.698   4.335   3.383
30295W        W98768  28.612  12.283   3.280
30296W        W98769   9.728  19.077   4.617
30297W        W98770  28.059  44.888   2.235
30298W        W98771   5.894   5.301  14.964
30299W        W98772  10.814  17.260   2.691
30300W        W98773  12.848   0.421  11.979
30301W        W98774   4.896  28.551   0.420
30302W        W98775   8.659   0.450   4.338
30303W        W98776  37.995  25.626   3.360
30304W        W98777   0.804  30.444   1.924
30305W        W98778  13.273  13.800   4.755
30306W        W98779  26.703   5.221  10.910
30307W        W98780  42.967  43.425  10.998
30308W        W98781  43.882  14.702  13.420
30309W        W98782   2.874   0.868  12.942
30310W        W98783  38.463  24.571   3.780
30311W        W98784  23.174  15.716   1.897
30312W        W98785  15.123  18.596  10.893
30313W        W98786  14.171  39.467  11.568
30314W        W98787   4.773  10.175  14.805
30315W        W98788   1.805  38.055   4.757
30316W        W98789  37.467  27.999   3.313
30317W        W98790  25.593  14.786   1.865
30318W        W98791  25.023  44.885  10.555
30319W        W98792  13.772  29.506   0.242
30320W        W98793  16.136  25.703  14.814
30321W        W98794  23.520  37.834  12.915
30322W        W98795  35.082   4.786   3.827
30323W        W98796  41.973  38.491  14.281
30324W        W98797   7.397   7.329   0.347
30325W        W98798  28.944   9.804   0.361
30326W        W98799  41.379  23.575   1.438
30327W        W98800  38.470  20.188  12.913
30328W        W98801  41.361  32.534   1.859
30329W        W98802  20.064  10.686   0.882
30330W        W98803  23.675  11.249   3.778
30331W        W98804  37.039  19.568   3.362
30332W        W98805  19.227   7.228  12.458
30333W        W98806  28.564  33.109   1.801
30334W        W98807   1.390  30.141  14.906
30335W        W98808  32.934  43.989  12.340
30336W        W98809  17.158  18.735   1.277
30337W        W98810  42.897   0.816  12.084
30338W        W98811  43.299   0.922   0.310
30339W        W98812  34.936   2.940  14.376
30340W        W98813  23.072  12.132  10.099
30341W        W98814  27.988  34.598   0.736
30342W        W98815  43.774  31.464  13.813
30343W        W98816  18.159  32.116  11.040
30344W        W98817  21.720  18.630  12.923
30345W        W98818  40.330   9.676  11.420
30346W        W98819  20.571  20.186  13.923
30347W        W98820  22.537  18.686   2.727
30348W        W98821  23.038   2.242   0.449
30349W        W98822  16.311  40.950   2.372
30350W        W98823  28.104  20.244  11.979
30351W        W98824  15.687   6.219   1.266
30352W        W98825  13.310  30.491  10.953
30353W        W98826  36.938   9.782   4.348
30354W        W98827   6.813  16.151   3.846
30355W        W98828  10.162  41.813  11.032
30356W        W98829  21.534  31.123   1.250
30357W        W98830  18.293  40.338  13.527
30358W        W98831  18.228  34.922   3.856
30359W        W98832  16.079  11.750  12.089
30360W        W98833  18.265  39.895   1.869
30361W        W98834  29.643  25.058  11.122
30362W        W98835  19.061  25.181  14.011
30363W        W98836  32.039   0.407  14.469
30364W        W98837  44.319   2.721   1.437
30365W        W98838  35.515  17.074  13.488
30366W        W98839   0.281  43.472  12.990
30367W        W98840   7.704  41.423   1.377
30368W        W98841   8.677  27.518  14.353
30369W        W98842   9.363  21.572   2.355
30370W        W98843  24.693  33.393   3.237
30371W        W98844  23.117  43.470  14.476
30372W        W98845  15.102  34.893  13.823
30373W        W98846   9.842  23.686   4.276
30374W        W98847  31.067  28.085   1.844
30375W        W98848  34.438  22.080   4.780
30376W        W98849  23.160  41.471  12.485
30377W        W98850  20.205  18.565  13.449
30378W        W98851  15.703  25.119   3.315
30379W        W98852   6.745  41.298  11.095
30380W        W98853  16.780  37.973   3.221
30381W        W98854   2.450   6.825  12.446
30382W        W98855  32.434  14.269   1.904
30383W        W98856  15.280   2.946  10.624
30384W        W98857  14.285   1.946   2.318
30385W        W98858  26.533   3.320   0.900
30386W        W98859  20.258  28.111   2.678
30387W        W98860  26.139  10.672   3.232
30388W        W98861   3.215   7.200   2.750
30389W        W98862  36.356  22.616   0.819
30390W        W98863   0.446   4.920  12.903
30391W        W98864   5.818  14.673  11.490
30392W        W98865  25.638  33.557  11.908
30393W        W98866  33.470   4.266   4.709
30394W        W98867   4.765   7.401   0.478
30395W        W98868  29.528  18.640   3.786
30396W        W98869   0.779  35.467  12.080
30397W        W98870  40.449   2.329  11.090
30398W        W98871  39.540  33.988  12.069
30399W        W98872  33.468   8.185  13.476
30400W        W98873  30.992  27.622   2.753
30401W        W98874  29.507  25.998  11.031
30402W        W98875  24.639  36.908   1.932
30403W        W98876  16.296  14.714  11.895
30404W        W98877  30.555  20.251  11.905
30405W        W98878  28.958   8.788  13.870
30406W        W98879   9.741  12.124   1.862
30407W        W98880  22.548  30.437   2.750
30408W        W98881  44.426  38.344  10.633
30409W        W98882  34.105  44.394  10.487
30410W        W98883  28.181  18.051  10.424
30411W        W98884  24.184  26.656   0.302
30412W        W98885  11.210  33.978  13.320
30413W        W98886  12.137  27.593  11.475
30414W        W98887  19.728  43.013  12.443
30415W        W98888   8.299  17.558   1.699
30416W        W98889  12.267  41.303   1.827
30417W        W98890   2.359  17.272   2.278
30418W        W98891   5.835  40.974   3.167
30419W        W98892  38.380  28.040   0.859
30420W        W98893  15.132  31.032  11.940
30421W        W98894  39.055   4.402  11.930
30422W        W98895  20.741   3.838   4.696
30423W        W98896   4.909   4.334  12.507
30424W        W98897  28.018   9.821   0.831
30425W        W98898  38.917  23.008   3.351
30426W        W98899  19.166   5.360   3.361
30427W        W98900  25.530   8.322   2.799
30428W        W98901   7.288  25.219  10.896
30429W        W98902   5.371   5.252  14.857
30430W        W98903  15.323  27.021   2.755
30431W        W98904  38.454  14.766   1.398
30432W        W98905  32.489   9.696  11.378
30433W        W98906   0.924   0.790   4.679
30434W        W98907  12.687  13.223   0.463
30435W        W98908  22.162  10.654   4.743
30436W        W98909  15.108  41.852  10.602
30437W        W98910  28.086   1.380  10.118
30438W        W98911  37.473  15.683  12.089
30439W        W98912  40.491  34.512  12.093
30440W        W98913  34.420  38.345   0.480
30441W        W98914  20.244  14.239   1.918
30442W        W98915   0.896   4.359   1.928
30443W        W98916  32.985  36.902   0.856
30444W        W98917  28.050   7.373  10.969
30445W        W98918  28.971   8.254  14.964
30446W        W98919  25.009  38.492   2.754
30447W        W98920  40.371  31.602   4.640
30448W        W98921   5.765  15.164   0.298
30449W        W98922  26.987  14.287  12.419
30450W        W98923   3.319  29.608  10.895
30451W        W98924   1.855  21.243   2.334
30452W        W98925  28.546  42.445  11.875
30453W        W98926  44.388  24.548  14.288
30454W        W98927  14.136   7.246  11.516
30455W        W98928  24.640  10.835   4.331
30456W        W98929   6.864  17.066  14.931
30457W        W98930  30.604  42.387   5.142
30458W        W98931   7.739  44.339  12.065
30459W        W98932  19.754   3.924  10.949
30460W        W98933  41.466  44.480  12.348
30461W        W98934  21.019  30.422   4.345
30462W        W98935  10.764   0.431   0.292
30463W        W98936  13.250  14.737  14.825
30464W        W98937   3.408   9.788   1.404
30465W        W98938  42.987  17.560  14.019
30466W        W98939  24.154  23.051   0.774
30467W        W98940   0.817  11.816   3.657
30468W        W98941  25.556  24.061   2.206
30469W        W98942  10.729   3.335  12.877
30470W        W98943   9.776  22.207   2.327
30471W        W98944   4.879  11.668   5.293
30472W        W98945   6.382  33.584   0.947
30473W        W98946  35.495  35.569  13.002
30474W        W98947  18.773   7.826   1.365
30475W        W98948  33.599  28.109   2.184
30476W        W98949   0.311  43.840   4.341
30477W        W98950  38.931  16.116   1.322
30478W        W98951  10.345  41.403   2.308
30479W        W98952  28.604  40.526  12.028
30480W        W98953  36.490  18.136  10.626
30481W        W98954   6.910   8.757  10.420
30482W        W98955  24.607   0.419   9.457
30483W        W98956  37.978  30.606  13.395
30484W        W98957  21.550  36.547   0.848
30485W        W98958  11.866  10.314   1.322
30486W        W98959  12.811  43.454  10.496
30487W        W98960   9.279  33.482  14.923
30488W        W98961  42.284  33.432   4.712
30489W        W98962  33.545  20.189  10.509
30490W        W98963  14.309  25.649  11.022
30491W        W98964  35.588   7.749  13.355
30492W        W98965  38.839   7.207  11.581
30493W        W98966  42.993   2.361   0.296
30494W        W98967  11.158  44.313   2.207
30495W        W98968  10.798  39.053   2.729
30496W        W98969  35.482   1.240   3.794
30497W        W98970  30.630  25.106   3.806
30498W        W98971   6.393  14.302  10.494
30499W        W98972  10.746   8.842  10.418
30500W        W98973  36.945   8.170  13.907
30501W        W98974  23.230  28.677  14.444
30502W        W98975  17.639   7.858  11.602
30503W        W98976  43.986  44.802   2.275
30504W        W98977   2.945  34.027   1.796
30505W        W98978  15.161  31.586  11.472
30506W        W98979  33.980  26.163   0.962
30507W        W98980  29.998  43.016   4.150
30508W        W98981  14.161   9.815   0.924
30509W        W98982  24.483  16.130   4.734
30510W        W98983  37.038  40.323   2.702
30511W        W98984  13.259  39.924   0.382
30512W        W98985  17.697  10.197  11.446
30513W        W98986  22.570  14.250   0.869
30514W        W98987  14.767   2.774  14.826
30515W        W98988  38.425  28.577   1.243
30516W        W98989  23.607   9.189   2.340
30517W        W98990  36.514  36.497   3.805
30518W        W98991  43.279   8.245   1.303
30519W        W98992  41.488  36.360  11.892
30520W        W98993  24.496  40.032   1.791
30521W        W98994   5.822  37.481   0.479
30522W        W98995  36.445   1.969  12.483
30523W        W98996  20.723  19.707  14.483
30524W        W98997  19.641   7.734   3.753
30525W        W98998  22.608  19.564   9.953
30526W        W98999  42.827  22.028   4.821
30527W        W99000  33.551  23.046  11.387
30528W        W99001   6.911  15.283  11.866
30529W        W99002  31.008  30.494  11.025
30530W        W99003  19.691  32.025   4.813
30531W        W99004  43.960   5.195   0.787
30532W        W99005  35.963  40.995   4.275
30533W        W99006  19.699  13.213  13.496
30534W        W99007  12.351  42.331  11.432
30535W        W99008  18.778  43.847  14.768
30536W        W99009  10.198  22.186  11.473
30537W        W99010  18.764  23.069   3.728
30538W        W99011  10.778  30.032  10.970
30539W        W99012  17.607  21.020  13.889
30540W        W99013   0.897  30.945  12.398
30541W        W99014  15.787  42.490   0.384
30542W        W99015   9.336  37.479   3.770
30543W        W99016  27.037   9.734   3.284
30544W        W99017  35.373   4.225   3.253
30545W        W99018  15.296   0.912   3.313
30546W        W99019  43.928  18.636   0.253
30547W        W99020  31.540  17.179  11.100
30548W        W99021  35.594  37.055   4.247
30549W        W99022  22.026   2.360   4.284
30550W        W99023  24.708  43.273  13.859
30551W        W99024  22.124  14.593  14.362
30552W        W99025  36.553  38.885   0.873
30553W        W99026   9.753   7.724  14.498
30554W        W99027  25.679  11.840  10.504
30555W        W99028  11.251  31.555  13.976
30556W        W99029  25.535  32.086  12.946
30557W        W99030   7.179  18.126   3.661
30558W        W99031  33.612  16.130   3.730
30559W        W99032  21.741  10.331  10.004
30560W        W99033  16.268  12.711   3.638
30561W        W99034   1.271   8.216  11.873
30562W        W99035  22.182   2.764  14.303
30563W        W99036   6.817  11.344  14.361
30564W        W99037  26.971  27.037  13.810
30565W        W99038  31.004  12.298   1.756
30566W        W99039  13.199  19.216   3.729
30567W        W99040   7.769  21.678   1.838
30568W        W99041  20.529  20.599   1.428
30569W        W99042  21.244  25.217   0.793
30570W        W99043  30.435  24.486  13.325
30571W        W99044   2.306  41.443  12.447
30572W        W99045  44.988   0.979  12.086
30573W        W99046  38.903  44.831  14.793
30574W        W99047  39.896   6.833   3.365
30575W        W99048   5.807   0.938   3.294
30576W        W99049  38.532  38.501   1.314
30577W        W99050  31.059  44.997  12.826
30578W        W99051  24.601  33.875  12.411
30579W        W99052  19.215  17.781  10.927
30580W        W99053  20.735  33.032   2.392
30581W        W99054  24.138  29.001   0.759
30582W        W99055  17.719  31.579   1.931
30583W        W99056  41.022   2.726  11.993
30584W        W99057  38.409  33.410  11.579
30585W        W99058  35.549  25.672  12.883
30586W        W99059  37.548   5.802  14.313
30587W        W99060  41.523   4.928  11.118
30588W        W99061  19.171  27.635  14.496
30589W        W99062  31.078  20.572   2.742
30590W        W99063  36.351  39.483   4.662
30591W        W99064  33.607  19.650   4.648
30592W        W99065  28.976   8.698   0.735
30593W        W99066  36.467  17.128  11.896
30594W        W99067  21.562  20.182  14.402
30595W        W99068   8.390  24.532   3.315
30596W        W99069  27.994  31.048  14.431
30597W        W99070   1.306   4.801   0.841
30598W        W99071  42.474  40.327   3.188
30599W        W99072  14.232  12.354   1.346
30600W        W99073  11.232   2.320   0.949
30601W        W99074  25.584  27.955  12.468
30602W        W99075  13.271  31.408   0.406
30603W        W99076  35.596  29.637  12.061
30604W        W99077  22.998  43.993  13.391
30605W        W99078  39.044   5.915   0.363
30606W        W99079  23.180  37.081   1.296
30607W        W99080  30.913  32.046  14.294
30608W        W99081  28.088  27.113  14.895
30609W        W99082   4.269  39.328  11.528
30610W        W99083  16.195  17.741   1.247
30611W        W99084  18.204  21.637  14.795
30612W        W99085  23.126  15.128  14.292
30613W        W99086  19.694  15.120   3.864
30614W        W99087   7.384  40.338  10.529
30615W        W99088  35.473  26.158  13.426
30616W        W99089   3.951  30.532   1.341
30617W        W99090  14.611  35.878  13.483
30618W        W99091  10.829  23.050  13.337
30619W        W99092  18.587  25.189  12.378
30620W        W99093  24.103  43.312  11.875
30621W        W99094  23.719  13.842   3.312
30622W        W99095  20.176  22.743   0.936
30623W        W99096  29.002   8.697   4.696
30624W        W99097  42.968  23.611   4.729
30625W        W99098  15.238  31.033   4.805
30626W        W99099  39.508  13.334   0.385
30627W        W99100  10.715  38.426  11.950
30628W        W99101  12.119  11.743  12.999
30629W        W99102  20.573  26.691  11.113
30630W        W99103   1.450  32.977  11.502
30631W        W99104  29.571  29.554  14.775
30632W        W99105   2.387  10.179   4.634
30633W        W99106  32.104  15.255   4.762
30634W        W99107  20.257  32.995  13.485
30635W        W99108  10.357   0.766  11.433
30636W        W99109  12.756   9.379  13.913
30637W        W99110  27.034  25.155   0.855
30638W        W99111   7.413  13.707   9.559
30639W        W99112  31.444   1.262  10.601
30640W        W99113  38.067  41.298  12.561
30641W        W99114  28.473  34.582   0.438
30642W        W99115  26.572  13.285   3.868
30643W        W99116  11.239   0.373   1.369
30644W        W99117  33.119   4.903   4.331
30645W        W99118  41.402  33.564  14.371
30646W        W99119   3.766  13.789  13.872
30647W        W99120   1.777  33.984  13.421
30648W        W99121  13.207  36.527  10.638
30649W        W99122  35.038   5.232   3.758
30650W        W99123  15.230  25.709   2.671
30651W        W99124  26.665  18.720   4.617
30652W        W99125  24.060  24.592   1.386
30653W        W99126  38.952   5.856  10.428
30654W        W99127   8.404  35.501   4.661
30655W        W99128  25.580  28.075   9.953
30656W        W99129  13.807  12.281   0.255
30657W        W99130   8.258  43.450   4.693
30658W        W99131  11.809  13.261   4.665
30659W        W99132  28.641   1.961   0.318
30660W        W99133  20.527  13.804  12.908
30661W        W99134  31.083  31.634  14.905
30662W        W99135  37.919   6.204  11.940
30663W        W99136  36.042  39.977   1.740
30664W        W99137  37.899   9.705  14.316
30665W        W99138  10.240   4.335   0.460
30666W        W99139   8.843  39.925  12.388
30667W        W99140   5.199  25.510  14.964
30668W        W99141   0.279  24.540  14.497
30669W        W99142  38.968   3.263  14.767
30670W        W99143   6.235  32.582   3.348
30671W        W99144   8.657  12.271  14.976
30672W        W99145   6.183  44.977  13.929
30673W        W99146   2.365  28.998   0.344
30674W        W99147  31.546  27.054   1.230
30675W        W99148  10.179  22.549   5.253
30676W        W99149  29.149  22.658   4.625
30677W        W99150  40.940   9.284   2.364
30678W        W99151  31.107  37.481   2.408
30679W        W99152  38.461   6.916  12.385
30680W        W99153  18.284  25.180   2.363
30681W        W99154  13.631  37.353  13.798
30682W        W99155  21.250  15.820   2.243
30683W        W99156   5.870  24.487   2.869
30684W        W99157  43.476  21.034  12.467
30685W        W99158  16.303  44.385  13.486
30686W        W99159  37.067   6.296  12.364
30687W        W99160  26.512  37.028  13.013
30688W        W99161  37.981   7.818   1.905
30689W        W99162  43.961  22.197  12.051
30690W        W99163  10.700  20.072   3.229
30691W        W99164  26.144  23.151  12.948
30692W        W99165  14.628  29.163  12.008
30693W        W99166  15.090  17.706   4.741
30694W        W99167  37.582  38.420  14.306
30695W        W99168  19.707  14.248   1.919
30696W        W99169  31.119  19.282  13.367
30697W        W99170  25.615  22.587   2.812
30698W        W99171  26.530  15.794   2.739
30699W        W99172  27.582  40.931  14.348
30700W        W99173  42.851  17.208   3.325
30701W        W99174   5.392  12.153  13.969
30702W        W99175  11.644   3.774  12.049
30703W        W99176  40.522  33.519  10.042
30704W        W99177   1.774   3.437   1.381
30705W        W99178   1.348  15.668   0.887
30706W        W99179  18.650  31.574  13.429
30707W        W99180   3.290  30.561   3.723
30708W        W99181  20.126  31.563  10.445
30709W        W99182   6.920  38.402  14.331
30710W        W99183  21.598  38.520   1.235
30711W        W99184  21.075  16.108   2.224
30712W        W99185  17.076  39.985  11.540
30713W        W99186  17.761  39.018  11.466
30714W        W99187  22.587   9.297   1.396
30715W        W99188  42.827  17.765  11.950
30716W        W99189  23.678  25.684  12.542
30717W        W99190  29.952  24.024   4.225
30718W        W99191   3.381  34.090   3.266
30719W        W99192  24.691  41.875  12.831
30720W        W99193  36.412  10.865  14.352
30721W        W99194   6.320  27.598  14.987
30722W        W99195   8.393  40.354  10.595
30723W        W99196   9.662  18.692  14.997
30724W        W99197  16.106  19.626  14.476
30725W        W99198  15.319  43.796   1.897
30726W        W99199  26.594  17.069   1.430
30727W        W99200  43.904   9.238  11.107
30728W        W99201  18.653   8.862   1.722
30729W        W99202  42.834  39.355  11.517
30730W        W99203   5.401  11.844  11.891
30731W        W99204  34.515  31.427  12.001
30732W        W99205  17.749  11.300  12.558
30733W        W99206  13.262  16.685  12.517
30734W        W99207  18.577  38.420   4.722
30735W        W99208  36.066  33.069   1.765
30736W        W99209  17.070   3.320  10.417
30737W        W99210  26.634  32.125   1.783
30738W        W99211  29.600   9.385   1.740
30739W        W99212   3.263   6.281   4.640
30740W        W99213  32.583  38.940   2.255
30741W        W99214  21.121  43.873   0.840
30742W        W99215  44.295  20.229  13.371
30743W        W99216  19.242  37.374  12.827
30744W        W99217   8.887   8.230  11.497
30745W        W99218  15.647  29.942  14.845
30746W        W99219   5.886   7.197  12.346
30747W        W99220  15.705  13.803   1.796
30748W        W99221   8.841   4.803  14.418
30749W        W99222  15.162  30.542   3.371
30750W        W99223   1.419  15.732  13.343
30751W        W99224  13.158   6.839  12.961
30752W        W99225  37.564  39.555   2.811
30753W        W99226  21.749  24.139  12.984
30754W        W99227  16.772  13.753  11.867
30755W        W99228   6.230  34.372   1.872
30756W        W99229  22.186   8.743  13.468
30757W        W99230  27.067  29.061   1.409
30758W        W99231   2.826  26.618  14.869
30759W        W99232  29.076  26.045  11.451
30760W        W99233  10.772   5.847   4.796
30761W        W99234  31.009   4.937  12.374
30762W        W99235  43.877  15.202  12.939
30763W        W99236  17.202  28.612  12.909
30764W        W99237  11.799  21.260   1.856
30765W        W99238  26.603   6.921  13.061
30766W        W99239  13.647  39.040  12.022
30767W        W99240  30.921   2.776   0.923
30768W        W99241  22.625  44.886   9.970
30769W        W99242  31.049  17.709   1.711
30770W        W99243  42.387  44.382  12.557
30771W        W99244  30.652  12.854   2.839
30772W        W99245   0.820  34.082   1.699
30773W        W99246  43.314  29.480   3.721
30774W        W99247   4.281  12.185   0.769
30775W        W99248   6.188  23.523  12.432
30776W        W99249  38.332  13.204   3.338
30777W        W99250  24.645   5.694  11.923
30778W        W99251  29.056  36.461  12.348
30779W        W99252  43.935  28.634  14.819
30780W        W99253   2.948  18.181   1.832
30781W        W99254  27.080  29.979   2.810
30782W        W99255  39.888  27.502  11.031
30783W        W99256  39.048   8.835  12.921
30784W        W99257   9.159   5.771  12.032
30785W        W99258  36.982  32.987  13.527
30786W        W99259  21.627   7.800   4.816
30787W        W99260  10.651  30.158  10.417
30788W        W99261   1.398  24.548  12.411
30789W        W99262  27.080  41.512  11.381
30790W        W99263  33.053  44.763   0.875
30791W        W99264   4.383  23.184  11.046
30792W        W99265  23.052   3.747  10.936
30793W        W99266  21.713  12.854   5.318
30794W        W99267  16.198  25.011   0.435
30795W        W99268   5.335  32.005   2.244
30796W        W99269  11.814  41.469  11.987
30797W        W99270  29.953   4.345   3.862
30798W        W99271  40.504  35.011  11.440
30799W        W99272  29.144  43.861  12.404
30800W        W99273   0.787   1.283  14.850
30801W        W99274  24.672  23.555  12.000
30802W        W99275  42.889  29.608   3.691
30803W        W99276  38.448  15.592   4.705
30804W        W99277  28.056   8.404   1.700
30805W        W99278   4.771   9.857  11.556
30806W        W99279  21.697  14.125  13.361
30807W        W99280   2.340   0.300  13.818
30808W        W99281  15.737  34.003   3.158
30809W        W99282  23.087  32.498   0.405
30810W        W99283  20.542  34.508  14.820
30811W        W99284  31.560  18.586   2.276
30812W        W99285  35.580  16.798  14.829
30813W        W99286  15.234  39.898   4.660
30814W        W99287  41.376  16.749   1.288
30815W        W99288  27.591  43.809   5.768
30816W        W99289  20.671  36.371   3.294
30817W        W99290  38.836  13.683  14.459
30818W        W99291   8.657  42.941   5.145
30819W        W99292  19.676   9.824  10.612
30820W        W99293   7.186  32.091   0.917
30821W        W99294  41.043  41.375  12.475
30822W        W99295  22.726  37.492  10.061
30823W        W99296  23.038   9.795   0.333
30824W        W99297  13.251  20.604   2.775
30825W        W99298  21.665  26.036  10.626
30826W        W99299   8.384  18.563   1.252
30827W        W99300  32.502   7.787  11.533
30828W        W99301  41.377  15.322  14.888
30829W        W99302   7.903   1.426   0.765
30830W        W99303  18.211  15.651   2.675
30831W        W99304  41.396  25.104   4.119
30832W        W99305  34.979  35.466   1.406
30833W        W99306  29.609   9.686   1.791
30834W        W99307  41.791  14.337  13.838
30835W        W99308  14.124  36.063   3.869
30836W        W99309  41.425  35.989   4.650
30837W        W99310  24.026  32.568   3.785
30838W        W99311  42.944  14.195   1.866
30839W        W99312  31.452  17.555   3.717
30840W        W99313  10.744  28.147  13.827
30841W        W99314   1.850   1.477   4.763
30842W        W99315   2.894  40.027   1.747
30843W        W99316  43.507  31.903   4.809
30844W        W99317  11.847  28.480   4.197
30845W        W99318  20.731  31.557  12.561
30846W        W99319  26.043  18.698   2.818
30847W        W99320  27.020  21.173  12.835
30848W        W99321  14.640   2.875  13.407
30849W        W99322  42.800  30.988   3.780
30850W        W99323  33.887   0.482   1.341
30851W        W99324  23.729   3.331   1.702
30852W        W99325  25.561  36.942   1.900
30853W        W99326  41.897   6.294   5.115
30854W        W99327  24.719   8.881  13.029
30855W        W99328   5.899  37.835  10.929
30856W        W99329  42.980   9.670   0.339
30857W        W99330  40.336  43.394   4.629
30858W        W99331  33.026  11.132  13.466
30859W        W99332  10.741  22.153   4.695
30860W        W99333  10.319  11.749   0.907
30861W        W99334  13.228  41.009   2.681
30862W        W99335  30.639  18.783  11.447
30863W        W99336  40.326   8.702   2.241
30864W        W99337  21.183  28.538  10.593
30865W        W99338   6.892   6.816   0.405
30866W        W99339  19.669  25.134  14.023
30867W        W99340  19.174  28.648   3.761
30868W        W99341  37.503  20.233  11.912
30869W        W99342  40.017  37.989   1.364
30870W        W99343  10.804  25.014   2.716
30871W        W99344  29.526   0.863   2.862
30872W        W99345   4.409  23.546   3.710
30873W        W99346  22.253  44.371  12.913
30874W        W99347  16.253   1.838   5.091
30875W        W99348  14.326   1.411  12.840
30876W        W99349  36.431  40.028   0.474
30877W        W99350   5.407  21.735   1.805
30878W        W99351   4.773  38.916  12.525
30879W        W99352  29.424   3.822  11.607
30880W        W99353  17.570  24.498  11.477
30881W        W99354   1.433  17.074   4.159
30882W        W99355  12.748  42.929   3.333
30883W        W99356   4.278  25.713  14.465
30884W        W99357  15.226  42.422   2.342
30885W        W99358  33.072  34.073  14.323
30886W        W99359  30.013  26.073   5.288
30887W        W99360  38.447  20.540  12.514
30888W        W99361  10.774   4.369  14.764
30889W        W99362   5.357  44.297  13.378
30890W        W99363  39.528   8.403   4.192
30891W        W99364   1.268  34.103  12.369
30892W        W99365   1.359  19.541  11.553
30893W        W99366  44.293   3.764   1.300
30894W        W99367  23.027  33.129   1.892
30895W        W99368   4.231  33.556   2.206
30896W        W99369  34.030  42.357   4.275
30897W        W99370  31.642  38.521  13.892
30898W        W99371  20.721  25.568   1.925
30899W        W99372  11.354  17.732   1.763
30900W        W99373  35.543  24.535   2.311
30901W        W99374  42.482  22.115   4.643
30902W        W99375  25.205  10.701   1.435
30903W        W99376  30.163  11.645  14.843
30904W        W99377  26.644   8.234  14.327
30905W        W99378  21.250  12.787   4.197
30906W        W99379  18.138   0.775  13.972
30907W        W99380  31.945  14.132   2.241
30908W        W99381   3.922  38.829  11.378
30909W        W99382  33.440  32.584   0.429
30910W        W99383  11.266  23.685  14.916
30911W        W99384  29.512  42.305  14.462
30912W        W99385   1.817  18.664   3.644
30913W        W99386  36.987  11.735  13.967
30914W        W99387   9.847  18.074  13.871
30915W        W99388  10.722  37.895   4.682
30916W        W99389  24.216   7.849  13.912
30917W        W99390  13.170  39.931  13.033
30918W        W99391  42.378   3.837   0.912
30919W        W99392   1.738   0.933  11.921
30920W        W99393  30.911  17.195  11.890
30921W        W99394  35.032  43.357   4.241
30922W        W99395  22.549  22.248   3.796
30923W        W99396  28.105  40.390  13.507
30924W        W99397  27.578  27.589  13.539
30925W        W99398  38.032   6.303  13.426
30926W        W99399  29.035  21.688   1.835
30927W        W99400  37.374  35.068   2.296
30928W        W99401   6.384  33.434   4.696
30929W        W99402  33.585  13.324  14.961
30930W        W99403   9.320  36.515  10.033
30931W        W99404  16.210   9.300   3.788
30932W        W99405  39.371  37.962   3.171
30933W        W99406  30.114  23.180   1.424
30934W        W99407  15.771  17.091  12.084
30935W        W99408   2.270   6.250  10.548
30936W        W99409  16.701  34.031  11.029
30937W        W99410  35.916   5.298  12.989
30938W        W99411  17.240  12.752   4.827
30939W        W99412  26.098  16.763   4.145
30940W        W99413  10.846   4.922   4.722
30941W        W99414  43.007  28.081  14.471
30942W        W99415   4.216  44.286   4.268
30943W        W99416  12.350  35.358  12.005
30944W        W99417  44.469   4.321  11.892
30945W        W99418  38.380   1.779   0.768
30946W        W99419  36.451  16.143  14.994
30947W        W99420  26.156  11.736   2.180
30948W        W99421  18.646  29.965  12.009
30949W        W99422   0.383   8.699  12.480
30950W        W99423  26.152  14.749   3.640
30951W        W99424  36.079   1.977   3.750
30952W        W99425  22.229  15.798  10.065
30953W        W99426   6.202  28.142  14.801
30954W        W99427  26.985  34.579  14.342
30955W        W99428  28.063  43.862   0.814
30956W        W99429  44.497  34.033  12.006
30957W        W99430  17.283  35.472  14.951
30958W        W99431   5.317  19.695  11.955
30959W        W99432  16.287  38.846   4.197
30960W        W99433  14.588  42.420   1.452
30961W        W99434   0.263   5.328   0.315
30962W        W99435  32.977  41.325   0.436
30963W        W99436  15.126  15.180   4.190
30964W        W99437  10.856  20.235   0.925
30965W        W99438   7.822  34.972  11.394
30966W        W99439  24.071  35.536  14.360
30967W        W99440  31.585   7.282  10.429
30968W        W99441  39.013  11.292   1.785
30969W        W99442  17.640  10.670   2.209
30970W        W99443  35.960   7.745  11.425
30971W        W99444  24.136  38.868  14.449
30972W        W99445  23.506  21.740  12.573
30973W        W99446  14.180  21.093  10.897
30974W        W99447  42.854  30.653  10.581
30975W        W99448  12.717  17.800  11.027
30976W        W99449   6.348  16.297  14.325
30977W        W99450  19.061  23.231  10.410
30978W        W99451  13.778  33.024  11.436
30979W        W99452  18.108  23.689  11.021
30980W        W99453  12.322  15.647   4.831
30981W        W99454  33.991  22.232   1.376
30982W        W99455  11.650  31.458   3.687
30983W        W99456  34.004  16.811  12.389
30984W        W99457  22.089  11.130   0.451
30985W        W99458  25.547  25.638   4.353
30986W        W99459   9.701  34.480   2.282
30987W        W99460   1.293  12.276  13.828
30988W        W99461  18.181  43.328   2.253
30989W        W99462  22.703   5.276  11.067
30990W        W99463  25.093  19.265  10.494
30991W        W99464  12.684  21.234  11.940
30992W        W99465  41.878  14.185   2.367
30993W        W99466  37.463   1.247   1.422
30994W        W99467   3.954   0.844  12.016
30995W        W99468  32.130  11.344   2.247
30996W        W99469  33.587  14.751  12.002
30997W        W99470  28.006  24.671  13.014
30998W        W99471  17.783  26.530  13.952
30999W        W99472  16.700  26.016   3.213
31000W        W99473   1.278  33.604  12.060
31001W        W99474  15.761   1.922  10.964
31002W        W99475  16.788  15.658   3.651
31003W        W99476  29.523  24.670   4.621
31004W        W99477  36.538  43.331   2.669
31005W        W99478  18.724  14.236   3.353
31006W        W99479  25.201  15.685  12.964
31007W        W99480  21.099   3.808   3.312
31008W        W99481  17.254  33.115   4.323
31009W        W99482  39.053  19.126  13.310
31010W        W99483  32.540  28.472   2.381
31011W        W99484  23.561  34.904   2.278
31012W        W99485  11.164  15.588  14.314
31013W        W99486   7.258  34.555  12.428
31014W        W99487  41.000   6.201   4.760
31015W        W99488  19.137   6.349   2.698
31016W        W99489  22.175  15.288  12.508
31017W        W99490  42.285  19.126   3.847
31018W        W99491  16.746  42.352   1.812
31019W        W99492  27.470  21.085  13.315
31020W        W99493  41.507   1.786  12.374
31021W        W99494  14.215   9.311  12.535
31022W        W99495   9.866  28.440  11.593
31023W        W99496  31.421  44.827  14.482
31024W        W99497   2.427   6.312   0.411
31025W        W99498  30.980  30.070  12.920
31026W        W99499  11.179   6.321  11.022
31027W        W99500   0.804  22.238  11.504
31028W        W99501  18.126  23.193  14.354
31029W        W99502   9.208  28.119  11.493
31030W        W99503   5.260  38.570   2.787
31031W        W99504  19.204  32.089  13.047
31032W        W99505  27.446  40.330  11.048
31033W        W99506  14.245  44.825  13.435
31034W        W99507  10.352   6.769  12.084
31035W        W99508  36.059   7.202  13.351
31036W        W99509  32.508  34.917  11.978
31037W        W99510  26.061  43.382   2.224
31038W        W99511  28.545   4.404   0.732
31039W        W99512  29.433   1.960   2.773
31040W        W99513  11.360  28.608  14.482
31041W        W99514  33.569  27.030   4.615
31042W        W99515  24.223  16.263   1.440
31043W        W99516   3.385  42.402  10.435
31044W        W99517  15.106  43.509  12.360
31045W        W99518  39.914  22.547  11.571
31046W        W99519   6.253  41.519   1.276
31047W        W99520  43.017  38.570  10.907
31048W        W99521  10.323  24.502   2.396
31049W        W99522  41.910  44.857  10.545
31050W        W99523   2.810  36.525   2.393
31051W        W99524  17.649  10.874   0.834
31052W        W99525  29.620   4.270  12.922
31053W        W99526  39.473  41.870  11.430
31054W        W99527  24.126  16.600  13.874
31055W        W99528  12.841  20.122  11.985
31056W        W99529  22.023  37.515   0.391
31057W        W99530  11.833  25.495   3.352
31058W        W99531  19.739  22.100   4.739
31059W        W99532  21.164  41.420   1.336
31060W        W99533  33.925  39.350  12.489
31061W        W99534  25.082  38.017   3.714
31062W        W99535  30.638  13.176   1.792
31063W        W99536  35.479  27.591   4.771
31064W        W99537  19.693  28.975  10.620
31065W        W99538  10.823  42.935   0.761
31066W        W99539  26.190  28.530  14.960
31067W        W99540  32.064  14.763  10.407
31068W        W99541   8.780   4.335  14.943
31069W        W99542  32.123  35.063  11.945
31070W        W99543  44.373  42.425   1.783
31071W        W99544  31.897  35.557   3.365
31072W        W99545   0.750  35.981   2.242
31073W        W99546  40.521  42.445   0.768
31074W        W99547  32.050   3.339  12.455
31075W        W99548  31.098  29.969   3.190
31076W        W99549   5.302  20.565  13.799
31077W        W99550  28.994  32.032  11.381
31078W        W99551  20.137  35.055   4.315
31079W        W99552   3.364  24.565  12.887
31080W        W99553  29.952   5.925  14.799
31081W        W99554  28.103  19.189   3.258
31082W        W99555  42.518  10.191  10.993
31083W        W99556   4.209  20.627  11.579
31084W        W99557  43.973   4.851  12.476
31085W        W99558  42.358   6.872   2.777
31086W        W99559  11.683   3.441  13.393
31087W        W99560  38.043  18.253  14.333
31088W        W99561   2.907   0.290  10.626
31089W        W99562  38.420  42.374   1.405
31090W        W99563  11.317   3.311   3.740
31091W        W99564  25.554  36.927  13.897
31092W        W99565  34.009  10.151   1.731
31093W        W99566  26.689  37.534   2.772
31094W        W99567  34.404   6.230   4.200
31095W        W99568  20.579  43.902  12.399
31096W        W99569  20.714  18.777  14.840
31097W        W99570  32.491  30.971  12.419
31098W        W99571   5.807  27.177   0.390
31099W        W99572   8.310  43.002   2.362
31100W        W99573  15.782   1.947   0.384
31101W        W99574  40.491  18.120  10.539
31102W        W99575  44.861  43.977  12.375
31103W        W99576  35.368  43.354   1.375
31104W        W99577  24.105  24.706   0.380
31105W        W99578  37.375  26.645  12.520
31106W        W99579  35.942  11.711   2.731
31107W        W99580  16.154  21.544  13.928
31108W        W99581   1.942  15.152  13.382
31109W        W99582  35.089  29.613   2.374
31110W        W99583   3.824  16.673   1.697
31111W        W99584  29.609   4.351   2.364
31112W        W99585  19.192  16.175   3.755
31113W        W99586  16.680  40.010  13.804
31114W        W99587  16.798   8.251   2.326
31115W        W99588   4.404   0.476  13.489
31116W        W99589   1.264  19.721   3.795
31117W        W99590  41.301  40.985   2.399
31118W        W99591  26.669  12.284   3.252
31119W        W99592  22.057   0.363  12.003
31120W        W99593  34.026   4.704  11.110
31121W        W99594  38.003  27.046  10.968
31122W        W99595   9.671  38.511  10.546
31123W        W99596  22.089  10.796   2.179
31124W        W99597  14.754   0.748  14.465
31125W        W99598  28.074  44.467   4.157
31126W        W99599  25.605  11.304  14.882
31127W        W99600  30.462  23.161   1.345
31128W        W99601   1.880  43.342  14.000
31129W        W99602  35.083  35.460   3.209
31130W        W99603  32.060  35.535  14.931
31131W        W99604   5.289   0.379   4.659
31132W        W99605  24.170  18.592   4.243
31133W        W99606  43.444  24.108  11.602
31134W        W99607  36.547  39.986  11.002
31135W        W99608  43.973   5.731   0.856
31136W        W99609  27.947  20.769  14.867
31137W        W99610  38.326  21.136  11.584
31138W        W99611  38.465  13.111   4.229
31139W        W99612   6.824  36.560  12.341
31140W        W99613  42.409  41.329   1.752
31141W        W99614   1.377   4.838  11.066
31142W        W99615   1.867  25.693   0.434
31143W        W99616  18.254  31.906  12.052
31144W        W99617  27.584  40.519   0.950
31145W        W99618   0.834  25.486   3.220
31146W        W99619  40.045  36.532   4.697
31147W        W99620  17.614  22.205   2.689
31148W        W99621  35.392  40.914   0.377
31149W        W99622  23.508  18.152  11.405
31150W        W99623  14.656  25.138   5.199
31151W        W99624  34.979  20.250   2.757
31152W        W99625  42.345  13.238  13.374
31153W        W99626  34.907  38.440   2.857
31154W        W99627  19.220  17.626   1.813
31155W        W99628  41.473  36.926   0.801
31156W        W99629  42.967   8.255   1.868
31157W        W99630   2.410  24.111  10.524
31158W        W99631   1.772  23.666  10.575
31159W        W99632  20.266  28.119   0.779
31160W        W99633  13.804  32.930  13.938
31161W        W99634  26.100  19.684  11.091
31162W        W99635   8.788  37.043  12.454
31163W        W99636  32.994   7.208  14.832
31164W        W99637  44.390  25.476   3.670
31165W        W99638  32.461  10.160  11.069
31166W        W99639  39.901  16.756  12.580
31167W        W99640  38.435   0.901   4.756
31168W        W99641  44.298  44.384  13.517
31169W        W99642  15.728   5.224   1.377
31170W        W99643   7.210  37.516   3.808
31171W        W99644  23.613  16.593  14.863
31172W        W99645  25.654  34.514  11.974
31173W        W99646  22.711   6.218   1.895
31174W        W99647   7.710   5.219  13.818
31175W        W99648  23.522  42.884   2.290
31176W        W99649  16.156  27.188  12.573
31177W        W99650  39.548  11.314   3.386
31178W        W99651   0.776  18.747  10.628
31179W        W99652   4.757  36.988  11.596
31180W        W99653  14.277  37.866  13.438
31181W        W99654  42.357  28.615   2.742
31182W        W99655  38.056  33.548  13.418
31183W        W99656  33.958  29.076   0.829
31184W        W99657  32.083  14.675   3.378
31185W        W99658   8.227  16.215  12.078
31186W        W99659  28.471  23.659  14.419
31187W        W99660  44.291  17.719   3.634
31188W        W99661  30.457  34.581  11.942
31189W        W99662  40.469  35.872  11.906
31190W        W99663   3.912  16.205   5.667
31191W        W99664  43.021   2.461   4.748
31192W        W99665   8.230  39.465   2.365
31193W        W99666  19.132  41.310  12.420
31194W        W99667  17.762  42.448   0.733
31195W        W99668  43.337  31.475   2.291
31196W        W99669  34.912  17.669   0.372
31197W        W99670  14.652   3.814  12.561
31198W        W99671  10.649  40.477  12.946
31199W        W99672  32.951   9.305  11.418
31200W        W99673   3.240  30.945   1.389
31201W        W99674  44.765  33.970   0.882
31202W        W99675  30.439  23.188   2.373
31203W        W99676   8.397  23.092   9.665
31204W        W99677  13.206  23.611   4.778
31205W        W99678  42.003  10.716   3.323
31206W        W99679  42.832   9.842   1.306
31207W        W99680  37.022  11.804  12.441
31208W        W99681  15.324  19.707   2.286
31209W        W99682   2.791  12.184   3.837
31210W        W99683   3.219  29.170   3.802
31211W        W99684  36.537   4.426  13.404
31212W        W99685  24.601   7.404  11.017
31213W        W99686  12.687  25.072   2.881
31214W        W99687   8.728  20.161  14.839
31215W        W99688  39.828  34.076  14.308
31216W        W99689  31.516  18.184   1.807
31217W        W99690   2.739  21.651  10.417
31218W        W99691  21.598  42.028  10.591
31219W        W99692  15.741  25.655   4.729
31220W        W99693  14.809  21.263   2.327
31221W        W99694  22.696   4.271  11.124
31222W        W99695   6.233  22.012  10.935
31223W        W99696  26.002  22.059  11.118
31224W        W99697   5.314  30.081  12.887
31225W        W99698  23.198  31.426   1.935
31226W        W99699  20.192  17.215  13.808
31227W        W99700   9.294  34.527   5.284
31228W        W99701  24.118   8.701   4.207
31229W        W99702   3.432  42.476   4.747
31230W        W99703   4.880  19.590  11.433
31231W        W99704  20.148  22.586   3.259
31232W        W99705   7.217  14.221   3.764
31233W        W99706  43.489  21.745  11.100
31234W        W99707   4.378  17.607   2.881
31235W        W99708   4.911  28.981   2.664
31236W        W99709   7.308  22.239   0.737
31237W        W99710  40.408  41.511   4.793
31238W        W99711   0.809  43.457  13.465
31239W        W99712  31.067  40.333  12.043
31240W        W99713  35.974  27.982  12.369
31241W        W99714  17.067  15.096   1.778
31242W        W99715  19.194   9.365   3.867
31243W        W99716  14.217  25.116   3.187
31244W        W99717  39.541  28.614   1.706
31245W        W99718  35.977  17.174   2.238
31246W        W99719  34.458   8.167   4.304
31247W        W99720   0.254  22.073   0.243
31248W        W99721  21.604   8.244  11.896
31249W        W99722  25.113   4.802   3.704
31250W        W99723  44.979  34.954  10.922
31251W        W99724  25.679  34.935   4.161
31252W        W99725  27.613   4.873   2.686
31253W        W99726  24.512   8.162   2.726
31254W        W99727  19.156   4.922  14.914
31255W        W99728  30.599  42.520   1.243
31256W        W99729  22.223   5.233   1.754
31257W        W99730  24.066   8.881  11.094
31258W        W99731  18.592  35.417  12.544
31259W        W99732  32.555  28.001   3.765
31260W        W99733  19.156   6.305  14.959
31261W        W99734   1.826  12.800   2.805
31262W        W99735  41.952  30.544   1.799
31263W        W99736  38.509   3.438  13.431
31264W        W99737  19.220  30.084  11.534
31265W        W99738  35.358  16.267   2.718
31266W        W99739  15.708  32.129   4.113
31267W        W99740   9.370  12.832  14.993
31268W        W99741  24.684  17.157   4.667
31269W        W99742  41.810  38.944   3.362
31270W        W99743  13.656  43.460  14.888
31271W        W99744  14.288  17.216  10.991
31272W        W99745  24.219  17.122  12.568
31273W        W99746  27.176  29.523   4.613
31274W        W99747  30.636  28.575  13.515
31275W        W99748  30.456  22.211  11.592
31276W        W99749  15.682  15.764   4.185
31277W        W99750  29.425  26.456   1.891
31278W        W99751  40.841  44.421  13.419
31279W        W99752  10.843   3.368  12.039
31280W        W99753  21.627  32.979  11.597
31281W        W99754  38.552   2.281  14.917
31282W        W99755  35.910  20.669   4.604
31283W        W99756   2.274  28.540   0.853
31284W        W99757   5.732  29.172   2.402
31285W        W99758  34.905   2.453  14.895
31286W        W99759  44.462  30.098  11.967
31287W        W99760  29.550  42.363   0.733
31288W        W99761   3.889  22.501   4.221
31289W        W99762   7.738  41.332  12.828
31290W        W99763  33.454  44.849  10.539
31291W        W99764  34.089  18.235  10.415
31292W        W99765  34.111  19.579  12.492
31293W        W99766  22.041  30.915   3.189
31294W        W99767  14.821  35.550   4.727
31295W        W99768   2.789   4.236  11.898
31296W        W99769  24.986   4.307  13.319
31297W        W99770  26.692  10.741  10.455
31298W        W99771  10.787  21.192   4.322
31299W        W99772   8.900  18.605   1.928
31300W        W99773  24.202  38.479  11.010
31301W        W99774  29.083  30.997  10.963
31302W        W99775   2.877  33.439  14.970
31303W        W99776  17.252   9.254  12.007
31304W        W99777  14.210  27.475  12.955
31305W        W99778  19.736  23.575   0.398
31306W        W99779  18.783  14.653   4.324
31307W        W99780  41.987   9.254  11.050
31308W        W99781  20.073  13.256  12.839
31309W        W99782  40.914  29.646  11.453
31310W        W99783  30.134   9.312   1.851
31311W        W99784   2.826  24.981   3.307
31312W        W99785  31.578  25.668   2.899
31313W        W99786   1.890  29.661   5.312
31314W        W99787  17.679  38.366   5.269
31315W        W99788  25.048  32.561   1.390
31316W        W99789  39.851   9.162   3.850
31317W        W99790  20.068  38.045   1.903
31318W        W99791  30.562  40.913  11.380
31319W        W99792  10.725   1.740  14.030
31320W        W99793   8.374  14.292   3.373
31321W        W99794  32.088  23.728   2.404
31322W        W99795   9.353  43.323  13.368
31323W        W99796  29.008  42.506   1.343
31324W        W99797  44.832   6.895   0.842
31325W        W99798  21.527  34.579  13.823
31326W        W99799   4.338  14.311  11.377
31327W        W99800  20.163  16.789   4.235
31328W        W99801   2.306  33.432   0.803
31329W        W99802  26.530   4.765   0.949
31330W        W99803  24.701   3.296  12.060
31331W        W99804  28.016  27.622  12.384
31332W        W99805  29.002  14.639   1.880
31333W        W99806   5.382  32.448   4.814
31334W        W99807   3.895  14.678  13.832
31335W        W99808   3.457   1.338  13.365
31336W        W99809  44.852  27.687  13.500
31337W        W99810  41.992  17.802  13.371
31338W        W99811   9.392   8.812   2.357
31339W        W99812  31.919  41.301  11.910
31340W        W99813  27.989  40.998  11.527
31341W        W99814  10.342  10.827  10.922
31342W        W99815  39.497  25.673   3.753
31343W        W99816  22.148  17.793   2.724
31344W        W99817  23.143  32.081  13.340
31345W        W99818  36.413  27.527  14.918
31346W        W99819   8.732  23.514  10.493
31347W        W99820  43.379   4.820  13.982
31348W        W99821  16.303  31.415  14.984
31349W        W99822  28.014   4.430  14.781
31350W        W99823  39.476   2.231  13.882
31351W        W99824  35.600  15.183   0.355
31352W        W99825  18.644  25.595   3.159
31353W        W99826  43.770  21.535   1.706
31354W        W99827  13.350  33.483   0.949
31355W        W99828  34.495   6.271   4.647
31356W        W99829  27.670  31.119   0.739
31357W        W99830  14.125  39.032  10.911
31358W        W99831  14.309  17.181   5.257
31359W        W99832   0.333  10.718   0.317
31360W        W99833   6.746  34.028   4.264
31361W        W99834   8.795  15.109   3.269
31362W        W99835  17.702  44.328   2.688
31363W        W99836   4.809   0.269   2.212
31364W        W99837   4.860   7.340  12.873
31365W        W99838  19.203  24.998   0.379
31366W        W99839  26.995   6.305  14.471
31367W        W99840  35.432  21.562   2.387
31368W        W99841   7.874   1.322   4.764
31369W        W99842  41.308  25.165  14.291
31370W        W99843  40.858   1.423   3.180
31371W        W99844  30.010  17.116   0.443
31372W        W99845  29.515  34.400  14.020
31373W        W99846  35.545   2.865   4.258
31374W        W99847   4.811  35.526  13.448
31375W        W99848  24.600  37.390  13.850
31376W        W99849  16.107  32.008  10.038
31377W        W99850  11.368  14.685  14.409
31378W        W99851  39.947  35.862  12.479
31379W        W99852  20.263   6.186   4.800
31380W        W99853  12.725  14.827  14.419
31381W        W99854   0.445   4.215   2.735
31382W        W99855   7.211  26.067  11.052
31383W        W99856  11.357  35.603  12.053
31384W        W99857  30.587  28.502   1.934
31385W        W99858  40.050  40.996  13.056
31386W        W99859  34.906   1.937  14.335
31387W        W99860   2.805  35.556   1.816
31388W        W99861  10.662  16.702  14.414
31389W        W99862  30.042  17.294   4.630
31390W        W99863  15.612  24.620   3.809
31391W        W99864  30.420   1.920   1.259
31392W        W99865  29.479  11.797   0.770
31393W        W99866  44.768  29.467   3.783
31394W        W99867  35.591  39.334  13.510
31395W        W99868  30.449  34.442   3.862
31396W        W99869  16.603  44.941   2.833
31397W        W99870  28.096   9.806  12.950
31398W        W99871  38.509  20.755   2.280
31399W        W99872   2.752  22.252  12.567
31400W        W99873  35.455  36.381   0.406
31401W        W99874  20.111  25.630  14.385
31402W        W99875  41.801  38.046  10.965
31403W        W99876  38.023   7.277   2.668
31404W        W99877  35.458  32.631   1.857
31405W        W99878  38.938  10.696   4.684
31406W        W99879  13.819   4.872   0.265
31407W        W99880   8.708   9.765   4.328
31408W        W99881  12.623  15.309  14.885
31409W        W99882  40.041  21.545  11.911
31410W        W99883  29.129  12.303  14.404
31411W        W99884  11.801  40.431   3.184
31412W        W99885   9.163  37.057  14.844
31413W        W99886  25.037  26.574  12.848
31414W        W99887  24.703  42.470   0.743
31415W        W99888  39.849  25.126   1.396
31416W        W99889  42.423  13.841   1.829
31417W        W99890  28.977  25.546   4.817
31418W        W99891   6.337  14.730  10.899
31419W        W99892  12.810   0.428  10.595
31420W        W99893  28.173  30.628  11.908
31421W        W99894  34.085  20.098   0.414
31422W        W99895  10.814  17.740   1.703
31423W        W99896  43.793   1.291   2.755
31424W        W99897  14.643  23.184   4.767
31425W        W99898   9.890  35.492   3.225
31426W        W99899  13.638  22.160   3.750
31427W        W99900   4.785  31.510   4.767
31428W        W99901   6.893  10.259   0.474
31429W        W99902   7.742  27.060   3.736
31430W        W99903  28.637  16.600   1.742
31431W        W99904  37.055  44.386  13.461
31432W        W99905   5.878  38.974   1.923
31433W        W99906   3.773  32.105   3.218
31434W        W99907  37.852  19.208   0.735
31435W        W99908  40.826  43.365   3.813
31436W        W99909   4.288  22.097   3.372
31437W        W99910  43.791  36.916  10.520
31438W        W99911   7.721  14.748   1.331
31439W        W99912  40.899   1.402   0.403
31440W        W99913   5.759  16.602  14.922
31441W        W99914  23.501  38.563  12.060
31442W        W99915  22.141  15.316   1.407
31443W        W99916  11.170  33.561  12.364
31444W        W99917  32.943  39.322   0.868
31445W        W99918  41.864  32.471  13.048
31446W        W99919  40.540  27.460   4.288
31447W        W99920  37.034  27.648   1.809
31448W        W99921   6.267  41.864  14.011
31449W        W99922  35.943   6.303  12.959
31450W        W99923  23.241   3.885  13.463
31451W        W99924   3.880   4.864  14.477
31452W        W99925  41.389  43.335  12.043
31453W        W99926  32.118  30.557  12.358
31454W        W99927   5.727   7.251  11.906
31455W        W99928  13.160  26.568   3.833
31456W        W99929  25.178  39.011   3.161
31457W        W99930  17.305  23.490   3.809
31458W        W99931  30.613  17.251   2.327
31459W        W99932  14.172  41.301  11.584
31460W        W99933   6.698  22.615  12.378
31461W        W99934  12.172   1.759   0.350
31462W        W99935  10.378  14.647   4.733
31463W        W99936   7.800  13.297   3.197
31464W        W99937   8.847  16.318   3.147
31465W        W99938  29.428   3.710  14.828
31466W        W99939  38.968  32.487  11.959
31467W        W99940  40.499   2.344   0.266
31468W        W99941  20.531  10.773  11.456
31469W        W99942   9.276  14.613  10.638
31470W        W99943  37.436   3.779  14.985
31471W        W99944  12.712  40.881   3.727
31472W        W99945  37.027  31.564   2.783
31473W        W99946  13.620  28.027  14.023
31474W        W99947  20.675  23.057  12.985
31475W        W99948  35.916  24.173   1.211
31476W        W99949  11.625   3.326   2.276
31477W        W99950  26.498  39.467   0.255
31478W        W99951  27.192  33.403  12.876
31479W        W99952  37.514  42.822   4.153
31480W        W99953  43.765  26.093  12.985
31481W        W99954  17.090  17.719  14.469
31482W        W99955   2.235  11.838   0.470
31483W        W99956  10.369  16.651  10.541
31484W        W99957  43.964  42.360  13.496
31485W        W99958  44.759  44.269   0.474
31486W        W99959  25.546  33.041  11.938
31487W        W99960  42.781  10.150   0.373
31488W        W99961   9.669  11.254  10.418
31489W        W99962  43.839  38.449  10.945
31490W        W99963   9.701  25.117   3.150
31491W        W99964  10.268  23.735  14.343
31492W        W99965  12.649   7.214  10.988
31493W        W99966  40.312  36.496  14.379
31494W        W99967  36.954  44.275   3.748
31495W        W99968  33.407  21.624   2.844
31496W        W99969  19.226  44.939  14.286
31497W        W99970  17.239  23.637  12.834
31498W        W99971   3.772  36.386  11.069
31499W        W99972  17.749   5.320  13.372
31500W        W99973  40.391  11.130  14.805
31501W        W99974  34.941  10.740  11.921
31502W        W99975  12.721  19.090  14.851
31503W        W99976   8.163   9.232   0.424
31504W        W99977  12.330  32.076   2.823
31505W        W99978   1.814   4.311   0.852
31506W        W99979  10.875  37.411   2.852
31507W        W99980   1.353  41.517  12.837
31508W        W99981   2.253  38.548   3.726
31509W        W99982  24.060  36.025  13.308
31510W        W99983  27.957  40.438  12.353
31511W        W99984  10.290   5.324   2.235
31512W        W99985  15.808  21.166  13.487
31513W        W99986  17.262  33.954  11.509
31514W        W99987  40.804   4.885  14.364
31515W        W99988  35.878  30.098  11.515
31516W        W99989  10.819  17.620   0.746
31517W        W99990  18.066  33.518   1.862
31518W        W99991   4.766   9.170  13.308
31519W        W99992  25.140  35.026  14.931
31520W        W99993  34.083  22.013  11.920
31521W        W99994   7.693  10.255  12.483
31522W        W99995   8.277  26.699   0.822
31523W        W99996  33.994  29.955  11.572
31524W        W99997  44.921  18.567   4.608
31525W        W99998  38.483  36.930   1.266
31526W        W99999  26.493  14.589  12.012
31527W        W    0   6.815  38.871  13.458
31528W        W    1   8.669  25.987  10.001
31529W        W    2  38.007  44.331  10.152
31530W        W    3   0.886  22.712   1.284
31531W        W    4   9.726  25.523  12.912
31532W        W    5  33.033   8.889   3.181
31533W        W    6  42.394  25.706   2.213
31534W        W    7  29.474  12.844  12.473
31535W        W    8  42.011  22.168   1.314
31536W        W    9  31.532  32.110  11.976
31537W        W   10  43.382   9.347   3.746
31538W        W   11  15.726   6.914  14.392
31539W        W   12  28.960   3.392   0.750
31540W        W   13   0.259  42.492   3.742
31541W        W   14  11.336   0.472  10.473
31542W        W   15  24.048  29.551  12.991
31543W        W   16   0.407  27.680  10.556
31544W        W   17  29.451  11.669  14.940
31545W        W   18  27.102  41.504   4.724
31546W        W   19   3.262  30.000   2.706
31547W        W   20   5.243  36.382   0.256
31548W        W   21  10.765  16.103  10.421
31549W        W   22   7.675  39.055  11.078
31550W        W   23   5.411  41.536  14.346
31551W        W   24  26.148   4.253   2.207
31552W        W   25   9.152  19.739  11.608
31553W        W   26  11.368   9.359   1.792
31554W        W   27  18.233   4.723  11.602
31555W        W   28  29.483  11.673  13.506
31556W        W   29   6.353  39.433  12.540
31557W        W   30  33.468  42.328  14.860
31558W        W   31  41.876  16.099  11.374
31559W        W   32  31.067   5.729   1.776
31560W        W   33  35.372   9.839   4.598
31561W        W   34  37.562  23.030  10.622
31562W        W   35  27.967  18.675   5.279
31563W        W   36  33.527  34.577  10.441
31564W        W   37   7.746  39.943  10.050
31565W        W   38   4.299  20.265  12.359
31566W        W   39  28.598  29.593  14.869
31567W        W   40   3.453  15.166  13.378
31568W        W   41   4.751  25.095   2.276
31569W        W   42  25.033  24.662  11.441
31570W        W   43  17.278  11.786   2.825
31571W        W   44  27.495  35.436  14.960
31572W        W   45  26.601  24.531   2.694
31573W        W   46  26.581  28.153  10.628
31574W        W   47   9.353  43.896  10.557
31575W        W   48   0.780  38.072  12.886
31576W        W   49  43.371  32.457  14.796
31577W        W   50   0.842  11.853   3.382
31578W        W   51  22.615  31.597  11.019
31579W        W   52   3.299  34.609  14.312
31580W        W   53  23.129  37.998  12.451
31581W        W   54  29.968  39.454  13.014
31582W        W   55  30.087  41.334  12.514
31583W        W   56  44.760  18.739  12.027
31584W        W   57  44.804   9.769   4.785
31585W        W   58  35.485  14.243   1.859
31586W        W   59  38.407  19.189  14.796
31587W        W   60  25.604  27.082   4.171
31588W        W   61  42.867  32.573   1.848
31589W        W   62  32.616  25.622  14.777
31590W        W   63  13.130  36.039  11.576
31591W        W   64  21.079  34.564  13.876
31592W        W   65  42.326  14.309  10.488
31593W        W   66  32.451  17.261   0.802
31594W        W   67  24.724  26.683   0.426
31595W        W   68  10.354   4.798   2.253
31596W        W   69  26.108   1.758   2.693
31597W        W   70  10.307  30.456   5.109
31598W        W   71  26.485  30.084   1.740
31599W        W   72  34.048  10.341  14.844
31600W        W   73  33.392  37.987  11.004
31601W        W   74  33.067  37.406  13.033
31602W        W   75  28.178   5.251   0.326
31603W        W   76  26.678  33.559   1.804
31604W        W   77   4.880  30.563   1.258
31605W        W   78   3.351  24.515   2.214
31606W        W   79  24.230   1.250   4.331
31607W        W   80  44.876  22.532   3.251
31608W        W   81  18.126  27.521   2.348
31609W        W   82  42.518  28.941  13.052
31610W        W   83   4.801  22.718   1.373
31611W        W   84  37.397  16.631   0.376
31612W        W   85  29.582  17.634  13.036
31613W        W   86  38.963  31.082  11.968
31614W        W   87  13.771  26.560  14.472
31615W        W   88   1.266  30.073  12.921
31616W        W   89  23.116   5.823   3.291
31617W        W   90  41.299   8.790  11.862
31618W        W   91  35.899  40.041   3.263
31619W        W   92  38.537  42.408  13.382
31620W        W   93  27.639  44.787   9.476
31621W        W   94  29.489  35.565   2.289
31622W        W   95  12.675  35.454   3.718
31623W        W   96  15.784  36.507   4.117
31624W        W   97   5.412  25.509  13.392
31625W        W   98  23.558  20.605  12.976
31626W        W   99  42.971  34.082   0.431
31627W        W  100  30.146   4.710   2.731
31628W        W  101   5.771  41.035   4.707
31629W        W  102  37.019  30.114  13.055
31630W        W  103  44.382  36.472   0.408
31631W        W  104  15.749  35.862  11.452
31632W        W  105  29.923  32.898   2.196
31633W        W  106  36.544  10.191  12.342
31634W        W  107  18.062  14.236   0.460
31635W        W  108   5.240  26.994  14.381
31636W        W  109  12.252  27.000   0.342
31637W        W  110   1.781  24.212  13.911
31638W        W  111   5.898  43.880   4.724
31639W        W  112  14.225   0.974   1.437
31640W        W  113  44.772  12.725  12.359
31641W        W  114  35.959  18.706  14.800
31642W        W  115  39.530  25.093  13.359
31643W        W  116  32.888  13.141   4.825
31644W        W  117  32.076  10.364   1.826
31645W        W  118  39.056  28.125   0.387
31646W        W  119   8.898  12.807  14.383
31647W        W  120  11.129   9.849  12.898
31648W        W  121  39.932  42.526  12.996
31649W        W  122  22.139  20.533  12.013
31650W        W  123  44.439  28.457   3.841
31651W        W  124  21.058  22.251   1.780
31652W        W  125  14.597  39.938  13.022
31653W        W  126   3.331  41.849   1.350
31654W        W  127  35.867  33.616   3.750
31655W        W  128   7.391   0.922   1.244
31656W        W  129   8.830  30.528  11.576
31657W        W  130  42.839  12.221  10.909
31658W        W  131   6.740  11.702   3.287
31659W        W  132  19.696  34.866   5.112
31660W        W  133  12.280  26.696  12.527
31661W        W  134  14.179  29.021   2.794
31662W        W  135   4.331  28.017  14.407
31663W        W  136  41.361  12.809   2.805
31664W        W  137  33.410  13.201  14.027
31665W        W  138  31.971  26.535   4.339
31666W        W  139  16.653  15.250  14.835
31667W        W  140  29.550  33.919  12.567
31668W        W  141  10.805  30.421  12.924
31669W        W  142  29.923  25.017  13.040
31670W        W  143   8.781  23.203  10.598
31671W        W  144  17.199  11.756   2.389
31672W        W  145  39.478  44.391   2.757
31673W        W  146  21.235   6.736   0.279
31674W        W  147  32.018  19.257   4.225
31675W        W  148   1.866   7.176   2.222
31676W        W  149   2.315   1.857   4.252
31677W        W  150  35.990  35.361   4.828
31678W        W  151  19.232  43.789   0.347
31679W        W  152  27.514   8.236   0.428
31680W        W  153  15.695  25.031  14.426
31681W        W  154   4.243  31.037  13.503
31682W        W  155  19.589  40.039   4.178
31683W        W  156  36.995  19.668  12.085
31684W        W  157   1.898  30.008   3.179
31685W        W  158  15.812  39.471  13.311
31686W        W  159   7.187  41.807   3.216
31687W        W  160  44.010  33.123   4.186
31688W        W  161  26.612  31.968  12.508
31689W        W  162  22.131  41.483   4.649
31690W        W  163  42.790  12.660  11.856
31691W        W  164   9.389   1.388  12.060
31692W        W  165  29.555  31.972   0.309
31693W        W  166  43.409  23.703   3.659
31694W        W  167  25.577  37.423   4.335
31695W        W  168  44.967   8.286  10.552
31696W        W  169   6.914  39.931   4.649
31697W        W  170  14.137   5.932   2.329
31698W        W  171  19.621  32.987   3.738
31699W        W  172  41.847   4.840  11.582
31700W        W  173  33.014  37.910  13.392
31701W        W  174  28.442   8.183   2.283
31702W        W  175  19.597   1.777   4.130
31703W        W  176  17.592  11.649   3.793
31704W        W  177   8.239  25.566   1.715
31705W        W  178  38.016  42.931   3.256
31706W        W  179  10.770  12.618   1.251
31707W        W  180  39.948  35.003  14.426
31708W        W  181  26.064   1.963   0.460
31709W        W  182  12.342  27.977   3.826
31710W        W  183  39.386  31.946  10.966
31711W        W  184  34.992  23.504  10.948
31712W        W  185  44.762   3.250   0.410
31713W        W  186   0.894  29.962   3.702
31714W        W  187   2.367  22.507   2.895
31715W        W  188  31.922  19.173  11.864
31716W        W  189   5.707  43.275   3.732
31717W        W  190  36.046  19.544   2.803
31718W        W  191   9.325  16.318   3.714
31719W        W  192  24.175  40.946  11.408
31720W        W  193  11.622   7.365  12.869
31721W        W  194  27.654  26.527  12.490
31722W        W  195  32.901  30.537  11.443
31723W        W  196  26.469  43.980  14.918
31724W        W  197   0.868  31.618   1.893
31725W        W  198  23.567  23.609  12.877
31726W        W  199  20.180  27.121   1.393
31727W        W  200  44.399  26.035  12.946
31728W        W  201  28.028  10.651  13.341
31729W        W  202  23.543  36.047   1.398
31730W        W  203  18.138  24.559   2.370
31731W        W  204  37.452   6.218  11.422
31732W        W  205  34.058  19.053   1.832
31733W        W  206  26.193   3.879   3.329
31734W        W  207  34.869  25.171   5.175
31735W        W  208  22.629  38.874   0.405
31736W        W  209  33.558   3.407   1.392
31737W        W  210  18.679  34.522  14.429
31738W        W  211   3.334  34.448   4.250
31739W        W  212  19.590  31.630  14.350
31740W        W  213  41.343  25.086  14.896
31741W        W  214  20.266  18.099   2.779
31742W        W  215  30.502  18.265   4.281
31743W        W  216  41.480  38.476  13.799
31744W        W  217  41.959  19.762  14.858
31745W        W  218  20.109  16.277  13.318
31746W        W  219  30.573   7.337   0.448
31747W        W  220  16.127  13.186   4.768
31748W        W  221  43.891  22.550   3.317
31749W        W  222   0.425  12.743   0.883
31750W        W  223  44.473   8.356  14.475
31751W        W  224  26.479   1.454  13.308
31752W        W  225  10.154  38.059  13.002
31753W        W  226  12.646  16.099   1.898
31754W        W  227  28.967  28.974  14.848
31755W        W  228   5.208  38.374   1.837
31756W        W  229   8.305  25.068  11.449
31757W        W  230  34.970  16.785   4.272
31758W        W  231  10.173  26.188   4.234
31759W        W  232  12.245   4.330   0.932
31760W        W  233   6.360   2.278   3.336
31761W        W  234   8.175  43.439  13.501
31762W        W  235   1.902  31.631   0.843
31763W        W  236  26.532  44.804  14.361
31764W        W  237  18.268  36.437   2.229
31765W        W  238  37.839  27.179  10.550
31766W        W  239  30.976   6.701  12.968
31767W        W  240  20.648  41.019   1.219
31768W        W  241   3.784  18.078  14.876
31769W        W  242  33.954  37.508  12.524
31770W        W  243  40.341  36.866  14.455
31771W        W  244  33.606  16.240   4.229
31772W        W  245  12.125  40.418  13.926
31773W        W  246  18.689  16.127   1.703
31774W        W  247  21.050  19.564   3.266
31775W        W  248   1.451  29.472   1.804
31776W        W  249  39.965  19.142  14.837
31777W        W  250  26.186   3.255   4.681
31778W        W  251  33.046   2.295  11.519
31779W        W  252  43.513  33.468   4.134
31780W        W  253   9.818  12.742   3.202
31781W        W  254  27.595   5.400  13.498
31782W        W  255  39.825  38.042   4.657
31783W        W  256  28.492  25.494   4.298
31784W        W  257  24.988  11.158  12.007
31785W        W  258  41.893   6.919   1.320
31786W        W  259   1.407  17.699   2.309
31787W        W  260  20.032  27.507   1.340
31788W        W  261  24.550  19.723   1.396
31789W        W  262  11.248   7.737  12.454
31790W        W  263  44.862  34.427  13.818
31791W        W  264  20.670  37.878   4.672
31792W        W  265  19.128  30.639  14.959
31793W        W  266   9.169  22.553   3.862
31794W        W  267   7.734  22.729  14.937
31795W        W  268  15.306  13.272   2.775
31796W        W  269  21.133  33.884   0.464
31797W        W  270  12.756  36.017  11.863
31798W        W  271  26.177   5.199  13.449
31799W        W  272  42.499  25.992   1.376
31800W        W  273  41.450   1.352   1.820
31801W        W  274  43.783  37.021   2.863
31802W        W  275   5.274  35.870   3.870
31803W        W  276   2.776  11.641  14.780
31804W        W  277  27.691   7.665   4.814
31805W        W  278  27.473  35.405   2.265
31806W        W  279  26.569   3.929   2.830
31807W        W  280  35.563  31.056   4.336
31808W        W  281  38.394  37.970  14.771
31809W        W  282  24.593  30.549   1.875
31810W        W  283  21.089  16.765  12.577
31811W        W  284  35.537  30.524  10.974
31812W        W  285  33.931  28.518  10.417
31813W        W  286   0.340  29.137  10.470
31814W        W  287  13.807  18.193   4.747
31815W        W  288  35.439  27.942  10.890
31816W        W  289  35.469  29.099   3.313
31817W        W  290  41.342   5.872  12.530
31818W        W  291  41.319   6.876   1.425
31819W        W  292   2.466  44.800   4.170
31820W        W  293  38.029  13.694   1.732
31821W        W  294  19.207   7.824  12.834
31822W        W  295  33.101  19.758   0.457
31823W        W  296  37.373   8.859   2.343
31824W        W  297  39.440  22.212  11.545
31825W        W  298   6.895   2.796   4.180
31826W        W  299   0.857  41.899   2.894
31827W        W  300   7.767  32.920   1.285
31828W        W  301  10.792  32.930  13.538
31829W        W  302  22.647  31.612   0.881
31830W        W  303   0.377  37.087   0.806
31831W        W  304  36.958  12.318   3.373
31832W        W  305  43.349  22.555   1.294
31833W        W  306   6.267  14.814   2.867
31834W        W  307  43.851  12.809  13.996
31835W        W  308   1.251  23.016   4.264
31836W        W  309   4.729  26.640  12.079
31837W        W  310   0.295  25.030   5.277
31838W        W  311  17.268  10.767  12.407
31839W        W  312  21.261  15.257   3.192
31840W        W  313  16.663  32.540  10.512
31841W        W  314  25.205  38.560   2.182
31842W        W  315  21.548  25.049   3.169
31843W        W  316   3.298  22.731   3.704
31844W        W  317  44.409   9.768   1.866
31845W        W  318  33.460  24.675   2.314
31846W        W  319  34.045  33.026  10.899
31847W        W  320  40.830  12.826  11.928
31848W        W  321   0.899  17.099  10.539
31849W        W  322  12.704  33.031   4.141
31850W        W  323  33.914  16.231  13.398
31851W        W  324   8.187  25.996   4.234
31852W        W  325  13.326  38.480  11.020
31853W        W  326  29.937   8.782   0.833
31854W        W  327  18.170  22.508   4.302
31855W        W  328  42.850   4.828  11.550
31856W        W  329  24.976  20.123   1.706
31857W        W  330  39.507  19.662  13.879
31858W        W  331   2.937  15.772   1.288
31859W        W  332  21.596   0.868  14.836
31860W        W  333  24.036  14.740   1.397
31861W        W  334  21.592  12.757  12.875
31862W        W  335  31.550   7.692   4.116
31863W        W  336  33.602  20.628   4.779
31864W        W  337  41.990  33.624  14.002
31865W        W  338  19.277  39.379   1.872
31866W        W  339  35.997  15.760  12.581
31867W        W  340  17.617  11.775  10.492
31868W        W  341  24.580   1.882   1.798
31869W        W  342  30.041  25.177  11.530
31870W        W  343   4.714  14.256  13.478
31871W        W  344   3.770   8.189  13.997
31872W        W  345   3.422  35.091  12.946
31873W        W  346   4.841  30.478   4.615
31874W        W  347  24.594  18.141   3.848
31875W        W  348  44.925   9.813  11.445
31876W        W  349  11.354  19.727  10.994
31877W        W  350  42.355  44.837   3.870
31878W        W  351  14.207   2.954   4.651
31879W        W  352   2.318  39.053  11.537
31880W        W  353  17.555   3.431  14.290
31881W        W  354  24.554  36.444   2.391
31882W        W  355  14.216  25.027   3.866
31883W        W  356  40.447  26.123  14.971
31884W        W  357  34.453  35.383   0.393
31885W        W  358  42.909  19.629  14.341
31886W        W  359  33.499   1.422   1.702
31887W        W  360  30.612  19.136  10.586
31888W        W  361   0.275   5.712   1.283
31889W        W  362  37.925  13.253  14.949
31890W        W  363  33.468  20.224   1.385
31891W        W  364   6.876  37.516  14.791
31892W        W  365  40.968   0.280  11.978
31893W        W  366   4.228  40.834   0.732
31894W        W  367   8.391  28.568   2.250
31895W        W  368  28.536   6.873   4.618
31896W        W  369  21.744   2.342   0.423
31897W        W  370  26.068  25.192   2.208
31898W        W  371  33.082  17.627   4.719
31899W        W  372  32.045  26.169   2.897
31900W        W  373  25.070  43.901   0.825
31901W        W  374  28.001  19.081   2.202
31902W        W  375   7.676  27.997   2.188
31903W        W  376   0.376  19.604   3.649
31904W        W  377  36.452  10.347  13.064
31905W        W  378  18.154  23.521   3.155
31906W        W  379  32.489  39.491  11.430
31907W        W  380  12.704  39.366  11.546
31908W        W  381  40.466  28.143  10.618
31909W        W  382   4.833  10.858   2.292
31910W        W  383  44.850  17.199  13.503
31911W        W  384  41.850   6.320  10.937
31912W        W  385  28.165  44.330  12.550
31913W        W  386  33.889  21.584  11.996
31914W        W  387  25.212  41.506  12.946
31915W        W  388   5.810  37.860   0.739
31916W        W  389   8.889  42.315  11.373
31917W        W  390  29.514  38.380   4.216
31918W        W  391   7.271  22.714   0.382
31919W        W  392  19.561  44.920  12.993
31920W        W  393  12.807  36.565   3.220
31921W        W  394  34.382   2.233  13.902
31922W        W  395   9.705  27.586   3.710
31923W        W  396  15.678  40.406  10.452
31924W        W  397   9.329   2.924  12.463
31925W        W  398  11.311  19.737  14.857
31926W        W  399   3.820  20.243  13.493
31927W        W  400   6.427  10.845  10.100
31928W        W  401  25.687  16.770  12.388
31929W        W  402  13.187  17.660  13.008
31930W        W  403  28.513  22.549   4.692
31931W        W  404  27.972  11.164  12.884
31932W        W  405  37.080  16.099   0.337
31933W        W  406   6.372  29.510   4.770
31934W        W  407  32.908  32.938   0.943
31935W        W  408  23.994  25.033  10.893
31936W        W  409   6.749   2.863  13.045
31937W        W  410   6.238   1.835  14.279
31938W        W  411  13.718  20.045   0.732
31939W        W  412  43.018  35.986   3.862
31940W        W  413  31.583   5.920   3.802
31941W        W  414  43.825  22.701   0.867
31942W        W  415   0.349  39.855  13.799
31943W        W  416  35.937  43.339   1.306
31944W        W  417  17.160  13.734   4.186
31945W        W  418   3.741   4.808  10.903
31946W        W  419   2.306  38.885   0.959
31947W        W  420   8.832   1.322   2.678
31948W        W  421  31.511  38.488   2.718
31949W        W  422   5.726  42.465   2.367
31950W        W  423  29.489  25.576   4.195
31951W        W  424  12.746   2.779   1.435
31952W        W  425  26.063   9.383   1.862
31953W        W  426  16.235  13.632   0.780
31954W        W  427   9.318  17.161   3.366
31955W        W  428   3.216  21.091  10.473
31956W        W  429   1.900   5.908   1.771
31957W        W  430   6.261   4.399   4.649
31958W        W  431  35.953  29.469   2.262
31959W        W  432   7.751   2.857   4.654
31960W        W  433  41.821  32.064  12.548
31961W        W  434  34.963  20.622  13.479
31962W        W  435  35.964  29.972  10.416
31963W        W  436  44.306  34.529   2.245
31964W        W  437  20.660  11.128  14.981
31965W        W  438  31.580  37.459  14.914
31966W        W  439  32.918  32.602   0.378
31967W        W  440  36.577  26.203   2.893
31968W        W  441  11.212  17.694  12.421
31969W        W  442  24.662  11.734   1.221
31970W        W  443  17.214  18.188  14.899
31971W        W  444  28.673  21.554  13.914
31972W        W  445  26.062  12.297  14.467
31973W        W  446  27.646   5.436   2.870
31974W        W  447  15.819  20.592  12.974
31975W        W  448  32.520  30.492  11.991
31976W        W  449  19.260  19.631  10.545
31977W        W  450   3.806  15.646   3.193
31978W        W  451  13.146  17.195  13.405
31979W        W  452  11.685   2.235   2.831
31980W        W  453  42.907  32.125   3.678
31981W        W  454   0.295  26.494   9.920
31982W        W  455  30.531  14.128   0.299
31983W        W  456  36.349  17.671   0.930
31984W        W  457   0.978   1.345   1.444
31985W        W  458  28.469  19.555   2.701
31986W        W  459  22.570  43.472   4.193
31987W        W  460  32.398  11.161   4.663
31988W        W  461  26.086  32.942   3.213
31989W        W  462  32.907  18.569  14.430
31990W        W  463   3.367  22.657   3.172
31991W        W  464  41.414  10.315   4.612
31992W        W  465   6.332  20.103  14.010
31993W        W  466  43.795  18.630   4.749
31994W        W  467  28.446  11.173   1.788
31995W        W  468  36.397  24.660   1.910
31996W        W  469  18.619   4.228   4.307
31997W        W  470  16.729   8.194  12.974
31998W        W  471   4.727  25.976  12.986
31999W        W  472  23.691  36.422  13.925
32000W        W  473  38.870   3.331   3.805
32001W        W  474  29.056  25.039  14.412
32002W        W  475  13.244  37.414   2.325
32003W        W  476  41.358  18.241   0.455
32004W        W  477  27.581   1.406   3.270
32005W        W  478  39.482  12.684   2.257
32006W        W  479  19.075   5.311   1.262
32007W        W  480  22.220  14.631   4.668
32008W        W  481  39.920  43.336  12.348
32009W        W  482  14.327   7.698   2.221
32010W        W  483   3.788  11.320  11.411
32011W        W  484   8.702   0.934  11.970
32012W        W  485  25.154   3.276  10.157
32013W        W  486  38.878   4.389  14.766
32014W        W  487   0.984   7.249  14.504
32015W        W  488  25.107  18.263  10.962
32016W        W  489  22.226   1.835  11.926
32017W        W  490  41.845  33.096   3.653
32018W        W  491  25.090  28.655  13.344
32019W        W  492  44.435  22.224  14.394
32020W        W  493  40.495  13.226   2.194
32021W        W  494  43.810   4.791   2.331
32022W        W  495  11.666  43.784  13.453
32023W        W  496  12.192  33.092   4.668
32024W        W  497   1.352  31.133   3.681
32025W        W  498  20.174  36.452   4.826
32026W        W  499  16.224  37.378   2.294
32027W        W  500  16.157  42.952   4.654
32028W        W  501  41.336  36.964  12.420
32029W        W  502  25.648   3.345  10.911
32030W        W  503  26.505  15.595  13.000
32031W        W  504  26.189  41.424  11.057
32032W        W  505  27.955  16.169   2.680
32033W        W  506   9.294  31.084   0.805
32034W        W  507  13.713   3.805  14.450
32035W        W  508   1.738  30.945  13.048
32036W        W  509  40.454  34.423  12.433
32037W        W  510  17.728  36.430  10.599
32038W        W  511  12.741  10.244   3.679
32039W        W  512  31.570  14.182   1.284
32040W        W  513  32.575  37.990   3.301
32041W        W  514  36.882  30.654  12.009
32042W        W  515  30.949  20.101  14.791
32043W        W  516   9.250   6.359   1.861
32044W        W  517  24.015  25.971  12.049
32045W        W  518  25.039  11.833   1.263
32046W        W  519   8.878  16.241   0.323
32047W        W  520  38.347  40.845  11.970
32048W        W  521  23.183   8.347   2.418
32049W        W  522  25.129   9.715   2.225
32050W        W  523   5.403   9.823  11.375
32051W        W  524   2.786  27.616  13.453
32052W        W  525  35.983  13.828   2.187
32053W        W  526  21.110  13.232  11.016
32054W        W  527   9.255  33.610   0.820
32055W        W  528  17.688   3.926   3.260
32056W        W  529  33.457  33.922   3.758
32057W        W  530  22.220  44.441   4.838
32058W        W  531  27.585  10.303   1.407
32059W        W  532   5.832  14.251   0.901
32060W        W  533   9.800   8.221  13.399
32061W        W  534  22.631  39.502   4.641
32062W        W  535  11.710  33.023   4.279
32063W        W  536  43.814  43.500   2.299
32064W        W  537  42.307   7.252  12.343
32065W        W  538   7.697  44.941   4.621
32066W        W  539   5.284  38.959  12.831
32067W        W  540  12.209  10.316   0.325
32068W        W  541  10.728  37.440  13.815
32069W        W  542   8.710  39.878   2.268
32070W        W  543  32.025  20.219   3.654
32071W        W  544  41.443  24.999  14.020
32072W        W  545   5.282  41.860   3.862
32073W        W  546   0.771   6.364   2.232
32074W        W  547  37.448  17.259  13.459
32075W        W  548  12.184  14.610   4.798
32076W        W  549  29.526  23.119   4.608
32077W        W  550  34.081  24.016   2.393
32078W        W  551  44.398  24.008  10.420
32079W        W  552   6.723  15.759  14.799
32080W        W  553  13.205  15.164  13.332
32081W        W  554  32.142  15.604   1.243
32082W        W  555   0.343  24.983   2.214
32083W        W  556  37.540  31.456  10.921
32084W        W  557  32.930  19.108   0.817
32085W        W  558   0.288  31.627   3.221
32086W        W  559  32.529  16.286  12.853
32087W        W  560  15.824  23.114   3.809
32088W        W  561  31.923  30.564   2.727
32089W        W  562   5.755   5.719  12.000
32090W        W  563  22.034  36.053  13.307
32091W        W  564  40.893  44.399   0.283
32092W        W  565  33.064  11.708   1.295
32093W        W  566  43.456   4.871  12.533
32094W        W  567  33.123  27.027   1.421
32095W        W  568  38.435  14.789  13.855
32096W        W  569  22.724  17.556  10.934
32097W        W  570   3.300   3.226  11.612
32098W        W  571   1.759  30.019   0.895
32099W        W  572   4.843   4.240  13.522
32100W        W  573   5.220  34.380  12.388
32101W        W  574  29.436  38.851   3.748
32102W        W  575  16.279  11.335   3.345
32103W        W  576  41.926  14.790  11.858
32104W        W  577   1.360  21.168  14.010
32105W        W  578  22.043  24.013   2.700
32106W        W  579  23.620   7.754  10.508
32107W        W  580  21.691  33.456   3.813
32108W        W  581  40.948  18.125   1.259
32109W        W  582  20.113  24.522   0.898
32110W        W  583  23.665  40.395   1.867
32111W        W  584  14.782  39.026   0.776
32112W        W  585  26.985  31.432   2.397
32113W        W  586  25.599  37.071   3.331
32114W        W  587  37.863  36.568   3.192
32115W        W  588  18.751  31.056  12.971
32116W        W  589  13.817  21.601  12.360
32117W        W  590  14.823  44.783  11.883
32118W        W  591  23.002  27.543   4.331
32119W        W  592   0.402  25.562  11.003
32120W        W  593  26.162  12.837  13.436
32121W        W  594  34.050  24.644   3.304
32122W        W  595  18.157  43.800  12.399
32123W        W  596  11.764  30.602   0.392
32124W        W  597  41.980  39.020  12.959
32125W        W  598   4.423  10.795   4.608
32126W        W  599  24.499  42.391   4.135
32127W        W  600  21.061  41.523   3.635
32128W        W  601  19.656  17.708   1.267
32129W        W  602  12.267  26.459  13.946
32130W        W  603  42.025  36.456   1.381
32131W        W  604  43.511   7.817   3.781
32132W        W  605  13.161  27.610   4.775
32133W        W  606  33.615   7.814   3.790
32134W        W  607  36.349  34.572  13.494
32135W        W  608  23.100  36.558  11.885
32136W        W  609  22.042  40.484   4.706
32137W        W  610  28.076  42.785  13.004
32138W        W  611   3.894  33.955  14.776
32139W        W  612   9.318   9.850   1.874
32140W        W  613  38.060   9.829   2.378
32141W        W  614  35.914  34.430   4.287
32142W        W  615  19.753   1.832  12.554
32143W        W  616  41.879  34.019   4.317
32144W        W  617  17.225   9.791  11.422
32145W        W  618  23.209  14.705   5.642
32146W        W  619  27.166   6.891  12.917
32147W        W  620  15.670  34.375  14.846
32148W        W  621   6.389   6.777   4.604
32149W        W  622  13.222   9.216   3.674
32150W        W  623  16.203  18.773  12.971
32151W        W  624   7.226  27.569  14.880
32152W        W  625  14.816  33.504   0.418
32153W        W  626   7.333  34.482  10.927
32154W        W  627   8.757  20.080  12.003
32155W        W  628  11.753  13.720   4.260
32156W        W  629  32.589   3.809  14.390
32157W        W  630   0.446  35.382  13.408
32158W        W  631  20.709   4.206  13.810
32159W        W  632  25.166  37.423  12.514
32160W        W  633   3.423   8.201  14.920
32161W        W  634  30.913  40.953   4.154
32162W        W  635  11.132   0.978   0.807
32163W        W  636  16.113  27.094   2.832
32164W        W  637  18.666  34.592   2.350
32165W        W  638  39.063  22.067  11.444
32166W        W  639  25.136   5.386  14.765
32167W        W  640  27.145  28.930  10.088
32168W        W  641  43.908  18.622  13.396
32169W        W  642   8.297   5.721  11.374
32170W        W  643  42.448   4.388   1.868
32171W        W  644  26.673  15.108  12.524
32172W        W  645  34.070  44.288   9.944
32173W        W  646  18.294  24.578  12.833
32174W        W  647   1.975   6.322  12.444
32175W        W  648  10.854  37.021   2.335
32176W        W  649  34.907  40.385   2.802
32177W        W  650  31.467  28.657   4.286
32178W        W  651  21.581  35.364   0.878
32179W        W  652  40.974   1.875   4.343
32180W        W  653   0.882   2.848  13.959
32181W        W  654   2.727  44.305   3.151
32182W        W  655  24.578  15.228  12.901
32183W        W  656  41.473   9.691   3.784
32184W        W  657  21.094  37.940  14.297
32185W        W  658  35.075  11.296   0.280
32186W        W  659  43.919  38.377   1.323
32187W        W  660   6.413  12.856  10.008
32188W        W  661   9.852   4.246  13.008
32189W        W  662  30.414  21.102   2.208
32190W        W  663  38.862  41.899   2.851
32191W        W  664   5.877  36.412   3.349
32192W        W  665  35.541  17.663   0.339
32193W        W  666  31.019   0.764   1.759
32194W        W  667   4.845   5.721   5.194
32195W        W  668  27.039  27.603  11.385
32196W        W  669   5.874   4.336  14.949
32197W        W  670  10.334  11.187  14.996
32198W        W  671   0.952   5.399  11.897
32199W        W  672   1.763  36.926   1.889
32200W        W  673  42.394  35.529  12.403
32201W        W  674  14.143  30.624   4.193
32202W        W  675  28.471  17.206   2.348
32203W        W  676  32.452  12.194   0.923
32204W        W  677  34.948  17.768   2.416
32205W        W  678  41.316  24.107  13.521
32206W        W  679  39.039  33.023  14.285
32207W        W  680   1.273  32.403  14.396
32208W        W  681  20.159  17.278  10.602
32209W        W  682   3.752  22.217   0.945
32210W        W  683  19.194   0.285  14.828
32211W        W  684  10.719   7.404   0.906
32212W        W  685  35.884   1.468   2.308
32213W        W  686  32.459  30.131   3.226
32214W        W  687  26.177  36.926  12.977
32215W        W  688  18.588  29.491   0.846
32216W        W  689  33.543   0.350   3.229
32217W        W  690  37.452  11.241   4.167
32218W        W  691  30.067  38.864   1.275
32219W        W  692   7.773   7.228   2.201
32220W        W  693  38.416   6.825   3.210
32221W        W  694  18.226  13.837   0.818
32222W        W  695  37.509  17.298  11.609
32223W        W  696  11.683  27.166  11.871
32224W        W  697   6.739  25.503   0.740
32225W        W  698  44.477  27.085  10.425
32226W        W  699  42.448  18.735  12.467
32227W        W  700  41.805   1.836   2.763
32228W        W  701  12.265  40.401   3.291
32229W        W  702   4.328  34.566   0.904
32230W        W  703  38.461  22.106   3.841
32231W        W  704   8.755  31.137  11.037
32232W        W  705  15.256  36.548   2.876
32233W        W  706  39.949  11.188   4.275
32234W        W  707  12.657  22.093  13.506
32235W        W  708   7.829  20.751  12.904
32236W        W  709   6.277  21.650  11.567
32237W        W  710   2.859  19.241  11.961
32238W        W  711   8.193  44.881   0.863
32239W        W  712  24.650  37.914  10.508
32240W        W  713  21.029  17.731   0.378
32241W        W  714   1.311  31.984  11.515
32242W        W  715  20.248  38.071   3.307
32243W        W  716  30.160  42.413   3.696
32244W        W  717  28.445  20.210  12.341
32245W        W  718  13.329  41.357   3.260
32246W        W  719   4.247  24.596   4.639
32247W        W  720  22.600  29.083   3.835
32248W        W  721  20.167  19.245  12.422
32249W        W  722  33.495  17.775   9.966
32250W        W  723  40.430  13.846  11.072
32251W        W  724  14.107  40.911   0.862
32252W        W  725  19.069  22.121  13.921
32253W        W  726  35.917   9.782   1.237
32254W        W  727   4.352  15.101   0.445
32255W        W  728  39.934  19.652   2.380
32256W        W  729  24.060  17.203   4.771
32257W        W  730  43.385  20.718  14.445
32258W        W  731  32.092  30.105   1.446
32259W        W  732  25.555  14.743   1.387
32260W        W  733  29.941  23.658   0.897
32261W        W  734  28.000   1.777  12.972
32262W        W  735  44.778  35.852  12.911
32263W        W  736  12.142  40.955   3.718
32264W        W  737   1.252   1.810   1.882
32265W        W  738  34.007   8.267  13.000
32266W        W  739  43.358  27.081  13.542
32267W        W  740  41.363  29.594  10.416
32268W        W  741  28.004  30.076   4.157
32269W        W  742  39.918  31.501   4.331
32270W        W  743  35.095  39.814  13.841
32271W        W  744  43.414  19.079   1.217
32272W        W  745  41.814  33.909   1.248
32273W        W  746   7.311  23.602  12.908
32274W        W  747  42.787  38.969   2.669
32275W        W  748  30.445  44.834   3.797
32276W        W  749   7.222  12.776   3.709
32277W        W  750   4.727  16.748   4.770
32278W        W  751  37.012   4.420   0.462
32279W        W  752   1.879  18.219   2.793
32280W        W  753  15.687  23.601   3.858
32281W        W  754  24.012   7.674   0.783
32282W        W  755  29.431  25.502   2.368
32283W        W  756  36.422  11.164   4.652
32284W        W  757   4.448  21.105  12.383
32285W        W  758   3.264  23.107   4.649
32286W        W  759  32.092  39.922   3.780
32287W        W  760  28.013  30.926   3.153
32288W        W  761   5.818  40.922  13.029
32289W        W  762   5.249   8.844  14.453
32290W        W  763  17.182   2.266  10.435
32291W        W  764   9.231  29.565   1.786
32292W        W  765   5.352  38.998   0.425
32293W        W  766  12.765   4.766   3.722
32294W        W  767  30.620  25.049  13.925
32295W        W  768  21.516  21.608   3.710
32296W        W  769   9.735  34.591  14.940
32297W        W  770   3.343  40.036   0.285
32298W        W  771   2.404  30.935   3.833
32299W        W  772  32.572   1.761   2.271
32300W        W  773  39.014  43.385   0.291
32301W        W  774  41.910  23.168   3.810
32302W        W  775   5.223   6.339   1.882
32303W        W  776   4.319   5.728  14.422
32304W        W  777  31.979  34.580  13.538
32305W        W  778  41.426  42.429   3.656
32306W        W  779  27.600   9.852   3.325
32307W        W  780  31.057  41.817   2.738
32308W        W  781  33.382  21.036   3.292
32309W        W  782  29.641   9.308   0.248
32310W        W  783  12.621  11.129   2.866
32311W        W  784  12.178   5.848   1.700
32312W        W  785  16.211  10.277  11.399
32313W        W  786  38.418   0.427   3.717
32314W        W  787   0.863   5.690  14.340
32315W        W  788   3.278  38.495  14.457
32316W        W  789  44.773  31.524   4.249
32317W        W  790  29.663   2.868  10.914
32318W        W  791  38.474  39.462  14.492
32319W        W  792  40.370   4.258   0.964
32320W        W  793  15.114  39.327   1.755
32321W        W  794  36.869   5.701   1.237
32322W        W  795  40.386  22.106   3.250
32323W        W  796  16.678  11.758  14.807
32324W        W  797  24.072  14.215  11.514
32325W        W  798   3.912  25.573   3.177
32326W        W  799  35.952  26.088   0.826
32327W        W  800  23.065  30.563   1.781
32328W        W  801  11.273   2.962   4.207
32329W        W  802  32.886   5.379  11.405
32330W        W  803   1.263  32.498  11.960
32331W        W  804  25.524  19.749  14.424
32332W        W  805   1.844  20.535   3.230
32333W        W  806  23.058   5.224  10.619
32334W        W  807  12.218   6.291  14.812
32335W        W  808  35.454   4.920   1.333
32336W        W  809  12.682   4.833   0.423
32337W        W  810   5.329  20.117   3.330
32338W        W  811  28.467   6.249   3.371
32339W        W  812   2.244  15.310   0.446
32340W        W  813  20.649   7.717   2.778
32341W        W  814  14.668   5.321   1.361
32342W        W  815  40.477  22.534   0.917
32343W        W  816  31.002  44.320   3.787
32344W        W  817   5.197   5.691  10.465
32345W        W  818  13.740  13.327   1.784
32346W        W  819  26.503   6.425  13.497
32347W        W  820   2.764  21.558   4.795
32348W        W  821  25.027   8.192   2.236
32349W        W  822   1.308  32.548   3.863
32350W        W  823  15.209   0.982  13.059
32351W        W  824   5.825   8.287   4.791
32352W        W  825  44.284  30.412  12.962
32353W        W  826  38.571  42.924   1.849
32354W        W  827  43.422   4.832   2.720
32355W        W  828  43.981  15.718   0.436
32356W        W  829  35.480  30.151  11.117
32357W        W  830  42.032  39.509   2.857
32358W        W  831   5.297  13.844  11.858
32359W        W  832   8.780  18.729  12.843
32360W        W  833  44.983  26.680   2.769
32361W        W  834  18.094  30.092   1.240
32362W        W  835  10.339  24.603   3.675
32363W        W  836   6.703  19.079   2.672
32364W        W  837  40.370   7.327  12.495
32365W        W  838   7.784  33.469  11.918
32366W        W  839   8.819  19.104   0.313
32367W        W  840  29.560  21.021  13.357
32368W        W  841  32.976  24.491   0.362
32369W        W  842   9.854  10.806   4.750
32370W        W  843  43.402  23.616   0.851
32371W        W  844  29.476  20.757  10.589
32372W        W  845  32.497  10.689  12.867
32373W        W  846  44.419  21.523  12.550
32374W        W  847   7.762  35.094  14.905
32375W        W  848   9.685  30.119   4.258
32376W        W  849  11.353  37.063  11.129
32377W        W  850   9.834  12.821  14.965
32378W        W  851  13.117  35.856   0.417
32379W        W  852  17.793   5.333  14.898
32380W        W  853   4.772  17.563   2.853
32381W        W  854  29.670  16.601  11.902
32382W        W  855  33.395  23.043  10.641
32383W        W  856   6.213  32.065   0.343
32384W        W  857  33.974   4.221  14.916
32385W        W  858   1.446   2.281   3.230
32386W        W  859  11.131  23.642   0.770
32387W        W  860  14.639  12.851   0.299
32388W        W  861  39.031  25.185   4.183
32389W        W  862  26.153   9.759  13.503
32390W        W  863  41.409  28.996  13.825
32391W        W  864  19.157  14.671   3.822
32392W        W  865  20.039  41.960   4.162
32393W        W  866  10.372  42.810  10.462
32394W        W  867  22.505  37.370  10.613
32395W        W  868  19.724  11.166  10.554
32396W        W  869  32.614  43.841   4.618
32397W        W  870  29.559  12.218   0.949
32398W        W  871  11.667   4.824   3.714
32399W        W  872  13.303  17.161  11.544
32400W        W  873   6.793   5.704  13.054
32401W        W  874  39.886  29.113   3.329
32402W        W  875   8.348  38.042   4.346
32403W        W  876  21.517   5.376   2.179
32404W        W  877  40.922  38.397   4.715
32405W        W  878   4.237   4.911   0.821
32406W        W  879  41.908  20.190   0.458
32407W        W  880  24.021  17.655   4.145
32408W        W  881   3.458  44.326   1.781
32409W        W  882  22.520  23.496  14.344
32410W        W  883  38.984   6.827  13.398
32411W        W  884  17.581  43.934   3.373
32412W        W  885   5.924  15.743   9.940
32413W        W  886  22.121  42.776   4.199
32414W        W  887  10.682   1.406  14.813
32415W        W  888  31.137  12.190   3.276
32416W        W  889  31.619  37.570   1.220
32417W        W  890  38.539   4.372  12.880
32418W        W  891  25.116   5.859  10.904
32419W        W  892  13.188  32.024  10.099
32420W        W  893  16.694  22.232  13.863
32421W        W  894  25.165  38.888  10.494
32422W        W  895  11.271  40.415   1.931
32423W        W  896  24.111   8.718  14.292
32424W        W  897  25.618  17.684  14.924
32425W        W  898  44.501  30.101   0.385
32426W        W  899  10.661  10.308   4.141
32427W        W  900  23.496  18.774   4.617
32428W        W  901  37.962  41.921   2.813
32429W        W  902  14.153   6.698   4.765
32430W        W  903   3.840  34.473   2.415
32431W        W  904  36.554  25.469   2.370
32432W        W  905  32.027  20.177   4.297
32433W        W  906  11.645  19.707  11.898
32434W        W  907   4.925   9.736   3.831
32435W        W  908  19.216  22.174  11.400
32436W        W  909  41.999  38.890   2.831
32437W        W  910  28.529  43.473   2.823
32438W        W  911  44.493  42.283   4.212
32439W        W  912  19.699  42.785   2.887
32440W        W  913  16.190   8.739  11.076
32441W        W  914  41.424   8.240  11.120
32442W        W  915  22.055  20.267  11.870
32443W        W  916   8.278  18.742  11.881
32444W        W  917  10.836  32.464  13.795
32445W        W  918   3.238  37.832   2.743
32446W        W  919  23.013  36.444  12.400
32447W        W  920  32.487   8.721   2.731
32448W        W  921   3.337  23.114   2.325
32449W        W  922   3.364  15.257   5.086
32450W        W  923  30.540  18.708   2.408
32451W        W  924  44.984  10.219  11.070
32452W        W  925  24.149  14.742   4.259
32453W        W  926  32.060   8.689  10.521
32454W        W  927   3.824  27.691   4.286
32455W        W  928   6.677  30.600   4.763
32456W        W  929  36.062  25.967   0.243
32457W        W  930   5.422  33.395   0.315
32458W        W  931  38.528  43.773   4.286
32459W        W  932  24.215  34.493  10.987
32460W        W  933  40.851  14.195  11.551
32461W        W  934   7.856  21.152  10.068
32462W        W  935  28.504  18.714   3.759
32463W        W  936  13.832  27.650  11.495
32464W        W  937  20.125  31.141  11.480
32465W        W  938  26.699   1.969  10.023
32466W        W  939   2.938  32.477  13.456
32467W        W  940  14.617   1.879  13.535
32468W        W  941  35.928  23.142   3.769
32469W        W  942  30.574  12.178   2.715
32470W        W  943  26.053  35.965  14.831
32471W        W  944  22.645  13.274   1.379
32472W        W  945   8.392  39.033   1.711
32473W        W  946   8.222  21.200  14.776
32474W        W  947  39.849  29.475   3.237
32475W        W  948  11.780  41.447   2.314
32476W        W  949  12.689  27.520   0.314
32477W        W  950   8.262  40.913  14.896
32478W        W  951  17.678   1.400   4.205
32479W        W  952  20.760  25.544   0.351
32480W        W  953   0.352  17.582   4.176
32481W        W  954  41.864  11.357  14.306
32482W        W  955  31.573  26.195   3.219
32483W        W  956  33.434  11.189   1.313
32484W        W  957  10.200  38.494  14.774
32485W        W  958  42.897   0.316  10.449
32486W        W  959   3.261   5.714   2.390
32487W        W  960  11.323  41.403  12.833
32488W        W  961  40.545  27.521   2.856
32489W        W  962  12.801  24.484  14.478
32490W        W  963  34.923  20.161  13.058
32491W        W  964  24.121  32.093   4.663
32492W        W  965  25.049  22.998  10.537
32493W        W  966  30.917  23.995   4.188
32494W        W  967  31.418  20.686   1.920
32495W        W  968  17.070  33.926   3.799
32496W        W  969   8.334   9.770  12.376
32497W        W  970  13.672  26.589   3.343
32498W        W  971   2.396  42.354  13.875
32499W        W  972  32.113  43.483  13.878
32500W        W  973  26.652   5.923   4.268
32501W        W  974  35.046  25.520   1.414
32502W        W  975  37.862  22.628  13.953
32503W        W  976  43.947  30.507  13.046
32504W        W  977   1.896  13.804  11.976
32505W        W  978  40.940  40.053   0.863
32506W        W  979  39.492  14.166   4.777
32507W        W  980  25.214  41.001   3.856
32508W        W  981  28.599   0.865   4.680
32509W        W  982   8.815  42.014  12.067
32510W        W  983  16.675  33.124   1.833
32511W        W  984  38.425  10.307  11.525
32512W        W  985   4.924  37.969  14.478
32513W        W  986  27.571  23.698   2.889
32514W        W  987  22.608  11.641  12.424
32515W        W  988   8.828  24.092  12.382
32516W        W  989  29.031  11.639   0.334
32517W        W  990  34.990  27.509  10.612
32518W        W  991  20.097  40.350   9.961
32519W        W  992   4.401  20.550  14.315
32520W        W  993   0.823   8.384  14.948
32521W        W  994  32.574  10.219   4.281
32522W        W  995  23.086  29.999   3.238
32523W        W  996   5.201  32.058   2.762
32524W        W  997  18.163  30.429  11.498
32525W        W  998  10.216  25.692  11.558
32526W        W  999  42.999   8.892   2.716
32527W        W 1000  31.557  36.384   1.836
32528W        W 1001  27.067  28.160  14.002
32529W        W 1002  35.393   5.219  13.447
32530W        W 1003   1.412  16.194   2.387
32531W        W 1004   3.406  11.657  11.536
32532W        W 1005  37.338  44.943  11.487
32533W        W 1006  24.175  40.994   2.206
32534W        W 1007  42.482  22.188   0.277
32535W        W 1008   9.233  44.295  11.399
32536W        W 1009  26.092  41.988   0.281
32537W        W 1010  40.396   4.357  11.010
32538W        W 1011  32.637  41.349   5.708
32539W        W 1012  26.630  21.541  11.548
32540W        W 1013  11.351  32.019   0.795
32541W        W 1014  31.913  20.764  11.560
32542W        W 1015  32.956  42.816   1.336
32543W        W 1016  39.870   8.665  11.087
32544W        W 1017   2.965   2.928   1.244
32545W        W 1018   5.759  17.169   0.335
32546W        W 1019  11.854  14.138  14.452
32547W        W 1020   3.715  39.899  14.360
32548W        W 1021  33.916  15.808   0.771
32549W        W 1022  24.213  38.871   5.226
32550W        W 1023  27.685  39.995  12.387
32551W        W 1024  42.776  18.247  10.147
32552W        W 1025   2.235  43.014   0.819
32553W        W 1026  12.299  13.658  12.904
32554W        W 1027  37.458  22.161  10.046
32555W        W 1028  21.233   6.869  14.001
32556W        W 1029  25.015  43.834  14.965
32557W        W 1030  11.363  11.370  12.031
32558W        W 1031  18.202   8.180   2.835
32559W        W 1032  43.885   1.863   4.705
32560W        W 1033  35.378  26.531  11.090
32561W        W 1034  10.681  35.050  11.916
32562W        W 1035  15.709  41.865  13.873
32563W        W 1036  17.743  12.179  11.918
32564W        W 1037  17.120  32.978  13.460
32565W        W 1038  28.126  27.590  14.287
32566W        W 1039   0.303  13.639  10.455
32567W        W 1040  16.179  16.615   4.611
32568W        W 1041  16.111  16.193  11.979
32569W        W 1042  24.691  34.076  13.354
32570W        W 1043  35.923  35.484  13.313
32571W        W 1044  13.107  29.539   3.699
32572W        W 1045  11.179  35.919   1.818
32573W        W 1046  38.823  21.087   1.762
32574W        W 1047  27.089  31.005   1.212
32575W        W 1048  35.885   9.207  11.890
32576W        W 1049   0.471  15.808   0.273
32577W        W 1050   0.930  17.732   1.769
32578W        W 1051  32.042  38.487  10.444
32579W        W 1052  14.807  15.678   4.812
32580W        W 1053  17.121   9.208   0.373
32581W        W 1054   9.313  36.021  12.425
32582W        W 1055  21.176   1.253   1.215
32583W        W 1056  12.804  23.052  10.506
32584W        W 1057   0.942   8.701   2.407
32585W        W 1058  23.081   8.280  13.421
32586W        W 1059   7.858   4.344   1.897
32587W        W 1060  23.204   9.333   3.383
32588W        W 1061  31.462   6.868   2.667
32589W        W 1062  15.218  10.365  10.022
32590W        W 1063  40.979  39.544   1.425
32591W        W 1064  29.042  31.539  10.465
32592W        W 1065  32.899  16.211   0.941
32593W        W 1066  36.960  15.200  12.088
32594W        W 1067  15.819  21.531   4.168
32595W        W 1068  39.966  28.119   3.752
32596W        W 1069  22.617  38.418  13.844
32597W        W 1070  20.569  19.754   2.738
32598W        W 1071  30.518  29.990  12.070
32599W        W 1072  21.720   3.233  11.877
32600W        W 1073  34.583  25.604   2.736
32601W        W 1074  18.277  43.442  11.417
32602W        W 1075  32.477  40.942   0.944
32603W        W 1076  16.659  25.044   3.175
32604W        W 1077  43.360  29.012  14.395
32605W        W 1078   2.903  17.712   1.283
32606W        W 1079   3.797  27.087  11.418
32607W        W 1080  30.106  33.129  14.815
32608W        W 1081  27.196   9.341   4.758
32609W        W 1082  17.587  21.086  14.354
32610W        W 1083  24.504  21.607   4.674
32611W        W 1084  16.310  37.559  12.548
32612W        W 1085   1.978  43.776   4.310
32613W        W 1086  23.166  44.320  10.558
32614W        W 1087  35.865  39.502   4.117
32615W        W 1088  38.999  39.059   2.801
32616W        W 1089   7.201  28.555  13.362
32617W        W 1090  20.609  44.780   4.285
32618W        W 1091   4.736  14.236  11.497
32619W        W 1092  24.098  29.961  11.538
32620W        W 1093  36.952  24.128   4.161
32621W        W 1094   9.745   5.755  14.385
32622W        W 1095   4.407  27.501   3.376
32623W        W 1096   3.789  43.417   1.417
32624W        W 1097   2.888   6.771   1.798
32625W        W 1098  37.497   3.358   4.354
32626W        W 1099  35.434   6.233  13.539
32627W        W 1100  43.944   3.827  11.007
32628W        W 1101   2.319  22.015   4.763
32629W        W 1102  25.667   8.760  10.477
32630W        W 1103  21.131   2.342   4.765
32631W        W 1104  40.510  19.758   4.729
32632W        W 1105  37.024  27.972  14.940
32633W        W 1106  13.221  28.654  13.386
32634W        W 1107  10.266  33.926   9.518
32635W        W 1108   4.780  10.355  11.973
32636W        W 1109   3.944  10.821  12.915
32637W        W 1110  41.896  21.600   2.705
32638W        W 1111  37.893  30.558  14.842
32639W        W 1112  16.207  41.368   0.795
32640W        W 1113  41.903  20.743   0.441
32641W        W 1114  41.991  41.959   3.222
32642W        W 1115   9.653  36.482  12.558
32643W        W 1116   2.761  25.579  12.087
32644W        W 1117  15.171  10.826  11.128
32645W        W 1118  18.770  18.102  13.917
32646W        W 1119  30.554   4.285  10.440
32647W        W 1120  20.214  22.138   4.712
32648W        W 1121  41.876  10.149  11.382
32649W        W 1122  29.004  25.544   9.650
32650W        W 1123   7.825   1.848   1.423
32651W        W 1124   6.861  23.659   2.272
32652W        W 1125  42.497  41.028  12.920
32653W        W 1126  38.356  14.296  11.118
32654W        W 1127  37.849   0.435   3.208
32655W        W 1128  27.013  34.096  13.314
32656W        W 1129  15.587   6.866   4.329
32657W        W 1130   6.267  40.920  13.544
32658W        W 1131  40.487  21.140   5.238
32659W        W 1132   1.241   9.334   4.794
32660W        W 1133   4.893  20.764   4.331
32661W        W 1134   8.319   2.909   3.852
32662W        W 1135  37.069  43.844   1.298
32663W        W 1136  18.243  23.718  11.935
32664W        W 1137  16.632  13.158  10.956
32665W        W 1138  30.501  19.710   3.348
32666W        W 1139   3.726   3.232   1.275
32667W        W 1140  11.264  18.733  14.374
32668W        W 1141  33.070  30.521  14.983
32669W        W 1142  39.014  10.228  10.084
32670W        W 1143  42.293  16.192  11.012
32671W        W 1144  33.548   5.814   3.763
32672W        W 1145  15.186  25.080  10.507
32673W        W 1146  34.533  33.015   2.772
32674W        W 1147  41.992  17.196  11.557
32675W        W 1148  44.813  44.821   4.759
32676W        W 1149  20.650  28.438  10.937
32677W        W 1150  14.198  37.046  13.348
32678W        W 1151  40.484   3.765  14.467
32679W        W 1152  30.965  44.993  10.430
32680W        W 1153  33.515   3.362  14.364
32681W        W 1154  10.677   8.169   4.140
32682W        W 1155   1.882   9.213   4.754
32683W        W 1156  41.423   7.860   0.309
32684W        W 1157  28.499  40.445  14.954
32685W        W 1158  37.998  36.087  11.017
32686W        W 1159   8.363  29.977   3.806
32687W        W 1160  31.084  44.355  13.873
32688W        W 1161  15.317  37.576  13.842
32689W        W 1162  13.761  20.041   2.386
32690W        W 1163  34.477  14.117  13.838
32691W        W 1164   4.885  14.111   5.289
32692W        W 1165  31.028  33.492   1.380
32693W        W 1166   5.370  43.467  11.066
32694W        W 1167   6.783  19.703   4.140
32695W        W 1168  34.055   7.172  13.056
32696W        W 1169  30.657  12.792  13.373
32697W        W 1170  40.994  19.652  11.064
32698W        W 1171  24.041  27.529  14.445
32699W        W 1172  33.385  35.964   0.446
32700W        W 1173  17.801  13.611  11.089
32701W        W 1174  22.024  30.629   1.248
32702W        W 1175  22.050  37.018  14.823
32703W        W 1176  43.353  27.003   2.763
32704W        W 1177  28.527  40.003  14.806
32705W        W 1178  25.027   1.410  11.586
32706W        W 1179  15.601  21.683  10.963
32707W        W 1180  33.594  23.156   4.646
32708W        W 1181  14.228   7.896   0.315
32709W        W 1182   8.202  44.335   1.875
32710W        W 1183   1.400   9.293   0.864
32711W        W 1184  26.008  42.850  10.973
32712W        W 1185  20.062  43.969  13.880
32713W        W 1186  21.732  42.318   0.918
32714W        W 1187  38.877  35.050   2.705
32715W        W 1188  33.448  15.736   1.284
32716W        W 1189  36.938   8.847   3.817
32717W        W 1190  33.625  36.077   4.600
32718W        W 1191  18.580  25.610  13.904
32719W        W 1192  39.843  32.094   0.860
32720W        W 1193  28.002  26.157   1.221
32721W        W 1194  36.044   4.718  11.599
32722W        W 1195  23.548  26.646   1.399
32723W        W 1196  40.049  44.930   4.271
32724W        W 1197  36.936  15.218  11.064
32725W        W 1198   1.243   4.756   0.257
32726W        W 1199  28.084  43.804  11.923
32727W        W 1200  20.546  11.622  14.928
32728W        W 1201  16.696  38.841   2.261
32729W        W 1202  43.381   1.739  12.058
32730W        W 1203  41.960  25.615  13.867
32731W        W 1204  36.463  41.491  14.848
32732W        W 1205  41.833   5.855  10.472
32733W        W 1206  43.490  39.900   3.743
32734W        W 1207  16.635  19.624   0.296
32735W        W 1208   8.752  43.993  11.876
32736W        W 1209  31.644  25.055  14.471
32737W        W 1210  24.573  43.795   9.451
32738W        W 1211  41.868  24.621  14.966
32739W        W 1212   6.779   3.869   3.820
32740W        W 1213  16.263  26.165  13.329
32741W        W 1214   5.808  36.031   3.815
32742W        W 1215  27.481  23.585   1.229
32743W        W 1216  23.159   4.751  10.427
32744W        W 1217  20.105  20.533   0.362
32745W        W 1218  33.988  29.043  11.375
32746W        W 1219  28.165  43.021   4.223
32747W        W 1220  35.041  24.076  13.833
32748W        W 1221  25.133  39.877   2.366
32749W        W 1222  44.374  18.132   3.354
32750W        W 1223  19.628   6.376  11.578
32751W        W 1224   9.804  42.962  11.463
32752W        W 1225  17.080   5.873  12.873
32753W        W 1226  31.118  35.487   0.910
32754W        W 1227  37.944   0.876   0.278
32755W        W 1228  31.080  40.931   1.317
32756W        W 1229  29.519   9.862   1.315
32757W        W 1230  43.876  36.569   0.313
32758W        W 1231  35.577  32.437  10.516
32759W        W 1232  41.320   5.375   4.167
32760W        W 1233  41.036   0.432  14.368
32761W        W 1234  14.262   9.674  13.447
32762W        W 1235  11.354  27.042   0.821
32763W        W 1236  43.796  39.407  12.888
32764W        W 1237  17.764  23.535  13.995
32765W        W 1238  34.072  10.683  13.797
32766W        W 1239  22.146  42.856   3.774
32767W        W 1240  39.347   9.726   2.803
32768W        W 1241   1.783  15.276  11.065
32769W        W 1242  10.166   2.844  11.536
32770W        W 1243  27.687  15.730  11.944
32771W        W 1244  39.351   4.800   3.799
32772W        W 1245  35.054  20.591  11.967
32773W        W 1246  22.145  25.581   5.256
32774W        W 1247  39.360  37.038   2.187
32775W        W 1248  13.686  23.989  14.513
32776W        W 1249  24.614  28.061  14.361
32777W        W 1250  28.438  41.349   0.825
32778W        W 1251  41.455  26.029  12.347
32779W        W 1252   8.810   0.781   5.156
32780W        W 1253  21.165  31.938   9.950
32781W        W 1254  26.462  30.636  13.496
32782W        W 1255  25.090   1.786  11.051
32783W        W 1256  40.952  42.409   4.801
32784W        W 1257   5.197   0.291  12.425
32785W        W 1258  23.492  37.858   2.696
32786W        W 1259   0.742   2.801  11.857
32787W        W 1260  30.448  37.053   3.871
32788W        W 1261  17.206  18.279   2.731
32789W        W 1262   3.784  21.035   2.770
32790W        W 1263  24.168  23.721   1.251
32791W        W 1264  34.460  41.951  11.932
32792W        W 1265  25.491  34.893   1.829
32793W        W 1266  42.350  23.131   3.280
32794W        W 1267  40.904   2.954   1.227
32795W        W 1268  14.260  41.459  14.859
32796W        W 1269   9.874  32.981  10.405
32797W        W 1270  12.766  20.608  10.597
32798W        W 1271  16.680  22.542   3.832
32799W        W 1272  39.379  26.046  11.396
32800W        W 1273   5.843  23.592  11.560
32801W        W 1274  24.660   4.284  10.491
32802W        W 1275  41.367   6.328  12.442
32803W        W 1276  27.660  44.974  14.499
32804W        W 1277   3.313  32.531   0.317
32805W        W 1278  25.193  33.446  12.905
32806W        W 1279   5.842   6.841  10.040
32807W        W 1280  38.385  25.521   4.263
32808W        W 1281  21.747  42.986   1.357
32809W        W 1282  33.969  24.634   4.767
32810W        W 1283   0.904  37.029  11.513
32811W        W 1284  33.028   5.797  11.116
32812W        W 1285  36.006  28.571   2.417
32813W        W 1286  35.477  30.131   2.389
32814W        W 1287   7.183  17.248   5.187
32815W        W 1288  29.049  39.449  12.447
32816W        W 1289  19.587  25.969  10.978
32817W        W 1290  18.755  16.725  12.073
32818W        W 1291  32.481  24.102  11.605
32819W        W 1292  31.925  13.787   2.785
32820W        W 1293  32.117  28.016   0.940
32821W        W 1294  41.816  20.746   4.286
32822W        W 1295   8.290   6.869   5.798
32823W        W 1296  22.596  35.516  14.988
32824W        W 1297  42.288   2.277   3.657
32825W        W 1298   8.287  36.473  13.927
32826W        W 1299  20.618  16.653  14.381
32827W        W 1300   6.327   3.751   4.767
32828W        W 1301  13.631   8.885  11.103
32829W        W 1302  14.261  26.954   0.398
32830W        W 1303   5.399  41.875   1.746
32831W        W 1304  35.587   9.384  11.092
32832W        W 1305  13.720  32.996   3.225
32833W        W 1306  41.894  44.273  14.400
32834W        W 1307  39.056  13.710   3.212
32835W        W 1308  18.138  34.558  14.332
32836W        W 1309  27.088  32.084   2.407
32837W        W 1310  10.678  16.181  13.002
32838W        W 1311   2.464  34.526  13.943
32839W        W 1312  38.337   3.449  13.794
32840W        W 1313  34.968   6.739   0.316
32841W        W 1314   1.286   8.877  13.838
32842W        W 1315  44.394  14.589   4.663
32843W        W 1316  37.864  30.492  12.523
32844W        W 1317  42.326  36.937   1.376
32845W        W 1318   2.406   2.438   1.389
32846W        W 1319  43.354  27.078   4.730
32847W        W 1320  23.668  37.508  12.984
32848W        W 1321  38.412  24.637  10.960
32849W        W 1322  37.036  20.577  13.368
32850W        W 1323  31.421  10.225   3.676
32851W        W 1324  42.848  21.099  13.924
32852W        W 1325  35.027   1.896   2.230
32853W        W 1326  43.290   3.819   4.606
32854W        W 1327  29.520   3.311   9.954
32855W        W 1328  10.663   1.949  10.508
32856W        W 1329  35.449  10.836   2.361
32857W        W 1330  27.052  22.096   2.192
32858W        W 1331  25.504   8.842   2.734
32859W        W 1332  28.514   3.289  11.955
32860W        W 1333  34.952  32.559   2.823
32861W        W 1334  38.909  13.734  10.084
32862W        W 1335   2.436  43.378   3.839
32863W        W 1336  30.097  25.203  10.126
32864W        W 1337  14.718   9.218  13.843
32865W        W 1338  36.899   4.416  13.929
32866W        W 1339  12.297  21.017  11.402
32867W        W 1340  23.575  22.656  14.479
32868W        W 1341  24.092  41.789  12.569
32869W        W 1342  10.741   5.207  14.761
32870W        W 1343  34.931  13.798  14.482
32871W        W 1344  40.370   4.902  12.857
32872W        W 1345   7.406   7.328  11.947
32873W        W 1346  12.138  43.401  12.416
32874W        W 1347  41.869   9.704  13.925
32875W        W 1348  11.192  19.108  14.884
32876W        W 1349  22.607  18.161  13.852
32877W        W 1350   2.831  32.050   0.460
32878W        W 1351   3.265  21.252  10.926
32879W        W 1352  44.267  39.441   2.693
32880W        W 1353  18.650  16.618  12.562
32881W        W 1354  30.642  30.649   1.857
32882W        W 1355  42.492   0.805  14.412
32883W        W 1356  17.068   0.832   1.838
32884W        W 1357   1.316  24.080  14.993
32885W        W 1358  11.253  37.839  14.349
32886W        W 1359  11.804  19.697   1.309
32887W        W 1360  19.611  28.560  13.000
32888W        W 1361  26.185  11.677   1.289
32889W        W 1362  13.633  40.310   2.288
32890W        W 1363  36.358   8.717   3.834
32891W        W 1364  12.620  29.081   4.747
32892W        W 1365  29.118  13.327   4.173
32893W        W 1366  39.463  23.037  13.399
32894W        W 1367  10.865  27.177   4.250
32895W        W 1368  44.815  22.026  14.433
32896W        W 1369  38.472  10.169  13.459
32897W        W 1370   6.878  14.753  13.034
32898W        W 1371  25.498  16.783   3.793
32899W        W 1372   5.204  23.715   3.789
32900W        W 1373  11.708   6.831  14.794
32901W        W 1374  42.789  41.014   2.797
32902W        W 1375  30.598  30.949  10.409
32903W        W 1376  35.541  19.162   2.752
32904W        W 1377  39.880  40.865   1.389
32905W        W 1378  15.747  28.036  11.025
32906W        W 1379  44.767  17.141  14.368
32907W        W 1380  34.553  26.000  13.372
32908W        W 1381   0.744  21.075   4.796
32909W        W 1382  24.594  17.135   2.772
32910W        W 1383  22.046  10.713   3.293
32911W        W 1384  32.128  10.275   0.311
32912W        W 1385  29.002  40.426   1.242
32913W        W 1386  40.944   4.268   1.796
32914W        W 1387   1.413  21.733  14.300
32915W        W 1388  29.992   0.425  13.526
32916W        W 1389  10.249  28.477   3.283
32917W        W 1390  38.856  17.171   2.418
32918W        W 1391   3.812  14.803  14.482
32919W        W 1392  19.061  24.126   0.280
32920W        W 1393  14.185  35.424  13.984
32921W        W 1394  27.579   2.346  12.402
32922W        W 1395  25.032  23.238  12.437
32923W        W 1396  33.065  10.273   2.733
32924W        W 1397  25.590  10.704  12.529
32925W        W 1398  33.611  14.121  12.948
32926W        W 1399  12.214  12.297   1.777
32927W        W 1400  26.537  25.627  14.846
32928W        W 1401   4.409  22.155  11.985
32929W        W 1402  27.941  15.809   5.228
32930W        W 1403  38.349  41.935  10.481
32931W        W 1404   6.189  15.265  14.422
32932W        W 1405  41.312  44.821   2.746
32933W        W 1406  16.164  27.607   1.407
32934W        W 1407  36.497  24.023   2.334
32935W        W 1408  39.475   4.214   2.225
32936W        W 1409  13.789  28.093   0.825
32937W        W 1410  31.636  40.501  13.044
32938W        W 1411  11.792  22.587  12.560
32939W        W 1412  27.594  11.680   2.368
32940W        W 1413  18.594  24.509   2.831
32941W        W 1414   6.373  19.108   0.450
32942W        W 1415   6.761  29.506  14.327
32943W        W 1416  19.171  44.272  13.492
32944W        W 1417  17.199  11.351   4.685
32945W        W 1418  41.317  21.618  14.000
32946W        W 1419  35.019   7.883  10.548
32947W        W 1420  19.258  38.371   4.262
32948W        W 1421  22.702  12.669  14.499
32949W        W 1422  12.238   2.301   2.239
32950W        W 1423  18.234  41.294  14.964
32951W        W 1424  31.470  40.504  10.507
32952W        W 1425  37.986   9.257   3.377
32953W        W 1426  20.031  21.083   5.230
32954W        W 1427  14.658  32.054  11.556
32955W        W 1428  41.935  42.338   0.830
32956W        W 1429   0.970  10.240   3.373
32957W        W 1430  10.354  10.762  12.050
32958W        W 1431  22.078   5.247  11.037
32959W        W 1432  32.435  41.864  12.945
32960W        W 1433  25.526   1.321   5.220
32961W        W 1434  15.195  28.152   2.902
32962W        W 1435  37.057   3.300   3.348
32963W        W 1436  20.728   8.346  10.416
32964W        W 1437  21.248  33.093  14.929
32965W        W 1438  26.046  37.898  10.934
32966W        W 1439  28.038  13.307  10.059
32967W        W 1440  27.547  26.148  14.282
32968W        W 1441  30.965   1.343   2.729
32969W        W 1442  31.614  44.398   4.600
32970W        W 1443   2.848  19.155   1.775
32971W        W 1444  17.795  21.532   0.850
32972W        W 1445  41.892  28.586  13.338
32973W        W 1446  39.494  16.796   1.853
32974W        W 1447  24.974  12.725   1.731
32975W        W 1448   3.380  14.264  12.369
32976W        W 1449  17.254  33.607   1.313
32977W        W 1450   6.710   5.847   2.669
32978W        W 1451  41.985  42.485   2.794
32979W        W 1452  28.087  33.110   2.239
32980W        W 1453  27.035   8.820  12.036
32981W        W 1454  33.948  31.901   2.277
32982W        W 1455  35.422  30.916  12.563
32983W        W 1456  13.313   4.916   4.354
32984W        W 1457  14.772  38.406  12.021
32985W        W 1458   0.789  22.138  11.115
32986W        W 1459  21.560   8.871   1.326
32987W        W 1460   0.909  25.554   2.751
32988W        W 1461   3.925   5.838   4.636
32989W        W 1462  16.302  11.317   2.418
32990W        W 1463   3.779   3.254  10.542
32991W        W 1464  10.303  41.428   3.738
32992W        W 1465  37.476   7.709  11.441
32993W        W 1466  28.465   2.867   2.794
32994W        W 1467  24.543  14.810   0.475
32995W        W 1468  16.801  22.222   0.302
32996W        W 1469  17.152  19.149  11.457
32997W        W 1470  13.243  31.035   1.780
32998W        W 1471  28.964   3.887  11.374
32999W        W 1472  39.470  14.685   2.744
33000W        W 1473  26.661  15.311  10.916
33001W        W 1474  43.371  13.270   1.780
33002W        W 1475   9.231  10.680   3.166
33003W        W 1476  23.619  12.762  11.478
33004W        W 1477   4.726   7.911   4.218
33005W        W 1478  24.673  33.416   1.225
33006W        W 1479  18.274  36.882  12.073
33007W        W 1480  32.539  22.010   0.751
33008W        W 1481  31.416   9.831   4.135
33009W        W 1482  39.520  26.508  12.899
33010W        W 1483  43.316  43.846  11.952
33011W        W 1484  13.144  22.565   0.949
33012W        W 1485  25.031  13.807   2.785
33013W        W 1486   8.859   6.334   2.837
33014W        W 1487  43.863   2.451  14.858
33015W        W 1488  33.521  42.424  12.011
33016W        W 1489  29.019   1.424   0.938
33017W        W 1490  21.544  26.000   1.873
33018W        W 1491   5.705  38.045  11.425
33019W        W 1492  15.728   7.344   1.328
33020W        W 1493   2.855   5.231  11.036
33021W        W 1494   2.275   6.728  13.512
33022W        W 1495  19.171  13.161   4.791
33023W        W 1496  11.165   5.373   1.887
33024W        W 1497   9.336  31.141  14.854
33025W        W 1498  10.191  14.668  10.941
33026W        W 1499  11.767  25.215  14.916
33027W        W 1500  39.959  12.752  11.900
33028W        W 1501  33.946  14.266   2.267
33029W        W 1502  43.894  43.931   4.321
33030W        W 1503  10.693   4.816   2.865
33031W        W 1504  22.120   3.350  12.992
33032W        W 1505  25.549   3.924   0.795
33033W        W 1506  14.301  10.238  14.017
33034W        W 1507   5.385  40.318   2.367
33035W        W 1508   3.221  44.439  14.342
33036W        W 1509  13.114  29.424  14.980
33037W        W 1510  27.582  41.938  12.464
33038W        W 1511  40.888  36.511   2.330
33039W        W 1512  13.806  29.032  12.576
33040W        W 1513   2.418   5.358  11.873
33041W        W 1514  25.519  40.512   0.741
33042W        W 1515  18.749  15.221   2.366
33043W        W 1516  25.163   5.913   4.808
33044W        W 1517  44.499  27.018  11.123
33045W        W 1518  12.814  28.159   0.376
33046W        W 1519   5.244  38.948   1.445
33047W        W 1520  18.055  36.516  10.536
33048W        W 1521  27.506  33.598   0.788
33049W        W 1522  36.417  24.009  10.023
33050W        W 1523  11.673  21.019   0.880
33051W        W 1524  27.634  21.239   2.368
33052W        W 1525  31.036  22.618   2.188
33053W        W 1526  39.468  44.835  14.951
33054W        W 1527  37.035  12.356   2.360
33055W        W 1528  29.967  30.158  13.382
33056W        W 1529  21.754  28.944  13.419
33057W        W 1530  23.091  20.561   2.821
33058W        W 1531  25.597  43.845  10.556
33059W        W 1532  13.755  15.166  14.488
33060W        W 1533   4.778  17.276  10.463
33061W        W 1534  28.043  32.894  14.407
33062W        W 1535  34.972  23.075   4.166
33063W        W 1536   2.747  35.531  12.066
33064W        W 1537  23.562  35.521   1.366
33065W        W 1538  19.547  30.050   1.218
33066W        W 1539  30.539   6.349  13.365
33067W        W 1540  15.098   7.796   3.870
33068W        W 1541  25.617  32.053  14.514
33069W        W 1542  38.849  36.921  13.028
33070W        W 1543  24.666  36.489  12.872
33071W        W 1544  24.127  29.082   3.871
33072W        W 1545  42.989  10.297  14.475
33073W        W 1546  30.098  23.593   1.324
33074W        W 1547  32.473  32.627   4.206
33075W        W 1548  38.016   7.770   4.751
33076W        W 1549  40.797  40.912   1.701
33077W        W 1550  13.306  33.585   3.850
33078W        W 1551  24.986  37.955  11.572
33079W        W 1552  42.800   2.454   5.194
33080W        W 1553  31.556  40.350   3.740
33081W        W 1554  43.485  39.512  13.945
33082W        W 1555  17.695  11.344  12.056
33083W        W 1556  11.789  21.162   4.602
33084W        W 1557  44.287  15.125  13.443
33085W        W 1558  12.841  44.442   1.741
33086W        W 1559  24.488  17.706   3.693
33087W        W 1560   0.818   7.340   3.853
33088W        W 1561  43.505  44.913  14.822
33089W        W 1562  15.809  36.065  14.955
33090W        W 1563  13.269   8.321   2.813
33091W        W 1564  10.637  36.443  14.029
33092W        W 1565  13.743  28.500   0.242
33093W        W 1566  33.894   9.159  13.869
33094W        W 1567  19.201  37.006   3.292
33095W        W 1568   7.247  27.484   1.818
33096W        W 1569   5.892  15.326  10.944
33097W        W 1570   5.401  35.406  12.871
33098W        W 1571  32.925  20.079   3.734
33099W        W 1572   6.825  29.973   3.348
33100W        W 1573  11.706  31.551   4.761
33101W        W 1574   5.256  38.413   0.891
33102W        W 1575  29.522  20.070   0.961
33103W        W 1576  12.702  39.834  12.862
33104W        W 1577  23.059   5.710  13.482
33105W        W 1578  16.806   9.845  14.764
33106W        W 1579   2.365  23.558  10.557
33107W        W 1580  42.905  28.503  12.528
33108W        W 1581   6.390  32.546   3.661
33109W        W 1582  22.109  16.665   3.362
33110W        W 1583  41.041   6.385  13.314
33111W        W 1584  41.443   0.254  12.547
33112W        W 1585  42.464  23.029   4.834
33113W        W 1586  27.165  34.572  13.469
33114W        W 1587  15.585  40.547   0.801
33115W        W 1588   6.379  24.527   1.431
33116W        W 1589  35.953   5.838  10.987
33117W        W 1590  16.267  21.109   4.694
33118W        W 1591  32.900  16.202   4.300
33119W        W 1592  39.060  23.647   3.708
33120W        W 1593  16.215  16.272   3.211
33121W        W 1594  37.055  24.100  14.783
33122W        W 1595  22.139  43.973  11.030
33123W        W 1596  12.297  37.953  11.519
33124W        W 1597  25.471   3.744   2.750
33125W        W 1598  16.652   9.772   2.823
33126W        W 1599  39.052  36.013   0.880
33127W        W 1600   1.823  18.162   3.716
33128W        W 1601  33.961   0.824  11.057
33129W        W 1602  19.087   4.863  13.380
33130W        W 1603  26.467  43.315   3.383
33131W        W 1604  13.741  28.048   3.160
33132W        W 1605  39.362   2.370  14.410
33133W        W 1606  18.286  35.601  13.885
33134W        W 1607  35.895  16.587  14.351
33135W        W 1608   4.262  13.737   1.306
33136W        W 1609  30.643  42.521   2.721
33137W        W 1610  23.699  15.805  12.559
33138W        W 1611  40.488  43.974  11.412
33139W        W 1612  14.817  25.161  12.553
33140W        W 1613  12.202  20.154  13.965
33141W        W 1614  29.589   1.425  11.113
33142W        W 1615   4.756  27.620   4.648
33143W        W 1616   1.482   4.750   4.302
33144W        W 1617  14.807  34.924   3.661
33145W        W 1618   4.722  41.519  12.400
33146W        W 1619  33.913   6.392  12.544
33147W        W 1620   3.239  28.078   5.198
33148W        W 1621  30.957  29.553  10.411
33149W        W 1622   8.799  13.228  11.457
33150W        W 1623  39.537  14.672  11.091
33151W        W 1624  20.122  19.620   2.846
33152W        W 1625   0.293  18.055  11.999
33153W        W 1626  38.892  43.430   4.286
33154W        W 1627   6.801  29.991  11.962
33155W        W 1628  43.777  12.803  11.498
33156W        W 1629  36.061  42.380   0.922
33157W        W 1630  42.472  37.896  14.291
33158W        W 1631  23.142   1.882  12.407
33159W        W 1632  39.034   7.762  11.879
33160W        W 1633  44.852   5.899  11.555
33161W        W 1634  36.899  17.196   2.691
33162W        W 1635  43.300  30.980  14.417
33163W        W 1636  11.188   4.799   1.401
33164W        W 1637  26.591  31.469  11.381
33165W        W 1638  12.291   1.819  11.438
33166W        W 1639  17.236  31.915  11.889
33167W        W 1640  35.060   6.405   3.818
33168W        W 1641  37.357  34.432   4.612
33169W        W 1642  32.437  19.226  12.074
33170W        W 1643   9.862   0.889   2.768
33171W        W 1644  39.035  36.363   4.138
33172W        W 1645  27.007   1.406   4.314
33173W        W 1646  19.223  23.720  12.514
33174W        W 1647  31.112  25.086   0.447
33175W        W 1648  42.458  44.292  11.940
33176W        W 1649  28.126  22.533  12.350
33177W        W 1650  26.651  29.149  10.937
33178W        W 1651  20.630  21.116   3.159
33179W        W 1652   4.875  42.463   4.780
33180W        W 1653   0.930  32.398  10.421
33181W        W 1654  20.048  34.967  13.899
33182W        W 1655   2.275  20.584  12.050
33183W        W 1656  16.749  17.087  13.798
33184W        W 1657  39.012  34.482  11.525
33185W        W 1658   0.805  29.534   3.688
33186W        W 1659  41.787   8.895   5.200
33187W        W 1660  18.655   8.347   2.267
33188W        W 1661   7.745   0.345   0.799
33189W        W 1662  19.207  36.478   0.814
33190W        W 1663  37.978  11.697  13.489
33191W        W 1664  43.504  23.125  13.877
33192W        W 1665  13.296   6.422  13.883
33193W        W 1666  24.075  18.562   5.307
33194W        W 1667   0.751  28.477   0.412
33195W        W 1668  43.283  42.906  13.964
33196W        W 1669  22.587  17.216  14.482
33197W        W 1670  16.730  31.575  14.763
33198W        W 1671   7.866  30.433  11.405
33199W        W 1672  41.478   6.274  11.413
33200W        W 1673  40.909  28.003  14.818
33201W        W 1674  10.876   7.781  11.603
33202W        W 1675  34.475  11.145   0.957
33203W        W 1676  23.497  42.927  13.965
33204W        W 1677  39.929  35.854   4.838
33205W        W 1678  11.171  17.115  11.094
33206W        W 1679  27.948  30.491   1.874
33207W        W 1680  33.993   9.166   0.369
33208W        W 1681  40.461  12.333  14.879
33209W        W 1682  26.185  17.222  12.465
33210W        W 1683  17.105   8.871  10.545
33211W        W 1684  44.932  40.472   0.297
33212W        W 1685  15.087  17.262  11.525
33213W        W 1686  35.376  39.874  14.871
33214W        W 1687  39.866  11.644   3.302
33215W        W 1688  26.604  42.919  11.580
33216W        W 1689  10.753  13.688  12.901
33217W        W 1690  44.914  40.543  14.902
33218W        W 1691  24.111  33.429  12.530
33219W        W 1692   4.360  14.180   2.816
33220W        W 1693   4.859  44.368  10.953
33221W        W 1694  22.732  31.003   1.242
33222W        W 1695  15.803  18.181   4.155
33223W        W 1696  38.884   2.881  11.948
33224W        W 1697  10.744  10.342   1.261
33225W        W 1698  37.460  17.165   2.738
33226W        W 1699  28.133  25.160   4.680
33227W        W 1700  44.813  42.843   5.175
33228W        W 1701  12.191  15.765  10.446
33229W        W 1702  35.031  36.429  13.503
33230W        W 1703   5.206  24.662   0.896
33231W        W 1704  42.972  14.159   3.679
33232W        W 1705  19.235  31.536  10.928
33233W        W 1706  12.171  36.532   0.367
33234W        W 1707  40.966  40.022  13.369
33235W        W 1708  38.032  17.246  13.009
33236W        W 1709  44.952  20.624  14.431
33237W        W 1710  21.231   0.944  13.840
33238W        W 1711  38.324   9.368   2.380
33239W        W 1712   8.321  34.416  11.995
33240W        W 1713  15.798  11.145   4.145
33241W        W 1714  20.206  27.560   4.341
33242W        W 1715  31.142  11.697   4.715
33243W        W 1716   3.844   3.731  10.940
33244W        W 1717  34.486  41.335  12.430
33245W        W 1718  32.546  13.349  13.534
33246W        W 1719   1.434   0.879  14.281
33247W        W 1720   8.259  21.211   0.900
33248W        W 1721   1.411   2.919  13.878
33249W        W 1722  25.173  19.585   0.814
33250W        W 1723  18.165  41.875   2.686
33251W        W 1724  29.980  12.684   0.364
33252W        W 1725  31.541   7.391   0.371
33253W        W 1726  17.761  12.347   2.258
33254W        W 1727  11.782  15.282  11.028
33255W        W 1728  27.125   9.710  12.477
33256W        W 1729  23.492  36.048  13.045
33257W        W 1730  38.488  10.160  14.835
33258W        W 1731  38.508  24.532  10.569
33259W        W 1732  22.627  10.650   4.679
33260W        W 1733   1.814  39.535   3.355
33261W        W 1734  29.981   5.929   3.751
33262W        W 1735  25.551  40.910  14.832
33263W        W 1736  10.384  25.606   4.835
33264W        W 1737   4.827  26.557   3.213
33265W        W 1738  17.664  39.954   5.615
33266W        W 1739  34.060  31.001   3.280
33267W        W 1740  24.115  14.126  14.429
33268W        W 1741  31.955  28.968   3.777
33269W        W 1742  16.689  32.020   1.863
33270W        W 1743  44.863  11.246   1.312
33271W        W 1744  35.049  37.398   0.276
33272W        W 1745  42.843   0.280  13.032
33273W        W 1746  34.021  33.497   3.648
33274W        W 1747  42.883  22.053  10.905
33275W        W 1748  34.443   2.859   4.138
33276W        W 1749  31.448  10.876   4.644
33277W        W 1750   4.424  37.436   4.694
33278W        W 1751  32.598   7.680  11.904
33279W        W 1752  20.679   2.357  12.515
33280W        W 1753  36.389   6.907  14.908
33281W        W 1754   0.309   2.271   2.292
33282W        W 1755  23.733  18.109   0.265
33283W        W 1756  10.710  35.976   0.421
33284W        W 1757  22.708  39.524   4.188
33285W        W 1758   5.399  15.678  10.910
33286W        W 1759  43.795  11.218   4.651
33287W        W 1760  35.007  43.320  13.311
33288W        W 1761  26.479  15.629  11.002
33289W        W 1762  26.026   2.384   0.381
33290W        W 1763  10.214  11.745  12.864
33291W        W 1764  18.767  18.109   4.292
33292W        W 1765  32.410   4.399   3.705
33293W        W 1766  32.574  37.931   4.178
33294W        W 1767  28.553  14.831  10.409
33295W        W 1768  27.021  27.629   3.363
33296W        W 1769  17.126   1.416  10.548
33297W        W 1770   9.267  18.151  12.508
33298W        W 1771  36.944  17.157  12.882
33299W        W 1772  42.282  25.067   4.768
33300W        W 1773  19.621  17.274   4.332
33301W        W 1774  15.288  43.480  14.481
33302W        W 1775  20.098  34.476   2.267
33303W        W 1776   3.858  19.703   9.986
33304W        W 1777  38.525  33.472  14.409
33305W        W 1778  35.025  42.842   1.355
33306W        W 1779  41.422  15.787  13.435
33307W        W 1780  37.083   7.806   3.636
33308W        W 1781  19.177   0.482   2.200
33309W        W 1782  13.688  41.526   0.359
33310W        W 1783  27.122  40.321  13.972
33311W        W 1784  23.049   5.921  10.469
33312W        W 1785  26.683  33.407   0.791
33313W        W 1786  14.165  32.958   1.859
33314W        W 1787  15.589   5.837  14.977
33315W        W 1788   1.239  27.455  14.434
33316W        W 1789  20.615  31.408  12.836
33317W        W 1790   2.799  41.845  12.349
33318W        W 1791  19.721  14.261   3.344
33319W        W 1792  40.923  41.454   4.683
33320W        W 1793  44.893   9.848  14.329
33321W        W 1794  37.027  36.056   4.649
33322W        W 1795  42.008  13.258  10.954
33323W        W 1796  12.753  41.312   3.183
33324W        W 1797  26.112  29.527  12.447
33325W        W 1798  12.289   1.390  14.024
33326W        W 1799   1.942  33.879  12.028
33327W        W 1800  29.604   3.914   3.720
33328W        W 1801  33.091  36.352  11.588
33329W        W 1802  44.860   1.388  10.420
33330W        W 1803  42.859  43.970   1.935
33331W        W 1804  42.961   4.729  11.918
33332W        W 1805  17.067   1.773   2.870
33333W        W 1806   4.409  41.317  11.950
33334W        W 1807  22.641  34.021  12.397
33335W        W 1808   7.781  41.871  12.571
33336W        W 1809   2.404   8.252   4.779
33337W        W 1810   7.734  23.011   5.612
33338W        W 1811  15.786   1.272  13.912
33339W        W 1812  34.578  33.931  13.825
33340W        W 1813   5.880  23.051  11.944
33341W        W 1814  11.281  31.418   1.428
33342W        W 1815  10.224   3.766  10.452
33343W        W 1816  28.159  24.980  12.389
33344W        W 1817   0.338  13.776   4.634
33345W        W 1818  41.432  28.555   2.248
33346W        W 1819   4.429  39.486  14.778
33347W        W 1820   6.355  42.805  11.927
33348W        W 1821   4.262  10.667  13.359
33349W        W 1822  18.606   2.852  14.778
33350W        W 1823   3.943  29.132  12.035
33351W        W 1824  25.028  11.346  14.968
33352W        W 1825   0.431  18.095   0.740
33353W        W 1826  11.326  39.349   4.757
33354W        W 1827  24.179  30.444   2.809
33355W        W 1828  10.663  44.365   4.766
33356W        W 1829   7.866  22.156  13.468
33357W        W 1830  18.167  33.606  10.523
33358W        W 1831   6.888  13.660   1.934
33359W        W 1832  10.321  24.128  12.395
33360W        W 1833  24.018  23.549   2.194
33361W        W 1834  17.707   8.312  13.333
33362W        W 1835  24.082   5.894  10.563
33363W        W 1836  32.540  37.463  10.417
33364W        W 1837  35.473  21.050   4.269
33365W        W 1838  28.145  38.833   0.389
33366W        W 1839  14.607  34.084  12.853
33367W        W 1840  16.661   2.817  13.888
33368W        W 1841  44.764  18.601  13.510
33369W        W 1842  33.537  12.715   5.314
33370W        W 1843  31.150  27.684  12.576
33371W        W 1844   1.872   6.368   0.403
33372W        W 1845   5.273  15.131  11.890
33373W        W 1846  24.480  22.683  13.022
33374W        W 1847  31.612  27.162   5.108
33375W        W 1848   4.714  33.528  10.532
33376W        W 1849   7.672  19.577   2.306
33377W        W 1850  34.956  31.978   3.246
33378W        W 1851  30.991   6.829  13.539
33379W        W 1852  35.060  15.135  13.876
33380W        W 1853  41.348  20.719   0.283
33381W        W 1854   4.206   5.910  14.894
33382W        W 1855  17.137   0.748   2.885
33383W        W 1856   0.746  19.599   0.300
33384W        W 1857  10.219  28.978  13.422
33385W        W 1858   3.916  42.414   1.417
33386W        W 1859  26.674  41.914   3.293
33387W        W 1860  17.666   9.856  12.561
33388W        W 1861  32.596  15.322   4.226
33389W        W 1862  14.621  27.624   1.227
33390W        W 1863  40.448  18.133   0.463
33391W        W 1864  10.672  25.514  10.584
33392W        W 1865  16.261  28.519  11.514
33393W        W 1866   4.855  21.081   1.879
33394W        W 1867  32.453  39.383  10.918
33395W        W 1868   9.332   3.854  14.882
33396W        W 1869   0.826  13.816  11.972
33397W        W 1870  33.522  19.111  13.871
33398W        W 1871  14.123  25.085   1.793
33399W        W 1872  14.670  21.642   2.234
33400W        W 1873  16.294   8.242   0.412
33401W        W 1874  14.781   4.269   0.284
33402W        W 1875   3.308  20.179   1.439
33403W        W 1876  41.961  15.744   0.253
33404W        W 1877   5.720  36.486  13.941
33405W        W 1878  41.319   3.371   1.824
33406W        W 1879   9.212   9.349  14.990
33407W        W 1880  33.472   5.761   1.276
33408W        W 1881  34.506  41.015  13.012
33409W        W 1882  22.175  42.889   2.203
33410W        W 1883  25.705   7.811   4.257
33411W        W 1884  11.727   2.814   4.170
33412W        W 1885  21.620  40.882  12.522
33413W        W 1886  18.250  23.236   3.287
33414W        W 1887  40.409  24.209   1.794
33415W        W 1888  32.596   8.836  13.429
33416W        W 1889  24.614   2.844  13.412
33417W        W 1890   7.876   8.337   4.805
33418W        W 1891  14.712  26.662  11.489
33419W        W 1892  29.144  14.615   1.340
33420W        W 1893   9.191  30.482   2.245
33421W        W 1894   7.252   1.357  12.050
33422W        W 1895  44.412   6.875  11.577
33423W        W 1896  43.370  32.067   3.344
33424W        W 1897   8.321  41.453  13.858
33425W        W 1898  12.752  16.609   3.156
33426W        W 1899   4.302  31.029   4.820
33427W        W 1900  26.692  12.769   2.217
33428W        W 1901  27.608  33.014   1.773
33429W        W 1902  33.944  17.727   1.887
33430W        W 1903  21.661  10.217  13.987
33431W        W 1904  42.475  34.091  12.420
33432W        W 1905  16.139  16.737   3.174
33433W        W 1906  33.921  40.832   1.451
33434W        W 1907  19.196  22.621   3.367
33435W        W 1908  19.571  13.754  14.391
33436W        W 1909  16.611  28.566   4.710
33437W        W 1910   9.837   3.954   1.703
33438W        W 1911   4.306  44.505  13.903
33439W        W 1912  28.514  31.045   0.371
33440W        W 1913  28.517  25.594  14.977
33441W        W 1914  12.255   7.693  14.443
33442W        W 1915  32.054  23.550   0.377
33443W        W 1916   5.886  17.677  11.478
33444W        W 1917  38.933  13.225  14.793
33445W        W 1918  35.554  28.186   3.768
33446W        W 1919  12.777  30.093  10.555
33447W        W 1920  12.318  26.016   1.280
33448W        W 1921   2.808   7.211   1.714
33449W        W 1922  34.391  10.690  10.972
33450W        W 1923   2.387   1.732   0.472
33451W        W 1924  29.545  35.896   3.641
33452W        W 1925   6.198  20.594  14.929
33453W        W 1926  10.180   6.677   0.410
33454W        W 1927   9.784  14.687  11.104
33455W        W 1928  22.622  11.819   2.286
33456W        W 1929  41.454  23.502   3.209
33457W        W 1930  11.799  27.617   4.307
33458W        W 1931  31.142  11.829  13.034
33459W        W 1932  38.859  28.566  13.961
33460W        W 1933  18.132  41.038   4.704
33461W        W 1934   0.823   3.793   3.255
33462W        W 1935  22.505   5.417   0.831
33463W        W 1936  35.076  16.115  14.821
33464W        W 1937  43.500   0.964  11.911
33465W        W 1938   1.319  13.258  13.915
33466W        W 1939  40.408  37.429   4.353
33467W        W 1940  44.351   0.836   0.258
33468W        W 1941  18.772  24.146   4.781
33469W        W 1942  14.764  28.437  13.527
33470W        W 1943  39.559   2.811  13.459
33471W        W 1944  13.129  44.758   4.735
33472W        W 1945   3.854   6.261  10.543
33473W        W 1946  25.156   2.915  11.012
33474W        W 1947  10.763  13.729  14.510
33475W        W 1948  23.625  16.681   2.772
33476W        W 1949  20.598  35.057  12.073
33477W        W 1950  18.178  38.522   4.221
33478W        W 1951  19.279   1.304  11.035
33479W        W 1952  34.381   6.229  12.018
33480W        W 1953  13.303  42.954  14.961
33481W        W 1954  21.062   7.398   4.213
33482W        W 1955  32.469  17.727   3.307
33483W        W 1956   0.917  35.051  14.898
33484W        W 1957   6.795  27.029   1.277
33485W        W 1958  16.098  24.127   3.229
33486W        W 1959  41.009  35.091   0.915
33487W        W 1960  37.912  40.312  11.376
33488W        W 1961  41.439  24.622  12.491
33489W        W 1962  11.156  29.090   1.889
33490W        W 1963  16.128  42.812   2.299
33491W        W 1964  30.609  30.050  12.983
33492W        W 1965  27.659  21.241  13.802
33493W        W 1966  25.962  28.447   4.163
33494W        W 1967  30.157   1.471  14.011
33495W        W 1968  22.097  24.534  14.304
33496W        W 1969  30.109   0.817  14.765
33497W        W 1970  31.507  32.960   3.762
33498W        W 1971  33.492   9.332  10.944
33499W        W 1972  37.838  33.003  10.471
33500W        W 1973  29.968  17.269   4.171
33501W        W 1974  20.242  20.695  11.588
33502W        W 1975  41.944  40.050   3.267
33503W        W 1976  23.520  23.716   0.781
33504W        W 1977  24.999  28.662  14.428
33505W        W 1978  27.954  15.317  14.463
33506W        W 1979  36.024  33.391   0.361
33507W        W 1980  29.013  12.342  14.837
33508W        W 1981   0.768  32.916  14.795
33509W        W 1982  32.617  15.678   0.765
33510W        W 1983   7.672  29.088   4.642
33511W        W 1984  21.747  40.526  14.456
33512W        W 1985  18.743  14.228  14.449
33513W        W 1986  38.064  36.081   2.411
33514W        W 1987  34.875  33.953  12.007
33515W        W 1988  40.009   1.397  13.398
33516W        W 1989  18.738  22.155  14.305
33517W        W 1990   0.433  38.511  13.412
33518W        W 1991  33.477   2.445  10.580
33519W        W 1992  10.721  28.981  10.897
33520W        W 1993  22.136  28.509  12.868
33521W        W 1994  39.472   4.776  12.503
33522W        W 1995  10.156  43.788  14.506
33523W        W 1996  23.141  42.341   4.132
33524W        W 1997  32.508  10.850   3.245
33525W        W 1998  43.452   0.280  13.447
33526W        W 1999   6.699  39.867   1.807
33527W        W 2000  32.398  37.476   5.179
33528W        W 2001  32.984  41.303   4.130
33529W        W 2002  17.156   8.183   1.894
33530W        W 2003  37.964   2.283  11.125
33531W        W 2004  35.918   6.398   4.263
33532W        W 2005  10.332   1.876   2.195
33533W        W 2006  19.620  15.087   1.402
33534W        W 2007  20.720  41.492  13.900
33535W        W 2008  41.814  18.739  12.973
33536W        W 2009  19.088  32.459   2.245
33537W        W 2010  33.992  39.934   0.891
33538W        W 2011   7.201  18.267  11.612
33539W        W 2012   6.745   6.262  11.048
33540W        W 2013   2.260  10.369  10.526
33541W        W 2014   7.901  13.644  13.862
33542W        W 2015  19.617   8.326  14.276
33543W        W 2016  41.360  37.081   3.646
33544W        W 2017  30.437   0.927   4.835
33545W        W 2018   4.394  34.007   1.330
33546W        W 2019  35.104  12.279   4.207
33547W        W 2020  33.924  30.628  11.567
33548W        W 2021  13.319  21.189   3.672
33549W        W 2022  36.547  25.583  11.421
33550W        W 2023  29.660  15.673   0.808
33551W        W 2024   2.888  13.181   1.737
33552W        W 2025  23.021  39.855  13.535
33553W        W 2026   7.395   5.417  13.040
33554W        W 2027  42.309   2.234   3.175
33555W        W 2028  29.592  17.071   4.609
33556W        W 2029  21.081  21.193   0.951
33557W        W 2030  38.481  19.075  11.385
33558W        W 2031  21.168  36.524  11.078
33559W        W 2032  34.410   6.296  12.561
33560W        W 2033   2.237  13.632   4.639
33561W        W 2034  33.939  37.066  10.422
33562W        W 2035  30.907  15.815  10.532
33563W        W 2036  43.344  11.194  14.463
33564W        W 2037   2.816   9.337  12.013
33565W        W 2038  28.611  39.476   1.433
33566W        W 2039  26.458  36.903  12.078
33567W        W 2040  13.632  28.995  11.400
33568W        W 2041  11.778   1.928  14.420
33569W        W 2042  13.203  14.140  12.073
33570W        W 2043  44.343  18.598   4.267
33571W        W 2044   9.873  34.483   3.800
33572W        W 2045  44.872  34.063   0.459
33573W        W 2046  35.584  26.140  12.055
33574W        W 2047  20.071  20.642   1.794
33575W        W 2048  19.715  40.336   3.741
33576W        W 2049   6.388  42.451   2.819
33577W        W 2050  16.104  20.070   4.295
33578W        W 2051  32.458   8.295  14.890
33579W        W 2052   6.906  30.651  14.939
33580W        W 2053  43.980   1.460   1.263
33581W        W 2054  25.207   3.252   0.834
33582W        W 2055  31.642  42.333   1.345
33583W        W 2056  12.845  35.047   0.911
33584W        W 2057  32.975  14.291  10.903
33585W        W 2058  36.043  16.175  13.923
33586W        W 2059  32.089  19.554  10.625
33587W        W 2060   5.336  40.990   4.243
33588W        W 2061  10.330  19.138  10.518
33589W        W 2062  28.504  13.810  12.037
33590W        W 2063   6.383  10.640  11.886
33591W        W 2064   6.864   3.938  10.971
33592W        W 2065   9.346  19.275  12.372
33593W        W 2066  10.176  42.977  11.954
33594W        W 2067  25.547  32.058  11.888
33595W        W 2068  14.217  14.319   3.262
33596W        W 2069  21.578   1.333  12.829
33597W        W 2070  21.078  41.431   4.828
33598W        W 2071  38.845  41.928   3.269
33599W        W 2072  17.273  18.160   1.872
33600W        W 2073  31.609   3.347   0.261
33601W        W 2074  30.520  31.057   2.811
33602W        W 2075  41.349  20.261  12.939
33603W        W 2076  11.294  39.503  12.527
33604W        W 2077  19.041  12.788  13.401
33605W        W 2078   3.229  14.260   9.931
33606W        W 2079  23.984  14.695  11.603
33607W        W 2080  12.184  33.077   4.149
33608W        W 2081  11.651  23.492   3.200
33609W        W 2082  44.387  24.019  13.819
33610W        W 2083   7.725  31.994  13.443
33611W        W 2084  30.023  39.417   1.923
33612W        W 2085  12.219  18.591   0.315
33613W        W 2086  42.505  10.296  14.488
33614W        W 2087  25.028  27.562  11.024
33615W        W 2088  16.306  27.175  14.301
33616W        W 2089  43.489  12.626  13.345
33617W        W 2090  13.805  18.708  11.468
33618W        W 2091  25.199   5.414   0.876
33619W        W 2092   2.861  41.873   0.952
33620W        W 2093  27.047  20.710  11.991
33621W        W 2094  19.094  42.445  12.436
33622W        W 2095  18.161   8.297  14.015
33623W        W 2096  26.137  25.492  14.410
33624W        W 2097  28.488  40.346  11.095
33625W        W 2098  43.935  41.400  14.467
33626W        W 2099  37.863  21.598  13.800
33627W        W 2100   9.173  44.935   1.273
33628W        W 2101  19.053   2.764  13.445
33629W        W 2102  38.921  27.612  13.939
33630W        W 2103  27.986  17.237   5.191
33631W        W 2104  10.373  44.376   2.198
33632W        W 2105  42.342  23.636   4.751
33633W        W 2106  16.809  16.072  13.852
33634W        W 2107  15.701  36.466  13.414
33635W        W 2108  21.647  10.375   1.318
33636W        W 2109   6.427  12.660  14.296
33637W        W 2110  31.133  37.510  11.875
33638W        W 2111  34.585  18.064  12.393
33639W        W 2112  26.557  44.485  10.446
33640W        W 2113   4.408  39.485  13.534
33641W        W 2114  31.140  25.478   5.615
33642W        W 2115   3.368  17.659   1.799
33643W        W 2116  19.712  10.642   0.338
33644W        W 2117  26.033  25.995  13.885
33645W        W 2118   4.790   8.826   2.199
33646W        W 2119  28.033   0.854   1.367
33647W        W 2120  15.745   2.934  14.810
33648W        W 2121  28.065  35.944  12.552
33649W        W 2122  11.744  16.685  13.956
33650W        W 2123  37.833  23.094   2.393
33651W        W 2124   5.352  31.107  12.385
33652W        W 2125   7.247  42.994   1.283
33653W        W 2126  25.042  40.380   1.254
33654W        W 2127  24.618  34.577   0.857
33655W        W 2128  20.702  35.859  13.322
33656W        W 2129  38.905   7.335  13.339
33657W        W 2130  18.217  10.264  12.015
33658W        W 2131  43.460  16.140   1.224
33659W        W 2132  32.423  14.304  10.974
33660W        W 2133  21.192  32.598  10.506
33661W        W 2134  23.092  44.921  13.794
33662W        W 2135  18.204  41.387  11.390
33663W        W 2136  14.771  30.146  14.457
33664W        W 2137  28.932  20.702   3.753
33665W        W 2138  32.038  39.854  11.970
33666W        W 2139  14.731  21.241   1.229
33667W        W 2140  42.990  13.305   1.858
33668W        W 2141   9.852  14.213   4.296
33669W        W 2142  30.433  24.570   0.952
33670W        W 2143  40.856  13.615  12.419
33671W        W 2144  36.450  19.595   3.864
33672W        W 2145   2.946  34.914  13.541
33673W        W 2146  13.707  18.579  12.913
33674W        W 2147   2.467  37.376  12.502
33675W        W 2148  25.022  30.027  12.009
33676W        W 2149  27.685  40.031   0.262
33677W        W 2150   3.274  17.082  11.965
33678W        W 2151  39.863  13.794   0.956
33679W        W 2152   4.290  22.051   2.721
33680W        W 2153  36.880  30.940   2.357
33681W        W 2154  25.486  28.076   4.301
33682W        W 2155  33.935  18.694  12.479
33683W        W 2156   3.861   5.257   4.751
33684W        W 2157  14.811  10.301  12.003
33685W        W 2158  30.019  10.817  12.995
33686W        W 2159  18.225  40.521  13.022
33687W        W 2160  10.731  32.094  12.016
33688W        W 2161  17.265   2.915  11.440
33689W        W 2162  29.036  17.671   4.252
33690W        W 2163  31.051  14.146   9.952
33691W        W 2164   8.670  41.475  14.385
33692W        W 2165  31.016  24.635   1.915
33693W        W 2166   4.791  37.963   1.784
33694W        W 2167  32.099  34.566   0.735
33695W        W 2168  12.266   2.830   2.204
33696W        W 2169  29.591  15.221  11.112
33697W        W 2170  42.981   5.722   3.205
33698W        W 2171  11.273  43.357   2.712
33699W        W 2172   5.894  27.516   3.327
33700W        W 2173   0.486  19.621  14.828
33701W        W 2174  33.099  35.474   0.277
33702W        W 2175  30.027  20.555  11.893
33703W        W 2176   3.288  12.849  13.991
33704W        W 2177  19.218  17.178   2.188
33705W        W 2178   6.781   1.886  13.397
33706W        W 2179  33.544  44.955  14.404
33707W        W 2180  23.498  27.587  14.303
33708W        W 2181  31.924  13.760   3.319
33709W        W 2182  18.272   2.779  11.900
33710W        W 2183  36.350  14.153   1.741
33711W        W 2184  37.945  30.050   4.141
33712W        W 2185  12.803  27.177  11.490
33713W        W 2186  22.624   0.300  11.567
33714W        W 2187  28.065   0.863  12.041
33715W        W 2188  40.974   9.739  13.951
33716W        W 2189  23.624  35.857   4.272
33717W        W 2190  12.692  38.491  13.909
33718W        W 2191   4.426  33.944  12.021
33719W        W 2192  40.379  43.333   3.281
33720W        W 2193  37.073  24.098   3.737
33721W        W 2194  25.638  24.659   3.713
33722W        W 2195  27.036  29.043   1.930
33723W        W 2196  33.045  37.539   4.286
33724W        W 2197   9.383  18.268  11.048
33725W        W 2198  27.080  27.949  14.884
33726W        W 2199  15.130  28.540  12.401
33727W        W 2200  16.077  11.719  13.354
33728W        W 2201  27.488  18.656   4.250
33729W        W 2202  40.885  23.003  13.464
33730W        W 2203  15.712  35.939   4.817
33731W        W 2204  35.558  39.011  10.975
33732W        W 2205   7.856  10.162  13.387
33733W        W 2206  31.467  21.233   3.320
33734W        W 2207  26.963   7.411  13.365
33735W        W 2208  29.527  39.423   3.820
33736W        W 2209  34.608   5.722   0.865
33737W        W 2210  17.642  30.988   2.872
33738W        W 2211  24.628  19.652  11.903
33739W        W 2212  15.719  41.997  14.916
33740W        W 2213  12.162  35.040  13.945
33741W        W 2214   6.921  19.642  14.790
33742W        W 2215  31.494  34.519  11.902
33743W        W 2216  17.650  29.568  10.990
33744W        W 2217  37.342  20.066  12.499
33745W        W 2218  30.156  38.406  11.914
33746W        W 2219  36.053  29.992  13.847
33747W        W 2220   5.247  32.117  13.374
33748W        W 2221  39.368   9.823   4.167
33749W        W 2222   1.777  15.180   1.794
33750W        W 2223  20.031  44.906  13.379
33751W        W 2224  38.379  27.514   2.350
33752W        W 2225  22.632   5.362  11.600
33753W        W 2226   2.305  38.397  14.847
33754W        W 2227  30.449   2.941  12.912
33755W        W 2228  28.660  20.707   3.297
33756W        W 2229   9.372  21.250   2.749
33757W        W 2230  23.145  17.755  14.280
33758W        W 2231  26.974  22.645  13.989
33759W        W 2232  37.033  31.066  14.962
33760W        W 2233  12.327  44.959  13.050
33761W        W 2234  42.959  39.398   4.680
33762W        W 2235  10.742  18.775  11.608
33763W        W 2236   7.216  32.410  14.791
33764W        W 2237  29.101  20.195   0.480
33765W        W 2238   6.850  11.622   0.785
33766W        W 2239   7.780  12.137   4.170
33767W        W 2240   5.792  41.028   2.793
33768W        W 2241   7.709   0.818   1.894
33769W        W 2242  39.862  31.079   1.427
33770W        W 2243  10.779  34.017  13.833
33771W        W 2244  34.587   3.942  11.040
33772W        W 2245   9.255  29.556   4.763
33773W        W 2246  32.940  19.588   1.898
33774W        W 2247   4.286  22.109  13.986
33775W        W 2248  11.710  19.646   2.886
33776W        W 2249  43.970  37.914  11.460
33777W        W 2250  41.454  44.389  14.861
33778W        W 2251   5.734  13.681   4.236
33779W        W 2252  16.120   9.808   1.295
33780W        W 2253  31.011  43.847  13.036
33781W        W 2254  41.800   1.416  11.855
33782W        W 2255  26.541   7.189  11.955
33783W        W 2256   9.700  28.665  13.946
33784W        W 2257   5.412  19.645   1.310
33785W        W 2258   6.411  10.284  10.524
33786W        W 2259   5.264  24.081   1.227
33787W        W 2260  27.953   7.688   1.233
33788W        W 2261  29.964  11.789   3.362
33789W        W 2262  44.904   9.281   0.370
33790W        W 2263   9.241  31.450  13.962
33791W        W 2264  24.151  44.344   0.824
33792W        W 2265   3.398   3.758   3.860
33793W        W 2266   0.831  38.376  13.002
33794W        W 2267   9.317   5.195  13.541
33795W        W 2268  24.035  37.366  10.481
33796W        W 2269  38.879  20.195  13.855
33797W        W 2270  16.712  13.246  14.405
33798W        W 2271   2.899   5.920  14.286
33799W        W 2272  19.235  34.446   1.348
33800W        W 2273  31.451  29.173  14.790
33801W        W 2274  15.812  33.046   1.444
33802W        W 2275  13.642  19.637   0.259
33803W        W 2276   6.246  28.969  12.435
33804W        W 2277  25.697  33.006   1.424
33805W        W 2278  18.243  12.126   3.158
33806W        W 2279   3.342  31.029   2.756
33807W        W 2280  26.600   0.941  11.892
33808W        W 2281  30.483  20.166  10.972
33809W        W 2282  34.477  26.972  10.586
33810W        W 2283  27.960  14.826   0.861
33811W        W 2284   8.715  25.503  10.599
33812W        W 2285  20.205  36.981   2.895
33813W        W 2286  30.023   5.312  14.401
33814W        W 2287   9.645  13.819   2.831
33815W        W 2288  38.987  23.549   1.369
33816W        W 2289  24.177  19.776   1.257
33817W        W 2290  30.427  41.469  14.452
33818W        W 2291   0.293  13.149   2.672
33819W        W 2292  42.024  19.695  12.924
33820W        W 2293  10.241  35.512   3.749
33821W        W 2294  23.196  40.912   0.803
33822W        W 2295  22.688  14.703  10.009
33823W        W 2296  35.879  33.592   4.263
33824W        W 2297  40.906  43.406  11.423
33825W        W 2298  27.082   7.189   3.165
33826W        W 2299  31.476   7.900  11.392
33827W        W 2300  27.977  40.855   4.769
33828W        W 2301  25.556  17.703   0.738
33829W        W 2302   0.972  22.583  14.285
33830W        W 2303  19.047   1.974  11.408
33831W        W 2304  30.486   3.935  10.498
33832W        W 2305  35.027  35.927  10.931
33833W        W 2306  26.164  14.160   3.809
33834W        W 2307  17.711  39.933   1.847
33835W        W 2308  21.223   8.234  10.461
33836W        W 2309  18.582  43.487  11.463
33837W        W 2310  33.381  34.996  10.564
33838W        W 2311  11.837  17.704  13.375
33839W        W 2312  18.053  15.205   3.845
33840W        W 2313  12.276  14.246   1.758
33841W        W 2314  24.096  11.182  12.863
33842W        W 2315   7.675   8.762   4.208
33843W        W 2316  13.793  23.011   4.225
33844W        W 2317  39.922  20.577  13.950
33845W        W 2318  25.541  38.368   4.244
33846W        W 2319  14.288  36.045   4.225
33847W        W 2320  15.153  31.986  14.341
33848W        W 2321  15.697  13.760   3.359
33849W        W 2322   2.773  22.571   1.218
33850W        W 2323  26.126   7.295   0.368
33851W        W 2324  20.718  15.221  13.023
33852W        W 2325  32.411  21.710   4.686
33853W        W 2326  37.956   6.909   0.374
33854W        W 2327   9.279  23.708   4.719
33855W        W 2328  29.600  30.078  13.391
33856W        W 2329  26.663  23.692   1.876
33857W        W 2330  27.584  40.466  13.813
33858W        W 2331  37.926  21.695   4.678
33859W        W 2332   3.244  19.645  10.939
33860W        W 2333   6.194   1.832   3.746
33861W        W 2334  39.944  38.842  10.410
33862W        W 2335  25.003  40.851   4.352
33863W        W 2336  26.013  22.700   0.352
33864W        W 2337  20.730   0.796   0.378
33865W        W 2338  21.147  29.607   2.247
33866W        W 2339  37.441   8.374  11.463
33867W        W 2340   1.301  10.231  10.617
33868W        W 2341   8.346  26.686   3.835
33869W        W 2342  18.102  37.379  12.488
33870W        W 2343  32.607  42.463   1.823
33871W        W 2344  10.799  26.586   3.821
33872W        W 2345  15.699  16.282   0.929
33873W        W 2346  43.382  23.063  12.442
33874W        W 2347   1.360  35.096  10.449
33875W        W 2348  44.859   9.175  12.950
33876W        W 2349  22.666   7.212   2.201
33877W        W 2350   3.284   2.437  14.814
33878W        W 2351  35.949  20.249  11.437
33879W        W 2352  18.274  31.955   1.923
33880W        W 2353  40.952  23.037   3.151
33881W        W 2354  38.852   0.385   1.437
33882W        W 2355  39.813   9.317  13.357
33883W        W 2356  29.645  12.694   2.376
33884W        W 2357  37.426   6.801   0.271
33885W        W 2358  31.461  22.542   2.178
33886W        W 2359   7.310  14.271   1.759
33887W        W 2360   8.700  10.215  14.308
33888W        W 2361   3.311  16.231   0.411
33889W        W 2362  29.967  21.686  12.525
33890W        W 2363   6.735  22.171  11.871
33891W        W 2364  34.990  40.409  14.992
33892W        W 2365  18.122  30.938   4.789
33893W        W 2366   1.779  42.787   0.824
33894W        W 2367  10.656  10.331  12.067
33895W        W 2368  21.068  29.495  13.886
33896W        W 2369  15.647  25.524   2.255
33897W        W 2370  29.503  43.829   0.358
33898W        W 2371  16.129  31.512   4.143
33899W        W 2372  39.906  38.538  13.967
33900W        W 2373  32.496   1.929   3.705
33901W        W 2374  22.184  37.508   3.284
33902W        W 2375  20.177  14.654  14.329
33903W        W 2376  15.764  43.968   0.959
33904W        W 2377  32.998  29.581  11.128
33905W        W 2378  19.680   3.228   2.324
33906W        W 2379  34.463  25.066  11.929
33907W        W 2380  16.772  15.137  11.959
33908W        W 2381  35.097   7.833   1.401
33909W        W 2382  11.244   3.284  13.324
33910W        W 2383   1.288  35.439   4.644
33911W        W 2384  13.712  14.285  11.527
33912W        W 2385  28.555  44.849  13.877
33913W        W 2386  28.040  38.552   0.845
33914W        W 2387  18.220  23.656   0.244
33915W        W 2388  32.906   2.247  13.538
33916W        W 2389   2.321  21.254   3.298
33917W        W 2390  15.096   2.459  13.960
33918W        W 2391   7.187  27.656   3.372
33919W        W 2392  39.898  17.652   1.792
33920W        W 2393  36.539  32.903  10.420
33921W        W 2394  39.996  12.702   3.171
33922W        W 2395  13.173  36.885   3.290
33923W        W 2396  11.324  32.044  12.419
33924W        W 2397  39.978  27.138   1.399
33925W        W 2398  36.351   8.828   1.878
33926W        W 2399  35.363   0.287  13.514
33927W        W 2400  25.059  39.862   4.658
33928W        W 2401  24.564  29.136   1.218
33929W        W 2402   2.938  40.900   3.234
33930W        W 2403  40.355  13.651  12.565
33931W        W 2404  26.642  11.742   3.732
33932W        W 2405  15.622  12.325  11.576
33933W        W 2406  29.590  19.090  13.539
33934W        W 2407  36.544  28.929  14.850
33935W        W 2408  30.152  16.282   4.169
33936W        W 2409   5.415  15.709  11.955
33937W        W 2410  16.715   2.387  11.948
33938W        W 2411  38.993  11.642  11.128
33939W        W 2412  20.734  43.959   4.791
33940W        W 2413   0.490  33.618  12.965
33941W        W 2414  30.512   6.186  13.920
33942W        W 2415  25.630  38.545  12.989
33943W        W 2416  28.523   0.329   2.742
33944W        W 2417   0.296  31.088  12.846
33945W        W 2418  29.090   6.681   2.783
33946W        W 2419  13.634  42.801   4.340
33947W        W 2420   1.355  23.492   4.746
33948W        W 2421  29.056  16.250   4.837
33949W        W 2422  42.944  34.032  14.497
33950W        W 2423  21.035  19.108  10.591
33951W        W 2424   9.321  33.000  13.531
33952W        W 2425  39.830  20.716  13.319
33953W        W 2426  38.386  23.699   1.865
33954W        W 2427  38.064  10.706   0.317
33955W        W 2428   6.833  17.127   3.278
33956W        W 2429   2.259  28.622  10.936
33957W        W 2430   0.787  34.542  14.440
33958W        W 2431  27.038   0.330   3.754
33959W        W 2432  10.355  17.596  13.816
33960W        W 2433  35.887  38.473   3.263
33961W        W 2434  21.055  22.016   4.670
33962W        W 2435  29.479  21.744   3.153
33963W        W 2436   4.231  18.195   0.257
33964W        W 2437  35.397  37.086   2.887
33965W        W 2438  36.513  28.616  14.424
33966W        W 2439  40.332  41.891   0.351
33967W        W 2440  31.455  22.162  13.432
33968W        W 2441  42.997  40.973   3.272
33969W        W 2442  25.705  22.733   3.863
33970W        W 2443   2.774  42.814  14.377
33971W        W 2444  26.187  27.027  14.763
33972W        W 2445  16.303   3.255   2.412
33973W        W 2446  10.319  19.733   1.827
33974W        W 2447  34.043   3.385  12.457
33975W        W 2448  13.188  27.546  12.535
33976W        W 2449   8.252  25.684  13.794
33977W        W 2450  43.359  19.593   1.925
33978W        W 2451  29.094  35.452   0.787
33979W        W 2452  41.430  42.425  14.009
33980W        W 2453   9.394  13.633  13.530
33981W        W 2454  29.023  31.511   0.376
33982W        W 2455  11.245  21.512  14.436
33983W        W 2456  22.105  26.967  11.554
33984W        W 2457  11.774  10.176  11.880
33985W        W 2458   5.354  35.019   1.791
33986W        W 2459   2.864  32.992  11.875
33987W        W 2460  24.524  20.580   1.718
33988W        W 2461  38.502  35.600  12.978
33989W        W 2462  33.970  14.326  13.849
33990W        W 2463   9.775   8.172  11.488
33991W        W 2464  10.846  15.779  10.954
33992W        W 2465  21.512   5.293  11.423
33993W        W 2466  14.165   9.819   0.446
33994W        W 2467  25.675   1.740   2.788
33995W        W 2468  18.142  44.306   0.447
33996W        W 2469  27.558  26.103  12.532
33997W        W 2470  15.154  38.509   3.217
33998W        W 2471  18.730  38.878   2.874
33999W        W 2472  40.946   9.338   1.323
34000W        W 2473   1.766   1.379  12.553
34001W        W 2474  43.393  30.001  10.903
34002W        W 2475   9.705  10.263   2.748
34003W        W 2476  22.092  30.961  14.923
34004W        W 2477   1.342  19.661  10.999
34005W        W 2478  14.250  41.535  10.917
34006W        W 2479  36.919   8.811   4.624
34007W        W 2480  40.500   1.738   3.689
34008W        W 2481  40.543  31.921  14.951
34009W        W 2482  26.491  36.095  13.818
34010W        W 2483  10.352  23.063  14.892
34011W        W 2484   4.289  34.867   1.695
34012W        W 2485  33.550  33.986   1.383
34013W        W 2486   9.841  38.559   0.363
34014W        W 2487   6.230  13.347   4.205
34015W        W 2488  33.394   6.229  10.603
34016W        W 2489  28.617  38.505  10.573
34017W        W 2490  12.151  18.113   1.888
34018W        W 2491  33.383   0.823  13.951
34019W        W 2492  13.838   4.310   0.389
34020W        W 2493   4.885   3.921   4.767
34021W        W 2494  39.834  41.902   0.909
34022W        W 2495  39.917   8.741   1.295
34023W        W 2496  32.926  42.872   3.367
34024W        W 2497  28.116  40.439   3.234
34025W        W 2498  44.480  22.726   5.135
34026W        W 2499  32.431  44.398  12.530
34027W        W 2500  34.970   6.290   0.921
34028W        W 2501  38.343  30.640  10.420
34029W        W 2502  11.180  20.685  11.505
34030W        W 2503  30.959  17.730  13.504
34031W        W 2504  42.844  43.932  14.015
34032W        W 2505  38.978  40.969  11.014
34033W        W 2506  26.952  35.374  11.497
34034W        W 2507  21.699  35.563   4.784
34035W        W 2508  33.604  43.812   2.715
34036W        W 2509   7.827  33.905  14.308
34037W        W 2510  35.450  34.396   4.818
34038W        W 2511  39.973   7.868   1.294
34039W        W 2512   4.424  28.139   1.764
34040W        W 2513  22.208  18.202   3.858
34041W        W 2514  38.895  44.872   4.325
34042W        W 2515   9.199  34.967  12.017
34043W        W 2516  43.894  43.837   2.718
34044W        W 2517  14.776  17.696   3.235
34045W        W 2518   3.821  39.871   4.619
34046W        W 2519  10.795  30.605   4.214
34047W        W 2520   1.782  41.424   4.656
34048W        W 2521  24.018  32.405  10.577
34049W        W 2522  35.578  15.207  14.445
34050W        W 2523   4.208  32.399  14.863
34051W        W 2524  22.588  21.179  14.293
34052W        W 2525  36.873  21.046   0.450
34053W        W 2526  22.551  35.459   1.325
34054W        W 2527   6.207   8.734   1.933
34055W        W 2528  20.570  13.236   0.385
34056W        W 2529  11.853  27.662   4.617
34057W        W 2530  42.807  42.929  13.947
34058W        W 2531  37.848  24.214   2.762
34059W        W 2532  42.002  19.643   1.907
34060W        W 2533  41.810  17.142   1.329
34061W        W 2534  12.180  41.965   0.758
34062W        W 2535  29.556   8.244  13.845
34063W        W 2536  29.069  24.725   5.195
34064W        W 2537  21.191  11.780  13.337
34065W        W 2538  24.555  28.949   1.786
34066W        W 2539  40.346  20.114  11.915
34067W        W 2540  18.123  19.199  13.878
34068W        W 2541  20.260   8.371   2.690
34069W        W 2542  37.406  32.491   0.285
34070W        W 2543  17.240   0.440   4.249
34071W        W 2544  41.343  32.532   4.599
34072W        W 2545  36.585  10.675  11.982
34073W        W 2546   6.231   0.872  14.833
34074W        W 2547   1.254  43.950   1.831
34075W        W 2548  22.673  41.944  14.006
34076W        W 2549  27.969  24.575   1.857
34077W        W 2550  11.687   5.417   0.394
34078W        W 2551   6.250  22.535   2.888
34079W        W 2552  35.574  21.128  11.400
34080W        W 2553   6.796  27.011  11.577
34081W        W 2554  12.318  33.557  10.064
34082W        W 2555   2.425  22.743   4.802
34083W        W 2556   0.807  15.101   1.775
34084W        W 2557  12.118  23.212   0.457
34085W        W 2558  43.904  36.970   3.249
34086W        W 2559  15.293  30.915  12.433
34087W        W 2560   8.886  19.233   4.742
34088W        W 2561  14.780   1.414  13.449
34089W        W 2562  25.091  34.538  13.518
34090W        W 2563  40.391  27.515   2.299
34091W        W 2564  39.928   3.824  12.959
34092W        W 2565  38.031  22.733   0.409
34093W        W 2566  19.605  37.429   0.438
34094W        W 2567  22.086  31.527   4.761
34095W        W 2568  13.771  22.221  11.883
34096W        W 2569   2.329  12.699  11.407
34097W        W 2570  39.964  32.584   2.202
34098W        W 2571  39.411  41.441  11.486
34099W        W 2572  21.181  29.109   3.379
34100W        W 2573   0.406  31.511  11.966
34101W        W 2574  25.218   2.867  13.538
34102W        W 2575  30.933  14.338  11.035
34103W        W 2576  34.110   9.327   4.684
34104W        W 2577  39.527   9.824  13.545
34105W        W 2578  43.985  17.568  12.027
34106W        W 2579  13.734   0.781  13.342
34107W        W 2580  27.447  12.682   1.329
34108W        W 2581   6.810   6.379  11.453
34109W        W 2582  17.596  26.955   1.808
34110W        W 2583   0.460  11.277   0.436
34111W        W 2584  25.080  27.077  13.985
34112W        W 2585  19.231   7.298   2.308
34113W        W 2586   6.190  39.038   4.789
34114W        W 2587  37.445  39.380  11.559
34115W        W 2588   8.202  10.314  10.088
34116W        W 2589   9.160   3.420   2.373
34117W        W 2590   8.813  32.006  10.936
34118W        W 2591  20.192   9.315  14.993
34119W        W 2592  27.550  23.071   1.741
34120W        W 2593   7.189  35.088  12.447
34121W        W 2594   6.232  30.502  11.012
34122W        W 2595  16.673  23.160   1.752
34123W        W 2596  23.611  40.515  10.527
34124W        W 2597   6.300  13.336  10.424
34125W        W 2598  39.900   0.318  13.393
34126W        W 2599  14.634  36.916   4.633
34127W        W 2600  12.815  41.798  13.858
34128W        W 2601   2.932  28.554   1.809
34129W        W 2602  14.784  17.783  11.596
34130W        W 2603   2.442  35.044  12.088
34131W        W 2604  10.182  40.541   1.716
34132W        W 2605   6.283  29.547  10.514
34133W        W 2606  41.443  27.482  11.068
34134W        W 2607  43.803  23.015  12.447
34135W        W 2608   1.381  14.231  14.830
34136W        W 2609  22.116  11.299  12.473
34137W        W 2610  11.821  38.563  11.025
34138W        W 2611   1.861   3.345  11.508
34139W        W 2612  39.045  34.868  14.489
34140W        W 2613   6.199  35.877  13.816
34141W        W 2614  44.765  26.088   2.790
34142W        W 2615   4.844   8.687   4.721
34143W        W 2616  44.836  30.115   1.918
34144W        W 2617  18.672  31.585  12.518
34145W        W 2618   7.338  43.946  12.074
34146W        W 2619  11.244  17.571  12.977
34147W        W 2620  40.359  19.605   4.269
34148W        W 2621  19.640  14.115  14.381
34149W        W 2622  40.454   1.816  13.442
34150W        W 2623  21.062  25.579   0.946
34151W        W 2624   0.794   1.909  13.353
34152W        W 2625  31.430  20.121  13.047
34153W        W 2626   5.919  40.866  13.964
34154W        W 2627  11.223   7.403  12.484
34155W        W 2628   6.245  18.754  12.827
34156W        W 2629  23.507  44.938  10.135
34157W        W 2630  36.361  44.421  13.444
34158W        W 2631  11.188   7.910  14.413
34159W        W 2632  24.130  11.732   1.402
34160W        W 2633  42.362   6.403  14.916
34161W        W 2634  30.478  33.073  12.940
34162W        W 2635  12.208  29.113  14.422
34163W        W 2636  14.228  12.690  13.388
34164W        W 2637  21.117   4.331   3.714
34165W        W 2638   8.756   5.838   2.189
34166W        W 2639  41.319  40.050   1.896
34167W        W 2640  18.095  35.461  12.400
34168W        W 2641   3.907   9.817  11.096
34169W        W 2642  16.711  10.194  12.500
34170W        W 2643  11.149  19.768   1.922
34171W        W 2644  26.619  25.205  12.386
34172W        W 2645  14.114  33.036   3.815
34173W        W 2646  44.494  32.010  13.536
34174W        W 2647  35.468  32.589  12.445
34175W        W 2648  30.420  39.465   1.395
34176W        W 2649   9.758  35.081   3.851
34177W        W 2650  15.211   5.721  13.538
34178W        W 2651   8.165  36.928   3.650
34179W        W 2652   6.380  19.750  13.867
34180W        W 2653  13.674   8.678   2.307
34181W        W 2654  32.632  30.519  14.374
34182W        W 2655  20.088  21.259  10.629
34183W        W 2656  43.779  17.571   3.795
34184W        W 2657   6.706  39.062  10.955
34185W        W 2658   1.429  35.105  13.400
34186W        W 2659   3.782   8.879   0.930
34187W        W 2660  16.637  13.627  13.799
34188W        W 2661  37.389  30.488  12.932
34189W        W 2662  18.295  11.820   2.763
34190W        W 2663  35.950  43.466   5.207
34191W        W 2664  27.018   1.399   1.356
34192W        W 2665  37.063  36.073   2.368
34193W        W 2666  38.498  28.001   4.127
34194W        W 2667  34.422  32.917   3.314
34195W        W 2668  13.167  36.400   0.337
34196W        W 2669  28.090  44.368   1.380
34197W        W 2670  29.931   1.462  14.495
34198W        W 2671  28.636  42.961   4.153
34199W        W 2672  18.225  36.980  14.406
34200W        W 2673  27.956  26.461  10.553
34201W        W 2674  21.159   3.328   4.325
34202W        W 2675  41.321   8.280  14.014
34203W        W 2676  24.203  43.885  12.964
34204W        W 2677   8.901  16.587  13.852
34205W        W 2678  22.742  27.664  12.985
34206W        W 2679  33.021   2.959  10.563
34207W        W 2680   5.898  41.411   2.273
34208W        W 2681  26.113  31.098  12.507
34209W        W 2682   0.778   7.801  11.010
34210W        W 2683  22.543  13.174  13.804
34211W        W 2684  44.405  32.132   9.938
34212W        W 2685  40.847  43.892  12.855
34213W        W 2686   9.223  35.060  13.482
34214W        W 2687  34.947  28.485  12.946
34215W        W 2688   7.256   2.421  14.959
34216W        W 2689   0.747  26.669   2.763
34217W        W 2690  21.099   7.705   4.727
34218W        W 2691  36.955  12.744   1.237
34219W        W 2692  17.712  16.799  13.971
34220W        W 2693   0.308  43.323   2.889
34221W        W 2694   5.820  13.327  12.025
34222W        W 2695  22.686  38.570   3.790
34223W        W 2696  27.667   1.295  11.529
34224W        W 2697  29.038  13.193  13.901
34225W        W 2698  38.483  13.757  12.430
34226W        W 2699  32.909   3.775  13.458
34227W        W 2700   1.962  35.962   4.148
34228W        W 2701  42.463  44.458  10.483
34229W        W 2702  13.227  12.275   3.167
34230W        W 2703  25.662  24.637  13.450
34231W        W 2704  21.019  33.934   0.877
34232W        W 2705  39.465  27.050  12.984
34233W        W 2706  36.917  19.132  11.947
34234W        W 2707  19.640  20.184  14.348
34235W        W 2708  39.492   3.394  11.028
34236W        W 2709  15.765   0.307   4.682
34237W        W 2710  11.669  10.635  14.898
34238W        W 2711   8.284  43.516   2.823
34239W        W 2712  40.004  28.020   3.174
34240W        W 2713  43.501  15.650   2.690
34241W        W 2714  12.682  24.657  12.828
34242W        W 2715  26.642  44.401   2.230
34243W        W 2716  11.703   4.776  11.071
34244W        W 2717  14.773   1.780  11.114
34245W        W 2718   7.188  44.486  14.326
34246W        W 2719  44.456  37.483   5.171
34247W        W 2720  31.025  37.974  12.522
34248W        W 2721  43.385  35.982   0.862
34249W        W 2722   4.440  11.741   4.687
34250W        W 2723  14.630   2.961   0.437
34251W        W 2724   9.720  28.941   1.736
34252W        W 2725  42.022  21.024  14.451
34253W        W 2726  27.015  30.041   0.399
34254W        W 2727  12.251  20.759  12.085
34255W        W 2728  37.443   5.369  13.929
34256W        W 2729  44.781  41.024  14.483
34257W        W 2730   7.706   8.166  14.410
34258W        W 2731  17.295  28.122  11.920
34259W        W 2732  27.677  20.638   3.850
34260W        W 2733  10.847  19.675  14.993
34261W        W 2734  14.271   6.262   4.616
34262W        W 2735   0.827  34.561   3.369
34263W        W 2736   9.379  36.922  12.900
34264W        W 2737  39.825  34.492   0.738
34265W        W 2738  34.591  12.624   4.152
34266W        W 2739   9.173  34.017  11.434
34267W        W 2740  20.754  31.428  10.896
34268W        W 2741  16.074   9.281  12.035
34269W        W 2742   2.418  11.775  13.394
34270W        W 2743  24.558  11.341  13.805
34271W        W 2744   4.782  36.457   4.162
34272W        W 2745  39.473   3.311  11.467
34273W        W 2746  40.005  35.412   0.761
34274W        W 2747  37.889  14.787   1.815
34275W        W 2748   0.743  17.747   0.427
34276W        W 2749  22.610  34.371  11.502
34277W        W 2750  17.667  30.014   1.724
34278W        W 2751  31.417   6.780   3.181
34279W        W 2752  15.795  28.609  11.025
34280W        W 2753  16.260  44.800   1.873
34281W        W 2754  31.631  20.553  11.568
34282W        W 2755  43.270   6.196   2.317
34283W        W 2756   8.189  11.840  10.503
34284W        W 2757  15.141  39.441   3.779
34285W        W 2758  43.948   8.348  12.012
34286W        W 2759  43.855  31.561  14.494
34287W        W 2760  17.224  34.526   0.842
34288W        W 2761  12.153  39.937  14.918
34289W        W 2762   1.349  19.229  10.462
34290W        W 2763   8.870  42.995  14.024
34291W        W 2764  42.961  30.453   2.892
34292W        W 2765   0.766  43.498  11.083
34293W        W 2766  28.143  14.321  10.139
34294W        W 2767  11.846  12.336   4.701
34295W        W 2768  32.552  36.455   2.723
34296W        W 2769  34.014  39.530   4.782
34297W        W 2770  27.524  11.702  13.390
34298W        W 2771  29.140  36.979  10.461
34299W        W 2772  34.528   1.800  14.442
34300W        W 2773  44.927  40.410   2.681
34301W        W 2774  40.326  11.225   0.827
34302W        W 2775  20.745  12.267   0.457
34303W        W 2776  42.480  11.759  10.563
34304W        W 2777  30.453   7.263  14.303
34305W        W 2778   4.856  22.159  12.909
34306W        W 2779  35.501  28.465   2.840
34307W        W 2780  14.269  19.191   3.294
34308W        W 2781  35.074   6.384   1.382
34309W        W 2782   5.779  39.048   4.815
34310W        W 2783  16.729  28.142  14.845
34311W        W 2784  22.054   4.214   2.712
34312W        W 2785  40.849  32.929  12.976
34313W        W 2786  16.279  10.635   3.194
34314W        W 2787  22.596  25.630   0.244
34315W        W 2788   7.387  37.036  11.501
34316W        W 2789  34.385  13.795  10.551
34317W        W 2790  34.461  37.378   2.808
34318W        W 2791   5.337  29.662  14.839
34319W        W 2792   5.210  32.520  14.463
34320W        W 2793  23.173  25.962   2.837
34321W        W 2794   9.697  27.155   1.785
34322W        W 2795   8.185  32.889   2.218
34323W        W 2796  29.069   2.280  13.915
34324W        W 2797  26.081   4.926   2.797
34325W        W 2798   0.802  34.095  12.459
34326W        W 2799   8.234   0.906   0.395
34327W        W 2800   9.832  41.983   4.720
34328W        W 2801  41.372  32.896  11.932
34329W        W 2802   8.788   1.775   1.447
34330W        W 2803  36.377   6.738   2.781
34331W        W 2804  32.616  30.125  13.335
34332W        W 2805  16.215  32.946   1.309
34333W        W 2806  35.534   9.153   4.680
34334W        W 2807   5.291  19.208  11.373
34335W        W 2808  33.966   8.263   0.756
34336W        W 2809  29.161   1.895   2.372
34337W        W 2810  10.171  33.034  11.549
34338W        W 2811  26.488  29.033   2.269
34339W        W 2812  28.567  35.082   2.236
34340W        W 2813  19.215  36.082  14.280
34341W        W 2814  13.831  20.076   3.362
34342W        W 2815  27.511  39.458  12.575
34343W        W 2816  12.626  17.171   2.742
34344W        W 2817   7.213  16.638  11.378
34345W        W 2818  17.181  29.920  10.415
34346W        W 2819  12.805  21.621   2.735
34347W        W 2820  39.387  44.369   1.795
34348W        W 2821  38.447  27.103   1.746
34349W        W 2822   8.282  28.475   4.800
34350W        W 2823  43.302  22.660   3.715
34351W        W 2824  41.813   0.851   4.833
34352W        W 2825   9.336  32.491   2.725
34353W        W 2826  29.532  41.835  12.042
34354W        W 2827  37.476  36.021  10.506
34355W        W 2828  34.944  41.466  10.941
34356W        W 2829  24.106  28.616   3.865
34357W        W 2830  11.812  42.880   0.482
34358W        W 2831   2.801  41.478  11.447
34359W        W 2832  21.727  28.052   1.932
34360W        W 2833  24.638  26.139   4.615
34361W        W 2834  26.116  37.570   0.281
34362W        W 2835   5.294  18.718  10.452
34363W        W 2836  33.941  43.997  10.556
34364W        W 2837   3.935  16.094  14.324
34365W        W 2838  44.498  20.216  13.954
34366W        W 2839   5.697  20.730   3.854
34367W        W 2840  36.470  32.458  13.398
34368W        W 2841  34.553  39.403  10.521
34369W        W 2842  10.197   6.719  14.465
34370W        W 2843  43.446   0.750  12.428
34371W        W 2844   1.830  26.005  13.862
34372W        W 2845  30.006  19.573   1.718
34373W        W 2846  35.870  38.415  13.871
34374W        W 2847  39.409  32.963  13.864
34375W        W 2848  18.599  11.342   2.260
34376W        W 2849  26.577  29.072   1.255
34377W        W 2850  19.252   2.900  10.478
34378W        W 2851  37.364  22.670   4.218
34379W        W 2852   2.244  35.947  12.502
34380W        W 2853  39.972  12.208  11.970
34381W        W 2854  11.307  25.711   1.385
34382W        W 2855   6.754  38.059  12.342
34383W        W 2856  24.175  26.167   1.869
34384W        W 2857   7.410  12.819   2.694
34385W        W 2858  38.364   7.319  11.946
34386W        W 2859  36.099  24.512   3.728
34387W        W 2860  11.706  40.326   1.449
34388W        W 2861   6.411  34.057   3.723
34389W        W 2862   5.422  31.126   2.416
34390W        W 2863  33.529  16.797  14.407
34391W        W 2864  39.987  23.219  13.380
34392W        W 2865  31.036  19.663   3.194
34393W        W 2866  39.915   0.307  12.045
34394W        W 2867  14.657  11.811   2.701
34395W        W 2868  19.564   9.889  14.984
34396W        W 2869   7.255  29.552  11.396
34397W        W 2870  33.039  27.005   3.713
34398W        W 2871   6.680   5.217   3.271
34399W        W 2872  23.689  20.715  13.901
34400W        W 2873  31.480  31.634   0.366
34401W        W 2874  27.493   6.253  14.902
34402W        W 2875  24.091  28.067  13.019
34403W        W 2876  34.390  43.856  10.418
34404W        W 2877  38.450  25.713  14.003
34405W        W 2878  16.237  14.277  11.372
34406W        W 2879  20.268   1.912  14.865
34407W        W 2880  38.560  28.064  13.035
34408W        W 2881  18.110  13.620  11.989
34409W        W 2882   0.261  36.856   2.278
34410W        W 2883  39.322  28.674  13.968
34411W        W 2884   6.835   6.417   4.663
34412W        W 2885  31.093  34.466  13.798
34413W        W 2886  17.738  39.332  12.446
34414W        W 2887  35.071   3.345  11.962
34415W        W 2888   4.869  10.664  11.974
34416W        W 2889   8.657  22.175   9.970
34417W        W 2890   8.759  35.018   3.791
34418W        W 2891  44.286   0.395  10.039
34419W        W 2892   7.852  25.706   2.225
34420W        W 2893  21.737  13.231  13.969
34421W        W 2894   4.439  13.252  12.850
34422W        W 2895  42.899   9.693   1.820
34423W        W 2896   9.856  22.153   0.462
34424W        W 2897  19.618   3.901  11.977
34425W        W 2898   3.839  42.968   4.746
34426W        W 2899  20.084  38.482  13.865
34427W        W 2900  13.273   4.850  10.618
34428W        W 2901   7.383   5.916  14.485
34429W        W 2902  25.521  42.923   0.386
34430W        W 2903  31.077  17.082  12.865
34431W        W 2904   7.356  20.262  13.537
34432W        W 2905   0.916  43.967   3.858
34433W        W 2906  28.648  39.893   3.353
34434W        W 2907  28.669  30.101  10.404
34435W        W 2908  21.031   2.252  13.800
34436W        W 2909  24.541   1.771   0.730
34437W        W 2910  43.336  16.684  14.923
34438W        W 2911  42.777  43.494   1.726
34439W        W 2912  35.902  43.017   3.147
34440W        W 2913   4.893   8.852   0.852
34441W        W 2914  44.344  39.503  11.942
34442W        W 2915   8.729   1.969  10.632
34443W        W 2916  13.741  26.658   4.243
34444W        W 2917  29.019  21.022  10.902
34445W        W 2918  20.758  38.528   1.216
34446W        W 2919  38.883  41.344  12.016
34447W        W 2920  34.433  23.554   2.824
34448W        W 2921  34.100  15.287  12.546
34449W        W 2922  23.492  17.061   2.207
34450W        W 2923  16.310  19.149   1.753
34451W        W 2924   0.947  19.211   4.187
34452W        W 2925  18.285  25.987   3.239
34453W        W 2926  36.946  19.648  13.482
34454W        W 2927  31.599  43.985  12.061
34455W        W 2928   5.352  14.315   2.709
34456W        W 2929  37.381  12.622   1.279
34457W        W 2930  43.270  19.042   2.777
34458W        W 2931  38.017  31.933   2.405
34459W        W 2932  17.190  26.546  12.065
34460W        W 2933  44.919  30.916   3.293
34461W        W 2934  26.194  15.109  12.546
34462W        W 2935  36.533  27.565  11.034
34463W        W 2936  20.160  23.629   4.670
34464W        W 2937  25.997  23.048   3.262
34465W        W 2938  34.120  34.475   3.165
34466W        W 2939  11.328  25.047   0.403
34467W        W 2940   0.916  19.754   3.717
34468W        W 2941  25.661  19.199   4.631
34469W        W 2942  19.669  22.173  14.340
34470W        W 2943  24.517   2.865   1.307
34471W        W 2944  21.176  15.746   1.412
34472W        W 2945   9.245  14.744   3.839
34473W        W 2946  42.498  22.175  11.534
34474W        W 2947  43.448  39.875  11.507
34475W        W 2948   6.790  13.212  14.494
34476W        W 2949  22.618  10.759   1.895
34477W        W 2950  42.365  19.178  14.330
34478W        W 2951  32.120  26.207   5.267
34479W        W 2952  17.222   3.334  11.533
34480W        W 2953   9.843   8.281   2.792
34481W        W 2954  31.446  15.292   1.225
34482W        W 2955  36.433  11.307  13.366
34483W        W 2956  28.484  40.386  13.832
34484W        W 2957   4.864   5.304  10.436
34485W        W 2958   4.929  27.455  11.018
34486W        W 2959   2.828  24.620  14.800
34487W        W 2960  33.457  23.014   0.449
34488W        W 2961  27.044  28.044   0.947
34489W        W 2962  40.355  40.549   5.264
34490W        W 2963  15.312  18.186   0.897
34491W        W 2964  29.437  14.287   0.777
34492W        W 2965  21.021  44.760  10.622
34493W        W 2966  26.619   2.235  11.516
34494W        W 2967  39.528  14.303  10.513
34495W        W 2968   6.304   4.805  14.908
34496W        W 2969  29.921  28.478  11.870
34497W        W 2970  33.976   6.915  11.898
34498W        W 2971  23.598   8.863   4.610
34499W        W 2972  18.568   8.829  10.644
34500W        W 2973  22.096  13.814  14.003
34501W        W 2974  23.235   4.878   2.205
34502W        W 2975  12.793  12.216   4.141
34503W        W 2976  10.204  11.804  10.611
34504W        W 2977  40.815   0.965   3.774
34505W        W 2978  39.353  42.404   4.334
34506W        W 2979  37.352  12.247  11.546
34507W        W 2980  20.073  10.635   0.414
34508W        W 2981  38.957  40.837  10.505
34509W        W 2982  16.702  39.494   2.189
34510W        W 2983  19.656  13.824  13.342
34511W        W 2984   7.866  17.087  12.008
34512W        W 2985  22.023  27.452   0.903
34513W        W 2986  24.986  22.615  12.510
34514W        W 2987  37.491  29.031   0.368
34515W        W 2988  21.725  26.203  11.592
34516W        W 2989  29.025   3.729  13.900
34517W        W 2990  36.462  16.221  14.417
34518W        W 2991  42.283  13.711  14.463
34519W        W 2992   8.788   2.267  13.898
34520W        W 2993  43.406  21.198  11.054
34521W        W 2994  33.884  24.569   4.279
34522W        W 2995  37.551  43.366   1.238
34523W        W 2996  29.455  39.937   0.472
34524W        W 2997  21.083  26.044  13.409
34525W        W 2998  25.215  35.955   4.319
34526W        W 2999  22.102  44.340   1.891
34527W        W 3000  26.116  35.538   1.907
34528W        W 3001  15.709  35.969   2.695
34529W        W 3002  27.179  27.031   0.919
34530W        W 3003  21.259  30.050  13.838
34531W        W 3004  20.761  25.475  13.535
34532W        W 3005   7.713  24.071   0.438
34533W        W 3006  13.339  16.679  14.020
34534W        W 3007  22.151  41.467  13.995
34535W        W 3008  10.243  23.041   2.277
34536W        W 3009  21.699  20.660   0.347
34537W        W 3010   8.750  28.476   1.421
34538W        W 3011  27.630  21.614  11.927
34539W        W 3012  38.845  22.012   3.294
34540W        W 3013   9.879   8.660  13.954
34541W        W 3014  12.218   9.851   4.709
34542W        W 3015  17.094  18.757  11.511
34543W        W 3016  25.016  31.469   0.361
34544W        W 3017  12.304  14.650  11.421
34545W        W 3018  20.735  10.158  12.939
34546W        W 3019   6.802   4.868  10.563
34547W        W 3020  26.029  29.498   3.699
34548W        W 3021   9.714  15.764   3.870
34549W        W 3022   4.296   2.392  13.892
34550W        W 3023  28.146  18.768   1.329
34551W        W 3024   7.870  22.158  14.909
34552W        W 3025  34.955  42.901  14.436
34553W        W 3026  38.511  41.332  14.822
34554W        W 3027   5.339  26.092   0.331
34555W        W 3028   8.671  34.040  14.024
34556W        W 3029  15.216  41.374  13.842
34557W        W 3030  32.426   5.910  10.938
34558W        W 3031  14.611   0.437   3.827
34559W        W 3032  33.930  36.050   2.718
34560W        W 3033  29.551  19.129   0.249
34561W        W 3034  28.941  22.036   2.830
34562W        W 3035  17.571  35.570  13.884
34563W        W 3036  39.872   3.226   1.859
34564W        W 3037  24.482   2.738  10.910
34565W        W 3038  14.236  38.980   9.607
34566W        W 3039  30.560  38.496   2.353
34567W        W 3040  40.408  33.931   0.773
34568W        W 3041   0.820  44.322   2.418
34569W        W 3042   5.788  18.588  13.021
34570W        W 3043  18.723  36.874  11.497
34571W        W 3044   1.797  26.512   2.685
34572W        W 3045  28.476   3.737  14.909
34573W        W 3046  37.338   8.747   4.215
34574W        W 3047  22.136  36.562  10.587
34575W        W 3048  25.643  34.998   0.910
34576W        W 3049  26.161  39.514  10.442
34577W        W 3050  12.197   2.339  13.497
34578W        W 3051   9.799   1.330   2.714
34579W        W 3052  35.541  15.656  13.309
34580W        W 3053  21.071  43.509  12.384
34581W        W 3054  22.187  18.116   4.634
34582W        W 3055  32.486   6.355   1.800
34583W        W 3056   1.376  43.370  13.859
34584W        W 3057  13.754  31.643   3.264
34585W        W 3058  37.023  10.714  11.382
34586W        W 3059  44.818  27.196   3.257
34587W        W 3060  38.372   3.721   0.364
34588W        W 3061  35.952  17.096   0.831
34589W        W 3062  39.330  44.445   4.726
34590W        W 3063  21.189  40.861   1.277
34591W        W 3064  29.098   9.739   1.260
34592W        W 3065  44.364  44.951  14.030
34593W        W 3066   6.695  11.626   4.250
34594W        W 3067   6.198   7.878   4.350
34595W        W 3068  41.801  40.979   3.231
34596W        W 3069   5.430  24.570  10.969
34597W        W 3070  29.614   0.934  12.939
34598W        W 3071   1.746  21.092   4.332
34599W        W 3072  41.874  37.881  12.566
34600W        W 3073  31.467  25.662   0.726
34601W        W 3074   4.876  25.111   3.255
34602W        W 3075   3.882  37.858   3.867
34603W        W 3076  25.527  29.502   4.663
34604W        W 3077   9.372  23.182   3.367
34605W        W 3078  28.985  22.731  14.807
34606W        W 3079  10.751   3.428   4.164
34607W        W 3080  19.232  33.554  14.763
34608W        W 3081  35.548   7.314  12.932
34609W        W 3082   6.896  19.069  12.915
34610W        W 3083  32.985  30.966   2.752
34611W        W 3084  27.139  29.172  14.316
34612W        W 3085  38.966   9.679   3.317
34613W        W 3086  32.449  33.906   4.258
34614W        W 3087  40.813  23.061  13.884
34615W        W 3088  12.752   1.312   3.632
34616W        W 3089  40.041  30.500   0.788
34617W        W 3090  39.327  25.541  11.422
34618W        W 3091   4.217  25.159   2.322
34619W        W 3092  18.684  12.717   4.700
34620W        W 3093   6.198  10.261   4.600
34621W        W 3094  30.576  13.230   4.644
34622W        W 3095  42.435  40.462  14.017
34623W        W 3096  19.580  21.538  12.096
34624W        W 3097   5.830  13.645  14.788
34625W        W 3098  22.073   4.809  11.878
34626W        W 3099  32.036  18.648  11.066
34627W        W 3100  19.163   8.315  14.767
34628W        W 3101  22.664   7.822  14.406
34629W        W 3102  34.398  14.610  11.583
34630W        W 3103  16.072  21.141   4.191
34631W        W 3104  24.687  16.610   0.753
34632W        W 3105  15.744  33.108   1.916
34633W        W 3106   8.759  41.042   2.882
34634W        W 3107  28.055   5.870   9.936
34635W        W 3108  37.454  11.633  14.843
34636W        W 3109  28.569  27.574  12.496
34637W        W 3110  40.392  12.624  11.604
34638W        W 3111   1.844  42.435   3.672
34639W        W 3112  32.975   9.269  13.352
34640W        W 3113  25.696  35.955   1.750
34641W        W 3114   9.313   1.871  13.965
34642W        W 3115   6.815  19.685  12.443
34643W        W 3116  39.999  28.962   3.830
34644W        W 3117  40.853  44.432  11.551
34645W        W 3118  43.854   1.758  10.483
34646W        W 3119  12.735  26.611   2.348
34647W        W 3120  34.040  30.078   2.277
34648W        W 3121   7.748  16.171   0.466
34649W        W 3122  20.042  44.332  11.966
34650W        W 3123   4.709  37.947   1.283
34651W        W 3124  30.071  28.679   4.204
34652W        W 3125  33.512   0.286  14.029
34653W        W 3126  32.073   8.253   2.393
34654W        W 3127  25.694   9.161  10.517
34655W        W 3128  19.737  41.385  12.048
34656W        W 3129  36.844  37.086   2.749
34657W        W 3130  31.080  44.426  11.453
34658W        W 3131  24.988  27.966   4.792
34659W        W 3132  15.744  15.313  14.867
34660W        W 3133  12.769  28.453   4.634
34661W        W 3134  25.588  44.266   4.665
34662W        W 3135   8.866  39.438  11.121
34663W        W 3136  19.676  27.628  13.328
34664W        W 3137  10.358   1.775  13.970
34665W        W 3138  37.384   1.922  14.494
34666W        W 3139  13.203  44.835   0.741
34667W        W 3140  15.118  26.070  13.029
34668W        W 3141   0.981  18.254   2.322
34669W        W 3142  33.537  41.337  10.147
34670W        W 3143  38.535  17.247  14.818
34671W        W 3144  36.438  24.717   3.244
34672W        W 3145  26.036  35.491   2.268
34673W        W 3146  22.125   3.359   0.942
34674W        W 3147  32.003  14.693   2.836
34675W        W 3148  38.410   7.219   2.725
34676W        W 3149   1.299  22.718  14.942
34677W        W 3150   8.190   4.285  11.991
34678W        W 3151  28.004  14.749  14.976
34679W        W 3152   1.458  19.267  11.438
34680W        W 3153  29.101  25.495  14.929
34681W        W 3154  22.730  29.503   4.148
34682W        W 3155  44.497  28.462  11.104
34683W        W 3156   0.765   4.890   4.245
34684W        W 3157  21.253  31.031   2.666
34685W        W 3158  20.597  15.601   4.819
34686W        W 3159   2.937  26.505  10.489
34687W        W 3160  14.215  18.710   4.338
34688W        W 3161  33.027  39.397   0.374
34689W        W 3162  42.336  30.989   2.288
34690W        W 3163  22.231  18.150   3.257
34691W        W 3164  15.578  13.816  13.409
34692W        W 3165   6.264  27.973  10.013
34693W        W 3166  30.094  44.792   1.825
34694W        W 3167   9.199  40.910   3.178
34695W        W 3168  23.202  37.557   2.318
34696W        W 3169  20.689  29.505  11.444
34697W        W 3170  10.343  11.626   4.255
34698W        W 3171  10.716   4.718   3.697
34699W        W 3172  44.885  27.643   0.370
34700W        W 3173  13.252  31.135   2.396
34701W        W 3174  41.887  33.523  10.488
34702W        W 3175  28.016   3.229  13.023
34703W        W 3176  29.664  43.818  13.470
34704W        W 3177   9.789  37.564  14.286
34705W        W 3178  40.867  34.977  13.460
34706W        W 3179  35.454  29.624   2.750
34707W        W 3180  31.919  44.315  11.397
34708W        W 3181  36.010   6.773   2.687
34709W        W 3182   6.358  14.812  12.092
34710W        W 3183  19.539  26.598  13.916
34711W        W 3184   7.801  36.971  14.935
34712W        W 3185  35.362  24.609   3.156
34713W        W 3186  19.766  23.599   4.619
34714W        W 3187  20.174  23.137  13.963
34715W        W 3188  24.196  42.335   4.242
34716W        W 3189  37.922  19.730  12.565
34717W        W 3190   2.730  29.058   2.874
34718W        W 3191  33.067  41.889  14.021
34719W        W 3192   6.887  12.306  13.806
34720W        W 3193   7.328  23.210  11.591
34721W        W 3194  12.646  16.248   4.308
34722W        W 3195  27.584  12.154  14.942
34723W        W 3196  22.143  42.454   0.904
34724W        W 3197  25.710  11.330   0.457
34725W        W 3198  12.662  30.509   4.648
34726W        W 3199   0.431  37.542   5.281
34727W        W 3200   5.791   8.820  12.547
34728W        W 3201  30.500  11.822   1.444
34729W        W 3202  18.184  16.609  11.891
34730W        W 3203  18.692   6.916   4.800
34731W        W 3204   4.246   4.816   3.865
34732W        W 3205  37.505   8.316   3.299
34733W        W 3206  29.618  39.473   1.416
34734W        W 3207  20.590  13.634  14.853
34735W        W 3208  35.530  34.542  10.410
34736W        W 3209   0.456   4.404   2.249
34737W        W 3210  27.082  40.003  12.910
34738W        W 3211  18.640  14.333   2.848
34739W        W 3212  19.245  22.224   2.263
34740W        W 3213  29.525  11.833   5.203
34741W        W 3214  10.288  10.248   3.792
34742W        W 3215   0.789  22.015   3.182
34743W        W 3216   3.461  22.713  13.798
34744W        W 3217  30.552  31.622  14.994
34745W        W 3218  17.284  22.120  13.507
34746W        W 3219   6.274  11.212  14.285
34747W        W 3220  37.485  32.480   5.247
34748W        W 3221  32.617   6.231  10.988
34749W        W 3222  24.226   1.829   0.925
34750W        W 3223  43.323   9.770   0.259
34751W        W 3224  28.646  15.109   4.667
34752W        W 3225  13.257  16.194  13.483
34753W        W 3226   1.802  37.085   4.331
34754W        W 3227  28.997  17.253  12.849
34755W        W 3228  35.480  18.548  12.076
34756W        W 3229   7.415  36.545   4.625
34757W        W 3230   0.884  23.710  12.428
34758W        W 3231   6.328  15.170   0.459
34759W        W 3232   7.277  13.273   2.689
34760W        W 3233   6.404  15.792  10.904
34761W        W 3234  17.595   9.361  12.044
34762W        W 3235   9.772  20.676   3.693
34763W        W 3236   7.371   6.331  14.349
34764W        W 3237  23.061  32.963  14.290
34765W        W 3238   1.848  38.442  14.512
34766W        W 3239  29.451  30.535   4.207
34767W        W 3240  23.573  27.054   9.620
34768W        W 3241  34.497  37.497  14.759
34769W        W 3242  42.015   6.904  10.567
34770W        W 3243  21.681   9.150  10.639
34771W        W 3244  44.874  36.951  12.528
34772W        W 3245  43.012  39.035  14.466
34773W        W 3246  16.603  12.337   2.819
34774W        W 3247   9.218  34.965  12.909
34775W        W 3248  33.063  29.929   1.336
34776W        W 3249  24.980  37.446  13.370
34777W        W 3250  20.153  35.540   1.250
34778W        W 3251   0.477  23.674   0.911
34779W        W 3252  35.364   4.860  12.063
34780W        W 3253  38.924  41.006  13.344
34781W        W 3254  15.621  22.248  14.794
34782W        W 3255  12.206  26.128  11.907
34783W        W 3256  20.063  37.963   4.274
34784W        W 3257   0.849  34.927  13.418
34785W        W 3258  16.304  32.107  14.316
34786W        W 3259  12.710  26.146   3.704
34787W        W 3260  36.506  40.358   2.830
34788W        W 3261  16.152   3.806   1.326
34789W        W 3262  25.973   6.820  11.593
34790W        W 3263  26.044   2.383  14.790
34791W        W 3264   2.838  17.263   0.916
34792W        W 3265  11.678  34.415   2.342
34793W        W 3266  27.602  38.939   2.308
34794W        W 3267  33.066  14.603   4.244
34795W        W 3268  22.743   6.188  11.531
34796W        W 3269  34.475   9.388   4.218
34797W        W 3270  28.502  35.054   1.795
34798W        W 3271   1.834   6.887  12.927
34799W        W 3272   6.310  12.226   0.914
34800W        W 3273  39.968  36.520  10.997
34801W        W 3274  36.421  14.156   4.113
34802W        W 3275   0.315  28.569   2.248
34803W        W 3276   9.300   5.735   0.945
34804W        W 3277  26.076  23.074  14.993
34805W        W 3278  36.550  27.016   3.336
34806W        W 3279  14.206   5.245   4.694
34807W        W 3280   1.423   1.963  11.078
34808W        W 3281  28.617  16.258  13.331
34809W        W 3282  30.626  28.523  14.380
34810W        W 3283  44.793  44.360  14.030
34811W        W 3284  17.277  34.986   2.876
34812W        W 3285  44.319   3.884  14.303
34813W        W 3286  23.190  38.980  14.840
34814W        W 3287  16.161  12.818   3.286
34815W        W 3288   8.396  31.547  12.976
34816W        W 3289  42.881   2.326  11.600
34817W        W 3290  20.210  43.389  12.074
34818W        W 3291  31.938  38.977  14.478
34819W        W 3292  20.238   8.837   0.772
34820W        W 3293  19.646  44.879   1.257
34821W        W 3294  25.563  28.656   1.820
34822W        W 3295   6.697  37.879   2.356
34823W        W 3296  16.133  13.159  12.437
34824W        W 3297  12.767  37.362   0.342
34825W        W 3298  43.821  42.016   1.801
34826W        W 3299  20.082  40.457  14.296
34827W        W 3300  25.122  10.285  12.955
34828W        W 3301   0.469  43.501  11.089
34829W        W 3302  28.638  18.071   4.604
34830W        W 3303  22.684  20.534  10.552
34831W        W 3304   2.388  23.512   1.373
34832W        W 3305   2.360  40.407  14.437
34833W        W 3306   5.405  29.111  11.609
34834W        W 3307  43.785  27.188  11.431
34835W        W 3308  30.534  10.704  14.361
34836W        W 3309  28.498  12.296   1.387
34837W        W 3310  34.534  37.012   3.832
34838W        W 3311  35.396  34.581   3.227
34839W        W 3312  28.931  32.917   2.358
34840W        W 3313   4.412  30.642  13.394
34841W        W 3314  18.214   6.783   2.872
34842W        W 3315  29.604  16.808  14.831
34843W        W 3316  38.399  32.988  12.479
34844W        W 3317  18.553  14.589   2.231
34845W        W 3318   3.390   5.275   4.676
34846W        W 3319  11.660  22.141  10.952
34847W        W 3320  23.587   1.899   2.860
34848W        W 3321  32.494  36.042  12.863
34849W        W 3322  34.532  23.504   2.239
34850W        W 3323  43.998  18.177  10.966
34851W        W 3324  30.483  14.799   0.801
34852W        W 3325  32.107  16.219   0.352
34853W        W 3326   9.840  30.413   3.776
34854W        W 3327  38.044  15.721  11.967
34855W        W 3328  29.573  12.267  11.375
34856W        W 3329  44.905  39.899  13.427
34857W        W 3330  10.284  26.532   2.829
34858W        W 3331   1.950  21.653  13.844
34859W        W 3332  20.218  19.144   3.205
34860W        W 3333  23.157   0.318   1.377
34861W        W 3334  39.939  43.841  10.642
34862W        W 3335   7.834  34.371  12.927
34863W        W 3336  21.237  21.526   0.266
34864W        W 3337   7.276   3.945  10.428
34865W        W 3338  12.771  35.973   3.280
34866W        W 3339  33.612  38.974  10.954
34867W        W 3340  19.677  15.727   5.086
34868W        W 3341  13.698  21.515   3.864
34869W        W 3342   4.858  20.138  12.077
34870W        W 3343  37.471  38.568  13.984
34871W        W 3344  28.180   0.321   3.154
34872W        W 3345  12.169  20.534  13.943
34873W        W 3346  35.573  41.948  11.129
34874W        W 3347   2.236  29.669   4.177
34875W        W 3348   1.274  42.449  14.819
34876W        W 3349  16.312  28.611  12.912
34877W        W 3350  44.502  25.170   3.166
34878W        W 3351   2.782  21.251  14.376
34879W        W 3352  11.818  32.586  13.861
34880W        W 3353  13.128  30.040  11.050
34881W        W 3354   2.816  26.509   4.335
34882W        W 3355  32.121   7.301  10.447
34883W        W 3356  31.453  23.536   4.294
34884W        W 3357  28.146  15.778   2.201
34885W        W 3358  33.003  31.524  10.511
34886W        W 3359  38.458  10.660  13.507
34887W        W 3360  16.269  13.762   2.809
34888W        W 3361   9.346  42.283  14.766
34889W        W 3362   3.231  10.676  10.450
34890W        W 3363  33.422  37.860   4.161
34891W        W 3364  28.062  19.628  12.903
34892W        W 3365  28.448   8.727   3.345
34893W        W 3366  30.645  41.850   0.954
34894W        W 3367  20.202   2.756  12.463
34895W        W 3368  36.554  42.408  13.542
34896W        W 3369  37.999  42.373   3.327
34897W        W 3370   1.946  32.997  13.468
34898W        W 3371  11.862  39.941  13.324
34899W        W 3372  15.088  16.301   0.281
34900W        W 3373  36.495   9.656   0.847
34901W        W 3374  21.593  38.022   2.255
34902W        W 3375  14.263   4.432  13.841
34903W        W 3376   8.165  27.557  11.122
34904W        W 3377  40.505  22.140  14.906
34905W        W 3378  32.475  36.548   4.794
34906W        W 3379  27.955  32.012  13.501
34907W        W 3380   8.758  32.411   2.358
34908W        W 3381  42.908  41.339   0.792
34909W        W 3382  12.738  21.645  10.414
34910W        W 3383  37.874  17.290   1.732
34911W        W 3384   8.186  27.658  12.868
34912W        W 3385  25.521  33.025   3.286
34913W        W 3386  38.942   9.266  10.521
34914W        W 3387   0.892  14.131   1.884
34915W        W 3388  40.912   9.166  14.356
34916W        W 3389  21.226  33.916  14.310
34917W        W 3390   0.857  29.548   3.184
34918W        W 3391   5.387  36.951   4.767
34919W        W 3392   1.957  26.597   3.707
34920W        W 3393  20.148  33.882   2.342
34921W        W 3394  14.290  19.076  13.853
34922W        W 3395  40.011  28.487   2.800
34923W        W 3396  24.073  23.646   9.964
34924W        W 3397  29.619  19.173   2.899
34925W        W 3398  16.238  33.493  12.892
34926W        W 3399  30.438  42.989  10.088
34927W        W 3400  44.372   4.232   4.800
34928W        W 3401  22.191  43.354  10.543
34929W        W 3402  15.285  17.231   2.661
34930W        W 3403   0.755   7.874  10.496
34931W        W 3404  27.499  35.380   4.188
34932W        W 3405  28.512  20.224  13.953
34933W        W 3406  10.754  16.585   0.797
34934W        W 3407  36.031   6.736   0.478
34935W        W 3408  26.172  11.145   0.736
34936W        W 3409  32.092  15.696  10.603
34937W        W 3410  40.922  34.983  14.432
34938W        W 3411   2.934  28.648   4.757
34939W        W 3412  13.799  40.048   4.621
34940W        W 3413   8.369  30.590   4.714
34941W        W 3414   0.813  40.031   3.356
34942W        W 3415   4.306  24.484   3.277
34943W        W 3416  29.654  24.060  13.329
34944W        W 3417   6.866  22.093   1.921
34945W        W 3418   9.343  19.121   0.953
34946W        W 3419  42.298  22.202  14.368
34947W        W 3420  33.944   5.364   3.233
34948W        W 3421  25.560   0.944   0.354
34949W        W 3422   9.694  31.488   2.885
34950W        W 3423  28.136  38.542   3.318
34951W        W 3424   2.958   7.665   0.408
34952W        W 3425  30.469  23.711   3.831
34953W        W 3426   2.271  30.158  12.940
34954W        W 3427  21.606  18.243  10.476
34955W        W 3428  13.748  38.383   5.573
34956W        W 3429   7.250  14.826   4.619
34957W        W 3430  11.362  33.504  14.790
34958W        W 3431  10.291   8.385  10.940
34959W        W 3432  18.646  10.308   2.201
34960W        W 3433   6.739  30.945  12.352
34961W        W 3434   8.727   7.897  11.526
34962W        W 3435  37.947  24.132   3.259
34963W        W 3436  15.327   1.253  12.433
34964W        W 3437  16.649  26.114  12.930
34965W        W 3438   8.680  11.786   0.950
34966W        W 3439  42.316   0.384  10.471
34967W        W 3440   6.220  14.132   9.959
34968W        W 3441  36.015  37.483  13.381
34969W        W 3442  15.177  30.434  14.933
34970W        W 3443  43.367  39.540   2.288
34971W        W 3444  16.714  26.686  12.391
34972W        W 3445  32.113   7.684   2.872
34973W        W 3446  13.135  41.040   1.405
34974W        W 3447  31.119   6.363   4.703
34975W        W 3448   0.341  22.035  14.994
34976W        W 3449  15.800  14.602   1.705
34977W        W 3450   3.921  24.677  13.047
34978W        W 3451  37.865   9.646  13.940
34979W        W 3452  17.276  19.752   4.317
34980W        W 3453  24.093  12.615   5.688
34981W        W 3454  20.111  23.712   4.121
34982W        W 3455   5.369  27.581   1.871
34983W        W 3456  36.498  18.562  14.480
34984W        W 3457  31.468  40.413  10.923
34985W        W 3458  43.022  38.981  13.994
34986W        W 3459  16.580   4.824  12.943
34987W        W 3460   9.646  10.729   2.292
34988W        W 3461  37.536   9.873  11.952
34989W        W 3462  15.708   2.340   4.177
34990W        W 3463   8.723  33.065   4.768
34991W        W 3464   3.809   1.758   0.914
34992W        W 3465  43.348  25.118   0.351
34993W        W 3466  12.210  10.724   0.952
34994W        W 3467  40.462  27.986  11.872
34995W        W 3468   4.261  36.054   1.801
34996W        W 3469  21.070  24.154   0.295
34997W        W 3470   7.173  26.633  11.401
34998W        W 3471  39.811   5.826   3.243
34999W        W 3472  34.114  38.014   0.817
35000W        W 3473  25.510  25.595   1.839
35001W        W 3474  20.747  13.768  11.604
35002W        W 3475  27.549  38.530   4.821
35003W        W 3476  25.585  31.569   1.436
35004W        W 3477  20.157  13.175   4.334
35005W        W 3478  40.006  42.818   2.196
35006W        W 3479  27.059   5.414   1.832
35007W        W 3480  25.009  23.067   2.220
35008W        W 3481  38.073  39.961  13.325
35009W        W 3482   6.298  19.132  13.497
35010W        W 3483  22.678  11.843  10.904
35011W        W 3484  24.182  22.017  13.832
35012W        W 3485  15.717  15.163   0.898
35013W        W 3486  13.700  18.561   1.272
35014W        W 3487  24.030   3.826  11.947
35015W        W 3488  29.465  15.211   2.248
35016W        W 3489  17.619   2.792   4.162
35017W        W 3490  32.637  13.302  11.566
35018W        W 3491  36.517  37.381   1.797
35019W        W 3492  37.998  34.437  13.978
35020W        W 3493  22.043   3.261  14.425
35021W        W 3494  14.629  32.928  14.828
35022W        W 3495  40.931  10.654   0.330
35023W        W 3496  44.788  43.365   2.898
35024W        W 3497  17.709  18.228   0.890
35025W        W 3498  26.695  30.609   1.887
35026W        W 3499  29.495  18.073   1.272
35027W        W 3500  25.160  29.133  12.840
35028W        W 3501  29.987  34.967   3.804
35029W        W 3502  33.439  34.412  10.937
35030W        W 3503  19.600  24.977  14.923
35031W        W 3504  19.094   0.426  14.417
35032W        W 3505  25.475  30.498  11.935
35033W        W 3506  38.031  31.559  13.502
35034W        W 3507  24.531  21.673  13.332
35035W        W 3508  23.495  22.213  11.466
35036W        W 3509  30.038  31.985   1.746
35037W        W 3510  31.909   2.257  13.027
35038W        W 3511   6.784  17.249   0.871
35039W        W 3512  16.272  42.787  12.903
35040W        W 3513   3.827  24.987  10.605
35041W        W 3514  23.719  27.467   3.297
35042W        W 3515  23.707  37.340   4.680
35043W        W 3516  11.769   5.223  12.887
35044W        W 3517  14.153  44.346   1.281
35045W        W 3518  14.103  10.650  11.126
35046W        W 3519  36.561   6.918  10.905
35047W        W 3520  34.379  37.059   2.880
35048W        W 3521  27.153   7.376  10.478
35049W        W 3522  14.625   1.894  13.919
35050W        W 3523  10.782  26.484   4.816
35051W        W 3524  37.497   7.802  12.916
35052W        W 3525  12.169  13.687   0.246
35053W        W 3526  44.849   6.862  13.005
35054W        W 3527  43.972  13.762   0.247
35055W        W 3528  28.958  20.712  14.821
35056W        W 3529  12.755  10.844  12.942
35057W        W 3530  44.476  43.899  14.381
35058W        W 3531   0.756  32.627  12.366
35059W        W 3532  23.656  16.190  14.820
35060W        W 3533  26.203  16.792   0.749
35061W        W 3534   1.459   5.827  12.578
35062W        W 3535  30.109  44.496   4.620
35063W        W 3536  37.573  38.520   1.353
35064W        W 3537  25.693   3.442  10.417
35065W        W 3538  18.661  20.129  12.883
35066W        W 3539  33.554   0.487   4.765
35067W        W 3540   6.188  17.262   4.225
35068W        W 3541  37.920  22.049  13.995
35069W        W 3542  42.802   0.789   1.437
35070W        W 3543  12.324  21.039  14.883
35071W        W 3544  34.607   8.381  12.441
35072W        W 3545  31.405  30.452  10.632
35073W        W 3546  28.986  10.213  14.914
35074W        W 3547  21.112   1.291   4.267
35075W        W 3548  29.442  19.594   4.146
35076W        W 3549  36.950  43.318  14.390
35077W        W 3550  20.272  30.054  14.275
35078W        W 3551  41.440   9.393   0.417
35079W        W 3552  39.456  21.215  10.932
35080W        W 3553   7.825  38.881   3.799
35081W        W 3554  43.887  27.541   0.298
35082W        W 3555  26.529   9.770   5.248
35083W        W 3556  28.540   7.747   2.762
35084W        W 3557  34.563  18.635  13.518
35085W        W 3558  21.037  31.916   2.841
35086W        W 3559  37.464  30.019   1.251
35087W        W 3560  35.535  37.533  12.566
35088W        W 3561   3.434  18.752   0.391
35089W        W 3562  37.041  43.993  14.388
35090W        W 3563  16.115   7.725   0.288
35091W        W 3564  18.737  12.782  12.341
35092W        W 3565  13.822  11.312   4.183
35093W        W 3566   4.856  30.491   1.798
35094W        W 3567  23.031   2.273  12.856
35095W        W 3568  13.267  38.363   2.802
35096W        W 3569  21.200  30.078   3.719
35097W        W 3570  13.705  11.310   1.281
35098W        W 3571  44.774  20.255   2.253
35099W        W 3572  33.028  44.452   2.392
35100W        W 3573  17.246  28.677  10.091
35101W        W 3574  19.144   3.882   1.233
35102W        W 3575   4.306  35.367  11.487
35103W        W 3576  20.755  12.851  11.394
35104W        W 3577  17.216  34.107   3.245
35105W        W 3578  39.023  25.094   1.863
35106W        W 3579  23.585  10.235   2.312
35107W        W 3580  13.227   6.369   1.374
35108W        W 3581  14.748  16.181   2.698
35109W        W 3582  40.403  26.660  12.941
35110W        W 3583  17.640   1.844  10.982
35111W        W 3584  26.589  39.030   1.288
35112W        W 3585  13.264  43.843  13.915
35113W        W 3586  28.549  30.639   1.702
35114W        W 3587  21.721  36.936   1.348
35115W        W 3588  36.555   2.740   3.844
35116W        W 3589  41.533  39.877  13.058
35117W        W 3590  37.385  20.044   2.713
35118W        W 3591  11.689  39.034  13.928
35119W        W 3592  42.308  42.383  13.847
35120W        W 3593  10.719  24.642  11.951
35121W        W 3594   8.197   7.909  14.382
35122W        W 3595  29.565  23.530   2.311
35123W        W 3596  36.531  26.130   4.793
35124W        W 3597  23.989  29.640   2.295
35125W        W 3598   4.745  33.575  10.897
35126W        W 3599  41.499  29.158  14.871
35127W        W 3600  10.214  27.595  14.976
35128W        W 3601  15.200  44.850  12.418
35129W        W 3602  39.015  36.014  10.145
35130W        W 3603  15.238  23.148  12.885
35131W        W 3604  36.983  18.649  10.982
35132W        W 3605  41.477  20.598   0.890
35133W        W 3606  36.556  43.914   2.850
35134W        W 3607  33.568  20.056  11.020
35135W        W 3608   7.771  39.039  13.397
35136W        W 3609  12.132  33.440  14.945
35137W        W 3610  22.131   4.389  12.380
35138W        W 3611  32.622  43.466  14.995
35139W        W 3612  44.299  33.475  12.985
35140W        W 3613  42.935  43.767   4.321
35141W        W 3614  38.435   6.418   3.802
35142W        W 3615  31.153  34.388  11.411
35143W        W 3616  38.451  27.968  14.944
35144W        W 3617  12.129  36.527  12.395
35145W        W 3618  11.237  33.960  11.063
35146W        W 3619   7.282   6.300   3.299
35147W        W 3620  44.915  43.975  14.941
35148W        W 3621  37.387  37.001   1.216
35149W        W 3622  16.099  41.008   3.211
35150W        W 3623  14.233  24.162   0.437
35151W        W 3624   7.840  33.963  14.021
35152W        W 3625  42.901  17.620  12.552
35153W        W 3626  24.585  30.579   4.219
35154W        W 3627  19.152   5.805   2.221
35155W        W 3628  17.609  38.370  13.888
35156W        W 3629   4.260   0.872   1.706
35157W        W 3630  11.741   5.220   4.635
35158W        W 3631  42.999   9.838  10.490
35159W        W 3632  21.145   5.722   0.341
35160W        W 3633  15.678  31.624  12.865
35161W        W 3634  39.814   3.252  12.500
35162W        W 3635   6.239  35.036   2.333
35163W        W 3636   6.677   4.698   9.982
35164W        W 3637  26.996   4.890   3.379
35165W        W 3638   7.405  32.018   4.311
35166W        W 3639  18.233  26.650   5.142
35167W        W 3640  12.142  43.780   2.666
35168W        W 3641   6.718  35.434   1.426
35169W        W 3642   4.815   0.256  11.127
35170W        W 3643  37.416  44.861  14.359
35171W        W 3644  24.700   4.717  12.508
35172W        W 3645  10.795  16.741   0.255
35173W        W 3646  36.020  17.632   3.338
35174W        W 3647   4.363  16.724   2.803
35175W        W 3648   5.257  28.082   2.802
35176W        W 3649  44.759   9.711   3.170
35177W        W 3650   5.826  23.554  14.402
35178W        W 3651  42.981  23.499   4.229
35179W        W 3652   7.245  43.387   4.336
35180W        W 3653  20.537  15.170   3.671
35181W        W 3654   0.941  30.570  10.576
35182W        W 3655  43.837   7.222   2.240
35183W        W 3656  33.567  34.532  10.120
35184W        W 3657  30.932  17.613  11.606
35185W        W 3658   4.859  30.447  13.507
35186W        W 3659  21.149  39.997  10.475
35187W        W 3660  30.525  15.760  10.956
35188W        W 3661  10.816  41.812   1.852
35189W        W 3662  28.134  20.553   2.401
35190W        W 3663  36.977  14.638   0.879
35191W        W 3664  40.388  38.928  10.086
35192W        W 3665  42.951  25.562   2.898
35193W        W 3666  37.522  19.538  11.053
35194W        W 3667  16.166  17.109   1.926
35195W        W 3668   6.775  13.699   3.349
35196W        W 3669  38.391  38.558  11.059
35197W        W 3670   2.839  11.326   0.826
35198W        W 3671  37.526  12.712  13.546
35199W        W 3672  31.573  42.968   3.761
35200W        W 3673  25.027   3.909   3.740
35201W        W 3674  17.700  24.195   2.803
35202W        W 3675  37.397  29.061  12.529
35203W        W 3676  39.461  38.948   1.374
35204W        W 3677  30.629  13.139  14.325
35205W        W 3678   4.392  19.574  14.508
35206W        W 3679  30.984  41.500   1.320
35207W        W 3680  14.238  20.117  14.924
35208W        W 3681  22.633   2.803  12.434
35209W        W 3682   9.156  30.524  14.486
35210W        W 3683  39.314  25.104   0.320
35211W        W 3684  16.808   3.841   4.648
35212W        W 3685  24.491  31.138  11.584
35213W        W 3686  32.097  43.463   2.693
35214W        W 3687  30.130  15.664   0.393
35215W        W 3688  10.797  40.321   3.855
35216W        W 3689  16.674  11.325  11.051
35217W        W 3690   6.214  26.150  12.354
35218W        W 3691   7.417  35.573  13.026
35219W        W 3692  23.728  11.183  13.506
35220W        W 3693  16.811  32.637   4.686
35221W        W 3694  10.794  16.141   3.356
35222W        W 3695  44.273   3.233  12.951
35223W        W 3696  20.624   4.442   4.178
35224W        W 3697  25.147  44.932   3.290
35225W        W 3698  36.352  27.007   1.754
35226W        W 3699  38.839  28.521  14.899
35227W        W 3700  39.896   4.341   4.760
35228W        W 3701  30.132  12.306  11.959
35229W        W 3702  11.153  43.899  12.362
35230W        W 3703  24.060  37.885   3.764
35231W        W 3704   5.285  10.180  14.793
35232W        W 3705  32.482   1.750  14.290
35233W        W 3706  30.141  19.136  13.399
35234W        W 3707  44.962  25.529   2.292
35235W        W 3708  30.137  43.786  12.067
35236W        W 3709  10.864   2.750   2.339
35237W        W 3710  27.025   1.738   5.087
35238W        W 3711  20.183  38.353   2.242
35239W        W 3712  12.723  33.450  13.793
35240W        W 3713  43.291  24.596  10.472
35241W        W 3714   8.872  32.556   1.714
35242W        W 3715  34.095  32.037   4.692
35243W        W 3716  42.992  44.327   2.371
35244W        W 3717  19.099  37.087   2.897
35245W        W 3718  35.079  42.935  11.491
35246W        W 3719  29.642  14.310   2.219
35247W        W 3720  20.687  36.023  13.012
35248W        W 3721   5.879  44.283   4.289
35249W        W 3722  38.028   8.184   2.254
35250W        W 3723   6.898  21.514   4.163
35251W        W 3724  32.890   5.311  13.991
35252W        W 3725  17.224  25.696  13.896
35253W        W 3726  41.976  39.492   0.261
35254W        W 3727  13.299  35.940   0.732
35255W        W 3728  14.174  26.102   3.375
35256W        W 3729  10.861  26.141  10.426
35257W        W 3730  29.991  12.724  12.072
35258W        W 3731  19.613  23.734   3.706
35259W        W 3732  41.885  35.511  10.509
35260W        W 3733  15.129   1.858   4.166
35261W        W 3734  18.112  24.545  11.957
35262W        W 3735  10.148  34.940  12.379
35263W        W 3736  15.683   8.280  10.535
35264W        W 3737   3.811   8.185   1.913
35265W        W 3738   4.814  25.585   4.647
35266W        W 3739   5.695  32.603  10.564
35267W        W 3740  41.464   0.343  13.854
35268W        W 3741  15.729  29.164  12.957
35269W        W 3742  42.982   6.372  10.589
35270W        W 3743   6.896   0.789   1.375
35271W        W 3744   1.827  35.524   3.249
35272W        W 3745  25.560  44.903   2.794
35273W        W 3746  16.780   3.279   1.921
35274W        W 3747   3.335  29.022   0.795
35275W        W 3748  14.120  30.563  13.414
35276W        W 3749   6.762   1.292  13.877
35277W        W 3750  44.815   4.207  14.959
35278W        W 3751  22.506  42.998  13.878
35279W        W 3752  37.929  15.677   1.409
35280W        W 3753  26.614  17.189  10.474
35281W        W 3754  44.977  10.846  11.515
35282W        W 3755  10.314  28.455  12.471
35283W        W 3756  16.110  44.487  11.465
35284W        W 3757   9.647  25.601  12.011
35285W        W 3758  39.464   0.884  13.064
35286W        W 3759  42.311  12.737  11.030
35287W        W 3760   7.266  22.734  10.581
35288W        W 3761   6.340  27.193   1.736
35289W        W 3762   1.749  19.660  11.516
35290W        W 3763  12.797  38.980  10.945
35291W        W 3764   4.859  10.655  13.432
35292W        W 3765   1.404   2.961  10.924
35293W        W 3766  16.694  26.552   3.714
35294W        W 3767   0.965  41.362   1.898
35295W        W 3768  43.948  19.184  10.950
35296W        W 3769  19.548  36.019   3.193
35297W        W 3770  36.377  28.176   4.606
35298W        W 3771  40.892  27.686   3.727
35299W        W 3772  21.175  42.387  13.382
35300W        W 3773   7.355  44.429  13.906
35301W        W 3774  31.422  41.291   3.237
35302W        W 3775  27.526  32.470  14.345
35303W        W 3776   3.726  44.333   4.255
35304W        W 3777  12.667  37.553   2.848
35305W        W 3778  29.021  16.249   3.279
35306W        W 3779  44.806  29.171  11.431
35307W        W 3780  37.988  32.471   2.254
35308W        W 3781  30.934  24.122   3.184
35309W        W 3782  25.110  20.734  14.507
35310W        W 3783  21.701  36.013  10.412
35311W        W 3784  24.502  31.457   0.820
35312W        W 3785  19.650   4.247   2.253
35313W        W 3786   3.433   3.800   2.220
35314W        W 3787  15.586   9.351  12.509
35315W        W 3788  23.671  26.625   4.208
35316W        W 3789  15.623  18.644   4.189
35317W        W 3790   9.208  11.738  11.420
35318W        W 3791  34.438  35.483  11.578
35319W        W 3792  41.348  10.341   0.435
35320W        W 3793   8.185  35.957  10.617
35321W        W 3794  17.723  43.941  12.084
35322W        W 3795  40.457  16.216   1.333
35323W        W 3796  44.889  12.320   4.821
35324W        W 3797  39.528  27.557   0.747
35325W        W 3798  34.389   3.846  12.891
35326W        W 3799  38.387  33.458  13.798
35327W        W 3800  44.885  39.437  11.511
35328W        W 3801  20.257  25.008  13.401
35329W        W 3802   5.884   2.248  11.913
35330W        W 3803  12.674   3.226  10.627
35331W        W 3804  40.032   6.379  10.525
35332W        W 3805  25.688  38.422  13.380
35333W        W 3806  17.578  20.154   0.248
35334W        W 3807  10.843  25.630   3.786
35335W        W 3808   0.813  26.697   3.646
35336W        W 3809  10.214  14.821  12.563
35337W        W 3810   3.798   9.695  11.904
35338W        W 3811  13.628  36.852  11.461
35339W        W 3812  23.003  14.336   0.472
35340W        W 3813  42.510   9.251  11.450
35341W        W 3814  34.503   8.878  12.907
35342W        W 3815  26.487  29.007   3.372
35343W        W 3816  26.122  24.502   3.360
35344W        W 3817  26.205  13.211   2.690
35345W        W 3818  44.475  15.750   3.249
35346W        W 3819  35.977  33.042  14.443
35347W        W 3820  33.055   7.294   1.904
35348W        W 3821   2.311  39.859   2.703
35349W        W 3822  19.121  40.458   2.296
35350W        W 3823  10.382  35.964  14.960
35351W        W 3824  20.745  41.892   3.709
35352W        W 3825   4.249  26.544   3.862
35353W        W 3826  19.057   4.888  12.345
35354W        W 3827  41.952   7.666   0.785
35355W        W 3828  43.013   7.217  12.462
35356W        W 3829  26.675  43.423   4.143
35357W        W 3830  27.658  12.765  10.505
35358W        W 3831  44.468  43.324   1.873
35359W        W 3832   8.189  34.875  10.500
35360W        W 3833  37.341   2.400  12.419
35361W        W 3834  14.804   6.389   0.447
35362W        W 3835  19.695   0.282   1.705
35363W        W 3836  31.412  32.468  11.494
35364W        W 3837  31.636  42.872  13.912
35365W        W 3838   8.329  41.463  10.548
35366W        W 3839   6.368  19.547   4.684
35367W        W 3840  40.376  23.049  11.000
35368W        W 3841  20.095   4.219  12.529
35369W        W 3842   1.374  25.214   2.217
35370W        W 3843   2.918  44.772   2.251
35371W        W 3844  43.923  21.677  12.851
35372W        W 3845  23.718  38.377   1.361
35373W        W 3846  15.120  26.102  12.365
35374W        W 3847   0.817   7.285   2.686
35375W        W 3848  32.959  27.594   1.870
35376W        W 3849   8.847  43.979   0.270
35377W        W 3850  29.591  22.202  12.997
35378W        W 3851  33.501   8.826  10.570
35379W        W 3852  42.418  32.917   2.228
35380W        W 3853  17.721  13.123  13.342
35381W        W 3854  24.625  23.593  14.469
35382W        W 3855   4.896  16.743  11.104
35383W        W 3856  17.714  19.161   4.156
35384W        W 3857  14.285  14.773   1.283
35385W        W 3858  34.103  15.785  12.080
35386W        W 3859  41.849  15.707  10.615
35387W        W 3860  37.417  18.102  13.903
35388W        W 3861  25.704  36.461   2.400
35389W        W 3862  39.956  31.130  11.083
35390W        W 3863  39.422  15.627   3.329
35391W        W 3864  22.158   1.738  14.501
35392W        W 3865  17.099  13.644  11.101
35393W        W 3866  42.401  23.010   1.821
35394W        W 3867   8.684  31.940   3.160
35395W        W 3868  19.675   3.421  11.005
35396W        W 3869  41.858  21.032   2.400
35397W        W 3870  11.144  25.653   0.276
35398W        W 3871   1.359  23.038  14.859
35399W        W 3872  23.538  42.826  10.159
35400W        W 3873  18.672  40.005  13.381
35401W        W 3874   8.713  44.870  14.298
35402W        W 3875  30.094  12.814  10.947
35403W        W 3876  23.071  27.075   2.360
35404W        W 3877  43.875  22.506   4.676
35405W        W 3878  33.938  43.429   0.420
35406W        W 3879  39.914  11.685   2.272
35407W        W 3880   7.712  18.089   9.931
35408W        W 3881  31.998  18.747  13.857
35409W        W 3882   4.777  39.419   4.128
35410W        W 3883  38.861  33.484   3.279
35411W        W 3884  27.945  41.937   3.169
35412W        W 3885   3.834   1.335   2.716
35413W        W 3886  43.359  17.167  14.458
35414W        W 3887  24.203  14.141   3.643
35415W        W 3888  19.545  29.665  10.486
35416W        W 3889  39.319  35.956   1.257
35417W        W 3890  26.142   9.193   2.411
35418W        W 3891  41.797  13.220   3.830
35419W        W 3892  44.854  14.777  14.823
35420W        W 3893  29.475  22.739  10.128
35421W        W 3894   5.689   4.357   9.481
35422W        W 3895  31.028  13.735   2.415
35423W        W 3896   2.286   1.442  14.471
35424W        W 3897  23.554  28.179   0.314
35425W        W 3898  17.213   7.400   0.812
35426W        W 3899   7.282  11.663   4.120
35427W        W 3900  25.611  29.459   3.706
35428W        W 3901  29.121  40.488   4.796
35429W        W 3902  33.061  34.063   1.707
35430W        W 3903  32.023  16.314  12.945
35431W        W 3904   7.242  16.794  12.891
35432W        W 3905   6.704  44.480  14.759
35433W        W 3906  28.062  26.053   0.842
35434W        W 3907   9.674  36.873  13.871
35435W        W 3908   7.773  30.546   4.166
35436W        W 3909  42.407   1.432  12.846
35437W        W 3910  39.523  22.595   1.449
35438W        W 3911  43.852  43.470   1.775
35439W        W 3912  35.959   2.319   2.202
35440W        W 3913   7.330   7.821   4.655
35441W        W 3914  14.305  25.115  14.789
35442W        W 3915  20.034  24.709  11.954
35443W        W 3916   5.225   5.380   5.229
35444W        W 3917  21.195  10.721  10.629
35445W        W 3918  31.509  26.152  13.540
35446W        W 3919  35.018  19.042   0.315
35447W        W 3920  39.493  18.238   2.210
35448W        W 3921  44.759   1.248   3.793
35449W        W 3922  33.484   7.177   0.460
35450W        W 3923   2.877  15.779   3.282
35451W        W 3924  32.396   0.385   3.266
35452W        W 3925  24.026  11.222  14.340
35453W        W 3926  17.688  20.201   3.148
35454W        W 3927  30.943  29.021  12.448
35455W        W 3928  32.071  24.228  10.532
35456W        W 3929   6.334  34.577   1.252
35457W        W 3930  39.031  23.524   4.613
35458W        W 3931  42.490  44.936  12.887
35459W        W 3932   0.898  23.136   3.297
35460W        W 3933  42.471  34.956  12.557
35461W        W 3934  26.168  26.064   0.420
35462W        W 3935   9.158  36.414  13.966
35463W        W 3936  39.955  29.026   4.615
35464W        W 3937   8.208  30.140   4.314
35465W        W 3938  41.414  30.427  14.278
35466W        W 3939  13.829  18.556  14.397
35467W        W 3940  21.632   5.865  14.912
35468W        W 3941   8.373  35.026   1.278
35469W        W 3942  19.144  44.874   2.188
35470W        W 3943  41.462  26.670   1.387
35471W        W 3944  43.899  25.149  13.400
35472W        W 3945  11.298  13.286  12.390
35473W        W 3946   9.704   7.238  11.983
35474W        W 3947   6.393  31.125  10.615
35475W        W 3948  14.694  38.542   4.781
35476W        W 3949  34.568  37.507   0.844
35477W        W 3950  21.750  12.327   2.894
35478W        W 3951  23.238   3.355   4.188
35479W        W 3952  34.008   6.401  14.002
35480W        W 3953   8.244  39.970  11.017
35481W        W 3954  37.086  26.642  13.979
35482W        W 3955  18.565   3.331   1.301
35483W        W 3956  18.558  31.059   3.348
35484W        W 3957  18.097  44.856  11.526
35485W        W 3958  21.745  19.761   2.668
35486W        W 3959   2.296  27.603   0.896
35487W        W 3960  22.601  15.769   5.179
35488W        W 3961  21.687  42.421  13.357
35489W        W 3962  19.686   3.455  10.614
35490W        W 3963  28.014  37.910  14.889
35491W        W 3964  22.544   9.765   0.899
35492W        W 3965  19.597  32.903  14.937
35493W        W 3966  25.214   0.365   3.657
35494W        W 3967  19.573  42.426  11.024
35495W        W 3968   9.309   9.153  13.934
35496W        W 3969  31.504  18.712   4.798
35497W        W 3970  36.426  38.537   3.665
35498W        W 3971  23.579  40.499   2.243
35499W        W 3972  10.194  31.961  13.388
35500W        W 3973  25.985  29.607  13.328
35501W        W 3974  33.067  22.567   4.735
35502W        W 3975  25.525  39.896   0.319
35503W        W 3976  30.446  29.052  13.000
35504W        W 3977  42.346   4.296   1.441
35505W        W 3978   9.278   7.854  11.994
35506W        W 3979  17.604   8.301   2.824
35507W        W 3980  17.764  34.996   0.255
35508W        W 3981  13.740   6.859  12.580
35509W        W 3982  10.300  27.133  11.106
35510W        W 3983   5.801  36.060  12.375
35511W        W 3984   9.265  38.845  12.027
35512W        W 3985  23.116  33.587  11.083
35513W        W 3986   4.384   5.754  12.039
35514W        W 3987  23.656  14.145  13.995
35515W        W 3988  44.913  13.637   1.246
35516W        W 3989  42.937  25.532   1.694
35517W        W 3990   6.416   7.827  10.139
35518W        W 3991   9.204  38.377  14.380
35519W        W 3992  19.759   2.419   3.764
35520W        W 3993   0.771  42.481  14.032
35521W        W 3994  40.524  17.149  13.493
35522W        W 3995  38.554  44.932  12.502
35523W        W 3996  23.238   4.338  14.338
35524W        W 3997   2.785  42.378  14.018
35525W        W 3998  28.444  38.041   1.887
35526W        W 3999   3.866  32.468   4.139
35527W        W 4000  32.119  44.838  10.637
35528W        W 4001  38.545  22.020  13.040
35529W        W 4002   1.382  27.993   1.283
35530W        W 4003  38.012  21.164  13.442
35531W        W 4004  34.607   6.284  13.367
35532W        W 4005  28.163  13.111   0.354
35533W        W 4006  37.478   9.687   3.711
35534W        W 4007  10.382  21.246  12.532
35535W        W 4008   7.803  27.657  12.515
35536W        W 4009  32.107  21.603  11.022
35537W        W 4010  30.610  32.044  13.374
35538W        W 4011   7.214  19.041  11.923
35539W        W 4012  29.996  22.604   0.747
35540W        W 4013  18.709   7.837  13.889
35541W        W 4014  25.129  33.507   2.808
35542W        W 4015  24.146  16.193   3.709
35543W        W 4016  17.212  31.409   0.933
35544W        W 4017  22.648   1.916  14.464
35545W        W 4018  39.922   5.739  14.502
35546W        W 4019  41.037   1.331   2.890
35547W        W 4020  25.151  24.207  13.370
35548W        W 4021  31.556  12.214  13.808
35549W        W 4022  30.077  33.605  11.952
35550W        W 4023  19.101  28.096   1.447
35551W        W 4024  31.127  41.851   5.632
35552W        W 4025  28.611  15.276   2.191
35553W        W 4026  39.556   6.881  12.911
35554W        W 4027   0.403  17.114   2.698
35555W        W 4028  26.205  33.958   4.267
35556W        W 4029  12.798   5.777  14.325
35557W        W 4030  30.947  31.472  14.501
35558W        W 4031  44.936  31.513  14.506
35559W        W 4032  40.476  15.146   1.320
35560W        W 4033  30.564  22.068  12.038
35561W        W 4034  33.012   4.238  11.093
35562W        W 4035  29.112  25.702   5.111
35563W        W 4036  31.988  30.638  13.376
35564W        W 4037  21.262  20.706   2.412
35565W        W 4038  10.675  18.683   1.217
35566W        W 4039  40.342   3.710  11.992
35567W        W 4040  35.493  44.985  11.510
35568W        W 4041  33.527  33.099  11.413
35569W        W 4042   9.352  14.734  14.334
35570W        W 4043  20.062  17.685  12.576
35571W        W 4044  34.073  15.226  13.046
35572W        W 4045  29.956  12.818   1.284
35573W        W 4046  26.009  44.812  13.984
35574W        W 4047  39.395  35.483  10.977
35575W        W 4048  20.599  22.045   3.828
35576W        W 4049  24.708  22.119   1.714
35577W        W 4050  13.135  29.002  13.320
35578W        W 4051   8.901  30.563  13.054
35579W        W 4052   3.885   4.258   1.389
35580W        W 4053  33.875  21.736   3.799
35581W        W 4054   7.391  26.167  10.500
35582W        W 4055  21.203  24.536   4.345
35583W        W 4056  13.765  28.565  11.037
35584W        W 4057  23.642  25.994   0.460
35585W        W 4058  14.748  33.458  12.044
35586W        W 4059   8.809   8.699   3.790
35587W        W 4060  37.979  38.885  10.941
35588W        W 4061  18.702  35.386   2.864
35589W        W 4062   9.768   9.278   2.237
35590W        W 4063  36.855  17.125  12.034
35591W        W 4064  32.111  35.489   4.308
35592W        W 4065  20.612  24.661  14.492
35593W        W 4066  38.490  34.957  10.615
35594W        W 4067  34.508  24.173   4.704
35595W        W 4068  44.949  38.384  11.051
35596W        W 4069  11.808  22.677   0.471
35597W        W 4070  19.587  21.076  12.340
35598W        W 4071  10.214  39.381  12.961
35599W        W 4072   0.849  29.618   4.227
35600W        W 4073   5.386   6.710   3.185
35601W        W 4074  24.192  36.083   4.715
35602W        W 4075  38.069  41.495   1.787
35603W        W 4076  38.949   6.285  11.612
35604W        W 4077  18.191  35.992  12.044
35605W        W 4078  38.958   3.394  10.931
35606W        W 4079   2.807  28.585  12.966
35607W        W 4080  24.975  32.493  13.496
35608W        W 4081  36.485  20.212  12.478
35609W        W 4082   2.349  24.714  14.981
35610W        W 4083  18.050   2.929  11.392
35611W        W 4084  19.669  23.990   5.221
35612W        W 4085   8.225  28.508   1.787
35613W        W 4086  26.508   1.956   0.802
35614W        W 4087   6.858   8.313   4.210
35615W        W 4088  18.088  21.123   1.728
35616W        W 4089  15.684   3.390  11.939
35617W        W 4090  43.284  43.771  10.988
35618W        W 4091  44.827  36.549  12.006
35619W        W 4092  20.260  43.963   1.309
35620W        W 4093  32.124   7.354  11.879
35621W        W 4094  44.284  12.639   3.171
35622W        W 4095  32.135   3.239   1.714
35623W        W 4096   9.172  27.522   2.880
35624W        W 4097  28.112  39.919   4.743
35625W        W 4098  38.843  39.336  14.026
35626W        W 4099  24.571   8.373   1.429
35627W        W 4100  20.256  40.032   4.178
35628W        W 4101  36.582  24.721  14.372
35629W        W 4102   7.406  41.422  11.516
35630W        W 4103  36.921  32.625   4.795
35631W        W 4104  10.282  13.841   4.138
35632W        W 4105  36.461  43.371  14.468
35633W        W 4106  25.516   6.423  14.341
35634W        W 4107  14.323  41.320   2.848
35635W        W 4108  12.118  41.885  11.056
35636W        W 4109  40.369   6.395   0.738
35637W        W 4110   8.682  36.944  14.281
35638W        W 4111  23.731  42.468  12.981
35639W        W 4112  25.480  26.053   4.344
35640W        W 4113  12.198   5.352   1.789
35641W        W 4114  20.708  40.325  11.074
35642W        W 4115   5.879  35.059  10.591
35643W        W 4116  18.619  12.742  14.443
35644W        W 4117   1.260  10.841  11.473
35645W        W 4118  41.530   3.290   2.836
35646W        W 4119   5.299  34.095   2.386
35647W        W 4120  21.132  39.518   2.249
35648W        W 4121  35.930  14.718   4.723
35649W        W 4122  29.486  33.096  12.078
35650W        W 4123  42.783  44.467  12.562
35651W        W 4124  21.026  41.845   3.354
35652W        W 4125  20.068  43.805  14.963
35653W        W 4126  12.160  28.173  13.411
35654W        W 4127  13.301   9.829   4.821
35655W        W 4128  34.905   0.491   0.820
35656W        W 4129   7.891  42.921  10.428
35657W        W 4130  15.583  16.301   2.403
35658W        W 4131  44.853  34.593   4.256
35659W        W 4132   1.965  32.622   3.637
35660W        W 4133   4.380  24.080  10.500
35661W        W 4134  29.154   0.799   0.410
35662W        W 4135   6.251   7.267  10.048
35663W        W 4136   8.877  36.516  10.152
35664W        W 4137  23.539  24.163  13.041
35665W        W 4138   3.946  23.572   1.885
35666W        W 4139  27.614  29.618  11.420
35667W        W 4140  24.006  35.882   3.842
35668W        W 4141  41.041  40.996  10.501
35669W        W 4142  36.439  24.013  12.356
35670W        W 4143   1.411   1.336   0.860
35671W        W 4144  39.350  35.928   1.908
35672W        W 4145  19.651  38.057  14.276
35673W        W 4146  13.808  37.875  13.372
35674W        W 4147  24.026  35.003   3.635
35675W        W 4148  14.299  33.531  12.478
35676W        W 4149  37.479  31.548  11.381
35677W        W 4150  42.845  44.771  14.443
35678W        W 4151  33.117   3.877  12.944
35679W        W 4152  32.499  36.982  14.402
35680W        W 4153  31.970  40.806   4.309
35681W        W 4154  20.232  11.791   0.804
35682W        W 4155  20.066  10.684   1.783
35683W        W 4156  44.762  26.670   0.354
35684W        W 4157   0.860  21.575  10.442
35685W        W 4158  18.759  15.737  13.523
35686W        W 4159  19.711  35.008   3.732
35687W        W 4160  17.742  15.173   0.931
35688W        W 4161  28.490  10.196   2.869
35689W        W 4162  28.441   7.332   3.843
35690W        W 4163  13.185  18.059   1.281
35691W        W 4164  19.256  18.622  12.983
35692W        W 4165  22.212  27.483   3.833
35693W        W 4166  24.568  36.951   0.840
35694W        W 4167  38.433  12.162   3.203
35695W        W 4168  24.194  35.539  13.479
35696W        W 4169  23.138  14.613   3.757
35697W        W 4170   2.457   7.386   5.233
35698W        W 4171   9.164  34.112  11.000
35699W        W 4172  11.240  16.202   1.292
35700W        W 4173  31.927  41.403  14.883
35701W        W 4174  36.418   4.438  11.088
35702W        W 4175   5.735  23.232  13.937
35703W        W 4176  43.926  42.356  13.910
35704W        W 4177  31.544  10.163  13.319
35705W        W 4178  37.373  27.449   3.360
35706W        W 4179  16.123  24.521  12.386
35707W        W 4180   5.277  32.401   3.742
35708W        W 4181  13.277  40.443  14.982
35709W        W 4182  27.953   6.322  11.398
35710W        W 4183  40.460   1.268  13.997
35711W        W 4184  39.991   6.751   1.273
35712W        W 4185  23.135  37.943   2.753
35713W        W 4186   5.717  35.525  11.507
35714W        W 4187  23.233  26.633  14.428
35715W        W 4188  39.832   3.237  14.922
35716W        W 4189  23.019  24.706   2.878
35717W        W 4190  43.854  40.876  11.969
35718W        W 4191  29.000   5.910  13.544
35719W        W 4192   1.865  33.951   3.640
35720W        W 4193  25.211  16.577  14.368
35721W        W 4194  30.010  37.392   1.698
35722W        W 4195   7.222  33.624  10.911
35723W        W 4196   2.368  16.590   3.279
35724W        W 4197  32.579   9.729  11.971
35725W        W 4198   7.777   1.479   4.115
35726W        W 4199  40.010  12.719   0.330
35727W        W 4200  26.678  32.004  11.951
35728W        W 4201   8.668  11.223  10.953
35729W        W 4202   2.927  26.515  10.114
35730W        W 4203  21.696  26.139   1.376
35731W        W 4204  37.423  37.922   2.242
35732W        W 4205   8.398  13.172  12.850
35733W        W 4206   3.904  14.604  11.128
35734W        W 4207   5.394   2.320   0.950
35735W        W 4208  24.617   0.363   2.717
35736W        W 4209   7.885  11.815   0.298
35737W        W 4210  25.151  38.990   5.093
35738W        W 4211  18.133  16.746  13.431
35739W        W 4212   2.865   9.236   2.895
35740W        W 4213  44.866  32.608  13.337
35741W        W 4214  10.331   5.759   4.634
35742W        W 4215  20.647  18.745   1.888
35743W        W 4216  13.615  17.665   4.810
35744W        W 4217  41.323   7.882  13.461
35745W        W 4218  14.180  12.255  14.937
35746W        W 4219  17.606  35.025  13.017
35747W        W 4220  25.585  44.952  11.108
35748W        W 4221  37.025  30.431   3.160
35749W        W 4222  17.614   2.292  13.843
35750W        W 4223  16.573  12.713   0.471
35751W        W 4224  22.195   9.648   2.295
35752W        W 4225  13.138   4.291   4.792
35753W        W 4226  43.483  43.325  10.550
35754W        W 4227  12.216  24.102   4.124
35755W        W 4228  44.928  26.634   2.405
35756W        W 4229   6.827  33.549   4.755
35757W        W 4230  23.509  14.168  14.407
35758W        W 4231  16.633  37.481   4.786
35759W        W 4232   1.422  44.483   0.480
35760W        W 4233  30.469   9.843   3.278
35761W        W 4234   4.253  27.514  11.887
35762W        W 4235  21.055  23.147   9.975
35763W        W 4236  28.587  11.823  13.888
35764W        W 4237  15.170  31.539   1.694
35765W        W 4238   5.298  31.557  14.404
35766W        W 4239   3.750  32.578  13.019
35767W        W 4240   2.832  12.677  13.042
35768W        W 4241   8.804  30.120  12.024
35769W        W 4242  20.724  38.873   2.259
35770W        W 4243  38.547   2.961  11.061
35771W        W 4244   0.887  27.142   0.443
35772W        W 4245  15.150  42.370  12.539
35773W        W 4246   8.765  19.045  10.549
35774W        W 4247  38.948  32.436  11.091
35775W        W 4248   9.317  42.452   0.366
35776W        W 4249  32.039  19.612  13.938
35777W        W 4250  25.147   3.400  14.408
35778W        W 4251  38.981  26.196  14.796
35779W        W 4252  27.603  11.318   2.872
35780W        W 4253  10.182  35.047   2.390
35781W        W 4254  20.550  29.166   2.212
35782W        W 4255  39.892  35.531  11.881
35783W        W 4256  10.188  11.158   4.263
35784W        W 4257  23.988  35.371   3.774
35785W        W 4258  28.983   5.708  12.511
35786W        W 4259   1.294  27.513  13.803
35787W        W 4260  24.579  39.995   4.836
35788W        W 4261   4.860  40.316   5.110
35789W        W 4262  35.994   1.252   1.710
35790W        W 4263   6.716   5.920  14.343
35791W        W 4264  32.109  26.533   9.991
35792W        W 4265  39.462  13.150  12.378
35793W        W 4266  16.710  10.785  10.552
35794W        W 4267   2.859  44.976   0.459
35795W        W 4268  21.066  31.945  14.032
35796W        W 4269  40.352  23.614  11.560
35797W        W 4270  28.505  39.015  11.466
35798W        W 4271  27.056  35.873   2.662
35799W        W 4272  24.653  31.488   2.823
35800W        W 4273  28.031  43.884   4.149
35801W        W 4274   1.823  35.483  11.873
35802W        W 4275  18.207  32.953   3.179
35803W        W 4276   8.234   4.943   4.116
35804W        W 4277  16.725  19.620  11.934
35805W        W 4278  22.046  16.256   2.205
35806W        W 4279  13.830  17.168  13.333
35807W        W 4280   4.322  20.684   2.692
35808W        W 4281  36.406   1.759  13.921
35809W        W 4282  41.815   1.755   3.175
35810W        W 4283   2.463  29.978  10.594
35811W        W 4284  44.279  34.513   4.168
35812W        W 4285  10.304  18.168  11.557
35813W        W 4286  41.915   4.274  11.991
35814W        W 4287   6.399  28.651   0.445
35815W        W 4288   8.314  42.376  11.102
35816W        W 4289  16.288  21.167   0.752
35817W        W 4290  30.039  34.529  13.800
35818W        W 4291  23.219  25.168  14.979
35819W        W 4292  35.872  27.046   4.249
35820W        W 4293  25.517   6.692  12.439
35821W        W 4294  33.127  43.439  11.054
35822W        W 4295  13.108   5.857   3.669
35823W        W 4296  37.484  34.581   3.870
35824W        W 4297  35.365   2.939   3.695
35825W        W 4298  38.334  13.688  12.978
35826W        W 4299  27.003  18.578   0.409
35827W        W 4300  25.526  40.437  13.335
35828W        W 4301  19.708  19.243   0.278
35829W        W 4302  33.030  43.919   1.266
35830W        W 4303   3.449   4.366   0.889
35831W        W 4304   5.782   3.884   5.760
35832W        W 4305  23.573  24.188   1.398
35833W        W 4306  30.583  10.845  13.823
35834W        W 4307   7.684  34.121   2.327
35835W        W 4308  37.015  33.128   1.894
35836W        W 4309  36.474  10.819   0.349
35837W        W 4310  21.129   9.201   1.702
35838W        W 4311  40.475  33.578   1.447
35839W        W 4312  12.691  23.117  14.303
35840W        W 4313   0.381  43.425   0.395
35841W        W 4314  42.374  30.158   4.318
35842W        W 4315  16.106  24.007   3.845
35843W        W 4316  24.974   0.312  12.968
35844W        W 4317   6.916  14.630  10.936
35845W        W 4318  20.708  23.681   2.287
35846W        W 4319  42.849  10.235   1.721
35847W        W 4320  34.403  37.498  12.509
35848W        W 4321  14.800  41.804   4.342
35849W        W 4322  15.647  19.777   1.363
35850W        W 4323  42.356   7.275  12.995
35851W        W 4324  10.313  10.847  13.526
35852W        W 4325  17.272  39.320  14.766
35853W        W 4326  33.897   3.868   1.329
35854W        W 4327  36.483  19.629  13.356
35855W        W 4328  10.188   9.235  12.947
35856W        W 4329   4.800  16.191   2.846
35857W        W 4330  12.670  13.248  10.595
35858W        W 4331  38.412   4.895   4.247
35859W        W 4332   8.862  39.515   0.874
35860W        W 4333  23.541  17.113  12.966
35861W        W 4334   2.770  29.052  14.461
35862W        W 4335  15.132  13.199   1.833
35863W        W 4336  40.831  35.910   1.911
35864W        W 4337  11.270  30.127   4.315
35865W        W 4338  33.095  32.044   3.377
35866W        W 4339  26.032   6.205   0.342
35867W        W 4340  17.291   4.334   0.880
35868W        W 4341  19.727  14.271  13.337
35869W        W 4342  33.049  40.519   0.854
35870W        W 4343   6.205  22.102   4.133
35871W        W 4344  11.714  26.150   2.231
35872W        W 4345  40.043  27.045   3.282
35873W        W 4346  10.876  26.475  10.625
35874W        W 4347  19.551  31.630  11.900
35875W        W 4348  18.568  12.328  13.505
35876W        W 4349  15.636  23.700  12.839
35877W        W 4350  16.631  17.610  12.386
35878W        W 4351  38.553   9.272   2.714
35879W        W 4352  31.048  31.960  10.958
35880W        W 4353   5.831  30.911   2.414
35881W        W 4354  24.525  10.659   0.297
35882W        W 4355  42.425  28.488  13.422
35883W        W 4356  11.772  32.096  13.523
35884W        W 4357  24.210  39.009  13.331
35885W        W 4358   2.769  19.105  13.458
35886W        W 4359  19.082  41.367   4.227
35887W        W 4360  27.086  37.415   1.406
35888W        W 4361  23.634  43.830   1.738
35889W        W 4362  27.683  40.475   2.275
35890W        W 4363  15.233   9.212  11.580
35891W        W 4364  30.982  20.709  13.978
35892W        W 4365   4.896  15.252  11.961
35893W        W 4366  28.151  11.217   3.820
35894W        W 4367  38.429  25.116  14.010
35895W        W 4368  25.613  36.455   1.210
35896W        W 4369  32.064  29.619   3.208
35897W        W 4370  30.543   9.714   2.259
35898W        W 4371  39.466  12.807   1.851
35899W        W 4372  40.457  26.027   2.262
35900W        W 4373   7.364   3.227   5.196
35901W        W 4374  37.336  27.521   0.301
35902W        W 4375  34.931  22.112   2.217
35903W        W 4376   3.758  27.105  14.860
35904W        W 4377   8.704  20.677   3.723
35905W        W 4378  21.181  27.023  10.637
35906W        W 4379  31.085  15.108  12.043
35907W        W 4380  15.631  40.428  11.872
35908W        W 4381  12.332  35.436  11.404
35909W        W 4382  30.432   7.672  10.923
35910W        W 4383  35.540   3.713   4.633
35911W        W 4384  19.759  40.896  13.818
35912W        W 4385  15.095  38.379   4.611
35913W        W 4386  12.663   4.788   4.229
35914W        W 4387   6.850  14.153  10.135
35915W        W 4388   4.896  32.523  12.927
35916W        W 4389  30.527  35.012  10.536
35917W        W 4390  40.026  44.935  14.862
35918W        W 4391  25.668  21.041  11.081
35919W        W 4392  14.804   7.238   2.226
35920W        W 4393   4.390  42.031   0.443
35921W        W 4394   9.347  44.871   0.451
35922W        W 4395  20.212  36.042  10.962
35923W        W 4396   6.397   8.676  13.920
35924W        W 4397  26.544  35.423  14.828
35925W        W 4398  44.499   4.780  11.047
35926W        W 4399  44.796  39.843  14.431
35927W        W 4400   0.766  19.073   2.898
35928W        W 4401   7.297  20.231   2.688
35929W        W 4402   6.806  13.110   9.525
35930W        W 4403   3.955  40.521   3.217
35931W        W 4404  33.079  33.573   0.243
35932W        W 4405  26.185  41.315   0.899
35933W        W 4406  34.474   0.894   0.268
35934W        W 4407  39.370  25.599  13.881
35935W        W 4408  20.184   2.279  10.547
35936W        W 4409  33.434  30.977   0.825
35937W        W 4410  22.230  20.219   4.728
35938W        W 4411  30.034  28.567  13.487
35939W        W 4412  23.617  15.292  12.505
35940W        W 4413   8.872   4.885   3.163
35941W        W 4414  22.240   2.769  12.859
35942W        W 4415  14.274   4.903  10.918
35943W        W 4416  23.001   9.745  11.949
35944W        W 4417  27.059   8.827  12.455
35945W        W 4418  10.205  14.206   3.375
35946W        W 4419   7.825  34.567  10.958
35947W        W 4420  10.799   1.935   0.770
35948W        W 4421  30.065  27.084  12.479
35949W        W 4422  44.438  42.411  14.007
35950W        W 4423  22.633  22.604  13.320
35951W        W 4424  35.983  14.621  11.869
35952W        W 4425  33.416  28.105   3.867
35953W        W 4426  37.934  10.187   0.743
35954W        W 4427  33.419  42.440   0.282
35955W        W 4428  16.261  36.051  12.485
35956W        W 4429  26.662  30.628   3.298
35957W        W 4430  37.498   3.844   1.334
35958W        W 4431  13.199  23.059   4.267
35959W        W 4432  36.868  17.068  11.096
35960W        W 4433  40.488  44.261   4.313
35961W        W 4434  15.270   6.293   0.346
35962W        W 4435  27.977  18.553  11.900
35963W        W 4436  12.352  24.140   2.193
35964W        W 4437  35.548  19.096   0.279
35965W        W 4438  30.504  36.474  10.999
35966W        W 4439  12.234  23.727   0.767
35967W        W 4440  42.811  33.925   3.286
35968W        W 4441  40.962  11.360   4.632
35969W        W 4442  42.357   2.281  14.833
35970W        W 4443  25.189   7.232  12.410
35971W        W 4444  12.183  21.170   1.373
35972W        W 4445  12.666  40.548  13.793
35973W        W 4446  29.476  23.500   3.162
35974W        W 4447  34.385  15.595  11.129
35975W        W 4448  37.957   4.772   3.698
35976W        W 4449  13.291   2.466   4.734
35977W        W 4450  21.608   9.699  11.449
35978W        W 4451  44.408  42.414  10.643
35979W        W 4452  30.459  20.595  10.954
35980W        W 4453   9.857   7.384  14.946
35981W        W 4454  21.114  40.850  10.500
35982W        W 4455  24.198  27.180   1.411
35983W        W 4456  23.543  44.777   2.381
35984W        W 4457  28.647  31.975  14.459
35985W        W 4458   5.247  44.862   4.337
35986W        W 4459   3.769   7.385   4.200
35987W        W 4460  16.290  12.698   5.247
35988W        W 4461  31.107  16.681   0.743
35989W        W 4462   6.233  13.601   2.409
35990W        W 4463  16.091  35.464   0.902
35991W        W 4464  44.478   9.717  12.886
35992W        W 4465   0.907  30.120   4.819
35993W        W 4466  20.605   9.643  13.039
35994W        W 4467  38.539  28.155  13.540
35995W        W 4468   1.882  43.283   1.321
35996W        W 4469  14.646  14.817  12.413
35997W        W 4470  11.249   7.747   2.792
35998W        W 4471  42.410  20.630   2.698
35999W        W 4472   5.357  29.022  12.497
36000W        W 4473  39.917  20.667   1.776
36001W        W 4474   0.939  28.965   4.719
36002W        W 4475  25.186   9.168   0.461
36003W        W 4476  16.733  25.505  14.933
36004W        W 4477  22.209  42.406   3.766
36005W        W 4478   1.835  13.841   3.376
36006W        W 4479  31.149  29.535  12.340
36007W        W 4480  37.557  30.495   1.861
36008W        W 4481  28.995  24.994  11.598
36009W        W 4482  28.148  14.615  10.929
36010W        W 4483  18.219  33.048   4.755
36011W        W 4484   8.276  20.593  14.823
36012W        W 4485  25.190  25.704   0.741
36013W        W 4486   6.244  29.946  11.477
36014W        W 4487  25.137   1.457  10.155
36015W        W 4488  13.642   9.200   4.286
36016W        W 4489  44.891  17.684   0.292
36017W        W 4490  37.414   1.925  14.016
36018W        W 4491  24.479  29.966   3.212
36019W        W 4492  30.654   9.839  11.950
36020W        W 4493  30.586  36.377   3.195
36021W        W 4494   3.944  23.663   2.746
36022W        W 4495  39.542  35.359  13.544
36023W        W 4496  11.862  31.439  12.533
36024W        W 4497  37.543  31.502   3.705
36025W        W 4498  44.281  31.608   4.310
36026W        W 4499  38.547  13.223  13.801
36027W        W 4500   2.847  24.985   3.720
36028W        W 4501  34.383  35.053   2.204
36029W        W 4502  27.037  22.186   0.331
36030W        W 4503  42.513  21.711  14.933
36031W        W 4504  20.035  27.996  12.352
36032W        W 4505  44.461   2.966  12.878
36033W        W 4506  18.084   0.410   2.251
36034W        W 4507  26.993  41.939  12.999
36035W        W 4508  41.899  30.154  12.027
36036W        W 4509  40.821   1.771   2.215
36037W        W 4510   2.840  28.486  10.633
36038W        W 4511  27.666  12.201   0.249
36039W        W 4512  17.740  13.226  14.475
36040W        W 4513   0.868  36.359   1.783
36041W        W 4514  38.413   8.677  14.504
36042W        W 4515  41.948  13.710   0.813
36043W        W 4516   0.884  27.681  13.419
36044W        W 4517   2.800  28.057   0.838
36045W        W 4518  18.272  16.302   0.905
36046W        W 4519  39.968  43.002   4.741
36047W        W 4520  35.364  31.497   1.743
36048W        W 4521   7.718  37.399  10.405
36049W        W 4522  38.448   4.247   4.724
36050W        W 4523  20.268   1.797  11.047
36051W        W 4524  23.078  33.911   0.350
36052W        W 4525  10.295  19.159   3.344
36053W        W 4526  19.602  43.487   2.346
36054W        W 4527  24.544  27.522  13.826
36055W        W 4528   9.154  44.287  13.480
36056W        W 4529  26.171  35.006   3.816
36057W        W 4530  34.406  40.986  11.110
36058W        W 4531  32.483  23.715   5.085
36059W        W 4532  16.637  37.572  11.466
36060W        W 4533  23.984  43.951  14.807
36061W        W 4534  12.801  23.537  14.390
36062W        W 4535  22.118  20.225   2.685
36063W        W 4536  39.987  15.665  13.943
36064W        W 4537   1.751   7.868  14.950
36065W        W 4538  10.247  34.082  12.091
36066W        W 4539  11.674  40.827   3.171
36067W        W 4540  44.860  21.720   4.223
36068W        W 4541  20.215  13.811   1.841
36069W        W 4542  17.088  13.281  10.988
36070W        W 4543  24.700  28.505   2.374
36071W        W 4544  31.498  13.713   4.241
36072W        W 4545   6.881   3.864   9.673
36073W        W 4546  25.541   4.239   4.193
36074W        W 4547  10.783  43.870   1.718
36075W        W 4548  30.159   1.780   3.860
36076W        W 4549   6.852  33.104  11.008
36077W        W 4550  39.994  39.560   0.301
36078W        W 4551  38.490  43.804  13.856
36079W        W 4552  15.738  37.943   9.604
36080W        W 4553  43.893  30.064  14.279
36081W        W 4554   5.914  31.107   2.778
36082W        W 4555   0.348   5.772  11.910
36083W        W 4556  10.863  25.645   3.343
36084W        W 4557  42.340   6.793  14.314
36085W        W 4558   9.164  31.971   0.821
36086W        W 4559   9.326  25.680   4.176
36087W        W 4560  20.536  16.761   1.407
36088W        W 4561  19.711  21.122   4.680
36089W        W 4562  39.030  15.208  12.922
36090W        W 4563  40.418  29.134  14.819
36091W        W 4564   1.936  41.952  11.524
36092W        W 4565  20.111   1.764  14.404
36093W        W 4566  33.472  42.974  13.349
36094W        W 4567  41.799   8.711  14.424
36095W        W 4568  23.695  41.947  11.902
36096W        W 4569   5.433   1.912  14.007
36097W        W 4570  12.285  34.954  11.577
36098W        W 4571   8.261   4.242   5.724
36099W        W 4572  23.094  43.895   3.340
36100W        W 4573  15.795  42.867  11.540
36101W        W 4574  41.796  24.688   3.161
36102W        W 4575  31.495  40.896  13.373
36103W        W 4576  17.646  33.477  12.859
36104W        W 4577  32.925  29.461  12.905
36105W        W 4578  38.419  16.808  13.050
36106W        W 4579  32.953  42.825   2.401
36107W        W 4580  35.424   5.800  13.351
36108W        W 4581  31.136  29.665  10.890
36109W        W 4582  28.573  33.450  12.997
36110W        W 4583  21.577  12.749   9.633
36111W        W 4584  23.576  14.669   4.725
36112W        W 4585  22.038  30.062   1.740
36113W        W 4586   0.881   1.247  12.428
36114W        W 4587   7.681  20.062  10.892
36115W        W 4588  15.311  38.537   4.162
36116W        W 4589  30.051  44.496   4.198
36117W        W 4590  44.477   5.811  14.819
36118W        W 4591  20.246  39.810  13.422
36119W        W 4592  40.546  18.711  14.869
36120W        W 4593  29.053  10.361  14.305
36121W        W 4594  42.435  38.831   4.633
36122W        W 4595  36.479  35.458   0.411
36123W        W 4596   3.450  42.939  12.526
36124W        W 4597   4.427  23.142   1.421
36125W        W 4598  13.190   8.729   2.237
36126W        W 4599  29.461  43.295   3.870
36127W        W 4600  35.475   2.386  14.503
36128W        W 4601  36.492  13.635   4.735
36129W        W 4602  13.807  10.715   4.250
36130W        W 4603  19.648  21.250   4.174
36131W        W 4604  20.059  20.093  13.993
36132W        W 4605  41.995  19.592   4.135
36133W        W 4606  22.622  32.490   0.828
36134W        W 4607   2.772  42.435   3.751
36135W        W 4608  12.319  12.295  11.931
36136W        W 4609  39.946  15.227  11.965
36137W        W 4610  13.257   5.849   2.336
36138W        W 4611   6.913  11.282  14.897
36139W        W 4612  33.609  21.110   3.714
36140W        W 4613  35.085   9.181   4.220
36141W        W 4614  28.162  35.901   3.818
36142W        W 4615   8.744  36.010  11.604
36143W        W 4616  30.615   9.260  14.952
36144W        W 4617  41.505  42.503  10.561
36145W        W 4618  22.709   6.213  14.797
36146W        W 4619  17.303   0.774   0.770
36147W        W 4620  25.993   7.766  12.516
36148W        W 4621  28.043  42.432  12.862
36149W        W 4622  31.109  26.050   4.689
36150W        W 4623  40.890   7.187   1.262
36151W        W 4624  28.974  16.645   2.329
36152W        W 4625   1.843  10.239   1.706
36153W        W 4626   3.422  25.088   4.303
36154W        W 4627  44.392  28.608   2.748
36155W        W 4628  31.416  26.054   5.623
36156W        W 4629  23.706  39.827   4.791
36157W        W 4630   3.869  14.236  14.426
36158W        W 4631  23.220   4.859   0.370
36159W        W 4632  31.571  35.039   0.868
36160W        W 4633   0.839   5.723  10.451
36161W        W 4634  17.572  36.852   4.184
36162W        W 4635  19.607  14.684  13.833
36163W        W 4636   5.308   5.843  12.905
36164W        W 4637  24.131  24.540  11.588
36165W        W 4638   7.728  37.870  14.421
36166W        W 4639   3.847  41.525  13.447
36167W        W 4640  11.844   7.859  14.930
36168W        W 4641  20.163  18.061   5.218
36169W        W 4642  43.474  24.531  13.533
36170W        W 4643   7.302  37.931   0.287
36171W        W 4644  18.699  35.961  10.533
36172W        W 4645  25.981   6.304   0.782
36173W        W 4646   4.213   0.916   1.227
36174W        W 4647  21.196  12.697   2.861
36175W        W 4648  14.735   4.737  12.507
36176W        W 4649  22.662   0.979  12.431
36177W        W 4650   8.320  27.026  14.010
36178W        W 4651  39.515  22.674  13.823
36179W        W 4652  29.509   5.308   2.903
36180W        W 4653  23.053  43.277  13.378
36181W        W 4654  40.472  29.004  12.380
36182W        W 4655  42.444  25.553  11.059
36183W        W 4656  12.257  38.963  12.564
36184W        W 4657  39.428  20.656   3.782
36185W        W 4658  22.677  44.864  14.304
36186W        W 4659  35.017   1.260  12.457
36187W        W 4660  20.271  31.936  13.997
36188W        W 4661  35.396   1.368  12.548
36189W        W 4662   3.904  43.425  12.578
36190W        W 4663  24.683   7.373  11.986
36191W        W 4664  38.461   9.231   3.331
36192W        W 4665   6.750  17.286   1.907
36193W        W 4666  44.343   7.718   3.692
36194W        W 4667  13.311  32.890   4.735
36195W        W 4668  29.620  12.847  14.471
36196W        W 4669  17.572  15.784   4.256
36197W        W 4670   0.265  16.305   3.794
36198W        W 4671  33.003  14.171  12.503
36199W        W 4672  11.370   8.362  11.526
36200W        W 4673  34.915  19.162   3.860
36201W        W 4674   5.229  14.814  11.435
36202W        W 4675   9.330   6.766  11.937
36203W        W 4676  29.654   0.940   3.729
36204W        W 4677   1.936   5.782   0.334
36205W        W 4678  27.613   0.346  11.513
36206W        W 4679   5.834  24.167  14.828
36207W        W 4680   4.776  29.456  14.470
36208W        W 4681  28.672  26.043   1.247
36209W        W 4682  39.015   9.694   4.698
36210W        W 4683  12.760  42.444  11.061
36211W        W 4684  19.668   1.893   2.281
36212W        W 4685  29.008  33.599  12.957
36213W        W 4686  11.309  41.488  12.092
36214W        W 4687   1.260  43.906  10.899
36215W        W 4688  14.722  32.053  14.023
36216W        W 4689  42.338  25.196  11.058
36217W        W 4690  22.718  13.832  12.457
36218W        W 4691  26.109  10.273  11.976
36219W        W 4692  27.026  34.549   0.915
36220W        W 4693  19.734  33.398  14.833
36221W        W 4694   6.355   5.821  12.343
36222W        W 4695  35.038  36.500   0.836
36223W        W 4696  27.123  18.124  10.969
36224W        W 4697  31.562   2.354  10.989
36225W        W 4698  22.198  14.699  12.554
36226W        W 4699  28.641  34.913   0.476
36227W        W 4700  14.608  29.631   2.742
36228W        W 4701  24.679  12.816   1.809
36229W        W 4702   0.358  21.706  14.502
36230W        W 4703  37.374   3.848  11.402
36231W        W 4704  37.363  22.109   4.678
36232W        W 4705   7.246  40.846  14.942
36233W        W 4706  28.531  18.730   0.291
36234W        W 4707  23.019   1.265  14.855
36235W        W 4708  10.236  21.076   4.208
36236W        W 4709  37.363  10.706  12.020
36237W        W 4710  44.461   1.973  13.826
36238W        W 4711  23.535  40.847  10.480
36239W        W 4712  40.823  29.919  11.494
36240W        W 4713  37.064  27.683   4.704
36241W        W 4714  30.097  25.087  11.898
36242W        W 4715  22.012  37.979  10.505
36243W        W 4716  23.708  19.189  10.505
36244W        W 4717  20.261  10.735  13.433
36245W        W 4718  39.392  14.273   0.919
36246W        W 4719   0.905   8.892  11.445
36247W        W 4720  17.215  26.073  10.553
36248W        W 4721  39.474  10.795  10.450
36249W        W 4722  42.299   8.199   2.801
36250W        W 4723   9.342  12.233   2.663
36251W        W 4724  37.910  15.218   1.739
36252W        W 4725  40.351  41.471  14.371
36253W        W 4726  41.476  12.761   1.388
36254W        W 4727  20.642   2.275   1.214
36255W        W 4728  15.307  31.957   4.798
36256W        W 4729   1.335  35.992  11.379
36257W        W 4730  18.231  20.228  14.793
36258W        W 4731  20.108  32.970   0.855
36259W        W 4732  30.481  23.091  10.969
36260W        W 4733  16.089  13.258  13.021
36261W        W 4734  17.157  15.127   3.324
36262W        W 4735  43.488  42.872   3.302
36263W        W 4736  19.062   4.920  13.036
36264W        W 4737  22.156   8.791  12.886
36265W        W 4738  38.060   4.401  13.335
36266W        W 4739   9.660   2.842   1.860
36267W        W 4740  23.075   6.891  12.385
36268W        W 4741  41.523   7.826  14.937
36269W        W 4742  18.071  44.491  12.929
36270W        W 4743   4.326  18.697   3.193
36271W        W 4744   2.802   0.850  14.963
36272W        W 4745  25.974  22.599  14.495
36273W        W 4746  19.578  37.433   5.086
36274W        W 4747  36.087  20.086   3.367
36275W        W 4748  14.785  26.593  11.026
36276W        W 4749  14.818  38.940   4.151
36277W        W 4750  42.371  40.530  14.354
36278W        W 4751  41.788  35.038  10.160
36279W        W 4752  14.802  38.973   3.731
36280W        W 4753   5.212  37.570   4.817
36281W        W 4754  10.819  42.830  10.138
36282W        W 4755  40.394  23.173  13.793
36283W        W 4756  42.905  10.237  10.560
36284W        W 4757  38.487  23.168  10.922
36285W        W 4758  41.799  13.719   1.226
36286W        W 4759  19.762  15.758  13.018
36287W        W 4760  29.462  14.318   1.769
36288W        W 4761  27.991  17.691  14.393
36289W        W 4762  16.227   7.371  14.395
36290W        W 4763  25.713  34.382  11.070
36291W        W 4764   6.186  17.710  14.376
36292W        W 4765  30.589  39.998  12.380
36293W        W 4766   2.267  18.080  11.552
36294W        W 4767  25.146  14.663  12.535
36295W        W 4768  22.016  10.248   9.963
36296W        W 4769  25.604  14.770  13.483
36297W        W 4770  28.008  27.012  11.603
36298W        W 4771  25.577  18.607   2.761
36299W        W 4772   5.926  36.033   0.340
36300W        W 4773  39.056  15.097   4.792
36301W        W 4774   2.959  16.585  10.595
36302W        W 4775  22.745  21.664  11.012
36303W        W 4776   4.804  36.846   0.774
36304W        W 4777  14.763  23.626  14.852
36305W        W 4778  29.451  22.173  13.317
36306W        W 4779  31.989  24.605  11.107
36307W        W 4780  24.035  43.511  12.880
36308W        W 4781  30.153  27.024   1.770
36309W        W 4782  36.451  11.800  12.346
36310W        W 4783   3.248  40.034   0.753
36311W        W 4784   7.710  22.617   4.613
36312W        W 4785  13.723   7.230  11.547
36313W        W 4786  21.588  18.060  11.096
36314W        W 4787   0.275  19.091  11.439
36315W        W 4788  38.523  32.927   2.771
36316W        W 4789   8.801  13.246  12.565
36317W        W 4790  11.183  34.925  12.576
36318W        W 4791  43.796  21.644  12.578
36319W        W 4792   0.788  21.017   2.347
36320W        W 4793   1.359  39.992   2.874
36321W        W 4794   3.242  33.119   1.792
36322W        W 4795   6.184  44.916   2.324
36323W        W 4796  14.734  35.918  12.452
36324W        W 4797  13.778  44.848   3.146
36325W        W 4798  33.937  17.661   0.850
36326W        W 4799   8.268   1.320   2.181
36327W        W 4800  26.470  16.188   0.293
36328W        W 4801   4.433   7.862   0.270
36329W        W 4802   1.779  32.521  10.999
36330W        W 4803  27.448   4.753  11.955
36331W        W 4804  43.997   0.402  11.596
36332W        W 4805  38.513   8.847   1.281
36333W        W 4806  23.493  17.090   1.342
36334W        W 4807  30.056  41.991   0.833
36335W        W 4808  35.531  12.614   0.270
36336W        W 4809   5.301  42.332   0.446
36337W        W 4810   4.331  36.052  10.499
36338W        W 4811  11.766   5.334  11.374
36339W        W 4812  32.021  40.372   2.902
36340W        W 4813  26.955  30.607   1.716
36341W        W 4814  33.979  14.126   4.817
36342W        W 4815  20.555  29.607  13.511
36343W        W 4816  15.708  35.446   0.760
36344W        W 4817  15.141  41.413   0.857
36345W        W 4818  28.039  44.468  11.984
36346W        W 4819  28.454  33.530   2.405
36347W        W 4820  18.153   1.925   0.358
36348W        W 4821  25.172   1.408  11.120
36349W        W 4822   4.789   8.213  12.417
36350W        W 4823   2.468   0.494  11.054
36351W        W 4824  21.705  37.070  12.855
36352W        W 4825  26.053  34.590  14.389
36353W        W 4826  32.457  15.297  13.915
36354W        W 4827  28.659  43.775   4.202
36355W        W 4828  33.599  32.138  10.574
36356W        W 4829  38.876  13.105   3.761
36357W        W 4830  39.377  42.908   3.304
36358W        W 4831  22.724  27.555  13.879
36359W        W 4832   6.342   9.682   3.766
36360W        W 4833  19.180  40.547   0.375
36361W        W 4834  40.886  21.576   1.928
36362W        W 4835  31.096  13.149  14.932
36363W        W 4836   1.264  11.846   0.427
36364W        W 4837   6.684  36.559  11.119
36365W        W 4838   6.206   1.927   2.755
36366W        W 4839  21.607  39.383   1.703
36367W        W 4840  27.038   8.696   0.399
36368W        W 4841  37.546  10.646   1.731
36369W        W 4842  29.142  41.397  11.928
36370W        W 4843  40.051  41.943   4.823
36371W        W 4844   4.327   2.723   0.878
36372W        W 4845  20.582  15.729  11.534
36373W        W 4846  17.171  24.568  11.925
36374W        W 4847  43.314  16.590  12.347
36375W        W 4848  21.135   4.331   3.300
36376W        W 4849  29.088  34.968  12.825
36377W        W 4850  24.163  26.202   5.678
36378W        W 4851   0.986  32.931  10.502
36379W        W 4852  38.522  26.065  10.614
36380W        W 4853  33.483  15.611   4.799
36381W        W 4854  40.842   4.338   2.178
36382W        W 4855   9.677   8.722  10.477
36383W        W 4856  27.141   5.255  12.864
36384W        W 4857  16.137  41.313   1.267
36385W        W 4858  34.602  33.078   1.323
36386W        W 4859  41.792  23.016   0.854
36387W        W 4860   6.397   3.815   2.346
36388W        W 4861  30.490  37.553  12.846
36389W        W 4862  21.212  21.056  14.455
36390W        W 4863  27.486  30.023   4.712
36391W        W 4864  13.841  32.114   0.803
36392W        W 4865  21.513  23.990   0.737
36393W        W 4866   9.291  34.110  14.300
36394W        W 4867  17.592  28.670  12.462
36395W        W 4868  31.476  19.170  13.318
36396W        W 4869  31.533  32.470   4.603
36397W        W 4870  36.419  34.563  10.576
36398W        W 4871  38.335  32.493  14.496
36399W        W 4872  29.011  35.428  10.589
36400W        W 4873  41.982  40.512  14.428
36401W        W 4874  10.837  10.350   2.796
36402W        W 4875  15.769  32.418   4.307
36403W        W 4876  21.653  27.647  12.857
36404W        W 4877  21.202  24.677   0.303
36405W        W 4878  39.043  15.670   3.250
36406W        W 4879  42.805  22.552  12.461
36407W        W 4880   9.644  24.208  12.015
36408W        W 4881  35.017  20.174  13.317
36409W        W 4882  37.884  39.418   3.356
36410W        W 4883   2.438   1.444  13.927
36411W        W 4884   9.711  26.458  10.603
36412W        W 4885   6.231   4.312   5.618
36413W        W 4886  16.103  28.445   3.292
36414W        W 4887  34.936  41.791  12.499
36415W        W 4888  20.569  43.362  14.358
36416W        W 4889  18.562  36.437  10.410
36417W        W 4890   5.884  17.116   3.367
36418W        W 4891   1.307  13.334   4.313
36419W        W 4892   1.461  37.911   4.218
36420W        W 4893  44.443  18.123   9.962
36421W        W 4894  35.078  22.179   1.244
36422W        W 4895  41.526  38.559  12.441
36423W        W 4896  11.744  24.162  11.111
36424W        W 4897  17.600   6.839  14.497
36425W        W 4898  33.029  27.163  10.415
36426W        W 4899  24.652  13.242  10.460
36427W        W 4900  39.835  29.014  12.566
36428W        W 4901  20.767  27.478   0.440
36429W        W 4902  14.197  10.670  13.913
36430W        W 4903  21.752  35.942   0.475
36431W        W 4904   5.795   4.908  10.457
36432W        W 4905  20.094  27.462  11.454
36433W        W 4906   6.809   3.772   2.205
36434W        W 4907  21.519  37.482  11.897
36435W        W 4908  22.736   0.444   4.244
36436W        W 4909   2.414   7.382  13.025
36437W        W 4910   3.216  17.238   0.296
36438W        W 4911   2.393  36.528  13.492
36439W        W 4912  23.564   0.909   2.366
36440W        W 4913  22.575  39.009  14.956
36441W        W 4914  10.652   7.859   4.347
36442W        W 4915  29.149   7.284   2.365
36443W        W 4916  30.923  34.430   4.789
36444W        W 4917   5.379  39.914  11.128
36445W        W 4918  22.686  42.512  12.029
36446W        W 4919  24.593  26.987   5.577
36447W        W 4920  20.705  31.488   0.457
36448W        W 4921   6.798   7.864  10.641
36449W        W 4922  23.702  42.893   1.838
36450W        W 4923  12.245  38.381  13.516
36451W        W 4924   6.874   0.946   3.790
36452W        W 4925   8.835  42.877   1.911
36453W        W 4926  16.634   4.225  11.067
36454W        W 4927   7.189  10.243   3.303
36455W        W 4928  11.185  22.527  13.472
36456W        W 4929  41.323  42.782   4.183
36457W        W 4930  44.297  20.176  12.835
36458W        W 4931  37.973  21.513   3.236
36459W        W 4932  12.172  35.562  14.329
36460W        W 4933  15.186  19.276   1.875
36461W        W 4934  17.143   7.728   0.336
36462W        W 4935   3.409  18.271  12.994
36463W        W 4936   5.724  43.812   0.748
36464W        W 4937  17.111  43.321   0.350
36465W        W 4938  33.577  13.111   5.157
36466W        W 4939   4.291  35.417  14.286
36467W        W 4940  28.558  37.882  13.875
36468W        W 4941  17.283   6.227   3.211
36469W        W 4942  40.427   2.242  11.552
36470W        W 4943  27.453   8.658   4.692
36471W        W 4944   4.413  20.769  12.566
36472W        W 4945   0.955   2.276  12.392
36473W        W 4946  26.531  22.176  13.924
36474W        W 4947  40.529  14.811  11.547
36475W        W 4948  42.362   9.724  12.994
36476W        W 4949  35.922   7.727  12.079
36477W        W 4950   5.258  44.010   2.356
36478W        W 4951  26.500  13.173   2.362
36479W        W 4952  39.478  22.630   3.671
36480W        W 4953   7.751  43.345   3.291
36481W        W 4954  26.133  23.492  11.980
36482W        W 4955   2.801  26.053  12.058
36483W        W 4956  23.063   4.855   3.801
36484W        W 4957   4.839  34.061  12.837
36485W        W 4958  34.959   3.783  12.467
36486W        W 4959  21.161   1.316   4.740
36487W        W 4960   3.376  17.198   0.901
36488W        W 4961  13.772  40.519   1.419
36489W        W 4962  30.574  29.053   0.916
36490W        W 4963  22.999  40.808  13.846
36491W        W 4964   7.875  12.310  12.078
36492W        W 4965  30.069   2.310  10.416
36493W        W 4966   4.250  29.996  11.519
36494W        W 4967  35.446  33.924   2.835
36495W        W 4968  40.803  23.611  10.641
36496W        W 4969  21.512  42.027   0.337
36497W        W 4970  35.405   6.304   3.869
36498W        W 4971  27.476  17.236   2.373
36499W        W 4972  23.733   2.800  10.538
36500W        W 4973  33.016  23.236  14.287
36501W        W 4974  17.269  27.121   4.686
36502W        W 4975  20.273  41.833  11.609
36503W        W 4976   6.239   6.196   0.847
36504W        W 4977  22.252  33.923  14.491
36505W        W 4978  10.688  42.883  12.861
36506W        W 4979  34.866  33.040  12.036
36507W        W 4980  38.370   1.858   3.864
36508W        W 4981  41.915  17.584  10.583
36509W        W 4982   8.876   6.383   0.811
36510W        W 4983   6.757   0.333  11.923
36511W        W 4984  14.613  38.484   1.751
36512W        W 4985   1.838   9.347  14.395
36513W        W 4986  44.439  26.577  10.045
36514W        W 4987  32.512   7.779  14.852
36515W        W 4988  36.968   9.890   3.687
36516W        W 4989  43.457  33.580   4.632
36517W        W 4990  36.402  28.005   1.838
36518W        W 4991  36.956  12.257  11.984
36519W        W 4992  44.367  39.514  10.500
36520W        W 4993  11.727  14.222  12.416
36521W        W 4994  10.819  37.370  12.359
36522W        W 4995  40.968  10.163  13.046
36523W        W 4996   2.866  11.783  12.062
36524W        W 4997  42.517  40.381  10.941
36525W        W 4998  11.659  19.709   0.815
36526W        W 4999  44.940  27.991   4.235
36527W        W 5000  36.842  18.296   0.331
36528W        W 5001  39.036  19.548   2.330
36529W        W 5002   0.923  24.522  10.645
36530W        W 5003  17.286   7.829  10.617
36531W        W 5004   7.756  14.650   2.187
36532W        W 5005  19.202  30.047  11.873
36533W        W 5006  10.675  41.904  12.513
36534W        W 5007   3.250  15.789  14.460
36535W        W 5008   0.890  11.305  12.907
36536W        W 5009  16.804  18.611  14.782
36537W        W 5010  31.541  20.256  10.464
36538W        W 5011  18.075   0.311   1.838
36539W        W 5012  11.769   2.738  12.449
36540W        W 5013  38.482   0.972  13.903
36541W        W 5014  24.611   4.937  10.557
36542W        W 5015  44.974  15.160   3.169
36543W        W 5016  44.470  25.079  12.095
36544W        W 5017  44.315  25.094  12.483
36545W        W 5018  24.106  25.669   4.126
36546W        W 5019  19.611  12.663   4.819
36547W        W 5020  41.018  12.242  11.885
36548W        W 5021  15.119  28.002   2.262
36549W        W 5022  38.051  29.625  14.880
36550W        W 5023  15.154  41.040  14.782
36551W        W 5024  22.137  32.479  11.943
36552W        W 5025  25.565  14.714  10.635
36553W        W 5026  15.169  17.073   4.241
36554W        W 5027  29.580   7.848   3.146
36555W        W 5028  31.500  11.835   4.298
36556W        W 5029  40.387  27.958   2.828
36557W        W 5030  21.212  16.181   1.766
36558W        W 5031  24.619  28.103  11.427
36559W        W 5032  37.019  20.561  11.597
36560W        W 5033   7.879  27.485  13.991
36561W        W 5034  41.852  43.361  14.000
36562W        W 5035  22.629  32.455   3.243
36563W        W 5036  13.117  24.222   3.237
36564W        W 5037  43.425  28.984   1.751
36565W        W 5038  24.556  40.955  12.968
36566W        W 5039  26.688  15.764   4.736
36567W        W 5040   7.868  38.923  13.818
36568W        W 5041  37.849  37.037  11.051
36569W        W 5042  22.702  37.436   3.192
36570W        W 5043  41.852  26.570   4.205
36571W        W 5044  28.181  37.360  14.400
36572W        W 5045  12.343  19.217   2.182
36573W        W 5046  13.278  20.680  10.517
36574W        W 5047   3.436   4.316  14.493
36575W        W 5048   9.809  40.351   4.637
36576W        W 5049  22.089  23.021  12.089
36577W        W 5050  29.609  16.696   3.729
36578W        W 5051  43.415  23.694   2.208
36579W        W 5052  35.081   6.307   5.110
36580W        W 5053  12.806  29.623   1.332
36581W        W 5054  29.151  14.641   4.188
36582W        W 5055  10.648  20.688   2.360
36583W        W 5056  22.111  13.202  12.542
36584W        W 5057  23.510  37.565   5.179
36585W        W 5058  18.682  30.559   5.185
36586W        W 5059  22.627   3.231   2.870
36587W        W 5060  25.696  35.582   1.346
36588W        W 5061  14.666   3.377   3.261
36589W        W 5062  39.020  24.180  11.538
36590W        W 5063  14.735  13.657  12.973
36591W        W 5064   7.893  32.134   4.142
36592W        W 5065  33.022  37.026  12.390
36593W        W 5066   4.812  33.569  12.917
36594W        W 5067   5.763  13.786   4.771
36595W        W 5068  21.648  11.671  14.926
36596W        W 5069  16.297  24.646   0.409
36597W        W 5070  13.254  36.009  12.346
36598W        W 5071  17.195  12.754  12.961
36599W        W 5072  19.255  20.214  14.427
36600W        W 5073  25.169  21.221   1.931
36601W        W 5074  30.463   7.818  13.908
36602W        W 5075   9.717  23.574   0.738
36603W        W 5076  42.000  24.082  14.024
36604W        W 5077  19.595  43.469   1.419
36605W        W 5078   0.786   4.251  13.526
36606W        W 5079   2.301   6.686   1.335
36607W        W 5080  25.590  29.626  12.987
36608W        W 5081  37.919  41.851  12.936
36609W        W 5082  31.932  11.790   4.160
36610W        W 5083  10.777   1.816   2.386
36611W        W 5084  42.381  36.404  14.922
36612W        W 5085  39.030  18.154   1.866
36613W        W 5086  18.673  43.923   3.343
36614W        W 5087   4.702  28.542   3.649
36615W        W 5088   7.295   7.689   3.790
36616W        W 5089  27.117  44.926  13.387
36617W        W 5090  15.726   2.328   1.758
36618W        W 5091  43.022  27.096  10.463
36619W        W 5092  28.644  28.999   1.728
36620W        W 5093  40.924  12.287   0.318
36621W        W 5094  19.645  20.725  14.940
36622W        W 5095  12.838  37.525   4.114
36623W        W 5096  28.437  43.002  13.527
36624W        W 5097   6.834   2.366   4.633
36625W        W 5098   7.708  43.321  11.529
36626W        W 5099  20.152   9.294  11.918
36627W        W 5100  34.471  18.757   2.407
36628W        W 5101   7.197  21.146  12.018
36629W        W 5102  13.823  13.805  12.355
36630W        W 5103  41.535  17.581  13.054
36631W        W 5104  17.617  23.995  10.508
36632W        W 5105   3.942  22.738  11.919
36633W        W 5106   0.790  42.914  14.923
36634W        W 5107  10.710   0.979   2.349
36635W        W 5108  21.108  12.159  12.403
36636W        W 5109   2.939  17.613  13.336
36637W        W 5110  22.716  38.510  11.416
36638W        W 5111  12.302  12.635  12.385
36639W        W 5112  35.862  13.221   1.293
36640W        W 5113   9.887  20.742   0.281
36641W        W 5114  13.704  29.506   0.936
36642W        W 5115  23.658   3.885   4.230
36643W        W 5116  41.315  19.749  13.792
36644W        W 5117  38.375  34.425  12.414
36645W        W 5118   5.749  37.902   3.335
36646W        W 5119  29.505  41.026   1.230
36647W        W 5120  20.172   5.227   1.341
36648W        W 5121   6.213  20.690   1.259
36649W        W 5122  32.407  34.610   1.728
36650W        W 5123  32.532  33.504  13.800
36651W        W 5124  29.641   2.420   4.277
36652W        W 5125  15.299   6.342   2.721
36653W        W 5126  45.000  28.581   4.716
36654W        W 5127  11.662  41.789  10.517
36655W        W 5128  26.577  36.583   4.731
36656W        W 5129  41.816  39.530   2.252
36657W        W 5130  10.773  18.775  14.499
36658W        W 5131  34.606   4.241  14.316
36659W        W 5132   5.229  28.002   4.696
36660W        W 5133  29.455  29.636   3.717
36661W        W 5134   8.793  14.618  11.422
36662W        W 5135  23.185  15.144  10.065
36663W        W 5136  16.728  38.369   1.780
36664W        W 5137  30.588   2.289   0.281
36665W        W 5138  34.462  16.645  14.778
36666W        W 5139   0.823  38.010  10.448
36667W        W 5140  25.198  35.984   2.836
36668W        W 5141  13.199   1.929  11.970
36669W        W 5142  29.495  24.045  10.517
36670W        W 5143  37.081  17.623   4.774
36671W        W 5144   9.752   4.825   3.666
36672W        W 5145   2.381  30.502   3.820
36673W        W 5146  17.763  30.479   1.852
36674W        W 5147  13.334  40.824  11.867
36675W        W 5148   3.261  35.576  13.050
36676W        W 5149  13.782  43.972  13.481
36677W        W 5150   9.678  37.058   5.579
36678W        W 5151  18.274  29.983  11.111
36679W        W 5152  15.097  29.587   0.287
36680W        W 5153  14.153  32.054   3.860
36681W        W 5154  38.889  31.604  14.343
36682W        W 5155  18.697  18.569   2.670
36683W        W 5156  22.015  14.149  13.400
36684W        W 5157  35.025  18.733  11.411
36685W        W 5158  18.234  22.103   4.234
36686W        W 5159   1.327   8.261   4.670
36687W        W 5160  27.120   9.858  11.469
36688W        W 5161  15.280  29.149  14.790
36689W        W 5162  11.754  38.522  13.886
36690W        W 5163  20.559  39.830  12.413
36691W        W 5164  18.682  12.789  12.046
36692W        W 5165   6.726  23.494   4.689
36693W        W 5166  38.462   9.667  13.368
36694W        W 5167  11.178  20.057  11.945
36695W        W 5168  35.070  30.520  13.310
36696W        W 5169  27.635  39.404  12.833
36697W        W 5170   0.933  17.173  10.911
36698W        W 5171  15.174  41.537   0.416
36699W        W 5172  35.964  33.010   3.307
36700W        W 5173  44.919  24.481  10.474
36701W        W 5174  19.193  40.531  13.846
36702W        W 5175  40.380   4.779   3.323
36703W        W 5176  37.569   3.796  13.462
36704W        W 5177  15.291  36.927   9.573
36705W        W 5178  14.153   5.333  12.456
36706W        W 5179  24.719  17.630   1.230
36707W        W 5180  13.667  34.928  14.984
36708W        W 5181  28.490  34.095  11.568
36709W        W 5182   5.879   8.294   3.802
36710W        W 5183  23.008  31.071   0.394
36711W        W 5184  39.542  29.138   3.206
36712W        W 5185  30.990  41.474  14.408
36713W        W 5186  29.559  43.774   3.213
36714W        W 5187   3.299  24.223   1.370
36715W        W 5188   9.798  33.941  14.973
36716W        W 5189   1.822  18.099  13.419
36717W        W 5190  28.477  28.626  13.548
36718W        W 5191   1.759  11.351  11.453
36719W        W 5192  19.731  29.028   0.793
36720W        W 5193  10.253  42.974   1.354
36721W        W 5194   3.724  13.678  12.963
36722W        W 5195   4.823   9.672  12.856
36723W        W 5196   9.334  43.013  11.408
36724W        W 5197  10.297   8.707   0.444
36725W        W 5198  37.373  10.705   3.289
36726W        W 5199   9.364  16.810  11.078
36727W        W 5200  25.092  28.971   0.937
36728W        W 5201   3.849  12.655  13.864
36729W        W 5202  44.296  30.119  12.510
36730W        W 5203  42.366  15.757  11.881
36731W        W 5204   4.785   8.222   3.289
36732W        W 5205  32.963  44.288   4.254
36733W        W 5206   9.778   5.802   1.908
36734W        W 5207  17.274  16.707  11.601
36735W        W 5208  26.460  22.702   2.367
36736W        W 5209  31.530   5.721   4.617
36737W        W 5210   9.725  11.226  14.769
36738W        W 5211  36.533  12.702  10.037
36739W        W 5212  23.177   0.356  10.943
36740W        W 5213   7.737  43.822   2.799
36741W        W 5214  33.087  42.468  13.382
36742W        W 5215  18.707  22.639   3.290
36743W        W 5216   7.736  40.337  14.448
36744W        W 5217   6.895  38.441  14.936
36745W        W 5218  15.089  23.499  12.983
36746W        W 5219  11.283   3.362  14.387
36747W        W 5220  34.986   4.738   3.328
36748W        W 5221   7.225  10.720   0.448
36749W        W 5222  35.395  27.572   0.359
36750W        W 5223  16.776   2.736   0.926
36751W        W 5224  30.938  10.769   4.181
36752W        W 5225   6.682   1.953   4.276
36753W        W 5226  34.390  24.489  11.927
36754W        W 5227  25.523  33.130   4.323
36755W        W 5228  33.069  16.103   2.298
36756W        W 5229  22.131  23.606  12.905
36757W        W 5230  41.306  22.663  13.927
36758W        W 5231  29.616  17.739   2.811
36759W        W 5232  16.731  44.382  13.845
36760W        W 5233  41.811   3.340  10.491
36761W        W 5234  16.255  33.973  10.480
36762W        W 5235  31.433  27.107   2.307
36763W        W 5236  16.708  44.898  13.951
36764W        W 5237  18.126  25.694  14.301
36765W        W 5238  15.790  11.784  12.001
36766W        W 5239  33.905  27.596   1.423
36767W        W 5240  22.092  36.510   3.293
36768W        W 5241   4.336   0.754  13.350
36769W        W 5242  29.006  12.810   3.293
36770W        W 5243   0.366  16.629  11.552
36771W        W 5244  36.932  18.150  10.954
36772W        W 5245  42.437  36.091  11.585
36773W        W 5246  27.518  11.689  13.864
36774W        W 5247  24.106  21.708   0.826
36775W        W 5248  36.848   9.722  11.470
36776W        W 5249   3.388  44.981   2.392
36777W        W 5250  22.194  16.148   1.291
36778W        W 5251  37.984  39.369  10.593
36779W        W 5252  27.950  13.697   3.335
36780W        W 5253   6.719  29.607  13.038
36781W        W 5254  42.519  14.675   3.683
36782W        W 5255   4.243  28.472   0.276
36783W        W 5256  44.938  23.070   0.394
36784W        W 5257   6.895  30.517   4.156
36785W        W 5258  34.465  18.554   4.819
36786W        W 5259  43.935  20.269   2.391
36787W        W 5260   2.414  30.113   3.852
36788W        W 5261  26.512   6.417   2.761
36789W        W 5262  24.018   3.262  12.922
36790W        W 5263  27.529  30.432  10.530
36791W        W 5264  20.614  36.092   2.817
36792W        W 5265  39.514  39.930  10.543
36793W        W 5266  34.076   6.918   2.368
36794W        W 5267  41.011  25.035   4.700
36795W        W 5268   6.362  25.069  14.391
36796W        W 5269  44.311   5.771  14.463
36797W        W 5270   8.813  12.357   4.168
36798W        W 5271  11.216  13.711   0.352
36799W        W 5272  38.398  16.253  12.057
36800W        W 5273   1.337  18.632   1.399
36801W        W 5274  26.075  35.079  13.971
36802W        W 5275  23.016  27.947   0.834
36803W        W 5276  23.059  28.569  13.311
36804W        W 5277  35.415  33.907  13.517
36805W        W 5278  30.446  15.135   0.369
36806W        W 5279  31.032  19.259  14.963
36807W        W 5280  35.078  31.501  12.926
36808W        W 5281  26.007  33.381  10.594
36809W        W 5282  40.826  19.123   0.476
36810W        W 5283   4.227  26.051   0.332
36811W        W 5284   8.326  10.306  14.003
36812W        W 5285  32.080  18.164   2.861
36813W        W 5286  21.192  44.280   5.317
36814W        W 5287  12.286   5.357   3.296
36815W        W 5288  11.358  17.757   4.672
36816W        W 5289  39.464   2.922  13.926
36817W        W 5290  19.205   2.876  12.909
36818W        W 5291  43.775  41.008  14.358
36819W        W 5292  22.568  26.476   0.854
36820W        W 5293   0.831  42.427   1.796
36821W        W 5294  30.971  39.416  13.377
36822W        W 5295  31.932  30.555  11.980
36823W        W 5296  21.666  25.485   2.303
36824W        W 5297  26.529  34.016  11.551
36825W        W 5298  33.017   3.434   0.934
36826W        W 5299  24.667  21.043   2.303
36827W        W 5300  23.643  21.092   1.782
36828W        W 5301  27.669  28.033  11.024
36829W        W 5302  14.168   6.776  14.379
36830W        W 5303  41.952   6.744  13.483
36831W        W 5304  41.894  15.605   2.364
36832W        W 5305  34.378  32.976   0.962
36833W        W 5306   8.217  20.705  10.975
36834W        W 5307  42.482  24.018  12.837
36835W        W 5308  27.499  34.564  11.503
36836W        W 5309  39.366  13.760  12.040
36837W        W 5310  38.404  21.643  12.346
36838W        W 5311  39.349  26.518   1.745
36839W        W 5312  40.957   7.796   2.759
36840W        W 5313  13.155  34.572  10.546
36841W        W 5314  27.647  14.164   2.329
36842W        W 5315  28.672  32.600  14.438
36843W        W 5316  26.689  43.777  11.512
36844W        W 5317  39.509   0.950   3.644
36845W        W 5318   8.326  14.786  13.897
36846W        W 5319  17.719  34.888  12.402
36847W        W 5320  23.614  12.734   9.939
36848W        W 5321  25.586  11.239  11.460
36849W        W 5322  33.514  14.601   1.819
36850W        W 5323  39.063  27.035  13.818
36851W        W 5324  26.535  32.396   0.886
36852W        W 5325  27.543  15.136   2.785
36853W        W 5326   2.401  22.690   2.361
36854W        W 5327  23.231   3.260  12.066
36855W        W 5328  44.754  14.695   4.703
36856W        W 5329  13.131  12.162   2.226
36857W        W 5330  21.175  16.631   1.897
36858W        W 5331  24.104  17.167   1.864
36859W        W 5332  12.821  19.747   3.293
36860W        W 5333  27.017  25.493  14.991
36861W        W 5334  25.156   3.246  11.000
36862W        W 5335   5.707  43.480   0.731
36863W        W 5336   5.419  39.823  12.540
36864W        W 5337  32.430  19.744   0.798
36865W        W 5338   1.892  11.227   2.219
36866W        W 5339  19.769  21.665   1.827
36867W        W 5340  32.949  16.091  11.043
36868W        W 5341  10.342  26.185   3.739
36869W        W 5342  38.454  27.035  12.960
36870W        W 5343  34.452  20.638   4.717
36871W        W 5344   2.458  26.957  14.340
36872W        W 5345  43.313  33.620   1.830
36873W        W 5346  28.957  26.175  13.402
36874W        W 5347  40.530  13.336   4.321
36875W        W 5348  20.246   2.838   2.417
36876W        W 5349  21.520  14.643  14.941
36877W        W 5350  35.383  18.617  11.021
36878W        W 5351  39.950   6.795   3.668
36879W        W 5352  33.416  10.209  12.037
36880W        W 5353   7.277   6.918   5.117
36881W        W 5354  10.709  24.987   0.374
36882W        W 5355  34.108   2.296   2.858
36883W        W 5356  21.618  28.655   2.360
36884W        W 5357   8.312  29.083   1.766
36885W        W 5358   9.378  40.884   2.744
36886W        W 5359   2.362  42.016  14.945
36887W        W 5360  36.547  17.129  13.926
36888W        W 5361  33.113  10.654  11.094
36889W        W 5362  34.385  40.505   3.333
36890W        W 5363  38.952  27.457   2.351
36891W        W 5364  38.031   6.294   3.262
36892W        W 5365  42.382   3.297  14.508
36893W        W 5366  35.375  33.963  14.775
36894W        W 5367  42.518  21.624   1.243
36895W        W 5368  33.504  29.951  11.868
36896W        W 5369  21.037  37.526  11.095
36897W        W 5370  19.616  42.513   0.363
36898W        W 5371  22.054  28.023   2.257
36899W        W 5372  22.081  12.157   2.665
36900W        W 5373  16.282  12.316   3.762
36901W        W 5374  38.827   2.937   2.252
36902W        W 5375  18.291  42.472   2.824
36903W        W 5376  26.618  38.892   2.887
36904W        W 5377   7.710  39.427   3.266
36905W        W 5378  32.509  37.028   2.900
36906W        W 5379  23.558   4.939  11.599
36907W        W 5380  38.981  26.096   2.390
36908W        W 5381  41.851  26.989  13.955
36909W        W 5382  30.460   3.876  14.453
36910W        W 5383  40.362  25.679   4.175
36911W        W 5384  31.006  28.588  13.459
36912W        W 5385  11.667  29.474   0.482
36913W        W 5386  24.082  39.556   1.809
36914W        W 5387   5.787  25.660  13.869
36915W        W 5388  23.730  37.548  11.501
36916W        W 5389  30.414  38.850  14.947
36917W        W 5390  16.645   3.325  14.977
36918W        W 5391  13.347  13.295   2.812
36919W        W 5392  30.497  43.790   2.235
36920W        W 5393  27.459  11.221   0.903
36921W        W 5394  42.323  31.468  12.855
36922W        W 5395  33.978   4.390   3.808
36923W        W 5396  32.985  38.953   0.370
36924W        W 5397  32.508  37.031  13.819
36925W        W 5398  38.026  17.578   4.183
36926W        W 5399  37.380  39.022  13.903
36927W        W 5400  18.245  11.838  12.084
36928W        W 5401  35.950  25.208  13.342
36929W        W 5402  31.610  43.940  13.315
36930W        W 5403   7.668   9.300  13.814
36931W        W 5404   7.324  21.021  11.485
36932W        W 5405  22.681   7.823   3.692
36933W        W 5406  37.469   7.813   3.169
36934W        W 5407  43.006  14.750   1.795
36935W        W 5408   6.246   3.956  12.078
36936W        W 5409  23.559  35.865  12.418
36937W        W 5410  27.945   6.898  12.412
36938W        W 5411  41.369  28.604  14.968
36939W        W 5412   2.402  19.716  13.019
36940W        W 5413  39.522  14.229   1.226
36941W        W 5414  17.189  35.546   2.218
36942W        W 5415   2.274  10.808   0.872
36943W        W 5416  13.728   9.363   4.827
36944W        W 5417  12.261  11.765   1.882
36945W        W 5418  36.958  35.018   0.853
36946W        W 5419   9.386  32.944   5.141
36947W        W 5420  35.469  22.729  14.895
36948W        W 5421  21.145   2.339  11.490
36949W        W 5422  31.959  16.226   0.951
36950W        W 5423   3.288  14.804   3.799
36951W        W 5424  13.759   3.337  14.823
36952W        W 5425  30.463  19.223  12.374
36953W        W 5426   5.239  23.217  10.412
36954W        W 5427  28.533  31.632  14.461
36955W        W 5428  41.391  39.012  10.482
36956W        W 5429  26.064  36.056   2.799
36957W        W 5430  14.117  23.581   9.966
36958W        W 5431  17.307  24.178  10.068
36959W        W 5432  20.577  14.195   1.231
36960W        W 5433   3.377   2.270  10.475
36961W        W 5434  43.884  14.168   1.810
36962W        W 5435  13.256  14.248   4.326
36963W        W 5436  31.648  25.001   1.750
36964W        W 5437   2.412  12.145   1.328
36965W        W 5438  11.157  16.104  13.034
36966W        W 5439  31.925  21.695  13.035
36967W        W 5440  14.241  33.926   3.728
36968W        W 5441  37.013  33.520   2.663
36969W        W 5442  37.926  30.137  14.805
36970W        W 5443  25.101  10.382   2.361
36971W        W 5444   9.178  15.267  10.997
36972W        W 5445  38.989   3.220   3.159
36973W        W 5446  40.873  43.281   0.944
36974W        W 5447  16.580  26.649  13.851
36975W        W 5448   4.287  35.400   4.256
36976W        W 5449  21.668  21.112  12.884
36977W        W 5450  23.149   2.283  13.796
36978W        W 5451   1.964  19.238   3.301
36979W        W 5452   8.898  38.405  11.879
36980W        W 5453  29.950  15.297   4.764
36981W        W 5454  17.277  22.718   3.682
36982W        W 5455  40.535  26.701  13.326
36983W        W 5456  34.979  30.147   2.188
36984W        W 5457   9.223  21.217  12.385
36985W        W 5458  24.125  37.012  10.533
36986W        W 5459  14.763  42.295   3.680
36987W        W 5460  35.957   1.932   1.914
36988W        W 5461  28.952  34.573  13.836
36989W        W 5462   3.881  12.284   3.766
36990W        W 5463   6.918   1.285   1.398
36991W        W 5464  37.020  17.749  14.309
36992W        W 5465  27.126   0.961  10.546
36993W        W 5466   9.345   1.436   1.426
36994W        W 5467  40.423  15.297  11.498
36995W        W 5468  13.651  37.439  14.800
36996W        W 5469  44.998  42.297   2.733
36997W        W 5470  10.794   6.916   2.211
36998W        W 5471  20.743  33.524  10.526
36999W        W 5472  44.408  19.706   4.823
37000W        W 5473  19.552  26.002  11.961
37001W        W 5474  18.725  19.077   1.800
37002W        W 5475  28.994  38.555   1.702
37003W        W 5476  42.455   5.256   0.819
37004W        W 5477  35.958  20.574   4.160
37005W        W 5478  22.599  38.899  13.523
37006W        W 5479  11.839  37.450  12.881
37007W        W 5480  17.069   3.941  12.950
37008W        W 5481   6.235   2.786   1.257
37009W        W 5482  39.337  34.473   3.648
37010W        W 5483  14.713  43.831  11.452
37011W        W 5484   7.319   9.663  10.409
37012W        W 5485   0.859  14.206  12.895
37013W        W 5486  41.956  34.015  13.340
37014W        W 5487   7.317   2.902   2.369
37015W        W 5488  16.167  19.075  11.015
37016W        W 5489   6.243  32.977   1.758
37017W        W 5490  27.508  37.532  13.448
37018W        W 5491  34.957   0.976   3.724
37019W        W 5492   5.363  24.075  14.998
37020W        W 5493  36.447   2.399  13.340
37021W        W 5494   1.434  26.139  12.363
37022W        W 5495  23.730  17.124  11.950
37023W        W 5496  27.583  20.688  13.443
37024W        W 5497  12.306  44.800  14.327
37025W        W 5498  16.753   4.220  13.899
37026W        W 5499  33.938  14.723   4.190
37027W        W 5500  32.473  33.614  10.466
37028W        W 5501   6.710   4.699   0.846
37029W        W 5502  11.654   7.805  10.903
37030W        W 5503  30.437   1.936   4.275
37031W        W 5504  24.213  38.561   2.745
37032W        W 5505   1.443  16.581   3.256
37033W        W 5506  11.327   8.757   2.333
37034W        W 5507  23.544   1.322   3.826
37035W        W 5508   8.846  26.695  10.522
37036W        W 5509  27.505   9.677  13.822
37037W        W 5510   1.967  41.043   4.350
37038W        W 5511   3.403  29.523  12.973
37039W        W 5512  35.519  17.128   1.785
37040W        W 5513  23.240   4.742  13.361
37041W        W 5514  14.592  29.954  11.121
37042W        W 5515   8.699  40.952   0.736
37043W        W 5516  31.434  41.471  10.932
37044W        W 5517  21.185  43.466  11.912
37045W        W 5518  24.563   3.716  12.518
37046W        W 5519  13.170  11.812  13.454
37047W        W 5520  24.977   6.207   4.250
37048W        W 5521  32.978  10.771  14.452
37049W        W 5522  37.537  39.532  14.443
37050W        W 5523  23.098  27.447   2.333
37051W        W 5524   7.847   9.728  14.831
37052W        W 5525  17.709   6.913  12.842
37053W        W 5526  37.831  42.999  11.425
37054W        W 5527   4.920  34.939   3.326
37055W        W 5528  28.103  23.525   0.313
37056W        W 5529   8.209  25.043  13.035
37057W        W 5530  26.474  10.321  10.950
37058W        W 5531  16.613  19.623  13.798
37059W        W 5532  16.713   0.771  12.855
37060W        W 5533  15.616  27.119  14.032
37061W        W 5534  16.127  41.886   4.213
37062W        W 5535   1.762  11.656  13.881
37063W        W 5536  42.925  26.486   1.698
37064W        W 5537  25.028   2.895   3.223
37065W        W 5538  23.630  12.150  11.915
37066W        W 5539  13.627  13.672  11.536
37067W        W 5540  40.536   8.845  10.954
37068W        W 5541  19.748  42.793  13.390
37069W        W 5542  40.952  44.473  10.638
37070W        W 5543   0.986  38.486   2.865
37071W        W 5544  16.810  37.967  11.057
37072W        W 5545  13.676   8.354   1.398
37073W        W 5546   6.745  25.107  14.979
37074W        W 5547  14.747   7.768  10.529
37075W        W 5548  20.210   4.421   3.808
37076W        W 5549  14.765  32.473  14.796
37077W        W 5550  22.703   8.290  11.603
37078W        W 5551   8.176  35.942   9.998
37079W        W 5552  34.562  15.233   4.332
37080W        W 5553   0.290   1.431  14.970
37081W        W 5554  43.820  19.712   4.795
37082W        W 5555   8.772  16.760  14.364
37083W        W 5556  43.894   7.685  10.610
37084W        W 5557  29.587   4.364  14.032
37085W        W 5558  40.437   1.882   2.180
37086W        W 5559  28.457  38.030   0.345
37087W        W 5560  27.513  32.512  11.949
37088W        W 5561  28.160  25.060  14.458
37089W        W 5562  40.323  39.810  12.896
37090W        W 5563  30.064   0.301  12.555
37091W        W 5564  14.250   9.770   1.220
37092W        W 5565  38.886   4.435  14.408
37093W        W 5566  14.257  30.521  12.999
37094W        W 5567   5.353  34.920   1.258
37095W        W 5568  38.544  32.463   1.791
37096W        W 5569  28.552  40.363  12.849
37097W        W 5570   1.855  16.787   2.669
37098W        W 5571  13.696  37.088  13.848
37099W        W 5572  25.585   8.841  10.887
37100W        W 5573   6.317  22.220  14.939
37101W        W 5574  11.203  36.081   2.237
37102W        W 5575  25.522   3.932   1.383
37103W        W 5576  14.330  44.455  13.927
37104W        W 5577  30.010   5.351  12.361
37105W        W 5578  19.202  27.641   3.666
37106W        W 5579  37.511   0.461  13.897
37107W        W 5580  34.884  31.967  14.928
37108W        W 5581  20.086   2.418   2.870
37109W        W 5582  35.474  25.073  12.367
37110W        W 5583   0.757  18.777  13.538
37111W        W 5584   1.847  30.911  11.538
37112W        W 5585   4.724  13.717   3.351
37113W        W 5586  21.540  35.363   2.205
37114W        W 5587   4.351  13.653  11.093
37115W        W 5588  18.096  37.539  13.492
37116W        W 5589   9.882  38.953  14.953
37117W        W 5590  23.597  20.757   2.903
37118W        W 5591   6.371   0.292   3.384
37119W        W 5592  40.473  41.456   1.331
37120W        W 5593  16.685  14.271  13.856
37121W        W 5594  29.599  13.110  10.093
37122W        W 5595  27.124   3.823   1.763
37123W        W 5596  38.392  27.542   4.604
37124W        W 5597  25.058  28.598  12.857
37125W        W 5598   1.731  29.558  12.551
37126W        W 5599  21.575  22.562   2.189
37127W        W 5600  26.139  22.157  13.416
37128W        W 5601  30.527  30.571   3.324
37129W        W 5602  44.414   5.776  10.924
37130W        W 5603  41.787  13.162  14.956
37131W        W 5604   0.477   5.328   3.339
37132W        W 5605  23.691  13.310  11.381
37133W        W 5606  30.577   7.190   2.364
37134W        W 5607  43.393  41.455  11.074
37135W        W 5608  41.844  39.998   3.733
37136W        W 5609  19.071  32.128   0.358
37137W        W 5610  37.904  38.504  13.866
37138W        W 5611   5.748   0.373  13.446
37139W        W 5612  25.564  33.928  13.475
37140W        W 5613  12.830  32.504  10.617
37141W        W 5614  38.984  40.505  14.418
37142W        W 5615  37.995  29.450  12.889
37143W        W 5616  33.400   6.859  11.506
37144W        W 5617  14.707   6.918  14.348
37145W        W 5618  20.266  41.313  11.585
37146W        W 5619  11.719   1.820   3.254
37147W        W 5620  33.085  40.865  10.625
37148W        W 5621  17.223  42.808  14.943
37149W        W 5622  31.124  44.276   9.452
37150W        W 5623  21.067  40.903   3.318
37151W        W 5624  29.597  23.993   4.258
37152W        W 5625  28.566   7.885   4.831
37153W        W 5626   9.737  44.280   2.293
37154W        W 5627  11.227  15.761  12.933
37155W        W 5628  15.725   9.372   3.379
37156W        W 5629  28.988  31.083   1.232
37157W        W 5630  35.367  23.694   2.318
37158W        W 5631  23.726  10.286   0.908
37159W        W 5632   5.259  26.653  13.808
37160W        W 5633  31.476  23.669  11.990
37161W        W 5634   0.311   3.363   2.387
37162W        W 5635  12.743  19.264  13.542
37163W        W 5636  37.553   2.418  13.359
37164W        W 5637   3.389   0.912   1.800
37165W        W 5638  23.720  21.026  13.531
37166W        W 5639  25.038   3.806  13.451
37167W        W 5640  10.690  43.516   1.213
37168W        W 5641   4.441  21.657   2.256
37169W        W 5642  37.446  32.106   4.165
37170W        W 5643  41.296  38.009   3.868
37171W        W 5644  40.379   1.430  13.511
37172W        W 5645   6.825   0.484   3.699
37173W        W 5646  19.583  35.441   1.242
37174W        W 5647  13.191  34.431  10.148
37175W        W 5648  25.177  10.871   2.401
37176W        W 5649  17.134  36.017   4.742
37177W        W 5650   0.942  11.670   0.830
37178W        W 5651  22.128  39.876   0.835
37179W        W 5652  38.894  22.667   1.730
37180W        W 5653  40.391  15.220  14.438
37181W        W 5654   6.351   4.879   9.526
37182W        W 5655   9.150  25.053   4.119
37183W        W 5656  43.412  40.913  12.383
37184W        W 5657  33.054   6.734   3.750
37185W        W 5658   8.302  29.053  10.916
37186W        W 5659  31.001  30.594  10.539
37187W        W 5660  15.606  14.170   3.317
37188W        W 5661  44.298  20.078   4.757
37189W        W 5662  35.027  31.003  11.540
37190W        W 5663  15.787  41.839  12.849
37191W        W 5664  39.493   1.901  13.008
37192W        W 5665  11.325  22.207   0.913
37193W        W 5666   6.308  20.128  14.907
37194W        W 5667  22.624  12.186   4.696
37195W        W 5668  44.927  44.891   3.658
37196W        W 5669  42.824  21.584   4.813
37197W        W 5670  19.708  21.732   0.950
37198W        W 5671  24.196  44.979   2.267
37199W        W 5672  31.560  19.096   2.811
37200W        W 5673  39.445  25.149  11.429
37201W        W 5674  33.897  34.097   1.917
37202W        W 5675  24.650   4.822  13.844
37203W        W 5676   5.248   7.182  11.067
37204W        W 5677  44.793   7.770   4.672
37205W        W 5678  30.079   1.376   1.220
37206W        W 5679  29.155  25.094  10.983
37207W        W 5680  26.692  44.761  14.810
37208W        W 5681  35.429  28.170  14.018
37209W        W 5682  25.013  21.517  11.099
37210W        W 5683  29.996   1.864  11.995
37211W        W 5684  14.688  19.656  10.115
37212W        W 5685   5.332  23.607  11.591
37213W        W 5686   0.265  22.726  11.504
37214W        W 5687  30.602  22.681   1.910
37215W        W 5688  43.004   2.804   2.319
37216W        W 5689  26.975   9.723   0.444
37217W        W 5690  42.435  41.806   1.411
37218W        W 5691  23.239  29.546  13.802
37219W        W 5692  28.629   6.233  12.063
37220W        W 5693  42.947   6.856  14.294
37221W        W 5694  17.747  34.407  11.381
37222W        W 5695  26.622   1.328   1.702
37223W        W 5696  19.178  43.001   3.712
37224W        W 5697  26.657  34.037  14.950
37225W        W 5698  32.526  30.051   0.828
37226W        W 5699   5.307  31.553  10.504
37227W        W 5700  10.674  34.924  14.474
37228W        W 5701   0.310  43.974   3.656
37229W        W 5702  27.622   5.366  11.585
37230W        W 5703  41.979  26.077   1.350
37231W        W 5704  28.616  28.645  14.377
37232W        W 5705  28.147  28.026  11.867
37233W        W 5706  10.317  11.815  11.541
37234W        W 5707   0.391   6.824  14.829
37235W        W 5708  43.992  16.135   2.779
37236W        W 5709   6.853  31.070   1.915
37237W        W 5710  23.522  39.466   4.293
37238W        W 5711  40.323  17.238  10.906
37239W        W 5712  14.139  34.408   4.766
37240W        W 5713  39.473  29.935   1.804
37241W        W 5714  16.243  33.616   4.686
37242W        W 5715   4.360   1.318  10.513
37243W        W 5716  40.848   5.829   4.837
37244W        W 5717  37.500   6.317  12.421
37245W        W 5718  11.240  25.076   4.322
37246W        W 5719  22.124   9.855  11.382
37247W        W 5720  20.601   3.944  11.524
37248W        W 5721   7.723  13.605   0.926
37249W        W 5722   3.736  12.128  14.008
37250W        W 5723  44.963   4.795   3.674
37251W        W 5724  12.362  16.698  10.511
37252W        W 5725  27.950  30.452   0.833
37253W        W 5726  33.556  35.365  12.463
37254W        W 5727  10.788  26.599   0.274
37255W        W 5728  45.000  31.947  13.352
37256W        W 5729  39.829  43.011   1.891
37257W        W 5730  38.337  23.220  14.761
37258W        W 5731  36.350   6.699   2.354
37259W        W 5732  41.377   9.830   0.446
37260W        W 5733  34.498   9.715  12.827
37261W        W 5734  20.536  29.598   3.697
37262W        W 5735  30.065  44.937   4.201
37263W        W 5736  16.225  18.279  11.378
37264W        W 5737  12.664  18.680   1.795
37265W        W 5738   7.734  31.965  11.450
37266W        W 5739  24.225  24.096   3.667
37267W        W 5740  43.341  16.148  12.989
37268W        W 5741  36.849  25.192  14.918
37269W        W 5742  37.404  12.196  13.894
37270W        W 5743  31.015  17.145   0.958
37271W        W 5744  39.980   0.463   0.820
37272W        W 5745  23.635   5.700   0.760
37273W        W 5746  21.235   9.286   0.248
37274W        W 5747   7.748   0.771  12.413
37275W        W 5748   6.281  42.318   1.843
37276W        W 5749   4.847   9.296   3.720
37277W        W 5750  10.771  23.985  14.332
37278W        W 5751  23.129  31.546   0.341
37279W        W 5752   9.240  19.181  14.367
37280W        W 5753  36.474  43.312  10.462
37281W        W 5754   9.663  41.351   0.742
37282W        W 5755  19.213  18.244  11.418
37283W        W 5756  12.171  29.621  14.332
37284W        W 5757  31.575  33.127   0.326
37285W        W 5758   6.379  15.592   3.637
37286W        W 5759  17.107  30.448  10.534
37287W        W 5760  41.426  44.456   0.477
37288W        W 5761  38.821  12.661   4.306
37289W        W 5762   3.446  26.500   2.783
37290W        W 5763  26.027  36.514  14.019
37291W        W 5764  39.419  21.519   2.375
37292W        W 5765  24.703  40.970   1.767
37293W        W 5766  21.661   9.175  12.049
37294W        W 5767  38.825  18.772  14.006
37295W        W 5768  19.631  25.570  12.054
37296W        W 5769  26.549   9.797  12.406
37297W        W 5770  27.669  39.358   2.308
37298W        W 5771  29.998  31.945   2.664
37299W        W 5772  19.123  15.099  11.004
37300W        W 5773  21.670  26.589   4.238
37301W        W 5774  19.070  32.625  14.030
37302W        W 5775  34.531  27.124   2.808
37303W        W 5776  19.701  35.079   2.382
37304W        W 5777  23.674  22.526  14.800
37305W        W 5778  15.130  33.956  12.894
37306W        W 5779  22.010   0.438  13.829
37307W        W 5780  20.031  27.620  12.425
37308W        W 5781  31.434  19.183  12.386
37309W        W 5782   0.769  10.162  13.919
37310W        W 5783  26.062   3.921  10.605
37311W        W 5784   2.456   5.305  14.011
37312W        W 5785  18.165  33.966   0.853
37313W        W 5786  22.540  25.656  12.399
37314W        W 5787   1.749   5.432   4.643
37315W        W 5788  10.697  44.304  12.435
37316W        W 5789   0.826  15.722   3.284
37317W        W 5790   7.299  30.601  13.041
37318W        W 5791  22.145  42.794  11.597
37319W        W 5792  15.794  31.447  11.591
37320W        W 5793  18.767  37.541  10.115
37321W        W 5794  31.074  29.505   0.762
37322W        W 5795  36.841  30.027   2.720
37323W        W 5796  27.127  41.388   0.834
37324W        W 5797  33.542  24.022  12.381
37325W        W 5798  21.139  19.716   2.833
37326W        W 5799  41.951   5.317  13.416
37327W        W 5800   6.870  30.152  11.512
37328W        W 5801  41.898  14.216   1.709
37329W        W 5802  41.979   8.178  14.287
37330W        W 5803  43.412  29.945   3.246
37331W        W 5804   0.886  29.101   1.354
37332W        W 5805   2.803  43.505  10.597
37333W        W 5806   9.661  10.636   1.353
37334W        W 5807   4.875  22.620  12.449
37335W        W 5808  44.966  29.018   1.225
37336W        W 5809  43.354  31.493  12.881
37337W        W 5810  27.982   5.237  11.952
37338W        W 5811   9.687   8.788  12.479
37339W        W 5812   4.358  13.186  11.064
37340W        W 5813  12.328  14.217  12.084
37341W        W 5814  18.746  29.948   3.644
37342W        W 5815  21.046  26.615  13.803
37343W        W 5816  21.517   5.849  13.405
37344W        W 5817   8.318   7.695  14.930
37345W        W 5818   6.367  17.632  11.946
37346W        W 5819  30.519  42.283  14.454
37347W        W 5820   7.768   3.742  14.401
37348W        W 5821  17.116  17.750  11.888
37349W        W 5822  23.220   3.774   3.295
37350W        W 5823   8.278   2.889   4.665
37351W        W 5824   7.799  41.867  11.572
37352W        W 5825  35.905  42.441   3.833
37353W        W 5826  33.588   2.381   1.295
37354W        W 5827   6.730  22.711   3.733
37355W        W 5828  20.727  30.423  13.867
37356W        W 5829  31.048   6.194  10.979
37357W        W 5830  32.048  10.307   2.242
37358W        W 5831   8.386  42.309   0.365
37359W        W 5832  41.806  15.095   2.661
37360W        W 5833  18.263  42.013  10.577
37361W        W 5834  18.189  41.499  12.996
37362W        W 5835  44.998  38.346   1.375
37363W        W 5836  20.574  44.916  14.321
37364W        W 5837   1.770   2.810  10.484
37365W        W 5838  41.461  29.489   4.300
37366W        W 5839  22.999   6.238   1.273
37367W        W 5840  29.150  31.534  12.351
37368W        W 5841   4.742  43.372  10.903
37369W        W 5842   5.859  36.420   1.420
37370W        W 5843  40.308  39.529  10.609
37371W        W 5844  34.423  31.568   4.613
37372W        W 5845   0.377  18.608  13.060
37373W        W 5846  26.163  43.766   4.706
37374W        W 5847  26.070  23.588  12.371
37375W        W 5848   9.830  27.620   4.153
37376W        W 5849  18.089   8.368   1.420
37377W        W 5850  26.657   4.441  12.552
37378W        W 5851   0.786  42.405   4.253
37379W        W 5852  21.208   1.476  12.576
37380W        W 5853   8.865   8.837   0.365
37381W        W 5854   5.801  40.489  13.870
37382W        W 5855  41.303   7.900  10.937
37383W        W 5856  17.099   5.231  12.426
37384W        W 5857   6.375  31.625  12.056
37385W        W 5858  39.822  40.025  10.445
37386W        W 5859  22.582  24.211   9.944
37387W        W 5860  33.438  13.153   2.901
37388W        W 5861  31.916  11.849   4.777
37389W        W 5862   5.800  31.073  11.475
37390W        W 5863  10.200  39.912  13.921
37391W        W 5864  10.872  42.991  10.505
37392W        W 5865  35.045  11.637  10.574
37393W        W 5866  16.711   3.285   2.693
37394W        W 5867  39.344  24.143   2.775
37395W        W 5868  13.620   5.223   0.885
37396W        W 5869   2.443  39.491   2.827
37397W        W 5870  19.101  31.027  10.601
37398W        W 5871  29.078   0.909  13.935
37399W        W 5872   2.914  25.590  12.345
37400W        W 5873  14.216   0.935   0.912
37401W        W 5874  36.050  31.070   2.182
37402W        W 5875   2.826  39.978   4.240
37403W        W 5876  12.824  27.530   2.197
37404W        W 5877  25.590  28.180  11.949
37405W        W 5878  10.832  25.169  13.368
37406W        W 5879  33.074  44.808  12.909
37407W        W 5880  24.672  11.624   2.400
37408W        W 5881  16.631  15.726   1.351
37409W        W 5882  15.810  29.570   4.648
37410W        W 5883  31.504  16.244   0.742
37411W        W 5884  43.818   6.731   4.681
37412W        W 5885   0.879   0.423   3.155
37413W        W 5886  29.661  44.759   1.814
37414W        W 5887  37.002  25.012   0.781
37415W        W 5888   2.267  22.572  11.903
37416W        W 5889  41.475  25.086   4.704
37417W        W 5890  39.000   1.425  12.556
37418W        W 5891  33.911   8.340   4.132
37419W        W 5892  37.431  27.588  11.473
37420W        W 5893  13.273   2.744  13.544
37421W        W 5894  30.028  23.671  10.639
37422W        W 5895  36.904   1.946  12.538
37423W        W 5896  33.518  41.830   2.311
37424W        W 5897  17.673  42.869   4.608
37425W        W 5898  17.174   9.380  11.587
37426W        W 5899  18.265   0.804   1.382
37427W        W 5900  22.138  38.059  11.118
37428W        W 5901  36.570  34.964   2.784
37429W        W 5902  14.687  39.907   3.816
37430W        W 5903  22.648   1.914   4.619
37431W        W 5904   8.202  40.384  13.840
37432W        W 5905   8.718  36.541  10.910
37433W        W 5906  21.131  30.971   0.790
37434W        W 5907  28.052  12.846  14.871
37435W        W 5908   4.897  23.198   4.747
37436W        W 5909  37.954  24.187  11.548
37437W        W 5910  40.386  37.834  10.921
37438W        W 5911  17.190   1.253   4.712
37439W        W 5912  13.802   2.258  13.908
37440W        W 5913  19.719  37.875   3.197
37441W        W 5914  17.128  14.265  13.347
37442W        W 5915  11.845  27.613  13.504
37443W        W 5916  23.726  12.219   9.528
37444W        W 5917   1.306  25.570  11.510
37445W        W 5918  29.631  15.691   1.698
37446W        W 5919  10.742  25.596   2.373
37447W        W 5920  17.767   9.236   0.761
37448W        W 5921  34.487  38.965   1.365
37449W        W 5922  32.456  14.198  12.051
37450W        W 5923  10.187  18.757  13.905
37451W        W 5924  28.106  10.320   1.883
37452W        W 5925  43.459  26.135   2.663
37453W        W 5926   5.849  11.860   3.186
37454W        W 5927   6.898  29.924  12.375
37455W        W 5928   6.883  39.989  13.826
37456W        W 5929   5.416   3.743   2.309
37457W        W 5930  43.352  37.518  12.904
37458W        W 5931  29.928  39.892  14.794
37459W        W 5932  36.393  22.175   3.792
37460W        W 5933   7.287  33.380  12.072
37461W        W 5934  23.537   5.215   3.769
37462W        W 5935  26.511   4.794  12.399
37463W        W 5936  33.009   0.904   4.233
37464W        W 5937  23.620  42.791  12.554
37465W        W 5938  21.639  34.011   2.712
37466W        W 5939  32.026   9.212  14.496
37467W        W 5940  39.825   9.217   3.309
37468W        W 5941  24.212  26.652  10.440
37469W        W 5942  27.047  30.052   4.771
37470W        W 5943  43.399  44.806   1.786
37471W        W 5944  14.205  17.269   1.298
37472W        W 5945  41.972  37.935  13.331
37473W        W 5946   2.925  29.500   4.117
37474W        W 5947  40.346   8.681   4.143
37475W        W 5948  36.022  25.119   5.254
37476W        W 5949  16.129  23.540  13.481
37477W        W 5950  41.867  28.657  14.436
37478W        W 5951   3.916   9.281  12.058
37479W        W 5952  21.074  28.659  14.886
37480W        W 5953  34.466  23.183   4.140
37481W        W 5954   5.317   8.199  10.522
37482W        W 5955   1.277   5.323  11.074
37483W        W 5956  44.439  38.913   2.197
37484W        W 5957  12.760   6.864   2.820
37485W        W 5958  44.902   1.369  14.782
37486W        W 5959  33.392  44.354  11.110
37487W        W 5960  44.467   6.264   4.679
37488W        W 5961   2.443  13.716  10.913
37489W        W 5962  29.467  28.011  13.811
37490W        W 5963  44.370  44.444   2.847
37491W        W 5964  33.496  19.066   2.312
37492W        W 5965  11.159  32.561   0.949
37493W        W 5966  30.118  44.361  10.029
37494W        W 5967  15.153  20.539  11.422
37495W        W 5968  19.128  34.060   1.891
37496W        W 5969  40.885  31.583  13.476
37497W        W 5970  27.074  41.952   2.223
37498W        W 5971  35.448  42.947  13.340
37499W        W 5972  42.896  31.411  14.960
37500W        W 5973  40.978  20.737   3.665
37501W        W 5974  30.499  16.293   1.793
37502W        W 5975  41.802  28.036  14.013
37503W        W 5976  42.288  22.542  12.883
37504W        W 5977  41.446  38.051   4.125
37505W        W 5978  20.630  12.629  13.825
37506W        W 5979   8.278   3.353  14.931
37507W        W 5980  12.824  25.623  11.385
37508W        W 5981   3.880  21.619  10.539
37509W        W 5982  21.562  38.833  12.904
37510W        W 5983  22.164  20.762  13.455
37511W        W 5984  11.667   9.775   1.783
37512W        W 5985  33.445  43.316   0.435
37513W        W 5986  21.204  37.870   5.130
37514W        W 5987   2.375  11.204  11.587
37515W        W 5988  42.282  25.075   3.341
37516W        W 5989  27.052  36.946   0.469
37517W        W 5990   5.279  30.640  11.463
37518W        W 5991  37.373  32.974   4.734
37519W        W 5992  16.304  39.004   1.279
37520W        W 5993  43.780  11.797   0.266
37521W        W 5994   1.376   4.329   3.356
37522W        W 5995  44.767  14.742   2.199
37523W        W 5996   8.293  36.425  10.606
37524W        W 5997  34.100   9.762   2.338
37525W        W 5998  38.570  16.089  12.898
37526W        W 5999  40.011  39.530   0.771
37527W        W 6000  40.420  21.666  12.450
37528W        W 6001  36.515  31.416   1.705
37529W        W 6002  13.203  30.909  11.900
37530W        W 6003  30.578  36.027   0.834
37531W        W 6004  34.023  30.597   1.772
37532W        W 6005  13.757   5.422   1.859
37533W        W 6006   9.349  29.052   0.852
37534W        W 6007  11.275  16.204  10.944
37535W        W 6008  39.557  34.575   4.237
37536W        W 6009  31.931   4.814  13.950
37537W        W 6010  39.495  42.513   2.720
37538W        W 6011  29.559  19.533   0.462
37539W        W 6012   0.379  33.123   0.785
37540W        W 6013  40.318  37.016   4.130
37541W        W 6014  38.502   0.936  14.967
37542W        W 6015  43.861  10.848  10.950
37543W        W 6016  25.644  34.386  13.527
37544W        W 6017  35.401  26.071   2.797
37545W        W 6018  15.309   3.741   1.813
37546W        W 6019  18.559  29.155  13.881
37547W        W 6020   0.366  41.983  14.853
37548W        W 6021   3.385   4.233  13.462
37549W        W 6022  13.763   6.842  11.463
37550W        W 6023  15.801  26.602   5.210
37551W        W 6024  16.577  11.362  13.852
37552W        W 6025   4.382  29.146  10.521
37553W        W 6026  37.558  32.633  13.927
37554W        W 6027  39.325  11.300   1.258
37555W        W 6028  12.807  10.218  13.526
37556W        W 6029  30.980  18.289   4.306
37557W        W 6030   6.769  31.499   3.233
37558W        W 6031  30.033  43.804   0.392
37559W        W 6032  34.374  26.496   2.668
37560W        W 6033  12.354  23.100  11.932
37561W        W 6034  29.150  26.186   0.888
37562W        W 6035  25.695  40.866  14.326
37563W        W 6036  38.970  36.592  12.860
37564W        W 6037  28.121  40.517  11.432
37565W        W 6038  41.386  38.337  14.981
37566W        W 6039  11.319   7.390   3.220
37567W        W 6040  20.554  16.310   2.777
37568W        W 6041  24.586  34.889   3.779
37569W        W 6042  26.974  29.663  13.316
37570W        W 6043  17.684  10.649   1.708
37571W        W 6044  23.606   2.762  11.949
37572W        W 6045   9.378   6.394   0.827
37573W        W 6046  34.420  34.564   2.395
37574W        W 6047  36.538   2.402  12.556
37575W        W 6048  32.418  21.522   2.223
37576W        W 6049   6.850  33.102  14.991
37577W        W 6050  34.981  21.571  11.439
37578W        W 6051  31.577  23.215   9.443
37579W        W 6052  43.309  32.964  12.482
37580W        W 6053  36.056  29.662  13.339
37581W        W 6054  42.458  23.607  14.979
37582W        W 6055   2.466  12.147  13.064
37583W        W 6056  28.504  18.557  14.898
37584W        W 6057   1.747   8.671  12.435
37585W        W 6058   2.261  25.705  11.128
37586W        W 6059  18.238  10.235   3.296
37587W        W 6060  19.651  36.912   2.376
37588W        W 6061  28.172   4.375  12.926
37589W        W 6062  13.779  20.556   3.827
37590W        W 6063  31.135   6.193   1.313
37591W        W 6064  15.589  36.453   1.416
37592W        W 6065  39.976   4.733  12.401
37593W        W 6066  18.669  13.840  10.957
37594W        W 6067   6.793  26.052  14.002
37595W        W 6068  26.096   2.468   2.284
37596W        W 6069  38.897  42.344   0.757
37597W        W 6070   5.893   8.388  12.506
37598W        W 6071  21.060  42.871  10.418
37599W        W 6072   2.343   0.871   2.204
37600W        W 6073  37.913   3.314  10.050
37601W        W 6074  36.842  27.017  11.961
37602W        W 6075   5.715  37.005   1.370
37603W        W 6076  27.670  17.218  13.313
37604W        W 6077  29.475  38.542   1.300
37605W        W 6078  34.483  41.476  11.461
37606W        W 6079  17.247  11.213  14.002
37607W        W 6080  13.298   9.888  14.973
37608W        W 6081  28.559  42.428   4.600
37609W        W 6082  31.034   0.919  14.450
37610W        W 6083  10.310  44.847   2.866
37611W        W 6084  29.559  18.637   2.324
37612W        W 6085  42.905   7.785  13.522
37613W        W 6086  41.323  22.077  13.336
37614W        W 6087  35.044  31.616  12.353
37615W        W 6088  26.991   2.907   3.367
37616W        W 6089  24.547  11.161   0.771
37617W        W 6090  30.576  19.671  13.376
37618W        W 6091  18.121  37.030  13.378
37619W        W 6092  17.656  12.298   4.217
37620W        W 6093  37.375  13.196  14.835
37621W        W 6094   6.195  24.641  11.950
37622W        W 6095  21.699  11.186  14.809
37623W        W 6096  34.900  43.277   0.805
37624W        W 6097  24.061  24.009   3.310
37625W        W 6098  36.420   9.296   4.792
37626W        W 6099  31.091  10.340   4.282
37627W        W 6100  25.143  23.039  11.927
37628W        W 6101  27.526  28.669   4.838
37629W        W 6102  15.713  21.684  14.320
37630W        W 6103   2.965   2.468   1.880
37631W        W 6104  34.891  21.550   3.858
37632W        W 6105  12.199  23.132  14.027
37633W        W 6106  27.638   2.961   3.226
37634W        W 6107  40.388   1.311   1.405
37635W        W 6108   5.840  20.525  11.956
37636W        W 6109   6.911  35.536  14.493
37637W        W 6110  10.308  11.344   2.847
37638W        W 6111   6.259  18.179   3.350
37639W        W 6112  36.587  13.135   2.329
37640W        W 6113  32.082  26.525  14.342
37641W        W 6114  17.213   0.290  13.815
37642W        W 6115  35.492   0.923   0.267
37643W        W 6116   4.748  20.221  13.826
37644W        W 6117  44.917  40.020   0.465
37645W        W 6118  26.660  17.177  12.383
37646W        W 6119  14.341  27.119   1.825
37647W        W 6120  34.550  23.180  14.029
37648W        W 6121  35.075  13.128   0.399
37649W        W 6122   5.214  40.444  13.501
37650W        W 6123  23.590  26.492   4.732
37651W        W 6124  34.017  10.350   0.869
37652W        W 6125  16.298  30.534   3.741
37653W        W 6126  27.100   6.394  14.875
37654W        W 6127  12.207  20.141   2.729
37655W        W 6128  21.114   4.211  13.429
37656W        W 6129  22.234   8.721  14.398
37657W        W 6130  12.663  41.033   3.384
37658W        W 6131  16.693  37.575  11.938
37659W        W 6132  36.463  17.302   3.797
37660W        W 6133  32.089  25.002  14.838
37661W        W 6134   7.250   8.184  12.982
37662W        W 6135   8.779   0.909  14.491
37663W        W 6136  31.597  18.719   2.857
37664W        W 6137  42.960   5.270  14.873
37665W        W 6138  42.941   8.301   3.634
37666W        W 6139   1.776  26.498  12.491
37667W        W 6140  16.598  37.499   1.777
37668W        W 6141  28.142  27.053  14.475
37669W        W 6142  24.700  18.558   4.177
37670W        W 6143  37.032  24.615  14.871
37671W        W 6144   2.887   1.391  13.954
37672W        W 6145  32.890  14.708   0.475
37673W        W 6146  32.024  37.029  14.384
37674W        W 6147  18.182   1.743  12.852
37675W        W 6148  44.445  18.640  11.442
37676W        W 6149  16.096  34.946   4.148
37677W        W 6150  26.062  22.637  11.461
37678W        W 6151  33.045  18.277  12.362
37679W        W 6152  39.939  31.551   0.918
37680W        W 6153  19.099   2.812  11.056
37681W        W 6154  14.692  22.067  11.117
37682W        W 6155  10.849  33.519   1.385
37683W        W 6156   4.362  41.987   0.769
37684W        W 6157  26.546  30.990   3.218
37685W        W 6158  30.923  30.929   4.781
37686W        W 6159  34.516   2.725   2.765
37687W        W 6160  13.778   8.406  13.463
37688W        W 6161  30.940  12.813   3.175
37689W        W 6162  35.908  27.124   1.385
37690W        W 6163  23.661   7.260   4.648
37691W        W 6164  40.982  16.771  13.798
37692W        W 6165  26.205  38.557  14.027
37693W        W 6166  37.042   1.437  10.509
37694W        W 6167  12.820  15.755   9.938
37695W        W 6168  17.218  14.628  14.500
37696W        W 6169  40.374  23.016   0.929
37697W        W 6170  18.546  30.521  12.914
37698W        W 6171  11.755   8.890  13.920
37699W        W 6172  10.205   7.234   3.350
37700W        W 6173  36.070  15.095   4.309
37701W        W 6174   2.829  12.746  12.496
37702W        W 6175  40.371   5.743  13.483
37703W        W 6176   5.390  16.729   2.821
37704W        W 6177   5.423  26.086   0.876
37705W        W 6178  11.213   2.826  14.858
37706W        W 6179  11.180  25.213   5.691
37707W        W 6180  34.603   1.435   1.317
37708W        W 6181  11.803  34.426  13.796
37709W        W 6182  44.899  19.203  13.935
37710W        W 6183  13.207  25.210  10.106
37711W        W 6184   8.756  13.130   2.800
37712W        W 6185  43.479  12.786   2.206
37713W        W 6186  24.514   6.402   1.872
37714W        W 6187  40.327  14.656  12.511
37715W        W 6188  17.596  14.815   0.482
37716W        W 6189  19.699  31.575  13.887
37717W        W 6190  10.218  12.796  13.500
37718W        W 6191  41.839  28.117   1.229
37719W        W 6192   6.909  14.154   0.390
37720W        W 6193   3.406  44.846   0.469
37721W        W 6194  26.095  19.085  14.846
37722W        W 6195   1.907  17.167   5.203
37723W        W 6196   7.306   4.770  11.009
37724W        W 6197  36.356  32.041   0.344
37725W        W 6198   4.735  40.339   3.185
37726W        W 6199  44.353  37.575  12.094
37727W        W 6200   4.884  25.191   3.658
37728W        W 6201   6.837  34.933   1.750
37729W        W 6202  31.437   9.838   1.323
37730W        W 6203  35.093   4.317  14.899
37731W        W 6204  34.473  20.738  14.383
37732W        W 6205  41.890  20.140  13.040
37733W        W 6206  43.424  44.927  10.909
37734W        W 6207  42.400  13.638   2.879
37735W        W 6208  36.011  43.825  12.550
37736W        W 6209  32.435  14.136  14.016
37737W        W 6210  11.348   2.891   1.896
37738W        W 6211  33.061  32.392   3.730
37739W        W 6212  31.531   7.293   1.287
37740W        W 6213  26.687  35.037   1.298
37741W        W 6214   1.385  43.803   4.632
37742W        W 6215   4.895  26.633  13.496
37743W        W 6216   8.721   5.305   2.398
37744W        W 6217  37.361  16.284   3.320
37745W        W 6218  18.789  28.609   2.273
37746W        W 6219  24.640  30.154   0.873
37747W        W 6220  29.084  30.422  12.960
37748W        W 6221  39.984  31.134  14.392
37749W        W 6222   8.175   3.725  13.496
37750W        W 6223  16.239  33.609  14.907
37751W        W 6224  11.189  23.099  12.006
37752W        W 6225  36.848  30.506  13.947
37753W        W 6226  27.077   9.282  13.356
37754W        W 6227  42.304  17.635  14.874
37755W        W 6228  27.035   9.786   2.271
37756W        W 6229  38.967  30.434  14.468
37757W        W 6230  44.931   3.732  14.459
37758W        W 6231  44.875  41.304   5.216
37759W        W 6232  18.667  21.678   4.726
37760W        W 6233  19.738  18.585   0.410
37761W        W 6234  15.235  38.386   5.292
37762W        W 6235  21.192  29.012  11.468
37763W        W 6236  44.381  30.579   2.822
37764W        W 6237   7.742  11.789   3.331
37765W        W 6238  19.251  16.600  14.328
37766W        W 6239  16.628  40.365  14.013
37767W        W 6240  16.215   4.825  10.107
37768W        W 6241  15.193  25.048   1.325
37769W        W 6242  16.204  21.559   2.862
37770W        W 6243  29.435  26.684  11.058
37771W        W 6244  17.103  21.705  12.839
37772W        W 6245  38.326  21.227  12.074
37773W        W 6246  44.776  21.670  10.563
37774W        W 6247  34.385  26.668  11.575
37775W        W 6248   7.687  21.117   4.119
37776W        W 6249  17.307  14.779  12.515
37777W        W 6250  13.302  35.024   3.184
37778W        W 6251   5.856  44.975  12.079
37779W        W 6252   2.296  24.664   3.246
37780W        W 6253   4.401  28.670  12.462
37781W        W 6254  41.459   1.919  10.429
37782W        W 6255   1.959  40.949  11.390
37783W        W 6256  16.254  27.576   2.750
37784W        W 6257   7.796  31.484  13.513
37785W        W 6258   4.755   9.222  13.985
37786W        W 6259  39.430  15.638   1.358
37787W        W 6260  39.037   2.411   4.740
37788W        W 6261  38.857   0.763  13.043
37789W        W 6262  44.297  43.937  11.036
37790W        W 6263  37.580  27.526  11.940
37791W        W 6264   3.709  33.390  13.401
37792W        W 6265   9.809  42.365   3.640
37793W        W 6266  10.797  23.190   0.428
37794W        W 6267  17.618   4.402   0.335
37795W        W 6268  27.562  43.360  12.474
37796W        W 6269  12.761   9.206   3.273
37797W        W 6270   4.706  14.257   4.135
37798W        W 6271  30.123   5.248  10.988
37799W        W 6272  44.784  17.197   3.333
37800W        W 6273  40.004   4.778   2.339
37801W        W 6274  25.022   8.394   0.475
37802W        W 6275  29.144   9.802  12.427
37803W        W 6276  38.440  27.944   2.260
37804W        W 6277  34.867  21.528   3.298
37805W        W 6278  18.572  16.159   4.804
37806W        W 6279   2.840  28.098  13.012
37807W        W 6280  15.286  19.736  10.916
37808W        W 6281   4.935  44.856  12.991
37809W        W 6282  18.277  36.981  14.895
37810W        W 6283  15.278  40.938   9.532
37811W        W 6284  21.544  25.083   2.740
37812W        W 6285  18.648  24.560  14.306
37813W        W 6286  39.381  34.980  13.800
37814W        W 6287  22.709   2.947  14.441
37815W        W 6288  41.533   2.336  14.883
37816W        W 6289  33.552  40.809  12.513
37817W        W 6290  15.227  33.449  13.834
37818W        W 6291  32.926  17.579   1.236
37819W        W 6292   1.369  29.007  14.008
37820W        W 6293   5.901  21.715   2.713
37821W        W 6294  29.630   0.785   2.255
37822W        W 6295  19.686  11.193   0.376
37823W        W 6296  19.264  21.064  14.899
37824W        W 6297  27.986  31.560  10.605
37825W        W 6298   1.386  34.566   2.304
37826W        W 6299  20.246  38.894   3.708
37827W        W 6300   6.402   9.225  14.767
37828W        W 6301  38.920  13.222   1.802
37829W        W 6302  13.252  20.188  13.515
37830W        W 6303  25.202  10.234  10.443
37831W        W 6304  36.518  32.497  12.019
37832W        W 6305  37.947  20.168  12.456
37833W        W 6306   0.474   8.197   1.810
37834W        W 6307  12.670  11.194  12.868
37835W        W 6308  38.931  24.083   2.414
37836W        W 6309  10.323  30.942   2.871
37837W        W 6310   6.854  34.893  12.368
37838W        W 6311  26.044  17.111  13.924
37839W        W 6312  15.586  24.987   1.694
37840W        W 6313  15.608  31.497   1.850
37841W        W 6314   3.891  34.057   3.148
37842W        W 6315  23.691  37.949  11.398
37843W        W 6316  19.726   4.706   1.220
37844W        W 6317   3.300  13.132  10.902
37845W        W 6318   7.851  20.181  11.561
37846W        W 6319  19.640  32.451  12.011
37847W        W 6320  38.835  17.096   1.752
37848W        W 6321  44.439  20.647  14.876
37849W        W 6322  32.576   2.253   3.254
37850W        W 6323  34.611  34.894   4.635
37851W        W 6324  17.233  17.274   0.771
37852W        W 6325  42.477   5.786  13.401
37853W        W 6326  23.186  10.857   0.823
37854W        W 6327  41.335  37.887  13.040
37855W        W 6328  21.121   7.329   0.258
37856W        W 6329   9.748  21.223   4.238
37857W        W 6330  26.151  41.922  13.447
37858W        W 6331  23.627   7.212   4.308
37859W        W 6332  19.095   0.380   4.316
37860W        W 6333  30.918   5.198  14.452
37861W        W 6334  25.665  18.136   2.350
37862W        W 6335  10.377   5.885   2.753
37863W        W 6336  40.504   5.330   2.704
37864W        W 6337   9.822   3.919  11.088
37865W        W 6338  23.206   0.404  12.906
37866W        W 6339  44.844  25.155  14.024
37867W        W 6340   4.716  19.231   4.289
37868W        W 6341  41.800  18.671  10.491
37869W        W 6342  16.117   2.886   4.193
37870W        W 6343  32.584  33.591   2.327
37871W        W 6344  29.025  32.523  13.803
37872W        W 6345  43.317  23.698   2.864
37873W        W 6346  14.108  33.414  13.339
37874W        W 6347   6.259  23.010  13.000
37875W        W 6348  28.480  13.773  13.970
37876W        W 6349   7.767  41.521  11.129
37877W        W 6350  34.922  29.462   0.822
37878W        W 6351  12.610  39.386  13.402
37879W        W 6352   7.396  31.476   1.361
37880W        W 6353  43.365  17.119  12.035
37881W        W 6354   9.872  41.302   0.290
37882W        W 6355  33.529  18.726   0.796
37883W        W 6356  20.242  32.106  11.124
37884W        W 6357  17.261  24.719  10.420
37885W        W 6358  18.056  10.180  12.894
37886W        W 6359  27.683  28.037   0.311
37887W        W 6360   3.946   7.836  11.897
37888W        W 6361   3.899  28.098   0.430
37889W        W 6362  29.129  43.425  12.974
37890W        W 6363  24.185  33.889   3.643
37891W        W 6364  32.031  17.560  14.029
37892W        W 6365  33.599  22.626  12.061
37893W        W 6366  30.489  43.914  12.576
37894W        W 6367   2.387  30.033  13.831
37895W        W 6368   9.815  41.451   2.296
37896W        W 6369  28.488  21.564   4.233
37897W        W 6370  21.614  24.982  13.346
37898W        W 6371  26.151  26.461  13.985
37899W        W 6372  22.549  40.002  12.936
37900W        W 6373  36.547   4.322   1.440
37901W        W 6374   1.423  27.155  14.805
37902W        W 6375   3.932  12.695  11.040
37903W        W 6376  20.257   0.284  14.987
37904W        W 6377  19.229  29.497   0.768
37905W        W 6378  43.783  24.522   2.868
37906W        W 6379  21.707  33.101  10.958
37907W        W 6380  26.119  25.116   4.639
37908W        W 6381  42.333  37.444  13.923
37909W        W 6382  27.539  11.626  11.963
37910W        W 6383  24.134  39.538  10.474
37911W        W 6384  27.114  21.125   4.812
37912W        W 6385  21.102   2.955  12.993
37913W        W 6386   5.756   7.840   9.551
37914W        W 6387  32.993  44.338   5.161
37915W        W 6388  38.540  11.804  12.052
37916W        W 6389  20.259  34.535   0.416
37917W        W 6390  28.008  19.722  14.357
37918W        W 6391  24.587  22.530  11.113
37919W        W 6392  41.331  35.854   4.163
37920W        W 6393  35.928   7.380   2.259
37921W        W 6394  24.163  19.723  14.908
37922W        W 6395  16.294   8.768  11.384
37923W        W 6396  36.510  40.455   0.335
37924W        W 6397   2.297  39.862   3.213
37925W        W 6398  37.061   0.417  11.541
37926W        W 6399  31.119  41.472  11.497
37927W        W 6400  12.171  30.134  14.003
37928W        W 6401  30.541   7.196  11.032
37929W        W 6402   3.915  40.833   2.685
37930W        W 6403  40.966  20.211   4.671
37931W        W 6404   1.376  31.445  13.995
37932W        W 6405  33.085  42.956   5.114
37933W        W 6406  21.717  36.512   3.681
37934W        W 6407   5.859  33.512   1.333
37935W        W 6408  40.544  28.126  12.504
37936W        W 6409  42.286  16.603  14.841
37937W        W 6410  33.945  29.493  12.404
37938W        W 6411  39.952  38.439   1.321
37939W        W 6412  25.537  17.792   3.273
37940W        W 6413  19.654  30.111   4.664
37941W        W 6414   1.364   3.265  12.442
37942W        W 6415  33.517  30.946  14.308
37943W        W 6416  14.766   6.199  13.489
37944W        W 6417  24.519   1.343  10.613
37945W        W 6418  37.940  34.897   4.225
37946W        W 6419   5.372  32.444   3.160
37947W        W 6420  25.121  17.255  11.484
37948W        W 6421  19.193  39.852  10.619
37949W        W 6422  32.083  23.182   3.323
37950W        W 6423  31.566  41.302   9.447
37951W        W 6424  24.696   1.747   3.200
37952W        W 6425  40.803   8.670  12.966
37953W        W 6426  37.463  10.639  14.378
37954W        W 6427  29.010  30.987   2.694
37955W        W 6428   6.744  43.785   2.706
37956W        W 6429  26.144  44.469   0.432
37957W        W 6430  40.338  41.804  10.536
37958W        W 6431  21.032  16.722   4.619
37959W        W 6432   0.482  15.124  11.504
37960W        W 6433  13.765   1.392  13.342
37961W        W 6434  26.616  18.256   3.162
37962W        W 6435  25.081   7.869   1.775
37963W        W 6436  28.099   5.795  11.982
37964W        W 6437   6.907  23.070  11.377
37965W        W 6438  10.324  20.718   2.708
37966W        W 6439  11.746  17.204   9.920
37967W        W 6440  32.031  29.562   0.955
37968W        W 6441  33.103  43.815  13.415
37969W        W 6442  30.083  34.931   0.265
37970W        W 6443  18.176   6.381   3.827
37971W        W 6444  24.093   6.746  11.066
37972W        W 6445   6.691   2.803  14.899
37973W        W 6446  44.374  26.055  14.363
37974W        W 6447   3.391  17.756  12.978
37975W        W 6448  37.517  28.154  10.419
37976W        W 6449  44.439  22.054   4.207
37977W        W 6450   8.756  11.207   4.678
37978W        W 6451  42.491  42.329   3.742
37979W        W 6452  15.729  28.665  14.974
37980W        W 6453  13.242  18.128  12.394
37981W        W 6454  29.138  35.533   2.232
37982W        W 6455  29.564   5.385  10.561
37983W        W 6456  41.866   9.323   3.698
37984W        W 6457  13.232  41.040   0.267
37985W        W 6458  13.729  41.942  13.049
37986W        W 6459  44.446  43.910  10.628
37987W        W 6460   3.407  27.670   4.728
37988W        W 6461  17.165  30.502   5.305
37989W        W 6462   1.781   9.767  12.525
37990W        W 6463  18.181  17.614   4.702
37991W        W 6464  15.243  12.704   1.827
37992W        W 6465  32.030   6.303   1.885
37993W        W 6466   1.739  25.478  10.580
37994W        W 6467  38.867   2.387  12.488
37995W        W 6468  42.332  10.734   2.270
37996W        W 6469  38.903   2.896   4.734
37997W        W 6470  14.155  37.965  11.964
37998W        W 6471  35.397  41.402  12.395
37999W        W 6472   8.753  19.776  13.466
38000W        W 6473  36.586   1.901   4.634
38001W        W 6474  33.068  31.578   2.841
38002W        W 6475   6.798  26.997   2.778
38003W        W 6476  15.170   8.662  14.885
38004W        W 6477  34.448   7.256   1.724
38005W        W 6478  15.746   3.714  13.360
38006W        W 6479  41.800  37.021   0.830
38007W        W 6480  13.752  27.605   1.826
38008W        W 6481  30.152  10.686  10.612
38009W        W 6482   2.795  18.145   0.842
38010W        W 6483  34.905   0.356  10.890
38011W        W 6484  24.544  32.400  13.402
38012W        W 6485  22.139  21.206  11.997
38013W        W 6486  15.813  16.781  10.617
38014W        W 6487  41.827   4.746  12.436
38015W        W 6488  15.154   1.329   2.726
38016W        W 6489  33.516  20.592   0.291
38017W        W 6490  41.844  27.025   2.178
38018W        W 6491  13.683  13.774  12.933
38019W        W 6492  10.295  30.500  13.985
38020W        W 6493  34.393  31.915  11.097
38021W        W 6494  43.389  29.501  12.036
38022W        W 6495  23.629  33.434  14.934
38023W        W 6496  39.382   1.885  14.788
38024W        W 6497  44.433   4.287  14.328
38025W        W 6498  28.142  31.968   2.843
38026W        W 6499   0.818  31.583  10.957
38027W        W 6500  38.434   4.428  13.851
38028W        W 6501  43.446  42.412  11.488
38029W        W 6502  32.493  27.449  13.366
38030W        W 6503  26.614  43.019   0.870
38031W        W 6504  41.976   0.934  14.303
38032W        W 6505  13.151  30.462   4.151
38033W        W 6506  28.489  41.832  12.901
38034W        W 6507  11.733   0.979   3.171
38035W        W 6508  30.449  19.675   4.166
38036W        W 6509  20.108  29.582  12.856
38037W        W 6510   7.365  16.759   1.808
38038W        W 6511  39.325  39.871   2.893
38039W        W 6512  30.612   9.662  13.023
38040W        W 6513  40.359  10.285  10.404
38041W        W 6514  12.338  35.601  14.864
38042W        W 6515  11.682   6.253  13.357
38043W        W 6516  31.533  25.132   4.338
38044W        W 6517   2.870  18.748   0.356
38045W        W 6518  14.135   9.289  14.964
38046W        W 6519  12.736  30.013  12.942
38047W        W 6520  38.992  22.030   4.321
38048W        W 6521  25.046  42.865  12.435
38049W        W 6522  19.264   7.777  12.524
38050W        W 6523  32.094  25.155   2.207
38051W        W 6524  37.846  25.536  14.974
38052W        W 6525  19.699  16.722  14.339
38053W        W 6526  28.461  38.908   3.182
38054W        W 6527  19.688   7.910  11.521
38055W        W 6528  13.621  42.931  14.990
38056W        W 6529  25.166   1.925  10.636
38057W        W 6530   8.313  36.062  12.971
38058W        W 6531  40.403  14.113   0.289
38059W        W 6532  34.086   0.884   0.436
38060W        W 6533   0.941  20.551   0.443
38061W        W 6534  29.969  20.167  13.423
38062W        W 6535   5.343  31.421   0.316
38063W        W 6536   4.236  44.271   4.748
38064W        W 6537   6.306  38.951  11.494
38065W        W 6538   1.430  12.127  11.373
38066W        W 6539  28.509  16.086  11.453
38067W        W 6540  42.797  13.758   4.251
38068W        W 6541  19.119  14.711   4.816
38069W        W 6542  38.384  37.506  12.881
38070W        W 6543  24.012  15.791   5.178
38071W        W 6544  25.177  33.129   1.769
38072W        W 6545  20.191  19.116   2.363
38073W        W 6546   1.319   7.831  12.891
38074W        W 6547  25.165  16.106   1.851
38075W        W 6548   7.736   5.789  13.365
38076W        W 6549   0.415  44.373   3.369
38077W        W 6550   8.862   4.372  10.404
38078W        W 6551  36.880  13.672  14.313
38079W        W 6552  42.332   8.728  14.390
38080W        W 6553  41.448  22.511   0.343
38081W        W 6554  17.195  25.201  12.516
38082W        W 6555  30.047  34.981   2.708
38083W        W 6556  40.445  19.672  14.481
38084W        W 6557  21.153   8.754  14.020
38085W        W 6558  29.022   5.870   1.730
38086W        W 6559  32.033  13.291  11.453
38087W        W 6560  42.445  32.636  13.983
38088W        W 6561  17.723  29.535   3.339
38089W        W 6562  11.228  26.510  12.885
38090W        W 6563  33.581  19.684  12.526
38091W        W 6564  17.716   2.359   4.135
38092W        W 6565  42.434   0.793   1.312
38093W        W 6566   7.247  16.716   4.699
38094W        W 6567  13.248  28.454  14.509
38095W        W 6568  33.549   6.776  14.429
38096W        W 6569  38.884  34.023   4.740
38097W        W 6570  16.706  39.932   0.254
38098W        W 6571  13.257  41.385  14.363
38099W        W 6572  11.355  40.902   2.875
38100W        W 6573  43.900   6.722  14.888
38101W        W 6574   9.176  31.899  10.069
38102W        W 6575  12.345  32.124  10.587
38103W        W 6576  32.443   1.762   4.746
38104W        W 6577   1.949  41.897  14.317
38105W        W 6578  31.048  11.723   0.809
38106W        W 6579   0.836   1.390  13.391
38107W        W 6580  17.275  37.897  14.928
38108W        W 6581  28.441   1.459   1.749
38109W        W 6582  28.459  20.036  12.002
38110W        W 6583  32.392  36.063  11.005
38111W        W 6584  33.963   8.766  12.994
38112W        W 6585  22.631  43.442  11.396
38113W        W 6586  40.898  11.150  10.474
38114W        W 6587  34.548   0.297  10.557
38115W        W 6588  30.646  16.751  11.099
38116W        W 6589  25.170  20.151   4.347
38117W        W 6590  29.426  39.556   0.292
38118W        W 6591  27.194  38.044   3.776
38119W        W 6592   4.271  18.100  14.938
38120W        W 6593  37.986  44.004   1.345
38121W        W 6594  32.448  37.554  14.390
38122W        W 6595  18.657  19.573   4.321
38123W        W 6596  15.748  35.980   3.744
38124W        W 6597   9.371  15.782   4.293
38125W        W 6598  22.094  43.478  14.423
38126W        W 6599  37.834  28.674  14.495
38127W        W 6600  36.013  37.918   4.216
38128W        W 6601  13.613  16.182  10.511
38129W        W 6602  16.802  22.111   4.729
38130W        W 6603  38.502  41.845  11.896
38131W        W 6604  35.992  38.495   0.880
38132W        W 6605  18.636  41.532  11.081
38133W        W 6606  21.619  41.364  11.405
38134W        W 6607   0.294  30.066  12.961
38135W        W 6608  29.551  33.408   2.217
38136W        W 6609   7.333  14.735   2.334
38137W        W 6610   4.705  39.547  13.397
38138W        W 6611  44.868  20.239   4.628
38139W        W 6612  40.467  31.575   2.885
38140W        W 6613  27.116  35.540  10.462
38141W        W 6614   3.788   2.252   4.642
38142W        W 6615  39.369  18.204  11.066
38143W        W 6616  32.004  42.425  13.459
38144W        W 6617  10.250  20.599  14.904
38145W        W 6618  38.418   4.314   1.307
38146W        W 6619  39.347  21.741   3.659
38147W        W 6620  26.041   3.406  11.983
38148W        W 6621  25.039  44.318   0.787
38149W        W 6622  33.910  27.094  12.559
38150W        W 6623  24.596   9.296   0.473
38151W        W 6624  32.949   8.272   2.322
38152W        W 6625  33.883  41.523  14.302
38153W        W 6626  13.745  18.750  11.995
38154W        W 6627  10.158  32.117   1.710
38155W        W 6628  35.486   5.897   1.234
38156W        W 6629  30.096  29.486   3.350
38157W        W 6630  44.999  33.944  12.401
38158W        W 6631  21.533  23.075  11.479
38159W        W 6632  44.483   1.321   4.715
38160W        W 6633  11.331   3.832  13.931
38161W        W 6634  16.220  33.395   0.837
38162W        W 6635   5.798  35.940   4.132
38163W        W 6636  35.584  39.810  11.956
38164W        W 6637  31.633  11.831   1.235
38165W        W 6638  25.642  28.476  13.839
38166W        W 6639  28.153  15.091   4.146
38167W        W 6640  24.661  32.559   3.319
38168W        W 6641  16.639  43.418  12.933
38169W        W 6642  28.964  25.060  12.468
38170W        W 6643  26.023  13.128  14.394
38171W        W 6644   0.954  26.100  10.515
38172W        W 6645  20.598   5.871  12.831
38173W        W 6646  41.897  32.062  14.929
38174W        W 6647   6.325  38.543  14.494
38175W        W 6648  18.571  21.074  10.614
38176W        W 6649   4.320  24.186   2.903
38177W        W 6650   3.740  13.626  12.424
38178W        W 6651  18.690  16.314  12.492
38179W        W 6652  20.559   5.903  10.550
38180W        W 6653  14.275  24.690  12.571
38181W        W 6654  13.163  44.836  12.980
38182W        W 6655   6.747  11.210   2.349
38183W        W 6656  36.867  10.797  11.888
38184W        W 6657  28.098   9.884   3.673
38185W        W 6658  40.812  15.718  12.577
38186W        W 6659  37.055  19.697   0.874
38187W        W 6660  43.345  14.299  12.992
38188W        W 6661  12.709  42.400   3.787
38189W        W 6662  14.328  17.299  14.012
38190W        W 6663  25.162  18.093  13.465
38191W        W 6664  37.561  35.552   0.840
38192W        W 6665  35.404  12.222  11.446
38193W        W 6666  38.934  35.531  12.052
38194W        W 6667  42.952  23.678  14.283
38195W        W 6668  44.820   4.744  13.818
38196W        W 6669  20.262  35.422   0.422
38197W        W 6670  27.969  16.669  12.998
38198W        W 6671  26.536  20.162   5.165
38199W        W 6672  39.030  14.145  11.982
38200W        W 6673  43.385   3.223   3.209
38201W        W 6674   6.813   7.367   5.756
38202W        W 6675  12.728  39.437  14.447
38203W        W 6676  32.455  31.071   3.153
38204W        W 6677  19.663  28.944   3.652
38205W        W 6678  25.694  25.078  11.044
38206W        W 6679  29.508  25.128   4.730
38207W        W 6680  20.573  42.940   3.351
38208W        W 6681  39.008  37.946  14.023
38209W        W 6682  22.659  39.389   0.407
38210W        W 6683  14.101   5.874  14.806
38211W        W 6684  13.110   9.181   1.394
38212W        W 6685   9.734  25.697  14.393
38213W        W 6686   2.850  19.696   0.887
38214W        W 6687  28.467  30.593   3.680
38215W        W 6688  33.527  18.735  14.862
38216W        W 6689  30.001   4.258  14.990
38217W        W 6690  31.140  18.638   3.317
38218W        W 6691  22.208  44.847  12.361
38219W        W 6692  14.823  19.736   0.287
38220W        W 6693   6.718  24.700  10.453
38221W        W 6694   4.407  33.116   4.351
38222W        W 6695  24.539  33.406  12.025
38223W        W 6696   9.194  24.586   1.216
38224W        W 6697  41.877  41.400  12.547
38225W        W 6698  36.980  38.964   2.771
38226W        W 6699  33.904   8.375  13.514
38227W        W 6700   3.738  20.183  12.893
38228W        W 6701  13.196  10.700  11.378
38229W        W 6702   7.381  15.626   3.697
38230W        W 6703  30.465  24.687  11.947
38231W        W 6704  17.166  24.004  11.408
38232W        W 6705  14.298  38.860  11.521
38233W        W 6706  14.675  38.962   2.287
38234W        W 6707  38.354  23.105   3.806
38235W        W 6708   8.833   9.371  12.520
38236W        W 6709  12.122  19.709   4.774
38237W        W 6710  18.242  29.439   1.835
38238W        W 6711  16.637  39.967   1.324
38239W        W 6712  40.917   0.308   2.241
38240W        W 6713  34.014  11.831   2.321
38241W        W 6714  37.850  20.203  14.874
38242W        W 6715  39.546   9.268  11.423
38243W        W 6716  25.033  42.316   3.354
38244W        W 6717  43.004  10.163  12.465
38245W        W 6718  36.434  17.203   4.820
38246W        W 6719  44.418  19.759  11.531
38247W        W 6720   8.857  18.621   0.810
38248W        W 6721  36.861  28.480  10.528
38249W        W 6722  36.350  18.743   3.708
38250W        W 6723  19.683   7.256  11.085
38251W        W 6724  14.772  25.664   2.786
38252W        W 6725  16.618  23.162   2.314
38253W        W 6726  27.617  20.665  11.953
38254W        W 6727  36.414  18.225  14.308
38255W        W 6728  21.039  10.718   3.304
38256W        W 6729  14.230  25.043   2.758
38257W        W 6730  17.688   0.790  14.442
38258W        W 6731  11.238  19.750   2.262
38259W        W 6732  34.587  12.757  12.957
38260W        W 6733  14.682  42.817   0.391
38261W        W 6734  26.115  32.927  12.359
38262W        W 6735  34.583  31.011  14.329
38263W        W 6736  41.937  26.070  11.099
38264W        W 6737  39.869   0.252  10.458
38265W        W 6738  14.265  18.768  11.988
38266W        W 6739  27.970  43.379   2.180
38267W        W 6740  33.058  31.118   0.298
38268W        W 6741   0.357   2.270  11.940
38269W        W 6742   3.880   3.824   1.406
38270W        W 6743  25.174  24.058   5.304
38271W        W 6744  19.664  20.688  11.908
38272W        W 6745   2.289  30.104  11.593
38273W        W 6746  29.127  17.223  11.060
38274W        W 6747  18.081  18.145  12.887
38275W        W 6748  13.287   7.688  10.558
38276W        W 6749  18.147   2.832   2.888
38277W        W 6750  24.172  32.636   1.810
38278W        W 6751  39.042   5.698  13.409
38279W        W 6752  31.500  25.588   9.990
38280W        W 6753  39.936  32.451  14.441
38281W        W 6754  29.115  30.574   0.287
38282W        W 6755  30.657  13.128  14.944
38283W        W 6756  24.974  18.060   4.767
38284W        W 6757  19.719  24.199   1.861
38285W        W 6758   4.838  44.383  11.958
38286W        W 6759  39.041  44.439   5.302
38287W        W 6760  38.562   6.311   1.883
38288W        W 6761  33.930  15.613   1.718
38289W        W 6762  18.160  43.800  11.578
38290W        W 6763  39.357   8.333  11.476
38291W        W 6764  39.539  24.995   1.307
38292W        W 6765  24.540  26.627   5.092
38293W        W 6766  25.687  25.097   5.096
38294W        W 6767  23.496  39.943  13.355
38295W        W 6768  13.684  17.739  10.953
38296W        W 6769   2.301  36.429   0.365
38297W        W 6770  22.554   2.470  11.447
38298W        W 6771  41.527  31.039   0.445
38299W        W 6772  24.482  28.593  10.563
38300W        W 6773  36.411  17.076  10.967
38301W        W 6774   4.709  39.525  11.972
38302W        W 6775   9.246  33.620  12.578
38303W        W 6776  28.659  13.207   4.731
38304W        W 6777  40.989  22.639  13.896
38305W        W 6778  13.700  37.073  10.482
38306W        W 6779  34.474   6.243   3.802
38307W        W 6780  29.024  13.644   1.414
38308W        W 6781  15.683  12.177   0.339
38309W        W 6782  27.161  14.139   3.167
38310W        W 6783  30.627  28.112   5.235
38311W        W 6784   2.426  14.802  12.511
38312W        W 6785  16.593  34.430   3.354
38313W        W 6786  37.955  41.369   4.836
38314W        W 6787  40.845  38.512   3.338
38315W        W 6788  34.891   8.676   0.428
38316W        W 6789   3.873  38.356   3.677
38317W        W 6790  37.900  13.781  10.573
38318W        W 6791  25.596  34.921   3.223
38319W        W 6792  25.583  19.572   5.304
38320W        W 6793  39.041   9.815   1.403
38321W        W 6794  10.654  18.549  13.051
38322W        W 6795   0.476   5.761   2.725
38323W        W 6796  26.149  22.671  12.423
38324W        W 6797  35.512  32.447  12.919
38325W        W 6798  30.034   0.864   4.267
38326W        W 6799  20.605  35.058   4.781
38327W        W 6800  30.027   8.786  13.998
38328W        W 6801  30.423  42.468  14.956
38329W        W 6802  31.615  43.869   2.880
38330W        W 6803  26.974  22.139   3.775
38331W        W 6804   8.794  21.666   3.866
38332W        W 6805  18.104  17.186  12.011
38333W        W 6806  41.346  36.404  13.806
38334W        W 6807  36.590  40.375   0.862
38335W        W 6808  10.319   9.862  14.301
38336W        W 6809  29.014   9.349  13.836
38337W        W 6810  33.606  19.153  14.813
38338W        W 6811  25.144   3.341  13.413
38339W        W 6812  18.621   4.755   1.847
38340W        W 6813  38.404  38.868  11.438
38341W        W 6814  42.456  18.660   1.777
38342W        W 6815   4.248  17.739   4.658
38343W        W 6816   0.362   7.385  11.537
38344W        W 6817   5.730  31.006  13.359
38345W        W 6818   8.245   0.807   1.816
38346W        W 6819  13.711  19.267   4.130
38347W        W 6820  12.329  37.841  11.967
38348W        W 6821   8.845   7.410   4.296
38349W        W 6822  38.344  28.146  10.488
38350W        W 6823  23.656  43.908   3.256
38351W        W 6824   9.166   8.800   5.300
38352W        W 6825  31.145   6.818   2.684
38353W        W 6826  37.398  14.306   0.260
38354W        W 6827   8.198  40.900   3.806
38355W        W 6828  35.542  24.120   0.922
38356W        W 6829  12.165  31.502   3.223
38357W        W 6830  20.621  41.043   2.682
38358W        W 6831  10.287  40.517  14.854
38359W        W 6832  31.579  17.579   2.709
38360W        W 6833   3.792  15.805  10.504
38361W        W 6834  25.137  22.010   0.398
38362W        W 6835  20.536  26.530  12.915
38363W        W 6836  15.802  22.659  11.038
38364W        W 6837  42.872  33.442  14.348
38365W        W 6838   3.954  44.394   2.846
38366W        W 6839  22.657  28.080   9.539
38367W        W 6840   3.884  12.814  13.337
38368W        W 6841  35.478  20.188  11.903
38369W        W 6842  25.001  10.796  11.527
38370W        W 6843  12.323  22.699   0.739
38371W        W 6844  14.313   7.256  14.856
38372W        W 6845  22.567  38.538  12.990
38373W        W 6846   1.362   6.335  14.289
38374W        W 6847  39.486  35.576   0.319
38375W        W 6848  38.997  43.826  10.096
38376W        W 6849  34.517  27.978  13.342
38377W        W 6850  31.004  23.164  11.119
38378W        W 6851  29.554  21.601   2.275
38379W        W 6852   3.356   6.301  13.386
38380W        W 6853  13.188  29.944  13.865
38381W        W 6854  30.013   0.924  13.874
38382W        W 6855  19.675  26.179   3.778
38383W        W 6856  19.184  12.308   0.418
38384W        W 6857  12.810  23.074  14.030
38385W        W 6858   8.661  38.970  14.954
38386W        W 6859  38.825  44.335  10.078
38387W        W 6860   3.731  19.047   3.680
38388W        W 6861  41.923   1.426  13.381
38389W        W 6862  36.389   3.453   0.790
38390W        W 6863   7.887  44.397  12.542
38391W        W 6864  16.220  41.516  13.962
38392W        W 6865  21.201   7.847   1.272
38393W        W 6866  35.885  11.292   1.288
38394W        W 6867  44.926   8.722  14.778
38395W        W 6868   7.694   6.292  10.405
38396W        W 6869  20.059  23.111   2.863
38397W        W 6870  15.744  17.086   0.311
38398W        W 6871  36.537  19.157  13.060
38399W        W 6872  16.200  42.300   2.872
38400W        W 6873  33.046  34.996  12.485
38401W        W 6874   9.796   3.372   1.706
38402W        W 6875  15.601  34.413  11.120
38403W        W 6876  22.049  12.663  12.855
38404W        W 6877  35.979  18.123   4.206
38405W        W 6878   7.690  41.890   4.762
38406W        W 6879  23.126  11.856   3.228
38407W        W 6880  19.242   6.802   1.429
38408W        W 6881  27.453   5.854   3.827
38409W        W 6882  15.671   8.227  13.410
38410W        W 6883  38.465   9.361  11.947
38411W        W 6884  40.543   0.878  13.865
38412W        W 6885  25.644  29.669  14.443
38413W        W 6886  26.547   5.924  12.979
38414W        W 6887  30.010  35.575  13.535
38415W        W 6888  17.190  41.392   1.898
38416W        W 6889  12.351  33.989  11.449
38417W        W 6890  22.513   7.891  11.548
38418W        W 6891  28.992  31.450   2.780
38419W        W 6892  30.517   4.911   1.351
38420W        W 6893  26.589   7.755  10.541
38421W        W 6894   8.355  37.038   0.826
38422W        W 6895  42.811  25.191  11.892
38423W        W 6896  18.765  37.912  12.964
38424W        W 6897  31.080  35.439   4.734
38425W        W 6898  29.068  15.587   0.321
38426W        W 6899  43.863  43.990   2.192
38427W        W 6900  41.953   3.952  14.372
38428W        W 6901  12.762  11.267  13.472
38429W        W 6902   1.977  20.110   1.404
38430W        W 6903  42.010  18.273  11.946
38431W        W 6904  17.582  33.061  11.083
38432W        W 6905  42.010  33.982  13.959
38433W        W 6906  40.934  33.452   0.348
38434W        W 6907   4.381  35.446  13.879
38435W        W 6908  20.695  38.986   3.733
38436W        W 6909   9.733  39.943   4.289
38437W        W 6910  29.572   3.363   1.729
38438W        W 6911   7.837  25.475   2.692
38439W        W 6912  21.167  36.040   4.684
38440W        W 6913  41.879  36.967   1.870
38441W        W 6914  34.503  11.693   1.932
38442W        W 6915  43.907  17.664  13.406
38443W        W 6916   4.272  43.311   3.378
38444W        W 6917  16.631  31.007   2.270
38445W        W 6918   8.280   7.184  14.975
38446W        W 6919  17.763  31.140  12.896
38447W        W 6920  40.038  34.974  13.365
38448W        W 6921   9.878   7.348   2.223
38449W        W 6922   1.828  38.983   0.910
38450W        W 6923  38.531  41.029   0.296
38451W        W 6924   1.807  32.063  13.496
38452W        W 6925   2.432  17.577  13.360
38453W        W 6926  27.690  35.109   4.651
38454W        W 6927  29.433  11.358   4.297
38455W        W 6928  29.451  26.646   0.764
38456W        W 6929   7.889  24.546  14.292
38457W        W 6930  12.163  25.214  14.835
38458W        W 6931   2.391  20.117  10.606
38459W        W 6932   5.420  21.017   0.958
38460W        W 6933   4.329  27.056   0.789
38461W        W 6934  40.814  37.074   0.252
38462W        W 6935  41.873  26.044  12.865
38463W        W 6936  21.049  19.214   4.322
38464W        W 6937  31.139   6.249   0.411
38465W        W 6938  15.094  34.436  14.861
38466W        W 6939  37.509   9.198   5.128
38467W        W 6940   1.815  26.053   2.228
38468W        W 6941  29.497  34.911   0.437
38469W        W 6942  22.023  13.846  14.496
38470W        W 6943  12.310  31.469   1.320
38471W        W 6944   5.844  16.669   4.213
38472W        W 6945   9.283  38.028  13.834
38473W        W 6946   8.400  29.092  13.393
38474W        W 6947  40.906  33.465   4.711
38475W        W 6948  16.723  44.893   4.292
38476W        W 6949  30.427  11.633   2.180
38477W        W 6950   5.351  43.910  10.501
38478W        W 6951  12.621  24.007  14.014
38479W        W 6952   9.350  23.533  14.400
38480W        W 6953  11.634  18.672  13.360
38481W        W 6954  15.212   8.378  13.901
38482W        W 6955   5.724  32.931   0.897
38483W        W 6956  30.648  31.545  13.516
38484W        W 6957   3.862  43.512  10.431
38485W        W 6958   2.887  44.360  11.541
38486W        W 6959  26.576  21.175   3.816
38487W        W 6960   7.196  39.386  12.428
38488W        W 6961  28.454  16.231  14.941
38489W        W 6962  13.328  28.059  11.116
38490W        W 6963  33.024  13.688  13.936
38491W        W 6964   3.238  21.683   4.682
38492W        W 6965   4.702  18.163   5.210
38493W        W 6966  29.517  42.357  12.864
38494W        W 6967  23.210  28.953  12.970
38495W        W 6968  33.130  39.957   1.429
38496W        W 6969   6.246  44.976  10.594
38497W        W 6970  28.946  26.553   2.816
38498W        W 6971  16.785  16.779  11.579
38499W        W 6972  33.388  21.252  13.030
38500W        W 6973  19.585  37.496   4.804
38501W        W 6974  15.668  33.397   1.698
38502W        W 6975   9.218   7.885  13.421
38503W        W 6976  36.523   8.176  10.925
38504W        W 6977  44.449  24.103   3.245
38505W        W 6978  20.557   2.369  12.092
38506W        W 6979  12.677  40.850  11.400
38507W        W 6980  21.079   5.326   4.608
38508W        W 6981  21.715  25.141   1.839
38509W        W 6982   3.819  28.072  11.371
38510W        W 6983  10.853  29.449  11.488
38511W        W 6984  43.288  22.159  12.562
38512W        W 6985  38.022  28.120  14.823
38513W        W 6986   8.655  17.172  10.624
38514W        W 6987  29.529  23.701   4.251
38515W        W 6988   2.771  26.151   2.223
38516W        W 6989   3.344   1.953   2.210
38517W        W 6990  16.101  26.456   2.229
38518W        W 6991  40.538  43.022  10.482
38519W        W 6992  14.737  13.787   2.277
38520W        W 6993  19.253   5.725  10.894
38521W        W 6994  44.262  32.993  12.885
38522W        W 6995  15.273  14.734  10.486
38523W        W 6996   4.862  29.611  12.947
38524W        W 6997  36.542  15.102  13.791
38525W        W 6998  11.287   3.221   1.310
38526W        W 6999  20.606  24.087  11.898
38527W        W 7000  41.912  13.306   1.437
38528W        W 7001  22.592  25.031   0.396
38529W        W 7002  29.056   7.181   4.237
38530W        W 7003   3.788  17.286  10.988
38531W        W 7004  27.078   5.410  14.387
38532W        W 7005  15.626  13.214  10.932
38533W        W 7006  25.075  35.388  14.877
38534W        W 7007  17.637  41.473  13.542
38535W        W 7008  39.440  38.904   0.728
38536W        W 7009  19.278  32.972   4.142
38537W        W 7010   9.309  38.398   3.340
38538W        W 7011   9.256  33.403  13.795
38539W        W 7012  42.871  11.748   4.665
38540W        W 7013  18.174  22.655   0.354
38541W        W 7014  15.163   8.376   1.369
38542W        W 7015  33.119  32.515  14.959
38543W        W 7016  36.946   0.376   3.859
38544W        W 7017  23.700  36.979  12.980
38545W        W 7018  28.940  33.523   4.232
38546W        W 7019  21.535  15.614  12.060
38547W        W 7020  21.538   4.764   1.889
38548W        W 7021  21.161  30.562   2.412
38549W        W 7022  29.663   0.444   4.307
38550W        W 7023  26.592  17.195   2.275
38551W        W 7024  22.995  18.250  10.893
38552W        W 7025  24.505  32.576  12.827
38553W        W 7026   0.938  33.101   4.195
38554W        W 7027   0.864  39.392  11.379
38555W        W 7028  44.401   9.381   3.173
38556W        W 7029  18.695  43.415   3.336
38557W        W 7030  17.203  31.574   2.834
38558W        W 7031   5.326   1.976   4.327
38559W        W 7032   9.854  11.762  14.319
38560W        W 7033  28.114  12.653   3.174
38561W        W 7034  28.991  29.928  10.581
38562W        W 7035  27.174  10.832  11.532
38563W        W 7036  28.012   3.955  13.816
38564W        W 7037  37.393  12.318   4.604
38565W        W 7038  13.652  33.553   3.768
38566W        W 7039  14.300  22.730  13.882
38567W        W 7040  15.182   6.816  10.597
38568W        W 7041  39.525  34.007   3.290
38569W        W 7042  31.040  17.595   3.326
38570W        W 7043   5.270  10.652   2.231
38571W        W 7044   1.293  38.562  10.405
38572W        W 7045  25.027  34.610  14.011
38573W        W 7046  21.249  10.659   0.867
38574W        W 7047   7.398  18.754  12.952
38575W        W 7048   9.681   7.812  11.433
38576W        W 7049  39.536  17.262  10.915
38577W        W 7050   0.474  30.608  10.419
38578W        W 7051   4.765  20.582   2.701
38579W        W 7052   4.209  18.112   3.327
38580W        W 7053  27.479  13.792   1.256
38581W        W 7054  44.795  19.183  12.398
38582W        W 7055  27.474  35.553   3.630
38583W        W 7056  23.508  13.161   0.413
38584W        W 7057   4.728  35.995  10.557
38585W        W 7058  42.834  43.282  13.525
38586W        W 7059  32.120  31.552  14.464
38587W        W 7060  31.430  29.040   3.746
38588W        W 7061  12.346   1.273  12.998
38589W        W 7062  29.101   8.821  11.980
38590W        W 7063  38.053  14.146  12.917
38591W        W 7064   2.827  11.358   1.290
38592W        W 7065  38.039  20.121  11.047
38593W        W 7066  32.975  37.457   2.677
38594W        W 7067   9.835  22.546   3.810
38595W        W 7068  17.664  10.196   1.394
38596W        W 7069  26.124  19.055  10.530
38597W        W 7070  26.084  17.212   1.307
38598W        W 7071   6.802  40.332  13.319
38599W        W 7072  39.005  42.367  13.355
38600W        W 7073   2.918   8.849  11.863
38601W        W 7074  33.960  21.252   0.818
38602W        W 7075  27.002   4.296   3.870
38603W        W 7076  24.020  11.650  10.068
38604W        W 7077  13.834  35.413  11.603
38605W        W 7078  26.624  38.494   3.719
38606W        W 7079   5.765  37.838  13.546
38607W        W 7080  29.609  28.595   4.726
38608W        W 7081  27.103  37.926  12.002
38609W        W 7082  15.180  42.322   1.349
38610W        W 7083   6.828  39.499  10.489
38611W        W 7084   4.292  28.489   1.350
38612W        W 7085  36.555  34.117   0.866
38613W        W 7086  31.619  15.149  12.825
38614W        W 7087  42.343  44.754  11.926
38615W        W 7088  41.357   2.249  11.054
38616W        W 7089   0.767  23.229  12.985
38617W        W 7090  43.516  42.011  10.644
38618W        W 7091  36.917  25.699  13.877
38619W        W 7092  20.229  29.928   2.684
38620W        W 7093  17.576  30.638   4.752
38621W        W 7094  32.450  10.639   0.840
38622W        W 7095  32.060  41.896   2.745
38623W        W 7096  36.940  30.496   1.852
38624W        W 7097  38.945  34.117  11.994
38625W        W 7098  32.937   9.836  14.372
38626W        W 7099  18.190   7.362   1.259
38627W        W 7100  16.707  29.962   2.372
38628W        W 7101   6.704   7.704   4.212
38629W        W 7102  44.367   2.866  11.911
38630W        W 7103  11.750  12.311  12.552
38631W        W 7104  13.673  34.447  11.894
38632W        W 7105  27.107   0.776   3.319
38633W        W 7106   0.971  18.152   2.684
38634W        W 7107   6.340  12.674  13.448
38635W        W 7108  39.842  44.357  12.932
38636W        W 7109  11.778  41.425   1.808
38637W        W 7110   6.197  32.073   5.196
38638W        W 7111  17.140  28.437   0.884
38639W        W 7112  10.247  25.657   9.624
38640W        W 7113  35.092   0.836   3.209
38641W        W 7114   4.343  15.817   2.269
38642W        W 7115  10.223  42.913   4.211
38643W        W 7116   8.210  34.548  12.579
38644W        W 7117  37.556   6.848  12.884
38645W        W 7118  25.162  20.702   2.215
38646W        W 7119  36.901  35.427  12.484
38647W        W 7120  11.724  27.560   1.863
38648W        W 7121  25.569  24.170  13.806
38649W        W 7122   3.337  13.280  10.431
38650W        W 7123  19.253  41.891   2.194
38651W        W 7124  21.052   6.308   5.094
38652W        W 7125  10.792   7.178  11.570
38653W        W 7126  10.693  12.216   3.216
38654W        W 7127  14.612   8.184  14.424
38655W        W 7128  23.540   5.197   1.286
38656W        W 7129  11.144  41.488   0.428
38657W        W 7130   6.427   1.377   4.715
38658W        W 7131  31.567  20.548  14.498
38659W        W 7132  32.623  16.667  14.993
38660W        W 7133  17.279  25.171  13.883
38661W        W 7134  23.582  19.191  12.399
38662W        W 7135  44.978  16.734   0.818
38663W        W 7136   5.350  18.173  13.983
38664W        W 7137  39.398   8.710  14.498
38665W        W 7138   7.693  37.426  11.976
38666W        W 7139  10.361  13.109  11.119
38667W        W 7140  37.479  23.704  10.644
38668W        W 7141  33.522   2.306  12.886
38669W        W 7142  26.149  15.197   1.719
38670W        W 7143   5.312   2.470   4.138
38671W        W 7144  33.494  40.831   4.316
38672W        W 7145  22.530  33.077   4.190
38673W        W 7146  43.921   9.694   1.343
38674W        W 7147  42.854   5.389  12.429
38675W        W 7148  14.298   6.197  11.608
38676W        W 7149   1.868  40.893   0.781
38677W        W 7150  36.009  41.954   4.837
38678W        W 7151  41.901   5.348   2.190
38679W        W 7152   3.390  23.677   1.250
38680W        W 7153  38.820  14.771   2.258
38681W        W 7154  41.038  18.208  14.986
38682W        W 7155  40.304   7.403  10.486
38683W        W 7156  13.121  36.924   2.869
38684W        W 7157  19.626  35.875   0.961
38685W        W 7158  10.153  40.537  11.942
38686W        W 7159  19.165   2.894  12.562
38687W        W 7160  11.686  43.437  13.903
38688W        W 7161  18.638  13.151  11.096
38689W        W 7162  33.493   5.303  10.086
38690W        W 7163  38.013  29.573   1.768
38691W        W 7164  38.932  15.594   4.233
38692W        W 7165   6.272   9.766  13.906
38693W        W 7166  18.146  14.143   2.686
38694W        W 7167  28.664  17.599   3.150
38695W        W 7168  34.547  27.154  11.487
38696W        W 7169  43.805  13.845  12.529
38697W        W 7170   7.837  31.437   0.775
38698W        W 7171  34.572  17.153   2.810
38699W        W 7172  16.288  33.971  14.858
38700W        W 7173   2.956  26.485  11.508
38701W        W 7174  41.367  24.137  14.351
38702W        W 7175  39.468  24.128  13.490
38703W        W 7176   9.890  33.527   4.240
38704W        W 7177  24.052  21.533   3.304
38705W        W 7178   7.407  39.836  13.360
38706W        W 7179  25.164   9.271  12.385
38707W        W 7180  18.153  38.839  14.307
38708W        W 7181  28.054  19.147  10.982
38709W        W 7182   1.935  26.604  13.852
38710W        W 7183  37.926  43.844  14.013
38711W        W 7184  11.324   9.344  13.966
38712W        W 7185  26.178  43.834   4.313
38713W        W 7186  24.501  10.842   4.640
38714W        W 7187  25.962   4.875  13.355
38715W        W 7188  14.730  28.467   1.732
38716W        W 7189  26.481  32.393   0.384
38717W        W 7190  25.070  28.041   2.678
38718W        W 7191  20.766  12.851  12.394
38719W        W 7192  13.177  29.488  11.086
38720W        W 7193  22.072  34.025  11.010
38721W        W 7194  37.081  34.396   4.127
38722W        W 7195  14.705  35.093  13.854
38723W        W 7196   5.859  17.278  10.990
38724W        W 7197  35.453   3.304   2.405
38725W        W 7198  14.112  44.465   3.239
38726W        W 7199  34.904  26.086  14.311
38727W        W 7200  33.475  16.807   3.686
38728W        W 7201  16.184  26.617  13.389
38729W        W 7202  39.864  32.570  11.928
38730W        W 7203  39.498  37.477  12.932
38731W        W 7204   0.254  24.482  12.468
38732W        W 7205  38.852   3.912  10.563
38733W        W 7206  44.292   8.371   0.386
38734W        W 7207  27.452  26.634  11.906
38735W        W 7208  39.429  39.972   4.211
38736W        W 7209   3.785  25.523  14.792
38737W        W 7210   6.729  14.199  10.413
38738W        W 7211   9.744  27.568  14.002
38739W        W 7212  34.908  21.686   4.244
38740W        W 7213  10.139  13.284  11.395
38741W        W 7214  25.645  43.776   3.700
38742W        W 7215  17.076  32.943  12.864
38743W        W 7216  25.974  31.035  10.631
38744W        W 7217  34.893  34.959  10.907
38745W        W 7218  28.996  27.446   0.782
38746W        W 7219  25.992  29.538   2.212
38747W        W 7220  36.374  33.018   3.304
38748W        W 7221  34.002   8.194   1.922
38749W        W 7222   2.432  18.294  11.051
38750W        W 7223  38.041  16.748   1.367
38751W        W 7224  32.626   5.382   1.233
38752W        W 7225  38.837  15.673   0.460
38753W        W 7226  42.434  10.167  13.941
38754W        W 7227  17.267  36.547  13.894
38755W        W 7228   2.311   7.224  10.574
38756W        W 7229  20.074  10.167  10.437
38757W        W 7230   1.814  20.105  14.463
38758W        W 7231  19.102  34.585   2.818
38759W        W 7232  44.983  16.272  12.557
38760W        W 7233   1.252  40.373   0.776
38761W        W 7234  17.694  14.235   4.815
38762W        W 7235  11.129  20.743  14.498
38763W        W 7236  13.804  24.210  11.889
38764W        W 7237  10.242  15.629   0.353
38765W        W 7238   8.799   5.265   0.395
38766W        W 7239  30.081   7.178  12.829
38767W        W 7240  39.945  40.389   1.698
38768W        W 7241  35.599  23.577   3.764
38769W        W 7242  29.160   1.438  10.518
38770W        W 7243  40.966  44.789   2.851
38771W        W 7244  20.132  31.950  14.406
38772W        W 7245  20.201  21.610   2.303
38773W        W 7246  36.963  28.468   1.767
38774W        W 7247  33.028  36.037   0.846
38775W        W 7248  38.515  15.779  11.592
38776W        W 7249   2.850   4.836   1.321
38777W        W 7250  42.477  38.977   3.686
38778W        W 7251  25.490  12.237  14.436
38779W        W 7252   9.840  18.604   4.125
38780W        W 7253  21.686  24.005  11.867
38781W        W 7254  13.802   6.757  12.894
38782W        W 7255  13.775   7.249  10.482
38783W        W 7256  42.797  24.676   2.411
38784W        W 7257  38.948  39.868  13.435
38785W        W 7258  32.446  33.052   4.196
38786W        W 7259  34.413   1.889   4.761
38787W        W 7260  41.854   5.917  13.455
38788W        W 7261  41.859  25.524  12.845
38789W        W 7262  14.691   9.830  14.789
38790W        W 7263  23.667  33.097  12.852
38791W        W 7264  12.682  20.040   1.778
38792W        W 7265  16.769  11.673  12.410
38793W        W 7266  33.509  36.357  11.497
38794W        W 7267   1.265  26.497  13.453
38795W        W 7268  18.060  22.088   2.864
38796W        W 7269  32.535  27.630   1.897
38797W        W 7270   9.819  25.657  11.502
38798W        W 7271  25.108  33.587   3.855
38799W        W 7272  33.417  15.167  12.091
38800W        W 7273  37.568   3.898  13.020
38801W        W 7274  21.561   2.460  13.468
38802W        W 7275  40.430  23.664   3.828
38803W        W 7276   6.916  37.050   2.801
38804W        W 7277  26.047  42.825   2.274
38805W        W 7278  25.174  37.956  11.944
38806W        W 7279  20.619  21.247  13.382
38807W        W 7280   8.872  11.622  13.919
38808W        W 7281  42.777  27.159   3.352
38809W        W 7282   8.666  33.974  12.493
38810W        W 7283  44.451  16.164  10.039
38811W        W 7284  29.587   9.686   4.326
38812W        W 7285   9.174  44.262   1.909
38813W        W 7286  21.028  39.820   1.284
38814W        W 7287  19.173  37.001   4.661
38815W        W 7288  17.139  21.023  13.943
38816W        W 7289  43.316  25.469   0.866
38817W        W 7290   3.344  20.191  13.964
38818W        W 7291   5.831  20.610   1.776
38819W        W 7292  20.750  38.539   3.848
38820W        W 7293   2.746  39.816   4.605
38821W        W 7294  37.017  19.092   4.326
38822W        W 7295  15.810  39.948  14.500
38823W        W 7296  24.060  38.886   4.239
38824W        W 7297  26.497  21.723  11.099
38825W        W 7298  14.198   1.822  14.433
38826W        W 7299   3.315  15.615  10.484
38827W        W 7300  33.591  39.469   2.252
38828W        W 7301  14.770  10.725   3.756
38829W        W 7302   1.753  11.727   1.420
38830W        W 7303  42.484  39.504  14.858
38831W        W 7304  10.840  15.659  14.433
38832W        W 7305  28.616   3.786   4.335
38833W        W 7306  39.549  28.962  13.547
38834W        W 7307  30.912   2.836   4.125
38835W        W 7308   3.830   6.804   3.656
38836W        W 7309  27.500  35.598   2.663
38837W        W 7310  38.852   7.862   2.805
38838W        W 7311  12.668  17.780   0.758
38839W        W 7312  18.072  11.168   4.343
38840W        W 7313   9.343  25.581   3.268
38841W        W 7314   6.859  12.244  13.418
38842W        W 7315  32.409   0.852   2.351
38843W        W 7316  18.660  14.717   3.164
38844W        W 7317  22.685  33.987   2.287
38845W        W 7318  11.314  44.466  13.500
38846W        W 7319   4.931  26.560   1.341
38847W        W 7320  34.076  40.926   3.786
38848W        W 7321  21.227  10.838   2.681
38849W        W 7322  35.382  44.903  12.445
38850W        W 7323  42.913  37.028  13.861
38851W        W 7324  38.359  10.271   2.771
38852W        W 7325  39.499  17.088   3.337
38853W        W 7326  28.086  34.441  11.427
38854W        W 7327  40.047  12.205  10.472
38855W        W 7328  22.626  17.209   1.878
38856W        W 7329   1.858  40.847   3.654
38857W        W 7330   0.809  36.456   4.643
38858W        W 7331  38.996  26.638  12.937
38859W        W 7332   6.418  35.402  12.924
38860W        W 7333  35.957  35.536  14.864
38861W        W 7334   4.847   5.411   1.843
38862W        W 7335  33.923  36.841   4.799
38863W        W 7336  14.141  33.058   2.330
38864W        W 7337  42.849  42.879   4.748
38865W        W 7338  14.819  30.909  14.869
38866W        W 7339  39.467  30.965   2.664
38867W        W 7340   9.149  43.380   3.735
38868W        W 7341   5.920  27.945  13.048
38869W        W 7342  36.986  24.984  13.793
38870W        W 7343  42.298  24.630  12.392
38871W        W 7344  16.634   3.383   4.718
38872W        W 7345  16.146  29.580   0.247
38873W        W 7346  34.879  16.233  12.382
38874W        W 7347  26.972  32.579   1.760
38875W        W 7348  11.783  10.851  10.133
38876W        W 7349   6.263  12.661   0.748
38877W        W 7350  32.508  42.938   3.659
38878W        W 7351  13.147  28.175   2.686
38879W        W 7352  36.390   9.265  12.849
38880W        W 7353  19.645  36.473  11.500
38881W        W 7354  14.297  44.923  11.856
38882W        W 7355  16.675   4.870   3.758
38883W        W 7356  14.662  14.774  14.340
38884W        W 7357  33.013  20.605   1.854
38885W        W 7358  19.088  28.970  14.468
38886W        W 7359  15.138   5.402  10.623
38887W        W 7360  29.040  11.718   1.873
38888W        W 7361  36.355   8.312   2.381
38889W        W 7362  27.045  38.521   3.276
38890W        W 7363  26.673  27.501  11.005
38891W        W 7364  32.088  18.172  11.398
38892W        W 7365  24.157  21.098  14.839
38893W        W 7366  13.650  20.541   0.765
38894W        W 7367  25.187  29.470   2.398
38895W        W 7368  36.948   8.853   0.884
38896W        W 7369  13.167   2.738   3.371
38897W        W 7370  30.494   6.251   3.759
38898W        W 7371  35.557  16.585  13.917
38899W        W 7372  17.294  30.635   1.834
38900W        W 7373  18.578  40.867  11.548
38901W        W 7374  15.108  41.822  12.461
38902W        W 7375  38.070  40.818   0.807
38903W        W 7376  15.816   8.869  11.886
38904W        W 7377  16.193  37.457   5.107
38905W        W 7378   2.325  33.110   1.313
38906W        W 7379  42.303   7.685   1.407
38907W        W 7380  20.545  17.788  14.387
38908W        W 7381  44.814  18.146  11.568
38909W        W 7382  40.437  40.993  14.880
38910W        W 7383  29.148  44.260   3.330
38911W        W 7384  19.688   8.182   2.871
38912W        W 7385  18.074  12.637   3.713
38913W        W 7386  12.182  18.552   4.635
38914W        W 7387  15.671  16.806  10.137
38915W        W 7388   2.790  27.491  11.993
38916W        W 7389   8.187  44.901   1.390
38917W        W 7390   9.696  26.630   9.925
38918W        W 7391   7.344  44.380   2.875
38919W        W 7392   9.351  24.058  12.959
38920W        W 7393  14.184  32.109   1.719
38921W        W 7394  37.358  16.195  12.502
38922W        W 7395   1.912  27.560  12.489
38923W        W 7396  31.500  20.699   2.339
38924W        W 7397   7.849  30.442  13.473
38925W        W 7398  19.754  33.909   2.393
38926W        W 7399  17.672  34.948   4.643
38927W        W 7400  14.716  40.437  11.032
38928W        W 7401  44.934  36.916   2.252
38929W        W 7402  21.095   9.168  11.126
38930W        W 7403   3.834  31.945  14.915
38931W        W 7404  11.187  23.719  11.066
38932W        W 7405  23.141  43.910  12.002
38933W        W 7406   9.150  20.194  13.920
38934W        W 7407   7.739  27.623   4.166
38935W        W 7408  38.067  38.007   2.218
38936W        W 7409   7.191  10.636  10.472
38937W        W 7410  26.688  26.023   1.703
38938W        W 7411   9.657  18.643   1.252
38939W        W 7412   2.880  15.272   4.325
38940W        W 7413  15.304  32.541  11.115
38941W        W 7414  41.484   0.885   1.926
38942W        W 7415   2.723  21.687  11.478
38943W        W 7416  27.623  35.078   0.383
38944W        W 7417  14.700  33.051   4.661
38945W        W 7418  38.515   6.858  14.376
38946W        W 7419  23.065   1.307   4.115
38947W        W 7420  39.477  34.548   1.895
38948W        W 7421  29.667   4.853  10.104
38949W        W 7422  40.016  35.015  10.629
38950W        W 7423  37.041  18.222   2.853
38951W        W 7424  18.160  40.991  11.404
38952W        W 7425  28.452  32.441   1.287
38953W        W 7426  27.060   9.807   2.854
38954W        W 7427  11.247   8.228  10.494
38955W        W 7428   1.833  14.285  10.576
38956W        W 7429  12.646   1.346  14.967
38957W        W 7430  17.732  26.093  10.405
38958W        W 7431   4.223  40.489   2.863
38959W        W 7432  34.904  28.638  13.334
38960W        W 7433   3.229  24.583  13.896
38961W        W 7434  36.863   0.349  12.944
38962W        W 7435  23.567  21.646  10.523
38963W        W 7436  32.926  15.265   4.199
38964W        W 7437  38.505  15.582  10.595
38965W        W 7438  12.246  18.131  10.529
38966W        W 7439   8.186  27.120   2.691
38967W        W 7440  34.091  43.292   4.663
38968W        W 7441  16.153  28.026  10.159
38969W        W 7442   4.290   8.804   4.715
38970W        W 7443  24.184  26.598   5.093
38971W        W 7444   6.273  11.779  12.462
38972W        W 7445  33.966  23.490   3.682
38973W        W 7446  34.891   0.934  11.498
38974W        W 7447   9.259  23.032  14.491
38975W        W 7448  31.453  25.001  14.958
38976W        W 7449   8.869  43.512   1.250
38977W        W 7450  27.446  35.041  14.316
38978W        W 7451  20.208  13.139   1.448
38979W        W 7452  19.236  31.620  14.852
38980W        W 7453  38.344  36.442   4.255
38981W        W 7454   4.843  22.245   0.826
38982W        W 7455  43.764   9.754   0.916
38983W        W 7456   3.898  41.949  11.906
38984W        W 7457  24.170  43.878  10.415
38985W        W 7458  25.030  34.911  13.921
38986W        W 7459  38.532   0.450   1.334
38987W        W 7460  42.013   2.840   1.922
38988W        W 7461  36.362  44.358  10.516
38989W        W 7462  22.513  41.827  11.413
38990W        W 7463  39.954  14.225   3.267
38991W        W 7464   8.318  33.113   1.778
38992W        W 7465  27.447   7.229   1.772
38993W        W 7466   5.217  32.077   5.120
38994W        W 7467  43.371   1.242   1.743
38995W        W 7468  16.271   6.848  14.011
38996W        W 7469  21.205  17.241  14.764
38997W        W 7470   6.365  13.149  13.824
38998W        W 7471   8.373   4.425  13.915
38999W        W 7472  16.715  18.082   3.800
39000W        W 7473  28.673  44.871  11.402
39001W        W 7474   9.246  21.217  13.313
39002W        W 7475  40.969   8.325   4.142
39003W        W 7476  24.527  31.045   1.858
39004W        W 7477  41.454  27.027   4.699
39005W        W 7478   1.764  35.104   1.725
39006W        W 7479  10.376  39.837   0.774
39007W        W 7480  14.743  15.770   9.997
39008W        W 7481  12.681  14.645  12.952
39009W        W 7482   4.249  11.154   3.758
39010W        W 7483  25.495   6.387   2.717
39011W        W 7484  15.100  35.919  13.460
39012W        W 7485  39.349   0.955  12.578
39013W        W 7486  23.039  44.347  13.455
39014W        W 7487   2.776  32.423   1.335
39015W        W 7488  40.808   6.778   3.241
39016W        W 7489  16.582  15.628  14.510
39017W        W 7490  40.374   8.185   1.352
39018W        W 7491  27.070  16.198   3.742
39019W        W 7492  15.188  38.850   9.961
39020W        W 7493  31.062  36.499   4.132
39021W        W 7494  39.517  34.601   4.723
39022W        W 7495  10.176  25.132  11.570
39023W        W 7496  41.866  41.529   0.954
39024W        W 7497  35.587  33.568   1.291
39025W        W 7498  20.732   3.728  14.976
39026W        W 7499  24.536  29.011   3.683
39027W        W 7500  18.282  33.579   4.294
39028W        W 7501  28.992  33.006  14.906
39029W        W 7502   7.685  43.312   2.351
39030W        W 7503   3.274   7.839   3.191
39031W        W 7504  32.417  21.053  10.586
39032W        W 7505  30.013   2.806   3.702
39033W        W 7506  36.355  38.345   4.176
39034W        W 7507  35.064  35.900   3.354
39035W        W 7508  38.384   4.918   3.345
39036W        W 7509  29.560  15.285  13.441
39037W        W 7510  37.441   6.766  11.558
39038W        W 7511  29.455  33.877   4.832
39039W        W 7512  33.393  32.408  13.358
39040W        W 7513  24.723  22.052   3.741
39041W        W 7514   2.888  34.514   0.799
39042W        W 7515  19.066  40.003   1.773
39043W        W 7516  36.871  42.487  10.636
39044W        W 7517  15.310  43.924   0.860
39045W        W 7518  12.665  28.674  12.899
39046W        W 7519   7.338  20.161   0.831
39047W        W 7520   0.294  24.601   3.690
39048W        W 7521  21.085  39.917  11.930
39049W        W 7522  23.611  41.511   1.351
39050W        W 7523  38.476  20.088   0.869
39051W        W 7524   3.903  23.549   0.948
39052W        W 7525  31.915  22.746   2.664
39053W        W 7526   6.333  31.500   1.902
39054W        W 7527   3.318   8.810  11.516
39055W        W 7528  16.289  38.989  13.501
39056W        W 7529  30.999   9.878   0.431
39057W        W 7530  17.610  41.305   4.783
39058W        W 7531  13.237  41.485   1.422
39059W        W 7532  37.460  15.099  10.515
39060W        W 7533  44.945  39.905   2.348
39061W        W 7534   0.251  44.460  10.019
39062W        W 7535  24.646   2.845   1.745
39063W        W 7536  25.024  43.864  11.550
39064W        W 7537   1.396  19.209   4.659
39065W        W 7538  34.444  43.436  13.045
39066W        W 7539  37.368  44.987  10.968
39067W        W 7540  20.167  35.494  14.803
39068W        W 7541   2.951  27.103  11.915
39069W        W 7542  35.449  20.110  10.443
39070W        W 7543  15.132  37.563   0.308
39071W        W 7544   3.929  40.478  14.459
39072W        W 7545  28.654  40.827   2.400
39073W        W 7546  22.246  11.744   3.221
39074W        W 7547  11.832  14.188  11.940
39075W        W 7548  10.678  24.053  14.771
39076W        W 7549  33.126  12.291   4.327
39077W        W 7550  33.013  30.560   1.221
39078W        W 7551  19.571  24.602   0.842
39079W        W 7552  16.142  10.377  13.543
39080W        W 7553  32.115  34.088  14.352
39081W        W 7554   1.815  36.892  13.450
39082W        W 7555  37.575  32.425   4.823
39083W        W 7556   0.250  31.037  13.986
39084W        W 7557   6.237  26.951   0.781
39085W        W 7558   5.312  21.127  10.519
39086W        W 7559  14.676  12.667   4.189
39087W        W 7560   9.395   2.294   0.872
39088W        W 7561  21.101  34.539   0.333
39089W        W 7562   2.927  14.611   1.891
39090W        W 7563  36.523  10.709  10.545
39091W        W 7564   9.783  32.097  12.024
39092W        W 7565  30.154  35.993  10.639
39093W        W 7566  11.360  39.888  14.995
39094W        W 7567  25.128  36.521   1.908
39095W        W 7568  27.498  26.067   1.778
39096W        W 7569   9.183  13.844  14.486
39097W        W 7570  38.825  19.728   5.292
39098W        W 7571  33.990  18.290  11.535
39099W        W 7572  39.405   7.413   0.383
39100W        W 7573  39.851  18.115   4.220
39101W        W 7574  38.854  14.685  14.358
39102W        W 7575  39.385  23.130   2.397
39103W        W 7576  33.088  12.262   0.281
39104W        W 7577  19.190  29.530   2.768
39105W        W 7578  42.475   8.387   0.466
39106W        W 7579  23.100  39.339   1.236
39107W        W 7580  34.549  15.773  14.029
39108W        W 7581  31.067  42.441   0.853
39109W        W 7582  27.496   6.753   2.804
39110W        W 7583  22.999  34.469  13.796
39111W        W 7584  38.997   2.932  14.846
39112W        W 7585   0.374  17.205  10.532
39113W        W 7586   9.149  26.968  12.508
39114W        W 7587  25.151  24.149   0.434
39115W        W 7588  38.520  25.545   3.785
39116W        W 7589  35.555  30.148   0.803
39117W        W 7590  43.504  17.711  12.401
39118W        W 7591  33.082  20.201   2.239
39119W        W 7592  16.702  27.074   4.676
39120W        W 7593  41.813  20.669   2.711
39121W        W 7594   5.777  21.511   1.827
39122W        W 7595  32.460  24.488  14.874
39123W        W 7596   9.174  39.870   3.862
39124W        W 7597   9.872  25.059  10.417
39125W        W 7598  25.704  40.039   4.789
39126W        W 7599  43.476  23.597   0.307
39127W        W 7600  19.543   5.706   9.922
39128W        W 7601  31.620  33.425   0.952
39129W        W 7602  19.156  41.523   3.839
39130W        W 7603  12.815  30.610  13.342
39131W        W 7604  29.493  24.134   0.816
39132W        W 7605  40.950   2.436  12.995
39133W        W 7606   4.381  43.390   0.413
39134W        W 7607  22.592  40.540  10.508
39135W        W 7608   8.698  16.160  14.966
39136W        W 7609  11.631  21.170   5.157
39137W        W 7610  23.517  31.602  12.990
39138W        W 7611  12.305   6.332   2.706
39139W        W 7612  31.492  30.930  10.952
39140W        W 7613  35.036  14.804  14.314
39141W        W 7614  12.678  23.584   0.370
39142W        W 7615  36.591  20.224  10.484
39143W        W 7616  43.511  10.380   1.724
39144W        W 7617  34.962  35.604   1.822
39145W        W 7618  22.742  10.804  11.995
39146W        W 7619  33.948  31.472  13.424
39147W        W 7620  39.948  21.148  10.962
39148W        W 7621  12.754  28.616  11.875
39149W        W 7622  18.689   2.421  14.856
39150W        W 7623  35.050  36.468   3.824
39151W        W 7624  28.070  36.482   2.760
39152W        W 7625  11.679  36.092  11.988
39153W        W 7626  25.520  22.244  11.584
39154W        W 7627  15.272  39.836   3.303
39155W        W 7628  18.565  24.071  13.443
39156W        W 7629  23.711   7.303  12.876
39157W        W 7630  35.573  27.675  12.456
39158W        W 7631  21.183  40.814  11.105
39159W        W 7632   0.491  44.349  12.010
39160W        W 7633  24.615   3.780   1.785
39161W        W 7634   2.226  41.537  11.915
39162W        W 7635  13.736   6.408   3.822
39163W        W 7636  41.828  12.345  14.380
39164W        W 7637   6.255  33.070  14.853
39165W        W 7638  38.426   0.854  11.095
39166W        W 7639   5.780   1.852  12.479
39167W        W 7640  37.038   2.852  13.949
39168W        W 7641  19.694  33.983   1.870
39169W        W 7642  28.980  17.114   2.185
39170W        W 7643  12.186  26.180  10.925
39171W        W 7644  33.553  31.102  13.940
39172W        W 7645  34.578  43.003  10.958
39173W        W 7646   9.730   4.319  11.437
39174W        W 7647  14.192  24.584   3.162
39175W        W 7648   4.934  23.044  12.527
39176W        W 7649  11.273  16.145  13.492
39177W        W 7650  35.952  33.967  14.866
39178W        W 7651  11.662  11.713   3.701
39179W        W 7652  11.662  38.932  12.570
39180W        W 7653  17.796  36.914  13.004
39181W        W 7654  24.602  32.937   4.199
39182W        W 7655  33.450  34.582   3.179
39183W        W 7656  16.712  26.517   4.193
39184W        W 7657   8.210  10.777   3.364
39185W        W 7658  30.020  20.251   1.230
39186W        W 7659  25.122  39.352  10.443
39187W        W 7660  33.501  34.406  14.019
39188W        W 7661   1.791   8.349  13.028
39189W        W 7662  28.614  23.546  12.487
39190W        W 7663  26.104  44.492   4.229
39191W        W 7664  36.086  27.054  12.833
39192W        W 7665  42.899  43.291  14.797
39193W        W 7666   2.285  10.263  14.356
39194W        W 7667  13.131   2.894  11.002
39195W        W 7668   8.265  36.005   3.213
39196W        W 7669  16.696  14.294  13.540
39197W        W 7670  33.569  36.876  12.557
39198W        W 7671   1.301  36.428   2.277
39199W        W 7672  40.335  11.326   4.834
39200W        W 7673  41.855  12.793   4.655
39201W        W 7674  12.618  16.114   3.326
39202W        W 7675  13.315  16.145   4.234
39203W        W 7676  15.721  23.168  11.014
39204W        W 7677  12.695  22.524   3.658
39205W        W 7678  34.915   8.841   3.659
39206W        W 7679  26.458  23.208   2.201
39207W        W 7680   9.248  27.450  12.840
39208W        W 7681  44.429   6.722  14.282
39209W        W 7682  31.494   0.864  11.044
39210W        W 7683  16.139  31.014  13.315
39211W        W 7684   3.947  35.996   4.767
39212W        W 7685  13.680  24.653   1.832
39213W        W 7686  36.894   6.331   1.704
39214W        W 7687  12.644  17.063   0.347
39215W        W 7688  18.690  42.403  13.880
39216W        W 7689  26.053  44.931  14.347
39217W        W 7690  15.210  40.459  12.848
39218W        W 7691  36.975   8.375   1.346
39219W        W 7692  26.984  32.890  14.391
39220W        W 7693  30.091  25.156   4.612
39221W        W 7694   5.380  39.884   1.274
39222W        W 7695  35.095   7.333   5.126
39223W        W 7696   6.705  30.459  12.578
39224W        W 7697  13.303  36.998   4.322
39225W        W 7698   2.367  21.104  11.090
39226W        W 7699  23.082  22.640   1.276
39227W        W 7700   1.341   6.683  11.941
39228W        W 7701  26.581   3.312  13.042
39229W        W 7702  17.682   4.228   4.211
39230W        W 7703   0.975   8.395   2.392
39231W        W 7704  22.209   6.745  12.090
39232W        W 7705  21.218  37.565  12.886
39233W        W 7706   6.756  18.557   2.242
39234W        W 7707  37.031   6.916   4.754
39235W        W 7708  37.550  41.435  13.894
39236W        W 7709   3.425   9.659   2.330
39237W        W 7710   6.351   7.374   3.213
39238W        W 7711  25.662  21.089   4.760
39239W        W 7712  27.136  30.138  14.766
39240W        W 7713  31.578  15.190   3.344
39241W        W 7714  10.810  17.070   0.454
39242W        W 7715  25.506  14.147   2.349
39243W        W 7716  25.081  16.578  11.423
39244W        W 7717  12.246  23.232  14.275
39245W        W 7718  32.395  12.189  13.803
39246W        W 7719  29.983  10.256   4.742
39247W        W 7720  19.082  12.851  11.002
39248W        W 7721  42.340  39.519  13.894
39249W        W 7722  35.928  39.832  13.497
39250W        W 7723  22.199  20.675   3.307
39251W        W 7724  21.144  40.307  13.368
39252W        W 7725  14.106  35.879   1.342
39253W        W 7726   1.330  24.606   1.763
39254W        W 7727   7.403  39.949  10.551
39255W        W 7728  37.526   4.267   2.804
39256W        W 7729  31.479  14.795   4.303
39257W        W 7730  17.658  34.466   2.413
39258W        W 7731  33.426   9.336  10.575
39259W        W 7732  10.706   9.861  10.915
39260W        W 7733  38.872   7.229   3.741
39261W        W 7734   7.360  40.460   0.270
39262W        W 7735  23.096  15.753   4.156
39263W        W 7736  36.064  38.931   0.388
39264W        W 7737   7.692  28.161  11.024
39265W        W 7738   8.221  23.163   5.315
39266W        W 7739  38.075  17.273   4.610
39267W        W 7740  15.260  17.770   1.423
39268W        W 7741  35.044   5.934   4.305
39269W        W 7742   3.375  36.863  10.491
39270W        W 7743  21.747  15.095  12.875
39271W        W 7744  19.577  28.973   1.254
39272W        W 7745  40.351  28.984  10.527
39273W        W 7746  29.105   7.777   3.358
39274W        W 7747  43.484  31.493  12.006
39275W        W 7748  13.128  39.812  14.791
39276W        W 7749  36.349  17.789  14.449
39277W        W 7750   0.475  42.815   0.408
39278W        W 7751   2.805  19.179   4.621
39279W        W 7752  24.154  32.127   2.251
39280W        W 7753  43.838  19.627   3.224
39281W        W 7754  20.648   4.343   3.731
39282W        W 7755   4.425   5.739   0.933
39283W        W 7756  35.868  21.070   4.816
39284W        W 7757  21.677  32.060   0.363
39285W        W 7758  40.987   7.813   4.789
39286W        W 7759  22.716  21.587   0.424
39287W        W 7760  28.499  19.151   1.767
39288W        W 7761  24.131  36.085  11.899
39289W        W 7762   0.906  32.527   3.369
39290W        W 7763  12.208  35.099   4.768
39291W        W 7764  34.898  27.518   4.136
39292W        W 7765  17.582  27.142   2.753
39293W        W 7766  35.992  32.081  11.881
39294W        W 7767  14.128  32.064  12.391
39295W        W 7768  37.338   4.870  10.531
39296W        W 7769  21.554   2.886  13.044
39297W        W 7770  29.015  18.672   4.609
39298W        W 7771  29.478  42.856  13.321
39299W        W 7772  42.923  34.409   4.818
39300W        W 7773  32.906   4.280  11.609
39301W        W 7774  19.732  23.094  13.520
39302W        W 7775  21.032  44.260   1.880
39303W        W 7776  21.028  18.560   2.883
39304W        W 7777   8.824  19.546   0.264
39305W        W 7778  26.570  15.646   3.671
39306W        W 7779  25.487  16.591  14.026
39307W        W 7780  23.200  42.789  11.599
39308W        W 7781  43.008  25.473  12.915
39309W        W 7782  43.389  14.754   1.852
39310W        W 7783  35.422  37.433   4.156
39311W        W 7784  10.350   0.282   4.720
39312W        W 7785  32.461  11.676  12.507
39313W        W 7786  20.132   9.695   3.829
39314W        W 7787  28.503  27.996  14.940
39315W        W 7788   1.860  17.796  11.523
39316W        W 7789  44.761  25.564   1.935
39317W        W 7790  12.713  27.531   3.184
39318W        W 7791  37.574  42.797   3.195
39319W        W 7792  23.024  22.052   2.753
39320W        W 7793  26.500  14.183  13.915
39321W        W 7794  32.576  39.810   1.774
39322W        W 7795  26.627  30.555  12.998
39323W        W 7796  44.397  26.576   4.334
39324W        W 7797  25.705  30.027   4.203
39325W        W 7798  20.597  43.977  13.796
39326W        W 7799  34.408  13.754  14.457
39327W        W 7800  43.436  11.736   2.755
39328W        W 7801  10.351  14.103  12.897
39329W        W 7802   3.939  11.803  12.371
39330W        W 7803  10.701  25.111   3.197
39331W        W 7804  29.034  17.094   2.794
39332W        W 7805  26.536  26.176  13.973
39333W        W 7806  35.557  32.951  13.904
39334W        W 7807  16.702  43.425  14.854
39335W        W 7808  39.830   9.331   1.711
39336W        W 7809   3.709  32.436  11.438
39337W        W 7810  15.772  19.742  13.835
39338W        W 7811  41.441  22.139   0.481
39339W        W 7812  27.628   3.276   4.253
39340W        W 7813  26.696   3.408  14.812
39341W        W 7814  32.976   7.694  12.447
39342W        W 7815  17.068   3.838  10.480
39343W        W 7816  36.943  23.081  12.095
39344W        W 7817  18.216  19.582  11.378
39345W        W 7818  28.597  23.720   4.242
39346W        W 7819  23.132  21.028   1.846
39347W        W 7820   5.224   1.394   2.366
39348W        W 7821  26.637   4.291   4.202
39349W        W 7822  43.361  13.182   0.440
39350W        W 7823  15.780  41.522  11.610
39351W        W 7824  41.901  21.719   3.170
39352W        W 7825  39.459  39.435  12.842
39353W        W 7826  40.420  26.987   4.838
39354W        W 7827  10.803  33.112   4.161
39355W        W 7828  41.012  13.743  13.880
39356W        W 7829  18.700   6.772  14.339
39357W        W 7830  43.509  33.040  14.784
39358W        W 7831   9.843  28.034   2.287
39359W        W 7832  17.703   5.835  11.877
39360W        W 7833  32.553  23.082   1.790
39361W        W 7834  21.596  36.361   1.795
39362W        W 7835  39.558  31.110   2.323
39363W        W 7836  32.506   0.764  14.342
39364W        W 7837  16.093  44.263   3.207
39365W        W 7838  36.844  43.270  13.480
39366W        W 7839  10.342  15.325  10.461
39367W        W 7840   4.715  33.434   3.768
39368W        W 7841  26.000  36.467  12.084
39369W        W 7842  32.556  34.479   0.432
39370W        W 7843  40.371  43.969   0.921
39371W        W 7844  25.471   3.719   1.849
39372W        W 7845  18.235  22.075   0.249
39373W        W 7846  25.475  38.965  11.430
39374W        W 7847  13.232  35.363  14.901
39375W        W 7848  35.991   2.247   3.782
39376W        W 7849  42.293  29.496   0.357
39377W        W 7850   1.868  10.818  10.482
39378W        W 7851  18.553  35.412  11.440
39379W        W 7852   9.293  28.008   0.342
39380W        W 7853  43.346  14.297   3.762
39381W        W 7854  25.028   5.241   2.718
39382W        W 7855  32.944   6.721  12.562
39383W        W 7856   6.691   0.469   3.197
39384W        W 7857  35.976  14.695   4.347
39385W        W 7858  39.537  18.677  14.792
39386W        W 7859  11.730  27.982   4.225
39387W        W 7860  42.287   6.826  11.104
39388W        W 7861   4.702  43.810  14.963
39389W        W 7862  12.241   2.390   3.224
39390W        W 7863   5.710  44.276  10.420
39391W        W 7864   9.859  41.005   3.683
39392W        W 7865  19.239  37.830   2.792
39393W        W 7866  13.304  32.058  11.925
39394W        W 7867  17.210  28.474  13.418
39395W        W 7868  27.038  38.416  10.502
39396W        W 7869  28.623  33.562  10.144
39397W        W 7870  24.011   7.220   1.759
39398W        W 7871  37.901   1.254  13.465
39399W        W 7872  13.751   5.905   2.821
39400W        W 7873   7.891  33.076  13.000
39401W        W 7874   0.952  26.594  10.579
39402W        W 7875  14.158  38.035   5.294
39403W        W 7876  16.129  24.139  11.892
39404W        W 7877  13.276  34.028   1.430
39405W        W 7878  35.923  13.285   2.380
39406W        W 7879  32.413  33.909  10.974
39407W        W 7880  33.046  26.961   4.781
39408W        W 7881  30.582  38.434  11.983
39409W        W 7882  11.651  38.379  11.910
39410W        W 7883   3.722  19.130  10.586
39411W        W 7884  15.797   9.218   1.838
39412W        W 7885  32.889  13.784  10.935
39413W        W 7886  21.106  32.915   3.266
39414W        W 7887  20.221  20.247   3.369
39415W        W 7888  40.487  25.037  14.283
39416W        W 7889  26.500  40.366   5.316
39417W        W 7890  12.731  28.953   0.930
39418W        W 7891  37.569  22.524   0.757
39419W        W 7892  30.452  33.125   2.413
39420W        W 7893  37.346  22.710  14.413
39421W        W 7894   1.803   9.187   0.343
39422W        W 7895  27.964  39.925   3.630
39423W        W 7896   6.810  32.479  11.501
39424W        W 7897  41.970  12.755  11.456
39425W        W 7898  28.001   1.355   3.324
39426W        W 7899  32.075  28.140   1.827
39427W        W 7900  32.959  22.199   1.448
39428W        W 7901  21.159  31.568   0.332
39429W        W 7902   8.728  37.579   4.269
39430W        W 7903  11.702  11.809  13.365
39431W        W 7904  17.187  39.884   5.318
39432W        W 7905  34.375  29.645  13.545
39433W        W 7906  21.065   2.760   1.339
39434W        W 7907  10.159  28.962   0.819
39435W        W 7908  39.037  14.829   1.300
39436W        W 7909  34.570  37.564  14.274
39437W        W 7910  44.984   1.393   2.770
39438W        W 7911  27.686   4.770  13.065
39439W        W 7912  26.585   3.444   4.703
39440W        W 7913   1.769  29.007   3.254
39441W        W 7914   7.203  16.306  10.436
39442W        W 7915   2.255  40.355   5.185
39443W        W 7916  20.655  44.835   4.631
39444W        W 7917   5.787   7.873   0.837
39445W        W 7918  31.591  30.008  10.976
39446W        W 7919  17.087   4.755   4.218
39447W        W 7920  31.151  17.633  13.846
39448W        W 7921   3.856  19.692   1.286
39449W        W 7922  30.495  27.597   0.320
39450W        W 7923   0.413  43.484   1.748
39451W        W 7924  32.585  43.896   9.923
39452W        W 7925  24.168  19.215   3.269
39453W        W 7926  15.319  17.232   1.440
39454W        W 7927  42.785  31.538   2.685
39455W        W 7928  10.769  35.059   4.285
39456W        W 7929  33.910  36.056   4.725
39457W        W 7930   7.259  36.430  12.910
39458W        W 7931  33.047  14.816  13.032
39459W        W 7932  27.543  24.022   4.655
39460W        W 7933  12.721   2.353  14.908
39461W        W 7934   0.290  14.269  11.036
39462W        W 7935  31.512  27.578   1.229
39463W        W 7936   9.179  44.889   0.836
39464W        W 7937  16.632  18.106   0.795
39465W        W 7938   7.738  33.607  13.826
39466W        W 7939  39.893   2.933   3.867
39467W        W 7940  14.668   1.932  14.287
39468W        W 7941  38.911  14.234  14.929
39469W        W 7942  40.975  16.272  14.894
39470W        W 7943   2.403  35.109   4.218
39471W        W 7944  33.418  12.651   9.933
39472W        W 7945   7.865  32.107   2.212
39473W        W 7946   8.894  16.225  12.434
39474W        W 7947   3.316  29.615   4.312
39475W        W 7948  22.017  35.485  10.532
39476W        W 7949  12.197  21.129   4.195
39477W        W 7950  44.822   5.382   3.787
39478W        W 7951  12.325  12.347   0.294
39479W        W 7952  34.078  12.691  14.875
39480W        W 7953  19.685  36.844   1.807
39481W        W 7954  16.743  27.998   3.248
39482W        W 7955  11.647  35.536  13.441
39483W        W 7956  35.901  31.582  14.915
39484W        W 7957  31.450  38.417  13.009
39485W        W 7958   1.259   8.820   0.896
39486W        W 7959  17.728  18.169   2.729
39487W        W 7960   0.767  32.953   4.812
39488W        W 7961   8.343  21.230  10.567
39489W        W 7962  26.976  13.682  14.012
39490W        W 7963  26.024   1.428   9.976
39491W        W 7964   9.721  25.486  10.596
39492W        W 7965   2.770   9.773   1.879
39493W        W 7966  41.811   3.365   2.745
39494W        W 7967   2.434   8.708  10.090
39495W        W 7968   1.732   8.270  10.490
39496W        W 7969  41.944  32.633   0.397
39497W        W 7970  39.492  26.540  13.378
39498W        W 7971  16.256  40.948   1.775
39499W        W 7972   7.699  39.449   4.734
39500W        W 7973  23.592  27.155   2.274
39501W        W 7974  31.905  39.878   1.915
39502W        W 7975  37.869  39.931   0.787
39503W        W 7976  31.633  26.483   2.183
39504W        W 7977   4.943  42.434   5.143
39505W        W 7978  43.921  30.454   4.133
39506W        W 7979  17.146  25.995   9.982
39507W        W 7980  16.280  25.156  11.053
39508W        W 7981   7.219   0.320  13.493
39509W        W 7982  28.592  37.541   1.243
39510W        W 7983  14.312  37.358   2.829
39511W        W 7984  25.582  30.538   1.285
39512W        W 7985  42.886  34.452   2.831
39513W        W 7986   2.831  39.412  13.829
39514W        W 7987  38.456  24.154  10.952
39515W        W 7988   3.394  11.653  13.930
39516W        W 7989  29.076  11.245   1.934
39517W        W 7990  14.687  20.548  12.450
39518W        W 7991  20.254   6.763  14.962
39519W        W 7992   6.419   9.241   0.463
39520W        W 7993  44.008  10.761   4.217
39521W        W 7994  21.024  33.101   1.345
39522W        W 7995  18.225  42.856  14.814
39523W        W 7996  27.679  41.513  14.848
39524W        W 7997   5.826   3.444  12.976
39525W        W 7998  39.493  37.560   1.385
39526W        W 7999  16.579  24.109   2.204
39527W        W 8000  27.651  13.617  12.503
39528W        W 8001   0.762  10.225   4.178
39529W        W 8002  22.669   0.464   3.754
39530W        W 8003   4.720   8.208  13.058
39531W        W 8004   8.352  42.807  11.414
39532W        W 8005  21.101  11.777  14.366
39533W        W 8006  12.181  41.868   2.841
39534W        W 8007   7.848  34.890  13.052
39535W        W 8008  12.785  22.153   3.256
39536W        W 8009  38.336  32.115   2.380
39537W        W 8010  36.084  25.112   1.443
39538W        W 8011  18.608  36.435  12.076
39539W        W 8012  25.593  40.037  12.861
39540W        W 8013  23.635   9.156   0.418
39541W        W 8014  37.530  40.547  13.866
39542W        W 8015  27.479   3.449  12.934
39543W        W 8016  41.985   9.650   4.813
39544W        W 8017  19.161  10.142   3.699
39545W        W 8018   3.344  15.727   0.419
39546W        W 8019  40.956  30.591   0.458
39547W        W 8020  40.955  12.356   0.913
39548W        W 8021  28.137  33.015  13.367
39549W        W 8022  38.477  10.739  10.912
39550W        W 8023  31.992  42.515  14.426
39551W        W 8024  36.463  35.865  12.894
39552W        W 8025   6.891  34.414  12.382
39553W        W 8026  28.455  25.648   1.342
39554W        W 8027  18.077  33.993  10.582
39555W        W 8028  11.316  33.481  13.932
39556W        W 8029  39.822  16.577  14.834
39557W        W 8030   2.793   4.391  11.594
39558W        W 8031  32.404  20.142  10.966
39559W        W 8032   4.745  43.895  10.058
39560W        W 8033  34.991  19.202   2.247
39561W        W 8034  44.299  25.132   2.188
39562W        W 8035  32.409  21.628  10.528
39563W        W 8036  29.013  23.226   4.786
39564W        W 8037  13.802   8.176  14.430
39565W        W 8038  37.522   5.373   4.682
39566W        W 8039  16.200  40.923  13.846
39567W        W 8040  28.016   2.835   3.773
39568W        W 8041   7.284  26.090  13.374
39569W        W 8042  30.440  39.034  13.347
39570W        W 8043  11.844  23.643   1.728
39571W        W 8044  38.984  12.220   2.307
39572W        W 8045  22.071  16.187  14.953
39573W        W 8046   8.860  41.511   1.920
39574W        W 8047   4.444  20.523  14.766
39575W        W 8048  37.007  33.524  13.028
39576W        W 8049  19.750  11.626  13.012
39577W        W 8050  40.504  41.465   0.436
39578W        W 8051   0.983  21.685  13.886
39579W        W 8052   0.359  44.960  11.396
39580W        W 8053  37.363  36.968   2.782
39581W        W 8054   4.277  31.533  12.875
39582W        W 8055  44.777   5.277  13.925
39583W        W 8056  42.857  13.311   0.846
39584W        W 8057  25.603  12.243  11.608
39585W        W 8058  33.887  19.118   3.232
39586W        W 8059  26.561  16.168  13.393
39587W        W 8060  41.020  25.485   1.699
39588W        W 8061  22.575   2.728   3.743
39589W        W 8062  33.937  44.770   4.810
39590W        W 8063  17.114  25.138   2.814
39591W        W 8064  13.242  40.997   2.274
39592W        W 8065  12.309   8.178  12.882
39593W        W 8066  27.153   1.851   0.764
39594W        W 8067  23.550  19.125  14.770
39595W        W 8068  15.210  37.945  14.017
39596W        W 8069  28.996  30.594  14.937
39597W        W 8070  43.871  42.914   3.293
39598W        W 8071  33.928  18.170   3.249
39599W        W 8072  19.539  10.864  12.450
39600W        W 8073  39.049  15.112  10.515
39601W        W 8074   1.264  25.158  11.585
39602W        W 8075   1.479  33.099   0.247
39603W        W 8076  39.405  44.898  11.095
39604W        W 8077  20.763   5.803   4.195
39605W        W 8078  29.928   6.296   1.882
39606W        W 8079  38.885  32.991   1.265
39607W        W 8080  29.131   1.288  14.312
39608W        W 8081  15.188  20.647  11.889
39609W        W 8082  10.858  14.691   4.710
39610W        W 8083  28.046  13.632   4.226
39611W        W 8084   0.455  40.470   2.329
39612W        W 8085  16.223  27.540  12.824
39613W        W 8086   1.841  17.687   4.756
39614W        W 8087  30.431  16.807   1.896
39615W        W 8088   7.406  15.284   4.614
39616W        W 8089  22.524  19.254  11.902
39617W        W 8090  28.550   7.249   2.868
39618W        W 8091   7.184  42.474  13.837
39619W        W 8092   8.208  16.762  14.840
39620W        W 8093   6.319  17.173   4.754
39621W        W 8094  36.045   3.221   3.304
39622W        W 8095  32.086  30.422  10.003
39623W        W 8096  16.200  16.713   2.359
39624W        W 8097   4.728  38.362  10.604
39625W        W 8098  42.941   6.716   3.756
39626W        W 8099   4.252   5.849  12.955
39627W        W 8100  31.576   7.176   3.324
39628W        W 8101  42.414  13.758   4.619
39629W        W 8102  31.496  33.107  11.589
39630W        W 8103  39.506  31.999  13.525
39631W        W 8104  41.921  20.060   1.358
39632W        W 8105   3.921  27.189   0.925
39633W        W 8106  44.831  33.976   3.367
39634W        W 8107  16.666  41.816  10.425
39635W        W 8108   7.903  44.954   2.391
39636W        W 8109   1.824   4.208   1.758
39637W        W 8110  33.574  33.922  10.631
39638W        W 8111  39.880  38.486   4.761
39639W        W 8112  29.041  32.484  12.478
39640W        W 8113  19.536  38.927   3.386
39641W        W 8114   6.360  42.307  10.984
39642W        W 8115  21.583  38.845   2.253
39643W        W 8116  15.154  17.690   0.925
39644W        W 8117  16.782  38.555   0.837
39645W        W 8118   9.673  12.353   0.361
39646W        W 8119  11.751  37.533   3.680
39647W        W 8120   2.819   0.786  11.566
39648W        W 8121  33.048  20.220   0.952
39649W        W 8122  23.224  11.245   4.268
39650W        W 8123  15.709  11.309   0.777
39651W        W 8124  17.062  25.983   0.918
39652W        W 8125  19.742  19.679  13.429
39653W        W 8126  34.017   3.457  13.984
39654W        W 8127  38.882  44.365   3.211
39655W        W 8128   5.242  27.692  13.531
39656W        W 8129  35.878  13.661   0.768
39657W        W 8130  28.041  42.319  11.021
39658W        W 8131  43.826   0.875  13.521
39659W        W 8132  39.497  20.140  14.290
39660W        W 8133  24.065  20.704  14.424
39661W        W 8134  24.064   4.291   4.704
39662W        W 8135  20.713  31.082   0.894
39663W        W 8136  33.599  13.648  10.517
39664W        W 8137  43.841  13.627   4.799
39665W        W 8138  43.839  30.072  14.794
39666W        W 8139  30.561  19.665   3.866
39667W        W 8140  29.937   9.311   0.923
39668W        W 8141  25.014  13.200   5.158
39669W        W 8142   8.709  18.756  13.999
39670W        W 8143  44.802  11.201   2.351
39671W        W 8144   1.885   8.783  10.891
39672W        W 8145  14.236  41.392  12.367
39673W        W 8146  31.623  42.944  11.017
39674W        W 8147  17.306  27.079   1.216
39675W        W 8148   5.861  22.110   4.246
39676W        W 8149   4.936  41.534   1.921
39677W        W 8150  20.559   9.838   2.886
39678W        W 8151  30.986   9.233  12.478
39679W        W 8152  18.062  20.232  13.005
39680W        W 8153   8.249  34.525   2.773
39681W        W 8154   9.798  17.229   2.796
39682W        W 8155   1.351  35.075   2.334
39683W        W 8156  32.406  19.147  14.944
39684W        W 8157  32.427  18.760  12.537
39685W        W 8158   0.379  24.133   4.624
39686W        W 8159   5.732  32.094   1.222
39687W        W 8160   6.235  28.471   1.892
39688W        W 8161   4.329  25.529  13.934
39689W        W 8162  29.942   2.775  13.832
39690W        W 8163  27.965   1.876  13.542
39691W        W 8164  18.719  10.794  11.583
39692W        W 8165  14.183  16.079   1.307
39693W        W 8166   2.783  14.117  11.879
39694W        W 8167  25.624  38.050   2.367
39695W        W 8168  34.893  28.070   0.439
39696W        W 8169  28.116   0.821  11.112
39697W        W 8170   7.837  29.553   3.300
39698W        W 8171  13.168  33.888  12.493
39699W        W 8172  37.061  28.115  13.803
39700W        W 8173  16.597  30.924  14.379
39701W        W 8174  41.038  11.800   2.832
39702W        W 8175  15.204  22.538  13.000
39703W        W 8176  34.881  11.197  11.005
39704W        W 8177  42.927  36.459  13.446
39705W        W 8178  18.553   7.797   4.308
39706W        W 8179   9.864  25.639  14.759
39707W        W 8180   1.444  18.241  14.433
39708W        W 8181  28.541  19.711  11.392
39709W        W 8182   2.820   6.273  13.944
39710W        W 8183  43.969  41.404  10.444
39711W        W 8184  26.555  31.409   9.983
39712W        W 8185  18.588   4.789   3.745
39713W        W 8186  16.660  30.133  13.998
39714W        W 8187  30.920   5.809   3.279
39715W        W 8188  32.980  27.530  14.506
39716W        W 8189  15.133  15.178  12.501
39717W        W 8190  22.035  38.942   0.380
39718W        W 8191   4.229  15.271   2.731
39719W        W 8192  37.903  43.905   3.359
39720W        W 8193   8.175  33.496   1.245
39721W        W 8194   2.936  23.209  10.436
39722W        W 8195   0.361  15.593  14.888
39723W        W 8196   2.266  17.266   2.841
39724W        W 8197  34.010  36.055  14.513
39725W        W 8198  23.502   6.380   3.241
39726W        W 8199  23.498  40.535   2.736
39727W        W 8200  39.481   2.890   0.420
39728W        W 8201  16.126  14.819   4.306
39729W        W 8202  14.622  13.225  12.052
39730W        W 8203  42.438  27.579  10.527
39731W        W 8204  15.744  36.564  14.429
39732W        W 8205  15.779  18.271   2.306
39733W        W 8206  13.705  40.466  13.353
39734W        W 8207  25.617  39.425   3.761
39735W        W 8208  26.183  11.645  10.960
39736W        W 8209  33.085  13.609  12.909
39737W        W 8210   4.254  29.000   0.360
39738W        W 8211  30.565   5.884  10.513
39739W        W 8212  29.079  43.822  11.100
39740W        W 8213  33.511  12.855  11.453
39741W        W 8214  13.277  10.269   2.226
39742W        W 8215   9.846  14.792   4.247
39743W        W 8216   2.384  43.900  13.450
39744W        W 8217  24.553  31.523   4.266
39745W        W 8218  14.191  39.005   1.319
39746W        W 8219  37.978  18.264   3.332
39747W        W 8220   9.359  27.007   2.760
39748W        W 8221   7.286  17.794  13.966
39749W        W 8222  37.416  37.572  11.955
39750W        W 8223  10.169   1.448   2.414
39751W        W 8224   4.740  36.536   0.400
39752W        W 8225  26.608  41.960  11.492
39753W        W 8226  25.083  22.723   0.881
39754W        W 8227  27.039   8.727  14.929
39755W        W 8228   4.281  21.692   4.751
39756W        W 8229  40.882   8.236   3.262
39757W        W 8230  23.200   2.886   1.713
39758W        W 8231   1.452   4.291  11.487
39759W        W 8232  41.538  12.157   2.875
39760W        W 8233   1.790  19.552   2.181
39761W        W 8234  39.852   1.956   0.783
39762W        W 8235   9.787  38.530   1.425
39763W        W 8236   8.312  26.591  10.008
39764W        W 8237   2.764  20.550   4.752
39765W        W 8238  38.842  38.045  13.540
39766W        W 8239  37.890   1.925  10.905
39767W        W 8240  12.233  34.872  12.013
39768W        W 8241  27.591   7.681  10.440
39769W        W 8242  44.802   1.886  10.505
39770W        W 8243  29.669   9.327   3.777
39771W        W 8244   7.689  18.187   1.759
39772W        W 8245  42.421   2.811   1.891
39773W        W 8246  32.542  21.707   2.890
39774W        W 8247  38.920   7.285   0.796
39775W        W 8248  37.374  37.857   2.693
39776W        W 8249   7.235  18.170  12.367
39777W        W 8250  24.188  22.744  13.920
39778W        W 8251  37.535   3.830   1.788
39779W        W 8252  31.419  14.760  14.992
39780W        W 8253   4.812  18.266   1.220
39781W        W 8254   5.335   6.907   4.255
39782W        W 8255   2.272  33.499   1.850
39783W        W 8256   7.691  26.097  11.538
39784W        W 8257   7.361  29.547  10.477
39785W        W 8258  38.938  23.040   3.750
39786W        W 8259  14.180   2.374  13.455
39787W        W 8260   9.799  25.097   1.438
39788W        W 8261  44.413  18.064  11.865
39789W        W 8262  43.388  30.941   3.744
39790W        W 8263  18.693  13.821  13.812
39791W        W 8264  21.682  40.318  11.053
39792W        W 8265   2.812   4.746   2.874
39793W        W 8266  35.965  21.757  14.862
39794W        W 8267   5.788  43.353  11.601
39795W        W 8268  39.997  15.722   3.256
39796W        W 8269  25.641  27.681  14.018
39797W        W 8270  13.620  13.310  14.887
39798W        W 8271  22.219  44.261  12.050
39799W        W 8272  36.512  37.075  11.878
39800W        W 8273  36.865   8.693  10.614
39801W        W 8274  43.982   2.351   4.119
39802W        W 8275  30.505   8.374  10.990
39803W        W 8276  25.643  33.396   0.916
39804W        W 8277  29.630  17.717   2.235
39805W        W 8278  13.116  25.662  13.903
39806W        W 8279  41.314   2.762   4.789
39807W        W 8280  41.903  43.342  14.375
39808W        W 8281  20.562  33.083   4.227
39809W        W 8282  44.808  14.127   0.760
39810W        W 8283  37.373  43.273   3.331
39811W        W 8284  33.918  20.630  13.031
39812W        W 8285   8.894  28.997   2.374
39813W        W 8286  13.789   9.351  12.499
39814W        W 8287   6.287  10.292   0.430
39815W        W 8288  30.947  31.485  11.430
39816W        W 8289  12.633  39.027  11.471
39817W        W 8290  33.620  31.060  12.869
39818W        W 8291  40.419   4.878   1.424
39819W        W 8292   3.434   7.712  14.370
39820W        W 8293  43.342  41.373   1.350
39821W        W 8294  25.579  11.662   3.685
39822W        W 8295  41.374  43.014   0.326
39823W        W 8296  38.411  31.559   4.688
39824W        W 8297   6.212  29.529  10.957
39825W        W 8298   1.414  22.735  14.462
39826W        W 8299  30.928  19.666   2.222
39827W        W 8300  30.648   1.280  13.542
39828W        W 8301  32.588   3.936  13.322
39829W        W 8302  21.105  30.609  13.818
39830W        W 8303  38.850  16.204   0.846
39831W        W 8304   2.326  11.622  12.488
39832W        W 8305  30.468   3.408  12.342
39833W        W 8306  41.864  26.139  11.558
39834W        W 8307  28.080   0.329   4.293
39835W        W 8308  14.725  41.514  10.432
39836W        W 8309   3.394  23.553  11.522
39837W        W 8310  19.714  33.916  11.407
39838W        W 8311  34.461  16.288  10.976
39839W        W 8312   7.715  22.237  14.383
39840W        W 8313  27.468  13.780  14.819
39841W        W 8314   8.696   0.841  11.544
39842W        W 8315  23.492  39.472  11.583
39843W        W 8316   5.766  34.073   1.440
39844W        W 8317   9.213  25.213   9.508
39845W        W 8318  18.771  17.682  14.446
39846W        W 8319  18.249  15.746  12.537
39847W        W 8320  17.672  44.959  14.363
39848W        W 8321  19.154  20.570   2.736
39849W        W 8322  37.038  40.918   1.803
39850W        W 8323   5.371   4.380  13.845
39851W        W 8324  37.001   7.684   4.113
39852W        W 8325  15.144  31.099  10.404
39853W        W 8326  35.559   9.702   3.240
39854W        W 8327  18.783  41.535   3.703
39855W        W 8328   5.411  16.300   5.795
39856W        W 8329  27.187  36.030  14.864
39857W        W 8330  26.201  25.558  11.860
39858W        W 8331  43.996   4.401  13.404
39859W        W 8332   3.817  18.283   1.246
39860W        W 8333  14.800   5.369   1.780
39861W        W 8334  21.181  38.067  11.996
39862W        W 8335   6.848  10.655   3.794
39863W        W 8336  23.604  19.109  13.047
39864W        W 8337  12.748  11.229  11.993
39865W        W 8338  44.343   0.767   4.329
39866W        W 8339  31.476  20.738   0.763
39867W        W 8340  39.066  26.499  14.857
39868W        W 8341  37.516  26.045  11.381
39869W        W 8342  26.001  20.544  12.529
39870W        W 8343  41.995  11.194  11.946
39871W        W 8344  44.990  14.225  13.972
39872W        W 8345   6.420  12.707   3.269
39873W        W 8346  38.853  20.524  13.496
39874W        W 8347   8.794  39.000  14.449
39875W        W 8348  36.891  11.739  11.980
39876W        W 8349  10.739  19.696  10.960
39877W        W 8350  37.069  26.527  14.782
39878W        W 8351  12.303   8.891   1.734
39879W        W 8352   8.386  10.329   1.756
39880W        W 8353   1.350  24.488   2.321
39881W        W 8354  23.996  30.074  10.612
39882W        W 8355  29.159  28.001   0.792
39883W        W 8356  30.536  19.609  12.577
39884W        W 8357  17.690  35.929  12.553
39885W        W 8358  26.080  33.490  10.897
39886W        W 8359  18.151  29.449  12.922
39887W        W 8360  18.239  23.699   4.804
39888W        W 8361  24.157  42.843  12.473
39889W        W 8362  37.888  18.725  10.575
39890W        W 8363  23.526   2.390   0.348
39891W        W 8364  22.564  34.010  12.002
39892W        W 8365   7.230  39.014  14.804
39893W        W 8366  10.697   4.275   1.784
39894W        W 8367  38.068  23.675  10.910
39895W        W 8368   8.895  19.617  12.426
39896W        W 8369  28.551   0.352  11.902
39897W        W 8370  34.463  42.499  12.887
39898W        W 8371  29.445  23.724  10.160
39899W        W 8372  23.169   0.408  12.532
39900W        W 8373  29.965   3.314   4.136
39901W        W 8374  38.858   7.763   3.826
39902W        W 8375  31.126  34.896  13.915
39903W        W 8376  43.895  16.596   4.278
39904W        W 8377  24.713  37.540   2.305
39905W        W 8378  11.829  38.957   5.175
39906W        W 8379   2.730   1.863   4.128
39907W        W 8380  40.026  37.391   0.726
39908W        W 8381  38.371  20.757   4.278
39909W        W 8382  43.516  12.167   3.341
39910W        W 8383  25.015  44.336  14.848
39911W        W 8384  43.370  21.158   9.940
39912W        W 8385  21.595   6.729  13.851
39913W        W 8386  42.340  19.544   4.642
39914W        W 8387   9.693   4.345  13.331
39915W        W 8388  17.573  14.259  14.986
39916W        W 8389   1.296  16.142   2.748
39917W        W 8390   4.396  44.837   3.216
39918W        W 8391   7.229  38.380  12.941
39919W        W 8392  22.083   5.196   3.713
39920W        W 8393  15.753  30.498   1.925
39921W        W 8394  20.544  27.569  11.457
39922W        W 8395   6.219  16.224   4.685
39923W        W 8396  38.433  35.451  12.032
39924W        W 8397  23.097  28.612  11.954
39925W        W 8398  15.591   7.826   0.806
39926W        W 8399  12.250  13.694  14.458
39927W        W 8400  30.487  26.995   1.298
39928W        W 8401  17.153  21.641  14.786
39929W        W 8402  11.837  11.238   1.245
39930W        W 8403  18.637  40.957   4.164
39931W        W 8404  37.420  34.982  11.404
39932W        W 8405  15.785  30.636  12.564
39933W        W 8406  35.495  40.989   4.770
39934W        W 8407  37.422  28.573  13.379
39935W        W 8408   3.384  25.685   1.795
39936W        W 8409  40.435  27.950  14.312
39937W        W 8410  16.688  41.912  12.457
39938W        W 8411  44.499  31.438  12.935
39939W        W 8412   1.829   2.264   2.215
39940W        W 8413  41.327  38.060   2.237
39941W        W 8414  44.005  13.163  11.968
39942W        W 8415  38.055  44.503   0.950
39943W        W 8416  36.930  12.766   4.826
39944W        W 8417  38.398  10.313  13.800
39945W        W 8418   7.672  33.035   4.272
39946W        W 8419  12.795  13.110   2.182
39947W        W 8420  41.361  11.750   4.127
39948W        W 8421  18.194  41.789   1.926
39949W        W 8422   2.241  29.922   3.195
39950W        W 8423  17.736  12.651  11.426
39951W        W 8424  40.973  42.379   1.701
39952W        W 8425  37.849   1.270  12.371
39953W        W 8426   9.291  28.651  11.019
39954W        W 8427   6.344  35.535   0.478
39955W        W 8428  12.320  22.042   4.311
39956W        W 8429   7.827   1.918   0.280
39957W        W 8430   1.773   4.212   1.273
39958W        W 8431   6.189  29.046  10.141
39959W        W 8432  30.579  22.586  13.873
39960W        W 8433  12.304  36.928  11.969
39961W        W 8434  38.020  42.395  14.326
39962W        W 8435  29.006  21.725   2.386
39963W        W 8436   5.813  24.214  12.843
39964W        W 8437  17.748  13.323   2.329
39965W        W 8438   0.825  16.152   4.671
39966W        W 8439   6.777  36.991   4.173
39967W        W 8440   1.876  20.190   0.264
39968W        W 8441  41.415  36.434  10.568
39969W        W 8442  21.072  39.998  13.510
39970W        W 8443   8.718  12.629   3.784
39971W        W 8444  33.456  15.684  13.898
39972W        W 8445  35.029  33.537  13.307
39973W        W 8446  32.511   6.780  12.350
39974W        W 8447  17.081  38.429  13.003
39975W        W 8448   8.378  32.442   3.359
39976W        W 8449   5.933  39.814  11.552
39977W        W 8450  39.028  19.586  12.062
39978W        W 8451  40.460  21.679  14.991
39979W        W 8452  28.096  28.996  14.936
39980W        W 8453  28.120  13.761  12.065
39981W        W 8454   6.806  21.657  10.965
39982W        W 8455  12.680   6.687  11.467
39983W        W 8456  13.105  22.570   1.911
39984W        W 8457  34.950  29.991  12.479
39985W        W 8458   3.377  23.013  11.547
39986W        W 8459  18.122  17.227  13.795
39987W        W 8460  11.726  35.537   0.452
39988W        W 8461  42.806  22.027  11.872
39989W        W 8462   6.710  32.075   5.161
39990W        W 8463  27.670   8.894  12.339
39991W        W 8464  21.542  10.849   1.771
39992W        W 8465   6.200  30.494  12.544
39993W        W 8466   0.262   6.768   0.944
39994W        W 8467  11.842  15.680   2.324
39995W        W 8468  32.519  32.412  12.090
39996W        W 8469   0.289   5.218   2.316
39997W        W 8470  21.252  19.039  12.554
39998W        W 8471  44.409   8.238  11.906
39999W        W 8472  13.716  38.477   9.590
40000W        W 8473  36.993  14.156  11.918
40001W        W 8474  30.133  18.750  13.827
40002W        W 8475   0.786  22.585  14.014
40003W        W 8476  44.362  22.684  13.897
40004W        W 8477   8.346  11.300  10.610
40005W        W 8478   6.191   6.834   0.948
40006W        W 8479  14.113  23.584  12.434
40007W        W 8480  40.883  10.871   3.789
40008W        W 8481  34.441   2.458   2.219
40009W        W 8482  21.128   6.395  11.556
40010W        W 8483  14.620  27.645   0.380
40011W        W 8484  34.982   8.324   0.880
40012W        W 8485  27.180  16.079  14.932
40013W        W 8486   2.382  10.281  13.804
40014W        W 8487  21.225  43.328  10.533
40015W        W 8488  13.244  33.093   4.155
40016W        W 8489  26.515   0.402   4.115
40017W        W 8490  44.857  43.331   1.396
40018W        W 8491   3.885  27.129   3.357
40019W        W 8492  29.975  26.608   3.765
40020W        W 8493  40.049  36.858  14.849
40021W        W 8494  12.718  38.018  11.914
40022W        W 8495  30.561  26.482  11.521
40023W        W 8496  15.247  20.665  13.976
40024W        W 8497  18.169  20.104  11.040
40025W        W 8498  44.831  40.480   4.608
40026W        W 8499  16.772  10.870  13.920
40027W        W 8500  32.113   5.736  13.943
40028W        W 8501  25.096  28.993   1.777
40029W        W 8502  26.181  27.508   1.218
40030W        W 8503   6.695  19.094   0.929
40031W        W 8504  15.306  13.271  11.909
40032W        W 8505  31.529   2.413  10.506
40033W        W 8506  23.588   2.750  13.475
40034W        W 8507   9.865   6.916  11.001
40035W        W 8508  20.562  26.686  12.425
40036W        W 8509  43.503   1.945   3.870
40037W        W 8510   7.186  20.150   3.316
40038W        W 8511   2.891  30.609  11.388
40039W        W 8512   4.918  21.199   4.233
40040W        W 8513  19.620  24.584  11.553
40041W        W 8514  22.707  38.070   1.247
40042W        W 8515  36.417  19.093   4.203
40043W        W 8516   5.907   5.229   3.787
40044W        W 8517   5.732  15.198  14.297
40045W        W 8518  41.498  34.910   1.336
40046W        W 8519  42.307  34.491  10.454
40047W        W 8520  29.640  37.971  13.923
40048W        W 8521  18.610  41.346  10.024
40049W        W 8522  31.049  13.143   1.786
40050W        W 8523  15.725   4.234   0.827
40051W        W 8524   0.368  31.978  11.127
40052W        W 8525  12.326  13.267   0.267
40053W        W 8526  36.046   3.790  11.476
40054W        W 8527  17.067  15.284  14.821
40055W        W 8528  23.985  19.164  12.962
40056W        W 8529  27.943  32.512  10.418
40057W        W 8530  14.250  13.248   4.608
40058W        W 8531  35.852  12.784   0.950
40059W        W 8532  41.043  22.099  10.503
40060W        W 8533  11.837  20.607  14.883
40061W        W 8534   1.896  33.380   2.393
40062W        W 8535   9.724  31.140   2.723
40063W        W 8536  14.628  21.150   2.775
40064W        W 8537  20.570  19.588  12.486
40065W        W 8538   2.862  18.070  12.361
40066W        W 8539  13.287  13.724  14.897
40067W        W 8540  27.645  34.544   2.362
40068W        W 8541  12.202  27.138  14.783
40069W        W 8542  21.126   0.268  13.460
40070W        W 8543   7.746  16.157  14.955
40071W        W 8544  22.665  13.624  13.442
40072W        W 8545  40.439  19.706  14.986
40073W        W 8546  20.257  44.000   0.327
40074W        W 8547  43.816  20.655  10.589
40075W        W 8548  35.581  17.165  11.431
40076W        W 8549  42.509  34.114  13.822
40077W        W 8550  25.528  26.669   0.826
40078W        W 8551  18.136  29.551   2.834
40079W        W 8552   1.762   1.261   4.311
40080W        W 8553  34.608   7.904   1.311
40081W        W 8554  18.671  15.705   3.644
40082W        W 8555  44.381  35.511  13.792
40083W        W 8556  22.015  35.963  12.459
40084W        W 8557   8.876  30.048  12.892
40085W        W 8558   0.807  26.492   0.887
40086W        W 8559   4.940  13.795   5.170
40087W        W 8560  31.024  37.476   5.106
40088W        W 8561  21.625  18.263   1.420
40089W        W 8562  23.520  36.587  12.544
40090W        W 8563  16.149  27.091   1.342
40091W        W 8564  29.658  23.135  10.442
40092W        W 8565  27.995  36.449   0.776
40093W        W 8566   5.251   5.797  13.477
40094W        W 8567  42.285  15.289   4.821
40095W        W 8568  38.364  34.924   4.769
40096W        W 8569  43.992  25.674   2.754
40097W        W 8570  18.243  16.241   1.902
40098W        W 8571   2.797  41.408  10.974
40099W        W 8572  44.754  21.608   3.373
40100W        W 8573  20.602  25.045   3.274
40101W        W 8574  17.175  39.446  13.525
40102W        W 8575  25.013  12.188  12.971
40103W        W 8576  37.371   9.358  13.312
40104W        W 8577   7.402   3.914  13.906
40105W        W 8578   7.235  34.589   0.953
40106W        W 8579  29.963  17.308  11.591
40107W        W 8580  34.921  13.167   3.847
40108W        W 8581  43.478  36.879   4.772
40109W        W 8582  19.673  14.197   1.249
40110W        W 8583  34.536  25.049  11.484
40111W        W 8584  33.053  20.142   4.821
40112W        W 8585   5.275  39.512   3.667
40113W        W 8586  20.542   4.294   1.852
40114W        W 8587   3.868  29.068   3.188
40115W        W 8588   0.303  27.553   2.384
40116W        W 8589  13.225   6.784  10.406
40117W        W 8590  15.621  29.006   0.835
40118W        W 8591  35.976  42.311  11.974
40119W        W 8592  25.095  44.275   3.281
40120W        W 8593  40.935  26.505  14.903
40121W        W 8594   6.344  11.159  13.028
40122W        W 8595   5.282  22.662   2.219
40123W        W 8596  24.569   3.347   1.211
40124W        W 8597  16.621  28.989  11.905
40125W        W 8598  24.097  19.110   1.380
40126W        W 8599  12.767   5.364   4.799
40127W        W 8600  38.350  31.433  12.408
40128W        W 8601  37.843   0.834   1.921
40129W        W 8602  16.206  25.000  13.317
40130W        W 8603  12.165  10.671   3.376
40131W        W 8604  18.638  19.161   2.404
40132W        W 8605  15.693  38.505   3.746
40133W        W 8606  34.907  22.009   2.800
40134W        W 8607  35.080  22.735   1.432
40135W        W 8608   8.741  10.648   0.438
40136W        W 8609  10.359  25.009  14.998
40137W        W 8610  28.482  24.223  11.959
40138W        W 8611   4.805  34.983  10.896
40139W        W 8612   5.722  33.002   3.744
40140W        W 8613  38.535  11.172  12.461
40141W        W 8614  28.949  27.138   1.895
40142W        W 8615  29.580  29.497  14.468
40143W        W 8616  17.195  44.810  14.021
40144W        W 8617  15.680  27.952  13.502
40145W        W 8618   0.312  15.294  11.102
40146W        W 8619  33.622   7.417   4.827
40147W        W 8620  21.114  20.264  12.524
40148W        W 8621  38.924   4.410  13.512
40149W        W 8622   9.358  28.118   2.668
40150W        W 8623  41.042  22.722   2.805
40151W        W 8624  19.045  20.258   1.856
40152W        W 8625  11.331  29.056  14.759
40153W        W 8626  15.241  29.632   1.329
40154W        W 8627   6.685  36.528   0.368
40155W        W 8628  30.975  14.293  11.410
40156W        W 8629  18.132  41.394  13.863
40157W        W 8630  18.562  25.679   2.308
40158W        W 8631  36.412   8.255  11.980
40159W        W 8632  29.025   2.943  13.319
40160W        W 8633  18.579   5.889  14.925
40161W        W 8634  18.208   3.429   1.432
40162W        W 8635  29.539  31.504   1.924
40163W        W 8636   0.787  16.076   2.269
40164W        W 8637  22.148  21.194   3.288
40165W        W 8638  33.451  44.882   0.440
40166W        W 8639   4.349  28.103   4.163
40167W        W 8640  12.843   3.732  12.039
40168W        W 8641  32.922  23.522   1.928
40169W        W 8642  22.248  36.046  10.495
40170W        W 8643   5.714  21.142   4.140
40171W        W 8644   8.278  26.207   2.362
40172W        W 8645  37.529  13.254  13.514
40173W        W 8646  21.220  29.942  12.003
40174W        W 8647   6.685   6.920   4.284
40175W        W 8648  34.038  18.622  12.943
40176W        W 8649  43.790  37.501   2.773
40177W        W 8650   8.766  34.981   1.413
40178W        W 8651  24.674  19.690  14.835
40179W        W 8652   3.879   2.408   3.176
40180W        W 8653   3.714   7.841   3.288
40181W        W 8654  30.468  28.986   4.668
40182W        W 8655  17.620  16.784  13.521
40183W        W 8656   3.877  30.560  13.994
40184W        W 8657   3.906   7.812  11.462
40185W        W 8658   5.425  39.464  11.050
40186W        W 8659  22.036  29.656  12.420
40187W        W 8660  20.615  38.023   2.411
40188W        W 8661  13.185   8.336   3.754
40189W        W 8662   9.301  14.275  10.918
40190W        W 8663  27.452  25.975   1.387
40191W        W 8664  38.068  12.695  10.063
40192W        W 8665  17.232  28.529   2.199
40193W        W 8666  35.382   3.360  14.416
40194W        W 8667  35.918  36.436  11.407
40195W        W 8668  22.645  12.234  10.445
40196W        W 8669  36.432  41.927  11.963
40197W        W 8670  10.195   6.234  11.571
40198W        W 8671  10.383  24.219   9.941
40199W        W 8672  13.155  12.132  10.616
40200W        W 8673   9.757  24.104  13.339
40201W        W 8674  37.531  37.920  12.848
40202W        W 8675  12.843  44.917   2.309
40203W        W 8676  31.618  31.905   4.753
40204W        W 8677   6.232  11.862   9.983
40205W        W 8678  43.900  24.517  11.493
40206W        W 8679   6.852  15.136   9.582
40207W        W 8680   9.226  21.558   4.738
40208W        W 8681  23.512  19.274  11.518
40209W        W 8682  44.869  18.193   3.677
40210W        W 8683  36.577  25.561   0.475
40211W        W 8684   0.842  35.072  11.378
40212W        W 8685  26.537  29.947  14.915
40213W        W 8686  16.278  29.555  13.424
40214W        W 8687   5.228  40.853   4.708
40215W        W 8688  12.333  29.541   3.348
40216W        W 8689  19.763   8.183   2.419
40217W        W 8690  26.675  27.072  14.800
40218W        W 8691  31.093  41.792   3.729
40219W        W 8692  29.516  26.024   2.821
40220W        W 8693  21.585  17.716   0.271
40221W        W 8694  23.995  16.586  10.544
40222W        W 8695  43.304  38.553  13.913
40223W        W 8696  14.731  11.202  14.825
40224W        W 8697  17.277   8.384   2.788
40225W        W 8698  24.569  21.128  10.521
40226W        W 8699  14.593  32.055   3.630
40227W        W 8700  21.155  40.986  12.465
40228W        W 8701  37.042  20.562   2.790
40229W        W 8702  20.587  35.461  11.885
40230W        W 8703  24.048   5.929   2.840
40231W        W 8704   4.392  23.619  12.926
40232W        W 8705  35.087  18.555   9.960
40233W        W 8706  40.447  29.580  14.974
40234W        W 8707  31.991   5.849   0.834
40235W        W 8708  38.064  30.140   1.286
40236W        W 8709   9.220  40.990  11.373
40237W        W 8710  41.348  10.686   3.728
40238W        W 8711  42.356   2.824  11.009
40239W        W 8712  36.009   4.788  10.435
40240W        W 8713  14.674   2.786   1.855
40241W        W 8714  22.067  36.952   3.238
40242W        W 8715  19.118  39.481  14.816
40243W        W 8716   8.707   8.365   1.375
40244W        W 8717  26.198  24.113   2.404
40245W        W 8718  12.830  41.496   1.249
40246W        W 8719  36.536  35.024  10.580
40247W        W 8720  36.550  28.120  12.520
40248W        W 8721   9.868  32.885   4.825
40249W        W 8722  23.634  12.613   9.451
40250W        W 8723  18.194  11.628  10.967
40251W        W 8724  29.992  11.280  14.817
40252W        W 8725  13.200  41.361   5.283
40253W        W 8726  44.265  36.853   0.903
40254W        W 8727   6.416  14.677   0.880
40255W        W 8728  42.850  25.500  12.458
40256W        W 8729  34.600  12.181  14.492
40257W        W 8730  34.071   4.286  11.577
40258W        W 8731  23.100  15.622  13.977
40259W        W 8732  32.558   4.336   3.250
40260W        W 8733   0.907  20.206  13.328
40261W        W 8734  42.391  28.021  11.546
40262W        W 8735  40.901  41.962   2.814
40263W        W 8736  36.060  25.517  11.381
40264W        W 8737  16.690  18.257   2.758
40265W        W 8738  15.594  25.012  10.123
40266W        W 8739  25.661   3.268   3.751
40267W        W 8740  27.450  27.168  11.045
40268W        W 8741  27.114  33.613   3.711
40269W        W 8742  36.889  31.152   4.312
40270W        W 8743  13.785  34.111   3.380
40271W        W 8744  40.810  34.423   2.790
40272W        W 8745  15.739  42.393   3.202
40273W        W 8746  25.689  34.556   0.865
40274W        W 8747  22.116  22.134   4.714
40275W        W 8748  43.347  37.863   0.854
40276W        W 8749  23.112  17.122  12.575
40277W        W 8750  25.607   5.430  13.832
40278W        W 8751  11.205  12.832  13.532
40279W        W 8752  25.643   1.851   1.742
40280W        W 8753  40.391  19.242   3.702
40281W        W 8754   3.944  21.042  14.940
40282W        W 8755  30.965  39.021  11.973
40283W        W 8756  36.915  43.474  10.459
40284W        W 8757  32.466  34.995   3.382
40285W        W 8758  11.767  18.137   3.231
40286W        W 8759  32.451   5.903   1.245
40287W        W 8760  39.993   5.713   2.407
40288W        W 8761  27.538  10.836   1.260
40289W        W 8762  17.595  32.509  12.475
40290W        W 8763  12.361  31.927   4.675
40291W        W 8764   8.265  21.210  12.985
40292W        W 8765  22.057  36.494  11.031
40293W        W 8766  34.937  25.523  13.921
40294W        W 8767  33.592  15.226   1.867
40295W        W 8768  28.501   0.259  14.904
40296W        W 8769  40.362   1.978   4.214
40297W        W 8770  30.574  18.629   1.901
40298W        W 8771  27.471   3.724  12.850
40299W        W 8772   9.663  12.702   2.748
40300W        W 8773  39.342   3.830   4.706
40301W        W 8774  11.762  23.681   4.167
40302W        W 8775   0.414   2.874   1.300
40303W        W 8776  20.580  42.986   0.460
40304W        W 8777  33.030  30.996   3.814
40305W        W 8778  27.965  36.923   0.795
40306W        W 8779  28.009  36.869   3.742
40307W        W 8780  10.242  22.619   0.352
40308W        W 8781  14.725  28.143  13.536
40309W        W 8782   3.926  36.563   4.603
40310W        W 8783  31.070  31.919   1.767
40311W        W 8784  36.991  29.152  14.286
40312W        W 8785  33.116  30.435   3.241
40313W        W 8786  29.111  12.691  11.589
40314W        W 8787  14.212  26.988  11.450
40315W        W 8788   5.420  28.510   3.805
40316W        W 8789  11.343  22.247  12.432
40317W        W 8790   7.885  28.656   4.693
40318W        W 8791  30.565  20.273   2.859
40319W        W 8792  18.124  23.042  12.838
40320W        W 8793   6.351   7.239  11.433
40321W        W 8794   8.316  36.044   2.344
40322W        W 8795  23.660  31.457  11.510
40323W        W 8796   1.432   1.297  12.852
40324W        W 8797  20.203   0.884  10.993
40325W        W 8798  44.943   5.929   4.785
40326W        W 8799   5.438  12.786  12.992
40327W        W 8800  19.101  15.194   1.314
40328W        W 8801   2.357  41.355   5.277
40329W        W 8802   1.448  13.721   4.113
40330W        W 8803  29.666  26.658  13.513
40331W        W 8804  23.500  23.164  11.060
40332W        W 8805  43.926  14.220  12.094
40333W        W 8806   2.752  17.759  14.433
40334W        W 8807  44.943   2.327  12.908
40335W        W 8808  42.950  12.825  11.407
40336W        W 8809  25.200  44.504   2.351
40337W        W 8810  41.367  19.738   2.765
40338W        W 8811  40.024  41.396  14.944
40339W        W 8812  35.886  43.786   3.386
40340W        W 8813   5.339  39.886  13.532
40341W        W 8814  31.548  43.329   4.294
40342W        W 8815  29.480  35.525   3.285
40343W        W 8816  32.403  40.848  11.475
40344W        W 8817  14.632  27.594  12.345
40345W        W 8818  42.790  33.070  11.480
40346W        W 8819   2.945  31.042  11.991
40347W        W 8820   1.391  16.646   3.714
40348W        W 8821   6.757  33.530  13.812
40349W        W 8822   4.899  24.707  12.903
40350W        W 8823  14.658  27.648  14.330
40351W        W 8824  40.376   9.185  13.511
40352W        W 8825   5.241  10.858   0.271
40353W        W 8826   7.177  25.988  11.979
40354W        W 8827  30.083  42.001  11.579
40355W        W 8828  28.124  19.271  11.516
40356W        W 8829  18.104  37.912   2.388
40357W        W 8830  34.960   4.925  11.472
40358W        W 8831  36.454  21.610  12.073
40359W        W 8832  22.543  34.594  11.991
40360W        W 8833  36.965  32.435   0.844
40361W        W 8834  41.933  21.659   0.805
40362W        W 8835  21.191  28.049   0.454
40363W        W 8836  27.096  19.124   4.117
40364W        W 8837  11.795  10.811  10.941
40365W        W 8838  31.967  31.604   3.818
40366W        W 8839  12.645  11.781   4.628
40367W        W 8840  21.688  24.491  11.937
40368W        W 8841  26.603  22.186   2.859
40369W        W 8842  19.145  32.407  14.840
40370W        W 8843  23.997   1.320   0.326
40371W        W 8844  19.114  25.613   0.481
40372W        W 8845  33.389  43.281   0.844
40373W        W 8846  11.213  26.057   0.245
40374W        W 8847  32.913  14.733  11.983
40375W        W 8848  14.634  37.889  11.482
40376W        W 8849  19.573   5.843  10.526
40377W        W 8850  44.926  27.079  13.526
40378W        W 8851  31.513  13.664  11.419
40379W        W 8852  17.210   2.356  14.965
40380W        W 8853  33.382  33.626  14.496
40381W        W 8854  21.162   0.435   1.416
40382W        W 8855  43.481   5.371   3.685
40383W        W 8856   7.828  28.569   2.371
40384W        W 8857  32.453   6.698   3.772
40385W        W 8858  24.190   3.377  13.978
40386W        W 8859   1.784  21.757   1.829
40387W        W 8860  41.332  40.437   0.284
40388W        W 8861  14.746   0.385  10.559
40389W        W 8862  24.493  11.283  11.118
40390W        W 8863  42.421  12.845   0.876
40391W        W 8864  10.353  44.775  10.962
40392W        W 8865  37.435  44.468   0.313
40393W        W 8866  22.595  15.638  12.987
40394W        W 8867  30.654  37.366  14.794
40395W        W 8868  17.136   8.260  14.888
40396W        W 8869  17.250  16.679  13.540
40397W        W 8870  38.400  30.007  12.826
40398W        W 8871  37.343  22.611  12.377
40399W        W 8872  41.330  27.988   1.397
40400W        W 8873  16.077  41.375   4.721
40401W        W 8874   9.317  16.226  13.370
40402W        W 8875   8.393   6.744  11.009
40403W        W 8876  14.271  37.855  12.575
40404W        W 8877   9.798  29.617  11.488
40405W        W 8878  43.404  40.875  10.539
40406W        W 8879   9.720  33.602   0.326
40407W        W 8880   1.405  34.535  12.950
40408W        W 8881  40.028  28.175   0.302
40409W        W 8882  20.103  31.492   2.206
40410W        W 8883  15.776  12.698  14.828
40411W        W 8884  30.083  16.288  10.960
40412W        W 8885  26.154  18.757   2.359
40413W        W 8886  25.475  12.193   1.337
40414W        W 8887  15.200  31.544   0.776
40415W        W 8888  29.070  20.062   1.300
40416W        W 8889  43.452  43.019   2.222
40417W        W 8890  36.845  30.914   2.764
40418W        W 8891  37.899  25.551   4.287
40419W        W 8892  35.580   5.875   4.613
40420W        W 8893  15.317  20.193   3.353
40421W        W 8894  15.245  36.580  14.800
40422W        W 8895  41.936  28.104  14.362
40423W        W 8896  20.123  36.864  13.970
40424W        W 8897  11.695  22.676   3.645
40425W        W 8898  35.505  12.812  10.614
40426W        W 8899  36.028  38.371   1.800
40427W        W 8900  16.171  37.020   4.182
40428W        W 8901  14.163  30.130   3.210
40429W        W 8902  15.108  30.949   3.850
40430W        W 8903  37.062  18.552  13.990
40431W        W 8904   2.323  34.549  14.848
40432W        W 8905  14.168  29.083   0.931
40433W        W 8906  29.558  32.410   3.795
40434W        W 8907  41.832  37.445   5.088
40435W        W 8908  12.761  30.435  10.921
40436W        W 8909  41.446  22.075   2.792
40437W        W 8910  33.549  23.620   0.320
40438W        W 8911   9.349   0.462   3.705
40439W        W 8912  26.057  26.582   1.787
40440W        W 8913  25.147  33.487  10.948
40441W        W 8914  37.504  40.310  14.502
40442W        W 8915  44.340  22.125   3.646
40443W        W 8916  18.273  19.774   4.643
40444W        W 8917  31.577  28.017  14.370
40445W        W 8918  17.248  28.506  12.429
40446W        W 8919   7.269   7.672   3.366
40447W        W 8920   3.807  17.744   2.897
40448W        W 8921   8.263  37.490  11.014
40449W        W 8922  31.548  16.275   4.267
40450W        W 8923  15.150  16.240   4.170
40451W        W 8924   2.861  22.008  13.817
40452W        W 8925  31.447  11.305   0.440
40453W        W 8926  17.133  29.164  12.970
40454W        W 8927   0.755  18.596   3.176
40455W        W 8928  37.051  37.381   4.307
40456W        W 8929   0.775  25.112   3.868
40457W        W 8930   4.921   4.412  11.955
40458W        W 8931  36.430  10.215   3.828
40459W        W 8932   6.395  17.209  14.439
40460W        W 8933  28.435  10.273  13.909
40461W        W 8934  14.692  37.400   0.437
40462W        W 8935   7.215  12.160   4.310
40463W        W 8936   8.298  40.870   4.222
40464W        W 8937  39.495  22.741  12.018
40465W        W 8938  19.206  44.358   1.732
40466W        W 8939  44.966   2.357  13.390
40467W        W 8940  11.157  19.659  12.488
40468W        W 8941  18.259   6.834  10.499
40469W        W 8942  38.416  38.050   4.766
40470W        W 8943   3.918  44.369   2.230
40471W        W 8944   7.247  40.501  13.392
40472W        W 8945  18.138  30.032  14.435
40473W        W 8946  26.466  30.568   4.165
40474W        W 8947  20.664  15.701  11.098
40475W        W 8948   6.811  36.850  12.030
40476W        W 8949  22.737  22.097  12.393
40477W        W 8950  35.451   4.827   3.783
40478W        W 8951   0.366   5.859  10.566
40479W        W 8952  20.234  30.971   0.399
40480W        W 8953  18.255  36.899  13.903
40481W        W 8954  27.941  24.648   1.285
40482W        W 8955  43.845  26.594  13.381
40483W        W 8956  24.611  11.363   4.353
40484W        W 8957  16.229  16.709   1.808
40485W        W 8958  22.015  12.689   1.299
40486W        W 8959  36.489  28.668   0.303
40487W        W 8960  33.490  26.515   3.195
40488W        W 8961   9.678   9.856   1.360
40489W        W 8962  44.961   3.714  14.934
40490W        W 8963  22.158  42.520  11.502
40491W        W 8964  28.981  41.903   3.869
40492W        W 8965  21.175   8.726  10.448
40493W        W 8966  41.967  26.982  12.439
40494W        W 8967  43.003  11.772   2.381
40495W        W 8968  13.176  25.119   2.785
40496W        W 8969   1.766  24.196   3.727
40497W        W 8970  41.314  25.016   0.812
40498W        W 8971   4.420  34.424   2.212
40499W        W 8972  19.092  38.828   1.751
40500W        W 8973  35.510   6.300  11.016
40501W        W 8974   0.317  21.518  13.951
40502W        W 8975  30.566   1.776  14.457
40503W        W 8976  23.572   9.880   2.202
40504W        W 8977  26.657  18.742   0.734
40505W        W 8978  28.586  36.407   3.652
40506W        W 8979  44.330  15.731   1.720
40507W        W 8980  37.459  24.563  11.593
40508W        W 8981  11.627   6.373  14.504
40509W        W 8982  27.033   0.414  11.109
40510W        W 8983   1.878  42.927   4.321
40511W        W 8984   9.661  13.792   1.319
40512W        W 8985  29.032   5.404  14.512
40513W        W 8986  36.088  15.722   3.215
40514W        W 8987   2.427   3.440  14.349
40515W        W 8988  29.935  16.628   0.828
40516W        W 8989  38.048  30.987   3.188
40517W        W 8990  23.123  14.723   3.339
40518W        W 8991  29.507  38.059  12.405
40519W        W 8992  29.164   7.416  13.056
40520W        W 8993   2.881  31.538  14.821
40521W        W 8994  17.164  34.452   3.295
40522W        W 8995  25.210  16.813   4.276
40523W        W 8996  26.150   6.722   2.826
40524W        W 8997  31.598  34.871   2.250
40525W        W 8998   6.198  25.078  14.847
40526W        W 8999   2.785  21.128   1.886
40527W        W 9000  18.683  22.697  13.025
40528W        W 9001  13.667  40.933   4.174
40529W        W 9002  33.401  16.137  11.459
40530W        W 9003  42.465  26.071   1.902
40531W        W 9004  21.591  13.313   2.681
40532W        W 9005   4.928   8.253  11.405
40533W        W 9006  21.609  15.324  11.396
40534W        W 9007  35.008   5.363   2.873
40535W        W 9008  25.025  27.053  10.525
40536W        W 9009  44.909   4.884  10.949
40537W        W 9010  16.078  10.328  14.375
40538W        W 9011  16.229  17.256  12.896
40539W        W 9012   5.406  19.055   1.796
40540W        W 9013  17.607  43.005  11.613
40541W        W 9014  17.084  14.602   2.821
40542W        W 9015  11.304  15.110   1.357
40543W        W 9016  39.517  26.033   1.433
40544W        W 9017  13.822  25.062  13.036
40545W        W 9018   7.706  23.569   1.789
40546W        W 9019  29.536  35.420   2.763
40547W        W 9020  44.466  38.480  12.885
40548W        W 9021  28.011  24.060  14.904
40549W        W 9022  36.007  44.802  10.896
40550W        W 9023  18.165  18.687  14.012
40551W        W 9024  37.859  28.954   2.880
40552W        W 9025  20.567  31.058   4.636
40553W        W 9026  24.023  20.704  10.965
40554W        W 9027   2.952  14.745  14.490
40555W        W 9028  16.136  24.493  14.473
40556W        W 9029   4.722  12.723  10.001
40557W        W 9030   8.700   6.906  10.566
40558W        W 9031  16.115  14.104  10.973
40559W        W 9032  40.936  13.106  14.964
40560W        W 9033  42.394  38.997  13.028
40561W        W 9034  28.626  32.544  13.991
40562W        W 9035  17.666  22.188  12.928
40563W        W 9036   3.795  12.175  12.377
40564W        W 9037  31.532  16.682   1.714
40565W        W 9038  39.819  15.712  12.468
40566W        W 9039  22.649  10.861   2.380
40567W        W 9040  23.016  32.580  14.371
40568W        W 9041  40.468   0.422   4.305
40569W        W 9042  35.073  23.110   1.778
40570W        W 9043  28.607  42.295  12.559
40571W        W 9044  27.019  15.763   0.299
40572W        W 9045   3.821  39.415   2.308
40573W        W 9046  34.915  30.045   1.323
40574W        W 9047  20.224   5.816  13.930
40575W        W 9048  11.222  33.964   9.558
40576W        W 9049  13.217   1.433  13.907
40577W        W 9050   7.384  19.116   1.262
40578W        W 9051  22.058   2.904  13.386
40579W        W 9052  18.779  22.029  10.890
40580W        W 9053  41.931  10.201   5.197
40581W        W 9054  18.713  34.371   1.236
40582W        W 9055  35.032  29.635  11.513
40583W        W 9056  31.514  34.979  14.790
40584W        W 9057  35.921  22.019   3.806
40585W        W 9058   1.970  34.095   3.267
40586W        W 9059  12.856   9.674   2.287
40587W        W 9060  31.439  40.050  11.092
40588W        W 9061  20.669  10.755  11.935
40589W        W 9062   5.421  41.368  13.970
40590W        W 9063   3.919   8.345  14.856
40591W        W 9064  26.161  36.379   0.251
40592W        W 9065   3.956  35.367   1.916
40593W        W 9066   0.897   2.414  11.033
40594W        W 9067  21.113   8.841   3.158
40595W        W 9068  38.508  41.876   4.708
40596W        W 9069  13.632  24.521   3.702
40597W        W 9070  22.537   6.720   3.348
40598W        W 9071  44.353   6.263   0.473
40599W        W 9072  12.228  30.061   0.396
40600W        W 9073  37.458  25.591  11.938
40601W        W 9074  32.454   1.783  11.441
40602W        W 9075  12.264   3.807   4.811
40603W        W 9076   5.867  14.285   0.283
40604W        W 9077   9.391   0.913  13.430
40605W        W 9078  27.515  36.563  14.813
40606W        W 9079  30.138  29.523  11.093
40607W        W 9080  27.642  31.538   1.838
40608W        W 9081  14.286  14.103  14.972
40609W        W 9082   2.781  44.788  11.407
40610W        W 9083  27.976   9.229   3.814
40611W        W 9084  39.828  37.926   3.652
40612W        W 9085   3.461  20.552   2.707
40613W        W 9086  15.586  40.366   1.449
40614W        W 9087   4.700  36.408  13.801
40615W        W 9088  20.688  41.880   2.842
40616W        W 9089   9.835  40.402  12.898
40617W        W 9090  25.512  33.935  11.503
40618W        W 9091  16.749  31.919   0.366
40619W        W 9092  24.163  12.327   1.798
40620W        W 9093  41.524   6.859  10.978
40621W        W 9094  23.042  30.610   4.144
40622W        W 9095  43.800   7.319  14.771
40623W        W 9096  23.700  20.572  11.035
40624W        W 9097  28.679  37.970  13.036
40625W        W 9098  32.919  14.288   0.776
40626W        W 9099  25.505  36.023   4.162
40627W        W 9100  13.645  22.203  13.911
40628W        W 9101  39.916  38.912   2.680
40629W        W 9102  24.624  36.057   2.662
40630W        W 9103  27.610  25.502  13.045
40631W        W 9104  11.288   2.403  12.823
40632W        W 9105  43.766  12.187   3.771
40633W        W 9106   1.828  43.991   4.757
40634W        W 9107  38.889   0.312  12.365
40635W        W 9108  37.533   8.263   4.776
40636W        W 9109  18.672  32.460   2.366
40637W        W 9110  23.036  32.101  11.043
40638W        W 9111  30.069  22.119  10.913
40639W        W 9112  26.616  14.314   2.797
40640W        W 9113   0.398   5.890   0.795
40641W        W 9114  18.238  39.042   1.702
40642W        W 9115   2.773  33.498  10.959
40643W        W 9116  16.093   3.764   1.866
40644W        W 9117  13.836   0.478  14.782
40645W        W 9118  19.578   0.746  10.574
40646W        W 9119   3.757  15.279  13.329
40647W        W 9120   6.312  20.116   1.794
40648W        W 9121  37.984  44.962  11.970
40649W        W 9122  10.300  30.540   0.473
40650W        W 9123  43.964  42.862  11.501
40651W        W 9124   0.901  38.359   3.854
40652W        W 9125   4.384  33.963  12.481
40653W        W 9126  39.824   2.959   1.879
40654W        W 9127  17.673  15.787   2.401
40655W        W 9128   5.262  16.807   0.776
40656W        W 9129  32.428   1.825  14.893
40657W        W 9130  19.576   7.695   3.275
40658W        W 9131  21.691  23.133   2.858
40659W        W 9132  10.846   5.345   3.339
40660W        W 9133  28.185  35.970   1.758
40661W        W 9134  23.700  10.742  10.998
40662W        W 9135  32.504   7.707   1.236
40663W        W 9136   0.922  39.053  10.445
40664W        W 9137  36.087  30.574   1.214
40665W        W 9138  10.632   3.340  10.436
40666W        W 9139  40.406  10.846  13.331
40667W        W 9140   5.201  44.915   2.737
40668W        W 9141  12.330  15.696  13.969
40669W        W 9142  31.932   7.322   3.758
40670W        W 9143  42.282   4.750  13.896
40671W        W 9144  29.125  12.786   0.748
40672W        W 9145  37.971  12.128   0.368
40673W        W 9146  35.490  15.822  12.398
40674W        W 9147  32.904  14.798   4.649
40675W        W 9148   0.884   5.749   3.286
40676W        W 9149  23.074  38.046  13.928
40677W        W 9150  17.273  29.447   0.959
40678W        W 9151  29.635  11.685   4.305
40679W        W 9152   0.972  34.591   2.707
40680W        W 9153  26.038  37.560  13.394
40681W        W 9154  33.477   2.249  12.541
40682W        W 9155   8.891  37.535  10.603
40683W        W 9156  42.512   3.254   2.192
40684W        W 9157  37.395  37.968  11.946
40685W        W 9158   6.276  14.224  12.076
40686W        W 9159  10.723  14.162  10.604
40687W        W 9160  41.967   1.847   4.254
40688W        W 9161  25.003  12.257  11.928
40689W        W 9162  34.892  25.657  11.399
40690W        W 9163  23.008  25.977  13.808
40691W        W 9164  19.772  41.790  13.325
40692W        W 9165  16.792  34.615   0.951
40693W        W 9166  37.842  27.132   0.912
40694W        W 9167  27.070   9.791   1.312
40695W        W 9168   2.778  23.682   2.758
40696W        W 9169  11.252   8.685   4.764
40697W        W 9170   5.327  22.034  12.996
40698W        W 9171  41.833  10.725   3.682
40699W        W 9172   7.228  15.687  13.348
40700W        W 9173  13.220  35.080  10.414
40701W        W 9174  32.129  30.075   3.647
40702W        W 9175  34.494  32.557  12.493
40703W        W 9176   9.820  22.552   5.108
40704W        W 9177  36.040  38.874  12.883
40705W        W 9178  36.514  20.238   0.292
40706W        W 9179  15.596  39.328  13.858
40707W        W 9180  33.885  30.620   4.245
40708W        W 9181  38.452  44.461   4.339
40709W        W 9182  11.856  28.982  11.523
40710W        W 9183  25.585   0.836  11.528
40711W        W 9184  42.879  18.598  13.918
40712W        W 9185  24.626  15.252   3.773
40713W        W 9186  27.673  40.349  14.472
40714W        W 9187  43.768  25.488   2.341
40715W        W 9188  44.837  35.885   2.767
40716W        W 9189  20.103  27.462  10.634
40717W        W 9190  19.602  26.657   4.744
40718W        W 9191  38.863  19.704  10.567
40719W        W 9192   2.807   8.723  13.959
40720W        W 9193  42.317  17.090  14.930
40721W        W 9194  19.272  43.771   3.673
40722W        W 9195  10.171  32.456   3.849
40723W        W 9196  23.559  17.593  12.975
40724W        W 9197   0.434  38.449  14.433
40725W        W 9198  31.146  40.920  11.040
40726W        W 9199  21.098   8.732   3.757
40727W        W 9200  31.441  12.279   3.377
40728W        W 9201  22.211  29.027  13.920
40729W        W 9202   3.730  14.693   5.134
40730W        W 9203  25.661  22.720   0.385
40731W        W 9204   8.334  34.908   5.144
40732W        W 9205  42.992  25.103   3.269
40733W        W 9206  43.814  39.529  12.463
40734W        W 9207  37.837  44.791  11.043
40735W        W 9208  20.191  36.367  12.017
40736W        W 9209   1.396   4.446  14.515
40737W        W 9210  30.452  27.486   4.723
40738W        W 9211  27.592  32.118   1.221
40739W        W 9212  22.218  22.509   0.275
40740W        W 9213   5.341  13.148  12.366
40741W        W 9214  15.201   3.344  14.017
40742W        W 9215  20.606  38.368  14.783
40743W        W 9216   8.767   1.448   3.296
40744W        W 9217  21.704   3.867  14.465
40745W        W 9218   7.811  15.614   0.470
40746W        W 9219  37.882  33.409   2.404
40747W        W 9220  43.387  40.933  14.801
40748W        W 9221  31.994  30.503   4.675
40749W        W 9222   0.411  22.248  13.500
40750W        W 9223  39.514  15.805  12.892
40751W        W 9224   7.912  14.114  12.493
40752W        W 9225  23.557  15.190   0.881
40753W        W 9226  34.511  20.642   3.692
40754W        W 9227   1.905  26.995   4.787
40755W        W 9228  40.937  43.396   4.229
40756W        W 9229  40.346   8.339  13.466
40757W        W 9230  18.777  17.293  10.416
40758W        W 9231  24.072  23.238  12.567
40759W        W 9232  30.141  17.624   2.696
40760W        W 9233  15.644  29.655   2.292
40761W        W 9234  38.398   4.721  14.768
40762W        W 9235  17.074  44.399  14.883
40763W        W 9236  22.058  32.411   0.963
40764W        W 9237  27.188  11.751   3.643
40765W        W 9238  32.032  17.178  12.983
40766W        W 9239  35.025   8.390   3.324
40767W        W 9240  40.894  39.982   1.848
40768W        W 9241   9.272  25.032  12.497
40769W        W 9242   6.723   2.252  10.449
40770W        W 9243  39.062  27.174  11.980
40771W        W 9244  15.169   0.910  14.776
40772W        W 9245  29.547  32.137  14.886
40773W        W 9246  18.655  37.364   0.901
40774W        W 9247  43.331  27.520   3.241
40775W        W 9248   8.250  39.818   2.245
40776W        W 9249  24.102   6.394   2.357
40777W        W 9250   9.346  14.146  12.035
40778W        W 9251  44.342  37.552  12.494
40779W        W 9252  16.274  12.686  14.810
40780W        W 9253  39.812   5.248   1.932
40781W        W 9254  27.484  26.536  12.959
40782W        W 9255  35.929  20.596   0.950
40783W        W 9256   4.251  44.447   0.806
40784W        W 9257  31.536  12.213   4.318
40785W        W 9258  22.731  33.007   1.817
40786W        W 9259   7.742  11.141  12.035
40787W        W 9260  43.786   8.735   0.477
40788W        W 9261  35.097   3.850   0.442
40789W        W 9262  34.932  25.159  12.425
40790W        W 9263  43.980  40.907  12.530
40791W        W 9264  17.258  33.930  10.464
40792W        W 9265  21.045  21.238  12.422
40793W        W 9266  27.037  26.060   4.737
40794W        W 9267   5.248   7.895   9.986
40795W        W 9268   2.235  34.976  12.982
40796W        W 9269  23.130  44.479  12.562
40797W        W 9270  12.126  15.142  10.565
40798W        W 9271  10.805  11.863   1.317
40799W        W 9272  38.958   3.914   3.297
40800W        W 9273  25.608  12.333   3.703
40801W        W 9274  35.602  33.994   1.418
40802W        W 9275  26.143  32.013  11.037
40803W        W 9276  26.584  43.492   1.330
40804W        W 9277  22.532  15.741   0.889
40805W        W 9278  41.929  23.575  13.340
40806W        W 9279  29.541  30.150  11.045
40807W        W 9280  27.603  15.144  14.396
40808W        W 9281   4.732   9.330   4.226
40809W        W 9282  43.841  32.124   1.368
40810W        W 9283   8.867  23.161   4.272
40811W        W 9284  32.442  27.486   0.258
40812W        W 9285  13.346  24.207  13.500
40813W        W 9286  20.654  41.790  13.991
40814W        W 9287   6.203  40.404  11.485
40815W        W 9288  39.429   8.372   0.800
40816W        W 9289   0.429  13.705  10.967
40817W        W 9290  39.490  31.436  11.126
40818W        W 9291  18.058  21.248  13.936
40819W        W 9292  26.559  18.175   4.347
40820W        W 9293   5.402   7.791  12.353
40821W        W 9294  41.427  13.242  12.524
40822W        W 9295  43.848  14.741   3.767
40823W        W 9296  32.063  41.384   5.272
40824W        W 9297  44.299   5.195   0.275
40825W        W 9298   1.453  34.474   4.306
40826W        W 9299  16.643  23.159  11.125
40827W        W 9300  33.593  43.010   2.801
40828W        W 9301  27.639  19.731   4.789
40829W        W 9302  11.670  32.917  14.311
40830W        W 9303   4.797  25.606  10.966
40831W        W 9304  23.682  24.673  10.544
40832W        W 9305  42.022  34.440  10.609
40833W        W 9306   4.892  31.000  10.890
40834W        W 9307  19.607  37.022  11.411
40835W        W 9308   5.761   6.329   3.289
40836W        W 9309  43.834   5.878  13.924
40837W        W 9310  39.958  24.003  14.952
40838W        W 9311  41.534  21.539   0.456
40839W        W 9312  42.921  22.007   4.250
40840W        W 9313   1.962  37.835   3.840
40841W        W 9314  25.150   0.948   0.754
40842W        W 9315   6.748  18.152  14.874
40843W        W 9316  36.573  27.519   2.212
40844W        W 9317   3.942  15.255   2.262
40845W        W 9318   8.771  43.370  13.538
40846W        W 9319  15.806  16.123  11.390
40847W        W 9320  34.440  42.954  12.005
40848W        W 9321   4.309  13.272   1.269
40849W        W 9322   1.431   2.471   2.673
40850W        W 9323  20.734  35.526  10.445
40851W        W 9324  12.134   8.233  12.491
40852W        W 9325  26.672  43.479  12.039
40853W        W 9326  35.030  38.566  13.891
40854W        W 9327   3.804   0.266  11.514
40855W        W 9328  22.585  12.186   1.376
40856W        W 9329  27.977   1.293  11.487
40857W        W 9330  19.062  11.356  11.897
40858W        W 9331  42.448  18.205  14.496
40859W        W 9332  22.696   5.883  12.562
40860W        W 9333  24.576   6.347  14.399
40861W        W 9334  26.544  20.573  11.905
40862W        W 9335  24.063  41.477  10.902
40863W        W 9336   0.764   8.239   0.963
40864W        W 9337  20.063  44.451   4.666
40865W        W 9338  22.015  23.131   0.760
40866W        W 9339  15.198  38.998   0.799
40867W        W 9340  40.896   1.865  14.014
40868W        W 9341  31.031  43.500   0.441
40869W        W 9342  24.068  25.067   3.209
40870W        W 9343   5.902   0.330   3.180
40871W        W 9344  38.332   7.666   1.900
40872W        W 9345  14.340  20.157   5.276
40873W        W 9346   7.723   5.931   3.225
40874W        W 9347  37.449   0.445  12.999
40875W        W 9348  14.693  41.946   0.793
40876W        W 9349  19.605  40.474   0.882
40877W        W 9350  20.199  40.453  13.530
40878W        W 9351  34.865  35.493   2.779
40879W        W 9352  29.097  20.086   4.353
40880W        W 9353  32.127  19.690  12.480
40881W        W 9354  34.581  38.012  11.605
40882W        W 9355   3.802  35.599   0.432
40883W        W 9356  40.860   2.249   2.766
40884W        W 9357  41.814   8.403  10.529
40885W        W 9358  31.953  24.224  14.299
40886W        W 9359  32.132  19.210   4.806
40887W        W 9360  38.826   9.238  14.465
40888W        W 9361  14.260   4.722   1.226
40889W        W 9362   8.292  28.458   4.306
40890W        W 9363   0.868  15.282   4.169
40891W        W 9364   3.841  15.170   3.794
40892W        W 9365   0.931  14.750   1.314
40893W        W 9366  43.319   2.341  12.946
40894W        W 9367  11.681  23.004  12.465
40895W        W 9368  16.578  27.096  13.414
40896W        W 9369  37.576   7.900   5.147
40897W        W 9370  11.180  23.595  14.372
40898W        W 9371   3.428  18.724  11.898
40899W        W 9372  34.403  14.762  11.987
40900W        W 9373  25.137  16.758   0.933
40901W        W 9374  15.272  39.012   5.313
40902W        W 9375  42.965  39.502   1.221
40903W        W 9376   6.809  35.498  13.404
40904W        W 9377  16.101  15.113  10.915
40905W        W 9378  41.826  37.466   2.264
40906W        W 9379  27.187  26.084  14.287
40907W        W 9380   7.311  27.633   0.876
40908W        W 9381  13.802   7.883  12.000
40909W        W 9382  44.826   9.342  12.446
40910W        W 9383  35.442  36.906   3.209
40911W        W 9384  27.491  15.810  14.373
40912W        W 9385  14.797  13.728   4.697
40913W        W 9386  21.087  26.664  10.481
40914W        W 9387  23.702  42.934  14.290
40915W        W 9388   7.874  30.446  13.891
40916W        W 9389  43.865  22.549   4.128
40917W        W 9390  42.390  43.008   3.322
40918W        W 9391   0.399  43.837   2.352
40919W        W 9392  40.992   9.858   3.779
40920W        W 9393  33.107  38.420   3.839
40921W        W 9394   0.319  28.445  11.068
40922W        W 9395  19.221   7.665  14.353
40923W        W 9396   0.835  15.195  12.059
40924W        W 9397  26.629   3.830  14.762
40925W        W 9398  23.191   3.248  11.595
40926W        W 9399  12.227  40.512  11.491
40927W        W 9400   7.818  39.549   4.138
40928W        W 9401  14.204  41.792   5.213
40929W        W 9402  14.175   7.264   2.733
40930W        W 9403  11.274  23.714   1.378
40931W        W 9404  35.905  29.652  11.047
40932W        W 9405  21.028  16.684  10.085
40933W        W 9406  28.929  34.101   3.840
40934W        W 9407  26.112  10.844   4.177
40935W        W 9408  17.271  38.520   2.754
40936W        W 9409   0.797  41.494  10.025
40937W        W 9410  25.698  32.907   1.756
40938W        W 9411  24.026  17.668  12.367
40939W        W 9412  24.092   4.780  13.824
40940W        W 9413   9.240  29.978   4.269
40941W        W 9414  22.097  25.625   9.640
40942W        W 9415  17.565   5.796  12.957
40943W        W 9416  43.845   6.909  13.484
40944W        W 9417  10.694  12.353   1.821
40945W        W 9418  38.327  13.192   4.762
40946W        W 9419  14.766  44.280   1.812
40947W        W 9420  27.179  43.839   4.769
40948W        W 9421   5.772  16.799   2.317
40949W        W 9422  33.925  34.369   2.898
40950W        W 9423  20.036   3.342  12.845
40951W        W 9424  43.899  13.326  13.862
40952W        W 9425   1.320  32.625   4.195
40953W        W 9426  31.455  34.435  14.950
40954W        W 9427  17.699  36.540   2.351
40955W        W 9428  23.030  15.271   5.612
40956W        W 9429  28.074  15.717  14.375
40957W        W 9430  26.483   1.855   0.270
40958W        W 9431  14.740  19.626   1.694
40959W        W 9432  16.208  21.101  10.044
40960W        W 9433  27.149  19.283  12.845
40961W        W 9434   8.204   6.257  11.014
40962W        W 9435  27.570   3.269  13.342
40963W        W 9436  35.581  24.528   0.944
40964W        W 9437  39.331  21.693  10.535
40965W        W 9438  22.080  23.188  14.293
40966W        W 9439  13.820  41.981   3.741
40967W        W 9440  18.096  39.980   1.272
40968W        W 9441   3.837  16.148  11.521
40969W        W 9442   7.268  43.464  11.979
40970W        W 9443  27.014  14.797   0.739
40971W        W 9444  26.484  14.824   3.346
40972W        W 9445  35.047  43.278   1.416
40973W        W 9446   2.849   6.266  14.418
40974W        W 9447  37.522  32.418   2.850
40975W        W 9448  25.675  34.119   0.933
40976W        W 9449  20.605   9.196   4.311
40977W        W 9450  26.080   2.730  14.297
40978W        W 9451  16.136  41.022   4.253
40979W        W 9452  11.245  33.881  12.870
40980W        W 9453  29.449  39.505  10.995
40981W        W 9454  44.837  14.614   3.677
40982W        W 9455  30.484  36.900  14.415
40983W        W 9456  26.163  15.301   2.864
40984W        W 9457  44.330  41.465  10.994
40985W        W 9458  31.601  27.136   9.973
40986W        W 9459  31.406  31.147   0.759
40987W        W 9460  18.277  40.011  11.429
40988W        W 9461   5.235  14.199  11.549
40989W        W 9462   0.472  34.004   1.842
40990W        W 9463  15.218   5.746   1.815
40991W        W 9464  14.605  35.923   0.763
40992W        W 9465  25.551  12.129  12.536
40993W        W 9466  22.149  21.219   0.822
40994W        W 9467  37.428  27.039   2.359
40995W        W 9468  21.130  12.817   0.439
40996W        W 9469   5.718  32.410  13.901
40997W        W 9470  30.642   1.473   4.648
40998W        W 9471   7.869  20.086   1.296
40999W        W 9472  11.278  16.293   3.788
41000W        W 9473  30.907  39.470   1.439
41001W        W 9474  19.108   8.773   1.860
41002W        W 9475  39.050  21.159  13.029
41003W        W 9476  21.534  31.646   1.934
41004W        W 9477  36.410   5.871  12.387
41005W        W 9478  27.464  12.294   1.320
41006W        W 9479   2.799   3.214   2.883
41007W        W 9480  13.203   8.660   5.093
41008W        W 9481   6.799  26.606   2.335
41009W        W 9482  19.158  17.239   3.381
41010W        W 9483  16.713  30.422  10.950
41011W        W 9484  35.981  41.822  11.006
41012W        W 9485  13.728  23.674  13.926
41013W        W 9486  34.103  35.915   4.198
41014W        W 9487  19.130  32.906  10.564
41015W        W 9488   8.276  11.763  13.546
41016W        W 9489  29.609  37.509  12.874
41017W        W 9490  29.532  32.001  10.944
41018W        W 9491  28.599   9.739   3.722
41019W        W 9492  23.640  39.025  12.473
41020W        W 9493  25.601  13.165  12.402
41021W        W 9494  31.029   3.325  11.007
41022W        W 9495  32.635  17.750  10.613
41023W        W 9496   0.257   8.805   1.751
41024W        W 9497  10.169   0.326   4.188
41025W        W 9498   1.407  41.950  10.601
41026W        W 9499  42.283  30.489   0.434
41027W        W 9500  13.121   0.261  14.867
41028W        W 9501  12.722  26.147  11.985
41029W        W 9502  38.417   5.838  10.635
41030W        W 9503  27.616  42.496  13.800
41031W        W 9504  17.787  25.712  12.014
41032W        W 9505  31.909  19.265   1.305
41033W        W 9506  43.974  24.517   4.641
41034W        W 9507   5.721  38.358  13.440
41035W        W 9508  34.003  37.568   2.241
41036W        W 9509  43.283  20.568   1.825
41037W        W 9510   2.833  44.292  12.481
41038W        W 9511   1.897  17.154   0.395
41039W        W 9512  10.684  44.383   0.918
41040W        W 9513  33.887  40.333  12.477
41041W        W 9514  14.102   6.207   2.718
41042W        W 9515  17.205  41.425  13.952
41043W        W 9516  33.032  28.940   0.320
41044W        W 9517  31.925  13.748  14.501
41045W        W 9518  39.060   9.323  11.425
41046W        W 9519  16.650  39.032  14.864
41047W        W 9520  24.674  10.750  10.970
41048W        W 9521  20.716  13.676   0.356
41049W        W 9522  19.683  11.682   1.434
41050W        W 9523  32.520  22.501   1.369
41051W        W 9524   6.377  29.960  12.572
41052W        W 9525  25.513  21.131  14.833
41053W        W 9526   6.276  16.162  12.577
41054W        W 9527  14.636  10.378   5.216
41055W        W 9528   9.698  43.475   3.720
41056W        W 9529   8.380  30.958   3.642
41057W        W 9530  21.028  25.206   1.746
41058W        W 9531  36.961  38.509   2.687
41059W        W 9532   0.319   3.834   3.277
41060W        W 9533  22.123  13.687   1.417
41061W        W 9534  42.803  37.880  10.601
41062W        W 9535  41.923  23.044   3.189
41063W        W 9536  35.546  14.174  13.513
41064W        W 9537  33.532  12.767  12.442
41065W        W 9538  37.347  39.835   3.336
41066W        W 9539  31.626   3.734  14.852
41067W        W 9540  12.850  24.155  11.538
41068W        W 9541  14.635  15.322  13.415
41069W        W 9542   2.295   3.259   4.673
41070W        W 9543  31.629   3.458   3.657
41071W        W 9544  26.676  36.017   0.877
41072W        W 9545   1.464   1.781   0.400
41073W        W 9546  43.874   8.728  12.003
41074W        W 9547  32.031   9.771   1.842
41075W        W 9548  41.809   6.810   4.150
41076W        W 9549   7.389  34.377  10.103
41077W        W 9550  13.127  34.577  10.895
41078W        W 9551  26.008  41.828   4.669
41079W        W 9552  41.922  25.083   4.266
41080W        W 9553  33.586  30.963   2.298
41081W        W 9554   5.828  12.315  11.903
41082W        W 9555  29.434  30.041   2.330
41083W        W 9556  10.284  27.467   0.390
41084W        W 9557   6.824  14.327   4.629
41085W        W 9558  32.036  44.818   9.997
41086W        W 9559  19.703  25.111   4.773
41087W        W 9560  40.359  23.668   1.772
41088W        W 9561   6.267  39.486   3.860
41089W        W 9562   2.319  41.974  14.282
41090W        W 9563   3.943  36.935   0.403
41091W        W 9564  34.015   0.339  11.561
41092W        W 9565   7.821  40.922  10.977
41093W        W 9566  35.484  35.086  11.593
41094W        W 9567  16.132  29.470   1.828
41095W        W 9568  16.075  16.120   2.215
41096W        W 9569  38.407  44.820   4.640
41097W        W 9570  19.145  26.476   0.408
41098W        W 9571   2.940  42.357  13.338
41099W        W 9572  43.783  34.468  11.513
41100W        W 9573  32.105  39.522   4.717
41101W        W 9574  41.852  44.356  10.559
41102W        W 9575  24.510  28.551  13.960
41103W        W 9576  22.585   3.916   4.122
41104W        W 9577  44.001  29.077   2.824
41105W        W 9578  30.579  27.956  10.504
41106W        W 9579  20.760   5.234  13.418
41107W        W 9580  25.101  42.009  12.976
41108W        W 9581   2.909  27.966  12.083
41109W        W 9582   4.836  44.844   1.353
41110W        W 9583  25.601  38.868  14.027
41111W        W 9584  28.180  16.171  12.983
41112W        W 9585  16.200  40.463  12.537
41113W        W 9586  22.102   0.821  11.573
41114W        W 9587  28.936  31.413  13.903
41115W        W 9588  41.997  34.941  13.413
41116W        W 9589  21.023  22.643   4.334
41117W        W 9590  10.168  17.649   4.147
41118W        W 9591  15.192  43.993  11.104
41119W        W 9592  23.138  31.154   4.677
41120W        W 9593  31.077  28.497  11.971
41121W        W 9594  28.521  22.599   2.328
41122W        W 9595   5.789  39.523   0.413
41123W        W 9596  35.509   9.688   2.231
41124W        W 9597  16.275   5.849  14.336
41125W        W 9598   8.307   9.227  13.405
41126W        W 9599  38.363   7.892   1.374
41127W        W 9600   5.240  19.258   4.740
41128W        W 9601  37.340  23.144   3.666
41129W        W 9602  41.005  43.911  11.460
41130W        W 9603   8.694  15.122   2.370
41131W        W 9604  41.520  15.740   1.230
41132W        W 9605  31.420   0.302  11.063
41133W        W 9606  21.102  25.547   2.754
41134W        W 9607  33.493  22.609   1.390
41135W        W 9608  14.125   1.467  13.901
41136W        W 9609  27.662  38.481   2.743
41137W        W 9610  33.938  20.651  10.555
41138W        W 9611   1.274  12.188   2.773
41139W        W 9612  27.087  21.637   4.617
41140W        W 9613  18.150  36.024   3.280
41141W        W 9614  30.981  27.520   3.841
41142W        W 9615  19.039  35.549  14.405
41143W        W 9616   4.862   5.812  13.480
41144W        W 9617  30.659  28.990  14.892
41145W        W 9618  35.484  29.166   0.374
41146W        W 9619  12.701  38.975   2.806
41147W        W 9620  43.880  29.605  11.053
41148W        W 9621   5.325  23.005  13.007
41149W        W 9622  39.996  22.603   4.698
41150W        W 9623  40.500   2.770   1.214
41151W        W 9624   4.850  34.907  14.285
41152W        W 9625   2.356  34.481  11.373
41153W        W 9626  32.589  33.932   0.891
41154W        W 9627  32.109   9.374  12.891
41155W        W 9628  19.724  26.116   4.726
41156W        W 9629   2.259   7.698   0.916
41157W        W 9630  33.939  44.352   5.116
41158W        W 9631   8.317  22.692   1.441
41159W        W 9632  23.220  17.679   4.152
41160W        W 9633  20.221  41.404   2.843
41161W        W 9634   8.820  11.823  12.378
41162W        W 9635  31.905   3.233   2.418
41163W        W 9636  19.640  21.704   2.795
41164W        W 9637  14.283  26.493  14.464
41165W        W 9638  43.001  10.158   2.690
41166W        W 9639  25.992  37.485   4.672
41167W        W 9640  17.284  26.087   2.336
41168W        W 9641  37.354  40.895   3.779
41169W        W 9642   7.342   5.726  13.984
41170W        W 9643  22.244  42.907  12.455
41171W        W 9644  15.677  17.107   2.411
41172W        W 9645   5.351  39.889   4.695
41173W        W 9646   3.458   4.435   2.380
41174W        W 9647  36.915  29.172  13.999
41175W        W 9648   4.273  37.962  11.045
41176W        W 9649  22.682  26.125  13.911
41177W        W 9650  21.744  36.096   2.222
41178W        W 9651   5.907  18.093   1.304
41179W        W 9652  44.840   4.439   0.416
41180W        W 9653   1.946  26.204  14.420
41181W        W 9654  18.110   9.183  13.909
41182W        W 9655  22.727  21.254   1.796
41183W        W 9656   4.282  41.032   1.753
41184W        W 9657  26.007  14.617  13.541
41185W        W 9658  20.192  28.435   1.220
41186W        W 9659  39.060   6.798   3.191
41187W        W 9660   0.950  29.979   2.686
41188W        W 9661  22.687  14.638  11.073
41189W        W 9662  29.951  19.550   4.768
41190W        W 9663  31.514  29.011   4.313
41191W        W 9664  36.402   9.839  10.616
41192W        W 9665  43.899   0.402  10.959
41193W        W 9666  17.753  43.506   1.737
41194W        W 9667  32.007   6.272   3.263
41195W        W 9668  17.677  40.537  14.833
41196W        W 9669  34.417   5.281  13.498
41197W        W 9670  27.035  12.258   1.708
41198W        W 9671  23.156   6.328  13.862
41199W        W 9672  22.605  32.499  11.052
41200W        W 9673  37.576  39.397  12.379
41201W        W 9674  31.595  17.208   3.249
41202W        W 9675  39.975  11.797  11.108
41203W        W 9676   7.191  11.698  14.444
41204W        W 9677  23.713   6.205   4.344
41205W        W 9678  24.553  44.858   1.385
41206W        W 9679  22.541  28.575   3.781
41207W        W 9680  36.474   6.395   0.875
41208W        W 9681  41.456  18.629   0.481
41209W        W 9682  29.068  39.993  14.023
41210W        W 9683  40.470  20.681  13.982
41211W        W 9684  29.493  29.951  10.496
41212W        W 9685  36.879  23.029  11.083
41213W        W 9686  18.669  22.589   0.321
41214W        W 9687  39.411  21.262  13.018
41215W        W 9688  37.064  30.629  10.644
41216W        W 9689  19.183   2.409  13.450
41217W        W 9690  33.044  28.151  11.587
41218W        W 9691  19.130  43.352   0.819
41219W        W 9692  22.682  21.122   0.473
41220W        W 9693  24.001  27.555  13.064
41221W        W 9694  33.490  40.037   1.421
41222W        W 9695   8.169  28.142  10.936
41223W        W 9696  19.164  38.523   0.484
41224W        W 9697   5.355  29.444   0.830
41225W        W 9698   0.901  40.433  11.474
41226W        W 9699  21.136  10.274  11.078
41227W        W 9700  26.115   5.778  10.587
41228W        W 9701  41.375   1.402  10.517
41229W        W 9702  14.222  27.638   1.222
41230W        W 9703  13.703  33.026   1.742
41231W        W 9704   5.259   9.760   2.292
41232W        W 9705  41.437   2.272  13.945
41233W        W 9706   4.931   8.775  13.008
41234W        W 9707  20.144  26.523   5.262
41235W        W 9708  13.303   6.243   3.349
41236W        W 9709  16.283   6.218  10.136
41237W        W 9710   6.861  25.686   4.678
41238W        W 9711  34.588  13.133   3.180
41239W        W 9712  26.634  12.142   0.364
41240W        W 9713   6.917   8.853   4.277
41241W        W 9714  26.572   7.297   1.369
41242W        W 9715  21.253  29.158   2.682
41243W        W 9716  43.476   4.780  10.498
41244W        W 9717  29.919  21.652   1.895
41245W        W 9718  34.559  13.716  10.938
41246W        W 9719   7.202  28.092  13.376
41247W        W 9720   2.388  26.477  13.899
41248W        W 9721  39.041  29.640  10.522
41249W        W 9722  18.596  16.713   4.115
41250W        W 9723  22.566   4.267   3.822
41251W        W 9724   9.751   6.273   2.323
41252W        W 9725  15.638  22.735  13.807
41253W        W 9726  18.554   6.251  12.975
41254W        W 9727  37.900  36.507  14.288
41255W        W 9728  37.086   3.311   0.420
41256W        W 9729  35.463  31.092   3.714
41257W        W 9730  36.474  17.743  11.576
41258W        W 9731  10.853   3.834  10.442
41259W        W 9732   4.448  22.633   2.881
41260W        W 9733  36.054  29.107   1.359
41261W        W 9734  12.316  28.034  14.972
41262W        W 9735  35.911  10.200   4.325
41263W        W 9736  33.527  12.825   2.900
41264W        W 9737  12.782  17.602   3.678
41265W        W 9738   2.855  19.046   2.856
41266W        W 9739  15.736  37.899  13.361
41267W        W 9740  32.436  36.925   2.373
41268W        W 9741  32.885  30.073   4.795
41269W        W 9742  39.445  14.793   1.443
41270W        W 9743  21.223  12.637  10.585
41271W        W 9744  12.286  41.449  11.532
41272W        W 9745  22.230   0.292  11.447
41273W        W 9746  23.093  24.494  14.470
41274W        W 9747  31.593   7.391   4.690
41275W        W 9748  25.653  13.788  13.543
41276W        W 9749  37.354  14.673   4.347
41277W        W 9750  18.766  18.697  12.574
41278W        W 9751  39.920  43.809   4.171
41279W        W 9752  24.052  25.613   0.279
41280W        W 9753   7.693  13.777   3.181
41281W        W 9754  18.763  43.447   3.828
41282W        W 9755   4.381   7.825  14.303
41283W        W 9756  26.093  11.238  12.375
41284W        W 9757  15.289  40.826   4.290
41285W        W 9758  16.772  43.928  14.908
41286W        W 9759   6.198   3.256  10.981
41287W        W 9760   9.715  29.621  12.846
41288W        W 9761  37.982   5.886  13.977
41289W        W 9762  19.226  35.944  10.436
41290W        W 9763  20.690  37.571   0.250
41291W        W 9764  28.168  40.411   2.785
41292W        W 9765  41.323  14.169  14.898
41293W        W 9766   5.338  42.433  12.034
41294W        W 9767   3.740  33.433  13.048
41295W        W 9768  33.941  41.356   5.236
41296W        W 9769  25.971  36.395  14.932
41297W        W 9770  27.461   8.674  10.936
41298W        W 9771  15.304   4.367  12.826
41299W        W 9772  16.112  29.584  14.310
41300W        W 9773   6.410   5.361  11.431
41301W        W 9774  27.675  12.288  11.978
41302W        W 9775  20.541  15.187  11.455
41303W        W 9776  13.618  23.717  14.958
41304W        W 9777  44.790  15.694   4.188
41305W        W 9778   6.846  40.032   0.781
41306W        W 9779  30.552  38.884   0.888
41307W        W 9780  42.017  26.547  13.445
41308W        W 9781  20.224  19.616   4.287
41309W        W 9782   9.855  13.642   0.362
41310W        W 9783  10.290   6.387  12.446
41311W        W 9784  44.304   5.225  13.502
41312W        W 9785  21.221  24.070   2.761
41313W        W 9786  20.065  17.699  13.956
41314W        W 9787  12.125   0.938  11.550
41315W        W 9788  33.500  30.147  14.985
41316W        W 9789  26.995  30.611  13.491
41317W        W 9790  43.983  17.643   0.369
41318W        W 9791  19.254  20.251  14.895
41319W        W 9792  13.270  43.766   4.672
41320W        W 9793   2.785  32.000  11.921
41321W        W 9794  27.032  35.474  13.005
41322W        W 9795  22.573  12.790   1.355
41323W        W 9796  11.167  30.104   0.414
41324W        W 9797   0.329   6.827  10.421
41325W        W 9798  34.572  42.811   0.251
41326W        W 9799   4.917  15.139  14.890
41327W        W 9800  37.446  33.024  13.030
41328W        W 9801  42.515  20.080   2.347
41329W        W 9802  26.511  26.179   2.178
41330W        W 9803  11.653  23.584  14.394
41331W        W 9804  15.622  23.556   0.482
41332W        W 9805  21.533  19.750  13.857
41333W        W 9806  30.001  43.777   1.817
41334W        W 9807  28.944  39.405   4.614
41335W        W 9808  22.664  33.067  14.977
41336W        W 9809  32.499  42.523  11.572
41337W        W 9810  39.368  33.570   1.229
41338W        W 9811  42.834  26.689  11.039
41339W        W 9812   4.357  15.755  14.964
41340W        W 9813  33.495  25.580   1.830
41341W        W 9814  32.051   5.755   2.262
41342W        W 9815   9.788   1.442   2.294
41343W        W 9816  35.965   3.330   1.368
41344W        W 9817   3.296  44.478   3.338
41345W        W 9818  32.572  31.608  12.887
41346W        W 9819  33.899  37.935  11.469
41347W        W 9820  17.590   9.800   1.389
41348W        W 9821  44.824  43.357  14.850
41349W        W 9822  20.205  40.401   4.335
41350W        W 9823  35.853   1.857   4.239
41351W        W 9824   7.305  22.090  11.592
41352W        W 9825  40.332  12.817   1.243
41353W        W 9826  18.701  21.137  10.061
41354W        W 9827  24.211  27.100   9.546
41355W        W 9828  31.427  16.100   0.319
41356W        W 9829   9.823  42.801   3.223
41357W        W 9830   7.836  27.560  14.892
41358W        W 9831   5.695  42.452  10.991
41359W        W 9832  26.478  24.599   0.762
41360W        W 9833   8.718   0.796  11.066
41361W        W 9834  17.633  24.558   1.837
41362W        W 9835   6.896  18.554  11.116
41363W        W 9836  13.783  13.256   4.302
41364W        W 9837   3.819  22.686   2.875
41365W        W 9838  12.851  27.143  12.430
41366W        W 9839  16.581   6.686   4.834
41367W        W 9840   7.800  35.868  11.446
41368W        W 9841   7.875   9.869   2.391
41369W        W 9842  12.800  20.272   2.231
41370W        W 9843  42.318  25.494   3.655
41371W        W 9844  42.398  13.160   2.200
41372W        W 9845  21.059  22.235  13.862
41373W        W 9846  27.445  14.240  11.070
41374W        W 9847  35.454  37.947  12.366
41375W        W 9848   4.442  17.073  11.499
41376W        W 9849  10.368  36.088   0.861
41377W        W 9850  30.163  40.875   2.885
41378W        W 9851  39.944  33.988   2.220
41379W        W 9852  17.557  19.633  10.434
41380W        W 9853  42.024  22.125   0.758
41381W        W 9854   9.808  22.541   0.290
41382W        W 9855  31.636  13.785   2.863
41383W        W 9856  13.787  43.982  12.559
41384W        W 9857  38.846  44.504  11.019
41385W        W 9858   5.383  35.535   1.706
41386W        W 9859  44.798   7.375  10.408
41387W        W 9860  32.112  37.391  13.470
41388W        W 9861  44.361   5.400  14.777
41389W        W 9862  25.181   3.909  10.905
41390W        W 9863  42.486   9.776   3.684
41391W        W 9864  32.976  19.771   1.268
41392W        W 9865  19.582  41.393   4.727
41393W        W 9866   0.329   3.334  10.916
41394W        W 9867  44.841  42.993   4.313
41395W        W 9868  11.787  29.001  14.867
41396W        W 9869  40.043  29.992   2.198
41397W        W 9870   0.941   7.848  12.343
41398W        W 9871  14.223   3.817  14.996
41399W        W 9872  18.141  10.797  10.519
41400W        W 9873   2.280  27.674  14.926
41401W        W 9874   8.220   8.732   2.799
41402W        W 9875   1.434  17.175   1.264
41403W        W 9876  28.070   2.459   3.191
41404W        W 9877  24.993   0.824   4.330
41405W        W 9878  12.835  35.084   3.354
41406W        W 9879  19.623  36.385   2.851
41407W        W 9880   3.275  19.658   0.823
41408W        W 9881  24.131  32.140  10.480
41409W        W 9882  19.699  17.068  14.860
41410W        W 9883   9.201  16.647   4.630
41411W        W 9884  43.439  42.802  11.049
41412W        W 9885  35.559   9.843  14.782
41413W        W 9886  13.814  34.988   3.206
41414W        W 9887  44.466  19.059  11.454
41415W        W 9888  40.486  40.819  12.920
41416W        W 9889  10.799   5.306  14.497
41417W        W 9890  36.376   4.756   3.704
41418W        W 9891  19.163  24.606   2.828
41419W        W 9892  30.571  34.576   0.337
41420W        W 9893   1.280  19.242   1.338
41421W        W 9894  16.757  17.747   3.270
41422W        W 9895  22.528  22.696   4.235
41423W        W 9896  44.934  30.596   1.808
41424W        W 9897  32.561  32.560  13.928
41425W        W 9898  12.680   7.801  11.950
41426W        W 9899  40.873  29.038  13.405
41427W        W 9900  30.959  22.734  10.451
41428W        W 9901  16.125   5.927   2.678
41429W        W 9902  41.344  27.445   0.792
41430W        W 9903  41.345  25.675  13.424
41431W        W 9904   6.412  33.411   4.134
41432W        W 9905  39.968  11.322   4.702
41433W        W 9906  10.736   1.468  13.442
41434W        W 9907   5.688   8.317  12.936
41435W        W 9908  31.003  27.093   1.279
41436W        W 9909   9.778  40.339   3.346
41437W        W 9910  44.414  28.551   1.301
41438W        W 9911  41.835  44.923  11.380
41439W        W 9912  23.716  29.626   4.794
41440W        W 9913  15.688  14.817  13.467
41441W        W 9914   5.198  25.187  10.418
41442W        W 9915  17.694  27.034   2.184
41443W        W 9916  42.009  26.597  11.549
41444W        W 9917  41.926  41.504  13.947
41445W        W 9918  27.158  34.079   3.646
41446W        W 9919  24.122  38.913   1.888
41447W        W 9920   4.277  30.474   2.381
41448W        W 9921   3.742  26.523   4.799
41449W        W 9922  10.685  30.941   4.299
41450W        W 9923   6.712  36.844   0.353
41451W        W 9924   4.296  39.053   2.688
41452W        W 9925   3.877  38.563  10.509
41453W        W 9926  35.934   6.695   2.368
41454W        W 9927   1.384  26.019   2.777
41455W        W 9928  20.694  18.785  11.034
41456W        W 9929  42.820  12.213   3.201
41457W        W 9930   1.276   6.818   0.309
41458W        W 9931  11.196  28.502   2.741
41459W        W 9932  16.212  28.013  12.378
41460W        W 9933  37.873  21.151  11.421
41461W        W 9934  20.533   2.727  14.853
41462W        W 9935  30.044  40.333   0.283
41463W        W 9936  41.918   2.871   0.894
41464W        W 9937  12.165  30.075   3.710
41465W        W 9938   4.321  35.950  11.860
41466W        W 9939  43.837  25.640   0.875
41467W        W 9940  38.022  27.989   2.769
41468W        W 9941  12.236  42.874   2.411
41469W        W 9942  12.725  33.617  12.393
41470W        W 9943  33.400  41.857   5.760
41471W        W 9944  10.833   5.906   1.865
41472W        W 9945   1.371   2.243   0.887
41473W        W 9946  26.526  33.875  13.416
41474W        W 9947  22.066   8.264  11.592
41475W        W 9948  17.684  30.453   2.303
41476W        W 9949  15.100  22.229   1.827
41477W        W 9950  23.503   6.916   3.752
41478W        W 9951  17.274  26.973  13.416
41479W        W 9952  27.497  17.618  14.985
41480W        W 9953  12.341  17.305  11.013
41481W        W 9954  21.107  41.372   0.297
41482W        W 9955  27.067  36.853  12.055
41483W        W 9956  29.441   7.215   3.749
41484W        W 9957  37.486  43.985   3.220
41485W        W 9958  22.641  31.647  11.873
41486W        W 9959  42.511   7.363   4.204
41487W        W 9960  14.288  39.482   2.729
41488W        W 9961  33.459  13.226   4.639
41489W        W 9962  37.506   2.849  14.347
41490W        W 9963  19.698  20.166  14.901
41491W        W 9964  14.097   2.317   1.408
41492W        W 9965  44.922  23.231   1.408
41493W        W 9966  11.703  29.125  10.136
41494W        W 9967  34.533   1.358   4.761
41495W        W 9968  21.178   6.414  10.576
41496W        W 9969   5.407   7.300   2.418
41497W        W 9970   4.784  23.209  11.555
41498W        W 9971   4.237  41.020   4.274
41499W        W 9972   3.919  26.636  11.607
41500W        W 9973  37.021  16.796   0.824
41501W        W 9974  25.214   8.231  14.332
41502W        W 9975   1.773  36.479  13.816
41503W        W 9976  33.536  32.013  14.445
41504W        W 9977  11.671  42.846   3.265
41505W        W 9978   3.351   7.771  11.100
41506W        W 9979  15.822  15.130   0.352
41507W        W 9980  13.163  21.256  11.002
41508W        W 9981  14.321   5.709  12.041
41509W        W 9982  20.253  24.975   4.713
41510W        W 9983  24.169   3.848   2.185
41511W        W 9984  29.094  39.860   2.264
41512W        W 9985  18.626  10.705  11.926
41513W        W 9986  36.512   4.743   1.285
41514W        W 9987  26.542  26.051   4.778
41515W        W 9988  17.625  20.672   4.136
41516W        W 9989   3.883  12.248  14.411
41517W        W 9990  10.864  29.516   2.807
41518W        W 9991   9.194  17.616  11.539
41519W        W 9992   7.669  18.610   0.292
41520W        W 9993  43.308  22.053   2.413
41521W        W 9994  19.643  25.073   3.667
41522W        W 9995  38.878  25.468   0.313
41523W        W 9996   5.312  40.358   1.779
41524W        W 9997  30.567  43.512  10.027
41525W        W 9998  12.233  43.982  12.553
41526W        W 9999  10.311  27.082   0.731
41527W        W10000  31.085  41.497  13.532
41528W        W10001  16.670  12.117   4.271
41529W        W10002  35.876  39.055  11.399
41530W        W10003  19.686  22.127   1.832
41531W        W10004  24.588  44.271  12.938
41532W        W10005  28.498  31.904   4.642
41533W        W10006  36.858  13.834  14.775
41534W        W10007  14.733  30.522  11.857
41535W        W10008  38.484  43.806   1.885
41536W        W10009   8.299  34.449  10.446
41537W        W10010  35.381  40.889  11.068
41538W        W10011  17.275  13.638  12.367
41539W        W10012   7.686  30.063  12.006
41540W        W10013   7.870   2.908  11.997
41541W        W10014  20.198  22.080  11.998
41542W        W10015   5.422  29.943   2.271
41543W        W10016  44.314  43.893  10.134
41544W        W10017  28.484   8.770   1.850
41545W        W10018  35.519   6.390   4.771
41546W        W10019  44.385  13.227  10.940
41547W        W10020  18.192   7.189  10.489
41548W        W10021   6.697   9.811   4.758
41549W        W10022  11.159  18.191   1.837
41550W        W10023  22.106  35.525   1.932
41551W        W10024  14.701   9.336  13.337
41552W        W10025  39.880  15.186   0.372
41553W        W10026  13.107  25.189  10.506
41554W        W10027   1.427  18.114   1.408
41555W        W10028  34.093  29.077  14.385
41556W        W10029  10.724  12.739   4.153
41557W        W10030  31.128   4.264   0.316
41558W        W10031   1.756   0.450   0.758
41559W        W10032  10.803  23.508  11.040
41560W        W10033   7.860  40.900   0.247
41561W        W10034  10.662  21.550   0.446
41562W        W10035   7.763  27.153  13.512
41563W        W10036  37.360  21.746   2.803
41564W        W10037  23.146   0.913  13.810
41565W        W10038   7.820   8.782   2.746
41566W        W10039  36.532  33.596  14.784
41567W        W10040  26.088  19.693  14.853
41568W        W10041  21.165  18.143   3.642
41569W        W10042  35.016  37.884  12.367
41570W        W10043  26.568   8.858   0.946
41571W        W10044   2.829  23.148   3.207
41572W        W10045   7.879   2.326   2.705
41573W        W10046  14.676   2.841  11.116
41574W        W10047  19.661   2.435  14.769
41575W        W10048  41.792  35.006   1.424
41576W        W10049  12.759   7.842  14.952
41577W        W10050  27.128  27.151  12.342
41578W        W10051  19.649  34.608   2.672
41579W        W10052  13.612  18.111   2.356
41580W        W10053  32.040  29.497  12.002
41581W        W10054  29.108  32.115   2.348
41582W        W10055  36.501  36.084  14.908
41583W        W10056  37.076   0.745   4.643
41584W        W10057   6.293  27.564  13.380
41585W        W10058  19.551  31.421   3.739
41586W        W10059  38.066  35.518   3.353
41587W        W10060  15.295  21.237   1.254
41588W        W10061  31.917  12.279   0.437
41589W        W10062   6.382   0.870  11.100
41590W        W10063  38.532  29.500  11.523
41591W        W10064  44.502  44.000   1.918
41592W        W10065  30.113  11.755   2.224
41593W        W10066   0.272  32.929   4.631
41594W        W10067  44.339  16.109   1.717
41595W        W10068  32.050  35.422  11.887
41596W        W10069  34.956  44.485   2.725
41597W        W10070  34.474   3.761   1.911
41598W        W10071  12.676  18.130  14.018
41599W        W10072   4.362  40.530   3.318
41600W        W10073   9.774   2.792   4.791
41601W        W10074  23.002   2.915  12.404
41602W        W10075  10.682  43.340   0.860
41603W        W10076  22.592  35.514   2.762
41604W        W10077   6.866   6.330   4.190
41605W        W10078  42.450  44.445   4.737
41606W        W10079  15.196  30.101  13.041
41607W        W10080  12.699  28.933   0.401
41608W        W10081  14.714  22.538   4.743
41609W        W10082  19.629  38.404   0.856
41610W        W10083  19.740  39.467  10.570
41611W        W10084  43.373  34.564   4.777
41612W        W10085   4.329  28.483   3.351
41613W        W10086   0.852   1.879  10.490
41614W        W10087  20.671  23.079  11.000
41615W        W10088  33.040   6.810   1.363
41616W        W10089  27.952   4.283   3.681
41617W        W10090  33.381   9.841  12.918
41618W        W10091   5.852  43.959   3.254
41619W        W10092  30.133  11.158  10.601
41620W        W10093  41.418  12.674   4.656
41621W        W10094   1.889  25.113  13.531
41622W        W10095  29.469   5.289   0.296
41623W        W10096  28.144  35.059  10.076
41624W        W10097   9.387  16.072  13.040
41625W        W10098  13.317  13.674  12.076
41626W        W10099  26.624   7.735   3.331
41627W        W10100  25.136  35.974   1.247
41628W        W10101  40.314  39.490  14.847
41629W        W10102  22.723  33.121   0.316
41630W        W10103  39.343  33.033  13.492
41631W        W10104   2.321  16.109   0.403
41632W        W10105  31.563  19.089   3.339
41633W        W10106  10.740  42.508   1.914
41634W        W10107   8.311   1.788  13.000
41635W        W10108  21.633  10.176  13.482
41636W        W10109  43.962  23.084   0.311
41637W        W10110  27.570  26.148   3.723
41638W        W10111   5.900  39.873  14.451
41639W        W10112  11.257   2.461  11.125
41640W        W10113  26.614  41.397   4.766
41641W        W10114  40.892  19.062   1.733
41642W        W10115  40.475  15.696   5.101
41643W        W10116  17.289   1.759   3.208
41644W        W10117  25.649  29.999  11.066
41645W        W10118  40.478  27.001  10.946
41646W        W10119  28.023   9.843  12.500
41647W        W10120  38.068   3.254  12.066
41648W        W10121  30.449   7.676  14.340
41649W        W10122  26.168  43.868   3.769
41650W        W10123   0.469   1.440   4.774
41651W        W10124  12.717  43.380   4.752
41652W        W10125  28.498   4.702  11.887
41653W        W10126  39.316  29.499  12.030
41654W        W10127  36.464  19.571  10.041
41655W        W10128  31.558  17.603  14.359
41656W        W10129  34.955  26.493  14.785
41657W        W10130  29.499  20.689   2.692
41658W        W10131  43.393  29.166  11.089
41659W        W10132  13.622  33.042  10.636
41660W        W10133  14.332  23.532   3.318
41661W        W10134  11.690   0.258  14.442
41662W        W10135  16.161  36.455   3.362
41663W        W10136  36.915  14.643   1.240
41664W        W10137   8.817  29.656  11.855
41665W        W10138  29.466  31.073   3.657
41666W        W10139  38.394  27.487   4.218
41667W        W10140  27.051  33.414   2.318
41668W        W10141  10.247   0.788   1.840
41669W        W10142   6.891  44.925   1.379
41670W        W10143   3.919  44.862   0.402
41671W        W10144  10.202   5.914   1.254
41672W        W10145   5.334   2.760   3.215
41673W        W10146  20.239   2.423  11.896
41674W        W10147  11.636  30.002   1.265
41675W        W10148  44.456  38.354  12.425
41676W        W10149  39.845  38.999  14.931
41677W        W10150  40.448  16.109   3.770
41678W        W10151  26.057  25.700   4.136
41679W        W10152  42.864  17.165   1.428
41680W        W10153  13.782  25.667  11.099
41681W        W10154  10.202  41.417  14.964
41682W        W10155  32.605   7.219  13.839
41683W        W10156  25.495  36.576  11.582
41684W        W10157  30.993  34.417   0.905
41685W        W10158  43.918   2.271   4.811
41686W        W10159  27.095  16.788  13.447
41687W        W10160  37.356  12.304   2.685
41688W        W10161   6.862  28.467  14.816
41689W        W10162  42.002  30.035  12.983
41690W        W10163  22.572  37.967   4.336
41691W        W10164  27.500  14.644  14.998
41692W        W10165  13.250  33.601  13.030
41693W        W10166   6.287  10.190  11.516
41694W        W10167  10.222   6.799   1.447
41695W        W10168   2.837  19.635  13.864
41696W        W10169  44.834  24.161  13.999
41697W        W10170   7.890  24.061   5.614
41698W        W10171  38.506  20.263  14.767
41699W        W10172   3.852  13.334  13.464
41700W        W10173  30.556  17.664   3.742
41701W        W10174  11.221  16.222   0.875
41702W        W10175  21.631   4.938  14.443
41703W        W10176  19.615  28.442   2.381
41704W        W10177  10.837  43.996   0.254
41705W        W10178  28.439  29.528   4.334
41706W        W10179  36.573  21.726  13.346
41707W        W10180  16.604  44.318  10.611
41708W        W10181  11.165  28.015   3.648
41709W        W10182  38.014   5.696   2.258
41710W        W10183  13.834  32.901  10.963
41711W        W10184  17.758  27.143  14.485
41712W        W10185  31.462   8.308   2.860
41713W        W10186  35.387  32.016   1.261
41714W        W10187  17.653  35.359  11.084
41715W        W10188  23.152   3.452   4.812
41716W        W10189  38.979   8.194  13.409
41717W        W10190  21.733  24.006   1.295
41718W        W10191  23.071  31.552  12.069
41719W        W10192  29.482   3.264   0.735
41720W        W10193  10.231   7.414  14.001
41721W        W10194  19.640  27.616  14.793
41722W        W10195  16.267  30.523   0.484
41723W        W10196  27.146  21.176  13.988
41724W        W10197  42.018  30.558   2.328
41725W        W10198   8.799  28.658   1.722
41726W        W10199  41.467  35.105   1.784
41727W        W10200  30.030  42.935   2.802
41728W        W10201  23.717  30.944  13.336
41729W        W10202  31.641  44.840  12.561
41730W        W10203  33.588  40.986   1.426
41731W        W10204  12.181  19.637  13.841
41732W        W10205   9.877  41.793   2.385
41733W        W10206  40.830   6.775   4.165
41734W        W10207  33.908  33.915  10.961
41735W        W10208   8.683  38.386   0.252
41736W        W10209  15.270  42.950   1.294
41737W        W10210  39.555  28.583   4.828
41738W        W10211  44.993   3.301  11.973
41739W        W10212  44.289  16.803   2.708
41740W        W10213  25.652  28.679  14.372
41741W        W10214  10.858   8.360   4.827
41742W        W10215   3.906  23.030   0.296
41743W        W10216  16.287  19.181  13.814
41744W        W10217  43.948  18.283   3.697
41745W        W10218  11.668  27.677   1.276
41746W        W10219  12.239   4.838  12.500
41747W        W10220  15.799  42.346   4.348
41748W        W10221  38.032  31.918  14.508
41749W        W10222  12.237  41.842  12.523
41750W        W10223  44.942  25.496   1.307
41751W        W10224   5.269  11.626  14.389
41752W        W10225  33.054  31.437   4.335
41753W        W10226  27.024  12.836   1.911
41754W        W10227  27.578   1.439   2.821
41755W        W10228  16.253  10.336  14.879
41756W        W10229  43.945  40.427  12.470
41757W        W10230   9.751   0.386   3.761
41758W        W10231  13.287   7.184  10.953
41759W        W10232  26.161  39.997  14.806
41760W        W10233  29.052   7.903  14.401
41761W        W10234  35.567  30.576  11.380
41762W        W10235  11.698  33.986  13.481
41763W        W10236  26.962  14.637   1.877
41764W        W10237  28.052  18.148  14.275
41765W        W10238  30.564   2.407  13.472
41766W        W10239  19.062  34.895  13.905
41767W        W10240  41.438  23.157   3.834
41768W        W10241  31.923  12.208   4.678
41769W        W10242  31.014   5.721  12.507
41770W        W10243  44.961  32.425  11.460
41771W        W10244   0.485   9.672   2.337
41772W        W10245  16.655  41.299   1.423
41773W        W10246  20.624   0.276  11.934
41774W        W10247   0.894  36.995   4.270
41775W        W10248   7.867  27.638   1.347
41776W        W10249  43.302  36.080  13.794
41777W        W10250  31.989  22.636   2.411
41778W        W10251  42.292   1.826  12.928
41779W        W10252  40.977  30.457   2.359
41780W        W10253  44.416   6.333  14.450
41781W        W10254   0.255  22.144   1.263
41782W        W10255  36.852  42.443   3.830
41783W        W10256  31.110  32.625   4.260
41784W        W10257  29.483  12.277   0.386
41785W        W10258  31.036  37.030   4.763
41786W        W10259  39.923   8.772  12.910
41787W        W10260  35.429  41.799   0.796
41788W        W10261  30.597  14.183  14.466
41789W        W10262  21.219   0.404  11.050
41790W        W10263  26.955  33.588  13.985
41791W        W10264  20.583   5.268  12.094
41792W        W10265  10.376  23.164  14.444
41793W        W10266  11.690  37.385  12.516
41794W        W10267  31.572   8.807   1.871
41795W        W10268  40.485  32.933   0.314
41796W        W10269  19.560  10.727   1.874
41797W        W10270  27.193  30.956   0.935
41798W        W10271   1.776  20.180  14.806
41799W        W10272  16.725  16.673   1.866
41800W        W10273  15.719  12.635  12.346
41801W        W10274  11.174  25.480  10.552
41802W        W10275  26.980   1.377  12.434
41803W        W10276  14.146  15.262   2.411
41804W        W10277  11.294  23.213  11.568
41805W        W10278  26.089  26.053   4.160
41806W        W10279  20.208   6.767   3.843
41807W        W10280  29.072  10.848  10.522
41808W        W10281   9.177  38.878  11.440
41809W        W10282  20.599   8.801  13.862
41810W        W10283  33.128  22.249   4.192
41811W        W10284   3.278  35.034   3.726
41812W        W10285  13.673   8.900  13.038
41813W        W10286  33.099   8.774  10.956
41814W        W10287  40.910  35.877  13.349
41815W        W10288  38.328  34.048  13.886
41816W        W10289  42.839  26.682  12.495
41817W        W10290  17.151  20.715  12.915
41818W        W10291  34.966  29.966  13.048
41819W        W10292   4.733  14.699  12.411
41820W        W10293   3.386   2.767   1.864
41821W        W10294  40.906  39.372  10.985
41822W        W10295  19.562  24.068   2.716
41823W        W10296  20.536  13.743   3.778
41824W        W10297  29.963  19.218  11.500
41825W        W10298  41.478  40.316   2.880
41826W        W10299  43.813  23.177  13.871
41827W        W10300  21.650  27.686   1.267
41828W        W10301   3.899   4.394   4.127
41829W        W10302   4.722  31.069   1.715
41830W        W10303  37.907   6.789   1.356
41831W        W10304   2.245  29.649   2.274
41832W        W10305  16.629  24.592   3.823
41833W        W10306  36.548   1.924   3.168
41834W        W10307  34.081  43.414  10.623
41835W        W10308  25.543  13.798  11.871
41836W        W10309  18.688  26.579   9.997
41837W        W10310  38.352   3.438  12.576
41838W        W10311  29.444   6.797  14.999
41839W        W10312  40.365  24.539   0.739
41840W        W10313   2.807  17.746   0.940
41841W        W10314  19.607  37.580   1.421
41842W        W10315  23.191   3.435  13.021
41843W        W10316  19.555  24.564   3.762
41844W        W10317  15.809  36.060   4.332
41845W        W10318  31.555  12.189   0.909
41846W        W10319   8.662  32.949   0.318
41847W        W10320   2.960  12.780  11.042
41848W        W10321  21.029  19.111  14.001
41849W        W10322  12.221   6.694  11.969
41850W        W10323  26.599  36.456  11.983
41851W        W10324  36.423  40.946   3.226
41852W        W10325  18.600  33.430  14.369
41853W        W10326  10.653  41.416   1.746
41854W        W10327   4.429   9.220   3.254
41855W        W10328  15.595   5.695   1.316
41856W        W10329  10.240  34.096  10.555
41857W        W10330  35.872  35.919   1.919
41858W        W10331  14.724  26.973   1.731
41859W        W10332  27.677  23.687  11.462
41860W        W10333  33.127  36.055   3.698
41861W        W10334  25.079  38.020   0.765
41862W        W10335   5.221  33.956   1.840
41863W        W10336  24.226   4.356   4.135
41864W        W10337   2.340   7.683  10.526
41865W        W10338  43.466   1.927   0.319
41866W        W10339   7.408  21.556  14.395
41867W        W10340  31.494  30.560   4.306
41868W        W10341  31.616   8.300   4.301
41869W        W10342  17.142  35.592  11.032
41870W        W10343  30.433  39.945   2.236
41871W        W10344  44.368  29.946   4.222
41872W        W10345  13.623  22.094   1.742
41873W        W10346  19.192  34.563  14.352
41874W        W10347   5.237  41.902   3.325
41875W        W10348   9.350   4.209  11.953
41876W        W10349  39.992  36.053   0.933
41877W        W10350   0.989  10.653  14.302
41878W        W10351  23.028   7.375   0.889
41879W        W10352  10.837  28.009   0.393
41880W        W10353   2.743   6.418   1.804
41881W        W10354  18.179  13.734  14.362
41882W        W10355  16.566  36.908   0.917
41883W        W10356  29.927  38.067   2.875
41884W        W10357  32.117  32.905   2.682
41885W        W10358  39.483  20.193   0.783
41886W        W10359  17.791  19.660  14.417
41887W        W10360  37.998  28.037  12.851
41888W        W10361   8.173  42.421  14.336
41889W        W10362  18.099  18.297  14.980
41890W        W10363  37.437  35.490  13.948
41891W        W10364   7.219  12.322   1.863
41892W        W10365   7.703  40.046  14.326
41893W        W10366  30.588   5.430  12.987
41894W        W10367  32.511  42.027  11.395
41895W        W10368  15.584  18.562  14.508
41896W        W10369   3.267  10.308   2.784
41897W        W10370   6.373  16.613  12.406
41898W        W10371   9.813   3.892   3.277
41899W        W10372  37.407   1.870   2.753
41900W        W10373   9.887  37.358  13.360
41901W        W10374  26.086  15.102   4.174
41902W        W10375  16.754   6.917   2.249
41903W        W10376  39.336   1.402  10.938
41904W        W10377  18.581  41.870   2.306
41905W        W10378  31.905  43.918   1.842
41906W        W10379   4.317   6.890   5.227
41907W        W10380  29.106  31.589   4.774
41908W        W10381  38.936   8.698   3.172
41909W        W10382   1.850  41.415   0.300
41910W        W10383  11.770   9.357   0.904
41911W        W10384  31.944  29.497  14.344
41912W        W10385  17.725  23.550  10.485
41913W        W10386  34.111  19.106  11.466
41914W        W10387  11.811  13.625  11.093
41915W        W10388  35.497  35.575   1.242
41916W        W10389  20.197  10.812   3.710
41917W        W10390  33.887  31.956   1.723
41918W        W10391  15.793   3.837   2.758
41919W        W10392   9.379   6.309  11.458
41920W        W10393  42.932  43.333  13.018
41921W        W10394  16.316  30.996   1.284
41922W        W10395  33.584  16.187  11.102
41923W        W10396  42.909  33.444  10.418
41924W        W10397   3.858  17.085  13.914
41925W        W10398  44.406  25.500  13.416
41926W        W10399  36.552  21.078   1.390
41927W        W10400   7.854  26.522  14.865
41928W        W10401   8.349  34.599  14.909
41929W        W10402  17.230   6.268  14.403
41930W        W10403  38.451   6.241  11.567
41931W        W10404  41.421   0.347   1.749
41932W        W10405  42.871  35.976  13.936
41933W        W10406  38.452  17.614  14.911
41934W        W10407  44.373  40.034  12.401
41935W        W10408  32.898  28.457   0.380
41936W        W10409  27.525  31.943  12.899
41937W        W10410  38.471   6.304  11.081
41938W        W10411  14.224  31.488   1.395
41939W        W10412  15.101  10.813   3.320
41940W        W10413  22.530  44.930   3.689
41941W        W10414  11.867  29.139  10.457
41942W        W10415  10.255   4.363   0.892
41943W        W10416   5.219  20.269   4.243
41944W        W10417  20.103   7.792   4.610
41945W        W10418  33.035  44.781   4.332
41946W        W10419  34.533  21.570   2.339
41947W        W10420  36.953  32.980  11.565
41948W        W10421  44.380   6.392  14.929
41949W        W10422  21.593  33.490   0.760
41950W        W10423  14.654  25.702   1.433
41951W        W10424  26.180   0.321  14.512
41952W        W10425   4.383  44.429   2.817
41953W        W10426  31.984  15.260  13.895
41954W        W10427  30.965  27.036  12.423
41955W        W10428  39.984  10.776  11.898
41956W        W10429  27.120   6.293   1.716
41957W        W10430  13.625  41.409  13.891
41958W        W10431  34.516  28.566  14.509
41959W        W10432  27.026  42.850  14.783
41960W        W10433  35.590  25.062   4.208
41961W        W10434   5.332   0.259   2.364
41962W        W10435   9.235  34.891  10.547
41963W        W10436   9.290  11.340  14.860
41964W        W10437  10.645   3.386   1.219
41965W        W10438  40.510  38.340  14.419
41966W        W10439   4.769  42.515   3.813
41967W        W10440  17.570  25.132   2.746
41968W        W10441  41.483  35.889   1.442
41969W        W10442  34.377  33.103   4.689
41970W        W10443  23.673  44.439   4.345
41971W        W10444  25.086  18.272  14.451
41972W        W10445  17.141  17.714  14.997
41973W        W10446   9.693  20.254  12.960
41974W        W10447  41.839  39.940  14.834
41975W        W10448  42.382  11.826  14.956
41976W        W10449  39.463   3.281  14.371
41977W        W10450  43.433  39.520   2.690
41978W        W10451  36.442  11.811   0.927
41979W        W10452  36.481  24.576  12.975
41980W        W10453  23.702   3.242  14.385
41981W        W10454  30.947   7.689   4.639
41982W        W10455  21.242  20.163  13.952
41983W        W10456  28.542  43.907  14.898
41984W        W10457  23.529   6.883  12.420
41985W        W10458  10.690  33.945   5.747
41986W        W10459   0.269  30.938   2.774
41987W        W10460  20.082  31.966   4.139
41988W        W10461   3.460  33.069   4.163
41989W        W10462  31.040  34.902   2.829
41990W        W10463  36.495  32.545   2.876
41991W        W10464  21.552  21.534  12.946
41992W        W10465  30.524   4.445  13.527
41993W        W10466   5.329   1.883  11.504
41994W        W10467  10.364  35.025   0.779
41995W        W10468  37.913  43.826  12.921
41996W        W10469   2.944  42.412  11.935
41997W        W10470  26.989  42.916   4.192
41998W        W10471  35.941   2.418  13.889
41999W        W10472  26.038  18.159  11.581
42000W        W10473  24.138  12.156  14.398
42001W        W10474   9.272  11.180  13.839
42002W        W10475  18.760   0.783  14.027
42003W        W10476   9.243  13.225  12.450
42004W        W10477  13.716   8.206  13.814
42005W        W10478  24.642  24.546   2.671
42006W        W10479  36.503  14.796   4.275
42007W        W10480  32.429  37.349   3.352
42008W        W10481  16.607  31.904   3.803
42009W        W10482  35.562  12.193   3.288
42010W        W10483  16.704  39.011  11.120
42011W        W10484  12.213   5.757   3.252
42012W        W10485  27.125   9.765   3.806
42013W        W10486  12.777  12.356   1.910
42014W        W10487  29.532  22.507   4.738
42015W        W10488   5.384  13.313  10.436
42016W        W10489  38.020  10.793   4.687
42017W        W10490  34.587  22.053   3.172
42018W        W10491  16.575  43.491   3.361
42019W        W10492  13.114  26.529   0.763
42020W        W10493   4.359  33.511  13.959
42021W        W10494   0.412  36.558   3.254
42022W        W10495  44.938  25.171   1.725
42023W        W10496  30.516   8.186   1.449
42024W        W10497  40.444  32.099  13.464
42025W        W10498  19.237  42.525   1.293
42026W        W10499   7.695  23.018  12.457
42027W        W10500  22.584  19.576  13.925
42028W        W10501  22.100   4.806  13.539
42029W        W10502  40.306  12.801   5.100
42030W        W10503  44.320   9.792   0.361
42031W        W10504   4.852  24.552   4.182
42032W        W10505  13.238   3.305   3.777
42033W        W10506  11.301  42.864   0.891
42034W        W10507   1.389  22.048  11.858
42035W        W10508  10.755   8.238  14.946
42036W        W10509  43.937  23.018   4.126
42037W        W10510  33.964  42.311  10.450
42038W        W10511  29.069  17.644   2.212
42039W        W10512   9.805  25.070  12.436
42040W        W10513  28.953  25.510  12.041
42041W        W10514  19.099  41.511  10.896
42042W        W10515  11.850  25.994   2.894
42043W        W10516   8.848   9.879   0.961
42044W        W10517  41.379   6.770   1.906
42045W        W10518  35.024   2.439   0.259
42046W        W10519  33.509  10.788  13.330
42047W        W10520  39.024  13.336   2.259
42048W        W10521  11.692   7.845  13.831
42049W        W10522  13.699  13.695   3.147
42050W        W10523  39.409  29.619  13.952
42051W        W10524  14.147  43.849   0.452
42052W        W10525   9.218   9.831  12.839
42053W        W10526  12.691  40.410  13.417
42054W        W10527  13.646   1.354   0.343
42055W        W10528  42.483  29.110  13.791
42056W        W10529  43.865  12.207   2.230
42057W        W10530   6.750   6.758   2.804
42058W        W10531  14.596  39.021   5.276
42059W        W10532  31.047   0.964  11.863
42060W        W10533  36.948   0.861  10.517
42061W        W10534  24.060  44.303  14.431
42062W        W10535   6.218   5.416  12.841
42063W        W10536  34.537  11.309   1.379
42064W        W10537  14.763  30.550   5.268
42065W        W10538   1.888  30.922   4.776
42066W        W10539  14.290  12.704  10.928
42067W        W10540   7.343  37.847   3.803
42068W        W10541  29.478  39.888  12.077
42069W        W10542  20.182   6.394  13.804
42070W        W10543  29.062  43.831  11.477
42071W        W10544  16.645  23.222  13.935
42072W        W10545  36.935  14.771   2.790
42073W        W10546  23.623   7.725  13.419
42074W        W10547   0.336  35.086   3.771
42075W        W10548  12.239  12.818   0.379
42076W        W10549  12.798  41.967   0.330
42077W        W10550  41.858   8.848  14.031
42078W        W10551  29.663  36.391   0.337
42079W        W10552  34.113  16.165  11.407
42080W        W10553  24.046  22.742  10.010
42081W        W10554  24.212  33.546  14.851
42082W        W10555  43.348   9.768  11.414
42083W        W10556  41.008  39.864   2.380
42084W        W10557  22.735  41.520  12.565
42085W        W10558  32.989   1.868   3.184
42086W        W10559  25.552   1.441   1.451
42087W        W10560  19.230  28.145   1.918
42088W        W10561  19.201   4.419   4.286
42089W        W10562  33.008  40.531  13.905
42090W        W10563  43.292  13.250  13.412
42091W        W10564  15.636  30.640   0.924
42092W        W10565  41.044  31.416   4.638
42093W        W10566  14.248  38.349  13.913
42094W        W10567  26.038  40.497   3.337
42095W        W10568  39.553  10.827   4.293
42096W        W10569  12.789  22.160  12.535
42097W        W10570   4.704  18.768   3.248
42098W        W10571  25.630   2.821  11.107
42099W        W10572  43.937  18.639   1.759
42100W        W10573  12.348   1.854   4.233
42101W        W10574  37.941   6.271   2.204
42102W        W10575  20.626   3.770  12.578
42103W        W10576   1.333  18.254  10.546
42104W        W10577  21.682   9.362  11.057
42105W        W10578   3.456  35.963   0.890
42106W        W10579  17.293  22.528  14.480
42107W        W10580  23.074  13.237  13.387
42108W        W10581  39.534  42.790   2.873
42109W        W10582  14.158   3.242  11.036
42110W        W10583   4.733  44.965  12.533
42111W        W10584  32.030   6.393   0.332
42112W        W10585  31.497   6.684   1.793
42113W        W10586  15.776  26.017  10.583
42114W        W10587  25.034  42.334  13.814
42115W        W10588  28.499  43.985  10.504
42116W        W10589  40.380  30.044   1.791
42117W        W10590  20.080  41.467   2.387
42118W        W10591  21.577  17.260   3.630
42119W        W10592  20.724  34.548   2.261
42120W        W10593  15.811   2.418  14.510
42121W        W10594  40.400  31.648   1.897
42122W        W10595  44.008  15.318  14.490
42123W        W10596   0.797  35.870   4.829
42124W        W10597  39.952  44.771  14.397
42125W        W10598  38.495  22.625  14.881
42126W        W10599   1.315  12.217  13.365
42127W        W10600   4.819  16.608  11.921
42128W        W10601  11.310   1.827   3.222
42129W        W10602  32.994  22.059   2.733
42130W        W10603  26.176  17.090  10.413
42131W        W10604   7.286  31.404  13.353
42132W        W10605  35.026   1.318  14.310
42133W        W10606  34.939  32.597  12.991
42134W        W10607  23.035  15.674   2.207
42135W        W10608  28.058  17.089  10.594
42136W        W10609   7.233  43.342   1.699
42137W        W10610  12.265   5.748   3.696
42138W        W10611  21.720   0.285  10.890
42139W        W10612   2.347  39.062  14.904
42140W        W10613  38.904   5.410   4.161
42141W        W10614  32.122  18.599   3.746
42142W        W10615   8.274   7.201   0.774
42143W        W10616  32.982  35.020   1.806
42144W        W10617  37.493  16.740  13.057
42145W        W10618  16.283  12.306  14.444
42146W        W10619  10.335  40.827   2.825
42147W        W10620  25.675   3.266  12.954
42148W        W10621  11.705  44.866   4.298
42149W        W10622  28.185  19.637  14.015
42150W        W10623  42.953  13.309  14.770
42151W        W10624  20.613  17.197  13.450
42152W        W10625  15.222  22.543  14.781
42153W        W10626  12.855   7.849  11.569
42154W        W10627  20.692   9.796   0.887
42155W        W10628  11.153  25.612  12.844
42156W        W10629  40.951  12.794  14.785
42157W        W10630  25.541   5.707   4.165
42158W        W10631  32.929  21.747  12.389
42159W        W10632  14.682   0.300  13.052
42160W        W10633  30.637  14.736   4.809
42161W        W10634   4.365  33.491   4.285
42162W        W10635  41.477  23.530   4.691
42163W        W10636  40.024  19.193   4.301
42164W        W10637  32.613  36.411   0.783
42165W        W10638   3.406  36.501  11.554
42166W        W10639  37.425  32.540  12.014
42167W        W10640  30.939   5.317   1.890
42168W        W10641  32.033  37.441  11.398
42169W        W10642  24.049  42.901  14.468
42170W        W10643  23.114  20.595  14.784
42171W        W10644  32.567  27.133   2.322
42172W        W10645  30.959  38.503   0.861
42173W        W10646   6.879  31.039   4.693
42174W        W10647   5.407  35.549  13.407
42175W        W10648   9.737   1.407  12.356
42176W        W10649   1.963   6.279  11.532
42177W        W10650  11.669  41.454  14.843
42178W        W10651  29.524   1.876   2.229
42179W        W10652  24.490  28.475  12.382
42180W        W10653  32.074  20.126   1.361
42181W        W10654  29.136  41.453  12.348
42182W        W10655  29.027   7.368  13.480
42183W        W10656  35.500  13.159   0.840
42184W        W10657  14.721  24.055  14.490
42185W        W10658  27.102  43.424  14.916
42186W        W10659  27.982  43.393   3.289
42187W        W10660  29.503  20.255  11.000
42188W        W10661  14.766  31.103  12.057
42189W        W10662   6.844  41.472  12.047
42190W        W10663   7.266  27.986   4.180
42191W        W10664   9.709  36.456   4.665
42192W        W10665  26.172  12.226  13.392
42193W        W10666  27.650  32.927  10.951
42194W        W10667  35.025  10.317  12.558
42195W        W10668  24.630   1.262  11.032
42196W        W10669   8.886  41.841   1.326
42197W        W10670   7.267  23.542  12.020
42198W        W10671  43.981  24.985   2.359
42199W        W10672   6.896  36.361   3.771
42200W        W10673  15.818  20.712   3.642
42201W        W10674  27.534  27.606  12.861
42202W        W10675   0.867  15.819   4.155
42203W        W10676   1.354  28.504   1.806
42204W        W10677   1.817  14.740  10.935
42205W        W10678   4.799  18.791  14.388
42206W        W10679  36.564  10.794  13.862
42207W        W10680  22.637  28.079  11.108
42208W        W10681   8.731  41.028   1.417
42209W        W10682   8.204  26.637  13.850
42210W        W10683  15.803  35.602  11.586
42211W        W10684   4.406  24.006  11.407
42212W        W10685  33.876  39.026   4.680
42213W        W10686  34.511  10.846  13.886
42214W        W10687  33.503  21.143  14.278
42215W        W10688  20.203  23.228   4.191
42216W        W10689  13.616  27.095   4.755
42217W        W10690  15.582   4.361  12.448
42218W        W10691  24.214  15.746   3.243
42219W        W10692  16.079  26.498  14.776
42220W        W10693  40.303  33.451   4.146
42221W        W10694  43.892  21.163  13.413
42222W        W10695  17.625   3.939   0.928
42223W        W10696  44.784  10.765  13.395
42224W        W10697   1.758  24.534   2.740
42225W        W10698  36.410  17.599  10.968
42226W        W10699  43.457   0.409  13.038
42227W        W10700  32.006  41.509  13.939
42228W        W10701  27.688   3.415   4.835
42229W        W10702  44.998   9.331  13.895
42230W        W10703  40.998  26.030   3.650
42231W        W10704  16.097   6.757  14.878
42232W        W10705  15.765   9.859  14.433
42233W        W10706  16.136  22.681  12.396
42234W        W10707  24.223  14.678   5.778
42235W        W10708  26.476   8.794  11.483
42236W        W10709   0.444  30.624  11.042
42237W        W10710  18.266  22.566   3.855
42238W        W10711  30.147   0.406   4.125
42239W        W10712  35.544  31.922  14.811
42240W        W10713  26.649  29.562   2.856
42241W        W10714  42.387   6.826   3.344
42242W        W10715   2.856  36.851  10.503
42243W        W10716  10.669  26.079  14.909
42244W        W10717  33.972  26.188   2.733
42245W        W10718  15.278  16.747   4.251
42246W        W10719  16.800  41.361   4.829
42247W        W10720  42.326  12.611   4.232
42248W        W10721   5.417  24.690   1.745
42249W        W10722  31.970   7.764  14.806
42250W        W10723   6.275  22.621   4.114
42251W        W10724  25.616  30.089  11.379
42252W        W10725  12.228  37.072   4.338
42253W        W10726  44.427  30.014  13.324
42254W        W10727  36.551   5.346   1.257
42255W        W10728  14.706  11.253   3.634
42256W        W10729  39.924  33.000  14.425
42257W        W10730   9.181   4.429  14.771
42258W        W10731   3.244  30.416   1.312
42259W        W10732  24.035  37.434  13.446
42260W        W10733  23.122  12.731   0.484
42261W        W10734  21.127  43.497  13.348
42262W        W10735  34.504  33.579   1.732
42263W        W10736  25.025  19.212   2.688
42264W        W10737  34.550  35.570  10.518
42265W        W10738  23.593  35.367   3.159
42266W        W10739  17.615  17.619  13.475
42267W        W10740   8.307  30.480  11.098
42268W        W10741   8.808  33.559   9.554
42269W        W10742  40.940  17.272  13.808
42270W        W10743  15.596  26.674  13.004
42271W        W10744  41.037  36.080   0.807
42272W        W10745  19.267  12.155   3.638
42273W        W10746   7.746  13.140  13.814
42274W        W10747   3.368  25.513  10.549
42275W        W10748   8.301  16.631  11.553
42276W        W10749  16.157  17.639  12.838
42277W        W10750  30.613  20.679  13.030
42278W        W10751   0.916  11.696  12.060
42279W        W10752  37.080  26.475  10.988
42280W        W10753   5.752  27.046  11.100
42281W        W10754  21.250  33.521   3.837
42282W        W10755  34.399  34.028  13.338
42283W        W10756   7.756  11.867  14.861
42284W        W10757  24.179  17.768  12.977
42285W        W10758   0.390  35.912   2.348
42286W        W10759  44.357   3.335  10.955
42287W        W10760  13.253  18.262  10.486
42288W        W10761  11.734  39.445   2.228
42289W        W10762  28.643  11.303  11.926
42290W        W10763   1.929  16.250   4.342
42291W        W10764  35.968  16.092  10.905
42292W        W10765  42.005   6.219  13.949
42293W        W10766  43.507  43.476  14.796
42294W        W10767  36.492  37.930   2.331
42295W        W10768  15.168   4.817  11.123
42296W        W10769  25.500  22.658  14.790
42297W        W10770  17.624   7.867   3.222
42298W        W10771  31.144   1.802   3.265
42299W        W10772  40.515  25.174  13.848
42300W        W10773  24.636  39.842  13.467
42301W        W10774  20.767  35.538   3.265
42302W        W10775  25.964  30.625  11.950
42303W        W10776  13.709   3.400   2.195
42304W        W10777  40.014  36.586   1.409
42305W        W10778   5.803  19.590   3.683
42306W        W10779  17.190  11.808   1.765
42307W        W10780  14.817  24.622   1.421
42308W        W10781   7.860  22.704   0.368
42309W        W10782  14.141   0.759  11.535
42310W        W10783   9.817  22.618  11.498
42311W        W10784  15.590   0.885  14.471
42312W        W10785  11.700  16.654  14.939
42313W        W10786  24.707  23.693  14.954
42314W        W10787  40.520  19.631   1.855
42315W        W10788  36.001   9.312   3.773
42316W        W10789  41.954  22.130  14.872
42317W        W10790  33.518   8.675  11.527
42318W        W10791  19.667  22.122   0.438
42319W        W10792   4.276  27.511  10.966
42320W        W10793   2.336  21.541  11.476
42321W        W10794  15.816  16.149  13.424
42322W        W10795   1.957   4.934  14.492
42323W        W10796  40.388  29.512  11.982
42324W        W10797  20.716  39.345   3.752
42325W        W10798  30.088  13.288  14.478
42326W        W10799  20.710  39.322   4.348
42327W        W10800  10.748  25.662   1.384
42328W        W10801   5.808  42.879  13.031
42329W        W10802  11.173  31.487  14.929
42330W        W10803  27.497   8.281  13.505
42331W        W10804  32.904   6.405   4.783
42332W        W10805  27.536  31.493   2.877
42333W        W10806  44.409   1.844   1.340
42334W        W10807   7.746   8.392  11.505
42335W        W10808   2.292   1.863  12.435
42336W        W10809  28.661  34.417   2.719
42337W        W10810  25.710   8.672   1.920
42338W        W10811  41.450  35.921  13.522
42339W        W10812  38.849  24.673  13.334
42340W        W10813  14.756   9.314  10.965
42341W        W10814  10.231  42.409  13.984
42342W        W10815  11.843  22.217  11.531
42343W        W10816  33.911  19.536   2.234
42344W        W10817   9.152  24.534  11.524
42345W        W10818   9.170  11.168  11.523
42346W        W10819  24.093  17.307  11.499
42347W        W10820  44.381  20.562  14.431
42348W        W10821  42.435  27.180  11.985
42349W        W10822  13.215  14.706  10.916
42350W        W10823  40.416   3.797   4.665
42351W        W10824  27.645  20.600  12.998
42352W        W10825   0.834  13.637  13.037
42353W        W10826   8.403  14.749  13.407
42354W        W10827  16.303  43.280  12.526
42355W        W10828  25.577  23.716   0.315
42356W        W10829  42.463  39.987  14.829
42357W        W10830  18.065  41.822   4.599
42358W        W10831  43.878   3.399   2.303
42359W        W10832  21.609  39.042  12.403
42360W        W10833  25.101  37.354  10.579
42361W        W10834  10.182  16.610   1.772
42362W        W10835  11.131  16.231   2.246
42363W        W10836  11.294  10.226   0.421
42364W        W10837  43.881  12.728  11.884
42365W        W10838  26.540  11.205   2.741
42366W        W10839  20.761   0.798  13.547
42367W        W10840   1.972   7.904  12.850
42368W        W10841  21.090  36.472   0.832
42369W        W10842   5.225   6.812   0.891
42370W        W10843  15.662   7.897  14.383
42371W        W10844   7.408  36.542   1.815
42372W        W10845  25.010  35.405   3.704
42373W        W10846   8.204  12.308   4.698
42374W        W10847   3.860   7.277   3.635
42375W        W10848  12.230  32.611   2.838
42376W        W10849   5.215  40.813   0.839
42377W        W10850  35.485  34.974  14.829
42378W        W10851  33.053  38.564  12.538
42379W        W10852  38.514  42.354   4.140
42380W        W10853   9.882  30.538   2.268
42381W        W10854  18.767  39.825   3.358
42382W        W10855   1.908  42.522   1.817
42383W        W10856  22.537  13.824  10.448
42384W        W10857  24.647  30.631  10.635
42385W        W10858  31.047  37.934   4.276
42386W        W10859  43.462  24.024   2.787
42387W        W10860  37.411  35.598   2.735
42388W        W10861  33.615   1.281  12.902
42389W        W10862   4.373  30.614   1.309
42390W        W10863  12.340  22.068   0.864
42391W        W10864   3.824  32.496   1.386
42392W        W10865  25.671  43.883  11.095
42393W        W10866  43.388  23.056   3.189
42394W        W10867  17.738  44.919  13.883
42395W        W10868  14.234  36.557   3.854
42396W        W10869  10.159  18.678   1.436
42397W        W10870  23.089  24.127  14.373
42398W        W10871  11.259  26.970   4.220
42399W        W10872  40.880  28.024  11.006
42400W        W10873  13.723  13.731  13.864
42401W        W10874  12.754  28.009   2.384
42402W        W10875  44.391  21.080   1.428
42403W        W10876  14.669  18.256  10.463
42404W        W10877  38.519  27.941   1.700
42405W        W10878  21.657   6.683  12.475
42406W        W10879  30.572   0.455   4.718
42407W        W10880  29.105  18.170  10.462
42408W        W10881  11.655  42.990  10.455
42409W        W10882  43.334  43.335   4.684
42410W        W10883  36.533   3.934   0.253
42411W        W10884  24.121   7.288   1.330
42412W        W10885   0.390  10.734  11.379
42413W        W10886  24.550  43.884   3.383
42414W        W10887  23.116  27.566  11.602
42415W        W10888   2.733  20.216   0.827
42416W        W10889   1.290  32.545  13.983
42417W        W10890  19.591  16.090  14.340
42418W        W10891  12.798   2.912  13.048
42419W        W10892   1.809   7.735  13.314
42420W        W10893   1.376  23.551   0.772
42421W        W10894  19.164  20.251  11.106
42422W        W10895  17.166  12.684  12.356
42423W        W10896  20.108  12.613   4.268
42424W        W10897  24.639  19.257  10.997
42425W        W10898  33.902  28.994  10.465
42426W        W10899  19.675   6.838   3.782
42427W        W10900  40.312  44.982  11.967
42428W        W10901  40.031   8.717  11.598
42429W        W10902   5.288  25.473  14.426
42430W        W10903  20.717  39.824  13.884
42431W        W10904  43.962  39.357  14.911
42432W        W10905  38.545  42.322   3.644
42433W        W10906  37.518  17.555   3.235
42434W        W10907  31.504  43.948  10.068
42435W        W10908   7.403   8.343   1.285
42436W        W10909   7.188  18.775   1.234
42437W        W10910  12.241  34.383   2.772
42438W        W10911   6.767  23.069  10.633
42439W        W10912   5.243  29.156   4.189
42440W        W10913  24.148  41.480   2.716
42441W        W10914  16.746   4.909  13.470
42442W        W10915  28.024   8.334  13.414
42443W        W10916  37.837  39.874  13.970
42444W        W10917  10.305  39.972  12.460
42445W        W10918  17.219  13.123   0.741
42446W        W10919   5.892  31.612   1.707
42447W        W10920   5.365   7.171   9.624
42448W        W10921  14.237  23.181   0.884
42449W        W10922   0.810  38.938   9.977
42450W        W10923  11.302   3.314  12.865
42451W        W10924  36.970  44.278   4.192
42452W        W10925  40.012  23.524   2.700
42453W        W10926  39.529  40.514   1.857
42454W        W10927  26.679  23.989  14.015
42455W        W10928  31.939  10.358  14.809
42456W        W10929   6.786   5.824  11.944
42457W        W10930  11.686  29.933  10.926
42458W        W10931  42.327  41.805  12.424
42459W        W10932  37.889   2.782   4.648
42460W        W10933  20.655  40.824   0.298
42461W        W10934   7.739  24.556   1.815
42462W        W10935  15.171  18.787   2.191
42463W        W10936   9.372  22.124   9.539
42464W        W10937  21.550  34.529   1.408
42465W        W10938  15.751  15.086   4.339
42466W        W10939  16.297  13.136   1.721
42467W        W10940  12.714  20.572   2.734
42468W        W10941  15.581  14.599  12.879
42469W        W10942  21.157  12.259   3.809
42470W        W10943  20.711  14.305  12.446
42471W        W10944  28.579  22.535  12.055
42472W        W10945  23.198  42.835   4.648
42473W        W10946  20.721   7.850  13.327
42474W        W10947  28.469  14.287   0.363
42475W        W10948   4.844   7.706  13.440
42476W        W10949   6.869  25.040  13.468
42477W        W10950   0.878  14.215   0.344
42478W        W10951  43.833  36.029   3.363
42479W        W10952  16.101  19.617   1.725
42480W        W10953  15.647  37.562  11.126
42481W        W10954  26.995  12.336   2.898
42482W        W10955  16.295   0.779   1.866
42483W        W10956  36.375  36.955  13.506
42484W        W10957  20.755  22.225  14.279
42485W        W10958  15.096  16.247   4.694
42486W        W10959  20.155  15.705   4.769
42487W        W10960   3.876  40.522   3.638
42488W        W10961  32.014   3.455   4.179
42489W        W10962  31.538  27.549  12.026
42490W        W10963  41.807  44.995   2.754
42491W        W10964  19.194  13.706   4.344
42492W        W10965  34.452  18.682   4.215
42493W        W10966  35.981  24.195  11.970
42494W        W10967   5.247  14.743   3.280
42495W        W10968  15.113   5.693  14.889
42496W        W10969   2.295  40.366   3.759
42497W        W10970   6.850   8.889   0.741
42498W        W10971  40.494  25.118   3.320
42499W        W10972  29.663  15.580  13.481
42500W        W10973   0.433  17.697   3.810
42501W        W10974   7.219   3.398  11.594
42502W        W10975  43.387  25.022   2.752
42503W        W10976  25.130  37.404   2.195
42504W        W10977   2.868  36.442  11.921
42505W        W10978  28.468  40.408   0.466
42506W        W10979   6.711  23.128   4.776
42507W        W10980  30.571  30.527   4.680
42508W        W10981  27.114  20.735   0.409
42509W        W10982  35.929  37.019  12.019
42510W        W10983  18.696  14.784  10.504
42511W        W10984  29.927  41.534  11.873
42512W        W10985  14.821  30.630   0.776
42513W        W10986  10.204  10.794  14.510
42514W        W10987  30.531  33.878   0.793
42515W        W10988  16.712  33.999  12.416
42516W        W10989   5.884  33.886   3.266
42517W        W10990   7.205   2.230  11.069
42518W        W10991  40.496  23.019   4.117
42519W        W10992  31.464   3.760  13.860
42520W        W10993   4.441  37.078  10.911
42521W        W10994  28.487  23.593  10.471
42522W        W10995  14.330  24.513  11.592
42523W        W10996  21.748  27.087   2.361
42524W        W10997  43.273  31.065   2.295
42525W        W10998  26.089  22.544   1.846
42526W        W10999  23.199   3.260  14.278
42527W        W11000  27.000  36.004  10.978
42528W        W11001   7.244  43.326   0.735
42529W        W11002  23.509  35.062  13.515
42530W        W11003  31.130  18.077  10.621
42531W        W11004   6.679  34.466   2.875
42532W        W11005  14.608  23.037   0.814
42533W        W11006   9.293  32.027   3.770
42534W        W11007   0.442  39.371  13.514
42535W        W11008  18.221  25.075  13.478
42536W        W11009  11.856  44.762   3.149
42537W        W11010  13.220   1.268   1.878
42538W        W11011  21.678   6.375   4.706
42539W        W11012   8.257  13.212   1.305
42540W        W11013  16.117  35.865   4.296
42541W        W11014  27.034  38.855   1.266
42542W        W11015  25.140   8.696  11.012
42543W        W11016  35.375  20.076  12.466
42544W        W11017  12.149  40.923   0.309
42545W        W11018  44.834  28.946   3.261
42546W        W11019  30.100  22.241   0.792
42547W        W11020   2.261  43.977  12.504
42548W        W11021   4.211  44.305  14.909
42549W        W11022  21.548  44.981  14.011
42550W        W11023  40.329  28.028  10.978
42551W        W11024  28.149  25.010  11.076
42552W        W11025  15.790  24.513   2.300
42553W        W11026  25.489  36.855  14.936
42554W        W11027  30.435  30.152  11.011
42555W        W11028  20.066  38.362  14.325
42556W        W11029  27.619   9.343  12.471
42557W        W11030  28.082  25.080   0.879
42558W        W11031   9.850  42.000   1.420
42559W        W11032  28.679  23.229  11.518
42560W        W11033  40.330  38.389   4.722
42561W        W11034   2.901  16.717  14.016
42562W        W11035  40.474  29.110   2.781
42563W        W11036  19.777   7.242   3.833
42564W        W11037   7.869  39.941  13.309
42565W        W11038  25.505   7.791   3.227
42566W        W11039   8.899   3.266   4.612
42567W        W11040  40.827   5.258   1.875
42568W        W11041  33.993   8.352  14.935
42569W        W11042   5.402  42.953   2.811
42570W        W11043  25.696   8.356   1.363
42571W        W11044  27.183  30.458   3.761
42572W        W11045  34.102   0.404   4.746
42573W        W11046  33.602  19.728  13.930
42574W        W11047  36.078  25.129  10.418
42575W        W11048  29.654  33.618   9.975
42576W        W11049  28.967  39.480  14.311
42577W        W11050  17.800  15.671  13.477
42578W        W11051  14.665  11.673   1.381
42579W        W11052   6.328   8.764   5.271
42580W        W11053  15.325  40.020   1.401
42581W        W11054  40.549   4.356  11.885
42582W        W11055  20.540   3.720  12.899
42583W        W11056  35.049   6.784   4.165
42584W        W11057   3.896  43.451   2.834
42585W        W11058   4.273  30.517  14.013
42586W        W11059  25.547   3.456   2.349
42587W        W11060  14.110  44.369   2.384
42588W        W11061  21.521  25.655   1.841
42589W        W11062  18.746   6.287   0.897
42590W        W11063   5.207  11.719   2.838
42591W        W11064   5.223  22.020   2.227
42592W        W11065  35.017   3.243  12.416
42593W        W11066  12.783  37.446  14.401
42594W        W11067  44.400   2.797  14.868
42595W        W11068   5.923  42.520   1.698
42596W        W11069  30.602  27.553   1.305
42597W        W11070  14.665  27.671   3.287
42598W        W11071  27.676  17.592  14.400
42599W        W11072  26.031  32.110  11.499
42600W        W11073  17.679  25.045   0.879
42601W        W11074  24.170   3.740  11.110
42602W        W11075  22.696  30.979  11.123
42603W        W11076  39.894   4.876   1.782
42604W        W11077  17.653   7.201   0.838
42605W        W11078  19.572  44.811   3.846
42606W        W11079  33.398  43.392  10.550
42607W        W11080  17.678  29.161   0.780
42608W        W11081  35.035  30.611  11.597
42609W        W11082  37.345   6.677  12.474
42610W        W11083  23.216  28.657   4.625
42611W        W11084  34.485  26.120   4.783
42612W        W11085   3.923  40.930   1.786
42613W        W11086  27.136   5.933  11.054
42614W        W11087  26.596   7.665   2.280
42615W        W11088  25.135  41.370   3.344
42616W        W11089  19.685   5.338  11.071
42617W        W11090   5.360  30.518   3.632
42618W        W11091  22.678  38.977   1.363
42619W        W11092  10.360  40.309  11.556
42620W        W11093  10.328  24.211   4.269
42621W        W11094  15.782   3.279  12.897
42622W        W11095  16.765  27.040   0.320
42623W        W11096  33.525  29.956  13.917
42624W        W11097   5.303  15.312   2.194
42625W        W11098  27.072  15.771  11.429
42626W        W11099   4.448  37.977  14.435
42627W        W11100  34.542   6.255   1.925
42628W        W11101  15.123   0.366   2.239
42629W        W11102  13.183  15.815   4.805
42630W        W11103  34.569  13.651   0.758
42631W        W11104  13.665  19.134  11.041
42632W        W11105  35.572  18.192  12.922
42633W        W11106  20.043   2.736  12.909
42634W        W11107  40.481  28.678  13.386
42635W        W11108  32.397   7.769   4.639
42636W        W11109  35.538   4.756  11.118
42637W        W11110  16.090   6.346   4.302
42638W        W11111  44.815  35.909   1.828
42639W        W11112  23.184   1.269   3.787
42640W        W11113  36.092  12.184   0.404
42641W        W11114   4.342  16.285  12.968
42642W        W11115  25.103  21.683  14.933
42643W        W11116   4.232  43.293   2.723
42644W        W11117   8.197  18.766  12.855
42645W        W11118  24.648   4.826  13.481
42646W        W11119  30.463  34.518   1.817
42647W        W11120  22.625  33.081   2.728
42648W        W11121  39.039  30.472   0.804
42649W        W11122   9.751   4.832  11.496
42650W        W11123  19.596  20.167  11.867
42651W        W11124  38.933  15.098   0.798
42652W        W11125   5.689  37.052  14.499
42653W        W11126  25.981  19.182   1.803
42654W        W11127   3.723   4.336  11.560
42655W        W11128   3.221  32.573  12.444
42656W        W11129  25.621  27.656  14.404
42657W        W11130  24.631  44.780  13.807
42658W        W11131  15.196   0.426  10.968
42659W        W11132  39.334   5.319  11.039
42660W        W11133  19.065  37.010   0.429
42661W        W11134  35.604  18.635   1.813
42662W        W11135   9.290   4.820  14.441
42663W        W11136  16.125  19.141   2.186
42664W        W11137  19.697  35.870  13.415
42665W        W11138  31.453  34.107   3.190
42666W        W11139  11.791  13.259   4.277
42667W        W11140  44.000  15.748  14.801
42668W        W11141  11.185  38.974  14.937
42669W        W11142  40.530  27.013  13.521
42670W        W11143  19.216  14.822   2.365
42671W        W11144   2.925  13.826   1.698
42672W        W11145  25.615  19.223  11.941
42673W        W11146  11.183  26.054  14.820
42674W        W11147  15.238  11.154  11.083
42675W        W11148  23.987  23.023  12.979
42676W        W11149   0.863  38.379   2.262
42677W        W11150  44.500   2.875   1.885
42678W        W11151  34.029  42.015  12.436
42679W        W11152  24.983   4.939  11.519
42680W        W11153  30.651  16.246   2.824
42681W        W11154  31.478  41.513   0.801
42682W        W11155  12.161   9.311  12.487
42683W        W11156   7.331  38.389   0.359
42684W        W11157   9.843   6.862  14.380
42685W        W11158  15.159  19.039   4.233
42686W        W11159  44.360  30.537  13.818
42687W        W11160  11.157  21.151   1.253
42688W        W11161  10.170   4.820   0.267
42689W        W11162   0.428  20.629  10.893
42690W        W11163  34.381   2.880  12.957
42691W        W11164  35.554   5.371  11.477
42692W        W11165  39.862  38.324   2.903
42693W        W11166  33.475  42.525   4.767
42694W        W11167  40.324  29.046   4.325
42695W        W11168  18.647   7.726   1.923
42696W        W11169  33.511  28.521   4.184
42697W        W11170  28.518  28.117   3.669
42698W        W11171  28.600  26.589   1.798
42699W        W11172  11.731  41.918   2.179
42700W        W11173  19.116   4.266  14.279
42701W        W11174   6.192  22.547  10.430
42702W        W11175  40.352  38.042  12.910
42703W        W11176  11.174  12.752  12.366
42704W        W11177  18.165  43.342  11.005
42705W        W11178  34.948  38.461   4.183
42706W        W11179  36.566   6.336   4.741
42707W        W11180  42.886  26.983   1.846
42708W        W11181  20.633  18.126  12.914
42709W        W11182  42.485  13.236  11.054
42710W        W11183  21.081  13.304   1.406
42711W        W11184   4.223   8.177  13.941
42712W        W11185  42.990  17.562   0.477
42713W        W11186  14.806  14.663  14.004
42714W        W11187   3.431  11.296  10.105
42715W        W11188  41.869   2.795  10.446
42716W        W11189   2.242  37.437  14.782
42717W        W11190  37.442  25.668  10.618
42718W        W11191  44.343  19.249  13.449
42719W        W11192   1.920   1.938  10.913
42720W        W11193  30.162  23.060   2.837
42721W        W11194  28.975   7.254  11.494
42722W        W11195   0.410   9.764   3.182
42723W        W11196   7.360  39.532  13.415
42724W        W11197  39.816  17.654  13.539
42725W        W11198  26.054  26.567   4.658
42726W        W11199  12.671   3.728   4.801
42727W        W11200   4.440  40.304  11.110
42728W        W11201  25.142  36.576  12.523
42729W        W11202   2.335   9.329  13.060
42730W        W11203  20.725  17.572  11.502
42731W        W11204   6.263  18.611   2.197
42732W        W11205   7.749  24.633  10.002
42733W        W11206  42.902   6.871  13.348
42734W        W11207   8.385  30.550  14.374
42735W        W11208  42.980  30.086  10.637
42736W        W11209  26.983  18.148  12.023
42737W        W11210  38.943  25.546  10.592
42738W        W11211  42.901  42.926   0.919
42739W        W11212  39.860  17.708  14.376
42740W        W11213  21.543   0.973  13.050
42741W        W11214  17.802  12.756   4.172
42742W        W11215  15.773  34.108  13.957
42743W        W11216  16.767  20.537   2.226
42744W        W11217   7.865   8.701  12.889
42745W        W11218   9.721  34.047  13.498
42746W        W11219  11.174  29.998  14.920
42747W        W11220  22.178   7.238   1.923
42748W        W11221   9.275  16.303   0.446
42749W        W11222  36.363  44.477  13.866
42750W        W11223  25.100  12.681   4.171
42751W        W11224  20.261  23.588  10.622
42752W        W11225  38.969  19.646   0.893
42753W        W11226  15.198   8.387   0.867
42754W        W11227  42.508  29.582   1.308
42755W        W11228  24.529   7.401  14.925
42756W        W11229  26.612  32.544  10.893
42757W        W11230  22.116  39.449  11.490
42758W        W11231  26.550  10.203  14.843
42759W        W11232   2.261  14.620   3.174
42760W        W11233  34.989  42.915   3.716
42761W        W11234  20.543  23.178  14.954
42762W        W11235  14.737  17.238   1.880
42763W        W11236  43.887  21.105   1.853
42764W        W11237  25.485  42.863  13.848
42765W        W11238  31.956  44.454   9.592
42766W        W11239  17.693  33.539  12.359
42767W        W11240   7.339  30.455   0.404
42768W        W11241  43.776  44.413  14.499
42769W        W11242  36.400  41.346  13.942
42770W        W11243  34.462  26.156  13.858
42771W        W11244  14.189  27.152   0.802
42772W        W11245   1.239  38.440   4.272
42773W        W11246  37.517  20.063   1.362
42774W        W11247  25.038  17.125   3.656
42775W        W11248  37.572  44.300   4.644
42776W        W11249  41.027  15.297  11.055
42777W        W11250   8.202  20.664  10.404
42778W        W11251  35.450   2.902   2.313
42779W        W11252  33.442  33.605   0.354
42780W        W11253   5.216  22.997   0.810
42781W        W11254  31.431  30.481   3.778
42782W        W11255  23.613  33.083  14.412
42783W        W11256  37.436  12.765  12.348
42784W        W11257  12.339   6.872   2.366
42785W        W11258   6.391  12.310   2.347
42786W        W11259  44.968  25.594  10.503
42787W        W11260  29.614  40.024  13.045
42788W        W11261  22.071  35.853   4.215
42789W        W11262  35.051  26.612   1.274
42790W        W11263  20.185  13.780  14.459
42791W        W11264  18.721  41.805   4.254
42792W        W11265  44.939  33.542  13.960
42793W        W11266  16.661  38.036   4.326
42794W        W11267  34.103  11.843  13.935
42795W        W11268  24.700  13.801  13.002
42796W        W11269  37.035  25.522   0.933
42797W        W11270  36.428  25.538   3.226
42798W        W11271  15.662  10.766   0.955
42799W        W11272  41.495  39.038   3.201
42800W        W11273  36.859  17.255   4.237
42801W        W11274   5.294  35.455   4.680
42802W        W11275  30.658  19.220  11.518
42803W        W11276  15.709  33.605  13.339
42804W        W11277  10.813  31.962   2.243
42805W        W11278   2.836  39.850   2.311
42806W        W11279   4.361  21.552  10.967
42807W        W11280  41.882  12.641   1.334
42808W        W11281  20.040   5.914   2.226
42809W        W11282  39.389  27.152  11.869
42810W        W11283   9.243  10.358   0.820
42811W        W11284  12.136  42.416  11.991
42812W        W11285  44.848   4.312  12.080
42813W        W11286  36.481  42.366   2.254
42814W        W11287  33.539  41.422  11.435
42815W        W11288  43.483  32.939  11.025
42816W        W11289  16.281  16.251   2.753
42817W        W11290  22.744  42.976  14.858
42818W        W11291  13.208  21.757  14.403
42819W        W11292  42.824  14.104   3.246
42820W        W11293  40.015  28.671  13.916
42821W        W11294   6.904  38.554   2.333
42822W        W11295  12.691   4.373  12.373
42823W        W11296  17.697  34.378   2.749
42824W        W11297  16.213  16.205   1.287
42825W        W11298  25.146  11.710  14.473
42826W        W11299  20.707   1.890  10.436
42827W        W11300  26.200  26.578  14.880
42828W        W11301  18.284  20.073   1.806
42829W        W11302  26.964  17.661   4.622
42830W        W11303  30.646  22.522   2.759
42831W        W11304   5.331  12.744  11.082
42832W        W11305  31.572   8.305  14.808
42833W        W11306  41.809   8.261   3.758
42834W        W11307  11.307  33.100  12.076
42835W        W11308  18.256  35.869   4.199
42836W        W11309   7.291  10.864   4.791
42837W        W11310  12.360  18.571   4.139
42838W        W11311  23.504  18.635  10.994
42839W        W11312   1.898  32.402   0.378
42840W        W11313  13.611   0.869  12.488
42841W        W11314  32.561   7.393   0.767
42842W        W11315  41.300  31.113  11.423
42843W        W11316  21.220  24.550  14.360
42844W        W11317  29.021  33.626  11.890
42845W        W11318  27.670   3.420  12.443
42846W        W11319  36.083   4.865  12.364
42847W        W11320  24.713   4.220   2.368
42848W        W11321   7.340  29.130   3.735
42849W        W11322  16.145  43.982  14.955
42850W        W11323  18.551  26.158   3.711
42851W        W11324  32.454   4.399  11.967
42852W        W11325  31.096  28.143  14.336
42853W        W11326  33.625   0.829  11.099
42854W        W11327  37.348  24.009  14.991
42855W        W11328   7.888  17.748  14.853
42856W        W11329  36.842  37.570  13.002
42857W        W11330   6.369   6.267  12.550
42858W        W11331   9.171  25.504  12.448
42859W        W11332  32.464  33.030  12.402
42860W        W11333  14.765  24.135  11.575
42861W        W11334  41.517   0.936  14.495
42862W        W11335  20.256   4.376   2.228
42863W        W11336  41.880  11.714   2.193
42864W        W11337   6.892  22.114   0.870
42865W        W11338  40.985   8.360   0.843
42866W        W11339  35.575   5.882   4.123
42867W        W11340  44.000   9.881  14.282
42868W        W11341   2.381  39.369  11.480
42869W        W11342  40.013  24.585   2.355
42870W        W11343  23.000  23.047  14.281
42871W        W11344  12.350  29.080  12.461
42872W        W11345  29.935  43.836   0.884
42873W        W11346   8.226   2.883  14.010
42874W        W11347   0.794  13.802   2.178
42875W        W11348   0.955  40.372  13.925
42876W        W11349  40.476  14.161  13.450
42877W        W11350  44.398   8.348   3.168
42878W        W11351   0.342  33.885   1.226
42879W        W11352  16.225  11.350   1.360
42880W        W11353  22.697   4.857   4.678
42881W        W11354  25.979  36.378  12.985
42882W        W11355  29.595  20.693   0.820
42883W        W11356  28.146  35.011   2.777
42884W        W11357   8.699  22.581  13.400
42885W        W11358  18.123   4.268   4.742
42886W        W11359  43.917  32.438   1.390
42887W        W11360  27.124  31.502   4.284
42888W        W11361  39.866  27.579   4.683
42889W        W11362  37.346   2.370   4.174
42890W        W11363  27.961  11.625  14.469
42891W        W11364   4.757   4.826   0.427
42892W        W11365  21.172   6.821  10.981
42893W        W11366   3.781   4.445  13.538
42894W        W11367  32.491  28.528   4.716
42895W        W11368   8.822  17.209   3.633
42896W        W11369  26.625  32.466   5.180
42897W        W11370   4.841  24.106  14.780
42898W        W11371  13.620  26.045   4.679
42899W        W11372  14.714  29.571  11.932
42900W        W11373  26.142  19.662  10.483
42901W        W11374   4.381  16.315   1.250
42902W        W11375  20.674  36.417   4.205
42903W        W11376  14.748  11.165   1.906
42904W        W11377  35.923   0.257  13.335
42905W        W11378  31.427  23.732   3.235
42906W        W11379  34.016   1.955  10.991
42907W        W11380   4.754   4.903   2.795
42908W        W11381  18.667  31.523   0.908
42909W        W11382   1.777  35.415   1.794
42910W        W11383  35.098   5.910  11.412
42911W        W11384   1.422  35.100   3.356
42912W        W11385   3.739  12.688  13.044
42913W        W11386  23.105   3.855   0.259
42914W        W11387  18.696   9.644  14.022
42915W        W11388  29.053   0.897   1.267
42916W        W11389   6.875  22.097  12.564
42917W        W11390   6.400  10.337   9.974
42918W        W11391  11.200  18.752   1.442
42919W        W11392  24.594  35.371   0.968
42920W        W11393  27.689  34.529   4.655
42921W        W11394  18.207   0.973   4.683
42922W        W11395  44.331  21.121  11.001
42923W        W11396  10.681   1.410  11.497
42924W        W11397   7.708  34.118   0.315
42925W        W11398  18.680  13.799   3.167
42926W        W11399  10.688  23.527   3.288
42927W        W11400  36.003  11.667  11.124
42928W        W11401  42.394   0.885  13.050
42929W        W11402   2.394  29.557  11.028
42930W        W11403   8.343  24.537  12.466
42931W        W11404  34.027  19.706   1.848
42932W        W11405  44.793  18.732   3.811
42933W        W11406  17.632   4.910  12.032
42934W        W11407   9.655  11.695   0.817
42935W        W11408  21.160  32.098   1.289
42936W        W11409  20.732  37.980  10.900
42937W        W11410   2.455   9.835   2.294
42938W        W11411  40.013  37.342  11.125
42939W        W11412  23.056  13.742  10.455
42940W        W11413  32.941  23.990   0.873
42941W        W11414  13.225   5.396   2.766
42942W        W11415  26.651  19.564   3.180
42943W        W11416  16.696  33.500  12.970
42944W        W11417  23.566  44.008   2.255
42945W        W11418  16.651  10.836  13.058
42946W        W11419  22.071  17.062  12.362
42947W        W11420  18.610   5.193   3.831
42948W        W11421   0.452  10.835  11.068
42949W        W11422   8.807  32.938   3.368
42950W        W11423  42.335  40.506  13.043
42951W        W11424  20.236  19.758  10.596
42952W        W11425  15.658  29.024   2.329
42953W        W11426  11.642  28.574   0.420
42954W        W11427  34.878  17.112  10.591
42955W        W11428   8.775  40.385  13.408
42956W        W11429   5.862   0.889   1.211
42957W        W11430  38.999   2.350  14.863
42958W        W11431  26.138   7.383  10.464
42959W        W11432  37.986  18.181   0.468
42960W        W11433  41.363   7.215  11.918
42961W        W11434  36.593  29.151   1.911
42962W        W11435  11.769   3.723   1.413
42963W        W11436  24.502  20.146   2.835
42964W        W11437  21.056  43.830  14.299
42965W        W11438  26.150  14.598   3.149
42966W        W11439  35.547  36.087   4.807
42967W        W11440  24.690  18.169  13.867
42968W        W11441  31.566  44.463   3.162
42969W        W11442  23.115  25.967   0.802
42970W        W11443  19.716  33.041   2.829
42971W        W11444  31.542  27.570   4.781
42972W        W11445  34.573  29.975  13.839
42973W        W11446  14.806  40.457   0.834
42974W        W11447  24.110  40.416   3.824
42975W        W11448  33.517  17.762  14.997
42976W        W11449   9.648  43.444   1.423
42977W        W11450  32.515  13.244   0.308
42978W        W11451   3.405   1.356  11.060
42979W        W11452  15.277   9.840  11.568
42980W        W11453  40.418  34.408   1.869
42981W        W11454  32.595  33.390   4.183
42982W        W11455  34.604  38.922   0.293
42983W        W11456  10.187  26.629   1.745
42984W        W11457  41.004  21.613   1.390
42985W        W11458   1.843  22.112   4.248
42986W        W11459  32.510   9.337   0.400
42987W        W11460  12.793  26.207   2.183
42988W        W11461  17.708  15.663  10.487
42989W        W11462  35.359  44.343  12.046
42990W        W11463  20.084  14.665  12.524
42991W        W11464   7.730  37.388   1.745
42992W        W11465   6.229  12.611  11.578
42993W        W11466  31.928  18.764  10.565
42994W        W11467  42.311  13.246  11.962
42995W        W11468  23.215  23.709   1.427
42996W        W11469  16.588  12.119   4.758
42997W        W11470  36.523  43.965   0.809
42998W        W11471  32.501  40.823   1.398
42999W        W11472  35.560  34.889  14.416
43000W        W11473  25.197  26.488   1.895
43001W        W11474  17.083   2.254   1.734
43002W        W11475  30.522  34.371   0.960
43003W        W11476  14.665  19.066  12.880
43004W        W11477  34.992  31.480   1.753
43005W        W11478   4.449  40.407   3.829
43006W        W11479  26.967  27.605  14.920
43007W        W11480  43.514  26.614  10.039
43008W        W11481  10.707  40.530   4.312
43009W        W11482  44.947   5.732   1.766
43010W        W11483  11.815  36.492   5.124
43011W        W11484  31.110  18.096  14.449
43012W        W11485  44.444  22.086  12.070
43013W        W11486  18.127  32.618   0.947
43014W        W11487  22.134  41.811   0.891
43015W        W11488  12.124   0.427   4.833
43016W        W11489  26.659  16.655   2.200
43017W        W11490  28.059  28.464  13.999
43018W        W11491  18.678  27.005   2.252
43019W        W11492  44.339   3.855  13.062
43020W        W11493  20.607  22.224   0.964
43021W        W11494  32.532  32.949   2.384
43022W        W11495  21.149  41.345  12.861
43023W        W11496  39.534   2.247   1.398
43024W        W11497   8.896   5.794   1.914
43025W        W11498  30.526  27.136   1.698
43026W        W11499  18.650   9.293  12.885
43027W        W11500   2.284  10.271   1.381
43028W        W11501  23.575   3.422   3.837
43029W        W11502  29.106  13.119  10.500
43030W        W11503  40.377  31.090   0.282
43031W        W11504   9.828  40.320   1.902
43032W        W11505  25.109  36.912  10.993
43033W        W11506  39.975  14.652  13.515
43034W        W11507  27.619  18.264  10.952
43035W        W11508  14.810  40.498   2.275
43036W        W11509   2.722   1.893  14.024
43037W        W11510   0.750  31.427  11.464
43038W        W11511  42.787  31.570  10.973
43039W        W11512  22.187  37.985  14.964
43040W        W11513  32.397  22.523  13.472
43041W        W11514  13.270  10.376  10.130
43042W        W11515  28.510  42.423  14.769
43043W        W11516  27.970  21.132  11.032
43044W        W11517  28.462  11.186   4.262
43045W        W11518  16.655   5.747   1.258
43046W        W11519  34.573  10.160   3.813
43047W        W11520  33.502  18.205  11.513
43048W        W11521  41.981  24.014  14.818
43049W        W11522  37.023   7.222  10.919
43050W        W11523  40.403  22.096  12.558
43051W        W11524  28.072  30.451  12.532
43052W        W11525  13.823  28.623  12.350
43053W        W11526   3.434  13.317   1.805
43054W        W11527   8.705  12.698  13.833
43055W        W11528  34.893  41.943   2.689
43056W        W11529  31.644  37.858   0.345
43057W        W11530  38.888  38.041   2.255
43058W        W11531   4.257   1.778   2.324
43059W        W11532   6.297  22.164  10.145
43060W        W11533  43.792  35.530   1.805
43061W        W11534   3.781   8.747   4.290
43062W        W11535  15.695  44.879  14.778
43063W        W11536   7.676  29.528  12.436
43064W        W11537   5.438  12.167   1.239
43065W        W11538   2.923   4.768  12.000
43066W        W11539  25.699  34.868   2.737
43067W        W11540   5.312   1.785  12.073
43068W        W11541  42.340  11.341  14.448
43069W        W11542  26.042  30.050  14.924
43070W        W11543  34.045   5.405  13.399
43071W        W11544  32.393  43.913  10.521
43072W        W11545  18.296  33.609   4.610
43073W        W11546  28.053  37.905  11.576
43074W        W11547  39.981  38.010  10.527
43075W        W11548   0.985  10.717   3.660
43076W        W11549  28.505   7.895   0.899
43077W        W11550  18.112   1.286  12.992
43078W        W11551  42.816  33.587  11.037
43079W        W11552  42.344   9.297   3.274
43080W        W11553  13.282  41.361  13.508
43081W        W11554  29.637  41.815   1.228
43082W        W11555  25.962  30.912  13.036
43083W        W11556  11.775  25.695  12.838
43084W        W11557  35.601  24.676   4.708
43085W        W11558  29.016  28.672  14.343
43086W        W11559   4.903  23.612  11.003
43087W        W11560   6.876  44.303  14.509
43088W        W11561  18.747  22.160  11.588
43089W        W11562  10.769  30.016  11.469
43090W        W11563   7.682  38.857   0.458
43091W        W11564   5.747  24.668  12.032
43092W        W11565  28.632  22.513  12.534
43093W        W11566   1.476  38.342   0.407
43094W        W11567  18.586  42.852  14.760
43095W        W11568  36.585  40.029  13.901
43096W        W11569  11.135  18.286   2.889
43097W        W11570   6.878  16.267  10.590
43098W        W11571  44.303  26.585  12.050
43099W        W11572  39.435  25.075  10.970
43100W        W11573  34.872   3.800  14.954
43101W        W11574  26.205  34.905  14.496
43102W        W11575  14.334  19.245   1.260
43103W        W11576  10.673  33.008  12.341
43104W        W11577   1.245  11.335   0.416
43105W        W11578  16.091  16.174   4.754
43106W        W11579  41.828   7.857   3.213
43107W        W11580  19.151  39.953   0.882
43108W        W11581  22.565  24.053  14.845
43109W        W11582  14.634  34.399   3.271
43110W        W11583   4.715  26.973  12.493
43111W        W11584  24.217  34.459   3.310
43112W        W11585  27.099  39.557  13.838
43113W        W11586  12.348  24.709   4.310
43114W        W11587   4.842  30.092  12.065
43115W        W11588  22.727  31.036  12.370
43116W        W11589   7.349  25.008   1.886
43117W        W11590  11.791  11.270  13.920
43118W        W11591   9.392  21.254  10.983
43119W        W11592  36.379  42.957  14.277
43120W        W11593  39.505  13.626  12.456
43121W        W11594  22.551  43.385  14.961
43122W        W11595  44.471  31.429   1.212
43123W        W11596  40.390   9.281   0.349
43124W        W11597  14.606  30.097  10.639
43125W        W11598   4.211  15.105  14.438
43126W        W11599  29.446  40.342  10.978
43127W        W11600  15.287  39.059  12.085
43128W        W11601  41.941  22.085  14.356
43129W        W11602  41.807  43.460  11.596
43130W        W11603  15.190  22.160  12.537
43131W        W11604  28.510  29.084   2.180
43132W        W11605  43.290  23.034  12.982
43133W        W11606  21.081  15.162   2.882
43134W        W11607  38.414   7.880   2.703
43135W        W11608   8.885  39.844   1.443
43136W        W11609  14.801   5.810  13.913
43137W        W11610  11.190  43.924  11.539
43138W        W11611   5.418   0.869   4.208
43139W        W11612  32.497   5.717  10.536
43140W        W11613   5.885   9.284   3.207
43141W        W11614  27.669  17.566   4.604
43142W        W11615  17.213  43.009  13.537
43143W        W11616  35.905   2.452  12.356
43144W        W11617  30.522  24.521  10.150
43145W        W11618  39.938  35.866  11.039
43146W        W11619  31.028  42.409   4.731
43147W        W11620   7.345   2.265   4.743
43148W        W11621  37.542   9.719  14.792
43149W        W11622   7.284  12.648  14.325
43150W        W11623   2.393   6.699   3.810
43151W        W11624  32.509  38.379  11.893
43152W        W11625  18.207   5.310   4.288
43153W        W11626  13.724  24.628   4.714
43154W        W11627  15.650  29.645   2.664
43155W        W11628  24.704  28.493   0.308
43156W        W11629   5.315  26.459  11.996
43157W        W11630  35.543  10.776   1.726
43158W        W11631  34.931  43.802   3.223
43159W        W11632  27.637  40.482   3.760
43160W        W11633  20.161  31.101   3.323
43161W        W11634   0.819  44.310   4.322
43162W        W11635  10.158  24.179   2.781
43163W        W11636  23.608  28.457  10.919
43164W        W11637  43.992  19.246   4.696
43165W        W11638   1.883   8.231  11.407
43166W        W11639  30.413   0.349  14.945
43167W        W11640  18.110  42.985   2.890
43168W        W11641  22.042  24.057   3.336
43169W        W11642  27.138  41.409  11.903
43170W        W11643  43.344   1.292  11.397
43171W        W11644  18.785  31.428   2.298
43172W        W11645  41.875  26.151   0.357
43173W        W11646  24.619  31.969   4.146
43174W        W11647  28.470  40.054  14.029
43175W        W11648  26.702  40.021  11.053
43176W        W11649  27.664  13.816   3.654
43177W        W11650  31.101  39.444  10.406
43178W        W11651  21.546  31.940  12.984
43179W        W11652  41.500  16.223  13.924
43180W        W11653  35.424  37.344   0.871
43181W        W11654   5.401   1.339   2.876
43182W        W11655  30.952  31.060  14.466
43183W        W11656  14.291   4.310  11.423
43184W        W11657  41.953  35.398  11.592
43185W        W11658  26.479   0.785   0.741
43186W        W11659  31.442  34.082  10.524
43187W        W11660  25.216  33.599   3.366
43188W        W11661  40.311   2.418  12.075
43189W        W11662  32.130  24.213  13.837
43190W        W11663  37.394   3.716  12.352
43191W        W11664  40.320  40.348   3.748
43192W        W11665  23.203   0.756  13.330
43193W        W11666  30.557  44.797  10.434
43194W        W11667  32.444  40.338   0.367
43195W        W11668  33.426  40.908   1.869
43196W        W11669  43.885   4.935   4.288
43197W        W11670   3.408  26.520   4.619
43198W        W11671  43.954  25.174  14.881
43199W        W11672  42.297  33.955  11.607
43200W        W11673   6.807  29.943   1.253
43201W        W11674  43.803  24.038  13.990
43202W        W11675  29.981  13.796  12.542
43203W        W11676  20.651  13.192   3.751
43204W        W11677   3.731  23.642   2.282
43205W        W11678  15.137  27.948   3.823
43206W        W11679  36.572  30.631  12.851
43207W        W11680  41.918   6.792  13.967
43208W        W11681  41.307  28.082   3.832
43209W        W11682  34.891   7.322   3.163
43210W        W11683  29.047  18.129   1.767
43211W        W11684   5.376   8.274  12.547
43212W        W11685   9.806  17.662   1.359
43213W        W11686   8.874  20.215   2.196
43214W        W11687  37.989  38.365   3.775
43215W        W11688   6.721   6.795   4.645
43216W        W11689  23.018  32.975   4.715
43217W        W11690  41.526  27.970   2.378
43218W        W11691   2.243  27.571  12.907
43219W        W11692  18.721  36.375  12.412
43220W        W11693  41.486  12.695  13.865
43221W        W11694  32.933  11.250  12.995
43222W        W11695  10.733  36.481  11.590
43223W        W11696  17.236  27.487   1.762
43224W        W11697  41.531   1.891   2.733
43225W        W11698  29.666  29.012  12.943
43226W        W11699   8.853  22.641   5.272
43227W        W11700  26.653  19.150  12.008
43228W        W11701  38.829  24.985   0.800
43229W        W11702  14.810  22.694  13.536
43230W        W11703  37.958  13.300  13.384
43231W        W11704  42.501  17.716  10.909
43232W        W11705   4.789  20.158   0.299
43233W        W11706  35.009  35.468   0.358
43234W        W11707  42.400  13.265   3.219
43235W        W11708  26.974  16.281   4.607
43236W        W11709  21.169   6.743   3.291
43237W        W11710   0.772   0.416  14.354
43238W        W11711  37.527   1.273   2.220
43239W        W11712  31.113   3.744  13.855
43240W        W11713   3.827  27.563  14.826
43241W        W11714   4.783  39.999  13.056
43242W        W11715  28.491   2.372  11.869
43243W        W11716  39.429   9.276   1.701
43244W        W11717   9.798  32.124  14.304
43245W        W11718  14.607  36.848  14.469
43246W        W11719  18.768  37.452   2.405
43247W        W11720   6.688  26.609  12.057
43248W        W11721  25.475   0.394  12.950
43249W        W11722  39.968   7.687   4.737
43250W        W11723   3.221  18.113  13.490
43251W        W11724   1.840   8.289   1.368
43252W        W11725   9.296  39.941   2.419
43253W        W11726   4.920  41.795  13.979
43254W        W11727  32.036  29.002  11.593
43255W        W11728   0.783  33.502   2.861
43256W        W11729   9.842  10.350  13.335
43257W        W11730  35.026  13.151   2.381
43258W        W11731  20.241   6.715  13.491
43259W        W11732  44.757   4.225   1.759
43260W        W11733  35.457  44.343   4.123
43261W        W11734  42.936  36.854  14.886
43262W        W11735  13.201   6.737   1.899
43263W        W11736  26.063   1.821  11.497
43264W        W11737  25.088  27.489  13.921
43265W        W11738  28.526  41.491  13.847
43266W        W11739  34.515   8.407   3.243
43267W        W11740  28.468  23.014  12.452
43268W        W11741  16.648  11.813   2.241
43269W        W11742  34.589  44.347   4.647
43270W        W11743  40.033  26.604  11.462
43271W        W11744  34.389  39.330   3.279
43272W        W11745  24.656  13.634  13.924
43273W        W11746  31.448  28.513  14.308
43274W        W11747  37.905  25.115   0.340
43275W        W11748  39.437  21.166  13.970
43276W        W11749  19.236  17.173  13.325
43277W        W11750  15.651   5.692   4.164
43278W        W11751  39.930  35.474   4.629
43279W        W11752  28.656  17.206   1.759
43280W        W11753  39.064  19.689  13.439
43281W        W11754  17.122  16.700   2.667
43282W        W11755  19.633  15.124  11.588
43283W        W11756  40.412  21.688   1.835
43284W        W11757   3.755  34.907  13.038
43285W        W11758  35.073  10.160   4.777
43286W        W11759   5.266  19.768  13.362
43287W        W11760  28.107   1.779  14.498
43288W        W11761  12.203  41.526  13.442
43289W        W11762   0.254  32.048  13.910
43290W        W11763  30.056   8.694   4.235
43291W        W11764   0.276  10.245  14.837
43292W        W11765   9.251   9.162   2.257
43293W        W11766  19.199  19.149   1.906
43294W        W11767  20.725  40.803   4.267
43295W        W11768  12.791  11.720   4.244
43296W        W11769  20.660  43.391   0.325
43297W        W11770  21.237   0.423   4.609
43298W        W11771  40.968  29.169  10.476
43299W        W11772   0.490  28.133  10.497
43300W        W11773  18.247  44.362  12.026
43301W        W11774  14.275  29.990   1.352
43302W        W11775  25.123  30.127   3.844
43303W        W11776   2.276  40.857  12.521
43304W        W11777  34.392  36.082   2.224
43305W        W11778  16.133  35.954   0.792
43306W        W11779   3.377  11.137   2.386
43307W        W11780   5.776  25.078  11.062
43308W        W11781  15.096  22.112  11.954
43309W        W11782  44.428  23.646   1.780
43310W        W11783  35.375   3.378  10.553
43311W        W11784  19.162  32.082   4.808
43312W        W11785  26.515  43.881  12.576
43313W        W11786  39.436  22.513   0.728
43314W        W11787  17.561  41.394   0.420
43315W        W11788  28.050  15.188   3.243
43316W        W11789  22.038  17.066  10.992
43317W        W11790  44.908  42.848  12.889
43318W        W11791  37.983  16.637  12.854
43319W        W11792  40.524   1.301  11.579
43320W        W11793  33.897  33.973   0.732
43321W        W11794   9.878   0.974  14.944
43322W        W11795  27.088  29.613   2.821
43323W        W11796   5.198   4.909  14.867
43324W        W11797  36.494  17.141  12.364
43325W        W11798  33.893  24.719  14.878
43326W        W11799  38.981   7.741   2.282
43327W        W11800  23.518   3.849  12.032
43328W        W11801  26.532   4.896  13.415
43329W        W11802  12.296  23.606   1.438
43330W        W11803  33.526  39.895   0.349
43331W        W11804  43.453   9.652  13.897
43332W        W11805  24.125  32.496  12.918
43333W        W11806  24.562  35.556   4.651
43334W        W11807  25.107  34.428  14.907
43335W        W11808  27.047  12.792   3.797
43336W        W11809  31.499   4.929  12.465
43337W        W11810   3.226  26.558   4.159
43338W        W11811  31.558  38.031   4.288
43339W        W11812  44.466   1.781  13.012
43340W        W11813  24.068  14.803  12.971
43341W        W11814  18.572  22.180   3.810
43342W        W11815   8.162   3.441   4.159
43343W        W11816  13.673  16.133  12.003
43344W        W11817  36.476  25.024   3.297
43345W        W11818  43.409  10.247   4.792
43346W        W11819  10.296  35.854  10.143
43347W        W11820  35.975  30.913   0.815
43348W        W11821   9.817  35.929  11.965
43349W        W11822  40.446  32.412   0.806
43350W        W11823  41.032   6.759  14.427
43351W        W11824   8.717   1.781  11.567
43352W        W11825   6.831  13.272  11.475
43353W        W11826  41.869  38.444  14.923
43354W        W11827  27.123  43.976  13.806
43355W        W11828  27.525  19.058   3.747
43356W        W11829  39.034   5.900  11.047
43357W        W11830  24.687  32.964  13.962
43358W        W11831   4.270  42.322  12.002
43359W        W11832  15.104   4.784   2.330
43360W        W11833   0.934  16.665   0.934
43361W        W11834   9.206  42.462   1.219
43362W        W11835  33.528  40.990  11.381
43363W        W11836   1.285  28.169   0.479
43364W        W11837  12.194   0.912   1.318
43365W        W11838  21.196  25.710  10.529
43366W        W11839  42.478   3.807  10.915
43367W        W11840   5.241  24.019   2.896
43368W        W11841   8.805  25.185   1.216
43369W        W11842  29.556   7.740  14.467
43370W        W11843   0.488  35.459   3.801
43371W        W11844  36.556  43.427   4.830
43372W        W11845  35.868  35.995  12.395
43373W        W11846  30.605  20.271   1.414
43374W        W11847   9.264  16.122  13.979
43375W        W11848  31.607  23.076  13.481
43376W        W11849  20.734  19.135  11.000
43377W        W11850  29.945   7.760  11.058
43378W        W11851  32.468  23.734   1.723
43379W        W11852  26.080  33.565  11.547
43380W        W11853  38.888  27.517   0.348
43381W        W11854  15.824  16.217   2.846
43382W        W11855  39.043  16.642   1.817
43383W        W11856  16.643   0.385   4.172
43384W        W11857  21.626  36.478  13.064
43385W        W11858  12.337  34.378  12.572
43386W        W11859  36.549  23.227  12.926
43387W        W11860  18.591  42.458  13.478
43388W        W11861  18.126   4.882  10.547
43389W        W11862  14.678  28.029   1.726
43390W        W11863  28.131   2.256   1.833
43391W        W11864   2.772  42.837   4.736
43392W        W11865  39.014   1.789  10.404
43393W        W11866   7.291  31.080  14.278
43394W        W11867   9.802  13.321   0.872
43395W        W11868   0.923  19.201  12.525
43396W        W11869   7.863  36.018  10.891
43397W        W11870  44.378   6.218  13.514
43398W        W11871  10.660   1.856  14.987
43399W        W11872  29.996  17.107  10.921
43400W        W11873  14.287  43.342  14.296
43401W        W11874  24.623   9.242   1.422
43402W        W11875  27.634   6.822  14.910
43403W        W11876  16.732  23.651   1.318
43404W        W11877   9.381  23.095   4.280
43405W        W11878  16.732   0.786   4.171
43406W        W11879  21.096   3.716   4.273
43407W        W11880  36.467   2.410   2.895
43408W        W11881  28.992  30.426  10.443
43409W        W11882  42.010  13.730   3.158
43410W        W11883  15.237   8.370  10.586
43411W        W11884  35.956  29.451   1.255
43412W        W11885  19.567  17.578   4.796
43413W        W11886  42.454  36.397   3.733
43414W        W11887  20.705   3.338  14.297
43415W        W11888  39.371  22.699  13.370
43416W        W11889  15.820   4.288   2.334
43417W        W11890  23.710  34.090  13.331
43418W        W11891  41.043  26.531  13.338
43419W        W11892  42.324   7.732   4.838
43420W        W11893  22.039  23.023   2.870
43421W        W11894  17.163   6.351   3.842
43422W        W11895   3.255  27.075  11.378
43423W        W11896   9.686  23.490  12.832
43424W        W11897  43.807  29.667  13.408
43425W        W11898   0.846  35.551   3.232
43426W        W11899  28.036  42.414  12.083
43427W        W11900  41.389  39.027   2.184
43428W        W11901   4.853  34.541  11.533
43429W        W11902   8.837  32.084   5.200
43430W        W11903  24.698   1.417   3.331
43431W        W11904  27.502  28.134  13.462
43432W        W11905  34.962  33.623   0.847
43433W        W11906  13.318   1.373  11.048
43434W        W11907   5.771  19.238   2.810
43435W        W11908   9.889  19.092  12.071
43436W        W11909  29.977  21.710   3.229
43437W        W11910  16.072  36.406   0.853
43438W        W11911  32.007  44.798  12.507
43439W        W11912   0.770   3.718  12.527
43440W        W11913  17.594  37.432  14.463
43441W        W11914  18.546  42.512   0.429
43442W        W11915  28.111  13.175  13.854
43443W        W11916  24.026   9.663  13.438
43444W        W11917   9.322  30.492   0.736
43445W        W11918  22.031   2.318  10.967
43446W        W11919   8.403  37.439   4.717
43447W        W11920  22.643   8.760   2.837
43448W        W11921  41.826   8.829   9.928
43449W        W11922  26.537  44.854  13.479
43450W        W11923   5.811  21.567  12.504
43451W        W11924  16.071  24.520   1.268
43452W        W11925   7.306  26.118   2.901
43453W        W11926  41.997  19.537   3.208
43454W        W11927  29.443   9.170  11.393
43455W        W11928  14.700  27.052  10.608
43456W        W11929   6.754  20.105   3.853
43457W        W11930  15.630  39.409   1.314
43458W        W11931  36.000  22.677   4.790
43459W        W11932  20.703  22.252  13.427
43460W        W11933  44.833  38.491  12.908
43461W        W11934  13.625  33.010   1.439
43462W        W11935  44.436  16.293   0.370
43463W        W11936  36.455  38.970  14.291
43464W        W11937   5.235  34.970  12.015
43465W        W11938  41.421  20.225  11.394
43466W        W11939  18.608  35.954   0.747
43467W        W11940  36.941   0.877   3.769
43468W        W11941  32.053  27.035  12.009
43469W        W11942  21.640  23.007  13.874
43470W        W11943  16.696  37.493   5.288
43471W        W11944  37.833  34.540  11.912
43472W        W11945  12.724  16.701  11.516
43473W        W11946  30.533  40.309   3.632
43474W        W11947  44.922   3.294   2.341
43475W        W11948  32.498   4.902   4.157
43476W        W11949  21.207   5.312  12.466
43477W        W11950   6.231   7.904   2.801
43478W        W11951  43.881   2.323  13.054
43479W        W11952  23.088   0.773  14.442
43480W        W11953  38.449  20.709  12.010
43481W        W11954  16.589  42.919   2.253
43482W        W11955  36.565  33.558  11.498
43483W        W11956   7.786   0.832   3.720
43484W        W11957  32.591   8.822   0.468
43485W        W11958  24.125  23.217   3.848
43486W        W11959  29.028  37.361  13.982
43487W        W11960   5.786  22.724  14.445
43488W        W11961  32.951  12.835  14.340
43489W        W11962  27.040  33.615   4.664
43490W        W11963  27.000  29.496   0.811
43491W        W11964  14.668  11.366  10.082
43492W        W11965  36.041  38.507  11.372
43493W        W11966  21.545  16.699  14.307
43494W        W11967  25.141  21.562  12.419
43495W        W11968  11.696  44.294  11.495
43496W        W11969  29.426  25.088   2.212
43497W        W11970  27.519  16.165  10.528
43498W        W11971  20.609  19.053   4.150
43499W        W11972  28.105   8.817  11.077
43500W        W11973   9.189  26.086   2.883
43501W        W11974  32.492  14.230  13.511
43502W        W11975  16.232  28.603  14.318
43503W        W11976  17.713  29.092  14.305
43504W        W11977  42.850  15.693  14.892
43505W        W11978  39.866  28.510   3.849
43506W        W11979  40.449  13.143   1.327
43507W        W11980  28.540  37.374   3.668
43508W        W11981  26.677  11.864   4.826
43509W        W11982   9.278  26.967  13.458
43510W        W11983   9.309  24.016   4.780
43511W        W11984   2.789  36.886   4.657
43512W        W11985   3.446  26.600  12.952
43513W        W11986  18.580  39.823  14.404
43514W        W11987  35.066  39.927  11.596
43515W        W11988   3.400   0.441   1.384
43516W        W11989   6.420   0.770  13.941
43517W        W11990  36.081  19.759  13.985
43518W        W11991  36.460  21.570   2.704
43519W        W11992  42.801  29.156   1.727
43520W        W11993   9.827   5.200  11.082
43521W        W11994  34.952  15.756  12.427
43522W        W11995  21.543  26.685   2.834
43523W        W11996  14.737  24.188  10.629
43524W        W11997  13.773  37.063   2.350
43525W        W11998   7.397  14.297  12.538
43526W        W11999  38.971  36.093   1.708
43527W        W12000  17.567  11.769  14.014
43528W        W12001  36.876  44.943  11.432
43529W        W12002   1.778  42.891  13.948
43530W        W12003   2.967  31.499  14.282
43531W        W12004  34.030  39.959  13.874
43532W        W12005  22.502   0.844  11.590
43533W        W12006  18.195  40.877   1.750
43534W        W12007  25.076   7.331   1.274
43535W        W12008  14.602  15.753   2.788
43536W        W12009  30.484  20.636   3.846
43537W        W12010  13.285  15.145   2.780
43538W        W12011   6.285  42.818  10.596
43539W        W12012  41.415  38.055  13.360
43540W        W12013  33.438   5.417  10.958
43541W        W12014   8.386  37.570   1.803
43542W        W12015  18.113  13.601   0.365
43543W        W12016  32.929  21.571   2.828
43544W        W12017   3.267  41.947  10.522
43545W        W12018   1.785   0.864  10.986
43546W        W12019   2.781  16.801   3.784
43547W        W12020  11.841  38.508  12.358
43548W        W12021   2.839  37.988  12.367
43549W        W12022  34.968   2.309  11.476
43550W        W12023  41.975  35.482   2.264
43551W        W12024  27.060  38.400   2.349
43552W        W12025  20.072  36.530  14.770
43553W        W12026  20.117   6.197   1.823
43554W        W12027  26.530  21.601  13.308
43555W        W12028  18.578  19.080   4.218
43556W        W12029  30.530   0.468  14.344
43557W        W12030   5.881   7.255   5.675
43558W        W12031  37.369  11.191  10.555
43559W        W12032  25.523   5.798  12.935
43560W        W12033   0.771  21.251  12.578
43561W        W12034  38.512  38.046   4.240
43562W        W12035  44.446  23.521  12.388
43563W        W12036  44.435  13.839   0.938
43564W        W12037  10.360   1.763  12.955
43565W        W12038  31.968   3.404  11.937
43566W        W12039   7.256  30.159   4.665
43567W        W12040   0.287  42.969  12.360
43568W        W12041   6.913  37.902  11.952
43569W        W12042   6.231  34.375  14.858
43570W        W12043   0.828  38.852  13.481
43571W        W12044  14.151  19.738  12.350
43572W        W12045  25.625  38.060  12.491
43573W        W12046  10.708   7.768  12.340
43574W        W12047  38.831  19.279  11.037
43575W        W12048  10.320  14.696   4.203
43576W        W12049  42.986  33.612   4.160
43577W        W12050  18.572  20.185   3.807
43578W        W12051  23.178  14.310   2.774
43579W        W12052  22.240  16.790   2.665
43580W        W12053  13.725   0.938   2.292
43581W        W12054  32.557   0.944  13.357
43582W        W12055  39.970  28.668   0.415
43583W        W12056  11.639  22.692  12.078
43584W        W12057  10.812  17.726  12.987
43585W        W12058  23.556  28.105  12.041
43586W        W12059  24.698  20.755   1.422
43587W        W12060  14.700  43.936  13.019
43588W        W12061   3.744  41.916   4.640
43589W        W12062  27.185  42.938   3.743
43590W        W12063   6.396  39.038   5.208
43591W        W12064   9.298  26.079   1.903
43592W        W12065  32.103  30.997  13.401
43593W        W12066  37.066  28.493  14.388
43594W        W12067  34.116  20.174   2.262
43595W        W12068  20.104  17.228  10.930
43596W        W12069  15.671  27.608  11.905
43597W        W12070  23.218  21.219  12.521
43598W        W12071  32.419  18.565  10.470
43599W        W12072  42.492   5.707   2.392
43600W        W12073   7.237  38.067   2.881
43601W        W12074  19.139  31.008  13.006
43602W        W12075   4.897  33.470   0.330
43603W        W12076  30.011  41.939  14.276
43604W        W12077  44.401  23.685  10.560
43605W        W12078  26.528   7.372  11.417
43606W        W12079  17.192  35.952  13.411
43607W        W12080  33.623  12.361  13.953
43608W        W12081   4.214   5.690   1.763
43609W        W12082  14.710  34.534  13.330
43610W        W12083   8.899  38.961   0.882
43611W        W12084  10.302   9.296   4.217
43612W        W12085   9.263  20.046  12.444
43613W        W12086  23.632  23.661   2.213
43614W        W12087   2.925  33.115  13.352
43615W        W12088  36.927  29.094  11.081
43616W        W12089  14.231  24.647   1.738
43617W        W12090  15.801  11.259  14.023
43618W        W12091  23.525  23.136   2.807
43619W        W12092   4.805   2.940  14.815
43620W        W12093  27.142  14.733  11.900
43621W        W12094  11.832  16.072  12.874
43622W        W12095   9.392  15.822  13.987
43623W        W12096  34.914   1.761  12.473
43624W        W12097  27.455   8.763   3.253
43625W        W12098  17.067  20.136  10.643
43626W        W12099  27.691   8.182  12.510
43627W        W12100   5.329   0.377  11.072
43628W        W12101  10.736   3.949   2.412
43629W        W12102  32.947  12.117  11.592
43630W        W12103   5.927  14.596  14.304
43631W        W12104  38.364   0.425  13.330
43632W        W12105  33.005  23.702   1.449
43633W        W12106   2.825   1.442  12.828
43634W        W12107  18.759  41.437  10.595
43635W        W12108  33.990  38.326  11.541
43636W        W12109  43.351  40.892  13.895
43637W        W12110  32.552  37.990  13.373
43638W        W12111  19.238   9.155   1.783
43639W        W12112  11.372  24.570   0.967
43640W        W12113  22.241  18.072  13.354
43641W        W12114  15.635  19.142  10.501
43642W        W12115  19.187  15.688   1.723
43643W        W12116  40.378  19.214  13.000
43644W        W12117  12.290   4.734   2.355
43645W        W12118   6.910  43.473   2.757
43646W        W12119  43.307  40.848   3.257
43647W        W12120   6.380  14.098   3.844
43648W        W12121  15.758  28.037   2.709
43649W        W12122   4.268   3.426  14.280
43650W        W12123  37.518  40.354   4.803
43651W        W12124  22.119  39.059  10.963
43652W        W12125  11.861  18.165  11.450
43653W        W12126  13.684  37.500   1.407
43654W        W12127  25.491   4.352   0.772
43655W        W12128  33.396  25.022  10.929
43656W        W12129  41.029  31.935   2.713
43657W        W12130  30.978  19.108   0.911
43658W        W12131  30.997  26.508  11.050
43659W        W12132   3.888  35.902  14.932
43660W        W12133   6.881  37.407   0.390
43661W        W12134  34.889  37.526   3.632
43662W        W12135  30.460  35.038  12.974
43663W        W12136  16.268  27.638  10.627
43664W        W12137  23.538  15.262   5.689
43665W        W12138  37.080  36.450   1.712
43666W        W12139   1.340  16.773  14.954
43667W        W12140   5.337  23.501  11.886
43668W        W12141  37.410  29.560   4.632
43669W        W12142   3.880  41.524   0.264
43670W        W12143  32.624  22.609   3.658
43671W        W12144  41.984  29.946  10.582
43672W        W12145  12.849  42.437  10.592
43673W        W12146  33.057  37.909  12.360
43674W        W12147  33.515  12.328   1.278
43675W        W12148   3.899  31.529   3.786
43676W        W12149  41.026  20.671  11.887
43677W        W12150  12.193  34.525   0.868
43678W        W12151  40.402  38.571   4.318
43679W        W12152  31.020   6.317   0.770
43680W        W12153  12.732  35.097  14.821
43681W        W12154   2.425  23.226  13.342
43682W        W12155  34.066   3.452  11.861
43683W        W12156  23.214   2.817   2.667
43684W        W12157   6.859  29.948  13.420
43685W        W12158   1.748   7.257   4.256
43686W        W12159   0.797  13.295   4.679
43687W        W12160  19.542  44.764  12.340
43688W        W12161   6.288  31.539   2.354
43689W        W12162  23.615  25.189   0.277
43690W        W12163  21.597  17.181   1.849
43691W        W12164  38.065  31.106  10.539
43692W        W12165   6.272  10.642  11.491
43693W        W12166  26.628  31.971   1.249
43694W        W12167   4.909  41.820  14.804
43695W        W12168  15.193  33.104   1.863
43696W        W12169   8.233  28.026  14.325
43697W        W12170  29.149  12.307   4.682
43698W        W12171  28.961   3.271   2.756
43699W        W12172  19.727  27.680  11.973
43700W        W12173  17.095  36.097  12.910
43701W        W12174  14.323  12.299  13.036
43702W        W12175  24.144  43.981   4.625
43703W        W12176   6.887  39.503  14.966
43704W        W12177  14.231  36.371  11.462
43705W        W12178  18.077   0.866   3.369
43706W        W12179  41.001   1.343   1.321
43707W        W12180  23.567  37.847   4.205
43708W        W12181   3.453  10.676  13.379
43709W        W12182  34.058  41.466   2.349
43710W        W12183  23.151  38.324  14.801
43711W        W12184  22.537  43.380   4.634
43712W        W12185  41.451  14.683   1.379
43713W        W12186  23.534  33.001  11.926
43714W        W12187  29.051  32.426   1.864
43715W        W12188   2.278  12.743   2.253
43716W        W12189  17.136   6.744  10.404
43717W        W12190  30.094  43.506   4.761
43718W        W12191  13.784   3.740  12.897
43719W        W12192  36.863  22.228  10.897
43720W        W12193   7.246  17.686  11.117
43721W        W12194  19.751   5.809   1.434
43722W        W12195   8.750  19.230   0.877
43723W        W12196  32.061  10.779  13.806
43724W        W12197  33.424   8.397  12.900
43725W        W12198  36.089  10.740  11.501
43726W        W12199  20.540  29.636  14.803
43727W        W12200  29.502   7.761  13.022
43728W        W12201  44.412  15.764  12.453
43729W        W12202  12.320  33.911   4.313
43730W        W12203  19.104  38.890   2.311
43731W        W12204  24.571  19.285   1.331
43732W        W12205  19.205  14.173   5.172
43733W        W12206  29.165  10.827  14.886
43734W        W12207  43.373  38.471   3.329
43735W        W12208  32.053   2.331  14.377
43736W        W12209  28.615  36.416   0.374
43737W        W12210  17.625  39.387  10.482
43738W        W12211   2.813  23.512  11.108
43739W        W12212  42.525  44.370   4.146
43740W        W12213  44.912  15.814  13.372
43741W        W12214  31.083  33.431   3.766
43742W        W12215  41.305  37.912   4.769
43743W        W12216  35.407  33.039  12.867
43744W        W12217  43.465  38.955  10.415
43745W        W12218  20.620  20.681  10.951
43746W        W12219  33.566   6.243   4.725
43747W        W12220  29.122  35.572   3.789
43748W        W12221  30.058  12.247  11.417
43749W        W12222  43.430  16.263   0.251
43750W        W12223   9.271  32.047   1.710
43751W        W12224  19.056  44.808  12.442
43752W        W12225  16.225  40.916  11.443
43753W        W12226  14.257  15.710  11.929
43754W        W12227   5.813  29.436  12.436
43755W        W12228   3.243  31.593  10.944
43756W        W12229  18.598  32.414  13.872
43757W        W12230  29.548  17.690   1.871
43758W        W12231  21.676   5.800  12.478
43759W        W12232  19.245  21.515   3.195
43760W        W12233  23.617  23.153  12.564
43761W        W12234   8.704  31.053  14.365
43762W        W12235  20.259  33.459   2.364
43763W        W12236  39.378  14.140   3.355
43764W        W12237  10.371  28.517  13.906
43765W        W12238  23.182  43.822  11.056
43766W        W12239  12.216  12.286  11.449
43767W        W12240  17.786   3.452  12.886
43768W        W12241  13.169  14.320   0.939
43769W        W12242  15.179  12.340   2.712
43770W        W12243  10.344  43.945   3.365
43771W        W12244  42.361  43.010   1.413
43772W        W12245   1.869  18.687  10.943
43773W        W12246  25.491  30.968   3.633
43774W        W12247  15.677  40.042   1.915
43775W        W12248  26.998   7.877  12.976
43776W        W12249  27.947   2.850  11.116
43777W        W12250  39.406   8.710  10.553
43778W        W12251  36.445  22.243   3.220
43779W        W12252  35.917   4.880  11.901
43780W        W12253  11.700  27.155   1.898
43781W        W12254  17.710   5.865   1.403
43782W        W12255  22.536  23.015  11.476
43783W        W12256  15.733   8.827  14.362
43784W        W12257  37.448  12.656   1.922
43785W        W12258  39.054  14.339   1.699
43786W        W12259  13.119  40.801  11.449
43787W        W12260  10.855  11.862   4.719
43788W        W12261   0.808  27.043   3.748
43789W        W12262  29.933  40.950  11.891
43790W        W12263  29.631  26.519  12.544
43791W        W12264   8.161   3.749  13.860
43792W        W12265  26.695   6.778  14.405
43793W        W12266   3.798   7.195   0.341
43794W        W12267   3.337   0.812   3.269
43795W        W12268  39.900  43.320  11.875
43796W        W12269  17.163  31.061  13.547
43797W        W12270  29.489  29.573   2.736
43798W        W12271  36.095  25.698   1.385
43799W        W12272   7.801  36.386   2.685
43800W        W12273  22.610   0.429   1.407
43801W        W12274   6.820   5.748   0.462
43802W        W12275  38.061   2.865   1.212
43803W        W12276  36.396  40.909  13.801
43804W        W12277  33.046  16.639  12.954
43805W        W12278  20.071  44.262   3.665
43806W        W12279   5.263  28.511   1.211
43807W        W12280  25.488  13.697  13.996
43808W        W12281  16.704  18.566  11.983
43809W        W12282  10.240  22.672  14.475
43810W        W12283  39.008  40.417   2.684
43811W        W12284   4.832   3.393  11.381
43812W        W12285  21.598  17.223  14.974
43813W        W12286  41.944   8.760  14.805
43814W        W12287  35.098  12.194   0.866
43815W        W12288  38.884  31.112  12.835
43816W        W12289  42.517   6.389  11.860
43817W        W12290   1.399   4.241  13.949
43818W        W12291  11.358   4.838   3.367
43819W        W12292  42.866  42.859  11.599
43820W        W12293  35.906  37.959  10.456
43821W        W12294  16.171   4.217   3.159
43822W        W12295  28.994  21.167  13.982
43823W        W12296  42.514   2.829   4.349
43824W        W12297  19.090  38.450  14.780
43825W        W12298  40.413  26.602  11.500
43826W        W12299  21.132  36.443  14.897
43827W        W12300  41.505   8.773   2.762
43828W        W12301  29.174  26.144   2.720
43829W        W12302  29.653  16.727   0.835
43830W        W12303   3.332  23.048   1.814
43831W        W12304  25.577  20.585   1.732
43832W        W12305  33.499  15.621   2.822
43833W        W12306   1.897  30.425   3.175
43834W        W12307  35.499   0.270  11.570
43835W        W12308  33.536  16.622  10.562
43836W        W12309  10.753  10.274   2.373
43837W        W12310  17.790   4.708   2.230
43838W        W12311  34.583  26.647  10.918
43839W        W12312  34.517  33.574  13.405
43840W        W12313   7.383   1.863   3.269
43841W        W12314  16.246   1.398   3.338
43842W        W12315  41.481  34.571  14.904
43843W        W12316  22.128  43.393   2.858
43844W        W12317  27.675  18.756   3.380
43845W        W12318  40.358  35.079   5.291
43846W        W12319  37.005  10.186   2.826
43847W        W12320  23.492  23.548  12.013
43848W        W12321  10.210  44.408  12.405
43849W        W12322  40.444   6.692   4.187
43850W        W12323  29.427   6.344   3.704
43851W        W12324  27.650  27.184  11.550
43852W        W12325   1.837  34.941   1.431
43853W        W12326  16.797  11.667   1.417
43854W        W12327   6.677  30.464  12.927
43855W        W12328  13.325  37.569  11.401
43856W        W12329   2.801  13.238  13.354
43857W        W12330  39.848  16.661  13.417
43858W        W12331   6.782   4.299  13.521
43859W        W12332  18.161  20.676   1.774
43860W        W12333  44.007   1.381   2.217
43861W        W12334  20.563  34.870   2.349
43862W        W12335  18.583   1.907   4.810
43863W        W12336  14.748  43.928   1.235
43864W        W12337  24.716  40.950  14.024
43865W        W12338  33.534  20.524  11.387
43866W        W12339  29.055  25.651   2.211
43867W        W12340  26.099  15.155  14.860
43868W        W12341  32.441  28.450   0.482
43869W        W12342  43.973   2.722   2.741
43870W        W12343  30.600  24.987   1.404
43871W        W12344   1.787  34.544   0.822
43872W        W12345   8.871   2.924   0.847
43873W        W12346  20.198  12.732  14.977
43874W        W12347   1.794  33.052  12.979
43875W        W12348  19.059  13.190   3.824
43876W        W12349  16.701   2.924   4.158
43877W        W12350   7.249  33.947   4.633
43878W        W12351  13.794  13.650   0.843
43879W        W12352   4.845  36.047   3.845
43880W        W12353  10.281  28.531  11.917
43881W        W12354  28.453  42.784  10.526
43882W        W12355  12.659  39.049   3.275
43883W        W12356  30.045  11.629  12.010
43884W        W12357  23.018   9.364  13.895
43885W        W12358  11.717  38.414   0.358
43886W        W12359  22.551  10.751  10.522
43887W        W12360  17.115  23.155   2.201
43888W        W12361  11.820  12.162   4.183
43889W        W12362  43.429  15.642   4.255
43890W        W12363  21.181  43.778  13.948
43891W        W12364  36.042  41.390   2.187
43892W        W12365  20.097   9.730  13.950
43893W        W12366  40.012   8.769   4.805
43894W        W12367  13.254  11.788  10.638
43895W        W12368  10.275   0.920  14.409
43896W        W12369  16.225  44.385   3.791
43897W        W12370   3.886  43.988   1.286
43898W        W12371   5.388  17.191  10.021
43899W        W12372   8.727   9.241   2.298
43900W        W12373   9.753  12.632  12.916
43901W        W12374  35.958  38.924  10.055
43902W        W12375  40.333  11.859  11.505
43903W        W12376  44.872  21.052  14.834
43904W        W12377   2.338  24.633  14.397
43905W        W12378   6.757   4.433  14.431
43906W        W12379  26.602  13.677   4.237
43907W        W12380  44.339  35.879   3.826
43908W        W12381  17.077  13.739  14.480
43909W        W12382  31.116  33.473  14.821
43910W        W12383  14.802  29.029  10.578
43911W        W12384  25.638   3.302   3.282
43912W        W12385  44.864  33.575   1.917
43913W        W12386   6.271  10.809  10.906
43914W        W12387  37.374  41.963   4.249
43915W        W12388  21.526  37.859  13.361
43916W        W12389   4.228  26.205  11.041
43917W        W12390  31.068  23.516   4.824
43918W        W12391  17.216   5.203  11.902
43919W        W12392  33.583  29.097  12.865
43920W        W12393  29.615   8.810  10.565
43921W        W12394  12.344  11.690   3.319
43922W        W12395  26.605  17.601   4.217
43923W        W12396  31.001   2.292  13.446
43924W        W12397  34.569  43.966  14.475
43925W        W12398  42.500  31.578  13.462
43926W        W12399  43.930   8.669  14.303
43927W        W12400  19.569  24.552   2.772
43928W        W12401  21.583  18.226   4.155
43929W        W12402   1.270  24.056  10.491
43930W        W12403  17.246  19.698   4.801
43931W        W12404   6.785  37.892   4.187
43932W        W12405  25.052   3.283  12.462
43933W        W12406  23.988  44.799  12.474
43934W        W12407  28.501  42.474   1.374
43935W        W12408   4.320  44.826  12.044
43936W        W12409  33.401   9.250  11.443
43937W        W12410  31.949  40.049   2.349
43938W        W12411  22.233  31.908  13.997
43939W        W12412   4.876  16.187  14.452
43940W        W12413   4.219  23.080   2.708
43941W        W12414  42.999  24.128   5.120
43942W        W12415  27.490   4.208  14.417
43943W        W12416   4.858  10.773   4.259
43944W        W12417   2.321  34.453  11.908
43945W        W12418  20.647  21.662   4.645
43946W        W12419  43.468  15.122   0.912
43947W        W12420  23.025  29.585  13.017
43948W        W12421  26.456  34.567   4.246
43949W        W12422  28.646  29.121   0.825
43950W        W12423  26.457  30.162   0.832
43951W        W12424  13.260  26.190  11.444
43952W        W12425   0.872   8.673   3.739
43953W        W12426  31.153  17.664   0.744
43954W        W12427   0.806  34.451   2.179
43955W        W12428  31.047  31.020  14.929
43956W        W12429   2.243   6.881  14.504
43957W        W12430  27.025  29.070   3.189
43958W        W12431  25.200  30.932   3.866
43959W        W12432  24.191  28.468  11.013
43960W        W12433  27.095   1.328   2.858
43961W        W12434   3.932  19.538  12.464
43962W        W12435  43.973  36.075  14.409
43963W        W12436   5.347   1.265   4.790
43964W        W12437   7.791   6.383  14.828
43965W        W12438  31.456  41.820  12.882
43966W        W12439  44.434  24.514  12.023
43967W        W12440  26.196   7.355  13.020
43968W        W12441  21.262  25.635  12.521
43969W        W12442  29.456  28.125  12.963
43970W        W12443   7.234   3.805  12.574
43971W        W12444   3.951  31.916   4.148
43972W        W12445  19.210  19.577   2.370
43973W        W12446  11.660  39.363   1.389
43974W        W12447  23.080   9.713  11.484
43975W        W12448   7.200  40.887  10.524
43976W        W12449  35.889  34.375  12.392
43977W        W12450  25.670   8.371   4.255
43978W        W12451   6.765  22.053  13.453
43979W        W12452  28.544  39.436   1.913
43980W        W12453  42.499  31.151  10.419
43981W        W12454  42.498   5.384  13.326
43982W        W12455  35.041  21.220   1.282
43983W        W12456   5.247  32.620  14.016
43984W        W12457   1.332  40.365  14.905
43985W        W12458  38.052  42.379  10.451
43986W        W12459  17.597   5.791  11.022
43987W        W12460  33.460  25.558  12.451
43988W        W12461  42.924  22.078  11.512
43989W        W12462  32.049   0.398   2.227
43990W        W12463  41.416  43.384   1.879
43991W        W12464  13.248  29.597  11.485
43992W        W12465  36.986  14.229   3.189
43993W        W12466  12.628  27.559  14.785
43994W        W12467  23.560  26.155  10.048
43995W        W12468  12.709   4.863  13.823
43996W        W12469  41.394  30.993   3.373
43997W        W12470  38.559  20.721  11.556
43998W        W12471  16.198  33.040   2.224
43999W        W12472  30.996  24.671   4.777
44000W        W12473  38.501  35.063   1.845
44001W        W12474  22.070  19.149   2.408
44002W        W12475  24.696  35.445  11.392
44003W        W12476  19.187  18.703  10.595
44004W        W12477  28.576  42.516   4.283
44005W        W12478  44.885   7.246   4.651
44006W        W12479  27.484  30.062   3.812
44007W        W12480  11.838   9.264   2.410
44008W        W12481  10.284  27.000  10.568
44009W        W12482  25.576  41.915  12.455
44010W        W12483   2.273   7.719  11.411
44011W        W12484   0.988  29.948  12.953
44012W        W12485  36.867  12.122   0.448
44013W        W12486  23.002  28.492  12.448
44014W        W12487  14.147  42.002   2.378
44015W        W12488   4.870  20.199  11.431
44016W        W12489  40.009  38.422  14.417
44017W        W12490   3.869   9.789   3.146
44018W        W12491   8.287  37.992   4.663
44019W        W12492   3.218   5.694   3.309
44020W        W12493  20.169   2.966   3.797
44021W        W12494   7.750  19.739  11.088
44022W        W12495  17.139  29.116  10.453
44023W        W12496  38.014  34.879  11.025
44024W        W12497  29.578  18.764   0.334
44025W        W12498  39.003  35.517   2.707
44026W        W12499  38.499  26.483  11.904
44027W        W12500  23.099  14.776  11.927
44028W        W12501  37.905   3.914  10.567
44029W        W12502  14.686  40.345  11.884
44030W        W12503  21.206  29.653   4.286
44031W        W12504  40.972  38.392   3.802
44032W        W12505  36.585  31.943  11.569
44033W        W12506  22.701  25.573  11.446
44034W        W12507  26.994   0.312   0.462
44035W        W12508   2.728   9.871  13.054
44036W        W12509  32.071  24.509   4.198
44037W        W12510  23.045  23.069   3.692
44038W        W12511  17.587  26.185   3.692
44039W        W12512  13.640   0.482   2.712
44040W        W12513  14.833  36.092   2.809
44041W        W12514  30.413   1.343   2.243
44042W        W12515  11.128  11.346   2.401
44043W        W12516  20.679  35.396   4.325
44044W        W12517  17.134  29.490  14.763
44045W        W12518  27.576  12.199  14.445
44046W        W12519   5.761   5.420  11.576
44047W        W12520  10.335  43.953  10.607
44048W        W12521  32.523  27.583  13.963
44049W        W12522   8.699  16.590  14.902
44050W        W12523  20.653  22.102   1.297
44051W        W12524  18.289  44.395   2.321
44052W        W12525  13.143  19.278  11.939
44053W        W12526  43.341  40.959   1.387
44054W        W12527   8.860  38.498   0.826
44055W        W12528  42.459  38.855  12.523
44056W        W12529  39.949  40.824   4.724
44057W        W12530  15.177  40.892   0.751
44058W        W12531  25.141  41.803   2.323
44059W        W12532  38.073  24.122  13.819
44060W        W12533  30.635  10.153   1.330
44061W        W12534  12.356  30.598   4.782
44062W        W12535  30.045  40.979  11.019
44063W        W12536  41.875  34.110   2.871
44064W        W12537  22.572  15.167   0.785
44065W        W12538  29.058  37.043  12.374
44066W        W12539  34.498  28.058   3.150
44067W        W12540  43.348  43.514  13.380
44068W        W12541   7.858  31.997   0.478
44069W        W12542   9.769  42.944  14.977
44070W        W12543   9.682   8.847  11.908
44071W        W12544   7.789  40.537  14.895
44072W        W12545  31.103  37.487  13.924
44073W        W12546  17.133  20.260  13.992
44074W        W12547  21.116   2.877   1.820
44075W        W12548  28.517  40.829  10.590
44076W        W12549   0.875  39.329   2.788
44077W        W12550  23.575  42.436  12.093
44078W        W12551  21.248  23.998   3.302
44079W        W12552  34.483  14.201   0.849
44080W        W12553   8.172  30.979  11.533
44081W        W12554  14.789  24.176   4.835
44082W        W12555   6.327   8.871   2.396
44083W        W12556  17.295  27.623  12.507
44084W        W12557  29.012  41.871   1.906
44085W        W12558  29.561  40.882   0.424
44086W        W12559  37.537  29.537   1.857
44087W        W12560  20.125  34.895  13.415
44088W        W12561  22.066  19.064  14.476
44089W        W12562  17.566  27.476   1.423
44090W        W12563  40.537  38.875  11.006
44091W        W12564   5.881  37.413   2.216
44092W        W12565   6.359   8.168  11.946
44093W        W12566  10.202  22.511   1.789
44094W        W12567  28.115   4.762  14.941
44095W        W12568  14.211  28.999  11.409
44096W        W12569  40.314  28.649   1.778
44097W        W12570  26.098   3.247   5.184
44098W        W12571  22.055  34.086  13.412
44099W        W12572  21.726   1.764  11.518
44100W        W12573  13.300  14.763   4.179
44101W        W12574  12.305  36.099   0.286
44102W        W12575  15.764  27.677   2.696
44103W        W12576  43.333  36.565   2.664
44104W        W12577  27.187   1.369  13.516
44105W        W12578   8.286  21.609  11.467
44106W        W12579  38.840  24.229  11.949
44107W        W12580  37.954  36.548   0.783
44108W        W12581  26.957  12.330  10.999
44109W        W12582  40.043  32.927   3.827
44110W        W12583  26.589   1.381   0.788
44111W        W12584  10.704  34.963  13.040
44112W        W12585  22.234   1.901   4.264
44113W        W12586  26.081  39.321   2.338
44114W        W12587  32.583  29.588  14.911
44115W        W12588   5.826  16.122  12.456
44116W        W12589  38.965  33.085  13.822
44117W        W12590  30.100  25.711   4.346
44118W        W12591   4.888  11.345   3.368
44119W        W12592  39.026   0.799  11.063
44120W        W12593  20.578  27.082   2.366
44121W        W12594   2.735  11.783  12.475
44122W        W12595  31.498  15.667  11.429
44123W        W12596   3.301  32.476   1.333
44124W        W12597  16.593   1.338   4.277
44125W        W12598  12.708  29.586  14.937
44126W        W12599  43.374   4.412  12.497
44127W        W12600  10.207  27.088   1.785
44128W        W12601  14.198  29.114   4.275
44129W        W12602   0.873   4.939   0.911
44130W        W12603  17.251  29.577  11.386
44131W        W12604  42.340  41.004  13.820
44132W        W12605  18.691  27.187  12.431
44133W        W12606  40.322  24.008  11.009
44134W        W12607  41.338  23.691  13.962
44135W        W12608   5.764   6.729  14.880
44136W        W12609  26.469  21.668   0.751
44137W        W12610  26.577   8.777   3.289
44138W        W12611  44.373  23.180  14.834
44139W        W12612  26.517   2.434   2.216
44140W        W12613  10.200  32.464  14.492
44141W        W12614  15.752  22.124  14.020
44142W        W12615  14.786  13.196   4.271
44143W        W12616  21.515   5.777   0.413
44144W        W12617   3.245  26.986  14.859
44145W        W12618  39.869  16.228  14.502
44146W        W12619   5.722  23.699  12.847
44147W        W12620  34.575  11.194   0.461
44148W        W12621  14.624  12.135   4.758
44149W        W12622  27.044  41.297   2.875
44150W        W12623  36.891  36.892  12.569
44151W        W12624   8.664  29.572  14.874
44152W        W12625  40.525  29.614   4.598
44153W        W12626   0.278   5.249   2.701
44154W        W12627  31.021  38.938   0.316
44155W        W12628  41.309  18.164  10.479
44156W        W12629  11.181  36.504  14.461
44157W        W12630  16.703   5.260  12.427
44158W        W12631  17.658  39.940   2.406
44159W        W12632  10.840  16.072   4.668
44160W        W12633   9.814  33.955  10.005
44161W        W12634  14.671  15.776   1.699
44162W        W12635  33.053  23.091  12.848
44163W        W12636  12.152  29.492   2.339
44164W        W12637  22.500  11.721   1.381
44165W        W12638  31.113  12.119  13.480
44166W        W12639  21.647  37.922  11.511
44167W        W12640  30.931  32.911   4.757
44168W        W12641  29.015   4.718   1.265
44169W        W12642  33.009  19.179   0.313
44170W        W12643  30.953   1.845  11.395
44171W        W12644  38.885  43.814  13.861
44172W        W12645  24.182  42.422  13.043
44173W        W12646  42.437  10.183  12.514
44174W        W12647  13.799   6.709  14.409
44175W        W12648  12.612  20.230   4.795
44176W        W12649  19.674  33.475  13.953
44177W        W12650  39.815   2.275   2.315
44178W        W12651  12.812   9.249   2.697
44179W        W12652  34.406  41.806   3.828
44180W        W12653   0.307  15.307   2.417
44181W        W12654  31.099  23.217   5.320
44182W        W12655  11.781  20.756   1.849
44183W        W12656  39.831  17.199   0.754
44184W        W12657  25.701  26.988  11.550
44185W        W12658  14.297   1.319   3.147
44186W        W12659  36.869  44.907  13.457
44187W        W12660  41.455  16.701  14.420
44188W        W12661  27.041  13.717  11.504
44189W        W12662   7.864  32.924  14.467
44190W        W12663  28.596  13.320  11.464
44191W        W12664  13.266  31.417   2.259
44192W        W12665  15.249  10.818   4.799
44193W        W12666  18.206  19.258  13.335
44194W        W12667   6.391  18.574  10.892
44195W        W12668  35.927  23.692   0.469
44196W        W12669   7.836  10.189   9.945
44197W        W12670  35.013   4.848   0.279
44198W        W12671  28.547  21.643  14.869
44199W        W12672  21.538  25.991   0.727
44200W        W12673  25.493  10.649   1.763
44201W        W12674  15.810  37.956   0.851
44202W        W12675  21.105  28.126   5.275
44203W        W12676  35.461  42.988   1.276
44204W        W12677  16.747  14.251   3.381
44205W        W12678   7.283  36.579   2.316
44206W        W12679   1.802  23.668  13.421
44207W        W12680  35.855  27.105  10.981
44208W        W12681  19.707  11.330   3.655
44209W        W12682   9.263  18.762  14.812
44210W        W12683  15.311   6.825   2.737
44211W        W12684   4.763  16.092   1.702
44212W        W12685  13.717  33.004  14.837
44213W        W12686  42.804  28.630   4.332
44214W        W12687   2.877   5.205   4.629
44215W        W12688   5.231  29.081   1.842
44216W        W12689  40.026  25.005   3.712
44217W        W12690  15.171  13.344   0.250
44218W        W12691  11.280  19.075  13.798
44219W        W12692  39.388  14.268  13.794
44220W        W12693  16.137  13.113  10.541
44221W        W12694  11.810  27.022   3.292
44222W        W12695   8.404  24.538  14.947
44223W        W12696  21.175  17.777   2.312
44224W        W12697  24.017  43.380  14.871
44225W        W12698  44.368   2.849   0.937
44226W        W12699  17.137  30.625   0.757
44227W        W12700  22.521  13.791  10.958
44228W        W12701  21.028  41.362  10.617
44229W        W12702  18.566  37.063  10.960
44230W        W12703  38.962  42.460   3.667
44231W        W12704  23.133  40.912   0.474
44232W        W12705   9.856  41.010  14.867
44233W        W12706   1.321  17.156   3.663
44234W        W12707  44.917   7.807   2.703
44235W        W12708  37.561  42.364   0.251
44236W        W12709  22.197  30.636  10.488
44237W        W12710   0.846  40.038  13.011
44238W        W12711   2.892  27.029   2.309
44239W        W12712  18.648  38.948   4.638
44240W        W12713  22.996   7.204   2.305
44241W        W12714   3.949  11.304  10.934
44242W        W12715  28.008   2.862   4.115
44243W        W12716   9.367  17.722  11.897
44244W        W12717  25.136  15.253  10.585
44245W        W12718  12.745  43.898   0.454
44246W        W12719   9.804   2.381  10.896
44247W        W12720  27.647  27.145   2.853
44248W        W12721  34.607   8.269   1.826
44249W        W12722   9.775  33.461  14.434
44250W        W12723  36.861  32.002  13.449
44251W        W12724  40.491  44.305  14.003
44252W        W12725   9.774  38.504  11.096
44253W        W12726   1.929   6.420   1.870
44254W        W12727  35.871  33.408   2.840
44255W        W12728   4.760  29.121  13.310
44256W        W12729  32.954  34.069   1.416
44257W        W12730  17.673  42.930  13.058
44258W        W12731  19.602  36.443  14.011
44259W        W12732  38.022  24.044   3.733
44260W        W12733  11.179  28.075  11.387
44261W        W12734   1.267  15.263  14.502
44262W        W12735  34.900  30.020   4.331
44263W        W12736  24.161  15.265   1.424
44264W        W12737  28.172  43.975  13.924
44265W        W12738  10.803  13.225   3.725
44266W        W12739   3.717  19.163   1.873
44267W        W12740  18.663  36.380   0.306
44268W        W12741   3.820  35.971  12.349
44269W        W12742   0.267  23.105   0.362
44270W        W12743   6.907  17.109   2.397
44271W        W12744  11.848  39.838  13.950
44272W        W12745  44.413  22.581  14.917
44273W        W12746   1.865  33.877   2.675
44274W        W12747   3.355  26.020  14.802
44275W        W12748  21.074  10.251   1.324
44276W        W12749  21.527  19.710   3.235
44277W        W12750   6.290  37.418  13.975
44278W        W12751   2.823  18.740  11.555
44279W        W12752  21.051  18.587  10.500
44280W        W12753   7.859  33.386   5.190
44281W        W12754  35.523   3.273  13.511
44282W        W12755   2.890  18.769   2.379
44283W        W12756  13.146  38.541  14.895
44284W        W12757   4.343  24.671   2.350
44285W        W12758  42.982  39.438  14.414
44286W        W12759  15.138  14.203  11.945
44287W        W12760   7.387  41.307  12.035
44288W        W12761   7.821  44.335   1.778
44289W        W12762  26.593  16.732   4.604
44290W        W12763  38.032  16.303  12.557
44291W        W12764   0.420  24.487  11.024
44292W        W12765   8.269  12.666  10.467
44293W        W12766  19.163  43.015   2.754
44294W        W12767  16.260   3.913  14.322
44295W        W12768  24.564   1.881  13.033
44296W        W12769   2.341  24.092  12.962
44297W        W12770  17.778  27.052  12.079
44298W        W12771   3.234  41.342  13.917
44299W        W12772  34.444  30.945  13.807
44300W        W12773  28.118   1.777   2.289
44301W        W12774   3.798  15.655   1.822
44302W        W12775  20.605  36.934  12.031
44303W        W12776  24.595  35.441   0.440
44304W        W12777   3.816  33.986  10.620
44305W        W12778  39.059  22.626  12.095
44306W        W12779   3.718  10.289   1.360
44307W        W12780  43.427   9.345  11.498
44308W        W12781  27.454  43.362   2.336
44309W        W12782   5.883  41.979  14.958
44310W        W12783  28.128   9.320   3.221
44311W        W12784   7.185  25.666  11.561
44312W        W12785  36.018  32.497   1.403
44313W        W12786  29.597  31.900   0.946
44314W        W12787  15.306  18.124   1.439
44315W        W12788  44.758  34.440  14.514
44316W        W12789  26.093  25.697   1.346
44317W        W12790   7.767  13.775   5.130
44318W        W12791  44.259   3.319   0.372
44319W        W12792  42.793  30.031  13.919
44320W        W12793  13.829   3.269   1.788
44321W        W12794  27.673  20.738  13.959
44322W        W12795   6.218   6.387   1.730
44323W        W12796  40.954   7.386  12.389
44324W        W12797  35.462  22.130   4.301
44325W        W12798  38.830   3.417  14.465
44326W        W12799   8.671  35.451   0.733
44327W        W12800   7.879  38.050   0.385
44328W        W12801  36.951  21.199  13.798
44329W        W12802   4.788  11.864  11.991
44330W        W12803   2.293  13.724  13.432
44331W        W12804   8.813  26.469   4.229
44332W        W12805  32.524  21.263   1.700
44333W        W12806  23.497  26.684  10.096
44334W        W12807   0.767  20.616  13.962
44335W        W12808   0.794  23.586   2.837
44336W        W12809  12.667  13.157   2.737
44337W        W12810   8.318  33.454   1.848
44338W        W12811   6.778  12.360   3.840
44339W        W12812  33.396  37.019  13.889
44340W        W12813  27.683   5.212   0.796
44341W        W12814  43.959  10.713  14.015
44342W        W12815  28.149   2.426  11.936
44343W        W12816  27.675  28.985   1.724
44344W        W12817   2.333  36.569  12.359
44345W        W12818  15.613  19.564   2.187
44346W        W12819  22.200  20.251  11.481
44347W        W12820  35.500  31.489   2.882
44348W        W12821  41.789  15.637   3.766
44349W        W12822  11.726  13.211  14.814
44350W        W12823  19.777  31.593  13.512
44351W        W12824  36.493  42.485   0.773
44352W        W12825  17.070   9.218  13.448
44353W        W12826   2.300  26.557  11.408
44354W        W12827  27.530  30.540   2.222
44355W        W12828  29.961  23.633  11.492
44356W        W12829   2.754  31.936   0.743
44357W        W12830  14.244  26.969   5.111
44358W        W12831  41.300  18.243   1.243
44359W        W12832  17.764  41.905  13.846
44360W        W12833  19.727  10.186  14.331
44361W        W12834  26.576  39.847   2.803
44362W        W12835  44.878  28.112   1.323
44363W        W12836   9.318  18.286   3.805
44364W        W12837  16.133   9.693  12.379
44365W        W12838  23.696  44.384  13.532
44366W        W12839  38.951  40.044   2.296
44367W        W12840  38.496   4.270  13.358
44368W        W12841  27.050  27.067  12.058
44369W        W12842  29.085  28.081  14.399
44370W        W12843  25.601  41.473  11.500
44371W        W12844  41.025  13.251   4.692
44372W        W12845  30.102  29.077  13.830
44373W        W12846  13.617  35.882   0.265
44374W        W12847   4.440  17.636  11.602
44375W        W12848  25.094  26.150  14.783
44376W        W12849   2.249  10.639  10.613
44377W        W12850  42.006  10.166  13.025
44378W        W12851  29.048  33.503   0.345
44379W        W12852  39.910  38.990   2.371
44380W        W12853  39.363  27.636  10.919
44381W        W12854   0.819   0.945   1.778
44382W        W12855   9.295  18.557  14.501
44383W        W12856   0.922  43.393   1.361
44384W        W12857  43.282   8.396   4.675
44385W        W12858   2.889   3.938  14.851
44386W        W12859  37.365  40.411   2.694
44387W        W12860  29.117  23.705  12.483
44388W        W12861  32.479  35.895  13.880
44389W        W12862  37.980  26.196   3.849
44390W        W12863  29.960  35.974  13.531
44391W        W12864   6.680  26.204   0.929
44392W        W12865  31.991  38.965   4.818
44393W        W12866  14.591   6.814  13.352
44394W        W12867  29.590  25.128  12.069
44395W        W12868  21.542  23.133   2.214
44396W        W12869   3.395  18.138  11.018
44397W        W12870  11.332   7.837   4.341
44398W        W12871  24.130   1.350   2.666
44399W        W12872   3.434  44.966  12.029
44400W        W12873  37.027   7.219  12.049
44401W        W12874  36.419   0.767  14.492
44402W        W12875   6.701  23.606   3.819
44403W        W12876  26.203   1.256   4.177
44404W        W12877   7.379  33.417   0.282
44405W        W12878  17.586   9.883  10.952
44406W        W12879  43.325   9.740  12.855
44407W        W12880  30.431  27.996   3.154
44408W        W12881   6.788  38.364  12.914
44409W        W12882  21.052   4.331   1.921
44410W        W12883  44.449  13.601   1.872
44411W        W12884  23.671  14.278  13.465
44412W        W12885  22.106   3.768  11.391
44413W        W12886  43.852  40.441  14.882
44414W        W12887  26.640  33.034   3.325
44415W        W12888  43.840  41.298  12.478
44416W        W12889  21.237  15.684  12.076
44417W        W12890   7.326  23.616  13.326
44418W        W12891  29.578  33.123  13.999
44419W        W12892  25.154  41.494  13.904
44420W        W12893  28.058  23.526   5.121
44421W        W12894  32.029   1.318   4.145
44422W        W12895   6.804  34.474   1.294
44423W        W12896  39.357  21.018   3.193
44424W        W12897  27.959  13.724  14.290
44425W        W12898   2.941   0.418  13.845
44426W        W12899  19.535  28.104   0.352
44427W        W12900  30.555  10.777   4.637
44428W        W12901  44.984  20.717   4.199
44429W        W12902  30.128  12.203   3.738
44430W        W12903   4.382  22.053  11.506
44431W        W12904  19.061  42.955   1.388
44432W        W12905  29.964  16.679  12.868
44433W        W12906  41.531  12.623  11.120
44434W        W12907   4.247   5.275   5.617
44435W        W12908  43.325  38.341  11.026
44436W        W12909  32.465  35.055   2.721
44437W        W12910  30.501  19.234   2.324
44438W        W12911  20.038  30.086   4.610
44439W        W12912  11.707  17.792   3.739
44440W        W12913   0.842   7.901   2.676
44441W        W12914  44.805  41.025  14.830
44442W        W12915  37.077   1.892  13.042
44443W        W12916  33.480  20.156  13.363
44444W        W12917  13.719  23.558  13.052
44445W        W12918  27.625  20.686   4.814
44446W        W12919  23.554  18.718   0.389
44447W        W12920  16.622  29.603   3.331
44448W        W12921  39.409  25.219   2.184
44449W        W12922  32.501  19.147  12.900
44450W        W12923  42.929  32.601   4.225
44451W        W12924   2.772   9.784   3.800
44452W        W12925  33.422  12.220   1.823
44453W        W12926  42.377  33.463   4.294
44454W        W12927   8.689  41.816   4.605
44455W        W12928  18.755  29.077   0.322
44456W        W12929   8.830  32.461   2.720
44457W        W12930  28.673  19.284   0.393
44458W        W12931  15.822  37.903   0.456
44459W        W12932   2.334  26.143   2.762
44460W        W12933  22.545   1.817  13.474
44461W        W12934  20.267  14.169  11.940
44462W        W12935  12.191   6.294   1.245
44463W        W12936  29.161  12.723   4.607
44464W        W12937  44.303  12.248  11.609
44465W        W12938  26.618   1.798   4.179
44466W        W12939  30.443  25.045   0.281
44467W        W12940  22.037   6.882   2.291
44468W        W12941  12.736   0.442   2.755
44469W        W12942  16.583  34.399  12.519
44470W        W12943  42.027  43.988  11.372
44471W        W12944   8.163   1.317  11.973
44472W        W12945  44.942  16.152   3.752
44473W        W12946  38.426  22.051   3.305
44474W        W12947  40.833   7.719  10.973
44475W        W12948  34.532  35.053  14.350
44476W        W12949  38.401  25.690   2.681
44477W        W12950  30.629  32.508   4.705
44478W        W12951  33.498  35.556  10.545
44479W        W12952   6.858  43.515   4.122
44480W        W12953   1.380  14.337   0.246
44481W        W12954  15.701  14.203  11.371
44482W        W12955  43.386  25.469  14.364
44483W        W12956  37.834  27.197  12.833
44484W        W12957  25.205  42.864  14.277
44485W        W12958  37.870   9.727  13.394
44486W        W12959  34.040   7.696   1.764
44487W        W12960  29.919  36.011   3.778
44488W        W12961  32.927   0.374   2.694
44489W        W12962  44.384  12.348   3.849
44490W        W12963  43.774   0.855   1.886
44491W        W12964  41.791  17.696  10.921
44492W        W12965  12.175   5.375  14.511
44493W        W12966  19.050  22.243   4.632
44494W        W12967  38.823  11.129  14.301
44495W        W12968  30.957  35.084  12.498
44496W        W12969  39.925  22.653  10.953
44497W        W12970  40.901  25.040  10.513
44498W        W12971   1.268  39.481  14.950
44499W        W12972  41.473  43.779  13.904
44500W        W12973  23.613  10.878  14.437
44501W        W12974  12.804  14.671   4.601
44502W        W12975  21.513  34.013   3.341
44503W        W12976  36.357  12.761  14.453
44504W        W12977  31.140   1.411   1.388
44505W        W12978  16.608  32.495  13.834
44506W        W12979  10.786  36.479   1.824
44507W        W12980  25.636  15.807  11.003
44508W        W12981  38.836   9.277  11.064
44509W        W12982  13.143  40.478  11.493
44510W        W12983  18.783  28.053   2.834
44511W        W12984   7.810  15.257   5.189
44512W        W12985  18.659  14.131   1.238
44513W        W12986  30.615  40.005  13.008
44514W        W12987   3.272  31.981  14.852
44515W        W12988   0.880  32.407   0.370
44516W        W12989  44.364   0.904  12.541
44517W        W12990   7.821  38.342  13.540
44518W        W12991  34.983   7.240   4.706
44519W        W12992   6.843  43.895  11.603
44520W        W12993  41.794  42.526   1.224
44521W        W12994   8.194  32.595   4.823
44522W        W12995  13.122  40.447  13.395
44523W        W12996  37.041  43.442   0.766
44524W        W12997   9.814  35.077  13.018
44525W        W12998  18.289  34.013  12.841
44526W        W12999  44.372   3.388  14.432
44527W        W13000   7.172  19.084   3.262
44528W        W13001   5.754  35.928  13.408
44529W        W13002  13.106   3.261   2.193
44530W        W13003  12.768   2.965  13.362
44531W        W13004  26.630  26.476  12.485
44532W        W13005   0.353  34.088   0.444
44533W        W13006  23.179  12.663   5.236
44534W        W13007  28.979  31.013  13.791
44535W        W13008  39.921  26.162  12.979
44536W        W13009   3.853   8.711   0.367
44537W        W13010  36.572   8.658  10.518
44538W        W13011  38.367  34.374  14.309
44539W        W13012  20.205   5.298  13.822
44540W        W13013  24.171  40.983   1.929
44541W        W13014  41.486  38.839  14.859
44542W        W13015  19.047  16.100   4.728
44543W        W13016   5.289   0.401  13.494
44544W        W13017   0.908  40.326   0.405
44545W        W13018  12.350   4.766   0.941
44546W        W13019  37.836  27.126   2.378
44547W        W13020  15.762   6.809   1.748
44548W        W13021  11.193  30.949   0.852
44549W        W13022  16.273  25.533   1.443
44550W        W13023  22.625  34.536  11.081
44551W        W13024   7.795   2.937  14.454
44552W        W13025   6.363  33.545  10.001
44553W        W13026  41.860  38.436   1.882
44554W        W13027  15.671  36.846  14.842
44555W        W13028  25.545   7.881  11.094
44556W        W13029  13.601   1.256  14.358
44557W        W13030   6.732   9.283  13.316
44558W        W13031  36.946   6.753   3.177
44559W        W13032   1.365  23.050  12.381
44560W        W13033  33.589  41.508   2.281
44561W        W13034  14.757  39.394  13.014
44562W        W13035  43.310   2.247  13.922
44563W        W13036  13.238   4.819  13.019
44564W        W13037  22.543  10.228   4.165
44565W        W13038  32.077  39.061   1.263
44566W        W13039  28.965  27.627  13.392
44567W        W13040  29.530  35.441  11.951
44568W        W13041  27.179   8.381  12.883
44569W        W13042  22.137  24.525  12.861
44570W        W13043  29.491  16.164   4.217
44571W        W13044   4.742  25.655  11.576
44572W        W13045  20.549   3.432  12.864
44573W        W13046  30.412  30.536  14.914
44574W        W13047  17.613  33.530   3.671
44575W        W13048  36.465  18.152   1.724
44576W        W13049  16.648  18.264  14.809
44577W        W13050  31.051  21.659   3.225
44578W        W13051  34.096  25.999   3.278
44579W        W13052   3.330   8.246   2.770
44580W        W13053  41.443  31.492   2.298
44581W        W13054  28.451   5.414   2.221
44582W        W13055  25.621  31.124   0.407
44583W        W13056  40.515   8.756   5.263
44584W        W13057  23.664  44.955  10.970
44585W        W13058  42.364  10.365  10.110
44586W        W13059  15.594  27.458   4.635
44587W        W13060  19.226  36.015   0.868
44588W        W13061  28.566  32.550  10.528
44589W        W13062  40.821  13.305  12.086
44590W        W13063  12.194  16.236  13.035
44591W        W13064  14.635   4.829   4.225
44592W        W13065  17.093  41.805   2.408
44593W        W13066  31.566  33.470  13.395
44594W        W13067  23.602   7.688  10.989
44595W        W13068  24.194  28.480  11.477
44596W        W13069  23.134  38.071  11.942
44597W        W13070  31.900  18.629  12.088
44598W        W13071  28.512  39.471  14.330
44599W        W13072   3.863  41.908  12.857
44600W        W13073  13.619   4.806  13.445
44601W        W13074   8.267  25.189   1.326
44602W        W13075  18.207  37.421   3.286
44603W        W13076  15.795  23.689   0.738
44604W        W13077  33.412  28.558  11.376
44605W        W13078   9.866  15.098   3.724
44606W        W13079  21.692  15.697  11.113
44607W        W13080  43.418   3.938   2.718
44608W        W13081  42.367   1.391   0.283
44609W        W13082  32.556   9.720  14.476
44610W        W13083  22.594   0.872   2.822
44611W        W13084  13.117  20.177   3.682
44612W        W13085  15.753  21.639  12.877
44613W        W13086  34.081  32.077   0.466
44614W        W13087  25.535   5.248   2.694
44615W        W13088  30.013  32.547  13.044
44616W        W13089  16.152  44.006  10.584
44617W        W13090  30.025  15.222   2.385
44618W        W13091  35.449  23.644  10.982
44619W        W13092  42.968  26.959   2.862
44620W        W13093  23.187   8.391   0.468
44621W        W13094  17.073   0.801  14.479
44622W        W13095  14.778  22.617   0.391
44623W        W13096  11.185  11.163   1.441
44624W        W13097   3.850  16.232   3.775
44625W        W13098  11.131  22.020  14.378
44626W        W13099  11.653  10.247   5.229
44627W        W13100   4.893  34.560  14.507
44628W        W13101  42.817  14.725  14.398
44629W        W13102  41.376  10.656  13.543
44630W        W13103  17.710  17.077  14.882
44631W        W13104  15.723  27.573   9.961
44632W        W13105  36.010  19.593  12.823
44633W        W13106   7.896   2.257   5.132
44634W        W13107  40.874  38.900   0.863
44635W        W13108   2.286  27.175  11.086
44636W        W13109  17.664  39.984   3.644
44637W        W13110  31.092   3.455   5.172
44638W        W13111  24.561  23.523   3.262
44639W        W13112  37.067  37.847  11.602
44640W        W13113  30.999  33.507   4.216
44641W        W13114  25.078   4.224   2.894
44642W        W13115  25.685  14.120  11.464
44643W        W13116  29.045  11.168  11.079
44644W        W13117  44.341   9.691  14.429
44645W        W13118  43.496  44.427  14.004
44646W        W13119  14.673  38.978   1.788
44647W        W13120  41.477  11.314   0.862
44648W        W13121  24.057  27.149   4.304
44649W        W13122  12.816  15.258  11.580
44650W        W13123  11.641  38.412   4.774
44651W        W13124  26.510  25.027  12.927
44652W        W13125  35.560  10.313   3.835
44653W        W13126  20.603  25.085   0.917
44654W        W13127  22.709  44.393  13.943
44655W        W13128   9.793   8.262  12.054
44656W        W13129   0.487  31.430  10.522
44657W        W13130   7.670  37.043   4.137
44658W        W13131  34.019  11.145  14.971
44659W        W13132  23.504   6.776   1.768
44660W        W13133  37.037  43.432  14.006
44661W        W13134   2.955  34.438  12.417
44662W        W13135  27.508  17.774  11.556
44663W        W13136  23.113  19.607   0.854
44664W        W13137  13.212  32.989  14.316
44665W        W13138  10.681  15.784   1.230
44666W        W13139  39.975  34.088   0.899
44667W        W13140  22.557  22.094   2.239
44668W        W13141  26.615  36.455   0.337
44669W        W13142  30.051  25.159   0.333
44670W        W13143  42.793  10.315  13.347
44671W        W13144   8.386  31.956  10.121
44672W        W13145  35.856  27.634  14.349
44673W        W13146  42.004   2.471  13.920
44674W        W13147  35.024  17.156  12.902
44675W        W13148  42.796  28.540   2.817
44676W        W13149  42.383  44.945  11.465
44677W        W13150  16.175  10.232   4.285
44678W        W13151  39.986  25.994   4.702
44679W        W13152  15.140  22.616  10.474
44680W        W13153  42.944  11.746  11.892
44681W        W13154  22.579  29.483   1.723
44682W        W13155  12.197  19.729   1.300
44683W        W13156  20.141   4.922   2.699
44684W        W13157  18.127  10.269   4.150
44685W        W13158  35.022   0.955   2.807
44686W        W13159  40.381   3.740   0.255
44687W        W13160   1.753  14.760   0.895
44688W        W13161   0.468  36.058   4.712
44689W        W13162  36.550  44.469   3.670
44690W        W13163  20.036   0.891   4.344
44691W        W13164  16.101  23.236   1.313
44692W        W13165  15.206  37.020   2.335
44693W        W13166  33.055   9.204   0.471
44694W        W13167  11.226   7.348   4.835
44695W        W13168   9.784  19.643   3.298
44696W        W13169  25.585   6.245  10.477
44697W        W13170  20.566  39.913  12.995
44698W        W13171   1.357  19.721  13.060
44699W        W13172  12.314  12.697   1.854
44700W        W13173  32.120   8.289  10.501
44701W        W13174   7.864  33.523   4.636
44702W        W13175   4.902  29.647  11.448
44703W        W13176   4.820   4.255   5.299
44704W        W13177  38.423  33.106   0.893
44705W        W13178   8.399  22.120  10.983
44706W        W13179  14.218  23.592  14.382
44707W        W13180  44.010  28.451   4.769
44708W        W13181  26.091  22.142  14.921
44709W        W13182  26.689  34.572  12.416
44710W        W13183   3.455  35.083   1.867
44711W        W13184  28.985  12.140   1.403
44712W        W13185  34.375  19.724   3.859
44713W        W13186  17.142  39.988   0.860
44714W        W13187  38.390  11.723   4.198
44715W        W13188   0.933   7.175  11.883
44716W        W13189   0.367  17.749  10.460
44717W        W13190  26.594   0.491  11.406
44718W        W13191  13.828  34.530  13.831
44719W        W13192  42.893  39.819   2.200
44720W        W13193  12.693  16.183   3.748
44721W        W13194  20.180  12.239  13.318
44722W        W13195  40.869  31.906   1.299
44723W        W13196  39.031  15.584  14.964
44724W        W13197   7.868  11.203   4.181
44725W        W13198  37.373  41.467   1.880
44726W        W13199   1.904  21.227  11.420
44727W        W13200  32.394   5.276  11.377
44728W        W13201  11.157  36.412   4.134
44729W        W13202  18.623  39.349  10.462
44730W        W13203   2.948  18.284   2.902
44731W        W13204  25.999  35.917  12.569
44732W        W13205  29.426  30.545   4.664
44733W        W13206  26.610   2.965  12.551
44734W        W13207   9.814  24.045   4.671
44735W        W13208  44.790   3.815   4.669
44736W        W13209  33.060   7.403  14.005
44737W        W13210  12.230  26.532   3.815
44738W        W13211  15.143  14.301   1.256
44739W        W13212  13.235  23.217  12.020
44740W        W13213   9.859  31.913  11.086
44741W        W13214  13.734  43.392  13.995
44742W        W13215  17.646   4.781   0.879
44743W        W13216   4.367  36.440  12.972
44744W        W13217   1.403  43.448  14.469
44745W        W13218   6.261  32.075   4.154
44746W        W13219  33.399  28.028  12.418
44747W        W13220  11.193  37.008  14.399
44748W        W13221  31.045  30.495   2.419
44749W        W13222  44.814   9.821  11.075
44750W        W13223  43.302   3.873   0.433
44751W        W13224  43.506  23.054   0.331
44752W        W13225   3.764  18.582   0.858
44753W        W13226  33.958   4.248   0.892
44754W        W13227  32.087  33.033   1.282
44755W        W13228  25.501  23.646  13.507
44756W        W13229  34.404  27.687  11.910
44757W        W13230  27.113  26.559  13.433
44758W        W13231  34.061   0.308   2.836
44759W        W13232  30.977  22.251   3.216
44760W        W13233  24.489  37.372  11.525
44761W        W13234  11.773   6.829  12.021
44762W        W13235   3.791  26.583  14.292
44763W        W13236  39.510  19.682  12.466
44764W        W13237  12.656  28.109   3.776
44765W        W13238  25.066  28.950  12.056
44766W        W13239   7.378  39.394  11.883
44767W        W13240  16.257  33.991  13.447
44768W        W13241  20.274  26.007  14.817
44769W        W13242  44.481  23.174  14.378
44770W        W13243   3.404  35.893   0.477
44771W        W13244  41.359  27.504  10.471
44772W        W13245  33.524  39.811   9.995
44773W        W13246  31.906  19.561   1.335
44774W        W13247  21.227  34.865   4.754
44775W        W13248   9.735  32.049   2.193
44776W        W13249  23.008   1.738   3.226
44777W        W13250  22.577  11.221  11.965
44778W        W13251  43.782   6.313   2.209
44779W        W13252  43.308  11.201  11.430
44780W        W13253  25.550   4.820  14.799
44781W        W13254  19.189  33.003   2.309
44782W        W13255  40.336  10.835   2.717
44783W        W13256  10.197  30.043   0.843
44784W        W13257  10.373   0.247  12.545
44785W        W13258  10.356  13.722  12.046
44786W        W13259  10.249   3.804  12.473
44787W        W13260  32.026  24.145  14.965
44788W        W13261  19.652   9.196   3.654
44789W        W13262  32.561  39.834   0.390
44790W        W13263  33.938  14.701   3.799
44791W        W13264  38.399  42.830   2.369
44792W        W13265   6.215  26.649   3.767
44793W        W13266  38.005  39.462  13.432
44794W        W13267  41.356  43.329   1.365
44795W        W13268  34.568  37.464  10.516
44796W        W13269  42.970   9.235  14.348
44797W        W13270   5.748  39.034  14.879
44798W        W13271   5.743  16.309   4.835
44799W        W13272  26.586  23.024  13.805
44800W        W13273  26.142  15.094  14.410
44801W        W13274  44.867  10.364  13.354
44802W        W13275   4.220  16.159   2.259
44803W        W13276   4.703  33.020   0.774
44804W        W13277  25.037  22.694  14.314
44805W        W13278  18.686  15.166   0.783
44806W        W13279  37.336   4.857   1.258
44807W        W13280   2.309  23.553  12.869
44808W        W13281  15.794  37.871  12.391
44809W        W13282  12.829  21.532   1.803
44810W        W13283  28.479   7.335  12.418
44811W        W13284  31.992  37.561  14.453
44812W        W13285  41.993  10.819  13.842
44813W        W13286  25.661  29.138  10.907
44814W        W13287  28.509  19.626   1.290
44815W        W13288  29.057   4.871   3.336
44816W        W13289  15.639   9.887   2.390
44817W        W13290  42.407  19.255   0.402
44818W        W13291  14.162  40.800  10.629
44819W        W13292  29.587  37.451   1.371
44820W        W13293  44.851  20.749   0.840
44821W        W13294  43.976  30.581  14.029
44822W        W13295  41.418  12.189   1.729
44823W        W13296   2.760  32.531  12.468
44824W        W13297  22.590  19.768   5.145
44825W        W13298  41.829  16.765   0.852
44826W        W13299  41.332  29.115  11.857
44827W        W13300  44.939   9.349  14.882
44828W        W13301   3.946  36.093   1.772
44829W        W13302  38.397  38.927   3.660
44830W        W13303   3.335  40.340  10.636
44831W        W13304  41.969  34.877   4.638
44832W        W13305  43.965   4.903  13.986
44833W        W13306  16.738  42.888  10.637
44834W        W13307  12.782  28.092  13.813
44835W        W13308  35.594  31.966  12.847
44836W        W13309  24.095  44.968   9.529
44837W        W13310  41.532  11.784   2.712
44838W        W13311  31.469  39.522  11.928
44839W        W13312  43.390  41.340   1.789
44840W        W13313   9.841  40.052  12.088
44841W        W13314  41.371   8.700   2.346
44842W        W13315   9.867  15.182  12.549
44843W        W13316  39.413  27.583   2.873
44844W        W13317  41.464  39.487   3.345
44845W        W13318  11.676  19.242  13.859
44846W        W13319  33.900  40.922  10.553
44847W        W13320  17.766  40.916  11.968
44848W        W13321  38.359  22.017  11.893
44849W        W13322  32.607  16.221  14.968
44850W        W13323  41.831  23.043  14.327
44851W        W13324  10.326   6.219  14.970
44852W        W13325  39.018   5.756   4.234
44853W        W13326   7.698  42.441   2.716
44854W        W13327  42.470  19.751   1.795
44855W        W13328   0.922   4.914  12.055
44856W        W13329  43.505  14.721   1.348
44857W        W13330  18.217  30.546   4.739
44858W        W13331  24.632  35.424   1.345
44859W        W13332  13.279  10.342  14.796
44860W        W13333  24.673  15.132  10.595
44861W        W13334  43.366  10.814  13.411
44862W        W13335  11.294  43.273   2.414
44863W        W13336  27.190  42.340   4.288
44864W        W13337  31.415  38.571  10.455
44865W        W13338  44.945   3.354  11.582
44866W        W13339  26.593  38.879  13.458
44867W        W13340  26.195  11.259  13.950
44868W        W13341  43.007   1.308  10.972
44869W        W13342  34.518  16.294  13.796
44870W        W13343  27.197  31.940   0.835
44871W        W13344  26.203   8.377  13.055
44872W        W13345  26.477  44.953  13.917
44873W        W13346  18.087  24.172   4.828
44874W        W13347  10.818   8.790   2.715
44875W        W13348  10.749   6.338  14.473
44876W        W13349  24.602  15.620   1.373
44877W        W13350  43.317   2.928  11.463
44878W        W13351  34.952  21.133  13.413
44879W        W13352  10.686  27.031  14.975
44880W        W13353  15.818  43.996   0.363
44881W        W13354  40.504  24.079   2.382
44882W        W13355   5.346  42.459  13.051
44883W        W13356  17.087   1.842  13.316
44884W        W13357   3.740   3.826  14.851
44885W        W13358  43.938  41.306   3.261
44886W        W13359  37.512  29.617   0.462
44887W        W13360  15.229   9.209   2.216
44888W        W13361  15.171  42.895   4.625
44889W        W13362  26.104  21.190  10.479
44890W        W13363  42.447  12.223   3.303
44891W        W13364  43.962  32.046   0.940
44892W        W13365  31.528   5.437   0.837
44893W        W13366  12.685  41.427   4.344
44894W        W13367  34.926  19.142  10.924
44895W        W13368  22.240  22.080   2.732
44896W        W13369  44.464  40.806   4.798
44897W        W13370  43.882  44.915   1.224
44898W        W13371  25.494  10.211   4.354
44899W        W13372  31.979  13.641   4.697
44900W        W13373  26.633  11.259   1.873
44901W        W13374  20.131  26.637  11.478
44902W        W13375  11.289  13.219   2.738
44903W        W13376  35.869  43.340  12.478
44904W        W13377  15.288  10.206   4.802
44905W        W13378  30.158  19.649  14.796
44906W        W13379  18.659   6.295   5.230
44907W        W13380   4.211  28.623  11.979
44908W        W13381  39.434   9.303   0.938
44909W        W13382  34.579  25.076   2.767
44910W        W13383   8.206  20.097  13.036
44911W        W13384  14.816  30.955  11.553
44912W        W13385  17.113  40.509  14.916
44913W        W13386  36.367   0.766  14.820
44914W        W13387  27.667   3.733  14.774
44915W        W13388   8.705  34.030  12.946
44916W        W13389  34.023  24.689  13.845
44917W        W13390  39.486  33.937   4.751
44918W        W13391  22.561  28.563  10.603
44919W        W13392   1.829  23.607   0.438
44920W        W13393  31.985  39.871  12.441
44921W        W13394  11.642   0.807   4.732
44922W        W13395  41.936   3.216  14.456
44923W        W13396  37.841  19.543  11.389
44924W        W13397  11.257  37.854   3.770
44925W        W13398  22.649  21.069   2.803
44926W        W13399  30.081  10.648   3.230
44927W        W13400  17.760  30.990   0.306
44928W        W13401   4.263  13.129   2.219
44929W        W13402   9.305  18.286  13.447
44930W        W13403  23.549  26.079  12.864
44931W        W13404   2.776  30.016   2.672
44932W        W13405  31.009  24.698   5.312
44933W        W13406  16.215  35.401  13.395
44934W        W13407   5.861  36.884   0.454
44935W        W13408  44.363  35.890   2.815
44936W        W13409  14.600  38.523  10.989
44937W        W13410  15.824  31.954  10.578
44938W        W13411  22.221  18.712   0.900
44939W        W13412  44.337  32.476   2.725
44940W        W13413   9.182  11.778   0.349
44941W        W13414  28.186  21.133   3.382
44942W        W13415  33.000  16.628  13.945
44943W        W13416  13.689  38.508  12.409
44944W        W13417   4.724  29.141  12.871
44945W        W13418  21.686   9.381  13.370
44946W        W13419  36.870  44.339   1.321
44947W        W13420   9.243  39.918   0.305
44948W        W13421  38.027  10.145  14.939
44949W        W13422  25.027  19.078  11.490
44950W        W13423   1.306   6.922   2.388
44951W        W13424   8.737   6.873   1.820
44952W        W13425  10.381  18.627   4.348
44953W        W13426   0.895  31.603   3.249
44954W        W13427  31.518  36.970  11.919
44955W        W13428  41.504  40.525   4.294
44956W        W13429  22.609  24.513  14.478
44957W        W13430  25.539  15.098   2.234
44958W        W13431  33.086  16.154   0.439
44959W        W13432  22.141  25.046   4.714
44960W        W13433  44.980  37.944   1.830
44961W        W13434  33.510  39.904   3.314
44962W        W13435   1.317  13.115  13.401
44963W        W13436  33.545  19.148  11.474
44964W        W13437  31.606   3.316   0.732
44965W        W13438  27.543  19.629  10.563
44966W        W13439  17.293  30.013  14.026
44967W        W13440  37.860  14.711   3.777
44968W        W13441  23.219  26.536  13.319
44969W        W13442  40.385  16.778   2.897
44970W        W13443  22.097  29.080   3.677
44971W        W13444   8.876  11.841  13.467
44972W        W13445  35.540  20.110  14.471
44973W        W13446   1.806  23.629   3.239
44974W        W13447   5.705  32.527  13.364
44975W        W13448  25.640  35.057  11.955
44976W        W13449  38.849  12.634   9.923
44977W        W13450  30.497  23.627   0.264
44978W        W13451  42.951  36.395   0.392
44979W        W13452  23.657  37.848  13.864
44980W        W13453  24.552  41.413   3.193
44981W        W13454  19.717  17.241   4.806
44982W        W13455  28.650  16.151   3.258
44983W        W13456  36.021  12.730  11.523
44984W        W13457  38.341  36.479  13.055
44985W        W13458   6.837  15.207  11.535
44986W        W13459  19.168  44.346  14.816
44987W        W13460  28.184   9.326   1.809
44988W        W13461   3.412  44.399   3.665
44989W        W13462  25.104  43.891  13.895
44990W        W13463  22.105   3.290   1.391
44991W        W13464  34.563  40.014   0.409
44992W        W13465   0.794  41.019   4.722
44993W        W13466  20.627  19.655  13.336
44994W        W13467  24.070  26.609   2.886
44995W        W13468  26.570  34.579   1.920
44996W        W13469  21.243  18.634   0.243
44997W        W13470  44.348   7.251   2.300
44998W        W13471  35.598  14.254  10.910
44999W        W13472   2.403   5.416   4.689
45000W        W13473   7.224  10.810  12.825
45001W        W13474  21.567  44.321  11.883
45002W        W13475  32.625  15.299  11.458
45003W        W13476   3.257  11.324   4.155
45004W        W13477  40.980  38.934   3.306
45005W        W13478   8.761  35.945  10.910
45006W        W13479  38.484  40.052  12.944
45007W        W13480   8.717  14.310   1.837
45008W        W13481  34.042  19.551   3.870
45009W        W13482  34.566  22.039   3.723
45010W        W13483  17.300  32.573  14.447
45011W        W13484  26.136  38.931   3.697
45012W        W13485  30.989  19.079   1.738
45013W        W13486  22.079   8.328   1.811
45014W        W13487   4.244  42.484   1.430
45015W        W13488  10.178  42.799   1.723
45016W        W13489  29.639  24.112   2.382
45017W        W13490   3.764  25.030   5.244
45018W        W13491  29.121  16.251  12.369
45019W        W13492  20.075  18.218  10.077
45020W        W13493  11.757   0.939   1.212
45021W        W13494  35.601  24.490   4.327
45022W        W13495  36.892  30.060  11.596
45023W        W13496   0.494   6.834   2.348
45024W        W13497  43.403  26.510  10.424
45025W        W13498  39.990  26.084  13.804
45026W        W13499  27.076  44.876  10.536
45027W        W13500  23.082  19.650  14.283
45028W        W13501  29.023  33.041  12.530
45029W        W13502   4.300  11.709  13.921
45030W        W13503   8.826  14.800   4.751
45031W        W13504  40.030  41.320   3.640
45032W        W13505  15.675  18.199  14.911
45033W        W13506  28.473  28.046  10.020
45034W        W13507  39.413  10.369  10.480
45035W        W13508   4.907  13.279  12.360
45036W        W13509  13.678  37.032  14.820
45037W        W13510  33.883   4.902   3.331
45038W        W13511  41.492  23.519  12.383
45039W        W13512  27.575  13.646  13.046
45040W        W13513   5.752  14.307  14.958
45041W        W13514  24.543  14.617   1.792
45042W        W13515  28.567  24.095  12.569
45043W        W13516  37.573  14.210  11.597
45044W        W13517  32.594   8.247  12.931
45045W        W13518   5.824  10.374   2.677
45046W        W13519   1.471  27.451   4.620
45047W        W13520  22.030  39.854  14.459
45048W        W13521  30.133  15.643   2.819
45049W        W13522   6.336   0.481  13.524
45050W        W13523  43.476   7.904  14.351
45051W        W13524  43.413   8.237  13.061
45052W        W13525   4.344   7.374   0.313
45053W        W13526   4.728  41.469  11.020
45054W        W13527  42.804  14.751   3.232
45055W        W13528  22.081   4.756   2.752
45056W        W13529  26.204   6.325  14.450
45057W        W13530  28.553  11.175  13.057
45058W        W13531  42.803  24.118   4.637
45059W        W13532  33.883  42.820  10.940
45060W        W13533  12.675  43.814  12.848
45061W        W13534   7.320  44.789  10.516
45062W        W13535   4.260   1.739   4.306
45063W        W13536  32.952  15.271  13.857
45064W        W13537  32.423  35.015  13.507
45065W        W13538   2.243  31.899  12.537
45066W        W13539  23.629   0.870   9.975
45067W        W13540  12.806  20.084   3.683
45068W        W13541  38.009  18.060  12.377
45069W        W13542  27.114  17.578   0.463
45070W        W13543  24.580  12.132  13.534
45071W        W13544  39.821  42.007   2.878
45072W        W13545   7.180  13.722   1.708
45073W        W13546  17.621   1.342   2.239
45074W        W13547  17.594  17.064   2.866
45075W        W13548  22.168  29.942  13.982
45076W        W13549  43.482  14.803   4.772
45077W        W13550  43.838  10.321   4.282
45078W        W13551  28.673  35.592  14.378
45079W        W13552  35.487  22.737   2.703
45080W        W13553  34.021   6.913   3.259
45081W        W13554  21.084  33.454  11.513
45082W        W13555  35.083  33.911  11.437
45083W        W13556  32.939  13.646   2.206
45084W        W13557  38.839  18.181  12.382
45085W        W13558   9.823  35.488   2.328
45086W        W13559  32.587  24.662   4.316
45087W        W13560   3.375  27.138   0.843
45088W        W13561  38.936  19.114   3.362
45089W        W13562  18.785  38.562  12.984
45090W        W13563  25.514  31.031   4.685
45091W        W13564   5.351  23.051   1.367
45092W        W13565   1.758   2.303  11.529
45093W        W13566  21.187  27.532   9.561
45094W        W13567  25.964  40.400  14.986
45095W        W13568  38.060  18.667   4.312
45096W        W13569  33.589   5.379  14.291
45097W        W13570  22.705  18.147   2.309
45098W        W13571   2.368   8.813  14.822
45099W        W13572  39.473   4.233   4.648
45100W        W13573  15.682  42.416   0.960
45101W        W13574  21.103  15.301  13.332
45102W        W13575  30.148   7.803  11.923
45103W        W13576   4.258  39.974   0.762
45104W        W13577  19.536   7.800  14.449
45105W        W13578   1.364  11.821   0.842
45106W        W13579  28.959  15.667   4.637
45107W        W13580  35.864  44.773  12.932
45108W        W13581  12.135  18.177  11.015
45109W        W13582   4.307  30.526   0.878
45110W        W13583  11.838  36.090  14.360
45111W        W13584  41.348  36.971   2.311
45112W        W13585  29.523   7.903   2.808
45113W        W13586  20.757  27.634  12.408
45114W        W13587  36.401  15.632  14.824
45115W        W13588  24.165  13.683  11.952
45116W        W13589  33.113   4.321   3.750
45117W        W13590  11.661   9.292  11.462
45118W        W13591  43.925  41.984  12.552
45119W        W13592  40.315   7.229  13.916
45120W        W13593   6.391   0.760   4.167
45121W        W13594  44.828  40.895  11.936
45122W        W13595  10.660  21.613  13.534
45123W        W13596   4.780  34.013  14.820
45124W        W13597  40.974  44.307   1.367
45125W        W13598  18.630   7.247  13.894
45126W        W13599  14.682  13.822   2.898
45127W        W13600  32.088   2.821   0.248
45128W        W13601  35.982   1.941   4.637
45129W        W13602   8.699  36.068   2.823
45130W        W13603  14.291  35.558   1.920
45131W        W13604   5.810  43.948   2.865
45132W        W13605  14.099  15.607  11.444
45133W        W13606  43.511  42.378   2.186
45134W        W13607  39.886  35.543   0.477
45135W        W13608  40.420  31.921  11.053
45136W        W13609  17.155  27.074  14.411
45137W        W13610   9.256   6.428   3.181
45138W        W13611  30.052  41.403  13.437
45139W        W13612  21.052  34.916  12.933
45140W        W13613  21.110  20.031  11.121
45141W        W13614  18.548  10.195   5.259
45142W        W13615  14.310   6.689  13.398
45143W        W13616  43.351   4.380  14.351
45144W        W13617  25.563  28.523   2.276
45145W        W13618  28.955   0.845  11.399
45146W        W13619  15.266  35.880  12.560
45147W        W13620   4.765   0.827  11.479
45148W        W13621  16.635   0.800   2.794
45149W        W13622  31.446  31.947  10.605
45150W        W13623  13.144  32.443   2.311
45151W        W13624   3.317  36.451   1.744
45152W        W13625  37.971  10.280   1.250
45153W        W13626   8.209  43.843   4.329
45154W        W13627   9.749  41.919  14.849
45155W        W13628  36.024  27.000   2.214
45156W        W13629  24.594  36.081   0.302
45157W        W13630  31.632  39.350   2.386
45158W        W13631  18.547  15.740   0.743
45159W        W13632  31.479   3.367   2.814
45160W        W13633  32.939  43.482  12.960
45161W        W13634  35.443  43.313  11.861
45162W        W13635  32.084   3.301  10.471
45163W        W13636  37.879  10.276   2.848
45164W        W13637   9.306  15.318   1.858
45165W        W13638  35.078  42.842   0.283
45166W        W13639  32.010   3.777  11.489
45167W        W13640  16.643   5.878   0.353
45168W        W13641  15.720  37.974   9.951
45169W        W13642  10.762  13.161  10.445
45170W        W13643  39.057  10.199   3.281
45171W        W13644   3.722   2.915   2.220
45172W        W13645  32.921  37.064  12.936
45173W        W13646  27.644  44.288  13.840
45174W        W13647  24.673  44.967  11.605
45175W        W13648  21.679  23.536  11.449
45176W        W13649  32.610   2.787   2.355
45177W        W13650  17.253  41.806  13.415
45178W        W13651  44.827  37.021   4.262
45179W        W13652   6.415  17.629   1.798
45180W        W13653  42.014  42.954   2.189
45181W        W13654  20.711  44.375  13.336
45182W        W13655  41.459  14.627  11.430
45183W        W13656   3.867   2.947   0.786
45184W        W13657  39.810  35.920   2.291
45185W        W13658  30.990   8.865   2.846
45186W        W13659   8.712  22.733  12.068
45187W        W13660  43.882  13.205   4.235
45188W        W13661   7.282  32.903   1.424
45189W        W13662  23.123  16.785  12.890
45190W        W13663  11.759  28.436   4.641
45191W        W13664  12.132   1.293   4.247
45192W        W13665  41.967  22.640  13.795
45193W        W13666   5.224  26.204   4.325
45194W        W13667  33.543  41.512  14.802
45195W        W13668  14.116  15.700  14.772
45196W        W13669  26.475   0.857   2.829
45197W        W13670  17.181  39.507   1.218
45198W        W13671  33.988  32.561   0.392
45199W        W13672  23.561  10.748   1.697
45200W        W13673  39.458  12.809  14.884
45201W        W13674   7.246   3.903  13.379
45202W        W13675  32.913  13.831   1.389
45203W        W13676  25.002   6.197   1.283
45204W        W13677  14.620  42.796  10.458
45205W        W13678  17.614  27.531  13.800
45206W        W13679  35.060  40.860  10.552
45207W        W13680  16.269   0.876   4.628
45208W        W13681  26.605   0.832   3.648
45209W        W13682  28.006  13.824  10.010
45210W        W13683   9.188  24.624  13.040
45211W        W13684  32.623  16.190  11.902
45212W        W13685  21.691  14.765   2.274
45213W        W13686   7.373   3.318  14.941
45214W        W13687  38.360  34.064  12.038
45215W        W13688   9.882   9.712  10.569
45216W        W13689   6.789   5.303  12.858
45217W        W13690  27.669  30.038  11.115
45218W        W13691  33.594  20.115  14.377
45219W        W13692   9.886  18.070   4.824
45220W        W13693   6.855  20.233  12.851
45221W        W13694   2.733  26.053   0.926
45222W        W13695   0.921  14.315  14.834
45223W        W13696   9.268  16.757   2.680
45224W        W13697  28.619  37.846  10.529
45225W        W13698   6.803  23.677   3.319
45226W        W13699  14.122  15.699   4.143
45227W        W13700  33.454   7.762  14.472
45228W        W13701  23.712  10.279  14.838
45229W        W13702  21.239  36.992   2.350
45230W        W13703  29.011   8.247  13.403
45231W        W13704  15.111  35.397  10.981
45232W        W13705   3.919  32.056  14.323
45233W        W13706  20.085   5.264  11.974
45234W        W13707  40.938   8.307   3.630
45235W        W13708  14.689  30.153  12.967
45236W        W13709  26.526  10.206   4.241
45237W        W13710  15.823  14.675   5.136
45238W        W13711  10.293  20.640   0.741
45239W        W13712  44.805  28.448  11.893
45240W        W13713  28.963  20.185   2.742
45241W        W13714  23.224  16.710  11.504
45242W        W13715  37.011  14.828   4.781
45243W        W13716  18.271  28.479   2.201
45244W        W13717  18.120  24.080   1.841
45245W        W13718   5.219   4.315  10.149
45246W        W13719  18.275  37.374  14.882
45247W        W13720  38.837  22.086   2.776
45248W        W13721  43.931  23.701  11.952
45249W        W13722  10.708   9.363   3.664
45250W        W13723  39.485  10.731   2.188
45251W        W13724  35.073  41.367  11.937
45252W        W13725  32.624  22.569  10.998
45253W        W13726  14.666   7.387  10.550
45254W        W13727   5.874  25.172   2.338
45255W        W13728  33.919  14.326  14.330
45256W        W13729   8.825  16.689   1.240
45257W        W13730  40.974  21.679  13.924
45258W        W13731  18.236   3.881  11.608
45259W        W13732  12.662  25.058   4.659
45260W        W13733   4.699   2.868  13.354
45261W        W13734  28.455  41.490   1.785
45262W        W13735  20.553  29.924  14.331
45263W        W13736  35.982  35.110  13.427
45264W        W13737  16.226   8.405  12.015
45265W        W13738  22.100  28.029  11.455
45266W        W13739  35.416  28.155   3.385
45267W        W13740  35.056   5.266   4.285
45268W        W13741  27.111  15.705  14.404
45269W        W13742   7.795  27.966  11.473
45270W        W13743  24.531  28.536  12.926
45271W        W13744  19.687   6.727  12.504
45272W        W13745  21.559  20.560   4.656
45273W        W13746   6.321   5.306   2.178
45274W        W13747  31.413   6.842   4.786
45275W        W13748  24.119  19.089  14.855
45276W        W13749   5.733   4.361  10.951
45277W        W13750  18.080  44.887   0.305
45278W        W13751  26.151  39.434  12.574
45279W        W13752  41.936  36.077  11.962
45280W        W13753  26.573  40.052  11.375
45281W        W13754   8.286  16.128   1.284
45282W        W13755  28.509  40.912  10.964
45283W        W13756  27.578  18.264   4.269
45284W        W13757  38.552   2.453   0.905
45285W        W13758  32.934  24.993   4.124
45286W        W13759  28.492  24.680  14.021
45287W        W13760  26.109  42.988  12.420
45288W        W13761  21.207  29.468  10.630
45289W        W13762  40.420  12.614  12.889
45290W        W13763  40.493  35.931   3.343
45291W        W13764  21.116  16.711   0.423
45292W        W13765  34.373  44.484   0.305
45293W        W13766  26.475  25.712   1.789
45294W        W13767  43.356  10.243  13.990
45295W        W13768  24.643  26.538   2.390
45296W        W13769  18.187  27.978   0.902
45297W        W13770   5.786  40.351  14.390
45298W        W13771  25.712   4.921   3.190
45299W        W13772  29.490   1.913  14.311
45300W        W13773  34.010   2.792  14.859
45301W        W13774  42.806  43.311  13.820
45302W        W13775  15.243  37.567  12.017
45303W        W13776  14.135  43.345   2.894
45304W        W13777  30.115   0.916  10.956
45305W        W13778  41.899  33.525   1.700
45306W        W13779  30.450  39.046   1.836
45307W        W13780  43.829  29.451   2.841
45308W        W13781   1.877   6.755   1.755
45309W        W13782   7.856  21.184   2.193
45310W        W13783   5.220   9.341  12.383
45311W        W13784   1.936   2.894  11.383
45312W        W13785  18.694  28.442  14.501
45313W        W13786  23.197  40.454  12.047
45314W        W13787  14.759  14.704  14.947
45315W        W13788  44.798  28.971  12.579
45316W        W13789   2.857  13.723  11.053
45317W        W13790  44.811  37.349  11.519
45318W        W13791  10.835  33.090   0.379
45319W        W13792  41.312   7.411   1.246
45320W        W13793  19.261  25.167   4.216
45321W        W13794   2.398  19.699  13.916
45322W        W13795  22.178  33.074   4.707
45323W        W13796  36.065   7.198   0.348
45324W        W13797  11.226  39.410   3.767
45325W        W13798   6.346  14.206  12.935
45326W        W13799  27.107  30.529  12.412
45327W        W13800  36.080  28.167  13.424
45328W        W13801   6.818  36.928   1.893
45329W        W13802  40.827  10.805  12.343
45330W        W13803  28.577  21.724  14.503
45331W        W13804   9.328  30.984   2.257
45332W        W13805  17.621  19.693   0.802
45333W        W13806  30.604  29.103  14.419
45334W        W13807   1.336  25.575   4.321
45335W        W13808  13.610  27.481   2.258
45336W        W13809  32.099  10.711   0.403
45337W        W13810   7.853   0.447   1.833
45338W        W13811  19.088  27.043   1.297
45339W        W13812  30.472   2.466  12.491
45340W        W13813  24.692  42.802  13.414
45341W        W13814  25.994  16.081  11.937
45342W        W13815  41.499   2.431  10.493
45343W        W13816  35.604  41.003  10.490
45344W        W13817  43.968  23.642   4.661
45345W        W13818  25.533  15.211  12.895
45346W        W13819   4.876  18.238  14.985
45347W        W13820  24.982  40.993  12.400
45348W        W13821  34.595   5.364  14.895
45349W        W13822  28.985  24.612   4.255
45350W        W13823  12.306  26.610   0.885
45351W        W13824  36.536   8.768  12.997
45352W        W13825  38.862  26.472  13.333
45353W        W13826  34.434   3.433  11.520
45354W        W13827  35.420  41.967   4.129
45355W        W13828  40.866  25.970   0.284
45356W        W13829   2.451   8.724  13.802
45357W        W13830  25.989  40.832   3.763
45358W        W13831   9.312  40.922  11.900
45359W        W13832  31.437  43.406  10.890
45360W        W13833  15.097   2.311  14.797
45361W        W13834  28.461  10.356   0.774
45362W        W13835  26.197   3.252  12.936
45363W        W13836  16.165  13.675  13.810
45364W        W13837  41.797  35.993  10.519
45365W        W13838  22.654  10.162   2.859
45366W        W13839   2.333  37.453  14.382
45367W        W13840  25.013   2.751   1.284
45368W        W13841  22.671  38.930   4.628
45369W        W13842  21.121   6.360   1.843
45370W        W13843   3.338   5.223   0.920
45371W        W13844  27.647  39.055  14.985
45372W        W13845   2.892  37.864  14.420
45373W        W13846   5.783  29.070  13.454
45374W        W13847  20.122  30.024  11.506
45375W        W13848  15.622  37.072   0.373
45376W        W13849   2.865   1.843   0.349
45377W        W13850   4.375  24.991   0.918
45378W        W13851   4.207  34.098   4.770
45379W        W13852  23.590  14.192   3.206
45380W        W13853  34.600  22.104  13.400
45381W        W13854  35.444  42.829  14.367
45382W        W13855  32.975  19.535  12.558
45383W        W13856   6.386  40.032   3.838
45384W        W13857  11.853   1.336   3.844
45385W        W13858  26.657  40.506  10.933
45386W        W13859   5.382  34.049   1.263
45387W        W13860  14.185  31.554  13.053
45388W        W13861  26.636  14.778   2.872
45389W        W13862  11.290  41.333  11.469
45390W        W13863  34.474   9.298   3.797
45391W        W13864  22.687  26.616  12.937
45392W        W13865   7.324  24.105   2.341
45393W        W13866  10.258  39.040  14.513
45394W        W13867  30.597  19.705   2.672
45395W        W13868  22.729  24.725  11.459
45396W        W13869  19.283  33.002  14.353
45397W        W13870   0.270  28.177  14.941
45398W        W13871   7.836  22.028   4.230
45399W        W13872  26.184  12.357   3.306
45400W        W13873  15.669  16.807   1.233
45401W        W13874  26.512  29.462   3.709
45402W        W13875   4.732   8.353   1.752
45403W        W13876  41.789  25.073   1.290
45404W        W13877  12.816  36.559  14.418
45405W        W13878  19.068  33.112  13.363
45406W        W13879  33.531   4.731   4.684
45407W        W13880   5.898  33.621  14.427
45408W        W13881  19.263  39.021   0.424
45409W        W13882   3.394   5.329   3.248
45410W        W13883  33.108  29.091  13.043
45411W        W13884   1.267  18.574  11.931
45412W        W13885  41.334  37.063   3.148
45413W        W13886  23.009  23.567  11.578
45414W        W13887  24.208  42.379  13.822
45415W        W13888  21.524  43.957   0.288
45416W        W13889  11.142  23.522  13.960
45417W        W13890  38.418  23.720   4.620
45418W        W13891   8.855   4.432   0.905
45419W        W13892  35.957   8.828  14.317
45420W        W13893  31.145  27.568  14.451
45421W        W13894  37.066  34.609   2.225
45422W        W13895   0.984  10.237  11.924
45423W        W13896  34.083  33.462   1.792
45424W        W13897  36.098  31.917   2.878
45425W        W13898   0.852  35.107   2.243
45426W        W13899  10.309  44.955   2.350
45427W        W13900  10.685   6.404   1.800
45428W        W13901  27.970  27.065  14.005
45429W        W13902  41.975  16.703   2.366
45430W        W13903   1.427   4.889   2.777
45431W        W13904  44.324  10.820  11.494
45432W        W13905  11.833  16.623   0.733
45433W        W13906  38.928   2.848  14.384
45434W        W13907  26.590  31.457   1.432
45435W        W13908  19.096   2.725  14.822
45436W        W13909  23.153  19.119  11.098
45437W        W13910  43.001   7.893  14.354
45438W        W13911  30.009  22.167  12.999
45439W        W13912  14.117  43.462   4.184
45440W        W13913  27.130   1.384  11.552
45441W        W13914  13.106   2.247  12.005
45442W        W13915  10.250   3.902   4.633
45443W        W13916  16.125   0.366   1.321
45444W        W13917  37.344  18.619   2.716
45445W        W13918   4.735   7.254  13.325
45446W        W13919  22.738   3.765   1.377
45447W        W13920   3.422  35.916   1.446
45448W        W13921  42.285  15.816   3.817
45449W        W13922  37.928  22.148  14.471
45450W        W13923  41.843  39.467   4.294
45451W        W13924   3.944  21.520  10.940
45452W        W13925   9.240  32.533  11.605
45453W        W13926  32.080  37.932  10.619
45454W        W13927  33.124   7.285  10.606
45455W        W13928  18.259  10.676  12.971
45456W        W13929  34.094  28.514   2.761
45457W        W13930  19.152  31.901   0.775
45458W        W13931  43.989  16.072   2.302
45459W        W13932  10.733  19.699  11.519
45460W        W13933  22.104  36.538   4.226
45461W        W13934   7.876  40.397  12.567
45462W        W13935  13.273  18.553  13.960
45463W        W13936  25.612   1.773   1.297
45464W        W13937  20.100   7.172  11.445
45465W        W13938  17.706  38.898   9.473
45466W        W13939  35.370  33.495   2.666
45467W        W13940  16.734  24.619   2.785
45468W        W13941  41.928   3.370  12.965
45469W        W13942  42.300  29.937   1.371
45470W        W13943   0.476  38.889   2.748
45471W        W13944  23.666  11.373   2.341
45472W        W13945  38.876   4.444   3.848
45473W        W13946  14.295  28.058  13.961
45474W        W13947  23.020  10.655   0.418
45475W        W13948  14.768  33.418   5.082
45476W        W13949  29.116  16.240  14.953
45477W        W13950  35.418   2.466  10.405
45478W        W13951  12.802   0.296  12.423
45479W        W13952  11.218  41.011   3.747
45480W        W13953   0.299  19.247   1.920
45481W        W13954  20.175  24.136  10.555
45482W        W13955  44.881  28.094  11.052
45483W        W13956   5.915  21.205   1.309
45484W        W13957   1.801  38.445   0.415
45485W        W13958  19.745   7.791   1.887
45486W        W13959  19.250   3.343  14.975
45487W        W13960  34.036  30.433   2.760
45488W        W13961  26.125  37.860   1.344
45489W        W13962   8.726  30.598   2.695
45490W        W13963  32.636  10.352  14.947
45491W        W13964  19.270  37.842   0.482
45492W        W13965  30.933  40.311   4.700
45493W        W13966  21.610  20.602   3.313
45494W        W13967  30.648  43.346   4.226
45495W        W13968   6.336  26.677   0.358
45496W        W13969  38.964  25.555  13.518
45497W        W13970  30.571  37.532  10.629
45498W        W13971  12.213   1.843   2.756
45499W        W13972  13.754   2.472  10.641
45500W        W13973  20.587  21.039   2.844
45501W        W13974  32.919   9.786  11.578
45502W        W13975  44.505  44.468  14.961
45503W        W13976   6.827   0.282   1.231
45504W        W13977  21.568   5.201   4.727
45505W        W13978  43.768  29.037  14.339
45506W        W13979  11.731  24.668   4.201
45507W        W13980  37.991  38.420   4.798
45508W        W13981  34.972   1.823   1.363
45509W        W13982  27.016  16.661   4.168
45510W        W13983  28.678  20.078  10.594
45511W        W13984  37.400  37.431   0.756
45512W        W13985  18.152  14.740   3.355
45513W        W13986   4.292  43.342   4.681
45514W        W13987  34.469  20.274   2.378
45515W        W13988  39.864  35.368  10.616
45516W        W13989  11.725  44.894  10.937
45517W        W13990   5.780  27.510   4.834
45518W        W13991  23.182   9.338   4.263
45519W        W13992  42.355   3.949   4.629
45520W        W13993   6.282  31.631   4.662
45521W        W13994   3.430   4.804  13.978
45522W        W13995   1.903   3.783  14.287
45523W        W13996  19.660   6.771   2.823
45524W        W13997  26.618  38.438  11.129
45525W        W13998   7.170  43.926  12.472
45526W        W13999  21.048  24.066   4.657
45527W        W14000   4.306  32.606  14.317
45528W        W14001  40.890  13.150  13.376
45529W        W14002  25.520  19.272   1.701
45530W        W14003  41.795  30.457  10.440
45531W        W14004   9.227  33.514   4.825
45532W        W14005  38.036  10.848   1.343
45533W        W14006  34.517  44.833   1.822
45534W        W14007  17.599  35.926   2.259
45535W        W14008  14.150   6.844   2.346
45536W        W14009   5.874   8.394  13.825
45537W        W14010  37.474  22.058  10.603
45538W        W14011  43.317   8.763  13.331
45539W        W14012   2.958   8.713   3.634
45540W        W14013  14.614  20.221  10.602
45541W        W14014  40.549  32.410   0.414
45542W        W14015  11.255  29.947  11.567
45543W        W14016  18.287  38.069  11.025
45544W        W14017  19.583  25.681   1.345
45545W        W14018  38.008   4.812  10.036
45546W        W14019  16.234  44.281  11.963
45547W        W14020  16.756  21.512  13.824
45548W        W14021  12.722  26.137  10.966
45549W        W14022  11.341  14.270   1.876
45550W        W14023   1.785  20.702  10.462
45551W        W14024   1.237  16.701  14.283
45552W        W14025  26.557  40.548   0.884
45553W        W14026  11.154  23.520   5.740
45554W        W14027  40.998   5.399   3.356
45555W        W14028   5.305  10.270   2.679
45556W        W14029  12.325  15.609  13.034
45557W        W14030   5.291  12.358   4.167
45558W        W14031  32.522   5.695   4.355
45559W        W14032  23.185  18.071  13.876
45560W        W14033   1.787  41.856  10.473
45561W        W14034  43.972  12.140   2.866
45562W        W14035  20.587  36.914  14.842
45563W        W14036  22.107   7.789  14.478
45564W        W14037  29.946  30.907   1.219
45565W        W14038  43.512   2.237  12.389
45566W        W14039  42.969  34.483   4.198
45567W        W14040  21.145   5.734  10.613
45568W        W14041  26.557  16.728  10.545
45569W        W14042   6.305  43.492  14.291
45570W        W14043   6.694   4.922  12.848
45571W        W14044  27.633  34.373   4.323
45572W        W14045  39.922  44.343   2.746
45573W        W14046  11.301  31.573  12.398
45574W        W14047  43.428  23.156   4.678
45575W        W14048  22.582   5.334  13.918
45576W        W14049  26.095  15.742  13.049
45577W        W14050   5.422  44.420  10.112
45578W        W14051  29.031   0.805   0.891
45579W        W14052  20.711   8.660   0.453
45580W        W14053  21.512  18.104   3.728
45581W        W14054   7.851  34.940  14.458
45582W        W14055  31.540  35.499   1.363
45583W        W14056   6.389  18.719   0.297
45584W        W14057  40.396  20.072   3.864
45585W        W14058  23.990   8.834   1.295
45586W        W14059  12.279  10.286  10.563
45587W        W14060  16.156   1.841  11.495
45588W        W14061  20.274  28.958  13.500
45589W        W14062   6.238   7.408  12.384
45590W        W14063   9.820  24.081   1.435
45591W        W14064  24.219  14.200  12.576
45592W        W14065  44.823  29.628  11.125
45593W        W14066  33.497  26.518   2.213
45594W        W14067   5.902  28.967   3.793
45595W        W14068  12.797  10.864   3.850
45596W        W14069  24.226  18.101  12.466
45597W        W14070  16.170  37.839   5.114
45598W        W14071  41.790   1.872  11.488
45599W        W14072  30.505  17.228   4.606
45600W        W14073  27.633  33.504  14.507
45601W        W14074  42.445  43.984   0.456
45602W        W14075  37.020  35.504   0.757
45603W        W14076  11.660   9.786  11.008
45604W        W14077  28.071  32.483   2.316
45605W        W14078  44.457  24.506  10.151
45606W        W14079  25.533  20.155  14.822
45607W        W14080   9.889  27.133  12.986
45608W        W14081  43.991  22.221  11.128
45609W        W14082  42.368  29.460  11.517
45610W        W14083  41.032  30.431   3.194
45611W        W14084  30.126  25.470  10.481
45612W        W14085  35.946  15.152  11.546
45613W        W14086   6.191  15.230   4.756
45614W        W14087  36.881  30.557   2.409
45615W        W14088   4.823  35.953   0.827
45616W        W14089  35.562  31.554  11.870
45617W        W14090  41.364  38.976  10.097
45618W        W14091  37.435  36.586   3.855
45619W        W14092  17.137  33.606   2.365
45620W        W14093  37.574  15.204  14.915
45621W        W14094  24.573  21.601  14.479
45622W        W14095   3.242  16.632   1.310
45623W        W14096   4.401  26.513   0.965
45624W        W14097  31.939   1.840  12.540
45625W        W14098  21.526  25.709  13.046
45626W        W14099  27.664  14.280  13.437
45627W        W14100  21.128  12.312   0.843
45628W        W14101  33.016  18.768  10.597
45629W        W14102  37.070  44.290  11.459
45630W        W14103  19.728  21.087   1.794
45631W        W14104  35.602  41.822  10.409
45632W        W14105  16.795   8.253  14.844
45633W        W14106  34.871  17.148  11.605
45634W        W14107  32.607   5.321   3.638
45635W        W14108   3.935  12.779   1.216
45636W        W14109   7.703  21.606   1.392
45637W        W14110  10.746  25.058   4.597
45638W        W14111  26.527  12.713   1.903
45639W        W14112  17.216   4.322   1.735
45640W        W14113   4.945  18.632  14.790
45641W        W14114   6.869  34.421   2.288
45642W        W14115  18.201  33.044  14.918
45643W        W14116  16.733  32.592  12.408
45644W        W14117   8.827  11.215   3.739
45645W        W14118  22.106  12.148   3.640
45646W        W14119  32.083  15.212  12.554
45647W        W14120  42.929  30.976   4.797
45648W        W14121  24.065  41.522   0.347
45649W        W14122   2.723  32.579   2.192
45650W        W14123  43.002  40.959  13.902
45651W        W14124  35.529   7.376   1.391
45652W        W14125  41.352  44.286  10.550
45653W        W14126   7.171  20.702  10.556
45654W        W14127   2.287   1.864   3.292
45655W        W14128  33.548  42.448  13.010
45656W        W14129  16.191  22.161   4.345
45657W        W14130  26.194  15.596  13.969
45658W        W14131  19.122  20.577   4.338
45659W        W14132  22.565  28.995  14.853
45660W        W14133  26.195  30.041   2.844
45661W        W14134  14.339  29.941  12.462
45662W        W14135  33.416  31.622   3.714
45663W        W14136  23.176  18.700  13.375
45664W        W14137  39.925  14.679  12.887
45665W        W14138  39.979  33.570  12.921
45666W        W14139  43.879   2.377  12.346
45667W        W14140  16.801   1.945   4.626
45668W        W14141  15.612  17.209  14.419
45669W        W14142   3.903  28.594  11.562
45670W        W14143  34.112  40.849  14.014
45671W        W14144   4.819  31.073   0.457
45672W        W14145  11.340  22.652  13.025
45673W        W14146  11.643   1.847   1.261
45674W        W14147  41.512  18.252  12.976
45675W        W14148  34.466  27.627   3.250
45676W        W14149  12.667   5.884   3.832
45677W        W14150  21.725  16.285   0.818
45678W        W14151  40.952   2.294  10.457
45679W        W14152  40.886  38.344  12.374
45680W        W14153  10.155  34.584  11.053
45681W        W14154  36.055  38.065   2.751
45682W        W14155   8.762  36.462   3.353
45683W        W14156   4.706  23.692   1.931
45684W        W14157  44.346  10.199  13.010
45685W        W14158  15.591  12.161  14.846
45686W        W14159   8.748  42.918   3.170
45687W        W14160   2.786  17.713  13.933
45688W        W14161  28.968  20.083  14.948
45689W        W14162  33.481   9.746  13.326
45690W        W14163  19.124  41.820  14.395
45691W        W14164  35.922  19.585   4.316
45692W        W14165  11.784  44.877   2.336
45693W        W14166   0.461  28.592  13.993
45694W        W14167  10.324  32.505   5.156
45695W        W14168  27.133  25.151  11.463
45696W        W14169  25.651  21.242  13.472
45697W        W14170   6.277  21.130  11.983
45698W        W14171   0.430   1.290  12.844
45699W        W14172  38.074   0.313  10.629
45700W        W14173  35.513  22.576  11.041
45701W        W14174   2.399   6.236   1.869
45702W        W14175  33.935  24.992  14.450
45703W        W14176  23.027  34.376  14.892
45704W        W14177  40.506  36.471   0.387
45705W        W14178  39.420  12.709   4.828
45706W        W14179  33.943  23.607  14.839
45707W        W14180  17.636   6.684   4.242
45708W        W14181  39.425  12.167   4.764
45709W        W14182  44.861  16.091  15.000
45710W        W14183  37.500   8.734  14.378
45711W        W14184  14.143  31.431  12.580
45712W        W14185   0.862   1.880   1.430
45713W        W14186  32.988  32.514  12.936
45714W        W14187  15.630   3.309  13.414
45715W        W14188  12.739   4.877  12.037
45716W        W14189  33.049  22.531   3.779
45717W        W14190  33.928  15.670  11.534
45718W        W14191   1.861  34.027  14.893
45719W        W14192   8.709  23.568   3.183
45720W        W14193  19.615   7.674   2.827
45721W        W14194  34.602  10.226  14.927
45722W        W14195  33.091  10.356   0.317
45723W        W14196   0.405   1.436  10.905
45724W        W14197  19.051  40.000   1.214
45725W        W14198   9.283  11.354   0.938
45726W        W14199  10.215  32.972   0.294
45727W        W14200  33.531  13.649  12.523
45728W        W14201  11.203  20.041   2.372
45729W        W14202  10.802  20.239  13.343
45730W        W14203  18.645  44.993  13.515
45731W        W14204  22.563   3.310   1.934
45732W        W14205  27.526  42.318  11.560
45733W        W14206  35.017  27.681  13.799
45734W        W14207   5.238   9.743   1.234
45735W        W14208   5.296  33.125  14.460
45736W        W14209  40.486  14.260  11.028
45737W        W14210   1.414   1.310   4.173
45738W        W14211  44.880  30.983  14.295
45739W        W14212   8.716  15.703   2.187
45740W        W14213   4.843  15.094   1.798
45741W        W14214  10.251  17.702  11.080
45742W        W14215  38.930   2.327  11.071
45743W        W14216  13.118   6.796   4.613
45744W        W14217  26.467   1.443   3.231
45745W        W14218   0.364  25.574  10.582
45746W        W14219  28.478   2.288   0.481
45747W        W14220  36.376  26.678  12.455
45748W        W14221  27.587  11.764   4.783
45749W        W14222   2.435  10.352   3.350
45750W        W14223   2.430   3.257   0.399
45751W        W14224   7.851  36.580   4.667
45752W        W14225  17.699  25.704   4.201
45753W        W14226  26.590   8.192   3.190
45754W        W14227   5.327  28.064  11.065
45755W        W14228   4.769   6.329   9.544
45756W        W14229  21.577   1.880   1.713
45757W        W14230   1.291  11.703  13.411
45758W        W14231   1.758  26.208  11.944
45759W        W14232  43.982  37.997  12.434
45760W        W14233  40.829  23.215   2.874
45761W        W14234  20.269  38.035   2.825
45762W        W14235  11.185   9.174   0.764
45763W        W14236  18.607  21.543  14.832
45764W        W14237  31.067   4.935  14.447
45765W        W14238   7.399  11.219  14.865
45766W        W14239  22.134  37.035   0.931
45767W        W14240  25.211   7.770  14.021
45768W        W14241  31.453  27.141  11.101
45769W        W14242  19.070   3.720   3.712
45770W        W14243  11.244  27.001   0.386
45771W        W14244  10.174   7.194  10.929
45772W        W14245  11.340  15.817   0.828
45773W        W14246  14.788   0.468   1.766
45774W        W14247   7.907  41.431  12.423
45775W        W14248  25.104  27.670  10.571
45776W        W14249  16.700  20.751   0.895
45777W        W14250  33.928   3.324   4.148
45778W        W14251  18.704  16.229   3.682
45779W        W14252  44.382  21.533  13.955
45780W        W14253   1.830  26.180   4.351
45781W        W14254   6.761  35.586   0.483
45782W        W14255   1.473   2.743   4.635
45783W        W14256  44.837  29.429  14.826
45784W        W14257  30.047   1.243  10.600
45785W        W14258  31.409  31.599   4.628
45786W        W14259  26.662  44.307  13.387
45787W        W14260  16.807  18.665   1.269
45788W        W14261  11.850  22.114   2.831
45789W        W14262  44.956  20.627  12.071
45790W        W14263  40.013   9.170  12.571
45791W        W14264  20.769  13.702   4.750
45792W        W14265   0.806   3.934  14.434
45793W        W14266   5.200  15.773  10.454
45794W        W14267  26.114   1.462   9.586
45795W        W14268   5.350  37.476   1.841
45796W        W14269   4.367  38.533  14.922
45797W        W14270  34.891   1.430   2.403
45798W        W14271   2.335  22.551   5.082
45799W        W14272  38.018  35.474  11.001
45800W        W14273  24.066   9.276   2.384
45801W        W14274  31.587   4.708   1.782
45802W        W14275  26.585  17.715  11.456
45803W        W14276  35.387  37.930  11.491
45804W        W14277  43.430  27.071  12.080
45805W        W14278  12.314  15.693   2.331
45806W        W14279  24.706  42.833  12.519
45807W        W14280  30.482  15.777   0.908
45808W        W14281  34.601  43.809   3.218
45809W        W14282  23.681  33.392  14.407
45810W        W14283  34.406   4.261  13.821
45811W        W14284  13.760   9.737  10.537
45812W        W14285  40.337  14.622   0.405
45813W        W14286  43.449  39.951  14.007
45814W        W14287  39.324   0.395  11.018
45815W        W14288   0.488  44.423  14.426
45816W        W14289  27.999  24.014  12.564
45817W        W14290   5.216  39.910   2.786
45818W        W14291  24.575   4.220  13.308
45819W        W14292   4.282  31.607  11.915
45820W        W14293  34.105  36.369   3.869
45821W        W14294   9.662  31.086  12.018
45822W        W14295   2.311  40.895   3.799
45823W        W14296  27.531   7.263   0.803
45824W        W14297  25.614   2.437   3.791
45825W        W14298  39.383  42.878  14.863
45826W        W14299  25.021  40.347   4.220
45827W        W14300  15.597   7.693  13.015
45828W        W14301  33.102  26.574   5.230
45829W        W14302  44.294   7.822   3.258
45830W        W14303  24.531  40.362  12.860
45831W        W14304  41.309  33.462  11.034
45832W        W14305  40.011   6.247   0.871
45833W        W14306   0.411   0.908   4.812
45834W        W14307  17.193  44.948   2.720
45835W        W14308   9.790  37.938   2.699
45836W        W14309  39.049  20.071   1.342
45837W        W14310  31.979  10.711   1.325
45838W        W14311   1.301   4.938  14.933
45839W        W14312  39.521  20.091  10.418
45840W        W14313  14.113  42.346   2.841
45841W        W14314  26.620  24.158  14.949
45842W        W14315  22.728  17.707   1.734
45843W        W14316  32.440   1.934   5.246
45844W        W14317  43.805  28.949   2.254
45845W        W14318  32.593  13.324   4.767
45846W        W14319  43.773  39.431  10.465
45847W        W14320  24.642  44.765  14.885
45848W        W14321   0.956   1.867   2.852
45849W        W14322  43.347  41.953  11.374
45850W        W14323  10.837  24.176   0.260
45851W        W14324  28.587  44.823   4.630
45852W        W14325  18.671  22.592   1.410
45853W        W14326   5.896   0.482  10.485
45854W        W14327  36.973   1.331  13.016
45855W        W14328  16.754   6.200  10.971
45856W        W14329  12.237  27.960  13.968
45857W        W14330  39.482   1.270  12.477
45858W        W14331  38.466  19.160  13.512
45859W        W14332  21.212  37.408  11.916
45860W        W14333  26.648   3.832  14.392
45861W        W14334  36.904  10.356   1.798
45862W        W14335  30.620  33.459   4.660
45863W        W14336  35.582  42.343  11.407
45864W        W14337  28.604   6.389  11.604
45865W        W14338  23.490  41.346  12.347
45866W        W14339  20.145   0.366   0.733
45867W        W14340  14.809  28.156  11.547
45868W        W14341  32.011  40.525   4.299
45869W        W14342  10.378  43.416  13.823
45870W        W14343   7.280  25.529   1.351
45871W        W14344  10.710  38.000  12.855
45872W        W14345  28.604   2.819  10.931
45873W        W14346  35.890  16.121   0.392
45874W        W14347   8.868   0.318   0.758
45875W        W14348  33.417  42.932  13.858
45876W        W14349  24.222  44.890  11.443
45877W        W14350  10.838  22.196  12.478
45878W        W14351  21.515   8.668   3.361
45879W        W14352  36.060  31.979   5.156
45880W        W14353  10.818   3.940  14.497
45881W        W14354  43.287  16.270   0.856
45882W        W14355  22.509  38.448   1.783
45883W        W14356  11.671  30.564  11.564
45884W        W14357  17.566  39.955  13.943
45885W        W14358  40.943  27.153   4.606
45886W        W14359   6.212  36.890   2.877
45887W        W14360   1.858  24.677  12.402
45888W        W14361  23.078  41.517   0.408
45889W        W14362  26.464  22.741  11.587
45890W        W14363  35.487  42.281   0.458
45891W        W14364   1.399  37.496  11.598
45892W        W14365  23.532  13.616   2.185
45893W        W14366  38.402   6.825  14.823
45894W        W14367   2.271  16.749  13.034
45895W        W14368  24.129   9.238   2.807
45896W        W14369  10.760  11.650   2.295
45897W        W14370  36.429  18.177  10.044
45898W        W14371  19.696  30.413  12.460
45899W        W14372   7.677  30.997  10.970
45900W        W14373  37.839   0.763   4.303
45901W        W14374  36.983  21.583   3.170
45902W        W14375  37.995  11.688   3.245
45903W        W14376  39.000  35.964   2.182
45904W        W14377  19.631  19.569  14.948
45905W        W14378  36.887  30.927  11.929
45906W        W14379  37.370   4.742   4.223
45907W        W14380   4.439   6.353  13.427
45908W        W14381   8.382  44.983   0.419
45909W        W14382  18.586   8.360   3.219
45910W        W14383  23.145  34.946  12.486
45911W        W14384  19.605  30.091   4.228
45912W        W14385   8.345  44.497   0.476
45913W        W14386   3.329  39.378  13.503
45914W        W14387   5.774  31.589   2.244
45915W        W14388  34.084   2.806   2.200
45916W        W14389   0.978   6.348   0.780
45917W        W14390  30.465   0.364   4.273
45918W        W14391  21.232   6.684  14.800
45919W        W14392  40.895   8.887   0.359
45920W        W14393  32.067  42.777   0.343
45921W        W14394  34.914  10.365   4.274
45922W        W14395  40.955  31.896   3.819
45923W        W14396  38.396  13.281  13.011
45924W        W14397  32.943   0.780  10.554
45925W        W14398  34.571   5.205  10.495
45926W        W14399  38.567  21.702   3.353
45927W        W14400   7.261  34.457  14.463
45928W        W14401  32.482  43.021   2.333
45929W        W14402  36.929  27.544   0.426
45930W        W14403  23.200  39.320   4.173
45931W        W14404  37.536   9.847   4.265
45932W        W14405  15.700  13.687   0.372
45933W        W14406  36.996   4.714   2.378
45934W        W14407  42.460  28.443  14.345
45935W        W14408   3.373  19.196  14.363
45936W        W14409  26.668  10.281  12.553
45937W        W14410  25.555   9.860  11.486
45938W        W14411   9.734  43.434  11.090
45939W        W14412  41.449  40.503  12.371
45940W        W14413  33.986   4.394   2.269
45941W        W14414  43.396  23.638  13.039
45942W        W14415  35.108  16.671   3.746
45943W        W14416  12.796  36.425  12.401
45944W        W14417  19.145  32.016  11.014
45945W        W14418  25.698   0.972   9.596
45946W        W14419   5.926   4.333   4.347
45947W        W14420  18.584  22.173   1.285
45948W        W14421  44.930  17.241   1.711
45949W        W14422  43.314  38.374   3.696
45950W        W14423  10.820  38.403  14.761
45951W        W14424  26.063  24.704   0.803
45952W        W14425   3.435  21.031  13.803
45953W        W14426   8.738  44.940   0.907
45954W        W14427   8.841  23.090   0.731
45955W        W14428  33.898  43.012   4.612
45956W        W14429  22.214  10.749  12.467
45957W        W14430  26.647  34.958   3.214
45958W        W14431   6.760  44.355  13.838
45959W        W14432  25.689  44.445  13.994
45960W        W14433  42.492  16.072   1.762
45961W        W14434  17.774  15.175  13.538
45962W        W14435  38.344  19.076  12.465
45963W        W14436  27.542   6.212  12.022
45964W        W14437   9.261  35.378   4.635
45965W        W14438  14.806   7.361   1.231
45966W        W14439  27.575  37.552   2.758
45967W        W14440   3.425  18.271   4.298
45968W        W14441  12.345  10.745   4.599
45969W        W14442   8.771  41.391  12.094
45970W        W14443  20.046  21.663  14.981
45971W        W14444   1.965   4.257  10.888
45972W        W14445  20.060  17.596  14.406
45973W        W14446  31.525  13.315   1.890
45974W        W14447  18.261   0.485  11.571
45975W        W14448  42.903  19.576  11.500
45976W        W14449   7.723  32.602  10.918
45977W        W14450  34.922  28.479  10.899
45978W        W14451  24.158  30.013   2.232
45979W        W14452   2.813  19.620  13.314
45980W        W14453  14.673   6.793  10.951
45981W        W14454   0.276  44.389   4.794
45982W        W14455  21.164  38.557   9.988
45983W        W14456  43.830  22.737   2.883
45984W        W14457  42.404  36.464  12.360
45985W        W14458  30.642   6.799   1.808
45986W        W14459   8.706  26.150   4.155
45987W        W14460  12.251  24.088   2.759
45988W        W14461   0.280  17.150   0.374
45989W        W14462  43.959  21.588  10.488
45990W        W14463  14.284  34.029  10.557
45991W        W14464  25.217  19.131  12.091
45992W        W14465  11.161  29.103   4.641
45993W        W14466  32.959   9.814  13.003
45994W        W14467  16.589  24.723  11.870
45995W        W14468  20.652  13.148   1.316
45996W        W14469  10.847  44.341   1.777
45997W        W14470  25.532  40.851   0.289
45998W        W14471  28.510   7.756  10.575
45999W        W14472  19.648  27.536   2.802
46000W        W14473  32.039  13.118   4.247
46001W        W14474  22.021  39.318  10.452
46002W        W14475  30.045  11.726   1.259
46003W        W14476  38.853  41.314   1.379
46004W        W14477  35.569  38.910  12.414
46005W        W14478  41.792  28.579  12.339
46006W        W14479  24.204  15.627  10.101
46007W        W14480  19.616  43.413   1.775
46008W        W14481  43.306  14.700  14.871
46009W        W14482  19.237  29.071   4.252
46010W        W14483  37.554  22.512  13.988
46011W        W14484   8.294  20.218  13.469
46012W        W14485  36.452  19.673   5.160
46013W        W14486   3.918  38.890   0.366
46014W        W14487   8.731  40.352   3.683
46015W        W14488   2.880  29.163   1.707
46016W        W14489  34.481  20.043   1.892
46017W        W14490   7.744  42.310   1.337
46018W        W14491   9.727  41.511  12.565
46019W        W14492  25.163  33.488   5.210
46020W        W14493  16.813   0.919  11.858
46021W        W14494   8.286  13.747   3.383
46022W        W14495   9.736  32.074   1.365
46023W        W14496  15.752  38.953  12.997
46024W        W14497  18.128  36.950   0.793
46025W        W14498  15.777   4.888   1.859
46026W        W14499   0.828  38.820   0.430
46027W        W14500  27.021  23.199  11.968
46028W        W14501  16.261  31.001  12.403
46029W        W14502  17.801  18.666  12.067
46030W        W14503  44.437  27.608   4.147
46031W        W14504  42.996   6.220   4.734
46032W        W14505  28.636  22.996  13.061
46033W        W14506  34.876  20.167   1.220
46034W        W14507  26.543  30.044   2.761
46035W        W14508  36.421  35.093  13.865
46036W        W14509  14.245  12.342  14.373
46037W        W14510   9.807  21.574  12.077
46038W        W14511  10.818  37.354  14.859
46039W        W14512  32.008  43.456   0.735
46040W        W14513  21.078  39.996   4.711
46041W        W14514  25.110   7.868  11.939
46042W        W14515   2.935   8.672  14.426
46043W        W14516  29.151  32.453  11.498
46044W        W14517   9.385  30.630  13.875
46045W        W14518  15.673   5.229  10.479
46046W        W14519  37.012  20.186   4.768
46047W        W14520  11.767  16.569  10.439
46048W        W14521  42.438  33.607   1.808
46049W        W14522   5.783  35.095  11.525
46050W        W14523  32.546  26.586   4.181
46051W        W14524   5.296  29.988   3.152
46052W        W14525  20.640  24.502  12.856
46053W        W14526  24.598  25.650  10.477
46054W        W14527  17.147  13.662   2.330
46055W        W14528   2.842  44.980   3.845
46056W        W14529  17.168   6.832  13.858
46057W        W14530  32.983  28.560   4.160
46058W        W14531  20.671   9.239  12.934
46059W        W14532  11.313  19.645   4.808
46060W        W14533  16.128  37.865  10.911
46061W        W14534  30.552  12.755  12.494
46062W        W14535   2.867  20.054  13.530
46063W        W14536   7.395  22.198  12.497
46064W        W14537  20.206   3.783  14.302
46065W        W14538   7.866  16.713   2.698
46066W        W14539  14.800  23.230   1.331
46067W        W14540  41.489  44.003  13.373
46068W        W14541  12.350  39.399  11.920
46069W        W14542  17.066  14.142  10.111
46070W        W14543  24.110  31.421  13.339
46071W        W14544  34.601  27.448   3.719
46072W        W14545  43.882  40.979  10.955
46073W        W14546  23.138  24.637  12.558
46074W        W14547  18.699  37.077  13.896
46075W        W14548  10.291  42.959   5.280
46076W        W14549  10.667  35.422   2.699
46077W        W14550  32.103  22.086  12.372
46078W        W14551  29.013  13.838   2.726
46079W        W14552  25.181  43.844   5.088
46080W        W14553  33.497   3.262  12.496
46081W        W14554  33.420  12.618   3.305
46082W        W14555  15.114  20.070  14.003
46083W        W14556  21.536   2.878  14.304
46084W        W14557  35.923  34.109  11.477
46085W        W14558  21.096  13.690   1.388
46086W        W14559  30.070  17.194  14.488
46087W        W14560  41.471  17.125  13.489
46088W        W14561  18.231  12.297  10.575
46089W        W14562  23.030  12.167   2.852
46090W        W14563  44.759  20.168  14.894
46091W        W14564  10.182  14.730   3.838
46092W        W14565  18.215  18.115  10.480
46093W        W14566  38.360   5.754   2.332
46094W        W14567  27.124  20.150   0.809
46095W        W14568  21.047  39.478  13.860
46096W        W14569  25.091  27.648  14.883
46097W        W14570  23.614  36.902   0.861
46098W        W14571   7.193  33.464   2.311
46099W        W14572  23.508  14.265   2.282
46100W        W14573  12.303  43.014  11.954
46101W        W14574   5.336  31.606   2.833
46102W        W14575  16.626   8.726  13.797
46103W        W14576  30.461  19.593  11.129
46104W        W14577  41.412  12.125   1.228
46105W        W14578  15.154   9.394  14.323
46106W        W14579   9.796   1.902   3.737
46107W        W14580  14.615  14.324   1.788
46108W        W14581  11.730  27.478   2.330
46109W        W14582   9.836  44.859  10.971
46110W        W14583   6.850   7.705   4.692
46111W        W14584  17.113   4.297  11.101
46112W        W14585   8.214  26.525  14.429
46113W        W14586  29.646  41.324   3.632
46114W        W14587  18.561  11.310  14.302
46115W        W14588  20.599  12.723   2.713
46116W        W14589   3.880  27.484  12.422
46117W        W14590  29.667  29.616   4.820
46118W        W14591   1.272  33.527  13.980
46119W        W14592  10.321  20.552   2.237
46120W        W14593  29.017   6.825  10.923
46121W        W14594  44.356  27.466   1.833
46122W        W14595  21.169  14.317   4.628
46123W        W14596   5.206   0.392  14.960
46124W        W14597  37.523  29.949  13.019
46125W        W14598  17.704  16.777  12.078
46126W        W14599  32.138   2.821   3.681
46127W        W14600  14.723  35.097  11.108
46128W        W14601  43.292  19.714   0.826
46129W        W14602  38.962  17.117   4.785
46130W        W14603   0.827  43.902  12.850
46131W        W14604   8.188  24.093  12.951
46132W        W14605   1.369  34.409  10.986
46133W        W14606   9.356   5.768   0.458
46134W        W14607  12.848  44.416  11.455
46135W        W14608  13.185  27.100  12.863
46136W        W14609  20.257  35.460  12.926
46137W        W14610  41.858  19.633   0.896
46138W        W14611   2.329   1.973  13.796
46139W        W14612  24.979  40.353   1.775
46140W        W14613  13.698  34.030   3.649
46141W        W14614  16.080  15.110   0.374
46142W        W14615   2.931  28.941  11.532
46143W        W14616  20.532  13.251   3.267
46144W        W14617   8.850  15.266   1.327
46145W        W14618  15.252  23.493   0.933
46146W        W14619   5.422   6.188  13.481
46147W        W14620  34.546  15.622  13.533
46148W        W14621  37.397   8.309   0.924
46149W        W14622  10.660  41.372  12.394
46150W        W14623  40.879   8.850   0.869
46151W        W14624  41.410   0.850  11.506
46152W        W14625  22.736  10.308  13.320
46153W        W14626  13.171   0.447  11.395
46154W        W14627  11.206  23.995   3.157
46155W        W14628  33.078   8.667   2.820
46156W        W14629  22.740  41.407   1.798
46157W        W14630  36.943   7.889   1.279
46158W        W14631   5.275  43.999   1.699
46159W        W14632   6.846  19.674  13.942
46160W        W14633  41.836   0.858  12.888
46161W        W14634  29.650   1.462  10.448
46162W        W14635  27.468  32.955   2.243
46163W        W14636  26.506  28.539  14.510
46164W        W14637   0.307  23.128   1.400
46165W        W14638  41.372  40.953  13.867
46166W        W14639  10.336   0.950   2.336
46167W        W14640   2.922  35.558  13.311
46168W        W14641  14.104  40.379   1.770
46169W        W14642   2.745  24.163   1.261
46170W        W14643  15.098  34.488   4.778
46171W        W14644  31.917  31.984   4.774
46172W        W14645  14.196  40.974  11.591
46173W        W14646  30.454  40.923  13.359
46174W        W14647   2.291   2.346  11.109
46175W        W14648  11.710  22.659  11.605
46176W        W14649  13.222  35.002  12.471
46177W        W14650  16.239   7.381   3.262
46178W        W14651  41.354  43.005   9.974
46179W        W14652  43.371  13.259  12.510
46180W        W14653   5.264  21.179  12.387
46181W        W14654  23.578  22.063  12.034
46182W        W14655  41.382  21.694   2.333
46183W        W14656   4.819  41.925   2.270
46184W        W14657  25.987  27.015   0.282
46185W        W14658  30.016   3.440   3.710
46186W        W14659  43.354   3.454  13.518
46187W        W14660  44.879  27.969  14.460
46188W        W14661  22.669   3.816  13.033
46189W        W14662  14.299   0.379  14.917
46190W        W14663  23.122  15.180  14.846
46191W        W14664   0.809  26.074   2.875
46192W        W14665  34.910  26.114  12.471
46193W        W14666  24.001  21.660   1.249
46194W        W14667  35.365  20.113   2.727
46195W        W14668  18.209  10.341   2.417
46196W        W14669  14.830  18.765   3.230
46197W        W14670  38.913  23.666  11.030
46198W        W14671  26.006  22.565  11.084
46199W        W14672  27.001   3.454  11.858
46200W        W14673  31.426  36.399  13.890
46201W        W14674   4.921   6.889   5.121
46202W        W14675  28.526   9.181   0.247
46203W        W14676  22.737   8.679   4.199
46204W        W14677  29.592  14.770  13.332
46205W        W14678   9.363  42.514  11.013
46206W        W14679   3.787  27.043  10.985
46207W        W14680  33.949  44.789   1.754
46208W        W14681  37.867  13.119  13.938
46209W        W14682   0.273  35.956  12.564
46210W        W14683  43.359  28.031  11.408
46211W        W14684  40.908  13.772  14.442
46212W        W14685  26.539  33.381  13.454
46213W        W14686  29.024  35.908  14.984
46214W        W14687   3.790  10.672  11.408
46215W        W14688  16.803   6.677  10.936
46216W        W14689   4.405  43.949  14.819
46217W        W14690  42.974  21.246   5.229
46218W        W14691  28.651   4.222  11.575
46219W        W14692   0.969   3.386  12.392
46220W        W14693   6.874  14.306  11.997
46221W        W14694  18.547   5.383   2.190
46222W        W14695  21.116   5.771  14.800
46223W        W14696  41.436  25.556   3.305
46224W        W14697  31.406  14.240   3.381
46225W        W14698   9.321  30.918   0.351
46226W        W14699  24.600  40.460   0.353
46227W        W14700  17.225  36.957  13.830
46228W        W14701  35.060  27.965   1.897
46229W        W14702   4.814  26.696   4.161
46230W        W14703  41.862  26.537   2.381
46231W        W14704  34.922   5.387  14.295
46232W        W14705   6.331  24.690   1.900
46233W        W14706   0.818  29.578  14.870
46234W        W14707  20.728  38.532  13.341
46235W        W14708  32.961  15.204   0.260
46236W        W14709   8.776  12.315   0.262
46237W        W14710   6.718  34.572   3.715
46238W        W14711  34.982  10.644  14.282
46239W        W14712   1.746   2.767   2.229
46240W        W14713  21.128  32.620  11.462
46241W        W14714  24.658  29.431  13.058
46242W        W14715  12.717  29.598  12.839
46243W        W14716  19.541   8.351  14.780
46244W        W14717  33.429  37.912   2.744
46245W        W14718  13.222  19.568  11.461
46246W        W14719  43.487   7.893  11.122
46247W        W14720  44.395   5.217   0.794
46248W        W14721  28.679   7.320  14.389
46249W        W14722  13.105   0.850   0.891
46250W        W14723  10.675  37.392  12.931
46251W        W14724  27.558  10.651  13.950
46252W        W14725  43.481  11.303  10.932
46253W        W14726  41.366  25.607   1.799
46254W        W14727  12.671  24.664  10.484
46255W        W14728  23.503   3.802  14.496
46256W        W14729   3.867  34.455   1.243
46257W        W14730  17.161   6.737  14.758
46258W        W14731  43.488   6.230  13.432
46259W        W14732  39.924  39.873   3.854
46260W        W14733  44.914  16.211   1.360
46261W        W14734  31.154   4.388  11.904
46262W        W14735  16.646   2.421   4.226
46263W        W14736  44.981   2.232   0.403
46264W        W14737   9.672  16.682  10.538
46265W        W14738   1.898   3.328   4.123
46266W        W14739   6.910  23.664  11.055
46267W        W14740  27.997   7.300  11.857
46268W        W14741  28.977   1.260  14.870
46269W        W14742  24.005  17.628  13.448
46270W        W14743  33.471   7.769  11.449
46271W        W14744   9.782  24.550   2.862
46272W        W14745  27.151  19.771   2.239
46273W        W14746  30.979  42.493   1.418
46274W        W14747  33.914  14.314   1.714
46275W        W14748   8.887  36.449   2.349
46276W        W14749   3.924  25.509   4.300
46277W        W14750   2.395  34.069  14.439
46278W        W14751  34.570  22.238   1.399
46279W        W14752  28.471  43.404  10.630
46280W        W14753  15.735  28.127   3.345
46281W        W14754  11.720  44.968   2.804
46282W        W14755  16.270   0.809  14.514
46283W        W14756  30.094  38.863   3.752
46284W        W14757  34.528  32.416  12.823
46285W        W14758  29.088  40.464   1.898
46286W        W14759  38.464  33.625   3.286
46287W        W14760  28.110  37.368   5.223
46288W        W14761  34.506  17.768  12.083
46289W        W14762  22.737  43.992   4.183
46290W        W14763  16.789  17.164  10.484
46291W        W14764  33.583  35.550  11.979
46292W        W14765  10.317  25.515   5.253
46293W        W14766  15.616   8.879   2.348
46294W        W14767  27.999  20.612   4.252
46295W        W14768  19.535  30.929   0.927
46296W        W14769   4.332   4.390  13.323
46297W        W14770  16.177  30.488   5.316
46298W        W14771  35.390  27.472   4.332
46299W        W14772  37.080  33.465   3.850
46300W        W14773  21.557   1.435   4.648
46301W        W14774  36.952  35.417  11.084
46302W        W14775  34.931  20.714  11.605
46303W        W14776  39.351  15.786  14.341
46304W        W14777  34.077  41.434   3.349
46305W        W14778  40.829  42.963  13.349
46306W        W14779  20.660   6.373   0.763
46307W        W14780  15.643   7.399  10.114
46308W        W14781  15.688  19.249   3.360
46309W        W14782  32.398  41.407  10.089
46310W        W14783  15.162  18.179  13.358
46311W        W14784  13.658  38.901   5.318
46312W        W14785  23.019  41.839   0.381
46313W        W14786  12.180  44.451   2.254
46314W        W14787  37.961   1.480   4.247
46315W        W14788  25.576  26.507  13.817
46316W        W14789   6.742  20.580  14.311
46317W        W14790   7.898  14.180   1.451
46318W        W14791  16.257  12.614  11.039
46319W        W14792  26.083  39.460  11.400
46320W        W14793   5.822  12.243  12.831
46321W        W14794  22.129  34.883  13.371
46322W        W14795  20.075  26.988  12.550
46323W        W14796  13.319   5.709  12.342
46324W        W14797  18.561   7.268  14.953
46325W        W14798   6.189  40.831  10.550
46326W        W14799  39.528  27.007   3.341
46327W        W14800  27.080  28.115   4.342
46328W        W14801  13.214  44.408   4.277
46329W        W14802   2.343  15.198   2.257
46330W        W14803  35.435  17.577   1.238
46331W        W14804  41.991  22.130  13.328
46332W        W14805  27.130  33.059   4.773
46333W        W14806  43.933  21.086   1.247
46334W        W14807  43.462   9.160   0.462
46335W        W14808  26.463  35.580  11.961
46336W        W14809  21.033  21.557  13.031
46337W        W14810  39.408   8.886   3.771
46338W        W14811  15.581   0.296   0.923
46339W        W14812  15.222   8.171   2.378
46340W        W14813  36.878  36.997   4.829
46341W        W14814   2.885  16.750   1.381
46342W        W14815  20.084  30.984   3.675
46343W        W14816  19.147  31.062  14.862
46344W        W14817  11.302  37.430   2.246
46345W        W14818   8.815  33.539  14.306
46346W        W14819  27.097  17.265   3.643
46347W        W14820  33.928  25.560  10.517
46348W        W14821  14.307  20.750  12.456
46349W        W14822  29.658  17.621  10.530
46350W        W14823  43.994   6.350   1.884
46351W        W14824  39.008  17.788  14.808
46352W        W14825  44.491   3.415  11.927
46353W        W14826  24.173  26.664  14.512
46354W        W14827  17.562   6.862  12.472
46355W        W14828  41.396  16.719   4.306
46356W        W14829  23.506  20.172  10.408
46357W        W14830  25.992  24.023   0.773
46358W        W14831  20.065  12.310   0.399
46359W        W14832  39.513  18.595   3.656
46360W        W14833  29.593  26.199   0.903
46361W        W14834  12.290   1.894  13.827
46362W        W14835  17.272   5.726  11.058
46363W        W14836  40.879   5.332  11.056
46364W        W14837  39.831  42.297  14.031
46365W        W14838  26.649  44.289   4.174
46366W        W14839  32.545  23.498   0.752
46367W        W14840  15.657  14.180  14.295
46368W        W14841  26.172  41.454   3.332
46369W        W14842  32.090   9.873  13.440
46370W        W14843  39.521  43.863   1.342
46371W        W14844  21.234  27.086   5.689
46372W        W14845  41.859  17.688  12.987
46373W        W14846  32.519  38.496   4.119
46374W        W14847  12.196   6.753   0.735
46375W        W14848  15.744  42.947   3.341
46376W        W14849  36.972  42.410  12.370
46377W        W14850  33.926  12.696   0.327
46378W        W14851   4.422   4.213   2.735
46379W        W14852  26.627  11.140   2.349
46380W        W14853   1.826   7.698   5.158
46381W        W14854  32.962   2.335   2.840
46382W        W14855  36.354  21.081   3.692
46383W        W14856  13.128   6.232   3.816
46384W        W14857  30.544  24.034  13.989
46385W        W14858  20.254  24.137   2.726
46386W        W14859  29.452   5.831  14.965
46387W        W14860  24.565   6.295  11.477
46388W        W14861  16.603  14.611  12.497
46389W        W14862  20.646   5.850  11.968
46390W        W14863  27.969   7.235  14.804
46391W        W14864   7.333  34.523   4.329
46392W        W14865  22.172  20.671  11.028
46393W        W14866  11.833  18.232   1.366
46394W        W14867  37.972  22.504   1.740
46395W        W14868  24.502  19.095   4.233
46396W        W14869  10.309  13.270   0.290
46397W        W14870  18.710  31.566   2.792
46398W        W14871   1.267  39.964  14.319
46399W        W14872  25.016  37.574  11.917
46400W        W14873  35.098  18.124   2.234
46401W        W14874  11.845   3.327   3.701
46402W        W14875   2.797  24.627  13.041
46403W        W14876  39.402  32.569  13.312
46404W        W14877   4.351   6.850   3.215
46405W        W14878  40.519  28.471  11.511
46406W        W14879   5.884  16.585   5.182
46407W        W14880   2.880   2.888  11.977
46408W        W14881  29.091   5.873  10.975
46409W        W14882  43.930  25.581  12.839
46410W        W14883  24.064  26.056   3.734
46411W        W14884   1.894  16.568  14.442
46412W        W14885  24.504  28.550   2.865
46413W        W14886  19.766  11.158   3.351
46414W        W14887  42.028  21.141   3.257
46415W        W14888  19.145   1.894   2.417
46416W        W14889  28.013  37.893  11.098
46417W        W14890  16.709   7.693  14.809
46418W        W14891  30.424   1.261   1.780
46419W        W14892   7.759  19.578   3.197
46420W        W14893  16.228  44.812  12.365
46421W        W14894  39.982  11.224   2.848
46422W        W14895  23.104  22.505  14.358
46423W        W14896   5.851  29.027   4.180
46424W        W14897   1.812  12.275  11.538
46425W        W14898  36.990  15.787  14.941
46426W        W14899   0.925  31.022   1.315
46427W        W14900  44.832   4.383  14.357
46428W        W14901  23.148   4.332   0.321
46429W        W14902  28.996  36.589  14.492
46430W        W14903  14.259   2.404  10.546
46431W        W14904  30.055  18.578  14.402
46432W        W14905   3.322  39.423   4.799
46433W        W14906  12.779  17.212  13.988
46434W        W14907   5.413   7.863   4.125
46435W        W14908   8.702  22.659   1.310
46436W        W14909  15.145  35.409  11.550
46437W        W14910  11.152  44.395  12.000
46438W        W14911   7.377  35.985   1.231
46439W        W14912  43.359  43.808  14.909
46440W        W14913  18.285   7.239  11.099
46441W        W14914  36.487  10.204  10.110
46442W        W14915  26.092  41.353   3.657
46443W        W14916  17.567  41.832  11.984
46444W        W14917  37.488  18.728  14.810
46445W        W14918   5.281  11.289  13.054
46446W        W14919   2.470  32.907   3.655
46447W        W14920  24.604   6.328  13.506
46448W        W14921  43.770  10.686  14.304
46449W        W14922  38.892  28.663  11.605
46450W        W14923  38.394  25.468  13.016
46451W        W14924  42.281  13.719   4.143
46452W        W14925  13.625  27.606  13.472
46453W        W14926   8.353   3.366   2.307
46454W        W14927  41.825  20.212  14.919
46455W        W14928  42.885  43.846   3.665
46456W        W14929  27.995  41.001  10.448
46457W        W14930  22.743  12.653   9.560
46458W        W14931  21.193  42.020  11.859
46459W        W14932  25.655  37.380   5.121
46460W        W14933  38.969  18.692   3.255
46461W        W14934  22.568  25.494   2.402
46462W        W14935  36.088  15.692  10.966
46463W        W14936   0.878  24.133   3.353
46464W        W14937  18.745  16.581   2.225
46465W        W14938  27.048   3.288  10.944
46466W        W14939  11.751  30.428  12.084
46467W        W14940  41.927  13.633   3.679
46468W        W14941  22.568   3.246  11.464
46469W        W14942  26.962  14.293  13.384
46470W        W14943  20.206  21.024  12.018
46471W        W14944   3.281  16.666  14.819
46472W        W14945   5.285  35.411   3.264
46473W        W14946  18.096  26.093   4.820
46474W        W14947   1.972  30.421  10.439
46475W        W14948  36.398  17.645   1.366
46476W        W14949   7.340  22.232   2.313
46477W        W14950   0.413  36.413  14.415
46478W        W14951  17.259  42.898   0.771
46479W        W14952   6.876  34.541   4.289
46480W        W14953  34.888   9.387   2.230
46481W        W14954   4.447  37.859   0.729
46482W        W14955  38.036   2.360   1.356
46483W        W14956  18.613  15.178  12.421
46484W        W14957  43.765  27.980  12.875
46485W        W14958  10.634  26.700   2.333
46486W        W14959  37.043  35.894  10.544
46487W        W14960   8.343   9.888   2.729
46488W        W14961  10.305  36.523  14.924
46489W        W14962  43.869  44.913  14.972
46490W        W14963  36.034  16.143  14.986
46491W        W14964  42.327  41.524  10.562
46492W        W14965   8.777   5.235  14.312
46493W        W14966  13.788  44.335   0.451
46494W        W14967  39.002  16.225   3.225
46495W        W14968   0.841  14.602   2.702
46496W        W14969  41.491   7.724   2.294
46497W        W14970  38.943  14.768  12.866
46498W        W14971  35.522  16.256   4.267
46499W        W14972  44.978   4.825   1.831
46500W        W14973   1.814  34.992   4.217
46501W        W14974  30.051   9.803  12.402
46502W        W14975  16.234  20.093   0.299
46503W        W14976  23.497  12.854   1.225
46504W        W14977   7.395  41.455   0.759
46505W        W14978  16.309  13.659  14.283
46506W        W14979  14.127  35.079  14.471
46507W        W14980  41.990  16.653   1.220
46508W        W14981  43.498  40.035   0.276
46509W        W14982  34.487   5.695   0.280
46510W        W14983  12.705  42.327  12.979
46511W        W14984  15.206  20.150  11.067
46512W        W14985  21.529  36.586   1.350
46513W        W14986  21.104  19.705   4.636
46514W        W14987   0.335  34.590  10.961
46515W        W14988  27.040  44.756   2.765
46516W        W14989  25.070  16.295  13.054
46517W        W14990  35.108  20.671   1.773
46518W        W14991  10.298  16.800   1.321
46519W        W14992  23.709  11.260   1.288
46520W        W14993  10.354  26.584  13.874
46521W        W14994  41.484  27.043   2.258
46522W        W14995  42.284  31.407   0.797
46523W        W14996  20.627  17.240   4.832
46524W        W14997  33.918  32.010  12.071
46525W        W14998  25.536  16.610   4.635
46526W        W14999  20.206  19.068   2.788
46527W        W15000  25.631  10.241   3.152
46528W        W15001  38.955  12.690  14.862
46529W        W15002  36.086  17.770  14.398
46530W        W15003  38.852  17.593   3.351
46531W        W15004  10.849  19.097   0.726
46532W        W15005  11.808  22.108  14.009
46533W        W15006  32.411   8.223  11.517
46534W        W15007   1.902  10.261  11.931
46535W        W15008  15.094  14.790   4.153
46536W        W15009  13.177  24.517  10.996
46537W        W15010  35.374  23.635  13.897
46538W        W15011   0.920  26.063   4.702
46539W        W15012  34.550   8.168  10.959
46540W        W15013  29.993  35.966  12.990
46541W        W15014  42.831  23.114   1.914
46542W        W15015   3.365  24.084   4.605
46543W        W15016   3.358  10.785   2.394
46544W        W15017  38.426   9.208   4.258
46545W        W15018   8.179   6.244   4.189
46546W        W15019  11.763  36.544   4.675
46547W        W15020   0.274  39.449   4.808
46548W        W15021  16.206  37.910  10.603
46549W        W15022  16.649  37.479  13.406
46550W        W15023  29.473  34.088  14.009
46551W        W15024   6.683  35.852   0.844
46552W        W15025  41.397  29.042  12.541
46553W        W15026  40.408  21.719  11.887
46554W        W15027  36.959  38.475   1.402
46555W        W15028  35.951   1.879  12.416
46556W        W15029   9.316   9.710   3.709
46557W        W15030   9.365  18.052  14.450
46558W        W15031   2.466  27.653   3.228
46559W        W15032   5.395  40.014   3.697
46560W        W15033   2.399  28.161   3.180
46561W        W15034  35.035  12.620   0.964
46562W        W15035   1.855  24.124   4.745
46563W        W15036  24.993  29.449  13.519
46564W        W15037  40.838  39.816  14.924
46565W        W15038  30.965   9.284   0.961
46566W        W15039  30.514  13.155  11.987
46567W        W15040  18.218   1.794   4.331
46568W        W15041  42.459   9.293   0.812
46569W        W15042  24.549  39.327  12.482
46570W        W15043  36.098  31.966  12.476
46571W        W15044   6.687  33.997  11.062
46572W        W15045   1.309  31.106   2.677
46573W        W15046  10.232  36.437  11.460
46574W        W15047  44.853  14.788   3.273
46575W        W15048  13.824  36.483  12.070
46576W        W15049  16.201   4.765  13.972
46577W        W15050  27.189   8.312  11.506
46578W        W15051  28.470  30.074  13.535
46579W        W15052  43.367   7.316  14.303
46580W        W15053   8.376  43.874   2.767
46581W        W15054  29.660  28.968   4.220
46582W        W15055  19.179  17.707  14.936
46583W        W15056  29.582  32.976   2.776
46584W        W15057  23.588  36.407   1.302
46585W        W15058   9.675  24.138   2.865
46586W        W15059  25.149   0.924   3.252
46587W        W15060  27.116  31.928   2.744
46588W        W15061   3.911  35.872   0.317
46589W        W15062   0.886  25.514  10.633
46590W        W15063  37.339   4.902  11.864
46591W        W15064  38.554   1.353  11.993
46592W        W15065  41.373  23.520   4.171
46593W        W15066  19.082  10.267  10.570
46594W        W15067  29.624  36.515   4.249
46595W        W15068   5.437  37.438   2.280
46596W        W15069  18.251  39.056  13.798
46597W        W15070  19.654  42.827   5.149
46598W        W15071  10.377  10.333   2.192
46599W        W15072   0.902  13.317   5.303
46600W        W15073  12.738   6.867  14.759
46601W        W15074  44.808  21.527  13.356
46602W        W15075  39.927  44.341   4.624
46603W        W15076   6.361  11.655   4.692
46604W        W15077   7.289  14.313  11.055
46605W        W15078  21.184  38.389   4.651
46606W        W15079  22.075  20.109   3.375
46607W        W15080  12.204  18.123  14.304
46608W        W15081  42.967   9.772  12.431
46609W        W15082  17.252  18.103   3.192
46610W        W15083  43.898  38.861  11.858
46611W        W15084  43.807  21.061   0.269
46612W        W15085   7.851  37.034   1.274
46613W        W15086  15.308   0.336   0.850
46614W        W15087  36.452  12.843   3.842
46615W        W15088  39.415  33.068   3.792
46616W        W15089   5.383  10.694  13.328
46617W        W15090  39.331   8.815  13.888
46618W        W15091   2.374  28.935  11.086
46619W        W15092  23.017   1.813  10.420
46620W        W15093  44.795  25.143   4.211
46621W        W15094   9.387  35.514   4.269
46622W        W15095   5.795  15.646   5.145
46623W        W15096  14.183  10.206  14.874
46624W        W15097  40.968  22.580   4.206
46625W        W15098  43.805  30.533   2.851
46626W        W15099  41.844  10.326   2.204
46627W        W15100   2.777  31.077  13.415
46628W        W15101  31.988   7.218   4.309
46629W        W15102  22.193  25.675   1.843
46630W        W15103  19.202  21.188   2.902
46631W        W15104  14.255   5.429  13.356
46632W        W15105   1.412  14.272   0.789
46633W        W15106   7.816  40.312  11.540
46634W        W15107  41.402  24.083  10.594
46635W        W15108   4.752  21.694  10.128
46636W        W15109  17.200  40.518  12.095
46637W        W15110  12.626  44.416   2.272
46638W        W15111  17.299   5.301   0.288
46639W        W15112  14.773  13.675  11.084
46640W        W15113   1.474  23.669  13.387
46641W        W15114  37.927  10.776   4.344
46642W        W15115  29.481  27.191   1.221
46643W        W15116   6.186   9.881   1.358
46644W        W15117   1.955  28.545   0.277
46645W        W15118  11.156   7.745  14.832
46646W        W15119  10.650  27.012  10.407
46647W        W15120  17.643  14.810   2.316
46648W        W15121  25.132  12.247   0.481
46649W        W15122   5.402   7.401  12.065
46650W        W15123  33.395   1.450   4.756
46651W        W15124   3.933  31.953  11.534
46652W        W15125  33.972   2.949   4.131
46653W        W15126  41.403  23.993  12.962
46654W        W15127  41.791  13.294  11.494
46655W        W15128  22.145  38.915  13.490
46656W        W15129  33.626  13.146   1.873
46657W        W15130   9.816  41.501  14.874
46658W        W15131  15.710  42.339   1.232
46659W        W15132  38.996  13.188  13.475
46660W        W15133  30.158  27.683  10.591
46661W        W15134  22.090  36.042   4.728
46662W        W15135  26.141  16.129   4.302
46663W        W15136   9.778  21.131   1.451
46664W        W15137  22.109  24.500  14.939
46665W        W15138  38.396  37.846   3.718
46666W        W15139  33.477  20.686  12.843
46667W        W15140   3.220  36.370   4.331
46668W        W15141   9.677  40.381   3.755
46669W        W15142  42.429  41.020  12.460
46670W        W15143  24.616   0.280  10.932
46671W        W15144   3.818  30.164  11.517
46672W        W15145  29.920  39.045   4.290
46673W        W15146   3.805  44.321  12.977
46674W        W15147   2.962  21.200  13.995
46675W        W15148  11.697  20.705   1.236
46676W        W15149   2.853  30.063   4.266
46677W        W15150   6.272  38.359   3.168
46678W        W15151  37.988   8.279  13.822
46679W        W15152  37.942  13.756  12.010
46680W        W15153  13.201   1.790   2.272
46681W        W15154   4.890  21.745   1.797
46682W        W15155  22.643  24.115  13.986
46683W        W15156  32.462  21.021   2.825
46684W        W15157  25.978   5.299   2.198
46685W        W15158  27.182  42.891  12.085
46686W        W15159  34.016  10.707  13.511
46687W        W15160  30.969  20.683   4.159
46688W        W15161   7.323  17.175   2.744
46689W        W15162   9.314  44.478   4.825
46690W        W15163   9.369  15.726   1.921
46691W        W15164  33.481  22.176   1.900
46692W        W15165  10.799  23.525  11.933
46693W        W15166  24.644  33.904   4.766
46694W        W15167   8.755   6.182  12.047
46695W        W15168   7.821  23.668  13.536
46696W        W15169  39.941  20.094   3.847
46697W        W15170  36.433  35.872   3.325
46698W        W15171  37.909  38.950   2.346
46699W        W15172  25.974   5.364   0.475
46700W        W15173   9.679  37.907  11.866
46701W        W15174  31.463  31.456   3.729
46702W        W15175  20.105  13.744   3.765
46703W        W15176  36.884  27.942  13.361
46704W        W15177  20.106  42.791  14.844
46705W        W15178  20.031  40.979  14.981
46706W        W15179  13.144  34.387  11.548
46707W        W15180   5.693  19.166   1.924
46708W        W15181   6.747   6.282  14.844
46709W        W15182  42.511  19.168  11.409
46710W        W15183  28.063   2.333  11.439
46711W        W15184  38.920  43.848  11.886
46712W        W15185  21.208  19.619   0.890
46713W        W15186  12.631  22.539  13.023
46714W        W15187  34.607   0.842   3.320
46715W        W15188  15.609  12.771  11.113
46716W        W15189  26.014   6.806   3.255
46717W        W15190  27.449  39.981  11.062
46718W        W15191  37.566   1.296   0.737
46719W        W15192  12.672  44.993  11.446
46720W        W15193  25.964   3.363  13.472
46721W        W15194  33.620  22.620   5.133
46722W        W15195  13.709   0.768   1.337
46723W        W15196  29.459   9.390   0.900
46724W        W15197  17.251  11.216  14.321
46725W        W15198  14.765   1.284   0.384
46726W        W15199  23.701  27.534  12.015
46727W        W15200  36.368  40.945   2.333
46728W        W15201   8.786  32.900   5.279
46729W        W15202  26.499  27.181  10.908
46730W        W15203  12.296   3.789  11.089
46731W        W15204  16.109   7.822  13.921
46732W        W15205  19.690  12.188  14.834
46733W        W15206  14.623  28.536  11.584
46734W        W15207  29.967  12.755  14.989
46735W        W15208  28.970  29.024   4.639
46736W        W15209  12.310  42.003  11.394
46737W        W15210  14.274   2.408   0.300
46738W        W15211   9.682  26.068   5.626
46739W        W15212  13.291  23.731  14.885
46740W        W15213  26.174  15.320   4.698
46741W        W15214   1.332  19.131  13.026
46742W        W15215  44.978  31.477   2.699
46743W        W15216   0.811  13.639  14.935
46744W        W15217  26.609  30.457  12.019
46745W        W15218   0.889  16.267  12.513
46746W        W15219  23.170  42.329  10.632
46747W        W15220  40.948  10.715   2.774
46748W        W15221  36.044   4.900  13.935
46749W        W15222  14.761  20.273   0.925
46750W        W15223   6.217  36.089  11.403
46751W        W15224  40.402  10.295  13.990
46752W        W15225  21.026   0.769  13.029
46753W        W15226  21.622  35.946  12.942
46754W        W15227  39.038  37.368  13.905
46755W        W15228   4.375  13.681   2.286
46756W        W15229  40.520  27.006   3.279
46757W        W15230  30.046  17.219   3.254
46758W        W15231   0.868  36.908  13.519
46759W        W15232  16.629  34.543  13.895
46760W        W15233  10.262  16.803  11.926
46761W        W15234  19.586  25.697   4.129
46762W        W15235   0.947  10.649   0.738
46763W        W15236  38.962   5.734  11.922
46764W        W15237  11.234  24.532   5.789
46765W        W15238  25.040  34.910   1.379
46766W        W15239  28.452  20.063  14.349
46767W        W15240  23.564  11.268  11.400
46768W        W15241   6.770  18.267  11.572
46769W        W15242  34.576   5.200   4.273
46770W        W15243   2.846  41.450  12.501
46771W        W15244  14.291  17.792   4.610
46772W        W15245   6.694  26.625  10.576
46773W        W15246  28.112  21.605   0.332
46774W        W15247   0.947   8.257   2.808
46775W        W15248  27.941  27.468   0.275
46776W        W15249  26.069  20.659   0.263
46777W        W15250  13.298  36.894   3.801
46778W        W15251  25.625  16.193   1.412
46779W        W15252  20.570  33.936   1.300
46780W        W15253  38.330  34.025   3.363
46781W        W15254  27.170  44.309   2.684
46782W        W15255  43.765   1.927   1.220
46783W        W15256  39.830  42.804   3.736
46784W        W15257  25.531  43.419  10.041
46785W        W15258   3.908  18.222   2.238
46786W        W15259  43.997  10.256  13.033
46787W        W15260  40.457  39.895   2.274
46788W        W15261   4.870  21.122   5.161
46789W        W15262   2.766   7.367  14.765
46790W        W15263  10.269   4.733   0.762
46791W        W15264  34.893  27.120   0.453
46792W        W15265  35.064   7.707   4.162
46793W        W15266   7.402   9.821   2.268
46794W        W15267   9.850   9.652   3.246
46795W        W15268  43.426   1.249   0.779
46796W        W15269  20.585  41.384   1.386
46797W        W15270   3.714   6.351  11.463
46798W        W15271  33.025  21.644   4.796
46799W        W15272  12.835  26.180   2.812
46800W        W15273  26.046  44.816   4.291
46801W        W15274  33.084  25.543   0.467
46802W        W15275  11.790   8.328   1.935
46803W        W15276   4.877  34.016  11.371
46804W        W15277   6.334  43.377  11.539
46805W        W15278  32.440   9.271   2.693
46806W        W15279  42.926  25.085  13.048
46807W        W15280  12.355  28.518  11.929
46808W        W15281  40.547   7.323   2.787
46809W        W15282  26.199  12.268   0.761
46810W        W15283  22.638   3.718  14.030
46811W        W15284  14.793   6.920  12.407
46812W        W15285  16.080  10.669  11.432
46813W        W15286  37.055  41.424  14.857
46814W        W15287  42.843  19.213   1.274
46815W        W15288  15.171  25.637   3.269
46816W        W15289  28.588   2.856   0.266
46817W        W15290  23.139  19.603   1.349
46818W        W15291   6.379  26.698  12.544
46819W        W15292   2.879  37.952   0.938
46820W        W15293   5.718  11.256   4.601
46821W        W15294  19.133  38.449  12.373
46822W        W15295  23.573  12.200  11.560
46823W        W15296  15.273  10.798   0.417
46824W        W15297   1.239  16.103   3.371
46825W        W15298   1.309   4.320   2.702
46826W        W15299  40.026  39.422  14.432
46827W        W15300  29.446  33.045  10.407
46828W        W15301  19.699  37.045  12.030
46829W        W15302  27.594  20.167  14.917
46830W        W15303  24.497   1.786   2.348
46831W        W15304  28.083  18.166   0.438
46832W        W15305  18.585  28.670   4.280
46833W        W15306   2.264   5.222   3.721
46834W        W15307  19.665  16.212   4.213
46835W        W15308  37.959  35.461  13.502
46836W        W15309  43.937  14.728   3.151
46837W        W15310   0.461  11.833   4.722
46838W        W15311  36.384   0.275   4.752
46839W        W15312  24.102   4.405   0.940
46840W        W15313  14.105  25.710  13.466
46841W        W15314   8.896   2.278  12.515
46842W        W15315  13.832  35.062  10.529
46843W        W15316  16.296  43.495   3.753
46844W        W15317  17.300  19.180   0.388
46845W        W15318  32.591  10.681  14.853
46846W        W15319  18.156   3.837   0.766
46847W        W15320   6.897  22.537  13.466
46848W        W15321  16.660  12.677  13.974
46849W        W15322  10.703  39.368   4.729
46850W        W15323  38.023  11.738   3.760
46851W        W15324  23.633  29.084  11.957
46852W        W15325  31.152  17.242  14.375
46853W        W15326  16.671  13.227   2.332
46854W        W15327  21.551  38.060  12.856
46855W        W15328  26.576  19.192  13.420
46856W        W15329  37.848  43.909  13.338
46857W        W15330  30.138  12.772  12.403
46858W        W15331  14.327  39.999   0.300
46859W        W15332  26.155  43.501   0.331
46860W        W15333   9.856  13.629   1.777
46861W        W15334  41.926  38.373   2.375
46862W        W15335   1.865  31.075   0.401
46863W        W15336  28.148  29.086  12.466
46864W        W15337  36.895  18.109   4.145
46865W        W15338  42.325  24.554  12.936
46866W        W15339  40.377  41.818   2.802
46867W        W15340  21.524  41.978  13.322
46868W        W15341  29.090  19.109  14.486
46869W        W15342   3.243  35.463  14.365
46870W        W15343  22.251  28.436  14.297
46871W        W15344  24.610  27.940   3.214
46872W        W15345  39.912  27.024   0.928
46873W        W15346  17.220  35.579   1.850
46874W        W15347  34.476  39.859  11.453
46875W        W15348   2.386  28.096  14.768
46876W        W15349  43.497   6.899  14.413
46877W        W15350  37.447  21.663   3.826
46878W        W15351   3.378   0.347   4.640
46879W        W15352  37.494  41.346   4.605
46880W        W15353  12.183  11.294   3.726
46881W        W15354  38.874  37.538  10.983
46882W        W15355  13.281  32.503  11.917
46883W        W15356  19.199  34.875  11.926
46884W        W15357  11.366   6.812   1.418
46885W        W15358  22.664  41.931  12.467
46886W        W15359  27.136   7.192   4.677
46887W        W15360   7.413  27.618  13.472
46888W        W15361  20.056  41.429   0.321
46889W        W15362   2.920  44.460  10.424
46890W        W15363  23.723  30.955   4.770
46891W        W15364  43.480   7.674   1.232
46892W        W15365  36.013  28.519   0.420
46893W        W15366  37.993  44.943  12.578
46894W        W15367  37.337  14.107  10.622
46895W        W15368  17.645  32.440   2.806
46896W        W15369  23.005  44.920  12.878
46897W        W15370   2.855  29.957  10.899
46898W        W15371  25.018   2.769   0.960
46899W        W15372  13.339   7.252   1.787
46900W        W15373  24.032  29.549  11.425
46901W        W15374   8.267  21.563  13.368
46902W        W15375  21.651  43.999   2.249
46903W        W15376  17.210  10.168  10.099
46904W        W15377   7.774  24.179  10.019
46905W        W15378  30.568  14.340   3.674
46906W        W15379   0.920  27.538   3.673
46907W        W15380  44.799  10.344   1.263
46908W        W15381  42.327   0.937  10.566
46909W        W15382  19.622  25.564  10.408
46910W        W15383  40.405  37.945  11.951
46911W        W15384   7.747  23.648   3.221
46912W        W15385  25.169  16.281   2.755
46913W        W15386  30.646  22.504  14.284
46914W        W15387   6.805  44.947  11.047
46915W        W15388   6.212  20.117  14.318
46916W        W15389   5.245   9.713  11.941
46917W        W15390  10.354  33.901   0.284
46918W        W15391   3.327  18.280   2.732
46919W        W15392   5.278  31.902   1.337
46920W        W15393  10.266   9.669  12.973
46921W        W15394  42.993   7.338  10.537
46922W        W15395  20.605  27.045   3.189
46923W        W15396   8.867   1.941   0.729
46924W        W15397  34.525   0.886   1.809
46925W        W15398   3.354  34.106  12.950
46926W        W15399  31.103  30.504  13.443
46927W        W15400  22.552   8.779  12.940
46928W        W15401   3.395  15.639   4.681
46929W        W15402  43.377   3.840  12.989
46930W        W15403  20.116  10.268  11.583
46931W        W15404  40.470  17.652   1.878
46932W        W15405  29.969  28.619   0.480
46933W        W15406  38.827  42.425   3.262
46934W        W15407   3.904   1.331   3.696
46935W        W15408  34.518   0.334   1.240
46936W        W15409  18.749  13.701   0.329
46937W        W15410  15.282  12.821   0.278
46938W        W15411   7.744  37.989  14.768
46939W        W15412  21.204  40.391   4.746
46940W        W15413  40.343  40.311  10.104
46941W        W15414  18.609  29.149   1.281
46942W        W15415  20.255  28.970  10.478
46943W        W15416  10.379  15.641  13.052
46944W        W15417  35.988  22.134   4.256
46945W        W15418  37.546  24.062   3.214
46946W        W15419  32.025  38.383  13.064
46947W        W15420   0.931   6.374   1.325
46948W        W15421  24.991   0.836  11.504
46949W        W15422  13.600   6.834   4.835
46950W        W15423  43.325  34.903   2.678
46951W        W15424  32.564   4.806   0.403
46952W        W15425  32.124   4.940   3.679
46953W        W15426  10.267  33.918  13.434
46954W        W15427  20.195   0.392   1.214
46955W        W15428  18.219  18.067  13.913
46956W        W15429  17.677  12.643  11.867
46957W        W15430   6.781  33.489   3.835
46958W        W15431  42.960  19.738  10.032
46959W        W15432   9.376  15.622  14.386
46960W        W15433  40.855   0.852  13.053
46961W        W15434  17.732  17.670  13.933
46962W        W15435   6.896  41.803  14.864
46963W        W15436  38.371  15.684   3.257
46964W        W15437  36.402   9.766   4.634
46965W        W15438  35.946  41.495  13.540
46966W        W15439  31.059   0.474  10.039
46967W        W15440  28.929   3.441   5.168
46968W        W15441   0.423  19.076   0.420
46969W        W15442  41.313   9.205  11.480
46970W        W15443   8.172  20.641   4.172
46971W        W15444   0.769  35.867  13.803
46972W        W15445   6.413   5.201  14.490
46973W        W15446  19.644   3.433   0.280
46974W        W15447  38.409  36.590   0.449
46975W        W15448  19.696  35.997  14.953
46976W        W15449   0.782  18.689   2.671
46977W        W15450   2.289  37.938   3.343
46978W        W15451   8.211  35.472   2.328
46979W        W15452  11.702  19.536  11.440
46980W        W15453   2.322  31.027  10.573
46981W        W15454   0.425  42.934  11.376
46982W        W15455  40.430  43.516  14.306
46983W        W15456  34.992  14.241   1.233
46984W        W15457  10.209  13.802  13.050
46985W        W15458  21.189  36.902   1.924
46986W        W15459  39.996  18.769  13.329
46987W        W15460  41.879  10.262  13.847
46988W        W15461  31.961   2.469  13.880
46989W        W15462  24.659  23.236   2.742
46990W        W15463  35.563  25.210  13.850
46991W        W15464  10.379  23.205  13.436
46992W        W15465  44.494  11.852  13.501
46993W        W15466  32.490   9.852  10.434
46994W        W15467  14.208  44.926   1.894
46995W        W15468  23.621  33.962   1.309
46996W        W15469  13.718  13.835   4.254
46997W        W15470  21.535  29.990  13.461
46998W        W15471  40.540  42.525   3.337
46999W        W15472  32.426  33.072  11.941
47000W        W15473  27.493   3.851  13.991
47001W        W15474  27.522   8.682  14.768
47002W        W15475  31.100   9.782   3.740
47003W        W15476  36.899   3.302   1.440
47004W        W15477  26.191  33.087   0.360
47005W        W15478  22.012  15.785   3.703
47006W        W15479  29.526  38.046  14.439
47007W        W15480  19.241  33.885  12.962
47008W        W15481  25.047   8.811   5.273
47009W        W15482  41.860  28.653  11.569
47010W        W15483  11.674  26.190  13.462
47011W        W15484   0.898   4.811   0.437
47012W        W15485   0.875  33.963  10.897
47013W        W15486   0.392   5.330  11.860
47014W        W15487   5.319   1.878   2.377
47015W        W15488   7.727  13.284   2.290
47016W        W15489  31.424  15.673  12.475
47017W        W15490  10.164  39.856  13.018
47018W        W15491  25.190  14.637  11.586
47019W        W15492  15.155  33.034   1.332
47020W        W15493  39.479  11.759  13.514
47021W        W15494  33.567  17.700  13.843
47022W        W15495  13.286  10.702   2.234
47023W        W15496   9.760  39.810   2.679
47024W        W15497  42.970   6.386  14.929
47025W        W15498  39.896  30.631   1.399
47026W        W15499  19.630   2.313  12.479
47027W        W15500  29.070  30.521  11.552
47028W        W15501  17.603  18.147   0.313
47029W        W15502  29.159  20.058   0.815
47030W        W15503  11.673  26.165  14.376
47031W        W15504   8.805  37.444  11.392
47032W        W15505  16.110  26.040   1.432
47033W        W15506  33.933  19.621   0.431
47034W        W15507   0.443  17.701   2.681
47035W        W15508   8.268  36.475  11.949
47036W        W15509  12.274  42.964  13.319
47037W        W15510  30.988  32.941   3.305
47038W        W15511  18.605   4.799   0.799
47039W        W15512  20.064  38.559   0.893
47040W        W15513  32.516  25.987   2.690
47041W        W15514  22.635  27.604  11.502
47042W        W15515  26.047   0.747  12.842
47043W        W15516  22.582  21.121   3.267
47044W        W15517   5.761  40.316   0.250
47045W        W15518  34.578  41.347  14.381
47046W        W15519   6.187  41.026  11.884
47047W        W15520  31.947  30.610   1.920
47048W        W15521  36.411  18.558  14.882
47049W        W15522  39.982  34.943   1.874
47050W        W15523  41.906   7.306   2.880
47051W        W15524  26.647  12.855  13.419
47052W        W15525  12.739  40.051  11.556
47053W        W15526  35.871   9.273   3.151
47054W        W15527  32.013  33.983  11.600
47055W        W15528   4.828   1.977   3.283
47056W        W15529  19.043  18.760  11.901
47057W        W15530  43.470  12.192   1.339
47058W        W15531  42.376   7.385   1.360
47059W        W15532  28.611  37.392  13.932
47060W        W15533  32.622  14.219   0.771
47061W        W15534  22.184   7.810   2.378
47062W        W15535  22.109  25.075  10.571
47063W        W15536   7.293  16.167  13.468
47064W        W15537  37.837  11.827  13.049
47065W        W15538  36.375  38.054   0.925
47066W        W15539  17.238  21.091   4.797
47067W        W15540  24.979  36.512  11.006
47068W        W15541  43.911   5.870  12.435
47069W        W15542  42.345   2.869  11.512
47070W        W15543  40.869  26.074   4.654
47071W        W15544  18.709  11.749  10.553
47072W        W15545   4.436   7.911  13.007
47073W        W15546  33.942  13.708  14.889
47074W        W15547  36.451   0.380  13.473
47075W        W15548  35.562  44.792  13.008
47076W        W15549  33.555  36.953   3.699
47077W        W15550  24.178  11.232   0.750
47078W        W15551  41.482  39.999  10.972
47079W        W15552   8.748   3.441  14.857
47080W        W15553  16.625   9.741   2.369
47081W        W15554  27.965  25.687   1.870
47082W        W15555  37.924  15.759   2.279
47083W        W15556  22.581  25.047   4.661
47084W        W15557  12.337  14.785  13.946
47085W        W15558  37.417  34.483  14.939
47086W        W15559  38.068  38.465   1.426
47087W        W15560  37.518   8.252  12.912
47088W        W15561  27.691  21.191   2.817
47089W        W15562  32.113  44.951   3.273
47090W        W15563  10.859  27.105  12.543
47091W        W15564  44.338   7.358   0.410
47092W        W15565  28.929  27.048   3.812
47093W        W15566  13.776  43.360  12.834
47094W        W15567  29.455   7.841  11.542
47095W        W15568   7.332   6.419   1.732
47096W        W15569  39.883  12.830   1.802
47097W        W15570  36.016   0.945   4.281
47098W        W15571  28.064  21.594   4.328
47099W        W15572  27.090  30.099  13.379
47100W        W15573  25.484  39.942   1.412
47101W        W15574  33.533  16.214  13.807
47102W        W15575  38.821   5.364   3.778
47103W        W15576  19.541  19.676   1.214
47104W        W15577   6.381  24.629  10.026
47105W        W15578  19.580  23.634  13.953
47106W        W15579   8.762  26.963  11.930
47107W        W15580  19.076  15.803  13.054
47108W        W15581  27.165  35.403   3.748
47109W        W15582  31.563  14.805  10.455
47110W        W15583  16.203  38.041   0.369
47111W        W15584  17.662   7.231   1.418
47112W        W15585  20.249   5.907   3.739
47113W        W15586  16.782  35.404   3.770
47114W        W15587  20.102  40.471   3.152
47115W        W15588   0.444  22.175   2.348
47116W        W15589  22.151  31.564  13.927
47117W        W15590  25.467  31.501   2.415
47118W        W15591  23.166  12.215   5.754
47119W        W15592  32.984   6.784   4.310
47120W        W15593  19.115  24.983  13.322
47121W        W15594   0.892  44.778  11.374
47122W        W15595  37.013  37.450   3.795
47123W        W15596  19.089  24.483  12.028
47124W        W15597  38.979  15.215   4.179
47125W        W15598   4.726  28.673   1.224
47126W        W15599   4.291   9.262  12.471
47127W        W15600  30.107  12.722  13.368
47128W        W15601  44.343   7.247  12.490
47129W        W15602  40.806  32.912  13.792
47130W        W15603  44.985   5.884  13.040
47131W        W15604  11.211  44.780  13.319
47132W        W15605  12.163  21.664   0.448
47133W        W15606  22.695   3.893  14.349
47134W        W15607  26.107  25.677  14.857
47135W        W15608   8.859  14.238  10.894
47136W        W15609  19.632   3.382   4.167
47137W        W15610  43.910  33.458  14.354
47138W        W15611   7.244  41.333   2.193
47139W        W15612   8.745  10.846  13.416
47140W        W15613   4.721  12.236  14.431
47141W        W15614  37.078   2.831   4.640
47142W        W15615  39.458  21.567  11.947
47143W        W15616  23.045   0.984   1.844
47144W        W15617  18.172  18.159  11.382
47145W        W15618  10.693  28.066   3.780
47146W        W15619  26.681  18.583   0.464
47147W        W15620   4.323   5.737   4.781
47148W        W15621  35.963  39.507  11.918
47149W        W15622  26.120  43.777   0.727
47150W        W15623  13.325  39.014  10.010
47151W        W15624   5.927  33.122   4.604
47152W        W15625  20.114  41.889  13.420
47153W        W15626  13.279   8.292   4.319
47154W        W15627  13.235  40.443   2.372
47155W        W15628  39.972  10.284  11.466
47156W        W15629  17.120  10.866  13.410
47157W        W15630  24.220  36.574   0.804
47158W        W15631  26.100   5.792  13.445
47159W        W15632   1.466  33.472   0.476
47160W        W15633  25.680  23.656  12.995
47161W        W15634   6.907  38.956  12.368
47162W        W15635  44.922  13.134  13.793
47163W        W15636  11.654  36.511  13.003
47164W        W15637  18.189  29.965   0.775
47165W        W15638  41.352  11.373  12.086
47166W        W15639  22.195  35.000   0.268
47167W        W15640   2.857  36.578   0.275
47168W        W15641  16.769   8.230  13.485
47169W        W15642  15.083  15.148   2.384
47170W        W15643  31.129  27.177   3.171
47171W        W15644  31.434  31.103   1.896
47172W        W15645  33.011  14.154   4.675
47173W        W15646  24.629  43.018   2.234
47174W        W15647   2.333   0.385   3.848
47175W        W15648   9.794  19.543  13.884
47176W        W15649  26.204  25.091   0.900
47177W        W15650  23.600  38.040   2.365
47178W        W15651   2.262  36.524  11.117
47179W        W15652  28.146  42.867  10.484
47180W        W15653  31.955   6.783   4.732
47181W        W15654  14.309  20.172   0.867
47182W        W15655   6.249   6.779   1.398
47183W        W15656  35.571  33.097   2.832
47184W        W15657  41.297  26.136   1.865
47185W        W15658   5.381   9.694   0.480
47186W        W15659  36.898  31.524  13.979
47187W        W15660  22.150  16.161   0.452
47188W        W15661  41.479  31.517   0.795
47189W        W15662  24.069   5.905  13.548
47190W        W15663   0.986  38.935  12.420
47191W        W15664   9.183  33.032   3.657
47192W        W15665  38.544  36.490  11.097
47193W        W15666  27.152  11.774   3.373
47194W        W15667  38.524  16.311   3.660
47195W        W15668  11.659  25.671   0.934
47196W        W15669  19.605  17.624  13.895
47197W        W15670  18.677  18.615  14.855
47198W        W15671  14.197  18.080   1.744
47199W        W15672  29.660  11.178  12.352
47200W        W15673  32.506  39.408  11.855
47201W        W15674  29.585  40.527  11.923
47202W        W15675   4.795   4.738   3.202
47203W        W15676  23.085  26.954   4.642
47204W        W15677  20.241  12.795  12.990
47205W        W15678   4.332  16.262   3.782
47206W        W15679  17.564  26.000  13.947
47207W        W15680  31.409  11.668  12.051
47208W        W15681  21.703  12.355   4.318
47209W        W15682  23.008  12.725   1.888
47210W        W15683  20.675  29.094   3.203
47211W        W15684  39.428  23.109   4.222
47212W        W15685  33.503  28.119  14.029
47213W        W15686   8.194  43.993  11.606
47214W        W15687   2.239  34.436   0.343
47215W        W15688  30.636  17.162  11.531
47216W        W15689  36.489   2.271   3.225
47217W        W15690   0.751   0.949   0.790
47218W        W15691   1.835  33.953   1.301
47219W        W15692  37.339  28.668   3.782
47220W        W15693  27.136   7.768   0.457
47221W        W15694  25.713   1.354   5.577
47222W        W15695  24.014  28.146   3.343
47223W        W15696  35.548  30.455   2.386
47224W        W15697  34.951   2.862   1.388
47225W        W15698   8.726  34.018   2.215
47226W        W15699  20.689   8.206   2.855
47227W        W15700  25.007  19.594  13.521
47228W        W15701   5.438  38.332  10.540
47229W        W15702  29.143  15.607  14.468
47230W        W15703  25.532  23.521   1.362
47231W        W15704   7.700  23.024  14.294
47232W        W15705  19.728  11.686   3.297
47233W        W15706   2.895  13.246  10.625
47234W        W15707  25.507   3.933   0.285
47235W        W15708  18.072   2.935   1.867
47236W        W15709  26.509  19.590   1.340
47237W        W15710  16.265  31.452   3.303
47238W        W15711  23.637  17.181  10.959
47239W        W15712  24.023  12.684   5.243
47240W        W15713  30.966  33.032  13.896
47241W        W15714  26.147  44.399  14.971
47242W        W15715   2.275  34.500  10.449
47243W        W15716   0.878  41.946   0.914
47244W        W15717  29.444  41.852  12.906
47245W        W15718  10.334  11.245  14.463
47246W        W15719  20.569  30.575  12.866
47247W        W15720  28.062  31.969   3.294
47248W        W15721  34.978  22.668  14.474
47249W        W15722  29.973  44.288  14.512
47250W        W15723  32.601  16.734   0.478
47251W        W15724   0.280  42.876  11.090
47252W        W15725  38.355   1.314   2.198
47253W        W15726  20.201  35.534  11.993
47254W        W15727   6.348   3.748   9.993
47255W        W15728  38.903  36.445   5.121
47256W        W15729  29.030  18.763  14.275
47257W        W15730   0.935  17.727   2.675
47258W        W15731   0.418  34.585   0.446
47259W        W15732  41.868  11.147  13.460
47260W        W15733  24.206   6.843   2.900
47261W        W15734   3.229  38.946   3.724
47262W        W15735  14.649  20.101  13.982
47263W        W15736  30.561   3.277  14.366
47264W        W15737  30.074   9.717  14.832
47265W        W15738  27.508  38.024  14.386
47266W        W15739  36.472   3.249  13.508
47267W        W15740  26.117  25.614   4.765
47268W        W15741   1.269  44.008   0.329
47269W        W15742  27.049  36.438  11.018
47270W        W15743   5.198   0.318   0.432
47271W        W15744  29.172   9.770   4.185
47272W        W15745  15.741  42.416   3.716
47273W        W15746   3.392   9.382  14.918
47274W        W15747   7.364  31.951  14.883
47275W        W15748  44.761  23.201   0.846
47276W        W15749  41.868  35.911  12.943
47277W        W15750  31.605   5.353   1.787
47278W        W15751  14.818   3.843  14.323
47279W        W15752  15.250  26.583  13.471
47280W        W15753  12.648  24.566  11.067
47281W        W15754  12.279   5.350  13.504
47282W        W15755  25.539  31.500   4.318
47283W        W15756  44.422  26.988   0.279
47284W        W15757  35.416  35.510   2.199
47285W        W15758  27.623  11.139   2.341
47286W        W15759  41.990  14.827  12.825
47287W        W15760  28.955  13.242   4.816
47288W        W15761  10.172  26.099  10.443
47289W        W15762  10.218   9.873  10.109
47290W        W15763  34.946  32.129  12.029
47291W        W15764  34.612  30.612  13.960
47292W        W15765  25.675  21.722   4.321
47293W        W15766  38.846   5.829  11.488
47294W        W15767  44.929  16.619   3.745
47295W        W15768  11.344  31.461   4.720
47296W        W15769  27.943  44.765  11.567
47297W        W15770  12.290  32.125   2.238
47298W        W15771   9.353  38.953  10.025
47299W        W15772  31.581  36.078  11.944
47300W        W15773   6.354  18.270   2.709
47301W        W15774  25.587   6.833  10.918
47302W        W15775  21.098  44.421  14.942
47303W        W15776   3.814  25.127  11.608
47304W        W15777  39.011  22.197  14.492
47305W        W15778  33.455  12.265  14.774
47306W        W15779  38.508  27.100  10.559
47307W        W15780  28.929  15.644  11.458
47308W        W15781  40.475   7.861   0.309
47309W        W15782  39.546  29.527  10.611
47310W        W15783  41.335  43.954   2.265
47311W        W15784  43.432  25.169  12.357
47312W        W15785  22.691   5.237  14.361
47313W        W15786  16.269   9.809   2.853
47314W        W15787   7.779  27.520   3.217
47315W        W15788  33.008  14.720   0.835
47316W        W15789  18.567  26.958   4.717
47317W        W15790  18.777  11.330   3.753
47318W        W15791  21.030  39.419   1.913
47319W        W15792  40.369  35.542   4.170
47320W        W15793   4.775   1.775  14.009
47321W        W15794  15.816  12.739  10.156
47322W        W15795   0.949   7.232  12.418
47323W        W15796  22.231  34.483  12.370
47324W        W15797   4.896  33.075  10.404
47325W        W15798   1.858  37.444  12.557
47326W        W15799  27.564  16.199  14.025
47327W        W15800  15.776  40.403  14.809
47328W        W15801  13.258  37.911   4.156
47329W        W15802  40.430  31.997  12.405
47330W        W15803  29.121  43.310  12.467
47331W        W15804  19.164  37.981  10.439
47332W        W15805  35.898  42.466  10.465
47333W        W15806  11.201  23.703   5.127
47334W        W15807   5.294  37.889   3.762
47335W        W15808  11.291  29.503   1.297
47336W        W15809  31.422   6.378   1.736
47337W        W15810  22.027  44.285   3.221
47338W        W15811  27.126  15.327  14.377
47339W        W15812   3.279  25.603  12.908
47340W        W15813   1.402  43.304  11.974
47341W        W15814  15.594   0.285  14.783
47342W        W15815  26.170  10.710   4.635
47343W        W15816   8.751  35.908  14.789
47344W        W15817  32.462  25.694  10.625
47345W        W15818  24.182  12.289  12.349
47346W        W15819   8.225  14.733  10.635
47347W        W15820   6.704   2.287   2.309
47348W        W15821  15.289  13.715   3.247
47349W        W15822  31.520  10.364   0.789
47350W        W15823  22.618  40.406   5.287
47351W        W15824  34.590  17.690   3.734
47352W        W15825  14.826  14.688   2.808
47353W        W15826  38.540  39.396  11.926
47354W        W15827  36.844   8.192   0.399
47355W        W15828  34.501  37.033  12.078
47356W        W15829  13.221   1.889   3.739
47357W        W15830  26.057   7.788   2.366
47358W        W15831  12.264  32.609  13.987
47359W        W15832   6.783  18.762   0.411
47360W        W15833  31.501  11.214   2.736
47361W        W15834  23.100  10.164   0.926
47362W        W15835   3.396   1.914   9.943
47363W        W15836  17.760  10.236   4.264
47364W        W15837  16.801  38.460   0.390
47365W        W15838  37.869  40.357  11.055
47366W        W15839  31.588  32.497   4.208
47367W        W15840  26.537  39.316  10.475
47368W        W15841  41.393  24.546   4.167
47369W        W15842   1.950  29.642   4.330
47370W        W15843   3.920  36.511   0.482
47371W        W15844   7.257  38.831  10.490
47372W        W15845   9.786  35.458  14.926
47373W        W15846  24.630  12.642   9.630
47374W        W15847  13.839   5.899  11.529
47375W        W15848  37.562  25.979  13.504
47376W        W15849   7.870  15.287   2.285
47377W        W15850  24.165   1.933  10.925
47378W        W15851  28.950  16.088   2.418
47379W        W15852   4.212   9.169   2.811
47380W        W15853  43.813  12.304  11.002
47381W        W15854   9.277  30.613  11.544
47382W        W15855  30.107  35.381   2.881
47383W        W15856   3.713  13.638   9.666
47384W        W15857  22.149  27.967   4.714
47385W        W15858   8.296  29.593   2.322
47386W        W15859  38.361  33.028  14.871
47387W        W15860  27.631  30.587  14.963
47388W        W15861  32.636  11.326   3.228
47389W        W15862  11.167   3.784  10.991
47390W        W15863  35.106  15.096   2.295
47391W        W15864  31.556  20.117   1.801
47392W        W15865   3.866  14.792   4.159
47393W        W15866  11.725  36.880   4.693
47394W        W15867   4.702  31.463  11.954
47395W        W15868  19.080  13.607  10.576
47396W        W15869  27.078  17.241  10.543
47397W        W15870  33.897  35.057  13.459
47398W        W15871  16.081  29.447  13.023
47399W        W15872   9.355  10.827   4.287
47400W        W15873  31.096  27.527   0.244
47401W        W15874   5.402  30.442   1.329
47402W        W15875  18.632   2.266  13.958
47403W        W15876  14.822  17.243   3.354
47404W        W15877  39.916   3.339  14.475
47405W        W15878  44.383  10.223   4.748
47406W        W15879  22.040  34.588   3.738
47407W        W15880  36.046  38.828   1.237
47408W        W15881  38.523  12.272  13.505
47409W        W15882  25.597   5.875  13.383
47410W        W15883   8.870   2.739   0.458
47411W        W15884   2.292  12.783   1.931
47412W        W15885  10.147   8.265   0.967
47413W        W15886  18.193  30.570  13.899
47414W        W15887  33.469   6.275   0.298
47415W        W15888  43.984  26.018  14.280
47416W        W15889   2.272  30.505  11.873
47417W        W15890  35.997   8.763  14.934
47418W        W15891  14.094  26.475  11.482
47419W        W15892  38.963  16.697  13.987
47420W        W15893  36.403  25.067   5.310
47421W        W15894   3.437  22.107  14.367
47422W        W15895  43.853   2.331  10.551
47423W        W15896   6.426  22.163  11.882
47424W        W15897  40.346  21.592  10.998
47425W        W15898   3.871  40.959   0.345
47426W        W15899  31.942   3.293  10.057
47427W        W15900  23.182  23.663   4.730
47428W        W15901  44.905   0.331  11.859
47429W        W15902  40.417  20.631   3.356
47430W        W15903   9.329  10.711   0.729
47431W        W15904  31.601  24.609  14.335
47432W        W15905   0.361  44.793   2.274
47433W        W15906  37.569  25.646   3.728
47434W        W15907  26.193  17.589   4.231
47435W        W15908  23.042   4.219   1.857
47436W        W15909  30.592  31.959  13.057
47437W        W15910   2.431  35.562  14.366
47438W        W15911  31.117  41.468   2.853
47439W        W15912  36.566  15.284   2.857
47440W        W15913   9.713  23.174   9.629
47441W        W15914  10.744   4.423  11.943
47442W        W15915  31.151  13.331   2.408
47443W        W15916   2.287  25.028   2.841
47444W        W15917  26.001  25.051   3.248
47445W        W15918  15.692  38.555  13.967
47446W        W15919  37.389  14.329   4.160
47447W        W15920  36.547  18.291  13.346
47448W        W15921  13.220  38.443   0.818
47449W        W15922  30.526   1.271  10.489
47450W        W15923  19.662   3.937   3.750
47451W        W15924  43.424  43.502   0.345
47452W        W15925  15.261  36.845  10.904
47453W        W15926  33.049   1.403   2.884
47454W        W15927  25.116  26.098   0.451
47455W        W15928  35.385  13.184  11.449
47456W        W15929   0.869  25.620  13.477
47457W        W15930  33.912  16.109  11.898
47458W        W15931  42.485   7.212  10.538
47459W        W15932  23.538   1.854   3.160
47460W        W15933  25.160  24.505   4.666
47461W        W15934  11.298  32.012  13.413
47462W        W15935  30.940  39.925   2.774
47463W        W15936  33.505  38.018  14.493
47464W        W15937  44.451  26.146   2.761
47465W        W15938  26.539  23.039  11.962
47466W        W15939   8.844   6.417  11.558
47467W        W15940  22.160  21.736  12.525
47468W        W15941  16.747  23.692  10.914
47469W        W15942   9.334   5.360  11.921
47470W        W15943  14.821  35.572   0.778
47471W        W15944  11.857  28.007   1.732
47472W        W15945   5.224  28.622   4.221
47473W        W15946  12.357  10.339   3.278
47474W        W15947  16.653  37.467   2.760
47475W        W15948  21.634   4.828   0.814
47476W        W15949  39.370   4.776  11.967
47477W        W15950  33.026  21.689  11.977
47478W        W15951  24.503  28.440  11.869
47479W        W15952   7.776  37.345  10.040
47480W        W15953  31.600  41.374  12.031
47481W        W15954   8.672  31.058   3.225
47482W        W15955   3.295   1.468   3.720
47483W        W15956  22.635  25.963  12.033
47484W        W15957  41.961  42.509  12.934
47485W        W15958  15.309  33.427  14.959
47486W        W15959  25.964  33.877  11.920
47487W        W15960  38.873  11.650   3.152
47488W        W15961  36.442  25.962  11.611
47489W        W15962  17.178   2.924   2.797
47490W        W15963   3.262  12.659  14.958
47491W        W15964  27.020  40.485   4.331
47492W        W15965  41.302  35.013  14.295
47493W        W15966  26.474  19.210   3.817
47494W        W15967  15.761   6.414  10.553
47495W        W15968  32.540  19.093   2.333
47496W        W15969  42.002  26.567   3.209
47497W        W15970  20.596  10.312  11.932
47498W        W15971   2.343  26.628   9.933
47499W        W15972  28.173  12.165   3.353
47500W        W15973  35.957  13.115   2.695
47501W        W15974  40.546  37.503  10.598
47502W        W15975   0.767  20.653   2.821
47503W        W15976  27.945   9.695  11.114
47504W        W15977  40.994  11.242  11.578
47505W        W15978  16.299   6.906  14.501
47506W        W15979  38.396  24.188  11.476
47507W        W15980  15.110  36.525   3.315
47508W        W15981  30.582   9.395   2.784
47509W        W15982   6.330   6.728   1.761
47510W        W15983   7.679  21.720   3.805
47511W        W15984   5.844  19.249  14.297
47512W        W15985  37.359  17.757   0.761
47513W        W15986  28.088   1.854   0.347
47514W        W15987  17.673   9.216  12.971
47515W        W15988   1.463  11.751  10.984
47516W        W15989   8.377  26.202   3.669
47517W        W15990  19.234   3.399   4.148
47518W        W15991  42.919  12.700   1.404
47519W        W15992  25.567  40.830  14.028
47520W        W15993   3.827  33.057   2.806
47521W        W15994  26.986   0.871   4.322
47522W        W15995  19.718  11.167  11.906
47523W        W15996  26.061  42.819   0.756
47524W        W15997  17.646  36.423   2.879
47525W        W15998   4.744  22.098   1.262
47526W        W15999   7.761  20.173  13.062
47527W        W16000  37.854  40.381   2.870
47528W        W16001  42.518  18.610   4.256
47529W        W16002  36.939  23.712   0.755
47530W        W16003   8.791  27.518   4.756
47531W        W16004  44.769  40.420   1.782
47532W        W16005  11.191  36.460   0.896
47533W        W16006  29.100   1.835   3.652
47534W        W16007  14.232  16.313   4.324
47535W        W16008  13.137  18.753  11.018
47536W        W16009  34.888  30.655   5.124
47537W        W16010  25.114  34.529   1.792
47538W        W16011  10.340  19.059  14.953
47539W        W16012  18.228  12.627  12.041
47540W        W16013   5.875  21.743  11.545
47541W        W16014  43.924  26.202   4.808
47542W        W16015  33.496  11.857   3.750
47543W        W16016   0.247  39.898   2.278
47544W        W16017  19.172   6.779   1.830
47545W        W16018  10.685  36.588  12.854
47546W        W16019  16.300  33.573   2.730
47547W        W16020  20.565  35.495   0.473
47548W        W16021  35.994   7.813   1.273
47549W        W16022  35.108  31.963   9.956
47550W        W16023  41.974  33.046  10.408
47551W        W16024  21.687  36.921  10.507
47552W        W16025  43.347  25.503  13.464
47553W        W16026  40.032   7.222   3.293
47554W        W16027  25.482   1.241  12.005
47555W        W16028  35.503  39.408  14.966
47556W        W16029   3.787  26.605   0.756
47557W        W16030  44.001  18.201   0.766
47558W        W16031  16.267  35.891  13.480
47559W        W16032  16.283  30.567   4.624
47560W        W16033  41.480  21.196   0.740
47561W        W16034   1.963  12.289  12.966
47562W        W16035  29.949   6.342   4.184
47563W        W16036  43.919  30.998   0.798
47564W        W16037  20.264  12.278  14.514
47565W        W16038  24.194  11.227  13.976
47566W        W16039  14.130   3.831   4.755
47567W        W16040  42.462  26.135   3.198
47568W        W16041   9.800  16.703   0.828
47569W        W16042   0.471   5.796   0.395
47570W        W16043  31.527   1.449   4.725
47571W        W16044  36.061  31.067   2.770
47572W        W16045  35.595  29.158  14.314
47573W        W16046   4.368  26.067   1.925
47574W        W16047  11.181   1.912  12.827
47575W        W16048   6.231  43.904  12.979
47576W        W16049  23.681  12.720   1.734
47577W        W16050  30.037   8.695   0.270
47578W        W16051  36.404   1.751  11.956
47579W        W16052  43.953  39.997   4.644
47580W        W16053  29.160  41.025  10.562
47581W        W16054   6.257   8.394  13.398
47582W        W16055   1.380  29.537   0.327
47583W        W16056  26.963  32.041  10.556
47584W        W16057  12.198  30.043  14.885
47585W        W16058   3.369  12.286  12.932
47586W        W16059  34.545   4.216  12.866
47587W        W16060  38.532  22.713  10.513
47588W        W16061  21.090  14.247   3.328
47589W        W16062   1.363  21.175  10.582
47590W        W16063  15.787  35.434   2.232
47591W        W16064  27.551  16.301   3.248
47592W        W16065  28.514  15.241  11.445
47593W        W16066  35.896  36.859  13.371
47594W        W16067  29.604  12.730   0.409
47595W        W16068   8.872   4.741  12.406
47596W        W16069  44.406   2.334   0.928
47597W        W16070   1.810  36.409   4.278
47598W        W16071  29.573  19.666   3.865
47599W        W16072  12.798   5.779   0.861
47600W        W16073  12.327  34.468   3.367
47601W        W16074  29.479  33.403   3.371
47602W        W16075  44.825   6.854  13.917
47603W        W16076  20.529  27.466   5.300
47604W        W16077  15.146   3.943  14.760
47605W        W16078  26.064  17.124   0.778
47606W        W16079  30.929  28.082   4.159
47607W        W16080  23.996  15.803   0.335
47608W        W16081  13.640  33.946  13.324
47609W        W16082  21.232  43.912  11.875
47610W        W16083  20.155  12.233   1.719
47611W        W16084   2.946  10.194   4.336
47612W        W16085  32.499  10.754   1.393
47613W        W16086  19.144  31.589   1.235
47614W        W16087  33.052  11.327   3.841
47615W        W16088  43.295  21.069  14.400
47616W        W16089  43.781  15.798  13.972
47617W        W16090  18.274  33.527   0.864
47618W        W16091  41.350  29.458   4.698
47619W        W16092  31.940  30.437  14.299
47620W        W16093  19.268  15.746  12.515
47621W        W16094  26.613  36.876   1.287
47622W        W16095   9.344  38.533  12.937
47623W        W16096  35.013  42.510   4.693
47624W        W16097  31.456  26.577   5.651
47625W        W16098  13.659  28.144   2.884
47626W        W16099   1.353   2.860  14.373
47627W        W16100  25.663  13.284  11.373
47628W        W16101  26.498   4.286  11.030
47629W        W16102   3.381  33.962  13.378
47630W        W16103  24.639  42.366  12.391
47631W        W16104  36.454  17.619   4.726
47632W        W16105  23.089  27.008  14.315
47633W        W16106  16.243   1.913  13.440
47634W        W16107  30.068   3.786  11.908
47635W        W16108  18.136  42.017   0.817
47636W        W16109   3.728  10.147   4.785
47637W        W16110  21.157   5.820   1.234
47638W        W16111  14.623  19.242  11.525
47639W        W16112  29.564   6.255  11.460
47640W        W16113   9.886  34.937   0.755
47641W        W16114  16.753  17.768   4.345
47642W        W16115  25.988  32.996  10.415
47643W        W16116  39.508  30.146  12.015
47644W        W16117  44.463  38.368  14.804
47645W        W16118  12.803  41.035  13.533
47646W        W16119  19.597  10.632   3.672
47647W        W16120  30.440  13.710   1.731
47648W        W16121  14.096   6.256   3.241
47649W        W16122  27.006  11.738  10.581
47650W        W16123   8.355  28.623  10.428
47651W        W16124  14.775  43.452  13.974
47652W        W16125  14.283  20.525  11.902
47653W        W16126  26.987  17.197  10.016
47654W        W16127  31.903  11.776  14.350
47655W        W16128  24.982   3.940   2.358
47656W        W16129  15.173  10.637  12.924
47657W        W16130  15.638  37.945   4.803
47658W        W16131   4.225  40.396  14.838
47659W        W16132  13.166   1.836   2.777
47660W        W16133  37.478  29.503  11.573
47661W        W16134  29.079  39.411  12.071
47662W        W16135  22.113  38.880   3.758
47663W        W16136  24.631  38.394   2.876
47664W        W16137  24.527  22.661   4.350
47665W        W16138  22.118  16.747  12.004
47666W        W16139  32.575  35.396   1.290
47667W        W16140  19.576   3.820   3.279
47668W        W16141  33.516  36.433   2.689
47669W        W16142  16.304  23.069   0.772
47670W        W16143  18.576  15.745   1.814
47671W        W16144  16.199  21.544  12.443
47672W        W16145   5.426  19.652   2.330
47673W        W16146  25.082  14.745   0.477
47674W        W16147  14.617  12.263   0.728
47675W        W16148  12.318  32.942   1.740
47676W        W16149  18.573  12.235  12.522
47677W        W16150  30.112   4.450   0.814
47678W        W16151  22.573  11.646   3.337
47679W        W16152  38.969  35.448   1.918
47680W        W16153  12.697  12.620   4.219
47681W        W16154  40.834   1.876  10.590
47682W        W16155   3.857  41.833  10.920
47683W        W16156  15.594  14.144  12.416
47684W        W16157  32.444  10.750   2.205
47685W        W16158   3.939  35.985   2.297
47686W        W16159  19.641  44.823   1.829
47687W        W16160  33.070  44.769  12.577
47688W        W16161   2.286  10.774   2.876
47689W        W16162  26.606  20.664  12.571
47690W        W16163  24.696  20.165  14.407
47691W        W16164  12.360  10.724   0.473
47692W        W16165  33.448  17.576   2.375
47693W        W16166  10.244  34.561   3.222
47694W        W16167  31.061   1.297  10.458
47695W        W16168  40.832  40.448  12.834
47696W        W16169  10.716  15.195   0.466
47697W        W16170  30.107  27.558   2.312
47698W        W16171  16.791  22.228  12.385
47699W        W16172  12.773   9.671   1.226
47700W        W16173   4.390  22.633  11.856
47701W        W16174  18.688   9.800   4.172
47702W        W16175   8.292  35.483  11.051
47703W        W16176  32.632  10.743  13.401
47704W        W16177  22.728  12.706   0.752
47705W        W16178   8.824  31.525   1.848
47706W        W16179  26.558  32.074  13.823
47707W        W16180  33.445  41.445   3.234
47708W        W16181  32.987   2.843  12.437
47709W        W16182   7.395  42.500   0.343
47710W        W16183   7.206  18.787  10.947
47711W        W16184   0.398  24.629  12.955
47712W        W16185   2.807  15.135  14.462
47713W        W16186  41.364  20.169   1.231
47714W        W16187   8.388  30.998   2.698
47715W        W16188   9.666  30.050   0.831
47716W        W16189   1.738  28.997   2.214
47717W        W16190   4.373  18.205  10.615
47718W        W16191  31.093   4.755  11.490
47719W        W16192   7.402  32.534  11.067
47720W        W16193   2.236  44.904  12.032
47721W        W16194  22.738  36.904  12.380
47722W        W16195  20.251  18.154   3.242
47723W        W16196  33.100  19.135  10.941
47724W        W16197   4.220  39.379  14.478
47725W        W16198  25.085  27.952  12.857
47726W        W16199   3.771  28.170   2.319
47727W        W16200  21.156  35.412  10.410
47728W        W16201  15.688  40.397   2.737
47729W        W16202   8.209  14.627   3.227
47730W        W16203  19.068  40.482  11.448
47731W        W16204  22.112  17.208   3.718
47732W        W16205  35.525  39.441  13.896
47733W        W16206  19.090  28.967   0.285
47734W        W16207  31.119  35.952   5.218
47735W        W16208  28.131  42.878   3.721
47736W        W16209  30.460  26.983  10.971
47737W        W16210  21.156  23.112  14.961
47738W        W16211  39.354   8.205  10.470
47739W        W16212  29.580  27.048  14.448
47740W        W16213  31.905   7.411   0.881
47741W        W16214  37.343  22.572  10.556
47742W        W16215   3.823  14.145  10.951
47743W        W16216  38.388   5.806   4.228
47744W        W16217  20.606   8.196   4.307
47745W        W16218  26.610  20.145  12.574
47746W        W16219  27.503  30.961   2.391
47747W        W16220   6.373   9.744  11.018
47748W        W16221  17.070  26.485  10.971
47749W        W16222  16.083  30.557  12.876
47750W        W16223   3.443  14.157  12.062
47751W        W16224  23.209  16.607  13.445
47752W        W16225  17.667  30.124  14.960
47753W        W16226  20.694  40.922  12.965
47754W        W16227  19.210  43.425   4.249
47755W        W16228  23.719  42.291  14.989
47756W        W16229   0.910   2.305   4.838
47757W        W16230  38.391  35.890  13.408
47758W        W16231  33.558  35.503   3.859
47759W        W16232  13.169  23.663   2.330
47760W        W16233  20.691  17.299   1.340
47761W        W16234   4.283  14.332  12.888
47762W        W16235   8.672  38.399   3.177
47763W        W16236   8.169  41.414  14.303
47764W        W16237  44.886   6.193   0.801
47765W        W16238  30.087  16.241  10.548
47766W        W16239  44.287   6.821   1.236
47767W        W16240  11.229  23.984  10.036
47768W        W16241  33.883  12.250   2.887
47769W        W16242  28.449   2.458  12.875
47770W        W16243  25.616  27.118  13.384
47771W        W16244  24.132   9.839   2.314
47772W        W16245  29.613   0.937   1.816
47773W        W16246  22.996  23.077   3.195
47774W        W16247   5.758  27.689   3.696
47775W        W16248  37.494  10.285  14.480
47776W        W16249  43.793  39.383  13.815
47777W        W16250  19.539  44.942   0.463
47778W        W16251  19.564  41.857  14.331
47779W        W16252  11.212  27.035  13.533
47780W        W16253   2.777   7.678   0.778
47781W        W16254  18.608   8.837   0.748
47782W        W16255  25.691  32.575   3.826
47783W        W16256  44.424  11.789  10.408
47784W        W16257  38.055  14.633   4.646
47785W        W16258  13.215  32.575  10.991
47786W        W16259  11.365  22.694   2.255
47787W        W16260   7.393   4.858   2.693
47788W        W16261  31.486  38.398  11.974
47789W        W16262  17.245   0.907   4.691
47790W        W16263  10.690  21.634  10.566
47791W        W16264  11.716  18.158   0.286
47792W        W16265  12.301  41.839  14.379
47793W        W16266  43.803  24.159   4.149
47794W        W16267  24.147  40.391  13.538
47795W        W16268   8.381  11.728   1.924
47796W        W16269  36.437  21.190   0.743
47797W        W16270  37.475  10.316   0.451
47798W        W16271  37.559  24.164  11.918
47799W        W16272  41.011   1.828   4.745
47800W        W16273  13.774  37.925   2.308
47801W        W16274  12.310  37.579   1.820
47802W        W16275  35.928   4.280  13.826
47803W        W16276  32.950  20.578  13.797
47804W        W16277  10.169  37.076   4.182
47805W        W16278  31.940  38.016   1.869
47806W        W16279  33.481  44.402   1.736
47807W        W16280   3.453  40.864  13.012
47808W        W16281  16.255  22.558   1.785
47809W        W16282  16.309  24.975   3.210
47810W        W16283  44.295  20.161  10.614
47811W        W16284   6.428  26.025  13.862
47812W        W16285  24.681  27.145   5.304
47813W        W16286  35.101  17.102  14.913
47814W        W16287  36.442  39.522  14.787
47815W        W16288  10.161  33.552  12.463
47816W        W16289   5.865  42.014  13.007
47817W        W16290  21.674  42.009  11.518
47818W        W16291  23.628  21.587  13.369
47819W        W16292   4.351   3.304  11.522
47820W        W16293  11.728  38.035   1.822
47821W        W16294  33.548  31.443  13.040
47822W        W16295  41.016   7.190  13.382
47823W        W16296  17.104  14.608  10.451
47824W        W16297  44.486   4.314  11.081
47825W        W16298  19.681  38.462   0.423
47826W        W16299  31.936  41.975  13.428
47827W        W16300  44.857  19.610  14.479
47828W        W16301  18.775   5.212  11.612
47829W        W16302  26.568  31.010  14.374
47830W        W16303  38.519  15.139  14.966
47831W        W16304  33.077   2.861  13.537
47832W        W16305   6.920  42.953  14.303
47833W        W16306  23.092   9.784  10.544
47834W        W16307  32.553  38.383  13.812
47835W        W16308  30.925  41.362  10.630
47836W        W16309  16.305  37.003  14.762
47837W        W16310   9.179  34.112   0.822
47838W        W16311  41.971  17.722   2.324
47839W        W16312  21.123  15.096   4.762
47840W        W16313  15.299  11.245  14.480
47841W        W16314   9.870  28.150  10.934
47842W        W16315  10.178   0.932   5.263
47843W        W16316  32.064  13.284  12.341
47844W        W16317  17.236  12.238  13.996
47845W        W16318   3.423  21.607  11.881
47846W        W16319  11.637  41.800  11.395
47847W        W16320  16.247  19.755   3.818
47848W        W16321   6.764  19.093   4.129
47849W        W16322  41.808  37.436  13.334
47850W        W16323  24.514   0.885  10.525
47851W        W16324  15.171  29.012   3.866
47852W        W16325  15.763  41.309  13.451
47853W        W16326  43.460   2.430  14.998
47854W        W16327  29.463  12.360   1.732
47855W        W16328  17.144  26.033   4.216
47856W        W16329   2.246  16.726   2.871
47857W        W16330  10.211  42.464   4.696
47858W        W16331  34.039  35.424   4.727
47859W        W16332  15.122  21.712   2.857
47860W        W16333  37.035   2.457  12.875
47861W        W16334  19.259  31.437   3.806
47862W        W16335   2.892  30.653  14.303
47863W        W16336   6.736  15.306  14.431
47864W        W16337   4.375   9.865  14.962
47865W        W16338  19.549  29.492  12.851
47866W        W16339  42.286  16.604   0.856
47867W        W16340   5.880  42.882  10.955
47868W        W16341  35.003   0.326  11.916
47869W        W16342  42.475   0.822   3.302
47870W        W16343  39.049  12.663   1.323
47871W        W16344  37.982  42.404  11.127
47872W        W16345  30.080  22.605   1.869
47873W        W16346   4.802   5.860  12.526
47874W        W16347  37.437  15.624   0.863
47875W        W16348  43.419  38.525   0.256
47876W        W16349  31.625  38.556   1.784
47877W        W16350  40.944  11.861   0.848
47878W        W16351  31.478  23.653  13.385
47879W        W16352   7.198  19.660  12.069
47880W        W16353   0.783  44.450  14.395
47881W        W16354  14.126   1.970   1.409
47882W        W16355  24.073  42.963   2.850
47883W        W16356  36.959  10.838  13.460
47884W        W16357  23.060   1.367   2.271
47885W        W16358   5.769  20.565   1.355
47886W        W16359   4.945  44.877   1.809
47887W        W16360   4.720  25.213   4.654
47888W        W16361  43.979  33.971  11.936
47889W        W16362  15.603   5.780  10.962
47890W        W16363  35.550  17.267   2.663
47891W        W16364  33.898  21.038   3.731
47892W        W16365   2.236  10.272   1.839
47893W        W16366  15.585   3.240  10.445
47894W        W16367  33.611  32.898   3.671
47895W        W16368  31.962  35.945   0.878
47896W        W16369  34.077  18.262   1.319
47897W        W16370  15.738   9.829  12.827
47898W        W16371  12.356  26.579   0.393
47899W        W16372  44.930  37.484  14.477
47900W        W16373  34.930  20.600  12.538
47901W        W16374  38.410  30.555  11.035
47902W        W16375  13.846  14.705  14.860
47903W        W16376   8.250  28.080  13.919
47904W        W16377  11.843  22.227  12.015
47905W        W16378   2.733  27.692   2.304
47906W        W16379  25.584   0.458  14.344
47907W        W16380  26.123  11.850  14.332
47908W        W16381   6.276   7.886  14.455
47909W        W16382   4.381   4.299   3.833
47910W        W16383  35.008   1.458   0.437
47911W        W16384  14.777  11.677   3.354
47912W        W16385  14.143  44.306  14.835
47913W        W16386  10.741  36.993   3.304
47914W        W16387  27.556  16.156   0.793
47915W        W16388  31.107  19.183  12.053
47916W        W16389  28.180  20.557  12.552
47917W        W16390  31.053  34.969   0.796
47918W        W16391   5.875  31.116  12.353
47919W        W16392  23.555  32.579   3.777
47920W        W16393  26.063  32.610   2.190
47921W        W16394  37.921   0.312   0.737
47922W        W16395  17.269  18.593   4.292
47923W        W16396  36.039   2.451  12.863
47924W        W16397  14.731  13.642   1.436
47925W        W16398  13.141  28.517  14.889
47926W        W16399   6.911  14.240   2.834
47927W        W16400  24.041  33.071   1.885
47928W        W16401  23.593  43.473   0.412
47929W        W16402  22.136  40.911   4.308
47930W        W16403  24.628  39.945   3.710
47931W        W16404  10.242  35.888  14.375
47932W        W16405  42.355  19.751   2.883
47933W        W16406  10.338  15.784   0.840
47934W        W16407   0.298  20.065  11.120
47935W        W16408  40.823  21.539  14.768
47936W        W16409   7.179  22.520   5.144
47937W        W16410  21.239  24.116  12.456
47938W        W16411  20.552  31.436   3.177
47939W        W16412  44.490  19.129   3.743
47940W        W16413   6.742  31.419   3.637
47941W        W16414   4.835  24.682   2.729
47942W        W16415  29.562  41.434  12.871
47943W        W16416   9.654  38.934  14.425
47944W        W16417  15.755   4.361   1.419
47945W        W16418   7.304  24.203   0.819
47946W        W16419  34.116  10.310  11.025
47947W        W16420  12.331  26.967  10.616
47948W        W16421  33.085   4.942  12.051
47949W        W16422  33.620   1.932  10.921
47950W        W16423  41.807  40.015  13.424
47951W        W16424  20.568  15.764   0.331
47952W        W16425  25.963   5.885   0.746
47953W        W16426  18.636  36.985   1.217
47954W        W16427  18.173  31.464  11.599
47955W        W16428   5.428   1.977  12.475
47956W        W16429  37.449  19.257   4.305
47957W        W16430  31.964   4.437  11.982
47958W        W16431  19.159  17.200   3.757
47959W        W16432  39.938   6.905  13.802
47960W        W16433   5.721  37.540   0.899
47961W        W16434  17.563  33.623  11.931
47962W        W16435  19.222  12.129  11.888
47963W        W16436   5.733  35.578  12.971
47964W        W16437  44.893  16.317   4.244
47965W        W16438   3.717  31.986   3.693
47966W        W16439  21.564  26.638  12.985
47967W        W16440  44.423  29.120   0.893
47968W        W16441  37.373   6.756   1.262
47969W        W16442  31.437  23.055   3.837
47970W        W16443  16.275  25.965   3.298
47971W        W16444  37.391  40.915   2.785
47972W        W16445  10.650  11.690   9.953
47973W        W16446   5.410  30.518   4.733
47974W        W16447  19.257  11.680   0.448
47975W        W16448   3.270  17.294   1.792
47976W        W16449  28.105  23.226   3.224
47977W        W16450  31.033  41.959  13.947
47978W        W16451  17.736  17.642  13.030
47979W        W16452  33.065  11.140  14.490
47980W        W16453  13.155  25.527  11.504
47981W        W16454  12.198   6.301  10.561
47982W        W16455  26.159   6.898  13.548
47983W        W16456  16.783   9.742   3.379
47984W        W16457  16.306  26.570   2.874
47985W        W16458  29.587  10.817   3.714
47986W        W16459  23.012   2.776   2.352
47987W        W16460  42.440  38.973  11.376
47988W        W16461  20.580  30.536  10.982
47989W        W16462  11.779  25.545   1.370
47990W        W16463  26.569   3.366  12.487
47991W        W16464  35.869   5.308  13.813
47992W        W16465  12.689  13.809   1.724
47993W        W16466   0.907  20.570   1.826
47994W        W16467  36.971  44.926  14.854
47995W        W16468  13.721  26.200  10.638
47996W        W16469  28.082  39.359  12.075
47997W        W16470  31.950  15.102   0.441
47998W        W16471  27.579  14.805  13.975
47999W        W16472  11.204  11.160   2.797
48000W        W16473  34.060   5.364  11.545
48001W        W16474  27.583  26.115  13.386
48002W        W16475  10.148  19.597   4.750
48003W        W16476  17.762   0.777   0.438
48004W        W16477  22.146  11.701  14.409
48005W        W16478  44.868  41.939  13.988
48006W        W16479  36.068  37.343   0.806
48007W        W16480  33.939  17.798  14.460
48008W        W16481  44.382  17.728   4.140
48009W        W16482  40.840  43.442  11.012
48010W        W16483  35.092   2.889  11.043
48011W        W16484  33.949  40.365   4.610
48012W        W16485  43.270  42.299  12.861
48013W        W16486  12.632  29.433  12.535
48014W        W16487   4.771  38.014  12.960
48015W        W16488  14.803  24.026   0.964
48016W        W16489  26.555  23.504   4.234
48017W        W16490  21.030  29.494  11.536
48018W        W16491   0.480  37.918  12.491
48019W        W16492  14.790  19.762  13.984
48020W        W16493  32.444  28.512  13.862
48021W        W16494  41.039   8.796   1.356
48022W        W16495   4.254   8.354   1.430
48023W        W16496   5.304  17.662   4.768
48024W        W16497   5.692  14.203   4.762
48025W        W16498  32.903  32.087  14.839
48026W        W16499  11.864  24.575   2.351
48027W        W16500  36.354  31.960   0.735
48028W        W16501  26.627  20.759   4.780
48029W        W16502  24.115  17.739   2.313
48030W        W16503  41.033  41.924  14.013
48031W        W16504  21.104   5.254  11.051
48032W        W16505  14.101   7.336   0.850
48033W        W16506  23.081  31.063  14.348
48034W        W16507  32.025  44.899  10.940
48035W        W16508  16.138   1.360   0.318
48036W        W16509   1.735  10.655   2.276
48037W        W16510  38.346  16.575  11.950
48038W        W16511  23.162   4.874   1.756
48039W        W16512  16.237  36.873  12.933
48040W        W16513   1.261  29.635  10.479
48041W        W16514   8.324  22.173   4.622
48042W        W16515  14.683  16.682  13.937
48043W        W16516   7.832  19.272  14.962
48044W        W16517   2.270  21.645  13.979
48045W        W16518   1.834  20.042  11.531
48046W        W16519  21.664  10.706  10.640
48047W        W16520  16.164  29.964   2.220
48048W        W16521  37.047  10.294   1.361
48049W        W16522  33.537  43.982  13.819
48050W        W16523  44.474   2.735  13.525
48051W        W16524  11.261  22.568   3.713
48052W        W16525  19.229  28.618  14.387
48053W        W16526  29.947   4.791  13.537
48054W        W16527  35.503  33.426   0.306
48055W        W16528  39.818   8.252  11.477
48056W        W16529  29.114  34.975  13.501
48057W        W16530  18.206  31.939   2.719
48058W        W16531  19.267  24.092  10.567
48059W        W16532  33.462  10.178  12.367
48060W        W16533  19.616  28.670  13.504
48061W        W16534   4.704  26.511   5.161
48062W        W16535  13.707  39.484   3.177
48063W        W16536  26.677   9.372  14.893
48064W        W16537  31.125   7.395  12.548
48065W        W16538  28.550  18.590  12.999
48066W        W16539  31.138  31.965  10.079
48067W        W16540  44.827  17.651  14.458
48068W        W16541  34.063  23.497  10.463
48069W        W16542  35.852  28.985  11.494
48070W        W16543  11.734   3.834   2.802
48071W        W16544  40.973  44.949  14.431
48072W        W16545  25.640  30.100  14.932
48073W        W16546  27.949  24.119   3.637
48074W        W16547  41.952  22.672  12.921
48075W        W16548  34.550  43.862   4.208
48076W        W16549  32.493   8.736   1.336
48077W        W16550  44.458  26.645  14.425
48078W        W16551  35.531   9.755   1.448
48079W        W16552  24.117  17.579  12.088
48080W        W16553   2.921  41.399   2.803
48081W        W16554  13.316  36.488  14.496
48082W        W16555  37.887  31.078  14.808
48083W        W16556  14.231   3.397  13.904
48084W        W16557  39.407   5.294  14.851
48085W        W16558  20.085  38.895  11.088
48086W        W16559  20.158  30.468  13.448
48087W        W16560  42.468  37.961   0.905
48088W        W16561  18.162  12.851   1.806
48089W        W16562  21.521  35.578   4.201
48090W        W16563  33.380   9.763  10.470
48091W        W16564   1.304  43.012  10.911
48092W        W16565  22.519  42.287  14.892
48093W        W16566   3.835   1.850  12.074
48094W        W16567   7.351  38.443  10.957
48095W        W16568  27.999  43.311  10.512
48096W        W16569  15.319  13.740  13.378
48097W        W16570  35.363  25.066   0.447
48098W        W16571  19.063  19.145   0.448
48099W        W16572  27.995  27.637  14.792
48100W        W16573  30.565  19.224  14.834
48101W        W16574   6.802  44.500  12.930
48102W        W16575  24.530   4.368  14.390
48103W        W16576   4.911  26.965   3.174
48104W        W16577  33.465  13.682   2.191
48105W        W16578   6.791  26.460   4.215
48106W        W16579  34.973   9.693   0.926
48107W        W16580  24.666  26.082  13.029
48108W        W16581   2.933  14.262   1.232
48109W        W16582  15.723  39.543   2.346
48110W        W16583  42.497  16.583   1.720
48111W        W16584   2.725  32.133  14.912
48112W        W16585   4.357   7.679  12.413
48113W        W16586  15.768  11.809   0.758
48114W        W16587  26.657  35.978  14.861
48115W        W16588   7.207  25.569   5.203
48116W        W16589   7.389  43.498  10.898
48117W        W16590   0.297  42.923   2.343
48118W        W16591   1.407  17.107  11.982
48119W        W16592  24.542  12.167   0.918
48120W        W16593  26.984  18.713   4.694
48121W        W16594  40.051  36.026  14.299
48122W        W16595  18.197  37.946  11.561
48123W        W16596  33.947  38.429   2.690
48124W        W16597   9.308   1.776   4.808
48125W        W16598  10.713  34.863   0.331
48126W        W16599  23.026  13.703  10.938
48127W        W16600  34.537   0.773  14.476
48128W        W16601  26.604   9.156  11.908
48129W        W16602  22.143  17.574  13.307
48130W        W16603  12.190  19.174  14.438
48131W        W16604  24.107  31.424   4.640
48132W        W16605  22.087  19.270   4.703
48133W        W16606  39.817  42.805  13.473
48134W        W16607  40.980  24.190   2.305
48135W        W16608  32.441  44.843   4.278
48136W        W16609   2.880  12.198   0.390
48137W        W16610  23.527  10.846   2.209
48138W        W16611  32.450  41.360   1.321
48139W        W16612  25.644  27.999  11.044
48140W        W16613  39.884  37.054   1.866
48141W        W16614  27.173  35.418   0.783
48142W        W16615  21.093  19.157   1.351
48143W        W16616   8.253  13.789  13.840
48144W        W16617  14.657  30.100   3.196
48145W        W16618  15.584  12.776  11.595
48146W        W16619   7.307  29.101   0.397
48147W        W16620  32.455   3.900   1.303
48148W        W16621  39.065  26.670  12.491
48149W        W16622   9.733   1.834  10.570
48150W        W16623  43.767  20.537   4.793
48151W        W16624  11.794  31.020   4.305
48152W        W16625   2.940  26.150  13.976
48153W        W16626  11.687   8.393  12.831
48154W        W16627  13.759  16.247   2.664
48155W        W16628   0.776  36.851   4.799
48156W        W16629  38.329  44.458  10.589
48157W        W16630  20.168  13.118  10.903
48158W        W16631  26.624  31.633  14.947
48159W        W16632  17.179  13.273  14.365
48160W        W16633   0.817   2.346   0.274
48161W        W16634  42.417  14.659  14.954
48162W        W16635  19.567  10.140  14.797
48163W        W16636  39.321  23.722  13.824
48164W        W16637   5.768  17.603   4.250
48165W        W16638  20.552  16.165   2.308
48166W        W16639   1.892  31.973  10.924
48167W        W16640   7.840  11.804   3.835
48168W        W16641   1.744  40.397   3.639
48169W        W16642  44.443  43.916   0.246
48170W        W16643  17.620  26.539   2.786
48171W        W16644   1.836   5.215  14.442
48172W        W16645  23.207  38.327  12.936
48173W        W16646  19.617   7.193   2.677
48174W        W16647  19.711  37.998   4.704
48175W        W16648  36.919  32.106   0.425
48176W        W16649  26.690   4.774  14.945
48177W        W16650  33.076   1.846   3.645
48178W        W16651  21.209   7.767   3.711
48179W        W16652   6.810  31.982  13.813
48180W        W16653  24.538   0.878  12.971
48181W        W16654  29.424  32.412   1.416
48182W        W16655  36.984  22.615  13.983
48183W        W16656  43.830  39.002   3.328
48184W        W16657  16.683   5.696  11.039
48185W        W16658   5.312   4.310   4.807
48186W        W16659   6.327  30.513   9.986
48187W        W16660  21.689  25.089  10.468
48188W        W16661  42.986  22.042   2.734
48189W        W16662  19.656  14.786   4.146
48190W        W16663  28.603  15.616  12.897
48191W        W16664  39.962  11.304   0.834
48192W        W16665  44.788  21.628   1.382
48193W        W16666  27.645   7.675  14.424
48194W        W16667  31.573  39.457   4.774
48195W        W16668  26.102  22.141  14.451
48196W        W16669  37.574  23.158   0.778
48197W        W16670  42.802  40.530   4.269
48198W        W16671  41.329  10.662   2.223
48199W        W16672  38.845   5.234   4.622
48200W        W16673  24.050   1.805  10.529
48201W        W16674  13.689  11.793   2.373
48202W        W16675  26.168  23.086  11.091
48203W        W16676  43.370  26.584   0.273
48204W        W16677  18.769  33.932   1.825
48205W        W16678  42.325  25.212  12.828
48206W        W16679  10.700  36.386  10.966
48207W        W16680  18.207  37.836  12.022
48208W        W16681  20.158  26.668  14.768
48209W        W16682  20.668  30.127   3.818
48210W        W16683  35.040   9.806  12.564
48211W        W16684  38.836   1.272  11.510
48212W        W16685  39.472  19.750  14.490
48213W        W16686  37.441  21.175   3.714
48214W        W16687  24.177  21.035  13.428
48215W        W16688  42.293   9.219   4.819
48216W        W16689  36.003  43.839   0.479
48217W        W16690  40.840  44.963  13.054
48218W        W16691  16.116  35.427  14.966
48219W        W16692  17.589   6.695   2.199
48220W        W16693  17.694  23.551  11.493
48221W        W16694  26.655   6.716  14.015
48222W        W16695  24.135  41.296   1.399
48223W        W16696   2.458  36.052  11.918
48224W        W16697  23.038  12.307  11.089
48225W        W16698  25.128  24.145   1.404
48226W        W16699  11.155  40.031   2.352
48227W        W16700  28.498  11.153  14.779
48228W        W16701   7.365  34.959  14.800
48229W        W16702   2.390  15.666   2.773
48230W        W16703  31.555  40.910   0.373
48231W        W16704  25.215   9.261  12.945
48232W        W16705  12.211  15.620   0.784
48233W        W16706  25.598  13.777   4.599
48234W        W16707   3.297  34.872   0.480
48235W        W16708  32.428  28.469   3.674
48236W        W16709  38.913  11.262  13.866
48237W        W16710   7.332  40.827  11.944
48238W        W16711  22.021  38.450   1.279
48239W        W16712  25.017  41.309   2.764
48240W        W16713  21.145  23.118   0.476
48241W        W16714  14.105  44.893   2.754
48242W        W16715  26.655   5.865  14.830
48243W        W16716  22.129  27.486   4.813
48244W        W16717   8.298  30.088  12.378
48245W        W16718  32.102  33.083   4.200
48246W        W16719  38.531   7.714   3.667
48247W        W16720   8.345   6.241  11.931
48248W        W16721  27.172  44.308  11.066
48249W        W16722  42.996  41.457   3.682
48250W        W16723  41.790  33.109   4.262
48251W        W16724  15.682   9.787   0.955
48252W        W16725  23.010  20.090   1.769
48253W        W16726  26.108  40.020  12.907
48254W        W16727  33.077  33.588  14.433
48255W        W16728   4.912  24.636   1.407
48256W        W16729  33.585  36.505   4.623
48257W        W16730  25.061   3.459   2.254
48258W        W16731  31.583  18.294   4.612
48259W        W16732  21.668  14.261  14.802
48260W        W16733  11.295  44.767  12.840
48261W        W16734  34.406  14.122  14.884
48262W        W16735  27.049   6.224   4.159
48263W        W16736  12.812  26.111  10.463
48264W        W16737   1.795  39.850   0.784
48265W        W16738  26.090  17.722   4.816
48266W        W16739  39.939  27.993  10.515
48267W        W16740  37.063  36.373   1.314
48268W        W16741  35.442  37.362  11.001
48269W        W16742  29.000   0.987  11.892
48270W        W16743  18.207  25.544  10.970
48271W        W16744   6.711  37.888   3.824
48272W        W16745  36.978   1.297   2.294
48273W        W16746  14.273  37.894  11.098
48274W        W16747  20.747  32.012   1.448
48275W        W16748  18.616  25.555  11.099
48276W        W16749   2.374  37.563  11.969
48277W        W16750  22.124  36.908  13.348
48278W        W16751  26.129  42.316  11.896
48279W        W16752  33.056  23.080  11.870
48280W        W16753  12.669  13.186  11.025
48281W        W16754  28.448  24.202  11.477
48282W        W16755  39.975  14.142   3.805
48283W        W16756  17.219  37.337   1.737
48284W        W16757   2.812   9.308  14.990
48285W        W16758   8.677   0.891   1.731
48286W        W16759  18.737  20.613   0.859
48287W        W16760   1.792  30.925  11.074
48288W        W16761   5.884  25.997   2.873
48289W        W16762  29.530   5.233   1.902
48290W        W16763   9.771  43.007  14.280
48291W        W16764   0.248  18.243   0.259
48292W        W16765   3.834  22.540   4.751
48293W        W16766  35.414  19.726  10.986
48294W        W16767  43.827  19.247  14.394
48295W        W16768  20.769  29.001   1.913
48296W        W16769  21.703  16.698  11.986
48297W        W16770  11.229  10.312   2.354
48298W        W16771  11.370  25.525   0.891
48299W        W16772  27.149  17.743  14.841
48300W        W16773  11.157  33.598  10.486
48301W        W16774   6.241  22.220  14.301
48302W        W16775   4.907  27.540   4.307
48303W        W16776  25.148   7.341  11.495
48304W        W16777  26.652   9.762   1.281
48305W        W16778  28.167  21.656  13.312
48306W        W16779  12.841  19.115   4.756
48307W        W16780  31.521  32.516  12.922
48308W        W16781  18.182  20.591  14.840
48309W        W16782  24.643   9.367  11.467
48310W        W16783  12.678   9.664   2.767
48311W        W16784   7.365  31.915  13.310
48312W        W16785  30.434  26.053   3.293
48313W        W16786  44.315  28.601   0.778
48314W        W16787   7.778  25.600   1.393
48315W        W16788   1.882  25.980   2.672
48316W        W16789  28.588  29.972   2.888
48317W        W16790  42.902  34.401  13.831
48318W        W16791  24.047   3.250   5.137
48319W        W16792   2.411  12.236  10.945
48320W        W16793  14.651  21.554   3.713
48321W        W16794  41.790  44.322   4.258
48322W        W16795  35.561  39.371  14.358
48323W        W16796  38.329   3.918  10.409
48324W        W16797  34.478   1.376  13.883
48325W        W16798  33.467  33.922   2.675
48326W        W16799  30.060  42.502   1.222
48327W        W16800  35.428  19.736  14.938
48328W        W16801  16.682  19.174   2.335
48329W        W16802  17.069  38.867  14.874
48330W        W16803  35.540  12.627   1.346
48331W        W16804   2.722  34.109  11.945
48332W        W16805   2.888  14.189  10.520
48333W        W16806  32.457  22.101   0.377
48334W        W16807  34.003   3.874  12.377
48335W        W16808   3.781   2.445   4.300
48336W        W16809  18.730  14.283   4.610
48337W        W16810   9.867  40.824  12.554
48338W        W16811  17.285  41.968  11.870
48339W        W16812  11.646  17.704   0.342
48340W        W16813   8.313  44.935   4.325
48341W        W16814  36.906  44.818  12.468
48342W        W16815  31.023  23.194   9.586
48343W        W16816  17.603  24.038   0.469
48344W        W16817  14.641  16.302   0.263
48345W        W16818  44.436  22.577  14.304
48346W        W16819   2.317  17.258   1.749
48347W        W16820  35.925   8.360   3.293
48348W        W16821  28.934  34.472  10.446
48349W        W16822  41.989   9.805  10.642
48350W        W16823   1.807  35.063   3.160
48351W        W16824  41.812   3.913   1.806
48352W        W16825  30.521  33.936   2.272
48353W        W16826  43.969  24.154   0.880
48354W        W16827  28.048   0.494  14.378
48355W        W16828   7.792  28.588   0.316
48356W        W16829  43.363  42.506   2.756
48357W        W16830  21.591  21.104  14.019
48358W        W16831   9.237  14.300   3.706
48359W        W16832  37.944  25.596   0.861
48360W        W16833   3.256  26.569  14.995
48361W        W16834  16.305  13.250  14.416
48362W        W16835  35.972   7.678  12.388
48363W        W16836  23.012  12.138  13.001
48364W        W16837  15.111   0.324   3.235
48365W        W16838   8.732  33.503   3.794
48366W        W16839   9.232  23.162   9.947
48367W        W16840  12.857  32.115   4.732
48368W        W16841   6.829  16.709   3.382
48369W        W16842  10.853  32.550   4.256
48370W        W16843  40.365  10.651  14.933
48371W        W16844  37.961  10.377  12.952
48372W        W16845  42.962  16.812   3.262
48373W        W16846  15.597  20.762  11.377
48374W        W16847  28.585  18.772  11.095
48375W        W16848  31.060  19.539  11.974
48376W        W16849  36.930  40.998  14.417
48377W        W16850  15.700  30.066  10.992
48378W        W16851  21.059  12.344  10.508
48379W        W16852  39.424  38.380  11.590
48380W        W16853  42.402  21.713  12.081
48381W        W16854  20.584  39.023  14.425
48382W        W16855  28.037  41.323  13.334
48383W        W16856  43.464  44.856   3.789
48384W        W16857  37.851   2.728  14.278
48385W        W16858   4.220  21.026   4.644
48386W        W16859  23.023  13.679  11.592
48387W        W16860   0.776  20.151   2.343
48388W        W16861   6.263  32.624  13.380
48389W        W16862  13.746  32.553   4.762
48390W        W16863  37.414  28.964  10.613
48391W        W16864  33.017  42.368   4.302
48392W        W16865  29.489  44.432  10.050
48393W        W16866   5.835  14.296  12.555
48394W        W16867  28.125  40.452   2.210
48395W        W16868  41.879  26.036   1.829
48396W        W16869  43.796  17.737  14.892
48397W        W16870  31.127  24.586   0.315
48398W        W16871   8.774  35.069  12.963
48399W        W16872  42.331   6.376  14.291
48400W        W16873  42.787   9.267   1.925
48401W        W16874   2.766  31.984   1.906
48402W        W16875  21.727  31.009   0.755
48403W        W16876   8.889   9.727  13.927
48404W        W16877  15.748   7.260  12.027
48405W        W16878  44.381  21.161  12.522
48406W        W16879  11.633  16.642  14.492
48407W        W16880  17.168  38.868   5.191
48408W        W16881  23.074  30.949  12.376
48409W        W16882  38.853  31.509  12.539
48410W        W16883  25.154  15.658   0.404
48411W        W16884   9.733  17.228   1.213
48412W        W16885  21.625  12.219  11.940
48413W        W16886  10.745   0.344   2.733
48414W        W16887  28.450  16.149   2.289
48415W        W16888  26.481  28.667  12.996
48416W        W16889   7.842  42.326   3.665
48417W        W16890  19.709  42.895   1.863
48418W        W16891  20.585  13.839  13.976
48419W        W16892   1.966  34.471   3.734
48420W        W16893  13.796  28.039   3.635
48421W        W16894   3.717  26.653   2.785
48422W        W16895  19.111  36.420  14.333
48423W        W16896   2.313  19.612  11.945
48424W        W16897  22.054  34.385  13.879
48425W        W16898  22.103  31.603  11.083
48426W        W16899   5.841   6.762   3.810
48427W        W16900   4.910  42.018  11.021
48428W        W16901  42.347  27.511   1.843
48429W        W16902  13.709  37.539   2.769
48430W        W16903  26.172  26.699  11.552
48431W        W16904  24.702  32.122   1.874
48432W        W16905  36.952   3.332  13.927
48433W        W16906  33.983  40.448  13.036
48434W        W16907  10.657  38.928  13.892
48435W        W16908   1.366   9.252  11.390
48436W        W16909  25.074  26.104   3.242
48437W        W16910   9.390  41.393  10.982
48438W        W16911  30.526  44.909   0.936
48439W        W16912  32.128  24.096   0.356
48440W        W16913  23.167  21.240   2.396
48441W        W16914  35.534  34.572  10.933
48442W        W16915  11.637  18.111  12.455
48443W        W16916   5.424  32.499   2.248
48444W        W16917  28.143  11.843  11.099
48445W        W16918  12.827  31.019  11.903
48446W        W16919   8.753  40.953  11.573
48447W        W16920  30.027   3.903   3.703
48448W        W16921  27.160   4.304  11.600
48449W        W16922  43.495  36.027  12.840
48450W        W16923   6.208  21.097  10.069
48451W        W16924  35.075  21.717  13.423
48452W        W16925  16.147  34.005   2.754
48453W        W16926  33.574   6.913   2.298
48454W        W16927   3.249  14.224  13.959
48455W        W16928  37.973   0.382  12.437
48456W        W16929  26.999  30.524   0.335
48457W        W16930  44.920  12.836   4.766
48458W        W16931   7.290  42.867   3.782
48459W        W16932   9.164  33.622  13.330
48460W        W16933  40.355  35.541   0.806
48461W        W16934  34.455  31.078   1.270
48462W        W16935  18.671  23.179   2.205
48463W        W16936  39.407  35.084  13.380
48464W        W16937   3.301  19.616   3.158
48465W        W16938  42.397  13.781  14.011
48466W        W16939  35.995  42.446   1.440
48467W        W16940   1.378  32.049   2.722
48468W        W16941  37.024  15.592   3.653
48469W        W16942  42.461   3.841  13.373
48470W        W16943  26.605  44.879  10.579
48471W        W16944   3.913   4.797   3.329
48472W        W16945  30.145   0.836   1.263
48473W        W16946   9.186  31.446   3.744
48474W        W16947  30.125   3.850   2.689
48475W        W16948  25.676  18.252  14.338
48476W        W16949  14.818  13.138   2.248
48477W        W16950  39.044  28.137  11.037
48478W        W16951  34.896  41.350   2.873
48479W        W16952   3.286  36.037   2.335
48480W        W16953   0.926  35.601  10.429
48481W        W16954  38.009  15.088  10.407
48482W        W16955  20.577   5.348   3.297
48483W        W16956  12.210   7.792  11.486
48484W        W16957  41.873  20.575   4.693
48485W        W16958  35.992  43.335   0.484
48486W        W16959  39.905  24.565  10.964
48487W        W16960  30.907  21.238   1.800
48488W        W16961  37.869  39.035   0.328
48489W        W16962  19.658  20.715   1.364
48490W        W16963  20.066  23.176   4.726
48491W        W16964  24.211   4.701  14.782
48492W        W16965   3.384   2.250  12.063
48493W        W16966   9.265  27.987   3.826
48494W        W16967   5.774  38.399   4.173
48495W        W16968  13.229  13.292   4.231
48496W        W16969   0.487  26.641   3.234
48497W        W16970  21.613  40.422   0.810
48498W        W16971   3.320  12.191  10.931
48499W        W16972  26.065  29.949   3.779
48500W        W16973   6.317  43.811   0.327
48501W        W16974  36.492  41.441  14.434
48502W        W16975   8.295   6.419   0.753
48503W        W16976  21.518  25.096  11.588
48504W        W16977  26.023  33.115  13.900
48505W        W16978  28.094  16.119  12.470
48506W        W16979  25.506  10.205   2.797
48507W        W16980  18.608  10.330  13.022
48508W        W16981  26.572  38.530   4.238
48509W        W16982  41.298  39.033  11.981
48510W        W16983   7.250   2.943   0.442
48511W        W16984  27.989   0.440  12.411
48512W        W16985  32.601   1.258  13.923
48513W        W16986  36.037  33.004   2.732
48514W        W16987   5.405   8.358   2.177
48515W        W16988   2.729  40.009  13.805
48516W        W16989   8.744   6.199  13.401
48517W        W16990  28.503   3.437   2.214
48518W        W16991  26.589  36.917   4.783
48519W        W16992  28.481   3.358  14.832
48520W        W16993  25.609   1.838  12.500
48521W        W16994  16.157  17.211   1.278
48522W        W16995  20.055  41.312  11.028
48523W        W16996  32.981  26.528   1.279
48524W        W16997  35.387   4.940   2.412
48525W        W16998  22.525   2.731   3.213
48526W        W16999  33.578  27.507  12.848
48527W        W17000  16.719  25.551  13.811
48528W        W17001  38.431  42.781   9.926
48529W        W17002   1.930  16.107   3.653
48530W        W17003  17.610  19.050   0.948
48531W        W17004  18.254  25.177   2.709
48532W        W17005  20.591  37.389  13.401
48533W        W17006  22.623  40.851  10.997
48534W        W17007  18.246   0.436  14.302
48535W        W17008  15.620  14.730   2.880
48536W        W17009   2.405  11.668  11.925
48537W        W17010  24.503  38.469   1.749
48538W        W17011  44.800  15.747  10.430
48539W        W17012  20.737   8.761   1.722
48540W        W17013  18.209  21.747  11.494
48541W        W17014  25.109  29.597   0.314
48542W        W17015  24.002  11.159   3.159
48543W        W17016  38.434   0.463  14.398
48544W        W17017  42.015  31.951   4.802
48545W        W17018  11.218  10.789  14.975
48546W        W17019  13.635   8.795   3.696
48547W        W17020   7.728  34.511  13.326
48548W        W17021  35.079  28.540   3.703
48549W        W17022  41.955   5.305   3.633
48550W        W17023  20.743  30.907  11.916
48551W        W17024   8.815   1.920  10.152
48552W        W17025  17.090  35.975  10.545
48553W        W17026  43.916  15.622  12.848
48554W        W17027  40.348   7.204   1.302
48555W        W17028  19.622  14.768  12.025
48556W        W17029   8.764  33.623   3.147
48557W        W17030  29.425  32.594  10.544
48558W        W17031  25.972  35.868   3.356
48559W        W17032  18.251  25.113  10.495
48560W        W17033  13.635  34.536  10.943
48561W        W17034  25.504  21.096   2.372
48562W        W17035   7.801  12.624  12.479
48563W        W17036  37.914  16.714  11.903
48564W        W17037  11.316   9.390   1.274
48565W        W17038  22.626  15.693  12.580
48566W        W17039  38.500  17.781  12.476
48567W        W17040   9.197   3.882  11.902
48568W        W17041  44.332  38.330  14.404
48569W        W17042  35.570  32.024  13.405
48570W        W17043  20.221   8.316  12.404
48571W        W17044   5.741  34.386  13.430
48572W        W17045   5.366  10.182   1.354
48573W        W17046  25.670  22.124  13.548
48574W        W17047  34.587  29.480  14.000
48575W        W17048  12.738  22.017   0.462
48576W        W17049  12.336  37.847  14.478
48577W        W17050  39.525  32.007  14.496
48578W        W17051  42.031  25.571   2.848
48579W        W17052  18.790  23.018  12.516
48580W        W17053  25.030  21.648  13.010
48581W        W17054  19.656  34.104   1.382
48582W        W17055  34.059  40.922   4.647
48583W        W17056  33.416   7.838  13.509
48584W        W17057  16.641  34.529  13.058
48585W        W17058  16.088  30.959  10.603
48586W        W17059  11.154  39.932   1.420
48587W        W17060  21.041   6.265  10.966
48588W        W17061  42.950  23.164   4.163
48589W        W17062  13.818  21.587  12.018
48590W        W17063  14.197  27.071  14.294
48591W        W17064   8.685   9.288  13.872
48592W        W17065  26.981  11.856  10.098
48593W        W17066  20.223  34.893  14.419
48594W        W17067   3.242   9.798   3.823
48595W        W17068  25.601  30.067   0.743
48596W        W17069  40.512  39.887  12.435
48597W        W17070  15.730  38.874   0.464
48598W        W17071  31.577   7.786   2.315
48599W        W17072  33.384  30.466  10.549
48600W        W17073   3.455  21.018   3.644
48601W        W17074  24.082  36.896   0.368
48602W        W17075  44.867  22.651  12.958
48603W        W17076  12.216  11.225  10.467
48604W        W17077  11.829   2.943   2.307
48605W        W17078  35.908  24.034   2.686
48606W        W17079  40.896  11.143  11.008
48607W        W17080  24.032  44.837   1.337
48608W        W17081  15.139  24.682   4.320
48609W        W17082  25.068  34.567  11.998
48610W        W17083  42.878  13.248   2.191
48611W        W17084  26.138  18.713  14.337
48612W        W17085  33.469  18.188   1.825
48613W        W17086  17.666  23.557   3.244
48614W        W17087  44.993  30.583  12.917
48615W        W17088  33.980  23.596   1.885
48616W        W17089  18.767  16.233  12.061
48617W        W17090  38.894   0.451   3.635
48618W        W17091  22.678  38.994  10.440
48619W        W17092  27.151  32.981   4.138
48620W        W17093  16.138   2.799  11.556
48621W        W17094  24.187   0.806  10.119
48622W        W17095  35.991  44.305   4.211
48623W        W17096  20.738   1.418  14.493
48624W        W17097  33.051  36.409  10.997
48625W        W17098   9.769  24.711  11.554
48626W        W17099  30.456  10.178   2.393
48627W        W17100  35.412  35.417   4.745
48628W        W17101  40.341  12.313  12.066
48629W        W17102  21.202  43.988   1.243
48630W        W17103   9.236  33.890   1.253
48631W        W17104  38.410  10.651  13.812
48632W        W17105   7.376  23.534   0.849
48633W        W17106  22.235  36.086   3.724
48634W        W17107  33.443  22.519  12.845
48635W        W17108  39.375  25.595  10.951
48636W        W17109  18.623  24.049   0.386
48637W        W17110  19.762  43.899  11.874
48638W        W17111  14.714   3.864   4.343
48639W        W17112   7.798  10.272   2.294
48640W        W17113  19.652  26.677   1.287
48641W        W17114  42.993  28.489  11.981
48642W        W17115  28.983  41.497   3.689
48643W        W17116  38.551  24.625  11.462
48644W        W17117  30.115  13.619  14.825
48645W        W17118  32.593   5.870   1.784
48646W        W17119  27.503  23.493  14.458
48647W        W17120  28.958  16.731  13.859
48648W        W17121   6.301  10.325   1.447
48649W        W17122   2.795  20.705   3.827
48650W        W17123  36.404   6.678  13.838
48651W        W17124   2.896  10.847   2.877
48652W        W17125  30.558  22.050  10.461
48653W        W17126  41.357  41.339   2.855
48654W        W17127  37.056  17.075  12.481
48655W        W17128  15.809  24.638   1.296
48656W        W17129  16.694  15.641  11.893
48657W        W17130  32.965   1.285   4.126
48658W        W17131  10.873  41.423  10.510
48659W        W17132  24.191  44.931   3.149
48660W        W17133  11.367  17.086  11.583
48661W        W17134  44.786  38.852  14.469
48662W        W17135  12.818  33.604   4.736
48663W        W17136  40.461  29.969  10.633
48664W        W17137  13.302   5.893   3.292
48665W        W17138  36.001  42.482  11.494
48666W        W17139  11.862  43.405  14.275
48667W        W17140   6.882  17.565  12.346
48668W        W17141  26.509  17.267   4.269
48669W        W17142  29.667  32.420   0.819
48670W        W17143  13.829   3.440  11.930
48671W        W17144  31.064   5.338   3.166
48672W        W17145  21.143  20.576  12.379
48673W        W17146  23.040   1.764  11.439
48674W        W17147   7.795  26.560   4.184
48675W        W17148  21.575  29.575  12.513
48676W        W17149  23.043  12.785  14.324
48677W        W17150  22.508  19.235   0.783
48678W        W17151  34.383  25.161  12.994
48679W        W17152  32.024  38.466   1.930
48680W        W17153  20.684  11.694   3.216
48681W        W17154  25.099  36.571  13.345
48682W        W17155  38.879   0.250   2.750
48683W        W17156  28.564  21.214  11.405
48684W        W17157  40.368  28.039   3.153
48685W        W17158  15.650  24.115   0.792
48686W        W17159  36.450  15.127  10.546
48687W        W17160  18.230  14.257   3.289
48688W        W17161  16.306  14.206  13.530
48689W        W17162  39.410  25.700   4.295
48690W        W17163  23.225  15.267   4.783
48691W        W17164  44.907  33.944   3.766
48692W        W17165  28.561   2.808   0.917
48693W        W17166  14.212  24.228   3.291
48694W        W17167  30.992   1.795   1.299
48695W        W17168  27.489  35.515   1.436
48696W        W17169  44.803  28.000   2.785
48697W        W17170  21.572  11.750  14.372
48698W        W17171  16.077   3.404   5.081
48699W        W17172  27.455  44.947   4.696
48700W        W17173   7.335  44.497  13.449
48701W        W17174  38.401  42.904   0.962
48702W        W17175   6.910  42.351   3.829
48703W        W17176  37.385   1.481  14.281
48704W        W17177   8.770   1.380  13.840
48705W        W17178  22.522  14.750  12.976
48706W        W17179  28.494   2.353  13.959
48707W        W17180  32.627  25.484  12.516
48708W        W17181   3.847  37.550   3.757
48709W        W17182   9.790  41.392  11.479
48710W        W17183  19.264  40.316  10.636
48711W        W17184   7.208   2.953  10.939
48712W        W17185   0.299   7.196   0.892
48713W        W17186  19.280   8.789   3.751
48714W        W17187  13.622  29.993   0.958
48715W        W17188  20.247  31.100  12.036
48716W        W17189  18.589  12.229   3.239
48717W        W17190  36.998   1.335  11.117
48718W        W17191  44.471  10.239   0.473
48719W        W17192  24.482   6.820   3.348
48720W        W17193   7.248  22.052   0.324
48721W        W17194  39.391  19.171  13.802
48722W        W17195  18.631   7.322   1.342
48723W        W17196  39.834  11.621  12.508
48724W        W17197  38.881   2.261   0.406
48725W        W17198  38.372  21.599  12.914
48726W        W17199   0.432  29.575  12.941
48727W        W17200  42.847   7.222   0.822
48728W        W17201  44.906  26.981   0.391
48729W        W17202  21.645  13.137   0.922
48730W        W17203  26.147  40.001   4.779
48731W        W17204  14.614   1.435   4.810
48732W        W17205   4.774  10.236  13.438
48733W        W17206  15.774   9.372   1.264
48734W        W17207  40.872  19.197   1.391
48735W        W17208  27.135  31.134   3.806
48736W        W17209  16.083   3.342  12.038
48737W        W17210  42.834  42.992   2.781
48738W        W17211  32.618  38.028   0.902
48739W        W17212   1.740  37.409   2.358
48740W        W17213  36.382   0.469  11.925
48741W        W17214  31.946   2.935  13.530
48742W        W17215   2.801  36.073   3.171
48743W        W17216  30.056  37.944   4.702
48744W        W17217  35.466   0.955  11.083
48745W        W17218  38.917  44.284   1.763
48746W        W17219  34.990  21.558  13.015
48747W        W17220   3.814  13.628  13.442
48748W        W17221  42.895   3.417   3.767
48749W        W17222   3.729  37.482  13.916
48750W        W17223   6.779   2.388  11.406
48751W        W17224  15.226  30.581  13.974
48752W        W17225   0.372  16.168   0.775
48753W        W17226  17.215   7.830   0.882
48754W        W17227  22.523   4.903   1.775
48755W        W17228  39.916   9.243   1.444
48756W        W17229  39.878   6.321  14.838
48757W        W17230  11.215   7.907   4.608
48758W        W17231   6.689  27.122   0.427
48759W        W17232  25.504  11.739   0.376
48760W        W17233  23.633  18.127   2.394
48761W        W17234  30.987  22.124   2.827
48762W        W17235  32.615   2.313  11.430
48763W        W17236   7.244   0.761   3.745
48764W        W17237  19.708  43.957  12.550
48765W        W17238  22.524  14.665   1.287
48766W        W17239   3.904  27.162  13.922
48767W        W17240  20.248  13.604   2.810
48768W        W17241  14.239   3.241  14.866
48769W        W17242   4.350  19.116  13.792
48770W        W17243  17.112  15.214   2.369
48771W        W17244  14.134  39.324   0.902
48772W        W17245   4.855  44.774  13.347
48773W        W17246  35.984  42.291   3.382
48774W        W17247  12.809  35.938  11.397
48775W        W17248   8.364  38.528  13.326
48776W        W17249   8.829   2.333  13.548
48777W        W17250  17.753  10.767  13.462
48778W        W17251  29.981  27.026  11.010
48779W        W17252   5.310  15.261   5.170
48780W        W17253  23.167  33.621   0.919
48781W        W17254  34.529   1.347  12.349
48782W        W17255  34.958  26.517   5.165
48783W        W17256  27.657  27.004  13.902
48784W        W17257  41.871  29.477  13.051
48785W        W17258  43.794  33.130  10.479
48786W        W17259  41.401  44.473   3.735
48787W        W17260  11.701   1.301   2.296
48788W        W17261  26.684  38.042   2.367
48789W        W17262  15.784  25.477   1.715
48790W        W17263  16.128  23.085  14.284
48791W        W17264  24.583  35.880   0.913
48792W        W17265  29.166  32.567   4.168
48793W        W17266  12.614  19.200  11.498
48794W        W17267  29.541  38.471  12.400
48795W        W17268  37.846  36.993  13.850
48796W        W17269   0.418  14.605   4.183
48797W        W17270  10.350  11.774   4.689
48798W        W17271  31.951   0.270  11.936
48799W        W17272   3.445  37.498   0.788
48800W        W17273  19.225  27.517  13.044
48801W        W17274  39.841   5.272  14.882
48802W        W17275  40.514  34.596   4.146
48803W        W17276  31.115  38.979  10.637
48804W        W17277  20.095   3.281   0.916
48805W        W17278  36.414   3.943   2.262
48806W        W17279  39.962  39.818   4.204
48807W        W17280  36.424  43.407   2.249
48808W        W17281   0.260  35.953  12.981
48809W        W17282  16.291   0.349  11.501
48810W        W17283   8.362  41.864  12.399
48811W        W17284   4.902  31.502  13.897
48812W        W17285  43.967  18.652   4.325
48813W        W17286   5.309  19.238   4.231
48814W        W17287   3.736  39.968   3.642
48815W        W17288  36.503  30.079  10.912
48816W        W17289  19.700  27.018   4.216
48817W        W17290  34.612  42.832   3.691
48818W        W17291  22.095  15.722  12.977
48819W        W17292   7.771   7.255   4.169
48820W        W17293  22.576  36.558  14.955
48821W        W17294  26.064  14.106  13.342
48822W        W17295  16.077  42.437   2.214
48823W        W17296  42.030  20.584  11.573
48824W        W17297  16.186  33.020   3.336
48825W        W17298  33.533   7.220  13.797
48826W        W17299  39.052   8.227   2.280
48827W        W17300  30.657  13.817   0.727
48828W        W17301  27.477  38.446   0.800
48829W        W17302  22.207  10.662   3.861
48830W        W17303  30.106  36.435   3.359
48831W        W17304  31.988   2.400   3.170
48832W        W17305  25.612  25.021   4.312
48833W        W17306  10.775   2.736   0.954
48834W        W17307   4.735  41.367  11.907
48835W        W17308  24.143   5.244  12.536
48836W        W17309   3.349  13.147  11.378
48837W        W17310  35.873  33.926  13.057
48838W        W17311  44.857  42.523   3.363
48839W        W17312   1.465  11.211  11.997
48840W        W17313   4.217  37.447  13.356
48841W        W17314  37.033  19.612  14.286
48842W        W17315   5.867  42.504   0.958
48843W        W17316  43.274  32.635  12.056
48844W        W17317  36.521  26.543   9.928
48845W        W17318  10.666  40.504   3.302
48846W        W17319  20.704  12.619   0.375
48847W        W17320  22.679  16.275  11.075
48848W        W17321  19.222  18.156   3.279
48849W        W17322  22.180  22.516  12.935
48850W        W17323  37.069  41.448  13.917
48851W        W17324  21.625   0.451   4.253
48852W        W17325  16.239  31.478  13.852
48853W        W17326   6.387   4.863  13.547
48854W        W17327  15.162  30.441  11.448
48855W        W17328  13.802  31.452  11.060
48856W        W17329  31.100  41.975   0.286
48857W        W17330  41.353  35.527   3.250
48858W        W17331  18.250  19.193   2.292
48859W        W17332   7.270   3.425  13.446
48860W        W17333  28.607  44.485   1.376
48861W        W17334   2.366   3.822   0.279
48862W        W17335  42.449  20.127  14.922
48863W        W17336  28.981  20.230   4.728
48864W        W17337  17.769  32.581   1.778
48865W        W17338  39.858  38.053  14.885
48866W        W17339  13.679  23.205  12.966
48867W        W17340   8.310  24.015  11.455
48868W        W17341  33.050  17.719  13.478
48869W        W17342  19.734   1.934  11.117
48870W        W17343  35.382  22.146   0.296
48871W        W17344  35.508  24.223  10.449
48872W        W17345  30.099  19.158   3.853
48873W        W17346  25.535  12.649  11.555
48874W        W17347   8.800  44.291   2.184
48875W        W17348  23.519  39.322   3.835
48876W        W17349  26.065  16.657   2.698
48877W        W17350   7.673   4.417  10.566
48878W        W17351  39.529  41.969   0.410
48879W        W17352  31.082  19.650   3.775
48880W        W17353  44.815  10.291   2.834
48881W        W17354   7.388  40.412   1.735
48882W        W17355   8.860  28.480  13.021
48883W        W17356  28.121  43.957   0.297
48884W        W17357   2.818  19.117   2.344
48885W        W17358  34.389  30.586   4.201
48886W        W17359  17.228   1.841  14.838
48887W        W17360  33.452   1.475  12.344
48888W        W17361   9.706   9.261   3.817
48889W        W17362  43.338  13.750   2.734
48890W        W17363  32.509  18.288   4.629
48891W        W17364  25.568  26.596  12.844
48892W        W17365  27.515  33.929  12.874
48893W        W17366  39.391  16.711  13.996
48894W        W17367   8.204  28.985   4.313
48895W        W17368  15.598  39.559   2.816
48896W        W17369  11.224  33.533   2.338
48897W        W17370  42.438  18.610  14.872
48898W        W17371  22.172   0.836   0.408
48899W        W17372  19.137   4.883   3.802
48900W        W17373  26.192  30.940  14.021
48901W        W17374  41.508  13.794  14.329
48902W        W17375  43.839   7.248  13.399
48903W        W17376  14.599  16.196   3.174
48904W        W17377   8.796  13.309  12.039
48905W        W17378  17.691  31.509   2.292
48906W        W17379  26.498  13.699   1.386
48907W        W17380  29.431  38.402  13.357
48908W        W17381  30.508  26.059  14.882
48909W        W17382  24.104  23.734  14.018
48910W        W17383   0.369   5.278  11.025
48911W        W17384  37.021   5.254  11.030
48912W        W17385  43.288  44.921   1.352
48913W        W17386  43.868   0.890   0.481
48914W        W17387  39.880  17.767  11.995
48915W        W17388  39.532  15.224  13.017
48916W        W17389  23.681   8.275   2.704
48917W        W17390  17.262   8.404  11.536
48918W        W17391  40.978   9.726  14.426
48919W        W17392  44.792  42.807   0.870
48920W        W17393  40.439   6.766   0.952
48921W        W17394   9.232  15.577  10.907
48922W        W17395  36.539  39.442  12.458
48923W        W17396  18.786  38.527  13.874
48924W        W17397   5.830  10.730   1.298
48925W        W17398  40.349   2.741  12.369
48926W        W17399  26.962   1.907  11.877
48927W        W17400  24.681  14.658   1.416
48928W        W17401  12.794   8.169  12.403
48929W        W17402  18.790  28.435  13.323
48930W        W17403  38.438  31.576   0.744
48931W        W17404  15.616  37.572   3.190
48932W        W17405  38.849  31.601  13.494
48933W        W17406  27.167  27.678  12.019
48934W        W17407  24.515  27.986  13.513
48935W        W17408  20.182  33.416  13.324
48936W        W17409  26.981  39.051   4.744
48937W        W17410  14.789  40.450  11.496
48938W        W17411  26.530  37.509   2.226
48939W        W17412  13.723   7.855   2.781
48940W        W17413   7.184  31.483   4.823
48941W        W17414  13.151  39.991   0.867
48942W        W17415   5.380  42.854   4.320
48943W        W17416  10.301   1.775   4.812
48944W        W17417  31.062  10.280   0.910
48945W        W17418  19.098  13.232   0.770
48946W        W17419   1.750   7.296   3.712
48947W        W17420  10.740  14.769   0.768
48948W        W17421  26.156  13.324  11.078
48949W        W17422  36.386  32.031   4.735
48950W        W17423  24.005  39.972  11.990
48951W        W17424  12.172  36.987   3.747
48952W        W17425   3.442  25.635   0.945
48953W        W17426  41.474   4.226   1.730
48954W        W17427  20.228  37.451  14.332
48955W        W17428   6.191  26.535   5.223
48956W        W17429  27.193  19.249  12.470
48957W        W17430  35.951  42.836  14.786
48958W        W17431   3.744  24.662  14.283
48959W        W17432  16.166  24.701   2.859
48960W        W17433   0.749  19.282  10.920
48961W        W17434  39.950  11.355   3.228
48962W        W17435  29.540  30.548   2.283
48963W        W17436  15.105   7.334  13.915
48964W        W17437  21.027  43.005  14.279
48965W        W17438  44.839   6.281   9.925
48966W        W17439   4.920  22.566   2.876
48967W        W17440  29.440  25.528   4.767
48968W        W17441  25.623  13.315   4.271
48969W        W17442  42.804  15.591   4.324
48970W        W17443  13.154   3.272  10.620
48971W        W17444  17.741  14.771  14.799
48972W        W17445  20.733  21.148  14.861
48973W        W17446  21.719  41.872   0.966
48974W        W17447   4.864  42.525   1.873
48975W        W17448  16.621  38.429  14.384
48976W        W17449  43.954  13.611  13.924
48977W        W17450  13.304  22.227   2.202
48978W        W17451  42.447  36.517   4.770
48979W        W17452   0.461  14.171   1.854
48980W        W17453   4.812  23.602   0.767
48981W        W17454  33.114  24.123   1.283
48982W        W17455  30.632  34.451  13.965
48983W        W17456  22.058   0.473   1.358
48984W        W17457   5.908   7.849  10.957
48985W        W17458  16.792  42.874  12.028
48986W        W17459  30.585  44.492  14.919
48987W        W17460  28.043   5.252  11.374
48988W        W17461   3.378   7.725  13.833
48989W        W17462  37.018   5.432  11.384
48990W        W17463  36.912   3.814  14.809
48991W        W17464  35.051   3.398   0.343
48992W        W17465  27.524  29.950   0.954
48993W        W17466  10.699  36.044   3.152
48994W        W17467  24.518  10.821  11.425
48995W        W17468  14.632  34.068  11.375
48996W        W17469  37.921  12.649   0.937
48997W        W17470  19.053  16.164   1.700
48998W        W17471   8.288  36.072   0.929
48999W        W17472   9.667   2.271   0.258
49000W        W17473   3.266   9.714  14.857
49001W        W17474   1.371  38.891  12.413
49002W        W17475  12.205  33.427  14.365
49003W        W17476  19.079  38.987   3.667
49004W        W17477  43.349  33.608  14.486
49005W        W17478  14.319  29.453  10.564
49006W        W17479  40.853  32.458  10.560
49007W        W17480  35.362  24.648   3.807
49008W        W17481  42.864  27.677  12.492
49009W        W17482  24.007   9.355  11.544
49010W        W17483  16.754  22.617  14.814
49011W        W17484   0.287  42.843   4.611
49012W        W17485  27.972  22.194   1.247
49013W        W17486  34.032  40.375   1.867
49014W        W17487  30.541  11.658   1.894
49015W        W17488  41.481  22.187   0.943
49016W        W17489  28.513   8.288  13.465
49017W        W17490  24.555  37.975   4.598
49018W        W17491   2.307  19.546   4.673
49019W        W17492  16.226  40.940   0.454
49020W        W17493   7.759   0.368  11.086
49021W        W17494   3.275   8.299   2.376
49022W        W17495  17.094   0.449  11.455
49023W        W17496  41.820   9.665  11.477
49024W        W17497   6.425  34.964   0.866
49025W        W17498  27.622  20.248   3.182
49026W        W17499  14.327  44.758   1.320
49027W        W17500   1.936  10.678  14.319
49028W        W17501  28.079  39.864   2.387
49029W        W17502  41.791   7.761  13.956
49030W        W17503   5.748  15.606   2.674
49031W        W17504  32.466   5.308  13.934
49032W        W17505  36.387   7.893   0.850
49033W        W17506   3.902  10.712  13.504
49034W        W17507  26.169  27.032   2.213
49035W        W17508  36.962   0.882   1.734
49036W        W17509   1.972  19.096  12.987
49037W        W17510  10.164   6.234   0.777
49038W        W17511  16.082  37.027  13.507
49039W        W17512  13.739  24.150  13.798
49040W        W17513  35.471  42.797  12.478
49041W        W17514  13.642  10.760  11.557
49042W        W17515  36.055  24.533  12.558
49043W        W17516  31.048  16.691   0.407
49044W        W17517   9.847   4.232   1.405
49045W        W17518  10.199  41.476  13.482
49046W        W17519  36.369   7.694  14.874
49047W        W17520  23.051   7.341   2.732
49048W        W17521  17.092  15.774  13.825
49049W        W17522  15.584  15.324   1.898
49050W        W17523   1.844  16.238  13.317
49051W        W17524   2.462   9.772   2.790
49052W        W17525   0.918  22.206  12.908
49053W        W17526  25.567   8.170   1.868
49054W        W17527   3.215  26.003  14.438
49055W        W17528  32.456   7.202   1.298
49056W        W17529  11.221  28.638  11.430
49057W        W17530   6.334  26.519  10.609
49058W        W17531  23.638  24.486  13.410
49059W        W17532   6.414  38.017   4.229
49060W        W17533   4.804   1.812  13.452
49061W        W17534  36.375  17.174  14.459
49062W        W17535  18.593  15.717  13.991
49063W        W17536  30.593   9.357   0.284
49064W        W17537  39.846  12.824  10.560
49065W        W17538  35.463  26.208  12.995
49066W        W17539  29.988  29.606  14.927
49067W        W17540   6.824  13.307   4.801
49068W        W17541  38.898   6.340   3.845
49069W        W17542  20.035   5.230  12.986
49070W        W17543   9.717  25.530  13.865
49071W        W17544  22.602  23.676   2.210
49072W        W17545  22.628   1.420  12.409
49073W        W17546  23.613  15.617  13.313
49074W        W17547  20.150   3.374  10.630
49075W        W17548  10.836  20.689  12.052
49076W        W17549  38.559  41.883  13.422
49077W        W17550  34.926  15.620  11.494
49078W        W17551  24.674  38.352  12.000
49079W        W17552  28.113  19.075  12.015
49080W        W17553  42.347   5.247   0.434
49081W        W17554  22.684   6.247  12.961
49082W        W17555  15.224  36.034  10.509
49083W        W17556  43.878  30.609  14.469
49084W        W17557   9.211  11.665  10.460
49085W        W17558   2.797  11.316  13.936
49086W        W17559  19.075  42.818  10.905
49087W        W17560   4.789  29.937   1.313
49088W        W17561  40.865  34.596   3.383
49089W        W17562  25.010  20.220   1.440
49090W        W17563  44.407  32.970  11.454
49091W        W17564  12.212  33.476  11.893
49092W        W17565  41.973  18.273   0.373
49093W        W17566  38.990  11.252  10.588
49094W        W17567   3.918  41.848  11.561
49095W        W17568  30.156   3.438  12.920
49096W        W17569   4.355   6.291   2.232
49097W        W17570  25.594  22.012  10.637
49098W        W17571   5.687   1.788   1.428
49099W        W17572  41.998  19.078  11.372
49100W        W17573  37.444  11.781   1.842
49101W        W17574   5.221  35.035   3.329
49102W        W17575  37.043  13.692   0.732
49103W        W17576   8.243  36.984   1.728
49104W        W17577  43.276  16.621   4.630
49105W        W17578  27.467  22.612   2.793
49106W        W17579   5.319  13.732   3.765
49107W        W17580  23.683  39.521   3.312
49108W        W17581   2.395  42.317  11.537
49109W        W17582   1.795  35.004   0.395
49110W        W17583   0.858  39.913  13.890
49111W        W17584  29.042  23.068  14.385
49112W        W17585  16.753  38.407  11.983
49113W        W17586  15.604   0.394  14.019
49114W        W17587  22.701  37.082  10.891
49115W        W17588  29.072   2.874  12.080
49116W        W17589   2.863   7.312  11.957
49117W        W17590  33.431   7.416  10.477
49118W        W17591  30.056   1.378   0.415
49119W        W17592  32.427  15.705   2.273
49120W        W17593  15.696   3.920   1.853
49121W        W17594  32.498  32.128   3.194
49122W        W17595  21.743   9.337  11.571
49123W        W17596  11.832  15.610   2.813
49124W        W17597  13.644  15.204   4.747
49125W        W17598  25.473  37.492   1.351
49126W        W17599  11.711  30.013   0.788
49127W        W17600  14.217  22.112  10.419
49128W        W17601   4.855  41.388  12.871
49129W        W17602   6.225  13.145  12.547
49130W        W17603  32.032  17.129   0.478
49131W        W17604  23.171  32.552   1.894
49132W        W17605  24.081  25.128   3.702
49133W        W17606  32.421  42.353   3.270
49134W        W17607   4.224   3.379   1.696
49135W        W17608   2.260  30.433   2.815
49136W        W17609  20.614  18.597   0.366
49137W        W17610  44.461   1.468  13.938
49138W        W17611  28.985  28.168   2.729
49139W        W17612  14.317  23.107  12.538
49140W        W17613  18.155  23.065  13.464
49141W        W17614  37.065  29.509  11.567
49142W        W17615  31.577  16.574  14.501
49143W        W17616   4.288  32.886  10.893
49144W        W17617   5.887  39.363   2.898
49145W        W17618  15.670  34.986  10.589
49146W        W17619  35.483  16.072   1.752
49147W        W17620  29.554   9.156  13.802
49148W        W17621  25.649  36.926  12.567
49149W        W17622  32.980  14.168   4.225
49150W        W17623  35.983  36.536   3.770
49151W        W17624  21.122   8.327   2.871
49152W        W17625   0.337  36.423   0.385
49153W        W17626  15.628  38.448   2.797
49154W        W17627  39.875  33.025  11.560
49155W        W17628  15.651  40.020  10.437
49156W        W17629  23.111  40.932  14.365
49157W        W17630  32.030   0.476  13.795
49158W        W17631  37.351  31.631  12.475
49159W        W17632  43.388   7.782  13.005
49160W        W17633  34.558  38.413  11.552
49161W        W17634  18.132  33.965  11.595
49162W        W17635  28.661  10.224  12.403
49163W        W17636  16.141  15.149  11.438
49164W        W17637  29.954  18.630  14.863
49165W        W17638   4.800  27.146  14.388
49166W        W17639  37.549  30.588  14.008
49167W        W17640  33.422  33.414   1.232
49168W        W17641  33.023  27.466  11.917
49169W        W17642  27.529  41.935   2.307
49170W        W17643  26.056   2.233   1.447
49171W        W17644  20.710  41.292  14.878
49172W        W17645  42.505  30.094   2.820
49173W        W17646   1.763   6.687   1.266
49174W        W17647   9.705  36.043  12.867
49175W        W17648  41.526  25.002   1.770
49176W        W17649  44.899  44.806  12.427
49177W        W17650  16.621  36.569  13.810
49178W        W17651   6.401  17.149  13.927
49179W        W17652  43.514  28.444  13.027
49180W        W17653  21.529   4.377  14.954
49181W        W17654  21.646  14.127  12.440
49182W        W17655   0.914   9.394   0.812
49183W        W17656  42.989  28.081   2.399
49184W        W17657   8.244  34.518   4.663
49185W        W17658  30.955  12.632   1.923
49186W        W17659  11.668  32.911  12.504
49187W        W17660  23.230  35.520  14.900
49188W        W17661  27.487  26.029  10.543
49189W        W17662  40.884  31.041  13.912
49190W        W17663  14.752   5.296   2.817
49191W        W17664   4.718  38.380   2.866
49192W        W17665  30.544   8.708   4.681
49193W        W17666  22.122  34.973   4.817
49194W        W17667  16.288  19.560  13.013
49195W        W17668   9.180  31.440  14.915
49196W        W17669  12.663  28.025  12.884
49197W        W17670  12.198  37.890   0.399
49198W        W17671  14.808  32.543  12.382
49199W        W17672   8.403   1.909  14.811
49200W        W17673  23.134  20.598  14.426
49201W        W17674  29.019   3.307   0.262
49202W        W17675  37.568   1.379   0.400
49203W        W17676  33.474  23.174  14.515
49204W        W17677  11.651  17.656  11.994
49205W        W17678  31.537  10.799   2.373
49206W        W17679  44.935  24.183   2.189
49207W        W17680  21.723  33.086  12.346
49208W        W17681  32.034  19.541  10.931
49209W        W17682  32.574  34.471  10.468
49210W        W17683  34.418   5.745  14.883
49211W        W17684   2.429  19.142  10.900
49212W        W17685  18.728  32.631   0.889
49213W        W17686  26.046  31.647  14.003
49214W        W17687  26.101  13.115  14.860
49215W        W17688   3.842  24.063  13.834
49216W        W17689   2.797  10.874   3.753
49217W        W17690  20.568   2.842   2.892
49218W        W17691   5.851  10.342  12.476
49219W        W17692  17.668  39.897  14.813
49220W        W17693   8.727  25.675   5.314
49221W        W17694   4.754   3.364  10.511
49222W        W17695  17.077  43.315  14.331
49223W        W17696  19.651  30.975  13.825
49224W        W17697  17.144  20.569   0.738
49225W        W17698  21.587  34.955   3.845
49226W        W17699  36.940   6.862  13.931
49227W        W17700   5.722  39.409  11.409
49228W        W17701  39.326  17.728   4.137
49229W        W17702   3.924  17.259  14.426
49230W        W17703  41.378  43.013   1.706
49231W        W17704  37.534  35.864   4.656
49232W        W17705  14.820  18.725   3.669
49233W        W17706  10.294  30.979  14.397
49234W        W17707  19.217  12.350  13.850
49235W        W17708  16.184  28.163  13.933
49236W        W17709  36.520  37.530   2.885
49237W        W17710  31.549  16.788   1.254
49238W        W17711   2.299  39.988  11.956
49239W        W17712  33.899  11.299   1.269
49240W        W17713  38.513  37.336  11.042
49241W        W17714  14.215  40.527   9.938
49242W        W17715   0.366   6.895  12.373
49243W        W17716  16.640   9.170  14.975
49244W        W17717  29.454  18.178  11.103
49245W        W17718  21.534  24.492  14.387
49246W        W17719  17.753  19.720   0.432
49247W        W17720   6.312  10.828  14.802
49248W        W17721  34.369  13.238   1.864
49249W        W17722  22.735  11.750  13.916
49250W        W17723   5.900   2.849  11.442
49251W        W17724  37.403  27.136  12.522
49252W        W17725  10.650  34.594  11.604
49253W        W17726  26.466  29.006  14.464
49254W        W17727   2.342  17.680  12.428
49255W        W17728   9.649   2.330  11.985
49256W        W17729  35.372   1.877  14.801
49257W        W17730  42.928   8.901   1.439
49258W        W17731   7.872   2.772  11.091
49259W        W17732  17.630  11.346   4.181
49260W        W17733  29.667  20.617  11.995
49261W        W17734   1.959  21.530   1.437
49262W        W17735  37.414   4.763  14.356
49263W        W17736   4.758   2.269   2.786
49264W        W17737  24.539  24.692  14.415
49265W        W17738  37.358  15.600  11.002
49266W        W17739  38.938  11.332   3.839
49267W        W17740   8.280   5.290  12.073
49268W        W17741  19.249  11.287  14.028
49269W        W17742   3.948  24.083   0.267
49270W        W17743  11.290  37.513  11.540
49271W        W17744  33.902  22.207   2.699
49272W        W17745  38.920  44.374  11.405
49273W        W17746   9.252   6.758   1.912
49274W        W17747  33.944  13.618  11.387
49275W        W17748   4.820   4.701  10.160
49276W        W17749  42.784   1.907  13.933
49277W        W17750  14.778  13.207   1.443
49278W        W17751  18.124  38.863  14.862
49279W        W17752  13.722  17.716  10.531
49280W        W17753  42.777  23.990  11.008
49281W        W17754  33.022  25.637  11.046
49282W        W17755  44.781  36.056  10.631
49283W        W17756   3.310  39.316   0.254
49284W        W17757  21.629  34.397   0.786
49285W        W17758  34.419  32.982  14.820
49286W        W17759  34.865  16.782   1.738
49287W        W17760  17.699  29.093  14.836
49288W        W17761  39.380   7.773   4.224
49289W        W17762  44.400   2.278   2.239
49290W        W17763  11.305  42.810   1.811
49291W        W17764  30.619   3.255  12.080
49292W        W17765   5.212   3.896  10.527
49293W        W17766  40.310  31.017  12.870
49294W        W17767  35.086  43.461   3.771
49295W        W17768  21.092  25.118  10.542
49296W        W17769  14.236  21.586  13.912
49297W        W17770  27.028  43.959   2.812
49298W        W17771  19.084  13.243  12.964
49299W        W17772  15.785   7.196   2.769
49300W        W17773  29.520  14.655   0.917
49301W        W17774  10.169  20.040  10.614
49302W        W17775  22.524  23.497   4.284
49303W        W17776  11.844  13.115   3.826
49304W        W17777  26.092  34.509  10.637
49305W        W17778  14.236   8.886  12.052
49306W        W17779  10.697  39.041  13.336
49307W        W17780  44.834  38.036   4.823
49308W        W17781  33.082  24.116  10.954
49309W        W17782   7.839  23.185   4.621
49310W        W17783   7.349  44.935   2.876
49311W        W17784  10.865  24.107  13.914
49312W        W17785  40.354  16.651  12.519
49313W        W17786  40.038  40.445  13.407
49314W        W17787  12.238   4.251  13.390
49315W        W17788  44.849  35.407  12.359
49316W        W17789  12.340  36.369  12.924
49317W        W17790  29.992   9.671   2.663
49318W        W17791  28.619  38.035   3.760
49319W        W17792  15.127   7.218   4.287
49320W        W17793  30.128  27.149  13.791
49321W        W17794  21.524  35.080  12.928
49322W        W17795   9.274  38.418  11.416
49323W        W17796  19.209  32.963  11.488
49324W        W17797  40.986   1.334   1.713
49325W        W17798  31.919  12.355   2.814
49326W        W17799  12.787   4.252  11.566
49327W        W17800  36.992  12.120  12.869
49328W        W17801   6.800  24.708  12.022
49329W        W17802  20.118  19.191   4.185
49330W        W17803  36.946   9.177   0.422
49331W        W17804   0.369  41.315   1.712
49332W        W17805  18.097  13.110   2.341
49333W        W17806  11.754   7.686   3.368
49334W        W17807   2.747  34.549   1.871
49335W        W17808   0.800  22.082  12.455
49336W        W17809   9.254  18.551   0.827
49337W        W17810  27.146  22.550  10.898
49338W        W17811   6.227  34.519  12.043
49339W        W17812  32.509  19.723   3.735
49340W        W17813  22.726  26.503   1.321
49341W        W17814  24.127  27.587   5.154
49342W        W17815  11.225  15.207  11.458
49343W        W17816  27.073  28.478   2.748
49344W        W17817  23.021   2.330   1.761
49345W        W17818  17.206   2.917  11.985
49346W        W17819  39.015  32.455   4.307
49347W        W17820  27.159  44.492  14.968
49348W        W17821  26.589   1.469  14.376
49349W        W17822  10.816  14.290   0.374
49350W        W17823  14.698  16.808  11.491
49351W        W17824  43.322  22.231   0.825
49352W        W17825  24.513   8.776  11.960
49353W        W17826  27.521  22.025  12.466
49354W        W17827   5.857  39.444  12.890
49355W        W17828  23.725  25.081  11.959
49356W        W17829  27.968  44.393  14.819
49357W        W17830  27.983  41.808   0.907
49358W        W17831  36.444  31.915  11.998
49359W        W17832  11.189  26.068  12.841
49360W        W17833  40.396  26.562   1.443
49361W        W17834  17.603  14.777  11.127
49362W        W17835  42.794  22.592  13.924
49363W        W17836   1.345  14.245  12.024
49364W        W17837  23.008  24.618   4.328
49365W        W17838  36.428  15.284   4.756
49366W        W17839  28.182  32.909  11.035
49367W        W17840  15.313   8.718  13.358
49368W        W17841   5.380  39.913   4.315
49369W        W17842   6.284  15.821  13.823
49370W        W17843  32.036   8.714   3.265
49371W        W17844  41.001  30.054   3.354
49372W        W17845  27.506  11.745  10.562
49373W        W17846  39.882  25.709   3.801
49374W        W17847   5.321  37.076   3.827
49375W        W17848  35.583   0.964  13.035
49376W        W17849  42.792   1.472  10.558
49377W        W17850  35.363  26.976  12.988
49378W        W17851   5.844  43.899   2.380
49379W        W17852  25.642  34.877  14.314
49380W        W17853  40.344  41.454   1.906
49381W        W17854  35.950   5.803   3.309
49382W        W17855  11.727  42.383  13.993
49383W        W17856   3.455  29.943   1.831
49384W        W17857  28.155   5.891   4.659
49385W        W17858  12.715  23.060   1.809
49386W        W17859  20.226  38.347  12.362
49387W        W17860  14.314  10.797   1.254
49388W        W17861  30.027  11.152   4.349
49389W        W17862  26.590  17.697   0.743
49390W        W17863  32.972   6.357   1.354
49391W        W17864  38.456  40.997  13.536
49392W        W17865  31.027  23.657  13.363
49393W        W17866  21.540  35.981   3.245
49394W        W17867  41.297  12.202   0.954
49395W        W17868  44.468  10.198  12.080
49396W        W17869  37.513  37.436   2.764
49397W        W17870  29.456  40.995  12.020
49398W        W17871  20.125  36.416  13.860
49399W        W17872  15.089   2.467  13.464
49400W        W17873  21.679  32.625   4.319
49401W        W17874  10.292   2.738   0.966
49402W        W17875   7.772  29.559   3.754
49403W        W17876   8.180  41.535   1.900
49404W        W17877  36.458  23.671   4.307
49405W        W17878  12.132  42.825  12.988
49406W        W17879  31.010  23.049   1.811
49407W        W17880  12.646  31.425   2.180
49408W        W17881  11.743  14.288  14.817
49409W        W17882  41.997  28.614   2.217
49410W        W17883  15.248  10.276  11.429
49411W        W17884  32.125  10.247   2.815
49412W        W17885   0.794  43.974  12.094
49413W        W17886  30.907  30.625  12.074
49414W        W17887  16.786  27.981  12.957
49415W        W17888  24.576   2.844  14.342
49416W        W17889   3.285  32.419   2.412
49417W        W17890   4.270  16.670   0.473
49418W        W17891   9.748  42.280   3.153
49419W        W17892  38.527   7.686   0.412
49420W        W17893  20.072  33.118   0.477
49421W        W17894  44.276  26.986  11.511
49422W        W17895   3.735   3.338  13.548
49423W        W17896  28.520  33.440   3.381
49424W        W17897   4.383  30.084   3.285
49425W        W17898   2.466  31.028   1.711
49426W        W17899  30.956  13.297   1.340
49427W        W17900  24.553  20.587   4.673
49428W        W17901  43.907   6.777  10.509
49429W        W17902   0.345  43.474  10.453
49430W        W17903   5.843  32.007   0.923
49431W        W17904  11.205  40.330   2.328
49432W        W17905  28.111  44.826   5.210
49433W        W17906  35.969  35.588   1.215
49434W        W17907   2.240   4.766   5.118
49435W        W17908  29.516   9.667   3.737
49436W        W17909  24.491  40.017  11.123
49437W        W17910   0.248  35.006   0.315
49438W        W17911  10.298  29.461  14.877
49439W        W17912  36.362  24.208   4.718
49440W        W17913   2.232   4.424  12.440
49441W        W17914  18.738  16.596  13.343
49442W        W17915  29.494  10.682   0.755
49443W        W17916  19.175  40.365  14.323
49444W        W17917  25.047  13.350   3.837
49445W        W17918  30.040  31.907  13.920
49446W        W17919  38.010   7.361   4.168
49447W        W17920  20.619   7.746  14.310
49448W        W17921  24.701   7.874  12.037
49449W        W17922  42.021  27.608   2.381
49450W        W17923  20.075  18.625  13.885
49451W        W17924  20.057  20.731  14.865
49452W        W17925  23.713  28.171  13.026
49453W        W17926  30.489  40.433   2.749
49454W        W17927  37.339  20.074   2.302
49455W        W17928  28.057  30.557   3.707
49456W        W17929  26.970   2.885   3.694
49457W        W17930  28.975  40.340  13.805
49458W        W17931  18.290  27.643   0.956
49459W        W17932  40.419  32.452  14.389
49460W        W17933  30.008  27.589  12.981
49461W        W17934  20.219  24.994  14.847
49462W        W17935  27.665  21.735   2.294
49463W        W17936   7.898  41.517   4.662
49464W        W17937   4.836  41.822   0.304
49465W        W17938  23.694  24.038   0.311
49466W        W17939  33.033  35.519   2.386
49467W        W17940  13.719  41.479  10.495
49468W        W17941  41.788  10.648   1.254
49469W        W17942  44.817  34.450   1.366
49470W        W17943  32.038  20.562   2.679
49471W        W17944  28.977  16.203   1.405
49472W        W17945  15.302  44.480   0.413
49473W        W17946  27.014   7.197   3.649
49474W        W17947  43.817  33.433   1.851
49475W        W17948  19.044  24.205  14.970
49476W        W17949   1.733  24.519  13.497
49477W        W17950   6.676  13.797   9.453
49478W        W17951  37.969   8.869   3.368
49479W        W17952  38.869   0.263   0.890
49480W        W17953  10.177  38.375  12.483
49481W        W17954   9.209  21.593  14.330
49482W        W17955  41.401  30.630   0.395
49483W        W17956  31.643  21.037   3.823
49484W        W17957  44.408  14.812  11.528
49485W        W17958  14.602  11.694   0.383
49486W        W17959  18.757  35.530  14.304
49487W        W17960  21.570  23.503   4.345
49488W        W17961  42.492  27.455   3.835
49489W        W17962  25.174   7.810  11.006
49490W        W17963  14.630   2.424  12.852
49491W        W17964  25.607   3.810  11.089
49492W        W17965  38.908   8.712   1.781
49493W        W17966   2.379  30.923  13.840
49494W        W17967  29.068  29.924   0.850
49495W        W17968  38.427  31.585   3.210
49496W        W17969   0.397  34.991  13.989
49497W        W17970  39.971  19.066  13.955
49498W        W17971  43.459  30.991  12.832
49499W        W17972  21.186  24.177   1.755
49500W        W17973   1.460  15.097  12.891
49501W        W17974  27.639   1.294  10.494
49502W        W17975  14.770  21.698  11.430
49503W        W17976  14.778  32.921   1.368
49504W        W17977  35.553   3.281   1.756
49505W        W17978  33.973   9.380  14.373
49506W        W17979  25.181   7.402   0.889
49507W        W17980  21.758  42.893   0.312
49508W        W17981  21.606  23.984   2.682
49509W        W17982   6.261  38.066   4.712
49510W        W17983  40.938  18.251   2.817
49511W        W17984  17.786  23.175  13.036
49512W        W17985  37.465  27.099   2.796
49513W        W17986   0.473  37.038  12.047
49514W        W17987   3.940  40.805  13.308
49515W        W17988  16.633  15.631  12.897
49516W        W17989   0.882  10.228   5.188
49517W        W17990  27.999  36.437   3.240
49518W        W17991   8.746   6.694   4.643
49519W        W17992   1.453  29.593   3.813
49520W        W17993  22.602  34.919  11.955
49521W        W17994  13.269  10.772   1.857
49522W        W17995  18.181  30.504   2.725
49523W        W17996   8.363  16.073   3.718
49524W        W17997  30.415   5.751   3.242
49525W        W17998  44.998  34.058  11.488
49526W        W17999  29.050  23.617   0.446
49527W        W18000  33.049  38.019   2.691
49528W        W18001  35.079  20.712   0.410
49529W        W18002   5.255  40.468  13.895
49530W        W18003  31.076  43.884  12.032
49531W        W18004  12.716   3.217  12.354
49532W        W18005  37.910  29.966   4.788
49533W        W18006  29.969   2.233   4.677
49534W        W18007  42.831  30.093   2.230
49535W        W18008  43.306  43.485   1.850
49536W        W18009  40.398  17.696  10.622
49537W        W18010   5.420  18.718   3.215
49538W        W18011   9.395   2.742  11.470
49539W        W18012  28.578  26.105   4.277
49540W        W18013  17.181  43.790  13.944
49541W        W18014  15.314  20.541  10.590
49542W        W18015  34.986  19.682   0.884
49543W        W18016  42.308  20.204   0.474
49544W        W18017   7.732   4.344   2.414
49545W        W18018  32.598  14.226  14.370
49546W        W18019  36.853   5.221  13.323
49547W        W18020  29.158   9.688  12.093
49548W        W18021  16.078  17.768   1.827
49549W        W18022   8.182   3.461   3.813
49550W        W18023  37.951  40.405  12.982
49551W        W18024  39.829  24.125  10.995
49552W        W18025  28.462  35.870  12.387
49553W        W18026  33.497  13.802  11.045
49554W        W18027  35.083  36.387  11.057
49555W        W18028  39.941  21.199  14.285
49556W        W18029  22.708  27.677   4.653
49557W        W18030  35.881  11.746  12.928
49558W        W18031   8.893   3.306   4.351
49559W        W18032  41.378  30.033  10.999
49560W        W18033  24.641  13.235  13.512
49561W        W18034  31.470  16.589   4.688
49562W        W18035  44.982  15.111  11.904
49563W        W18036  24.153  11.139   2.256
49564W        W18037  29.174  44.817   4.166
49565W        W18038  11.155  28.931  13.438
49566W        W18039  35.487  30.142   3.741
49567W        W18040  13.309  35.049  12.016
49568W        W18041  21.526  18.212   1.869
49569W        W18042  32.478  12.276  11.911
49570W        W18043  10.167   8.759   1.834
49571W        W18044   4.897   3.230   0.775
49572W        W18045  30.920  41.328  14.835
49573W        W18046   1.299  30.540   4.179
49574W        W18047  34.401  27.144   3.343
49575W        W18048  10.662  23.049  11.039
49576W        W18049   1.834  41.298  14.882
49577W        W18050  17.650  18.784   4.792
49578W        W18051  27.550  10.834   3.168
49579W        W18052  31.079  22.634   0.411
49580W        W18053  28.976  20.637  10.901
49581W        W18054  30.917  43.997   0.336
49582W        W18055  41.840  36.088   4.335
49583W        W18056   8.829  20.255  10.492
49584W        W18057  29.656  30.571   0.438
49585W        W18058   5.836  38.565   3.290
49586W        W18059   8.213  24.488   5.676
49587W        W18060  41.004  40.527  10.457
49588W        W18061  39.010  26.497  11.887
49589W        W18062  24.627   7.770  13.419
49590W        W18063   4.889   6.256  10.054
49591W        W18064   1.456  15.190  13.338
49592W        W18065  24.993  16.777  13.535
49593W        W18066   7.216   1.739  11.907
49594W        W18067  39.988   0.311   1.274
49595W        W18068  37.047  18.741  13.481
49596W        W18069  24.714  14.294  11.464
49597W        W18070  10.335  42.429   3.772
49598W        W18071  32.128   5.910   4.142
49599W        W18072   1.978   2.401  14.846
49600W        W18073  12.666  41.882  12.051
49601W        W18074   4.867  33.594  12.456
49602W        W18075  33.996  36.554   0.884
49603W        W18076  44.862  39.976  12.927
49604W        W18077  37.968  14.696   2.241
49605W        W18078   6.339  15.326  10.474
49606W        W18079  12.620  23.039   2.192
49607W        W18080  38.489  21.513   4.188
49608W        W18081  42.939   3.745   1.304
49609W        W18082  30.472  10.749   3.255
49610W        W18083  32.129  19.167   0.733
49611W        W18084  30.937  15.786   1.846
49612W        W18085   9.305  11.352  10.643
49613W        W18086  18.780  12.303   1.246
49614W        W18087  33.996  42.849   1.750
49615W        W18088  27.618  23.197  14.418
49616W        W18089   6.717  32.961  13.840
49617W        W18090  39.840   2.783  11.873
49618W        W18091  34.457   2.930   3.847
49619W        W18092  19.237   6.877  10.444
49620W        W18093   9.365   4.882  11.514
49621W        W18094   4.224  16.606  13.063
49622W        W18095  29.052   0.338  12.487
49623W        W18096  29.604  27.147   3.164
49624W        W18097  21.213   4.701   2.276
49625W        W18098  40.445   9.717   0.445
49626W        W18099   6.402  38.394   9.961
49627W        W18100  32.010  34.522   1.898
49628W        W18101  11.795  43.444  13.503
49629W        W18102   7.230  35.419  11.604
49630W        W18103  32.423   7.897  11.108
49631W        W18104   8.894  29.505   1.377
49632W        W18105  34.465  32.521   1.742
49633W        W18106   0.855  29.051   2.288
49634W        W18107  42.949   9.787  12.090
49635W        W18108  11.292  34.452   1.736
49636W        W18109  38.028   9.235  13.043
49637W        W18110  11.336   4.268  11.495
49638W        W18111  26.647  20.104   4.168
49639W        W18112  21.035  34.049   3.268
49640W        W18113   8.190  39.398  10.570
49641W        W18114  16.204  39.376  11.606
49642W        W18115  22.201   0.858   0.823
49643W        W18116  33.900   0.862   4.249
49644W        W18117  18.293  18.182  13.431
49645W        W18118  18.220  15.136  14.018
49646W        W18119  42.807   7.862  12.052
49647W        W18120  11.175  34.502  12.829
49648W        W18121  32.991  32.531   3.240
49649W        W18122  31.536  10.754   0.874
49650W        W18123  24.678  17.206   3.246
49651W        W18124   2.337  40.474   2.409
49652W        W18125  34.510   4.746   3.779
49653W        W18126  21.639  37.004  12.457
49654W        W18127  37.366  41.399  13.503
49655W        W18128  35.987  41.898   2.873
49656W        W18129  19.661   4.235  14.813
49657W        W18130   3.374  12.740  12.945
49658W        W18131  15.594  16.229  10.545
49659W        W18132  28.978   9.219  10.598
49660W        W18133  15.658  25.203   4.167
49661W        W18134  34.958   9.337   1.219
49662W        W18135  20.124  37.998   4.774
49663W        W18136  33.599   8.783   3.706
49664W        W18137  42.784  39.037   3.249
49665W        W18138  29.545  40.437  13.833
49666W        W18139  31.027  21.123   4.267
49667W        W18140  35.538  22.139   1.838
49668W        W18141  14.250   2.289   2.394
49669W        W18142  43.322  28.079  10.135
49670W        W18143  38.834  11.357  14.944
49671W        W18144  29.970  22.028  14.487
49672W        W18145   1.965  22.506  13.005
49673W        W18146  35.445  44.994  11.866
49674W        W18147  33.937  30.646   2.284
49675W        W18148   9.283  37.528  13.383
49676W        W18149   1.476   1.282  11.994
49677W        W18150  39.910  41.913  10.416
49678W        W18151   7.260   3.880   0.298
49679W        W18152  39.983   8.901  10.440
49680W        W18153  21.089  33.999  11.858
49681W        W18154   0.775  31.052  14.377
49682W        W18155  44.355  40.013   3.290
49683W        W18156  12.253  10.232   4.614
49684W        W18157  40.441  41.940  14.876
49685W        W18158  15.158   3.722  14.404
49686W        W18159   5.750  39.539   1.406
49687W        W18160  11.173   1.825  10.921
49688W        W18161   3.845  28.620  12.378
49689W        W18162   9.704  15.730  13.528
49690W        W18163  29.003  41.412   1.327
49691W        W18164  17.705   8.901  11.425
49692W        W18165  29.015  42.011   2.367
49693W        W18166  37.996  30.100  13.343
49694W        W18167  30.940  37.027  11.122
49695W        W18168   0.291  15.616  12.013
49696W        W18169  34.411   3.884   0.790
49697W        W18170  41.386  16.256  12.019
49698W        W18171   3.375   7.793   5.122
49699W        W18172  43.944  34.872   3.783
49700W        W18173  39.897  29.073   1.889
49701W        W18174  36.571  13.783  10.498
49702W        W18175  32.094  19.252   2.251
49703W        W18176  29.518   9.842  11.076
49704W        W18177   5.391  15.601  14.292
49705W        W18178  28.551  22.658  13.337
49706W        W18179  16.281  30.596  11.597
49707W        W18180  26.159  40.524  12.475
49708W        W18181   4.421  42.991  14.981
49709W        W18182  22.667  35.971   2.359
49710W        W18183   8.663   5.727  11.060
49711W        W18184  32.069  11.247   0.845
49712W        W18185  28.678  39.368   2.901
49713W        W18186  27.111  27.995   0.316
49714W        W18187  39.378  24.154   0.804
49715W        W18188  36.047  12.745   4.264
49716W        W18189  38.056  34.047   2.842
49717W        W18190  10.323   7.718  13.021
49718W        W18191  21.109  19.570   1.792
49719W        W18192  13.277  37.017  14.315
49720W        W18193  11.289  34.386  14.940
49721W        W18194  42.387   3.894   2.708
49722W        W18195  23.642  27.154   4.726
49723W        W18196   1.824  18.210   1.419
49724W        W18197  39.988   2.466  14.903
49725W        W18198  28.137  33.941   1.743
49726W        W18199  16.071  21.053   1.926
49727W        W18200  17.629  22.006   4.598
49728W        W18201  20.640  36.848  13.317
49729W        W18202  43.918  38.894   3.687
49730W        W18203   9.741  17.133   4.774
49731W        W18204  30.430   4.416  12.406
49732W        W18205   7.201  36.094   4.667
49733W        W18206   0.984  43.371   3.245
49734W        W18207  35.572   1.802   1.812
49735W        W18208  21.160  10.641  14.454
49736W        W18209   4.837   9.275   0.815
49737W        W18210   7.183  32.951   3.303
49738W        W18211  34.940  15.586   5.219
49739W        W18212   5.842  30.548  10.582
49740W        W18213  44.962  30.057  12.444
49741W        W18214   1.401  16.220  13.866
49742W        W18215  43.357  42.502   1.928
49743W        W18216  26.662  39.963   0.877
49744W        W18217  16.607  17.267  12.878
49745W        W18218  28.111   9.825   1.350
49746W        W18219  34.081  31.055  10.421
49747W        W18220  32.614  39.423   4.250
49748W        W18221   4.308  19.081  12.862
49749W        W18222  15.270  16.690  12.362
49750W        W18223   0.426  27.513  12.000
49751W        W18224  21.630   6.193  14.759
49752W        W18225  42.946  20.104  10.482
49753W        W18226   1.388  29.063   3.860
49754W        W18227  12.628  12.295  14.282
49755W        W18228  16.756   7.247   1.758
49756W        W18229   4.945  28.072  11.481
49757W        W18230   7.296   3.911  11.580
49758W        W18231  37.886  37.512   3.702
49759W        W18232  23.225  24.688  14.856
49760W        W18233  14.128  20.170  14.449
49761W        W18234  41.907  33.890   2.222
49762W        W18235  19.196  24.151  10.929
49763W        W18236  21.202   6.407   1.408
49764W        W18237  31.108  14.741   2.186
49765W        W18238   2.770  38.383  14.772
49766W        W18239  24.546  42.387   1.709
49767W        W18240  42.915  17.559  12.938
49768W        W18241  13.212  30.635  12.365
49769W        W18242  32.590  16.237   2.318
49770W        W18243  33.506  34.522   4.601
49771W        W18244   5.919  27.615  12.841
49772W        W18245  18.622   6.309   2.263
49773W        W18246  11.772  14.299   1.296
49774W        W18247   5.696  33.071   0.355
49775W        W18248  28.536  44.823   2.269
49776W        W18249  39.554  21.038   2.248
49777W        W18250   1.452  21.530  12.497
49778W        W18251   3.244  17.131   4.325
49779W        W18252  14.649   8.889  14.499
49780W        W18253  15.624  27.001   3.672
49781W        W18254  41.514  39.906  12.426
49782W        W18255   7.222  36.043   4.228
49783W        W18256  13.123  20.708  12.843
49784W        W18257  41.321  18.564   2.389
49785W        W18258  42.890  43.941  12.571
49786W        W18259  21.724  30.076   1.841
49787W        W18260  10.710  15.208  13.944
49788W        W18261  24.506  24.019  11.858
49789W        W18262  26.040  21.026  11.933
49790W        W18263   2.917  31.957  14.451
49791W        W18264  23.610  26.092  14.416
49792W        W18265  34.036   7.414   3.214
49793W        W18266  41.359  21.053   4.150
49794W        W18267  40.419   7.749   0.879
49795W        W18268  36.551   0.761   4.669
49796W        W18269   3.897  40.911   3.288
49797W        W18270  37.395  25.639  13.314
49798W        W18271  31.102  41.981   5.278
49799W        W18272  43.505  14.145  10.418
49800W        W18273  17.156  31.474  11.604
49801W        W18274  31.406  11.295   3.829
49802W        W18275   9.875  17.213   0.934
49803W        W18276  25.141  21.086   5.085
49804W        W18277  34.013  10.338   2.195
49805W        W18278  18.094   1.259  14.484
49806W        W18279  22.174  26.207   2.822
49807W        W18280  38.339  12.651  10.974
49808W        W18281   1.827  44.367   4.664
49809W        W18282  14.322  27.579   1.799
49810W        W18283  30.123   6.295  14.290
49811W        W18284  33.129   2.947   3.707
49812W        W18285  10.200  44.880  12.846
49813W        W18286  15.641  29.460   1.447
49814W        W18287   2.233  27.534  11.584
49815W        W18288  13.337  38.841  11.404
49816W        W18289  14.165  41.485  13.479
49817W        W18290  30.038  40.050   4.275
49818W        W18291  30.500  24.033   0.453
49819W        W18292   9.781  40.473  10.442
49820W        W18293  16.763  17.643  13.022
49821W        W18294  37.384  32.903   0.779
49822W        W18295  34.377  13.670  14.878
49823W        W18296  28.537  19.707   0.484
49824W        W18297   1.302   7.204  14.909
49825W        W18298   9.870  30.112  10.566
49826W        W18299   8.331  43.374  14.023
49827W        W18300  36.892  14.146   2.393
49828W        W18301  28.669  33.889  12.933
49829W        W18302   2.867  37.391  14.858
49830W        W18303  11.213  19.045  13.498
49831W        W18304  37.438   8.826  10.420
49832W        W18305   7.882  26.067   4.833
49833W        W18306  10.212  18.594  12.023
49834W        W18307  27.531  41.909   3.841
49835W        W18308  38.924   3.915   1.400
49836W        W18309  19.669  10.694  12.993
49837W        W18310   7.740   6.854  12.555
49838W        W18311  10.642  33.026  10.506
49839W        W18312  16.615  13.326   0.277
49840W        W18313  19.114   9.285  12.989
49841W        W18314  16.096  18.159   3.851
49842W        W18315  30.505  22.030  13.332
49843W        W18316   0.853  30.643   0.355
49844W        W18317  21.123   7.742  14.819
49845W        W18318  31.476   2.324   3.157
49846W        W18319  12.349  41.507   3.690
49847W        W18320   4.243  12.792  13.318
49848W        W18321  35.955  12.814   4.608
49849W        W18322   5.845  28.627   3.181
49850W        W18323  44.391  16.722   0.303
49851W        W18324  13.755  43.970   0.946
49852W        W18325  40.525  43.282  13.042
49853W        W18326  19.580   8.788  10.418
49854W        W18327  44.808  22.160  10.593
49855W        W18328  26.575  25.138   2.729
49856W        W18329  32.615   4.285   0.352
49857W        W18330  17.561   7.716  14.882
49858W        W18331   9.721  36.070  10.520
49859W        W18332  29.550   4.747  14.491
49860W        W18333  10.701  35.377  10.404
49861W        W18334   7.881   9.808  12.504
49862W        W18335  21.161  30.602  11.407
49863W        W18336  15.213   8.737  14.359
49864W        W18337  36.371  23.700  13.878
49865W        W18338  30.044  13.705   2.213
49866W        W18339  30.469  33.550   1.717
49867W        W18340  10.799   7.700   2.715
49868W        W18341  17.271  21.061   1.914
49869W        W18342  10.792  19.089   1.331
49870W        W18343  40.897   9.813  11.955
49871W        W18344  25.676  32.896  12.959
49872W        W18345  29.170  12.788   2.882
49873W        W18346  38.369   3.810  12.009
49874W        W18347  16.746  10.272   3.147
49875W        W18348  34.441  37.868   0.331
49876W        W18349  27.677   8.856   2.765
49877W        W18350   5.864   2.470  10.944
49878W        W18351  24.161  40.411  13.918
49879W        W18352  12.769  11.313  11.476
49880W        W18353   2.728  24.010  11.999
49881W        W18354  28.150   6.919  12.898
49882W        W18355  18.682   5.244  14.984
49883W        W18356  32.030  34.519  10.945
49884W        W18357   1.398   5.244   0.357
49885W        W18358   7.182  31.134   1.918
49886W        W18359  22.210  23.991  13.034
49887W        W18360   2.842   5.254   2.773
49888W        W18361   2.807  43.449  13.890
49889W        W18362  19.156  43.423  10.459
49890W        W18363   7.704  30.014  13.872
49891W        W18364  13.210  28.466   4.254
49892W        W18365  39.816  21.249   2.738
49893W        W18366  26.567  13.177  13.036
49894W        W18367  12.276  19.183  12.504
49895W        W18368  31.641  38.907  14.378
49896W        W18369  35.098   3.760   4.166
49897W        W18370  32.073  13.301  10.927
49898W        W18371  15.655  30.086  12.062
49899W        W18372  22.729   4.801  14.019
49900W        W18373   3.439  25.981   2.217
49901W        W18374  21.628  20.594  11.594
49902W        W18375  29.640  27.093  14.852
49903W        W18376   3.886  32.453  10.902
49904W        W18377  40.049  40.931   0.285
49905W        W18378  28.040  24.585   4.647
49906W        W18379   3.317  32.900  12.460
49907W        W18380  27.593  23.645   0.256
49908W        W18381  34.931  37.987   3.370
49909W        W18382  33.545   6.301  14.784
49910W        W18383  37.077   4.908  14.800
49911W        W18384  43.429  36.848  10.643
49912W        W18385  24.634  28.555   0.896
49913W        W18386  16.796  26.594   2.796
49914W        W18387  36.841  28.577  14.029
49915W        W18388   4.890  30.514   3.822
49916W        W18389  39.017  16.791  10.589
49917W        W18390  13.267  27.954   1.303
49918W        W18391   4.759  13.343  14.437
49919W        W18392  40.805  33.456  10.514
49920W        W18393  39.830   8.753   4.129
49921W        W18394   2.355  13.349   1.277
49922W        W18395  27.163  13.131   0.852
49923W        W18396  27.516   2.929   4.228
49924W        W18397  30.441   6.390  10.450
49925W        W18398  30.591  31.517   1.751
49926W        W18399   6.882  41.821   0.309
49927W        W18400  19.219  18.072  11.042
49928W        W18401  32.494  27.060  10.586
49929W        W18402   3.733  25.137  13.792
49930W        W18403   4.820  17.684  13.481
49931W        W18404  12.716  25.114  10.943
49932W        W18405   7.366  15.111  12.013
49933W        W18406  22.524  26.651   1.918
49934W        W18407   1.916  22.011  11.457
49935W        W18408  38.855  43.865  10.492
49936W        W18409  17.576  15.682   1.923
49937W        W18410  17.585  15.116   2.297
49938W        W18411  14.135   7.251   4.222
49939W        W18412   2.444  26.677   3.366
49940W        W18413   5.789  26.657  13.908
49941W        W18414  33.557   9.189   2.371
49942W        W18415  38.515  17.646  14.491
49943W        W18416  36.078  10.840   2.840
49944W        W18417  43.958  35.967  13.512
49945W        W18418  25.486  33.388   1.701
49946W        W18419  33.892  22.227  14.361
49947W        W18420   0.948  12.801   0.402
49948W        W18421   1.274   5.432  13.542
49949W        W18422  16.644  16.233   3.380
49950W        W18423  26.156  19.136   3.827
49951W        W18424  40.314   4.881   0.954
49952W        W18425  42.984  29.497   1.715
49953W        W18426  28.074  10.373   4.167
49954W        W18427  11.639  30.128   4.257
49955W        W18428  41.451  31.600   3.768
49956W        W18429  32.108  33.947   3.786
49957W        W18430  41.906  25.031  11.889
49958W        W18431  44.331  40.321  13.851
49959W        W18432  29.657   0.452   0.366
49960W        W18433  16.717  32.481   0.417
49961W        W18434  30.448  18.684   0.412
49962W        W18435   1.422   1.388   1.378
49963W        W18436  15.684  32.520  11.088
49964W        W18437  22.024  39.395  13.353
49965W        W18438  30.123  42.804  14.464
49966W        W18439  40.881  24.078  14.802
49967W        W18440  20.249  21.550   4.635
49968W        W18441  39.482  36.363  11.861
49969W        W18442  39.008  44.913   5.254
49970W        W18443  16.254  31.550   4.817
49971W        W18444  35.558  18.565   3.262
49972W        W18445  17.678   6.309   0.834
49973W        W18446  38.480  29.057   0.331
49974W        W18447  42.526  31.110  11.608
49975W        W18448   2.263  23.705   4.190
49976W        W18449  16.242  11.177   0.817
49977W        W18450  23.062  33.626   1.701
49978W        W18451  15.684  38.994  11.973
49979W        W18452  17.592   2.443  10.591
49980W        W18453  33.575  27.145  13.353
49981W        W18454  27.644   8.200   4.689
49982W        W18455  16.802   9.779  11.505
49983W        W18456  12.268  33.496  12.949
49984W        W18457  29.617  14.682  14.388
49985W        W18458   7.377  25.651  14.348
49986W        W18459   3.827   0.941   0.839
49987W        W18460  18.744   9.221   1.363
49988W        W18461  40.003   5.202  10.590
49989W        W18462   3.939  44.434  12.525
49990W        W18463  43.987   5.786  14.350
49991W        W18464  35.020  24.699  14.804
49992W        W18465   0.919  26.514  11.959
49993W        W18466  13.182  20.107   1.392
49994W        W18467  32.432  32.445  14.891
49995W        W18468   5.882   6.910   2.267
49996W        W18469  41.850  17.649  12.061
49997W        W18470  30.041  42.438  11.422
49998W        W18471  19.701  12.144   0.918
49999W        W18472  41.953  39.925   2.260
50000W        W18473  18.653  19.210  14.475
50001W        W18474  44.005  27.105   0.361
50002W        W18475   3.380  21.730   0.252
50003W        W18476  19.285   3.897   4.632
50004W        W18477  28.594  24.485  11.094
50005W        W18478  19.206  21.583   4.617
50006W        W18479  36.021  44.367   0.335
50007W        W18480  27.029  23.182   4.350
50008W        W18481  37.458  26.526   1.742
50009W        W18482  16.134  13.316  11.485
50010W        W18483  14.310   4.897  11.885
50011W        W18484   1.448  26.021  10.928
50012W        W18485  39.015  30.523   1.357
50013W        W18486  42.328  20.185  10.526
50014W        W18487  20.570  30.941   1.303
50015W        W18488  27.053   8.741  13.381
50016W        W18489  30.513  27.954  12.951
50017W        W18490  32.969  36.005   4.731
50018W        W18491  34.018  36.008   0.430
50019W        W18492  38.537   2.814   4.229
50020W        W18493  41.823  14.099  12.033
50021W        W18494  43.320  20.159   0.831
50022W        W18495  31.927  17.594   0.854
50023W        W18496  11.311  36.579   1.287
50024W        W18497  44.888   7.757   1.934
50025W        W18498  39.054   8.852   1.260
50026W        W18499  29.535  12.177  12.387
50027W        W18500  19.114  30.432   1.746
50028W        W18501   9.296  44.769   3.255
50029W        W18502  28.661  42.775  12.017
50030W        W18503  17.102  25.969   4.803
50031W        W18504  26.185  28.071   3.848
50032W        W18505  41.017  34.097  10.464
50033W        W18506  22.252  26.979   2.257
50034W        W18507  43.933   8.825  13.039
50035W        W18508  25.605  40.452   3.661
50036W        W18509  42.801  29.076  12.362
50037W        W18510   7.300  23.543  14.769
50038W        W18511   1.838  13.270   3.186
50039W        W18512  23.177  21.135  14.965
50040W        W18513  44.850  16.742  11.539
50041W        W18514  41.881   0.845   0.752
50042W        W18515  12.821  10.178   0.823
50043W        W18516  13.289  19.739   4.815
50044W        W18517  37.946   3.390   3.266
50045W        W18518  34.452  30.439  10.464
50046W        W18519   4.376  10.832  14.854
50047W        W18520  28.147  11.229  13.849
50048W        W18521  12.744  13.663   0.860
50049W        W18522  28.104  21.211  10.541
50050W        W18523   3.351   3.389   1.250
50051W        W18524  17.653  42.857   2.749
50052W        W18525  28.988  25.053   4.132
50053W        W18526   3.347  41.805   0.811
50054W        W18527  27.511  33.557   2.856
50055W        W18528  38.541  44.289   0.795
50056W        W18529  22.610  22.180   4.164
50057W        W18530  36.091  41.853  11.489
50058W        W18531  34.906  22.046  11.883
50059W        W18532  15.158  37.043   0.757
50060W        W18533  41.890  34.386  11.118
50061W        W18534  27.001  34.526  13.987
50062W        W18535  28.981  42.873   1.261
50063W        W18536  20.550  42.908  10.616
50064W        W18537  12.617   4.855   2.366
50065W        W18538   0.416  33.547  11.418
50066W        W18539  20.603  30.942  13.976
50067W        W18540  40.344  24.071  14.498
50068W        W18541  17.178  14.744  12.847
50069W        W18542  38.398  35.942  13.844
50070W        W18543  21.108  30.627  10.889
50071W        W18544  34.895   8.301  13.359
50072W        W18545  37.349  26.662  12.833
50073W        W18546  31.930  31.998   0.768
50074W        W18547   7.837   3.857  11.422
50075W        W18548  44.966  27.484  13.792
50076W        W18549   7.198  17.583  12.033
50077W        W18550  20.183   0.438   2.754
50078W        W18551  44.847  38.064  11.122
50079W        W18552  29.162   2.308   0.873
50080W        W18553  26.591   9.289   1.375
50081W        W18554   0.829  41.464   3.196
50082W        W18555  26.098  25.681  10.550
50083W        W18556  32.488   0.410   1.707
50084W        W18557  24.651  44.381   1.859
50085W        W18558  19.691  23.137   4.290
50086W        W18559  19.536  37.517  10.967
50087W        W18560  27.577  33.534   4.784
50088W        W18561   9.386  42.864   4.299
50089W        W18562  10.809  13.298   0.396
50090W        W18563  35.568  16.248  11.996
50091W        W18564  27.056  33.529   2.702
50092W        W18565   8.693  28.534   3.194
50093W        W18566  41.885  19.729   0.430
50094W        W18567  15.724   1.852  14.873
50095W        W18568   1.243  16.613  13.914
50096W        W18569  38.954  29.661   1.388
50097W        W18570  27.646   4.761  11.397
50098W        W18571  35.895  28.944  10.589
50099W        W18572   9.310  12.139  11.564
50100W        W18573  20.036  36.446   4.193
50101W        W18574  14.636  10.718  13.437
50102W        W18575  22.173  26.028  13.033
50103W        W18576  15.135  22.217  13.834
50104W        W18577  19.146  12.690   0.961
50105W        W18578  40.913  44.278  14.374
50106W        W18579  24.163   6.859  14.341
50107W        W18580  31.012  39.504   3.830
50108W        W18581   8.267  29.122  12.530
50109W        W18582  38.888   6.893  11.391
50110W        W18583  27.133  17.725   4.281
50111W        W18584   0.762  21.671   3.354
50112W        W18585  36.348  42.909  11.072
50113W        W18586  41.813   0.758  10.523
50114W        W18587  31.549   4.900  12.035
50115W        W18588  12.236  11.332   2.736
50116W        W18589  41.421   2.290   3.809
50117W        W18590  17.077  44.499   3.264
50118W        W18591  41.923   1.454   3.216
50119W        W18592  13.300   9.870   0.774
50120W        W18593  38.507  25.509  13.381
50121W        W18594  21.157  36.068  10.095
50122W        W18595  20.241  12.842   3.316
50123W        W18596  19.187   7.218   4.825
50124W        W18597  22.658   9.303   3.174
50125W        W18598   9.314  38.380  11.912
50126W        W18599  39.533   3.802   2.802
50127W        W18600  33.005  41.018  13.425
50128W        W18601  14.779  35.886  13.945
50129W        W18602   7.193  12.216   4.763
50130W        W18603  33.997  11.163  10.641
50131W        W18604  33.879  33.102  10.555
50132W        W18605  18.209  16.154  14.818
50133W        W18606   0.309  15.610  10.448
50134W        W18607  44.829   8.863   0.410
50135W        W18608  20.261  42.362   2.813
50136W        W18609  13.317  19.060  11.490
50137W        W18610   8.728  42.434  11.979
50138W        W18611  20.699  36.862  14.393
50139W        W18612   1.455  43.337   4.643
50140W        W18613  27.499  44.791  12.917
50141W        W18614  28.161  16.236  11.602
50142W        W18615  43.948  18.224   4.693
50143W        W18616  24.975  39.030   3.849
50144W        W18617  34.416   2.924  13.440
50145W        W18618  11.285   0.910   1.281
50146W        W18619  23.187  14.725  13.834
50147W        W18620  11.838  25.032  11.111
50148W        W18621   8.314  17.562   4.783
50149W        W18622  36.861  23.086  12.396
50150W        W18623  16.721  34.570  11.951
50151W        W18624  15.102  30.428  12.355
50152W        W18625  26.020  30.987   4.266
50153W        W18626  34.009   6.416   4.212
50154W        W18627   1.952  18.138  12.443
50155W        W18628   2.285  33.890  12.829
50156W        W18629  38.017  28.154  13.531
50157W        W18630  15.138  11.361  14.921
50158W        W18631   5.382  16.292   3.669
50159W        W18632  39.480  19.777   1.809
50160W        W18633   3.349   2.374   3.182
50161W        W18634  14.794  37.535   5.195
50162W        W18635  37.014  31.524   4.168
50163W        W18636  10.219  15.675  11.066
50164W        W18637  31.613   0.907  13.377
50165W        W18638  31.148  30.529  11.436
50166W        W18639  23.699  12.724  11.080
50167W        W18640  26.085  41.374   0.423
50168W        W18641  28.130  11.202  10.454
50169W        W18642  10.148  41.003  12.006
50170W        W18643  32.141  28.494   0.831
50171W        W18644  25.016   1.431   4.606
50172W        W18645  42.934  20.120  11.904
50173W        W18646  25.644   6.739  13.456
50174W        W18647  12.707  16.168  14.839
50175W        W18648  18.684   6.714  12.525
50176W        W18649   8.285   0.775   0.735
50177W        W18650   5.402  19.069  11.882
50178W        W18651  30.646  11.679  12.925
50179W        W18652  32.986  39.474  13.523
50180W        W18653  42.389   4.448  11.995
50181W        W18654  11.705  21.672  13.479
50182W        W18655  18.717  18.285   2.298
50183W        W18656   0.462  11.326   2.201
50184W        W18657  19.050   2.400   4.155
50185W        W18658  37.521  12.760   2.686
50186W        W18659  10.195  29.085  10.636
50187W        W18660   8.171  42.925  12.901
50188W        W18661  26.574  40.996  12.027
50189W        W18662  24.045  34.117  12.937
50190W        W18663  33.905  26.955  13.019
50191W        W18664  41.338  19.239   3.258
50192W        W18665  40.895  22.228  12.063
50193W        W18666  31.021  20.576  11.032
50194W        W18667  23.129   8.247   0.867
50195W        W18668   2.790  42.336  10.955
50196W        W18669  28.080  10.757  12.024
50197W        W18670  43.956  22.634  13.410
50198W        W18671  37.984  15.787   2.678
50199W        W18672  21.069  38.903   2.265
50200W        W18673  41.481  11.670  11.864
50201W        W18674  14.675  18.610  14.929
50202W        W18675  14.679  16.104   3.661
50203W        W18676   5.772   9.853  12.946
50204W        W18677  22.998  15.256   3.179
50205W        W18678  13.144  40.052   2.715
50206W        W18679  20.573  12.327  12.024
50207W        W18680   5.417   2.260  11.388
50208W        W18681  17.089  13.302  10.638
50209W        W18682  33.020  18.663   4.771
50210W        W18683  23.679  29.584   0.291
50211W        W18684  18.060   7.276   2.202
50212W        W18685  26.147   5.392  13.048
50213W        W18686  22.546  29.069  13.523
50214W        W18687  31.458  30.157   4.219
50215W        W18688  22.574   6.814  12.416
50216W        W18689  36.969  39.513  11.962
50217W        W18690  12.146  15.655  11.519
50218W        W18691  26.152  23.655   3.335
50219W        W18692  25.684  14.095  13.842
50220W        W18693   2.243   5.279  13.392
50221W        W18694  35.971  32.041   4.237
50222W        W18695  43.462   1.943   4.258
50223W        W18696  23.670  44.371   3.305
50224W        W18697   7.798   2.803  13.941
50225W        W18698  34.878  36.069   2.261
50226W        W18699  12.730  37.421  14.807
50227W        W18700  11.146  32.917   1.865
50228W        W18701   7.311  22.677   3.809
50229W        W18702   4.385  41.348  12.846
50230W        W18703   8.855   3.426  10.456
50231W        W18704  21.562  31.033  14.007
50232W        W18705  42.995  12.751   0.331
50233W        W18706  29.061  41.451   0.388
50234W        W18707  10.815  22.527  10.498
50235W        W18708  41.412   6.393  10.567
50236W        W18709  11.129  26.087   3.737
50237W        W18710  16.571  21.193   4.634
50238W        W18711  35.009  18.134  13.327
50239W        W18712  30.442  36.933   1.816
50240W        W18713  39.931  44.939   0.895
50241W        W18714  25.136  29.082   3.670
50242W        W18715   0.980  17.260  11.993
50243W        W18716  20.048  32.060  10.585
50244W        W18717  21.604  21.539   0.847
50245W        W18718   3.921  33.103  13.819
50246W        W18719  18.114   9.205   2.821
50247W        W18720   8.831  41.481   0.481
50248W        W18721  32.934   1.275   3.222
50249W        W18722  22.241  30.920  13.413
50250W        W18723  43.011  23.721   2.211
50251W        W18724   1.971  36.480  12.539
50252W        W18725  41.990  39.001   3.749
50253W        W18726  14.263   4.888  11.378
50254W        W18727  42.883   7.712  10.463
50255W        W18728  35.560  11.861   4.767
50256W        W18729  28.011  10.667  12.475
50257W        W18730  38.506  10.753  14.385
50258W        W18731  30.460   0.458   3.677
50259W        W18732  44.875  21.238  10.933
50260W        W18733   3.912  23.717  13.908
50261W        W18734  25.186  19.084  14.457
50262W        W18735  28.622   8.338  11.932
50263W        W18736   5.911  35.459   4.736
50264W        W18737  12.188   3.833   1.441
50265W        W18738  11.664  38.952   3.363
50266W        W18739  22.148   9.269   4.777
50267W        W18740  36.925  33.891  14.288
50268W        W18741  25.127  24.495  12.941
50269W        W18742  20.738  37.997  14.780
50270W        W18743  13.748  25.558  10.447
50271W        W18744  36.938  13.337   0.939
50272W        W18745  25.985  18.669  11.373
50273W        W18746  32.637  16.804  11.864
50274W        W18747  11.221   7.804  13.387
50275W        W18748  38.897  21.180   2.354
50276W        W18749  39.376  41.404   2.311
50277W        W18750  40.455  40.374  13.866
50278W        W18751  38.556   1.830   3.378
50279W        W18752  31.511  10.845  14.310
50280W        W18753  27.481  28.589  10.594
50281W        W18754   8.701  15.688   3.650
50282W        W18755  36.050  22.626  12.535
50283W        W18756  11.365  14.199   0.867
50284W        W18757  44.859  17.728  13.393
50285W        W18758  26.969  13.704   0.250
50286W        W18759  30.609  23.173  11.453
50287W        W18760  17.745  33.499  11.524
50288W        W18761   0.898   7.176   2.271
50289W        W18762  32.597  12.708   4.598
50290W        W18763  27.066   8.173   2.694
50291W        W18764   0.278  41.837   2.706
50292W        W18765  16.312  23.546   1.298
50293W        W18766  30.534   5.730  13.978
50294W        W18767  29.557  10.763   3.263
50295W        W18768  27.458  40.952   3.341
50296W        W18769  17.197  34.989   1.366
50297W        W18770  14.780   4.334  10.415
50298W        W18771  42.366   5.743   1.880
50299W        W18772  31.642  37.366   3.717
50300W        W18773  40.798  24.503  10.961
50301W        W18774   1.269  11.193   3.693
50302W        W18775  27.561  33.508  10.914
50303W        W18776  18.111   7.384   3.738
50304W        W18777  32.022  25.604  14.505
50305W        W18778  14.601  22.624  10.963
50306W        W18779   1.733  27.958   3.848
50307W        W18780  31.972  12.646  10.967
50308W        W18781  11.278  39.015  10.990
50309W        W18782  18.176   9.780  13.347
50310W        W18783   9.690  26.032  11.443
50311W        W18784  29.996  20.224   0.798
50312W        W18785  11.810  23.596  11.920
50313W        W18786  19.707  34.506  12.552
50314W        W18787  26.012  14.794  14.796
50315W        W18788  19.054  44.762  11.547
50316W        W18789   1.974  30.481   4.793
50317W        W18790  31.497  36.084  14.994
50318W        W18791  26.655  41.791   5.193
50319W        W18792  44.888   2.456   1.798
50320W        W18793   1.737   8.384  13.526
50321W        W18794  42.420  35.413   0.289
50322W        W18795  13.705  19.117  14.892
50323W        W18796  42.499  12.671   1.255
50324W        W18797  40.028  24.985   0.928
50325W        W18798  37.405   2.250  12.981
50326W        W18799  35.978  26.468  11.380
50327W        W18800  23.019  28.031   5.773
50328W        W18801  35.104   7.873  12.083
50329W        W18802  11.662   1.967   2.689
50330W        W18803  43.394   9.338   2.720
50331W        W18804  13.302  12.704   1.919
50332W        W18805  27.159  10.274   3.797
50333W        W18806   2.240  32.958  13.980
50334W        W18807   5.370  32.904   3.827
50335W        W18808  22.245  20.172   4.216
50336W        W18809  43.417  30.158  14.387
50337W        W18810  44.488   3.808  11.611
50338W        W18811  39.321  20.157  11.929
50339W        W18812  29.083  24.973   3.831
50340W        W18813  31.961   0.366   1.434
50341W        W18814  37.868  16.209   3.232
50342W        W18815  31.432  31.983  12.859
50343W        W18816  21.612  36.474  10.566
50344W        W18817   7.703  34.562   3.243
50345W        W18818  23.610   0.797   5.128
50346W        W18819   8.406   9.331   0.901
50347W        W18820  28.010  37.903   2.671
50348W        W18821  30.074  38.984   0.805
50349W        W18822  40.017  31.475  12.054
50350W        W18823  15.174  39.401  11.518
50351W        W18824  33.054  29.444   3.320
50352W        W18825   7.206  30.419   2.232
50353W        W18826  21.582  11.345  10.517
50354W        W18827  32.514  28.033  13.455
50355W        W18828   4.327  17.270  13.328
50356W        W18829  30.632  23.177  14.931
50357W        W18830  43.816  10.333   9.973
50358W        W18831   3.286  16.774  14.300
50359W        W18832  22.699  18.760  13.462
50360W        W18833  18.177   3.761  12.367
50361W        W18834  42.017  23.655   3.636
50362W        W18835  16.698  29.170   1.258
50363W        W18836  17.131  38.896  10.541
50364W        W18837  27.511  28.020   1.928
50365W        W18838   5.208   3.394   4.607
50366W        W18839  35.576  18.270   3.790
50367W        W18840  42.860  19.237   3.768
50368W        W18841  10.665   4.772   2.392
50369W        W18842  19.615  23.648  11.401
50370W        W18843  23.149  31.953   4.346
50371W        W18844  25.654  30.049   3.208
50372W        W18845  23.143   1.804  14.454
50373W        W18846  25.185  25.635  14.414
50374W        W18847  42.494  40.379  12.523
50375W        W18848   1.870   0.476   4.634
50376W        W18849   2.463  34.410   1.784
50377W        W18850   1.940  19.609  12.406
50378W        W18851  40.409  15.201   0.835
50379W        W18852   6.333  29.489   1.884
50380W        W18853  33.507  11.260  14.002
50381W        W18854  38.537  37.421   2.195
50382W        W18855  35.596  38.550  13.462
50383W        W18856  19.058  40.498  13.370
50384W        W18857  14.165   7.400   3.642
50385W        W18858   0.424  11.813  12.842
50386W        W18859  33.918  38.407  12.345
50387W        W18860  25.603  39.840   2.864
50388W        W18861  43.328  30.037   4.270
50389W        W18862  13.289  31.084  14.848
50390W        W18863   1.887  16.221   2.899
50391W        W18864  14.824  21.745  10.424
50392W        W18865  38.036  36.858  11.907
50393W        W18866   2.845  39.325  13.380
50394W        W18867  39.513  24.118   2.219
50395W        W18868  29.632   2.453  14.432
50396W        W18869  35.593  27.586  13.889
50397W        W18870  17.698   0.405  11.489
50398W        W18871   4.207  25.140   3.795
50399W        W18872  23.070  10.215   0.447
50400W        W18873   4.816  31.086  11.876
50401W        W18874  31.482   8.200  13.797
50402W        W18875  19.064   5.854  13.876
50403W        W18876   1.359  28.473   4.680
50404W        W18877  36.362  16.263   3.737
50405W        W18878   5.766  25.645   0.449
50406W        W18879   6.748  38.871  14.459
50407W        W18880  38.953   2.952   2.789
50408W        W18881   0.910  35.879  11.872
50409W        W18882  24.178  25.643   4.621
50410W        W18883  35.597  43.890  12.996
50411W        W18884  36.525  44.987  11.981
50412W        W18885  20.609  39.550  12.530
50413W        W18886   9.386  29.974  11.587
50414W        W18887   6.390  18.264   2.414
50415W        W18888   8.821  26.701   0.744
50416W        W18889   6.683  35.109  11.053
50417W        W18890   9.345  21.082  14.336
50418W        W18891  12.341   7.305   2.803
50419W        W18892   0.355  39.963   0.378
50420W        W18893   8.899  14.680   3.748
50421W        W18894   4.920   0.778  12.909
50422W        W18895  28.169  39.047  12.851
50423W        W18896   5.389  43.809   3.351
50424W        W18897  20.641  16.154  14.341
50425W        W18898   3.216   4.860  13.324
50426W        W18899  27.151   1.941  10.534
50427W        W18900   7.178  10.655   3.693
50428W        W18901  39.914  14.097  12.912
50429W        W18902   1.383   2.244   0.449
50430W        W18903  14.737  25.603  13.526
50431W        W18904  43.452  44.365   4.605
50432W        W18905   9.801  27.578   3.282
50433W        W18906  41.464  26.970   3.373
50434W        W18907  41.325  14.118  10.485
50435W        W18908   7.330  23.690  10.060
50436W        W18909  21.056  20.686  13.448
50437W        W18910  10.656  19.667   0.927
50438W        W18911  35.386  31.073  13.854
50439W        W18912   8.243   8.768  14.808
50440W        W18913   8.320  19.769   4.802
50441W        W18914   5.346  44.283  14.006
50442W        W18915   0.790  26.165  12.571
50443W        W18916  43.791  32.519  11.935
50444W        W18917  21.746  13.302   0.333
50445W        W18918  34.037  23.630  13.912
50446W        W18919  44.314  17.153  12.532
50447W        W18920  36.993   5.881  10.516
50448W        W18921  36.045  31.546  11.390
50449W        W18922  23.029  33.987  10.442
50450W        W18923  31.084  31.991  10.498
50451W        W18924   3.381  25.611   0.480
50452W        W18925  35.450  19.093  11.032
50453W        W18926  37.853  12.165  13.448
50454W        W18927  21.065  41.503   9.992
50455W        W18928  22.148  44.864   4.685
50456W        W18929  24.509  43.846   0.404
50457W        W18930  38.550  43.962  10.954
50458W        W18931  15.263  16.605  13.350
50459W        W18932   8.764  25.208  10.434
50460W        W18933  39.411  43.871   1.922
50461W        W18934   3.421   0.746   4.780
50462W        W18935  10.199  10.824   1.449
50463W        W18936  41.792  35.063  12.898
50464W        W18937  22.571  32.091  13.394
50465W        W18938  10.640  16.295   2.222
50466W        W18939  33.938  16.219  10.892
50467W        W18940  18.746   3.266   1.775
50468W        W18941   8.754  14.730   2.319
50469W        W18942   9.212  21.074   9.976
50470W        W18943  13.313  11.370  14.948
50471W        W18944  35.402  27.973  11.918
50472W        W18945  42.292  28.965  11.058
50473W        W18946  38.977  39.868   3.712
50474W        W18947  41.343  15.317  10.977
50475W        W18948  35.592   5.907  13.945
50476W        W18949  38.353  10.257  12.468
50477W        W18950  19.539  22.736   4.657
50478W        W18951  15.745  29.110   9.990
50479W        W18952   6.709  14.614  14.959
50480W        W18953  43.981   4.728  14.816
50481W        W18954  24.160   5.913   0.403
50482W        W18955  15.760  23.519   5.087
50483W        W18956  43.356   2.271  11.899
50484W        W18957   2.923  40.411  12.906
50485W        W18958  31.032  21.697   4.284
50486W        W18959  30.989   6.687  10.987
50487W        W18960  36.558  44.346   1.423
50488W        W18961   6.307  10.710   4.158
50489W        W18962   4.864   6.916   4.726
50490W        W18963  41.898   6.366   2.841
50491W        W18964   7.331  17.151   0.469
50492W        W18965  22.719   5.827  14.771
50493W        W18966   5.372  31.141  14.508
50494W        W18967  13.271  28.974  13.915
50495W        W18968  39.378   7.276  14.940
50496W        W18969  27.940  27.156  10.484
50497W        W18970  17.684   0.328  11.085
50498W        W18971  38.900  25.562  12.365
50499W        W18972  39.872  38.955   1.809
50500W        W18973  15.643  15.787  10.975
50501W        W18974  18.085  29.970   4.175
50502W        W18975  40.467  34.518   0.446
50503W        W18976  35.463  36.952  12.888
50504W        W18977  22.603  13.631   1.287
50505W        W18978  38.464  12.678  13.829
50506W        W18979  31.021   8.668  12.367
50507W        W18980   9.222   0.408  11.612
50508W        W18981  25.039  23.649  14.320
50509W        W18982  21.561  17.721  10.922
50510W        W18983  29.541  26.567   3.844
50511W        W18984  11.800   4.747  12.998
50512W        W18985  18.615   2.814   2.203
50513W        W18986   2.243  41.369   0.332
50514W        W18987  25.546  16.310  11.403
50515W        W18988  19.063  43.865  12.888
50516W        W18989  24.046  41.326  14.763
50517W        W18990  42.852   3.274  11.474
50518W        W18991  37.456  26.564   2.812
50519W        W18992  37.982  35.919   1.236
50520W        W18993  22.181   2.766  12.045
50521W        W18994  25.155  31.580  13.828
50522W        W18995  43.007  16.309   1.776
50523W        W18996  41.319  27.692  11.519
50524W        W18997   0.422  41.362  13.909
50525W        W18998  23.986  18.197   3.830
50526W        W18999  14.326  19.058  14.893
50527W        W19000  24.628  43.849   3.636
50528W        W19001  33.622  26.585   0.403
50529W        W19002  16.268  21.690   3.171
50530W        W19003  29.440  17.115   1.754
50531W        W19004  27.621   0.869  11.428
50532W        W19005  17.271  10.856   2.797
50533W        W19006  16.653  20.720   3.659
50534W        W19007  17.138   4.384  11.461
50535W        W19008  23.125  37.850   2.358
50536W        W19009  29.482  40.533   3.152
50537W        W19010  34.958   3.913  12.012
50538W        W19011  15.214  23.647   3.251
50539W        W19012   0.768  33.977   3.700
50540W        W19013  30.626  40.310  12.512
50541W        W19014  25.647  19.143  10.446
50542W        W19015  30.614   6.261  11.002
50543W        W19016   3.440  19.259   0.323
50544W        W19017  13.627  20.209   0.298
50545W        W19018  34.409  35.079   1.716
50546W        W19019  44.408   4.876   2.212
50547W        W19020  37.353  28.075   4.649
50548W        W19021  18.576  14.238  12.022
50549W        W19022  21.046  15.306  13.972
50550W        W19023  18.066  23.209   0.434
50551W        W19024  30.948  26.170  14.380
50552W        W19025  44.980  11.345   4.680
50553W        W19026  20.051  34.082  13.031
50554W        W19027   0.762  16.194  13.373
50555W        W19028  39.508  15.265  13.504
50556W        W19029   3.723  28.113   2.736
50557W        W19030  14.646  13.277   0.889
50558W        W19031  35.592  25.048   0.928
50559W        W19032  16.151  29.521  10.929
50560W        W19033  42.855  44.976   3.182
50561W        W19034  42.332   4.350  10.513
50562W        W19035  37.482  25.495  14.399
50563W        W19036   4.882  23.085   2.793
50564W        W19037  26.149  37.046   4.211
50565W        W19038   7.679   0.933  14.309
50566W        W19039  42.934  37.450  13.518
50567W        W19040  35.450  40.389   3.737
50568W        W19041  11.131   8.766   1.760
50569W        W19042  37.025  13.134   1.835
50570W        W19043  19.690  12.852  10.515
50571W        W19044  28.577  44.891  14.298
50572W        W19045  32.480  42.997   1.245
50573W        W19046  11.725  28.160   2.683
50574W        W19047  32.543   5.412  12.564
50575W        W19048   1.265  12.840  14.839
50576W        W19049   0.397   7.695  14.913
50577W        W19050  35.565  13.129   3.739
50578W        W19051  29.109  41.510  14.334
50579W        W19052  43.424   8.392  12.536
50580W        W19053  22.646   3.437   3.657
50581W        W19054  18.554   6.862   3.729
50582W        W19055  41.044  22.631  14.339
50583W        W19056  43.877  24.986  12.093
50584W        W19057  22.704  26.092   2.683
50585W        W19058  32.989  40.429  13.375
50586W        W19059  16.751  27.139  11.862
50587W        W19060  44.415   5.786   9.985
50588W        W19061  25.669  35.428   1.867
50589W        W19062   5.785  35.920  11.543
50590W        W19063  43.392  13.681   4.275
50591W        W19064   5.890   2.467   4.753
50592W        W19065   4.945  40.815  11.979
50593W        W19066  26.695  44.348  14.830
50594W        W19067  10.854  39.019  10.471
50595W        W19068   7.901  35.935  12.846
50596W        W19069  33.955  20.743  14.398
50597W        W19070  27.195   5.426   4.719
50598W        W19071  30.993  40.005  12.446
50599W        W19072  28.511  29.105  12.853
50600W        W19073  39.811  30.005  13.358
50601W        W19074  35.021  23.497  10.057
50602W        W19075  43.306  30.652   9.990
50603W        W19076  35.934  11.784   1.738
50604W        W19077  20.751   0.305   3.843
50605W        W19078   9.150   9.181   1.775
50606W        W19079  17.628  25.696  14.008
50607W        W19080  22.524  11.737  14.899
50608W        W19081  23.115   1.277   3.267
50609W        W19082  16.255  20.062  13.337
50610W        W19083  39.036  32.141   4.610
50611W        W19084   7.828  38.861   5.105
50612W        W19085  37.360  28.531   2.882
50613W        W19086  42.399  28.637  10.604
50614W        W19087  15.698   6.413   2.696
50615W        W19088   2.472  31.422  13.873
50616W        W19089  34.404  39.039  12.956
50617W        W19090  40.863  23.552  10.923
50618W        W19091  27.171   5.199   2.802
50619W        W19092  23.124  39.826   0.336
50620W        W19093  31.623  28.016  14.760
50621W        W19094   8.751  35.419   4.197
50622W        W19095  11.626   9.748   4.144
50623W        W19096  10.673  17.629  10.537
50624W        W19097  36.042  25.597   3.265
50625W        W19098  27.022  18.569   1.728
50626W        W19099  33.422  11.623   0.472
50627W        W19100  40.945  15.182  14.367
50628W        W19101  36.427  12.312   0.276
50629W        W19102  25.511   4.729   4.809
50630W        W19103  42.361   8.281  10.568
50631W        W19104   5.345   2.928   2.855
50632W        W19105   0.805  21.122  11.863
50633W        W19106  30.030  16.137   2.361
50634W        W19107  22.564  28.938  13.946
50635W        W19108  39.365  17.201  13.797
50636W        W19109  29.666  35.995   0.374
50637W        W19110  20.059  42.497  14.947
50638W        W19111  13.161  40.386  13.859
50639W        W19112  15.200  17.114   0.444
50640W        W19113   1.883  28.491  10.910
50641W        W19114   8.775  19.578   1.284
50642W        W19115   1.944  16.589   4.772
50643W        W19116  42.480  14.695   1.432
50644W        W19117  19.226  30.038  13.443
50645W        W19118  22.016  16.080  12.837
50646W        W19119   7.826  27.002   4.183
50647W        W19120  15.091  20.263  12.415
50648W        W19121  44.339  21.213   3.781
50649W        W19122  21.591  19.648   4.114
50650W        W19123  29.931  26.114   3.865
50651W        W19124  10.772   3.929  11.119
50652W        W19125  10.758  29.463   4.633
50653W        W19126  44.829  21.703  12.533
50654W        W19127  42.941  20.067   2.687
50655W        W19128  34.953   4.724   4.125
50656W        W19129  42.842   3.454  14.004
50657W        W19130  30.000   5.691  12.973
50658W        W19131  25.525   0.886  12.525
50659W        W19132   5.767  36.346   2.282
50660W        W19133  24.512  19.096  11.856
50661W        W19134  14.329  21.257   3.858
50662W        W19135   2.333  24.493   2.663
50663W        W19136  20.615  21.659  14.788
50664W        W19137  35.885  40.922   0.323
50665W        W19138  39.882  11.773  13.832
50666W        W19139   7.890  18.573  14.797
50667W        W19140   7.319  29.575  10.916
50668W        W19141  33.446  25.580   1.451
50669W        W19142   8.369   8.384  13.474
50670W        W19143  33.545  35.393  13.971
50671W        W19144  43.991  38.860  10.494
50672W        W19145  26.132   5.439   3.846
50673W        W19146  37.936  18.216  11.557
50674W        W19147   1.326  34.098   0.374
50675W        W19148  17.155  25.075  10.513
50676W        W19149  39.322  10.376   1.781
50677W        W19150  21.630  32.988  14.978
50678W        W19151  10.167  20.610   4.148
50679W        W19152  15.613  21.056   4.723
50680W        W19153   4.263   7.784   4.277
50681W        W19154  28.508  21.191  10.643
50682W        W19155  28.085  16.176  13.367
50683W        W19156  16.238  28.166   2.703
50684W        W19157  17.783  25.219  11.492
50685W        W19158  34.454  21.099  14.491
50686W        W19159  44.354   1.376  13.004
50687W        W19160  15.095  24.063  10.478
50688W        W19161   1.911  24.518   0.297
50689W        W19162  21.065  10.180   0.436
50690W        W19163  14.127  24.215  14.474
50691W        W19164  40.531  26.652   4.317
50692W        W19165  16.104  14.210  13.994
50693W        W19166  42.355   4.829  13.314
50694W        W19167  17.078  28.162   0.936
50695W        W19168   3.225  35.501   0.297
50696W        W19169   3.748  33.934   0.311
50697W        W19170  28.145   1.362   4.838
50698W        W19171  12.662  10.178  14.290
50699W        W19172   8.781  21.120   0.739
50700W        W19173  15.747  11.752  13.873
50701W        W19174  10.311  30.045   2.299
50702W        W19175   7.853   2.251  11.403
50703W        W19176  12.634  35.092  12.988
50704W        W19177   4.727   4.938  12.572
50705W        W19178  21.581  26.532  12.084
50706W        W19179   4.788  28.105  12.913
50707W        W19180  26.558   8.701  13.991
50708W        W19181  21.253  13.277  14.379
50709W        W19182  30.142  31.139  11.482
50710W        W19183  44.272  14.166  11.393
50711W        W19184  12.802  43.505   1.321
50712W        W19185  19.670  10.868  10.916
50713W        W19186  27.523  17.249   1.846
50714W        W19187  38.470  40.464  13.453
50715W        W19188  38.844  14.204   4.822
50716W        W19189  36.359  33.508   5.117
50717W        W19190  16.196  43.421   4.749
50718W        W19191  35.384  10.307   2.244
50719W        W19192   6.257   2.350   2.262
50720W        W19193  26.584  35.971   4.800
50721W        W19194  10.303  24.115  14.779
50722W        W19195  27.120  11.628  14.945
50723W        W19196  15.623   4.940  11.528
50724W        W19197  19.581  31.543  11.381
50725W        W19198   3.400   6.765   4.667
50726W        W19199  28.532   7.236  14.767
50727W        W19200  14.664  22.512  11.583
50728W        W19201  13.147  29.566   3.162
50729W        W19202  12.777  30.634  13.936
50730W        W19203  37.996  34.059  12.414
50731W        W19204  13.733  23.149   3.656
50732W        W19205  43.783   9.158   4.170
50733W        W19206  10.278  40.941  13.861
50734W        W19207  25.213  37.462  14.885
50735W        W19208  29.555   8.860   0.924
50736W        W19209  32.125  15.137   2.804
50737W        W19210  18.570  17.150  14.824
50738W        W19211  31.129  22.675  12.382
50739W        W19212  26.066  21.649  11.052
50740W        W19213  37.975  32.454  13.475
50741W        W19214   7.677   7.834   1.695
50742W        W19215   6.221  41.476   0.867
50743W        W19216  19.166  10.363   0.294
50744W        W19217  38.885  38.331  13.063
50745W        W19218  16.301  25.160   2.668
50746W        W19219   6.282  20.555   1.827
50747W        W19220  11.756  29.986  10.417
50748W        W19221  29.024  18.130   2.369
50749W        W19222  22.150  26.206   2.180
50750W        W19223   9.289  44.490   0.278
50751W        W19224   1.793   2.371   2.809
50752W        W19225  42.518  42.297  11.425
50753W        W19226   9.788  26.614  10.907
50754W        W19227  35.506  11.694  12.977
50755W        W19228  22.243   3.347   1.759
50756W        W19229  21.693   9.648  12.528
50757W        W19230  35.566  21.047   0.791
50758W        W19231  28.487  42.945   3.778
50759W        W19232  23.524   2.378  14.918
50760W        W19233  24.554  30.529   2.710
50761W        W19234  16.243   0.929  13.962
50762W        W19235  11.287   4.310  14.031
50763W        W19236  10.217  18.622  10.628
50764W        W19237  25.631  36.358  12.564
50765W        W19238  23.233  25.181   4.720
50766W        W19239   0.823  19.186   0.835
50767W        W19240   0.789  13.141   2.685
50768W        W19241  24.110   8.384  13.051
50769W        W19242  22.631  15.677  11.931
50770W        W19243  21.526  35.876  11.426
50771W        W19244  43.801   6.676  12.860
50772W        W19245   8.685  32.582   0.945
50773W        W19246  31.430  33.050  12.932
50774W        W19247  11.302  19.737  13.804
50775W        W19248  29.047  39.549   1.829
50776W        W19249  18.676  25.972  11.908
50777W        W19250  34.500  42.481   1.409
50778W        W19251  30.062  13.151  13.353
50779W        W19252   9.771  15.654  14.485
50780W        W19253   3.269  28.971  13.870
50781W        W19254  16.094   4.918   3.207
50782W        W19255  16.771  31.617   1.706
50783W        W19256   6.213  29.152  10.912
50784W        W19257  39.928  18.091   0.876
50785W        W19258  23.157  21.221  12.885
50786W        W19259  11.362   7.178   3.791
50787W        W19260  31.418   0.941   0.260
50788W        W19261   7.758  26.590  10.141
50789W        W19262  42.504  39.882   2.687
50790W        W19263  43.279   7.226   4.702
50791W        W19264  27.655  17.272  12.489
50792W        W19265   3.223  30.572   0.803
50793W        W19266  29.946   9.254   1.419
50794W        W19267  37.958  43.394  13.791
50795W        W19268  25.169  37.980   0.382
50796W        W19269  13.149  38.041  13.922
50797W        W19270  41.904  16.636  10.468
50798W        W19271  25.588  31.151  12.880
50799W        W19272  11.203  43.795  14.391
50800W        W19273   6.386  17.062   9.995
50801W        W19274  20.146  11.192  14.861
50802W        W19275   3.369   5.263  11.986
50803W        W19276  24.123  37.426   3.633
50804W        W19277  42.399  41.341  13.462
50805W        W19278  22.212  28.088   1.793
50806W        W19279  21.621  17.619   1.704
50807W        W19280  41.036  31.085  10.587
50808W        W19281  24.993  27.635   4.691
50809W        W19282   0.867   5.822  11.384
50810W        W19283  25.606  15.186  10.630
50811W        W19284  29.048   9.698  12.910
50812W        W19285  16.075  42.961  10.410
50813W        W19286  13.129  17.120   9.942
50814W        W19287  10.373  20.669  13.313
50815W        W19288  18.633  33.886  12.952
50816W        W19289  24.540  20.702  11.497
50817W        W19290   1.249  33.047   1.404
50818W        W19291  11.141  27.677   3.350
50819W        W19292  11.777  36.973  13.538
50820W        W19293   6.226   7.860  11.552
50821W        W19294  22.599  42.510   4.249
50822W        W19295  37.555  13.267   0.788
50823W        W19296  20.708  12.706  10.464
50824W        W19297  35.398   4.436  11.947
50825W        W19298  31.102  25.110   4.718
50826W        W19299  36.523  22.166  11.480
50827W        W19300  36.535  39.409  12.094
50828W        W19301  20.654   4.447  14.943
50829W        W19302   4.725  12.773  13.437
50830W        W19303   5.340   1.421  12.487
50831W        W19304   2.290  31.457   0.465
50832W        W19305  23.112   3.952   4.758
50833W        W19306  22.116  22.671  14.379
50834W        W19307   1.862   2.315  11.859
50835W        W19308  14.170  35.076   1.395
50836W        W19309  23.608  20.591   3.658
50837W        W19310  20.240  22.684   4.668
50838W        W19311  40.532  23.714  14.858
50839W        W19312   5.853  33.045   1.375
50840W        W19313  25.079  16.708  12.364
50841W        W19314  21.519  16.170  14.886
50842W        W19315  30.098   3.887  13.309
50843W        W19316   7.787  33.970  11.422
50844W        W19317  21.587  23.634  14.508
50845W        W19318  35.576  29.623  11.608
50846W        W19319  22.606   5.887   2.279
50847W        W19320  30.499  27.503   2.693
50848W        W19321   4.788  32.107   9.940
50849W        W19322  27.678   0.447  11.965
50850W        W19323   6.706  39.397   0.821
50851W        W19324  16.271  39.367  10.612
50852W        W19325   7.829   2.819   0.250
50853W        W19326  26.634  22.027   1.390
50854W        W19327  29.954   1.429   4.822
50855W        W19328  22.076  20.721   2.854
50856W        W19329  23.237  24.122   4.265
50857W        W19330  21.032  19.267   3.297
50858W        W19331   4.372   4.385   4.268
50859W        W19332  33.536   5.787   3.146
50860W        W19333  16.240  35.890   1.851
50861W        W19334  27.674  16.075   2.295
50862W        W19335  30.062  11.334   0.305
50863W        W19336  12.158  38.503   0.892
50864W        W19337  26.500  30.025   2.329
50865W        W19338  16.262  13.689   1.807
50866W        W19339  23.229  32.054  10.150
50867W        W19340  36.539  38.524  11.977
50868W        W19341  22.664  20.566   1.246
50869W        W19342  34.428  21.192   1.750
50870W        W19343  20.093  11.751  13.038
50871W        W19344   9.730  38.425  12.426
50872W        W19345  34.919   8.810  11.971
50873W        W19346  28.010  22.204  12.577
50874W        W19347  27.569  16.111  12.485
50875W        W19348  44.410   4.267   3.784
50876W        W19349  31.944  10.857   2.280
50877W        W19350  25.057  12.126   4.701
50878W        W19351  13.696   9.719   0.804
50879W        W19352   2.236  18.667   1.873
50880W        W19353   5.328  41.930  10.995
50881W        W19354  14.655  36.368   1.273
50882W        W19355   7.402  20.267   3.682
50883W        W19356   1.970   1.853  13.841
50884W        W19357  42.967  16.114  14.805
50885W        W19358  42.374  28.495   1.910
50886W        W19359  16.635  24.621   1.790
50887W        W19360  19.148  27.945   2.235
50888W        W19361  22.137  40.506  10.464
50889W        W19362  31.934  20.668  12.829
50890W        W19363  42.415  14.261  12.377
50891W        W19364  31.140  30.533   4.350
50892W        W19365  15.326  34.913  12.886
50893W        W19366  24.997  30.572   2.662
50894W        W19367  39.397   0.862  11.607
50895W        W19368  13.126  41.473   2.709
50896W        W19369  40.467  35.945   1.823
50897W        W19370  35.908  23.685   3.232
50898W        W19371  24.141  30.461   9.970
50899W        W19372  40.028   0.400  11.477
50900W        W19373   2.771  31.520  12.927
50901W        W19374  31.541   3.816   4.706
50902W        W19375  15.190  16.245   1.370
50903W        W19376  37.950  32.100   0.819
50904W        W19377  11.275  40.514  14.787
50905W        W19378  41.912  23.497  11.582
50906W        W19379  39.396   0.319  14.928
50907W        W19380  41.461  17.568   3.179
50908W        W19381   9.161   1.373   1.767
50909W        W19382  41.001  27.554   0.271
50910W        W19383  14.118  14.754   3.153
50911W        W19384  40.817   4.248   3.732
50912W        W19385  26.113  31.574   4.752
50913W        W19386  27.491  15.821   1.372
50914W        W19387   6.189  15.700  10.064
50915W        W19388  23.141   3.742   0.881
50916W        W19389   7.414  13.239  10.986
50917W        W19390  30.909  35.857   0.420
50918W        W19391  30.059   6.307   3.662
50919W        W19392  19.041  23.713  14.930
50920W        W19393  43.822  21.170  12.490
50921W        W19394  40.801  19.778   3.202
50922W        W19395  20.098  29.989  12.988
50923W        W19396  40.398  26.597   3.338
50924W        W19397  21.180  19.274   2.812
50925W        W19398   0.909  30.051  14.024
50926W        W19399  26.125   1.801   0.911
50927W        W19400  36.461  25.657   4.839
50928W        W19401  17.594  10.691   3.717
50929W        W19402  30.150  41.912  11.946
50930W        W19403  23.024   1.754   2.190
50931W        W19404  35.859  10.648  14.364
50932W        W19405  43.901  22.554   0.314
50933W        W19406  25.093  38.973  12.466
50934W        W19407  17.149  43.463   2.866
50935W        W19408  11.304  43.910  11.062
50936W        W19409   3.299  11.319   2.710
50937W        W19410  21.559  16.077   3.220
50938W        W19411  26.115   7.829   2.672
50939W        W19412  25.564  35.920  14.392
50940W        W19413  15.593  40.979   1.710
50941W        W19414  22.698   3.808  11.473
50942W        W19415  31.588  15.611   4.753
50943W        W19416  38.420  22.530   3.779
50944W        W19417  36.453   4.919   3.228
50945W        W19418  36.867  23.226  10.495
50946W        W19419  11.648  19.271  13.504
50947W        W19420  30.647  24.124  13.390
50948W        W19421  22.585  12.322   4.245
50949W        W19422  22.168   7.210   1.416
50950W        W19423  27.573  11.628   1.225
50951W        W19424  19.715  39.874  11.103
50952W        W19425  31.036  19.686  10.429
50953W        W19426  43.962  28.624  11.956
50954W        W19427   1.256   8.265   4.306
50955W        W19428  41.874   5.829  12.059
50956W        W19429  13.844  30.950   1.902
50957W        W19430  29.640  43.778   2.250
50958W        W19431   7.738  35.365  13.523
50959W        W19432  24.113  30.909  10.979
50960W        W19433  34.042  19.086   4.603
50961W        W19434  15.711  13.219  12.017
50962W        W19435  34.065   5.305  12.915
50963W        W19436  14.738  23.505   1.775
50964W        W19437  20.123  12.173  13.796
50965W        W19438   6.844  32.395  14.315
50966W        W19439  14.622   7.204  10.942
50967W        W19440   1.480  20.591  13.816
50968W        W19441  20.527  21.252  13.822
50969W        W19442  10.651  11.131  11.387
50970W        W19443  44.979  41.870  11.054
50971W        W19444   6.874  39.334   4.353
50972W        W19445  25.117  29.952   4.792
50973W        W19446   1.890  26.008  14.843
50974W        W19447  42.872  16.112   2.377
50975W        W19448  25.117   9.784   1.934
50976W        W19449  34.574  44.767   1.389
50977W        W19450  37.391   7.321  10.586
50978W        W19451  15.739   3.396   0.900
50979W        W19452  17.284  36.065   0.910
50980W        W19453   5.841   6.210  10.946
50981W        W19454  24.710  35.372  13.031
50982W        W19455  30.094  34.404  10.955
50983W        W19456  40.001  41.314   1.210
50984W        W19457  26.687   7.369  10.951
50985W        W19458  39.468  18.566  12.896
50986W        W19459  23.686  32.076  12.576
50987W        W19460   9.843  41.031  11.388
50988W        W19461   4.910  26.548  12.363
50989W        W19462  43.991  21.055  11.930
50990W        W19463  19.172   3.222  14.365
50991W        W19464   3.451   4.840  10.429
50992W        W19465  19.695  34.463   1.875
50993W        W19466  36.093  44.407  14.500
50994W        W19467   1.852  32.962   2.746
50995W        W19468  16.138  29.490   3.794
50996W        W19469  42.374  41.432  11.879
50997W        W19470  31.484  20.211   4.314
50998W        W19471   7.365  16.266   2.231
50999W        W19472  37.022  24.132  13.805
51000W        W19473  31.967  15.093   2.331
51001W        W19474   1.309  18.752   2.380
51002W        W19475   5.376   2.252  12.056
51003W        W19476  41.476   2.737  10.910
51004W        W19477  38.546  11.206   1.853
51005W        W19478  33.947  42.960  13.514
51006W        W19479   2.274   3.329   1.446
51007W        W19480  43.278   9.711  14.850
51008W        W19481  30.945   5.324  10.562
51009W        W19482  16.087   1.313  14.377
51010W        W19483  26.468  40.840   2.411
51011W        W19484  29.011  21.056  14.420
51012W        W19485  11.781  42.993   3.657
51013W        W19486  20.525  37.456  12.908
51014W        W19487  44.409  21.204   2.699
51015W        W19488  25.635  20.721  11.446
51016W        W19489  39.501  15.288  12.543
51017W        W19490   7.405  38.497  14.375
51018W        W19491  38.835   6.398   0.867
51019W        W19492   8.289   6.218  12.863
51020W        W19493   3.843  38.368  13.862
51021W        W19494   3.217   9.278  11.478
51022W        W19495  41.840  34.897  14.302
51023W        W19496  24.109  16.148   4.758
51024W        W19497  18.618  21.173  14.381
51025W        W19498   4.771  18.551  12.906
51026W        W19499   8.393   5.405   1.323
51027W        W19500  26.969   3.244   4.755
51028W        W19501  12.769  12.287  10.546
51029W        W19502  10.747  38.884   3.194
51030W        W19503  38.831  36.894   3.769
51031W        W19504  19.171  42.910  11.556
51032W        W19505  31.951  21.064   3.228
51033W        W19506  40.305  36.095  11.451
51034W        W19507  32.544  33.944   1.282
51035W        W19508  43.955  13.320  10.594
51036W        W19509  25.541  10.232  12.365
51037W        W19510  27.129  24.189   3.354
51038W        W19511  39.990   9.843  11.993
51039W        W19512  24.529  26.955   9.523
51040W        W19513  44.356  27.032  14.276
51041W        W19514  37.971   7.283  12.972
51042W        W19515  11.295   3.753  12.018
51043W        W19516   4.857  29.585   4.737
51044W        W19517  14.164  43.020   3.844
51045W        W19518  30.648  39.906   1.760
51046W        W19519  35.016  30.523  12.406
51047W        W19520  13.734  35.002   0.305
51048W        W19521  23.657   8.254   0.873
51049W        W19522  17.605  21.733   1.719
51050W        W19523  29.463  37.419   0.292
51051W        W19524   6.322   4.244  13.335
51052W        W19525  23.109  39.002  11.424
51053W        W19526  17.230  20.076   3.816
51054W        W19527  16.267  30.607  13.973
51055W        W19528   6.339  39.926   1.792
51056W        W19529  25.710  27.069   0.962
51057W        W19530  25.181   3.821  13.951
51058W        W19531  29.079  24.503  13.323
51059W        W19532  16.674  40.014   3.199
51060W        W19533  27.491  39.501   0.881
51061W        W19534  25.703  11.858  13.358
51062W        W19535  15.237   6.918   3.176
51063W        W19536   5.310  23.631   0.293
51064W        W19537  16.164  21.044  14.489
51065W        W19538  35.003  26.532   3.364
51066W        W19539   7.178  23.986  14.328
51067W        W19540   4.440  21.213   4.226
51068W        W19541  31.589  13.789   2.256
51069W        W19542  30.135   5.385   4.664
51070W        W19543   9.654  39.361   2.738
51071W        W19544   4.830  29.011   9.973
51072W        W19545  18.569  16.173  10.613
51073W        W19546   6.810  22.720  10.607
51074W        W19547  11.274  42.316  12.343
51075W        W19548  41.370  34.937   3.696
51076W        W19549  40.329  13.328   4.781
51077W        W19550  32.588   4.849   0.759
51078W        W19551  17.147  28.995  10.918
51079W        W19552  17.793   3.318  10.602
51080W        W19553   0.277  39.947  13.532
51081W        W19554   0.890   9.287   2.893
51082W        W19555  18.192  21.126  13.008
51083W        W19556  26.075  34.590   0.904
51084W        W19557  32.060  17.626  10.596
51085W        W19558  25.012  10.166  10.946
51086W        W19559  17.093  36.901   1.378
51087W        W19560   6.862   2.912   1.827
51088W        W19561  29.948  39.815  10.590
51089W        W19562   3.846   3.907  12.829
51090W        W19563  37.988   2.395   4.301
51091W        W19564  37.902  42.983  12.893
51092W        W19565  33.879  26.679   2.234
51093W        W19566  38.868  13.668   0.896
51094W        W19567  19.268  21.135   0.917
51095W        W19568  26.978  36.571   4.821
51096W        W19569  28.036   7.671   1.738
51097W        W19570  10.732  25.189   4.226
51098W        W19571   6.428   8.729   1.452
51099W        W19572  42.892  16.262  12.011
51100W        W19573  40.970  42.994   4.284
51101W        W19574  25.490  29.577   0.873
51102W        W19575   1.977  21.150   4.771
51103W        W19576  29.449  11.806   2.847
51104W        W19577   3.939  16.171  12.900
51105W        W19578   6.285  36.030  12.031
51106W        W19579  28.548  19.643  14.790
51107W        W19580  21.599  32.545  13.838
51108W        W19581  26.685  19.193  14.357
51109W        W19582  28.668  13.210  13.400
51110W        W19583  22.130  20.670  14.956
51111W        W19584  26.696  10.376   1.823
51112W        W19585  34.105  39.487   4.345
51113W        W19586  39.926   4.777   0.872
51114W        W19587  17.072   7.277  10.988
51115W        W19588  23.066   8.778   0.366
51116W        W19589  15.190  22.742   0.442
51117W        W19590  36.046  16.640   3.770
51118W        W19591  29.461  14.768  11.867
51119W        W19592  28.144  25.528   3.265
51120W        W19593  26.577   9.662  11.944
51121W        W19594  30.030  36.960  13.323
51122W        W19595  17.168  13.807  10.480
51123W        W19596   1.364  27.085   4.342
51124W        W19597  35.862   2.434  11.064
51125W        W19598  39.512   3.829  12.402
51126W        W19599   6.215  18.557  11.499
51127W        W19600   8.384  31.535  10.955
51128W        W19601  31.455  26.599  12.346
51129W        W19602  19.550  23.697   3.240
51130W        W19603  31.421  23.648   4.660
51131W        W19604  33.110  14.213   1.308
51132W        W19605  43.984  39.542   0.301
51133W        W19606  33.997  16.310  12.968
51134W        W19607   3.901  14.767   2.222
51135W        W19608  40.411  35.577   2.262
51136W        W19609  19.119  30.524  11.879
51137W        W19610   8.334  35.369  12.339
51138W        W19611   1.951  40.812   1.922
51139W        W19612  15.316  30.100  11.049
51140W        W19613  44.936   3.223  12.487
51141W        W19614  26.126  37.881  13.827
51142W        W19615  31.963   9.333   0.767
51143W        W19616  17.241  20.727  13.864
51144W        W19617   6.404  18.651   0.833
51145W        W19618   1.373   7.252  13.402
51146W        W19619   0.426  17.181   2.372
51147W        W19620  12.221  32.137  14.301
51148W        W19621   8.786   0.798   0.937
51149W        W19622   6.382  10.203   0.775
51150W        W19623  38.445  21.141   4.741
51151W        W19624  31.439   4.279  14.981
51152W        W19625  37.981  27.548   0.932
51153W        W19626  33.075  43.976  14.406
51154W        W19627  30.602  41.363  12.076
51155W        W19628  11.698  25.013  12.533
51156W        W19629   5.424  26.657  12.979
51157W        W19630  22.679   6.691  13.431
51158W        W19631  21.113   1.749  11.108
51159W        W19632   4.747   0.448   0.247
51160W        W19633  44.485  16.194   4.191
51161W        W19634  29.150  18.601   3.826
51162W        W19635  31.525  33.022  14.796
51163W        W19636   7.217  11.694   0.435
51164W        W19637  16.615  12.670  11.092
51165W        W19638  34.111  34.977   3.208
51166W        W19639  43.342  23.530   1.224
51167W        W19640  39.515  38.032  13.507
51168W        W19641  16.187   3.371  14.764
51169W        W19642  27.979  29.034  10.082
51170W        W19643  44.992  39.324   3.688
51171W        W19644   8.755  13.635  11.018
51172W        W19645  26.147  40.852  10.915
51173W        W19646  25.167  44.317   1.707
51174W        W19647  15.115  30.917   2.361
51175W        W19648  34.368  15.286   4.787
51176W        W19649  34.987  31.481   2.688
51177W        W19650  12.197  14.613   4.290
51178W        W19651  22.056  35.584   4.202
51179W        W19652  28.118  21.050   9.987
51180W        W19653  38.939  40.527   0.799
51181W        W19654  26.677   2.853  12.966
51182W        W19655  19.259  43.771  11.859
51183W        W19656  35.415   6.761   0.953
51184W        W19657  39.818  42.392   4.671
51185W        W19658   1.945  31.128   5.098
51186W        W19659   0.917  34.937   4.634
51187W        W19660  36.374  44.352  12.035
51188W        W19661  42.448  35.458  13.981
51189W        W19662   1.859   9.751  13.908
51190W        W19663   8.863  34.545  10.090
51191W        W19664  28.980  33.033  10.536
51192W        W19665   1.375   0.912  14.910
51193W        W19666   7.707  42.945   1.319
51194W        W19667  34.002  29.506  12.981
51195W        W19668   1.254   2.408  14.843
51196W        W19669  10.358  19.148   4.698
51197W        W19670   1.750  20.731  11.558
51198W        W19671  31.126  25.601  13.979
51199W        W19672  31.099  44.456   4.597
51200W        W19673  39.452  25.638   4.707
51201W        W19674   3.896  17.603   2.287
51202W        W19675  30.115  44.856  11.603
51203W        W19676  36.424  41.933   2.300
51204W        W19677  35.952  11.787   0.880
51205W        W19678   6.898  24.493   0.401
51206W        W19679  26.662  14.212   0.890
51207W        W19680  11.841  29.135   3.788
51208W        W19681  29.606  25.061   5.655
51209W        W19682   1.368   5.239   1.310
51210W        W19683  23.682  13.739  13.880
51211W        W19684   7.242  27.029   0.881
51212W        W19685  42.429  34.481  11.423
51213W        W19686   5.392  29.082  14.824
51214W        W19687   9.655  31.446  11.495
51215W        W19688   8.840  41.407  13.955
51216W        W19689  29.141  16.723   3.638
51217W        W19690  11.240  29.653  11.107
51218W        W19691  13.127  17.157  14.338
51219W        W19692   3.235   0.749  13.965
51220W        W19693  42.846   8.342  14.994
51221W        W19694  30.592  39.322   3.805
51222W        W19695  33.942  39.485   2.339
51223W        W19696  22.167  35.459   2.362
51224W        W19697  40.836  41.503   3.173
51225W        W19698   7.207  31.146  11.429
51226W        W19699  40.381  41.524   2.841
51227W        W19700  22.742  25.095   9.974
51228W        W19701  37.962  16.298   1.770
51229W        W19702  34.412  24.199  11.119
51230W        W19703  40.523  10.333   1.891
51231W        W19704   8.390  40.528   3.753
51232W        W19705   1.888  25.040  12.575
51233W        W19706  21.245  39.430   4.627
51234W        W19707   0.983   8.376  11.503
51235W        W19708   6.794  39.047  11.428
51236W        W19709  35.488  24.517  10.928
51237W        W19710   8.345  31.140   1.357
51238W        W19711  12.800  36.406  12.081
51239W        W19712   5.733   5.288  12.842
51240W        W19713  10.365   6.896  10.587
51241W        W19714  21.520  17.236   2.185
51242W        W19715  32.460  40.910   3.719
51243W        W19716   1.461  25.160   3.788
51244W        W19717  14.233  11.862  14.512
51245W        W19718  20.077  32.095  10.056
51246W        W19719  38.533  25.012  13.390
51247W        W19720   8.757  23.044  11.037
51248W        W19721   8.244  24.660   0.474
51249W        W19722  18.647  29.056   4.624
51250W        W19723   9.281  39.018  10.962
51251W        W19724  21.600  44.977   2.669
51252W        W19725   8.766  23.601  11.940
51253W        W19726  34.599  38.568   4.684
51254W        W19727  10.722  17.664  12.355
51255W        W19728  15.162  32.501  13.540
51256W        W19729  20.567  37.042   3.658
51257W        W19730  44.833   5.195  14.919
51258W        W19731  41.346  27.089  12.959
51259W        W19732  24.006   1.439  10.644
51260W        W19733  40.408  17.070  12.408
51261W        W19734  16.246  32.453  13.326
51262W        W19735  25.504  16.123   3.795
51263W        W19736  23.017  36.875  11.527
51264W        W19737  41.015  33.430   2.693
51265W        W19738  18.276  27.537  14.453
51266W        W19739  13.640  33.496   0.278
51267W        W19740  39.514   5.881   3.179
51268W        W19741  40.811   0.370  13.540
51269W        W19742  22.742  39.891  10.640
51270W        W19743  44.279  11.250  11.559
51271W        W19744   0.917  23.623  10.638
51272W        W19745  10.841  23.024  14.865
51273W        W19746   8.660  32.006   9.927
51274W        W19747  37.500  40.007   2.411
51275W        W19748   7.403  44.476   4.644
51276W        W19749  22.059  39.052   2.278
51277W        W19750  36.950  44.928   0.752
51278W        W19751  15.649   3.803   3.648
51279W        W19752  44.994   9.701   3.713
51280W        W19753  39.049  32.477  14.762
51281W        W19754   3.277   0.283  12.420
51282W        W19755  39.538   0.314  11.520
51283W        W19756   7.683  13.733  11.418
51284W        W19757  14.640  25.650  11.080
51285W        W19758  25.982   1.902   1.888
51286W        W19759   6.369  11.760   1.261
51287W        W19760  37.488  29.065  13.818
51288W        W19761  43.392  34.427  13.997
51289W        W19762  35.468  16.751  12.890
51290W        W19763  18.292  11.170   1.803
51291W        W19764  20.652  14.678  13.496
51292W        W19765  25.183  43.987  11.099
51293W        W19766   8.229  17.104  14.394
51294W        W19767  37.406   2.842   3.639
51295W        W19768  43.396   1.921   3.201
51296W        W19769  10.286  23.238   3.786
51297W        W19770  44.885  37.873   2.688
51298W        W19771  33.062  31.026  11.594
51299W        W19772  34.435  19.110   0.828
51300W        W19773  42.450  22.196  10.517
51301W        W19774  38.058  35.570   0.884
51302W        W19775   8.702  39.387  12.459
51303W        W19776   7.198  43.018   2.843
51304W        W19777  23.551  38.421   3.233
51305W        W19778  15.246  22.147   3.651
51306W        W19779  42.334  15.626  14.277
51307W        W19780   1.808  20.657  13.464
51308W        W19781   0.358   2.330  10.470
51309W        W19782   6.795  27.461  12.930
51310W        W19783   3.877  21.224  11.460
51311W        W19784  15.239  28.090  11.013
51312W        W19785  14.271  12.308  12.442
51313W        W19786  22.580  12.346   5.726
51314W        W19787  30.157  44.271   3.288
51315W        W19788  11.360  40.023   2.879
51316W        W19789  41.872  39.833  10.467
51317W        W19790  14.332  42.933  10.970
51318W        W19791  29.604  23.513  10.502
51319W        W19792   2.770  16.586   3.200
51320W        W19793   5.740  28.126   4.212
51321W        W19794  28.605  24.633  11.502
51322W        W19795  22.055   0.773   2.394
51323W        W19796   0.458  14.630  11.511
51324W        W19797  43.515   8.162  14.446
51325W        W19798  37.442  39.320  12.932
51326W        W19799  33.584  28.528  12.394
51327W        W19800  15.179  13.326  13.494
51328W        W19801  43.329  15.599  10.641
51329W        W19802  15.788   2.852  11.001
51330W        W19803   1.848   8.382   3.778
51331W        W19804   8.302  20.233   4.161
51332W        W19805  10.252  43.282  12.532
51333W        W19806  18.761   4.942   4.635
51334W        W19807  36.482  27.079  11.525
51335W        W19808   3.824   8.312  11.372
51336W        W19809   1.465  33.892   0.937
51337W        W19810  27.596  14.619   3.161
51338W        W19811  16.208  44.879  14.776
51339W        W19812  22.019  27.538  13.387
51340W        W19813   2.456  34.573  10.160
51341W        W19814  37.085   5.193  14.965
51342W        W19815  31.506  23.141  11.469
51343W        W19816  31.077   1.309   0.405
51344W        W19817   5.205  34.038  14.425
51345W        W19818  37.919  37.419   3.264
51346W        W19819   7.784  41.407   2.182
51347W        W19820  25.539  13.771  14.784
51348W        W19821  12.684  12.852  13.805
51349W        W19822  34.891  33.046   1.731
51350W        W19823  23.205   3.221   1.920
51351W        W19824  16.181   0.860  11.597
51352W        W19825  20.081   4.401   4.186
51353W        W19826   7.361  26.491   4.207
51354W        W19827   6.197  10.222  12.419
51355W        W19828  33.947  18.176  11.076
51356W        W19829  32.550  37.506  12.479
51357W        W19830  13.340  22.562  11.035
51358W        W19831  44.887  42.801   1.896
51359W        W19832  39.896  15.271  12.569
51360W        W19833   5.325  19.651   2.886
51361W        W19834  13.315  21.174   1.302
51362W        W19835  29.443   9.644  13.904
51363W        W19836  25.983   1.320   3.706
51364W        W19837  23.567  26.207   1.443
51365W        W19838   5.791   5.332   1.338
51366W        W19839   0.318  12.336   4.233
51367W        W19840  20.567  39.522   1.329
51368W        W19841  42.926  40.957   0.879
51369W        W19842  31.952   9.829  14.894
51370W        W19843  39.466  30.007   0.368
51371W        W19844  11.311  10.354  10.499
51372W        W19845  33.598  14.239  12.063
51373W        W19846  12.237  26.002   3.809
51374W        W19847  38.949  33.538   9.972
51375W        W19848   8.217  13.120  12.518
51376W        W19849  44.306  36.464  14.770
51377W        W19850  17.755  44.363   0.396
51378W        W19851  17.067  19.044   1.914
51379W        W19852  34.990  27.109   4.651
51380W        W19853  32.132  26.101  10.463
51381W        W19854  17.733  15.169   4.747
51382W        W19855  40.509  16.569  12.956
51383W        W19856  36.856   0.796  14.826
51384W        W19857   3.352   3.431  10.078
51385W        W19858  34.918  32.430  13.793
51386W        W19859   1.471  40.806  14.782
51387W        W19860  13.260  35.090   3.809
51388W        W19861  43.781   0.850   4.799
51389W        W19862   5.875  23.606   0.448
51390W        W19863  29.593   7.300   1.812
51391W        W19864  23.496   7.191  11.958
51392W        W19865   9.348  23.129  12.091
51393W        W19866  40.393  43.324  14.794
51394W        W19867  37.474  14.686   3.717
51395W        W19868  18.679  25.987  11.494
51396W        W19869   6.864  22.524   2.197
51397W        W19870  29.591  21.594  11.431
51398W        W19871  44.481   9.821   3.707
51399W        W19872  38.831  38.985  10.431
51400W        W19873  26.644  19.766  10.008
51401W        W19874   5.198  29.166  11.886
51402W        W19875  29.972  39.370  14.469
51403W        W19876   3.740  21.193   0.813
51404W        W19877  30.473  26.680   2.414
51405W        W19878  32.120  29.927  14.471
51406W        W19879  40.926  17.699  11.429
51407W        W19880  32.119  12.686   3.803
51408W        W19881   5.258   3.869  12.491
51409W        W19882  24.502  20.247   1.269
51410W        W19883   8.725  39.063   3.799
51411W        W19884  27.668  16.210  14.448
51412W        W19885   8.363  19.749  14.497
51413W        W19886  26.505  32.574   3.343
51414W        W19887  23.686  11.167   4.176
51415W        W19888  32.082  34.032  10.453
51416W        W19889  27.190  42.835  12.450
51417W        W19890  35.951  21.644   3.259
51418W        W19891  31.988  12.214   1.746
51419W        W19892  40.532  19.175   0.956
51420W        W19893  36.452   4.417   2.765
51421W        W19894  17.622  25.162  14.897
51422W        W19895  25.639  42.513   1.713
51423W        W19896   5.883  19.623   2.797
51424W        W19897  17.085  41.365   5.095
51425W        W19898   3.357  25.198  15.000
51426W        W19899  15.707  39.011  10.495
51427W        W19900  44.270  20.082  11.037
51428W        W19901  10.643  43.357   3.799
51429W        W19902  35.092  36.904   1.812
51430W        W19903  36.480  30.557   0.363
51431W        W19904  22.164  17.598  10.550
51432W        W19905  25.143   9.199   3.294
51433W        W19906   9.737  22.589   9.505
51434W        W19907  31.550  11.804  12.450
51435W        W19908  31.448  38.010  10.933
51436W        W19909  40.893   7.875   1.415
51437W        W19910   9.880  44.788   1.349
51438W        W19911   9.848  19.154   2.179
51439W        W19912  13.193  27.466  12.981
51440W        W19913  11.751  30.465  11.063
51441W        W19914  28.475  23.080  13.830
51442W        W19915  23.504  30.439  10.590
51443W        W19916  33.108  43.355  13.528
51444W        W19917  28.570   8.795  13.977
51445W        W19918  16.797  12.855   2.767
51446W        W19919  43.347  21.181  13.541
51447W        W19920   9.677   7.252   4.214
51448W        W19921  10.292   3.351   4.166
51449W        W19922   6.870   3.846   4.134
51450W        W19923  12.255  18.087  13.961
51451W        W19924  16.752  13.120  13.383
51452W        W19925  22.218  29.618   4.347
51453W        W19926   4.886  21.239  13.480
51454W        W19927  20.245   1.900   1.305
51455W        W19928   6.856   1.371  12.985
51456W        W19929  41.357  10.251  13.357
51457W        W19930  19.633  39.346  13.987
51458W        W19931  36.387  17.169   2.355
51459W        W19932  43.392   9.839   1.785
51460W        W19933  28.621  15.217   3.661
51461W        W19934  23.734   4.895  14.403
51462W        W19935  17.251  32.984  11.490
51463W        W19936   8.372  27.560  11.542
51464W        W19937  33.040  26.607  10.589
51465W        W19938  25.607  20.524  11.116
51466W        W19939  27.046   3.813  12.347
51467W        W19940  22.012  16.168  12.387
51468W        W19941  38.996  14.589   4.171
51469W        W19942  10.236  13.198  13.807
51470W        W19943  40.052  39.327  13.517
51471W        W19944  26.535  37.082  14.954
51472W        W19945  36.963  32.566  14.324
51473W        W19946   9.336  44.399   2.250
51474W        W19947  41.382   3.761   1.282
51475W        W19948   2.891   6.369   1.278
51476W        W19949  21.259  35.595  14.780
51477W        W19950   6.820  14.640   1.713
51478W        W19951  30.618   4.770  14.878
51479W        W19952  43.887  30.469   4.780
51480W        W19953  24.690   1.273   5.601
51481W        W19954  41.401  42.941  12.824
51482W        W19955  30.541  11.273   1.315
51483W        W19956   1.739  18.276   0.756
51484W        W19957  17.094  10.148   3.656
51485W        W19958  13.640   9.169   3.655
51486W        W19959   9.253  16.653   4.137
51487W        W19960  32.486   4.280  12.834
51488W        W19961  27.645   2.871  11.114
51489W        W19962   9.329  34.863   1.924
51490W        W19963  14.289   1.787  11.063
51491W        W19964  13.169  15.677  10.939
51492W        W19965  27.145  16.151   1.895
51493W        W19966  23.112  44.833   0.749
51494W        W19967   7.855  28.145  10.531
51495W        W19968  34.873  31.045  14.443
51496W        W19969   3.232  32.537   3.175
51497W        W19970  33.112  13.309   4.287
51498W        W19971  30.986  39.863  13.529
51499W        W19972  43.813  26.561  11.454
51500W        W19973  23.728   9.347  11.971
51501W        W19974  12.719  36.525  11.402
51502W        W19975  32.466   2.935  11.395
51503W        W19976   4.852   9.166   2.372
51504W        W19977  26.015  28.041  11.572
51505W        W19978  39.871   7.219  12.902
51506W        W19979   9.271  18.604   1.913
51507W        W19980  41.525  19.623  14.763
51508W        W19981  17.746  10.323   2.742
51509W        W19982  27.031   4.818   0.806
51510W        W19983   0.347  22.535  11.062
51511W        W19984  24.571   0.933  11.427
51512W        W19985  32.429  23.492  12.064
51513W        W19986  30.158  36.084   1.917
51514W        W19987   1.448  20.721   4.648
51515W        W19988  35.036  12.808   0.385
51516W        W19989   7.343   4.823   1.382
51517W        W19990  20.574  44.401  12.034
51518W        W19991  21.558  13.674  11.963
51519W        W19992   8.390  16.786   2.327
51520W        W19993  25.201  18.732   0.960
51521W        W19994  10.276  33.912   5.574
51522W        W19995  11.251   6.729   0.388
51523W        W19996  31.979  37.905   0.884
51524W        W19997   1.353  44.406  11.945
51525W        W19998   8.291  43.383  14.992
51526W        W19999  17.194  31.955  11.098
51527W        W20000  44.922  19.145  14.888
51528W        W20001  27.509  24.228  14.359
51529W        W20002  22.545  38.889   3.175
51530W        W20003  29.537  12.204  10.582
51531W        W20004  35.019  25.040  13.900
51532W        W20005  30.635  14.633  14.766
51533W        W20006   6.415  25.583   3.155
51534W        W20007  43.303  33.529   0.803
51535W        W20008   7.241  15.643   5.654
51536W        W20009   5.308  25.665  12.544
51537W        W20010   3.443  37.362   4.133
51538W        W20011  19.251  43.429  14.781
51539W        W20012  34.392  11.660   4.212
51540W        W20013  12.790   5.388   2.837
51541W        W20014  11.254  34.991   1.291
51542W        W20015  25.082  23.169   4.251
51543W        W20016  22.175  24.589   0.252
51544W        W20017  26.661   3.946  10.940
51545W        W20018  42.329  33.556   3.330
51546W        W20019  23.235  11.631  13.408
51547W        W20020  11.328  17.103  13.451
51548W        W20021  14.268   6.427   0.802
51549W        W20022  21.547  30.460  12.538
51550W        W20023  24.637   0.478   0.458
51551W        W20024   0.479   0.322  12.467
51552W        W20025  20.263  40.505  10.947
51553W        W20026  26.613  34.053   4.764
51554W        W20027  42.343  26.956   2.271
51555W        W20028  40.547  18.082   3.254
51556W        W20029   4.334  12.701   0.766
51557W        W20030  26.001  17.175   3.212
51558W        W20031  14.685  34.392   2.340
51559W        W20032  18.766  17.597   1.795
51560W        W20033  32.928  18.575   2.348
51561W        W20034  41.848  30.104   0.253
51562W        W20035  43.019   4.312  10.945
51563W        W20036  28.988   9.173   4.673
51564W        W20037  43.475  25.209   4.272
51565W        W20038   4.777  13.192   0.462
51566W        W20039  24.552  25.628   2.686
51567W        W20040  19.267  12.144   0.756
51568W        W20041  41.927  31.512   4.241
51569W        W20042   1.459  27.671   2.348
51570W        W20043  34.088  41.339   3.804
51571W        W20044   3.332  26.169   3.193
51572W        W20045  40.014  24.572   1.357
51573W        W20046  44.971  22.695   0.749
51574W        W20047  38.036   5.254  13.830
51575W        W20048  41.987   4.341  11.541
51576W        W20049  14.108  23.103   3.788
51577W        W20050  23.017  10.305  11.552
51578W        W20051   0.934  32.083   3.184
51579W        W20052  25.553  26.108  13.500
51580W        W20053   0.978  25.203   4.268
51581W        W20054  12.672   1.948   3.316
51582W        W20055   7.764  11.861  11.481
51583W        W20056  37.448   9.812  14.320
51584W        W20057  18.627  19.770  11.607
51585W        W20058   8.686  11.746   4.723
51586W        W20059   0.847  18.095   4.180
51587W        W20060  24.013   0.375   4.343
51588W        W20061  31.426  19.209  11.071
51589W        W20062  28.162  15.200  11.942
51590W        W20063  22.580  30.452  11.488
51591W        W20064   2.830   5.794   3.216
51592W        W20065  38.848  22.554   4.612
51593W        W20066  10.761   5.323   2.670
51594W        W20067  23.583  37.850  10.491
51595W        W20068  41.037  17.762   3.680
51596W        W20069  27.035  10.350  10.945
51597W        W20070   2.965   0.485  12.411
51598W        W20071  32.028  43.789  13.874
51599W        W20072  23.714   3.369   0.781
51600W        W20073  17.111   1.968  14.289
51601W        W20074  42.341  30.535  13.375
51602W        W20075  15.314   7.760   1.233
51603W        W20076  31.124  43.915  11.514
51604W        W20077  24.698   1.440   1.451
51605W        W20078  28.949   0.937  14.925
51606W        W20079  35.387  33.468  13.823
51607W        W20080   6.731  40.374   0.756
51608W        W20081   4.884  23.582  12.995
51609W        W20082   4.292  19.078   4.324
51610W        W20083   7.410   9.209  14.031
51611W        W20084   1.855  10.822   0.920
51612W        W20085  21.200  42.902   4.680
51613W        W20086  37.073  24.634  11.427
51614W        W20087   1.458  40.527   2.681
51615W        W20088  16.256   4.368   1.827
51616W        W20089  16.253  20.225   2.206
51617W        W20090  38.927  12.356   4.708
51618W        W20091   1.896  33.454   1.220
51619W        W20092  35.919   2.279  11.609
51620W        W20093  35.922   7.312  11.444
51621W        W20094  13.130  11.834  11.443
51622W        W20095   0.771  40.830  14.310
51623W        W20096   2.829  30.131   3.829
51624W        W20097  16.753  32.406   0.730
51625W        W20098  19.621  17.595  12.040
51626W        W20099  26.190   5.331  12.055
51627W        W20100  36.416   2.800   4.678
51628W        W20101   2.794  41.413   2.204
51629W        W20102   9.164  30.139   4.813
51630W        W20103  24.132  13.134  11.479
51631W        W20104  12.264  23.643   0.355
51632W        W20105  22.184  26.638  12.532
51633W        W20106  43.898  42.285   3.698
51634W        W20107  31.921  14.703   4.829
51635W        W20108   8.851  40.984   2.352
51636W        W20109  43.899  23.602   0.839
51637W        W20110  25.026   1.481  10.579
51638W        W20111  40.046   5.405   4.757
51639W        W20112  31.016  16.596  11.875
51640W        W20113   3.752  30.498   3.866
51641W        W20114  43.790  22.654  12.389
51642W        W20115  41.512  15.770   1.829
51643W        W20116  26.622  29.065  14.851
51644W        W20117   1.343  10.331   1.310
51645W        W20118  11.362   9.173   4.607
51646W        W20119  23.089  34.473   4.676
51647W        W20120  14.244   8.396   2.900
51648W        W20121  34.010  25.977   2.310
51649W        W20122  24.525   7.237   0.937
51650W        W20123  24.515  43.953  10.564
51651W        W20124  31.139  42.351  10.485
51652W        W20125  25.993  39.373   1.269
51653W        W20126  25.506  37.429   3.298
51654W        W20127  13.247   6.862   1.415
51655W        W20128   6.687  41.811   4.127
51656W        W20129  16.782  35.902  14.312
51657W        W20130  39.881   6.848   0.856
51658W        W20131  44.991  14.167   1.286
51659W        W20132  38.355  41.419   2.766
51660W        W20133  44.331  23.235   0.758
51661W        W20134  41.418   3.936  13.544
51662W        W20135  23.120  36.559  13.916
51663W        W20136  43.337  35.078  14.915
51664W        W20137  43.320  42.392   1.442
51665W        W20138  25.195  34.387  12.827
51666W        W20139  21.262  17.200  13.502
51667W        W20140  30.525  29.626  12.345
51668W        W20141  30.626  44.852   2.676
51669W        W20142  22.680  16.151   1.315
51670W        W20143  38.007  10.223   3.292
51671W        W20144  32.509  36.035   1.886
51672W        W20145  24.708  35.465  13.543
51673W        W20146  43.976  26.153   1.298
51674W        W20147   4.908  39.014   4.824
51675W        W20148  17.153  16.111   3.360
51676W        W20149  21.515  30.932  13.007
51677W        W20150  23.613  12.315   3.230
51678W        W20151  27.101  27.659  14.404
51679W        W20152  44.502  31.486  10.626
51680W        W20153  25.205  19.592  11.902
51681W        W20154  21.145  18.581  14.762
51682W        W20155  32.467  33.124  10.918
51683W        W20156  21.715   7.744  10.636
51684W        W20157  28.593  15.639  10.114
51685W        W20158  18.162  42.947  10.994
51686W        W20159  36.914  41.413  10.528
51687W        W20160  15.177  10.346   0.421
51688W        W20161  24.020  13.829   1.882
51689W        W20162  42.817  32.553  10.610
51690W        W20163  12.679  30.164   3.639
51691W        W20164  26.129  31.915   2.303
51692W        W20165  24.141  27.953  11.926
51693W        W20166   3.284   8.685  14.031
51694W        W20167  20.524  21.154   4.157
51695W        W20168  31.037   8.303  12.083
51696W        W20169  44.338  35.096  14.905
51697W        W20170  19.679  30.098  10.465
51698W        W20171   5.871  33.605  11.415
51699W        W20172  12.160   8.827  11.109
51700W        W20173   3.774  18.639  10.629
51701W        W20174  25.966   0.421   3.712
51702W        W20175  27.171  15.677   1.793
51703W        W20176  43.868  37.421   3.161
51704W        W20177  29.956  12.768   1.740
51705W        W20178  38.343  12.210  11.388
51706W        W20179  21.688  38.334  11.447
51707W        W20180   4.842  44.898  12.023
51708W        W20181  39.867  29.569   1.217
51709W        W20182  29.162  29.598  10.636
51710W        W20183  23.621  34.098  12.540
51711W        W20184  36.404   6.315   2.828
51712W        W20185   7.328  37.000  14.873
51713W        W20186   6.396  20.243  11.480
51714W        W20187  11.271  34.951  13.501
51715W        W20188   2.438   2.921   2.229
51716W        W20189  17.786  15.735  14.975
51717W        W20190  23.724   7.830  13.017
51718W        W20191  31.521   0.279  13.857
51719W        W20192  11.675  17.183  11.379
51720W        W20193  15.089  35.455  13.013
51721W        W20194  27.638  10.192  12.577
51722W        W20195  15.129   9.763  13.878
51723W        W20196  29.485  16.179  13.328
51724W        W20197   7.806   4.796  10.077
51725W        W20198   9.687  12.173   1.365
51726W        W20199  26.004  35.954  14.309
51727W        W20200  41.426  27.534   2.242
51728W        W20201  39.536  28.128   2.334
51729W        W20202  17.647  24.166  14.371
51730W        W20203  18.109  30.134  14.801
51731W        W20204  17.115  37.352   1.424
51732W        W20205  26.069  37.970  13.488
51733W        W20206   5.293  30.454  11.919
51734W        W20207   1.742  18.102   4.334
51735W        W20208   2.376  14.711  12.023
51736W        W20209  29.639  38.895  10.407
51737W        W20210  21.018   9.193   1.315
51738W        W20211  42.890  15.310   2.740
51739W        W20212  15.602  16.137   1.326
51740W        W20213  14.690  10.143   4.802
51741W        W20214  43.967  41.408   0.314
51742W        W20215  24.489  38.914   4.631
51743W        W20216   1.818  28.675   0.783
51744W        W20217  42.473   6.273   1.316
51745W        W20218   2.327  11.335   1.900
51746W        W20219  11.275   8.171   3.662
51747W        W20220   4.945  42.911  14.807
51748W        W20221  22.588  14.174  14.365
51749W        W20222   3.748   5.332   3.642
51750W        W20223  17.138   6.258  13.795
51751W        W20224  42.896  30.925   0.453
51752W        W20225  13.255  31.556   4.339
51753W        W20226   3.832  36.018  10.975
51754W        W20227   6.780  42.826   0.432
51755W        W20228   3.832  13.790   4.114
51756W        W20229  33.979  14.747   2.405
51757W        W20230   6.355  43.505   4.606
51758W        W20231   5.363   6.685  14.782
51759W        W20232  35.566   7.691  14.326
51760W        W20233  33.929   2.372   2.317
51761W        W20234  17.260  17.644  10.951
51762W        W20235  20.660  25.174   5.243
51763W        W20236  28.094  23.715  11.490
51764W        W20237  22.740   9.708  14.777
51765W        W20238   7.222   3.255  12.538
51766W        W20239  18.746  18.604  13.839
51767W        W20240  39.413  42.481  11.931
51768W        W20241  34.916  19.094  10.503
51769W        W20242   5.204   8.763  14.941
51770W        W20243  36.543  38.943   2.859
51771W        W20244  42.948  12.810   4.820
51772W        W20245  39.906  40.913  11.384
51773W        W20246  14.176   4.225   0.244
51774W        W20247  41.441  44.349  13.991
51775W        W20248   8.721  10.371  12.056
51776W        W20249   2.276  10.334  11.487
51777W        W20250  35.066  32.468  14.497
51778W        W20251  25.137   9.661  13.026
51779W        W20252   1.257  17.258   2.731
51780W        W20253  32.608  18.700   3.375
51781W        W20254  33.992  23.150  14.275
51782W        W20255   6.233  35.505  10.555
51783W        W20256  38.974  40.909  12.052
51784W        W20257  37.063  18.566  11.405
51785W        W20258  20.167  25.091   5.117
51786W        W20259   2.363  35.452   4.240
51787W        W20260   6.361  36.528  14.030
51788W        W20261   6.187   4.240  12.866
51789W        W20262  20.202  35.431  13.854
51790W        W20263  24.551  26.621  13.467
51791W        W20264  10.735  21.639  12.927
51792W        W20265   5.857  11.159  10.600
51793W        W20266   8.867   7.230  12.974
51794W        W20267  22.204  36.395   3.661
51795W        W20268  25.986  11.705  13.843
51796W        W20269   3.455  22.620   5.314
51797W        W20270  43.271   3.226   4.311
51798W        W20271   7.717  22.677  13.994
51799W        W20272   8.668  42.787  14.315
51800W        W20273  40.799  21.650  13.422
51801W        W20274  40.007   1.788   4.827
51802W        W20275  12.241   3.407   2.763
51803W        W20276  29.652  37.039   1.887
51804W        W20277   6.887  17.685   3.189
51805W        W20278   2.288   3.402  10.954
51806W        W20279  41.359  41.299  13.045
51807W        W20280  43.272  30.422   2.849
51808W        W20281  25.668  16.165   0.860
51809W        W20282  32.012  38.414  13.504
51810W        W20283   4.708  14.667  10.985
51811W        W20284  32.945   5.926  11.547
51812W        W20285  17.182   8.849   3.192
51813W        W20286  37.871  20.208  13.354
51814W        W20287  26.460  10.768  11.923
51815W        W20288  15.684  39.329   3.337
51816W        W20289  20.661  32.936  12.464
51817W        W20290  35.001  34.030  12.922
51818W        W20291  38.370   5.380  12.376
51819W        W20292  31.917   9.164   4.619
51820W        W20293  21.029  30.947  14.325
51821W        W20294  26.662   1.457  14.017
51822W        W20295  42.961  14.095  11.034
51823W        W20296   8.271  29.097   2.669
51824W        W20297  24.570  29.086   0.407
51825W        W20298  24.124  42.916   0.385
51826W        W20299   4.260  22.127   1.716
51827W        W20300  33.058  12.738   3.751
51828W        W20301   4.422  20.102   4.713
51829W        W20302  29.028  39.932   4.146
51830W        W20303  32.038  32.478   1.229
51831W        W20304  31.407   6.844  12.557
51832W        W20305  43.403  29.592   4.120
51833W        W20306  41.038  24.545  11.597
51834W        W20307  26.628  27.552  13.403
51835W        W20308  11.356   8.320   4.157
51836W        W20309  44.355   7.874  12.393
51837W        W20310  25.607  20.659   3.737
51838W        W20311  14.769  20.030   4.220
51839W        W20312  27.568   6.197   4.146
51840W        W20313  41.459  21.242  10.046
51841W        W20314   5.325   6.387   9.645
51842W        W20315  15.769   1.944   1.785
51843W        W20316   1.959  20.198   1.727
51844W        W20317   7.195  39.821   1.390
51845W        W20318  32.955  34.929  10.583
51846W        W20319  19.698   9.657  14.313
51847W        W20320  14.613  38.071   0.482
51848W        W20321   6.692   3.389  14.441
51849W        W20322  17.302   9.364   4.188
51850W        W20323  24.679  33.129  11.375
51851W        W20324  35.879  34.935   1.900
51852W        W20325  42.888  31.431  14.509
51853W        W20326  23.684  40.802   2.379
51854W        W20327  27.608  31.079   1.761
51855W        W20328   4.916  22.067   4.772
51856W        W20329  37.447   2.342   1.857
51857W        W20330  37.963  43.276  14.508
51858W        W20331  18.611  30.538   1.823
51859W        W20332  23.115  13.226   4.149
51860W        W20333   2.853  20.529  12.068
51861W        W20334  33.070  43.507   4.186
51862W        W20335  24.165  15.622   1.366
51863W        W20336  38.871  38.964   2.236
51864W        W20337   4.933  16.308  11.087
51865W        W20338  13.300  14.752  11.538
51866W        W20339  28.166  34.026   1.265
51867W        W20340  10.375  10.738   0.316
51868W        W20341   5.787  16.099  10.510
51869W        W20342  14.126  22.607   1.723
51870W        W20343   0.388  27.990   1.784
51871W        W20344  23.026  24.072  10.627
51872W        W20345   9.830  44.494  10.990
51873W        W20346  30.513  35.431  12.425
51874W        W20347   0.417  34.511  10.481
51875W        W20348   4.326  38.930  11.885
51876W        W20349   3.444   4.309  13.859
51877W        W20350  31.432  28.645   2.675
51878W        W20351  15.740  16.787   4.191
51879W        W20352  10.825  21.588  10.918
51880W        W20353  30.962  30.641   4.614
51881W        W20354  15.722  16.785  13.538
51882W        W20355  27.131   3.421  12.548
51883W        W20356   7.776   4.317  10.943
51884W        W20357   6.314   2.335   4.331
51885W        W20358  41.790  15.795  14.958
51886W        W20359  24.138  38.438  11.876
51887W        W20360  44.475  13.342  12.833
51888W        W20361  17.128  10.290   1.900
51889W        W20362  30.996  40.476   0.814
51890W        W20363  36.398  44.805  12.444
51891W        W20364  16.076  24.520  10.917
51892W        W20365  40.342  16.772  14.411
51893W        W20366  36.008  38.997   2.888
51894W        W20367  43.917  15.817   3.327
51895W        W20368  21.734  20.718  13.446
51896W        W20369  25.682  40.474   0.282
51897W        W20370  19.082  31.531   1.763
51898W        W20371   7.827  38.976   2.232
51899W        W20372  27.493  22.158  10.602
51900W        W20373  22.119   6.309   4.639
51901W        W20374  40.029  34.061  14.765
51902W        W20375  29.942   5.770  11.582
51903W        W20376  37.965  42.885   0.875
51904W        W20377  36.562  25.474  13.391
51905W        W20378  27.679  36.486   1.881
51906W        W20379  12.854  18.186  11.574
51907W        W20380  38.526  13.239  12.530
51908W        W20381  27.447  36.449  11.960
51909W        W20382  36.514  40.449  11.007
51910W        W20383  12.844  38.827   1.886
51911W        W20384  31.120  18.096   0.462
51912W        W20385   6.419  35.386  12.484
51913W        W20386  16.123  40.469   2.414
51914W        W20387  36.872  35.366   2.249
51915W        W20388  21.029   0.377   0.880
51916W        W20389  21.711  37.920   4.148
51917W        W20390  34.876   2.730   4.164
51918W        W20391  21.548  42.869  12.410
51919W        W20392  15.278  29.094  12.866
51920W        W20393  11.322   8.701  12.849
51921W        W20394  36.076  39.523   2.349
51922W        W20395   0.425  21.558   1.850
51923W        W20396  32.450  16.233  11.093
51924W        W20397  11.624  34.460  13.337
51925W        W20398   6.850   5.318   2.324
51926W        W20399  42.509  27.614   0.836
51927W        W20400  40.862  18.735   4.633
51928W        W20401  36.024  13.726   3.376
51929W        W20402  23.097   3.288   2.696
51930W        W20403  43.977  34.485  14.516
51931W        W20404  31.925  13.662   0.332
51932W        W20405   9.791  30.094  11.476
51933W        W20406  31.121  18.259  11.408
51934W        W20407  40.920  34.988  13.047
51935W        W20408  25.075  33.094   2.698
51936W        W20409  36.417  16.610   3.646
51937W        W20410  14.268  44.477   5.224
51938W        W20411  22.670  40.528   0.745
51939W        W20412  16.144   3.426   1.720
51940W        W20413  16.169  12.264  10.926
51941W        W20414  38.446  39.455  10.566
51942W        W20415   4.350  40.015  10.918
51943W        W20416   6.732  38.028  14.881
51944W        W20417  39.338  29.597  12.998
51945W        W20418  32.514  29.059   1.835
51946W        W20419  35.573  29.621   0.755
51947W        W20420  14.226  28.465   2.268
51948W        W20421   2.848  33.615  11.504
51949W        W20422   8.289   3.366   1.781
51950W        W20423  39.315  32.438  12.452
51951W        W20424  17.165   2.289   2.249
51952W        W20425  41.330   6.706   4.691
51953W        W20426   2.295  25.136   4.149
51954W        W20427  42.972   0.284  11.525
51955W        W20428  24.128   6.287  12.391
51956W        W20429   5.269   0.915   1.908
51957W        W20430  27.043  42.905  13.881
51958W        W20431   5.220  33.442   1.742
51959W        W20432  32.506  35.099  14.307
51960W        W20433  16.182  15.175   2.727
51961W        W20434  17.181  21.049   9.954
51962W        W20435  17.256  41.834   3.268
51963W        W20436  40.536   8.886   1.927
51964W        W20437  20.525  44.488  11.382
51965W        W20438  42.511  16.155  12.852
51966W        W20439  17.227  31.436  13.438
51967W        W20440  39.903  37.379  12.829
51968W        W20441  11.839   1.817   5.251
51969W        W20442  10.820   9.191   0.751
51970W        W20443  28.674  30.453  12.088
51971W        W20444  28.110  25.175  11.437
51972W        W20445  39.416  16.151   3.276
51973W        W20446  13.602  20.657  12.507
51974W        W20447   9.668  24.636  14.961
51975W        W20448  24.700  34.396  14.848
51976W        W20449   1.886  24.048   0.355
51977W        W20450   3.460  31.526  13.428
51978W        W20451  15.241  33.011  13.498
51979W        W20452  42.954  43.976   0.272
51980W        W20453  31.090  30.074   2.672
51981W        W20454  21.757  37.439  11.420
51982W        W20455   4.434  10.646  11.585
51983W        W20456   7.369  34.530  10.529
51984W        W20457   2.332  36.442   3.259
51985W        W20458  33.400  26.158   1.912
51986W        W20459  30.129  41.009  11.595
51987W        W20460  43.834  17.701   2.232
51988W        W20461   2.438  44.992  10.554
51989W        W20462  29.595  22.105   1.856
51990W        W20463  13.658  33.123  12.505
51991W        W20464  31.445  30.153  11.470
51992W        W20465  23.537  21.213  13.909
51993W        W20466  30.990  19.583  10.986
51994W        W20467  12.684   8.363  12.894
51995W        W20468   0.329  19.202   2.184
51996W        W20469  22.191  19.661  12.087
51997W        W20470  34.910  14.268  12.433
51998W        W20471   7.794  37.947  11.979
51999W        W20472   2.227  37.865  14.936
52000W        W20473   7.402  44.823   4.113
52001W        W20474  33.071  17.783  14.895
52002W        W20475   2.805  40.440  12.036
52003W        W20476  26.116  30.954  12.037
52004W        W20477   9.854  38.849   0.290
52005W        W20478  23.565  43.316  10.435
52006W        W20479   6.684  15.182   1.873
52007W        W20480  20.035  31.504   4.176
52008W        W20481   3.903   8.383   0.407
52009W        W20482  13.263  34.439   2.668
52010W        W20483  32.885  33.440   3.325
52011W        W20484   3.814  14.294  12.551
52012W        W20485  13.275  13.768   0.911
52013W        W20486  31.974  38.988   2.234
52014W        W20487  29.120  13.823  13.481
52015W        W20488   9.209  39.948  14.975
52016W        W20489  36.058   3.359   1.894
52017W        W20490   4.932  29.568  13.371
52018W        W20491  12.809  22.087  13.060
52019W        W20492  37.957  38.044  13.408
52020W        W20493  26.157  15.759   1.759
52021W        W20494  39.464  32.538  12.996
52022W        W20495  16.721  24.539  13.310
52023W        W20496  38.900  29.977   3.323
52024W        W20497  19.278  26.537   4.119
52025W        W20498  26.042  33.440  14.764
52026W        W20499  24.518   9.691  10.613
52027W        W20500  41.011  38.365   2.775
52028W        W20501  15.108  11.288   3.858
52029W        W20502  11.726   0.928  13.363
52030W        W20503   5.337   9.705   4.658
52031W        W20504  18.115  24.627   0.342
52032W        W20505  16.298  30.092  12.443
52033W        W20506  25.516  44.938   1.426
52034W        W20507  22.737  44.964  12.942
52035W        W20508  18.234  25.512  14.923
52036W        W20509  11.821  22.578   5.162
52037W        W20510  26.470   5.400   0.306
52038W        W20511  35.928  31.911  10.991
52039W        W20512  25.700  38.063   1.702
52040W        W20513  42.977  24.155   2.830
52041W        W20514  40.957  40.977  10.928
52042W        W20515   9.356  37.850   0.872
52043W        W20516  34.395  24.016  12.429
52044W        W20517  34.477  12.159  13.454
52045W        W20518  10.817  26.192   3.764
52046W        W20519  19.136   1.770  13.043
52047W        W20520   9.657  12.617   1.698
52048W        W20521  44.822  13.344   2.856
52049W        W20522  10.758  23.715   2.326
52050W        W20523  12.155  13.214  12.436
52051W        W20524  17.555  41.447  12.904
52052W        W20525   2.271  42.982  11.115
52053W        W20526  23.675  10.685  13.811
52054W        W20527  24.217   2.724  11.027
52055W        W20528   8.835  37.082   0.926
52056W        W20529  28.448  21.192  11.073
52057W        W20530  28.546  43.419   0.808
52058W        W20531  21.030  26.490  13.534
52059W        W20532  20.668  36.364  10.939
52060W        W20533   0.410   3.832   1.443
52061W        W20534  30.929  13.613  13.425
52062W        W20535  18.107  30.156   2.870
52063W        W20536  40.396  14.820   4.144
52064W        W20537  26.585  11.813  10.550
52065W        W20538  17.718  18.088   1.414
52066W        W20539   1.478  31.010   0.828
52067W        W20540   6.205  44.873   1.224
52068W        W20541  36.522  10.241   1.873
52069W        W20542  33.393  42.320  13.827
52070W        W20543   9.887  10.860   4.325
52071W        W20544  24.181  26.679  13.946
52072W        W20545  44.907  40.904  13.533
52073W        W20546   2.349  24.608  12.917
52074W        W20547  10.797   5.848  11.058
52075W        W20548   8.374   5.863  10.465
52076W        W20549  33.121   4.360  11.925
52077W        W20550  36.581   1.246  10.480
52078W        W20551  32.049  41.441   1.772
52079W        W20552  34.931   5.225  14.006
52080W        W20553  13.300   8.787   3.334
52081W        W20554  27.042   7.349   4.347
52082W        W20555  21.148   1.760  12.502
52083W        W20556  11.843  32.004   3.299
52084W        W20557  37.040   1.780   0.253
52085W        W20558  13.350  18.146  13.026
52086W        W20559  32.579  38.822   3.263
52087W        W20560   6.397   0.746  13.366
52088W        W20561  12.206   6.204   3.800
52089W        W20562   3.945  28.653  14.369
52090W        W20563   0.321  39.548  10.412
52091W        W20564   5.796  25.011  14.317
52092W        W20565  20.256  31.470  14.500
52093W        W20566   5.227   4.753   5.696
52094W        W20567   9.209  31.559   4.621
52095W        W20568   0.797  19.267   3.286
52096W        W20569  28.959  29.975   4.708
52097W        W20570   1.800   0.762  12.505
52098W        W20571  16.695   1.453   4.640
52099W        W20572  37.896  39.432   0.276
52100W        W20573  20.171   3.400  13.917
52101W        W20574  34.497  10.714  11.561
52102W        W20575  31.473  11.221   4.318
52103W        W20576  21.091  16.091  13.544
52104W        W20577  39.504  42.423  13.420
52105W        W20578  42.895   8.312   2.305
52106W        W20579   8.251  17.299  13.362
52107W        W20580  35.014  43.785   3.800
52108W        W20581  22.177  19.753  10.530
52109W        W20582  36.499  16.315  13.978
52110W        W20583  30.947   8.216   4.756
52111W        W20584   4.292   7.289   4.628
52112W        W20585  13.140  14.105   1.770
52113W        W20586   1.914  16.286  10.991
52114W        W20587  20.588  32.411  11.515
52115W        W20588  44.774  26.497   3.783
52116W        W20589  21.196   2.865   3.693
52117W        W20590   9.812  30.040  14.417
52118W        W20591  37.086  29.548  14.423
52119W        W20592  31.565   0.786  13.854
52120W        W20593  38.379  36.583   3.689
52121W        W20594  32.595  15.817  10.488
52122W        W20595  19.691  44.979  14.428
52123W        W20596   0.835   9.665   2.787
52124W        W20597  41.467  20.239   2.205
52125W        W20598  12.692  37.409   4.601
52126W        W20599   2.465  17.630   2.223
52127W        W20600  43.306   0.882   1.278
52128W        W20601  38.070  41.436   2.898
52129W        W20602  23.151  37.009   0.966
52130W        W20603  44.409   0.480  11.911
52131W        W20604  42.521  40.321   2.209
52132W        W20605  35.381   9.283  13.844
52133W        W20606  11.354  19.168  10.604
52134W        W20607   6.372  37.560   3.744
52135W        W20608  24.660  10.818  13.059
52136W        W20609  41.420  28.540  12.377
52137W        W20610  42.981  16.600   4.342
52138W        W20611  22.598  10.783  11.573
52139W        W20612  12.653  25.013  11.420
52140W        W20613  10.329  13.243   1.797
52141W        W20614   5.749  41.878  11.377
52142W        W20615  29.450  10.251   5.245
52143W        W20616  28.587  29.633   1.337
52144W        W20617  43.397   4.845   0.805
52145W        W20618  25.601   2.914  13.857
52146W        W20619  41.887   7.217   2.335
52147W        W20620   7.863   5.691  12.459
52148W        W20621  38.520  20.180   2.345
52149W        W20622  12.806  28.057  12.504
52150W        W20623   7.176  12.731   3.346
52151W        W20624  22.006  30.070  11.454
52152W        W20625  19.715  40.507  13.541
52153W        W20626  21.157   1.433   0.295
52154W        W20627   0.446  16.248  13.864
52155W        W20628   1.419  18.733   3.186
52156W        W20629  23.618  12.762  12.406
52157W        W20630  36.425  13.186  13.882
52158W        W20631  20.103  33.945   0.300
52159W        W20632  36.913  32.011  12.549
52160W        W20633   8.169  15.812   3.763
52161W        W20634  20.698  29.656   0.932
52162W        W20635  36.356  28.049  11.040
52163W        W20636  43.342  39.991  14.436
52164W        W20637   7.678   6.920  14.772
52165W        W20638  13.314  10.666  12.898
52166W        W20639  22.546   7.710   1.446
52167W        W20640  44.345  11.231   4.606
52168W        W20641  32.024  25.637   1.766
52169W        W20642  31.965  36.508  11.576
52170W        W20643   3.896  30.562  10.493
52171W        W20644   2.846  18.168  14.448
52172W        W20645  17.079  44.296  12.401
52173W        W20646  38.433  33.613   2.274
52174W        W20647  21.063  31.007  11.489
52175W        W20648  37.002  24.158   2.251
52176W        W20649  37.887  39.018   1.862
52177W        W20650  16.719  41.929   2.868
52178W        W20651  31.525  36.469   4.247
52179W        W20652  13.765  20.676  11.564
52180W        W20653  35.883  37.068   4.121
52181W        W20654  39.473  12.243  14.876
52182W        W20655   3.858   2.371   3.848
52183W        W20656  37.452  34.570   4.345
52184W        W20657  22.627  34.577  10.060
52185W        W20658   1.313  18.714   0.807
52186W        W20659  10.301   4.381   4.805
52187W        W20660  19.121  31.002   0.475
52188W        W20661  19.141  22.637  10.564
52189W        W20662   3.787  27.130  10.566
52190W        W20663  21.062  38.900   3.318
52191W        W20664  27.473  11.156  12.879
52192W        W20665  19.205  14.322   0.782
52193W        W20666  33.582   6.878  13.480
52194W        W20667  14.603  15.285  12.853
52195W        W20668  39.372  25.558  12.906
52196W        W20669  24.050  38.469   2.190
52197W        W20670  20.168  39.054   0.764
52198W        W20671  27.663  11.853  11.531
52199W        W20672  12.195  44.432  14.348
52200W        W20673  32.056  22.715  13.474
52201W        W20674  36.530  40.486   3.214
52202W        W20675  16.166  27.115   1.784
52203W        W20676  31.989  35.074   3.717
52204W        W20677  43.834   5.283  14.961
52205W        W20678  20.651   6.695   3.822
52206W        W20679  33.017  15.617   0.787
52207W        W20680   9.675  22.704   5.696
52208W        W20681  18.704  10.346   3.270
52209W        W20682   9.149  30.932   3.160
52210W        W20683  27.950  26.083  11.035
52211W        W20684   8.683  14.184   4.707
52212W        W20685   2.444  42.861  14.892
52213W        W20686  32.051   5.879  14.471
52214W        W20687  11.777  24.182  11.436
52215W        W20688  27.600  11.198  12.516
52216W        W20689  22.677  10.157   3.745
52217W        W20690  15.637  25.989  12.561
52218W        W20691  39.915  32.082   2.663
52219W        W20692  36.911  35.394   3.674
52220W        W20693   1.947  17.716  12.974
52221W        W20694  44.865  38.905  11.112
52222W        W20695  26.638  15.752  14.824
52223W        W20696  15.252  43.887   2.736
52224W        W20697   4.375  41.904   2.285
52225W        W20698  21.027  22.071   3.793
52226W        W20699   4.741  17.634   1.288
52227W        W20700  17.689   1.931   4.266
52228W        W20701  13.796   1.280   3.793
52229W        W20702   7.338  11.137   3.267
52230W        W20703  35.499  26.051  11.556
52231W        W20704  27.555  42.975  11.044
52232W        W20705  17.606  15.239  10.504
52233W        W20706  27.476  24.153  11.963
52234W        W20707  15.698  43.840  13.351
52235W        W20708  38.527  24.149   3.335
52236W        W20709  29.631  32.455   4.661
52237W        W20710  43.769  33.960  14.362
52238W        W20711  26.061  36.584   1.237
52239W        W20712  32.444  26.990  11.481
52240W        W20713  11.273  31.965   1.437
52241W        W20714  16.103  28.545  13.941
52242W        W20715  40.434  43.293   2.695
52243W        W20716   3.297  38.436   2.373
52244W        W20717  12.828  13.290   4.308
52245W        W20718  32.963  34.082   3.700
52246W        W20719  43.289   6.869  11.894
52247W        W20720  43.915  24.143   2.283
52248W        W20721  20.741  15.314   2.776
52249W        W20722  41.531  17.285   2.766
52250W        W20723  10.789  41.340   2.840
52251W        W20724  44.267  18.151   2.694
52252W        W20725   0.914  24.984  12.393
52253W        W20726  43.439  15.650  10.116
52254W        W20727  30.957  36.863  14.499
52255W        W20728  44.758  24.011  14.999
52256W        W20729  25.163  30.963   0.271
52257W        W20730  21.692   6.358   1.338
52258W        W20731  23.663  13.177   5.108
52259W        W20732  26.594  41.880   2.201
52260W        W20733  33.926  43.019   0.268
52261W        W20734  12.627  14.135   4.672
52262W        W20735  19.584  18.580   4.652
52263W        W20736  18.146   3.731  12.937
52264W        W20737  35.378  38.386  14.317
52265W        W20738   5.354   3.720   3.871
52266W        W20739   5.792  42.809   4.232
52267W        W20740  30.595  29.156   3.152
52268W        W20741  40.481  22.056   1.827
52269W        W20742  14.718  39.844   2.285
52270W        W20743  11.200  30.559   1.304
52271W        W20744  28.080  23.184  11.874
52272W        W20745   7.339  20.607  14.408
52273W        W20746  33.088  34.884   1.272
52274W        W20747  28.111   3.456   3.870
52275W        W20748  40.834  24.029  13.796
52276W        W20749  15.772  33.000   3.732
52277W        W20750  22.616   6.768   0.274
52278W        W20751  30.062  26.518   4.217
52279W        W20752  39.987  38.058  13.034
52280W        W20753   6.742  42.936   1.444
52281W        W20754  20.549  14.815  14.888
52282W        W20755  28.147  21.632  13.968
52283W        W20756  25.999   8.822   3.262
52284W        W20757  26.481  27.531  10.095
52285W        W20758  16.632  30.542   1.910
52286W        W20759  36.540   5.903   3.321
52287W        W20760  16.081  21.682  11.598
52288W        W20761   2.797  40.913  13.404
52289W        W20762   3.261  41.986   3.247
52290W        W20763  32.602  23.700   9.554
52291W        W20764  18.669  19.591  10.033
52292W        W20765  20.140  13.842   0.340
52293W        W20766  15.739   1.268  10.499
52294W        W20767  26.545  13.800   3.339
52295W        W20768  10.290  28.944  13.017
52296W        W20769  17.206  40.974  13.366
52297W        W20770  40.018   5.729  12.402
52298W        W20771  35.591  34.407   3.696
52299W        W20772  23.039  17.579  10.645
52300W        W20773  36.937  29.654  12.903
52301W        W20774   4.361  42.919   0.355
52302W        W20775   2.306   9.373  12.390
52303W        W20776  28.042  42.347   3.806
52304W        W20777  18.293  18.059   2.764
52305W        W20778  33.999   8.658   9.927
52306W        W20779   5.711  10.849  11.382
52307W        W20780  29.652  12.262   3.843
52308W        W20781   8.888  34.536   5.147
52309W        W20782   6.212   9.207  10.442
52310W        W20783  30.948  24.980   2.819
52311W        W20784  15.141  36.974  13.372
52312W        W20785  21.190   3.721  12.459
52313W        W20786   4.277  17.111   4.805
52314W        W20787   5.853   9.337   0.949
52315W        W20788  15.295   0.269   1.867
52316W        W20789   7.686  23.139  13.002
52317W        W20790  15.228  27.947  12.083
52318W        W20791   4.762  38.500   3.360
52319W        W20792  37.483  17.242   4.799
52320W        W20793  34.883   4.780  10.504
52321W        W20794  41.026  13.215  12.437
52322W        W20795  11.819  27.162   4.814
52323W        W20796   8.787  42.414  10.509
52324W        W20797  11.349  20.765  11.083
52325W        W20798  41.499   8.768  11.059
52326W        W20799  35.562   1.881   0.440
52327W        W20800   9.733  16.766  12.901
52328W        W20801  17.087  10.289  11.376
52329W        W20802   9.293   2.383  11.509
52330W        W20803  31.961   3.879  14.964
52331W        W20804  19.095  25.710  10.484
52332W        W20805  23.695  28.104   5.175
52333W        W20806  13.122   2.745  14.865
52334W        W20807   1.823  15.186  12.047
52335W        W20808  23.560  38.553   3.740
52336W        W20809   2.818  33.952  13.908
52337W        W20810  25.964  43.332  10.617
52338W        W20811  15.158  18.214  14.292
52339W        W20812  41.317  37.539   3.811
52340W        W20813  23.491  40.529   3.171
52341W        W20814   6.823   7.712  14.951
52342W        W20815  19.273   9.264  13.397
52343W        W20816  20.578   3.310   3.807
52344W        W20817  32.435   0.795   3.820
52345W        W20818  42.457   1.339  13.432
52346W        W20819  29.509  21.046   4.771
52347W        W20820   4.853  11.226  14.780
52348W        W20821  39.478  25.191   3.211
52349W        W20822   0.934   6.683   4.245
52350W        W20823  38.889   9.264   1.295
52351W        W20824  32.472  12.301  13.439
52352W        W20825  25.056  30.645   4.307
52353W        W20826  28.653  22.534  14.784
52354W        W20827  43.317  26.157   0.733
52355W        W20828  10.718  15.169  12.035
52356W        W20829  23.587  21.192   5.314
52357W        W20830   8.658  30.451   1.386
52358W        W20831  43.394  37.468   0.894
52359W        W20832  33.977  29.984  13.960
52360W        W20833  26.986  10.354  12.964
52361W        W20834  35.048  23.656  11.473
52362W        W20835  13.312  28.013   4.353
52363W        W20836  28.500   9.320  13.460
52364W        W20837  39.946  17.767  11.024
52365W        W20838  33.898  44.401   0.466
52366W        W20839   7.381  37.974  12.872
52367W        W20840   1.245  40.006   0.397
52368W        W20841   4.323  17.565  14.406
52369W        W20842  24.535   8.280  13.447
52370W        W20843  10.820  25.590   5.786
52371W        W20844  37.376  27.604  10.573
52372W        W20845   8.222   0.339   1.862
52373W        W20846  17.727  42.485  13.354
52374W        W20847  11.736  29.082  12.060
52375W        W20848  10.697   6.358   0.262
52376W        W20849  31.046  34.504   4.254
52377W        W20850  23.118  14.107  12.508
52378W        W20851   1.838   8.277   4.321
52379W        W20852  33.902  19.625  12.023
52380W        W20853  35.477   2.424  10.985
52381W        W20854  36.547   7.276  10.018
52382W        W20855  10.779   5.921  13.361
52383W        W20856  12.786  40.815  14.905
52384W        W20857  23.100  34.038  14.278
52385W        W20858   2.413  30.512  12.480
52386W        W20859  19.144  12.280   1.420
52387W        W20860  16.707  29.449   1.720
52388W        W20861   0.446  11.230   2.674
52389W        W20862  12.162  25.554   2.272
52390W        W20863  27.150  23.515   3.220
52391W        W20864   1.824  29.147   3.672
52392W        W20865   5.781   7.676  12.086
52393W        W20866  16.572  15.299  10.441
52394W        W20867  17.229  33.597   3.148
52395W        W20868  27.617   7.784  12.050
52396W        W20869  23.060  40.409  11.462
52397W        W20870  14.824  16.144  11.575
52398W        W20871  40.463   0.442   0.853
52399W        W20872  25.155  29.085  13.367
52400W        W20873  40.386  38.534  10.904
52401W        W20874  22.117  26.527   1.869
52402W        W20875  11.771   3.356   0.835
52403W        W20876  30.608   5.917   0.850
52404W        W20877  30.022   2.744  13.390
52405W        W20878   2.871  15.638   4.778
52406W        W20879  10.359  37.379   0.927
52407W        W20880  10.139  39.372  13.374
52408W        W20881  27.149  33.975  12.396
52409W        W20882  41.342  30.488  12.878
52410W        W20883  39.506  25.998   2.746
52411W        W20884   4.359  19.733   2.804
52412W        W20885   8.342  41.922   4.810
52413W        W20886  27.195  23.138  11.375
52414W        W20887   9.295   7.393  12.469
52415W        W20888  15.173  13.297   2.378
52416W        W20889  15.735  15.718   2.242
52417W        W20890  18.202   3.767   0.484
52418W        W20891   6.861  24.548   3.802
52419W        W20892  26.204  16.283   3.205
52420W        W20893  10.315  33.555  10.465
52421W        W20894  34.451  19.091   1.803
52422W        W20895  40.375  42.354   4.259
52423W        W20896  33.541  36.526  12.043
52424W        W20897  34.560  21.700  13.989
52425W        W20898  40.988  22.145   0.845
52426W        W20899   8.217  37.397  11.534
52427W        W20900  35.092  27.152   1.758
52428W        W20901  26.064  36.079  11.438
52429W        W20902   2.292   2.800   2.849
52430W        W20903  39.363  30.553  12.411
52431W        W20904   8.705  22.084  12.470
52432W        W20905  14.673   5.265   3.638
52433W        W20906   4.299  44.864  13.043
52434W        W20907  38.828   1.850  14.008
52435W        W20908  38.403  37.943  10.457
52436W        W20909  28.077   9.226   0.755
52437W        W20910  37.934  12.166   3.363
52438W        W20911  18.777  23.665  13.901
52439W        W20912  37.544  20.591   1.266
52440W        W20913  20.652  27.091   2.765
52441W        W20914  18.748  38.050  11.911
52442W        W20915   6.877  37.570  10.481
52443W        W20916   8.349  23.630  11.920
52444W        W20917  10.705   8.376   3.352
52445W        W20918   4.897  13.775  12.391
52446W        W20919   1.975   0.389   1.450
52447W        W20920  37.356  25.595   3.373
52448W        W20921  18.572  26.065   2.798
52449W        W20922  33.056  26.021   0.266
52450W        W20923   4.364  19.745  10.895
52451W        W20924  28.044  15.293  14.013
52452W        W20925  42.294  15.714   2.362
52453W        W20926  43.867  17.636   2.662
52454W        W20927   5.424  44.944  11.038
52455W        W20928  38.342  18.107   2.689
52456W        W20929   0.827  20.539  11.551
52457W        W20930  11.345  20.625   0.436
52458W        W20931   9.287  29.491   2.880
52459W        W20932  16.073  39.373   4.636
52460W        W20933  33.623  27.996  11.410
52461W        W20934  38.880  16.586   4.265
52462W        W20935  18.665   8.291  14.985
52463W        W20936  15.710  26.621   3.669
52464W        W20937  11.718  35.991   5.158
52465W        W20938   5.315  31.437   4.605
52466W        W20939  33.091   0.256   1.331
52467W        W20940   4.892  41.836   1.440
52468W        W20941   7.206  13.795   0.890
52469W        W20942  41.992  28.485  14.818
52470W        W20943  43.804  41.459  12.010
52471W        W20944   2.419  30.123   1.269
52472W        W20945   8.379  23.054   0.858
52473W        W20946  39.411  40.008  14.414
52474W        W20947   5.692   0.914   4.248
52475W        W20948  23.657  41.909   2.244
52476W        W20949   3.748  35.006  14.339
52477W        W20950   2.421  23.672  13.330
52478W        W20951   4.407   1.430  14.854
52479W        W20952  15.587  18.755   3.316
52480W        W20953   3.797  28.574  10.597
52481W        W20954  18.732   0.914   3.706
52482W        W20955  14.135  11.666  10.528
52483W        W20956  17.728  10.242  14.029
52484W        W20957  33.075  15.294  13.447
52485W        W20958  27.453  42.475  12.403
52486W        W20959  22.148   4.349   0.816
52487W        W20960  38.430  28.109  12.444
52488W        W20961  30.110  38.371  12.847
52489W        W20962  35.064  41.936   0.419
52490W        W20963  40.809  15.749  13.429
52491W        W20964  44.968  30.948   0.447
52492W        W20965  42.282  44.362   1.229
52493W        W20966  44.800  41.501   1.258
52494W        W20967   0.286  25.191   1.727
52495W        W20968  36.876   3.340   3.797
52496W        W20969  16.137  19.562   1.245
52497W        W20970  24.992  40.537  13.863
52498W        W20971   1.391  34.406  10.550
52499W        W20972  36.066   7.333   3.226
52500W        W20973  33.502  44.959  13.485
52501W        W20974  12.622  30.504   2.875
52502W        W20975  40.811  16.139  11.517
52503W        W20976  16.168   3.846  11.440
52504W        W20977  39.513  44.450   2.310
52505W        W20978  22.688  31.533   4.342
52506W        W20979  43.931  22.112  10.406
52507W        W20980  41.945  28.089   0.244
52508W        W20981  11.663  20.737   2.374
52509W        W20982  20.660  20.087  13.468
52510W        W20983  14.653  10.160   4.349
52511W        W20984  22.683  13.213  11.523
52512W        W20985  24.538   2.332  12.375
52513W        W20986  38.887  15.750  13.533
52514W        W20987  15.229  28.981  12.401
52515W        W20988  23.123  15.683  11.473
52516W        W20989  43.793  40.852   2.769
52517W        W20990  23.013  23.593  10.922
52518W        W20991  34.572  22.649   4.654
52519W        W20992  13.637   0.833   0.919
52520W        W20993  39.926  11.790   0.383
52521W        W20994  20.037  34.373  12.497
52522W        W20995  40.922  37.027   3.205
52523W        W20996  27.981  41.971   4.202
52524W        W20997  17.123  15.285   2.782
52525W        W20998  21.099  13.801   3.247
52526W        W20999  38.931  34.583   3.775
52527W        W21000  23.234  17.291   0.851
52528W        W21001  22.996  30.929   4.201
52529W        W21002  41.873  30.054   2.318
52530W        W21003   3.299  34.109  14.799
52531W        W21004  39.396   4.934   3.220
52532W        W21005   7.372  31.440   0.314
52533W        W21006  27.042  22.707  14.798
52534W        W21007  12.743  36.494   4.668
52535W        W21008  11.144  34.031  12.036
52536W        W21009  16.295   0.757   0.279
52537W        W21010  44.849   0.814   0.456
52538W        W21011  15.308  19.742   1.893
52539W        W21012   5.381  34.072  14.018
52540W        W21013   7.756  36.884  13.461
52541W        W21014   0.755  35.000   1.245
52542W        W21015   4.739   6.778   2.350
52543W        W21016  30.965  36.533   2.755
52544W        W21017  43.516  38.395  13.058
52545W        W21018   2.393  43.373  14.023
52546W        W21019  33.928  31.143  12.908
52547W        W21020  27.037  43.842  11.391
52548W        W21021  16.278  42.806  11.009
52549W        W21022  41.990  28.049   2.679
52550W        W21023   4.815  41.936  12.426
52551W        W21024  44.298  30.002   3.650
52552W        W21025  19.131  41.335  14.952
52553W        W21026   6.202   4.747   4.166
52554W        W21027  23.138  24.041  12.906
52555W        W21028  21.532  18.220   4.787
52556W        W21029   9.258  35.375  11.404
52557W        W21030   5.803  13.348  13.844
52558W        W21031  37.555  29.601  13.959
52559W        W21032  22.508  38.055  11.062
52560W        W21033  19.097  30.619   2.858
52561W        W21034  17.716   7.668  10.431
52562W        W21035  32.590  39.010   9.981
52563W        W21036  35.937  41.504   1.719
52564W        W21037  26.608  18.746   1.883
52565W        W21038   3.868  15.737  11.061
52566W        W21039   7.905  33.410  10.938
52567W        W21040  26.684  13.229   4.824
52568W        W21041  19.681   8.780   2.707
52569W        W21042   0.865  28.652  12.044
52570W        W21043  36.063  23.496  12.515
52571W        W21044  42.779  36.487  13.051
52572W        W21045   0.402  17.588  11.969
52573W        W21046  24.635  34.513  12.931
52574W        W21047  23.511  38.383   4.800
52575W        W21048  18.764  21.580   0.825
52576W        W21049  28.592   2.287  14.986
52577W        W21050   7.668   4.405  13.477
52578W        W21051  18.133  13.159  11.109
52579W        W21052  14.210  34.504  13.912
52580W        W21053  42.785  41.866  14.306
52581W        W21054  20.633  27.518   3.300
52582W        W21055  27.629  25.650   2.696
52583W        W21056  20.048   1.884   3.232
52584W        W21057  42.513  30.456  13.802
52585W        W21058  21.195  33.106   0.291
52586W        W21059  43.920  25.492  11.022
52587W        W21060  21.136  15.812  11.388
52588W        W21061  35.534  38.024   1.828
52589W        W21062  39.420  15.773   2.750
52590W        W21063  30.583  40.843   3.645
52591W        W21064  13.127   2.738   1.797
52592W        W21065  31.069  24.665  14.903
52593W        W21066  26.628   9.878   0.728
52594W        W21067  40.502  23.718  14.369
52595W        W21068  21.150   8.772  13.005
52596W        W21069  16.088  29.054  14.403
52597W        W21070  34.082  42.340   0.274
52598W        W21071  15.661  34.399  10.444
52599W        W21072   1.975  23.072   1.833
52600W        W21073  24.090  27.522  13.893
52601W        W21074  24.670   8.840   3.866
52602W        W21075  40.503  38.338  12.000
52603W        W21076  25.535  44.396  14.359
52604W        W21077  36.465  33.987  14.327
52605W        W21078  15.739   0.945   1.935
52606W        W21079  21.527  32.022   4.799
52607W        W21080   0.980  18.108  14.485
52608W        W21081  23.085  26.629   0.734
52609W        W21082  44.878  22.706  11.048
52610W        W21083  42.305  26.481  12.897
52611W        W21084  32.960   2.307  10.441
52612W        W21085  29.536  24.060  14.279
52613W        W21086   1.887  13.153   0.931
52614W        W21087  35.071  36.994  14.402
52615W        W21088   2.277  22.144   1.697
52616W        W21089  21.667   8.168  12.499
52617W        W21090  35.897  17.215  11.116
52618W        W21091  18.579  40.377  14.362
52619W        W21092  17.256   2.325   0.963
52620W        W21093  39.352  33.007  10.924
52621W        W21094   1.786  25.499   2.819
52622W        W21095  19.144  12.270   4.301
52623W        W21096  17.608  19.630   2.870
52624W        W21097  15.758  44.804   0.328
52625W        W21098  43.358  15.312   2.689
52626W        W21099  39.318   6.209  14.381
52627W        W21100  16.093   4.845  11.375
52628W        W21101  21.597  11.682   9.935
52629W        W21102  15.295  10.261  12.075
52630W        W21103  30.027  31.429  13.441
52631W        W21104  21.114  44.428   2.726
52632W        W21105  27.493  30.064   2.222
52633W        W21106  12.179   4.426   2.332
52634W        W21107  43.386   1.782   2.183
52635W        W21108  33.972   4.258   0.473
52636W        W21109  11.728  17.181  13.429
52637W        W21110  33.426  28.106   4.257
52638W        W21111   4.710   6.693   2.765
52639W        W21112  39.406  36.475  12.543
52640W        W21113  44.427  40.392   2.810
52641W        W21114  10.674   3.414   3.698
52642W        W21115  29.087  35.409  14.934
52643W        W21116  41.944  11.688   0.388
52644W        W21117  26.021  34.051   2.396
52645W        W21118  38.923  37.008   0.747
52646W        W21119  28.488  22.210  13.365
52647W        W21120   5.703  28.109  12.421
52648W        W21121  40.471  12.619  14.762
52649W        W21122   7.863  16.085  11.868
52650W        W21123  18.776  11.216  14.776
52651W        W21124  36.526  23.172  10.946
52652W        W21125  39.055  33.083  11.114
52653W        W21126   1.433  39.401   2.760
52654W        W21127  19.754  34.423   3.755
52655W        W21128  33.894  25.551  11.380
52656W        W21129  22.657  44.801   4.615
52657W        W21130  31.084   9.284   1.404
52658W        W21131   5.694   3.841   5.291
52659W        W21132  22.650  33.906  13.398
52660W        W21133  39.909   6.307   2.372
52661W        W21134  33.463  17.733  10.932
52662W        W21135  37.014   8.749  13.982
52663W        W21136  27.136  30.577   4.330
52664W        W21137  10.341  35.549  12.876
52665W        W21138  33.053  39.324  11.092
52666W        W21139  39.412   3.739  10.614
52667W        W21140  43.491  15.289   4.714
52668W        W21141  43.319  36.530   3.715
52669W        W21142  13.734  35.019   2.238
52670W        W21143  25.005   3.354  10.554
52671W        W21144  35.029  24.542  12.360
52672W        W21145   8.673  24.596   4.189
52673W        W21146  43.933   8.330   2.899
52674W        W21147  32.980  27.991   1.913
52675W        W21148  22.578  41.339  13.369
52676W        W21149  44.491  32.471  11.098
52677W        W21150  30.037  17.636  12.966
52678W        W21151  32.466  39.479   0.765
52679W        W21152  41.810  11.672  13.366
52680W        W21153  40.310  13.196   3.825
52681W        W21154  18.125  25.997   0.771
52682W        W21155  26.976  20.134  11.991
52683W        W21156  33.103  22.545   2.874
52684W        W21157  26.998   0.910   5.274
52685W        W21158  25.987  44.335  10.570
52686W        W21159  10.676  36.919   4.648
52687W        W21160  35.543  42.418  14.464
52688W        W21161  13.778  28.584   1.446
52689W        W21162   6.728  23.599  12.840
52690W        W21163  29.642   7.201  13.379
52691W        W21164  40.864  42.027  11.084
52692W        W21165   4.932  32.523   3.338
52693W        W21166  31.013  14.659  10.975
52694W        W21167  34.505  18.765  14.893
52695W        W21168  44.892  14.151  11.403
52696W        W21169  34.940   9.828   0.440
52697W        W21170  15.755  39.503  12.866
52698W        W21171  12.766  15.313   1.442
52699W        W21172  32.053  27.494   2.828
52700W        W21173  16.213   2.820   1.818
52701W        W21174  32.910  22.107   0.785
52702W        W21175   8.383  40.323  13.481
52703W        W21176  31.919  43.514  13.037
52704W        W21177  10.337  30.611  11.539
52705W        W21178  24.023  11.157   4.631
52706W        W21179  39.439  31.926   3.814
52707W        W21180   7.794  33.387  10.139
52708W        W21181  19.178  18.239  13.487
52709W        W21182  36.579  15.684   2.319
52710W        W21183  44.277  40.850   2.257
52711W        W21184  23.538  14.096   4.742
52712W        W21185   1.291  11.359  13.492
52713W        W21186  11.676  23.490  10.114
52714W        W21187  32.577   3.827  12.988
52715W        W21188  10.713   1.429  10.903
52716W        W21189   5.244  26.537   0.871
52717W        W21190  15.783  11.676  12.951
52718W        W21191   5.196   5.270   2.259
52719W        W21192  17.777  16.790  10.474
52720W        W21193  32.519  10.204   0.880
52721W        W21194   9.362   4.245  14.468
52722W        W21195  19.181  43.482   1.249
52723W        W21196  35.937   1.946  11.432
52724W        W21197  35.364  28.153  11.589
52725W        W21198   9.849  28.451  12.456
52726W        W21199  32.053   0.276  13.465
52727W        W21200  41.943  11.346   4.314
52728W        W21201  34.599  33.117  13.027
52729W        W21202   1.368  23.127  13.309
52730W        W21203  39.858  10.165  12.389
52731W        W21204  13.818  29.494   4.279
52732W        W21205  21.564  37.843   0.927
52733W        W21206   9.204  22.251  13.906
52734W        W21207  44.359  15.119  11.061
52735W        W21208  31.127  25.972  12.349
52736W        W21209  42.416  28.570   2.329
52737W        W21210  35.465  22.082  12.014
52738W        W21211   8.211   5.333  14.965
52739W        W21212  16.220   3.797   4.689
52740W        W21213  23.583  29.106  11.423
52741W        W21214   2.444  17.705   4.312
52742W        W21215  34.086  31.635  11.898
52743W        W21216  19.561  13.128   2.886
52744W        W21217  19.276  19.736   0.888
52745W        W21218  13.259  33.426  12.384
52746W        W21219  38.921   7.707   5.311
52747W        W21220  35.081  13.681  13.391
52748W        W21221   0.445  33.013  10.463
52749W        W21222  41.919   4.234   4.720
52750W        W21223  32.029  16.191  12.450
52751W        W21224  37.966  16.743   0.878
52752W        W21225  11.830  32.505  11.872
52753W        W21226  32.014  18.087  13.448
52754W        W21227   0.256   1.956   4.675
52755W        W21228  42.812  14.256  12.568
52756W        W21229   5.322  17.749  12.425
52757W        W21230  13.763  36.043  14.439
52758W        W21231  37.059  41.972  10.471
52759W        W21232  28.050   4.879   0.861
52760W        W21233  21.214  23.146  11.587
52761W        W21234  23.167  35.384  13.966
52762W        W21235  27.459  38.418  12.400
52763W        W21236  36.907  18.653   1.832
52764W        W21237  37.373  42.838  10.001
52765W        W21238  16.174  40.428   5.254
52766W        W21239  20.598  25.990  13.923
52767W        W21240  15.661  15.622  12.919
52768W        W21241  28.939  38.053   0.267
52769W        W21242  39.462  12.242  13.531
52770W        W21243  34.989  44.843   4.237
52771W        W21244  21.029  23.506  14.786
52772W        W21245  31.020  16.650  11.519
52773W        W21246  43.884   0.885  11.014
52774W        W21247  30.139  11.151  12.863
52775W        W21248  17.563  18.246   3.655
52776W        W21249  25.979  34.489  11.968
52777W        W21250  23.492  31.145  13.906
52778W        W21251  34.904   0.948  10.901
52779W        W21252  29.603  23.021   0.746
52780W        W21253  25.700  22.629  13.945
52781W        W21254  19.736  37.366  13.356
52782W        W21255   4.405  10.748   3.829
52783W        W21256  29.460   0.760   1.353
52784W        W21257  25.526  34.469   1.695
52785W        W21258   2.443  24.096  13.373
52786W        W21259  43.360  11.129   1.281
52787W        W21260   9.248  22.019   5.703
52788W        W21261  24.012  10.214   2.823
52789W        W21262  27.964  32.114  13.029
52790W        W21263  25.067  11.207   3.803
52791W        W21264  35.360  14.680   4.157
52792W        W21265  37.936  11.185   1.770
52793W        W21266  28.970  36.998   1.818
52794W        W21267  36.413  37.023  11.540
52795W        W21268  32.118  21.083  13.368
52796W        W21269  35.944  22.683   4.131
52797W        W21270  40.899  36.885   1.436
52798W        W21271  32.051   0.421  11.022
52799W        W21272  14.648  20.672   1.844
52800W        W21273  17.788  18.741  14.962
52801W        W21274  31.924   1.945  13.941
52802W        W21275   9.173   7.745  12.505
52803W        W21276   0.758  11.708   5.262
52804W        W21277  20.703   9.173  12.092
52805W        W21278  30.947   6.720  14.828
52806W        W21279  20.719  36.423  12.852
52807W        W21280   7.862   7.360   1.840
52808W        W21281  30.652  11.140   4.304
52809W        W21282  27.196  16.797  12.439
52810W        W21283  18.790  30.976   3.804
52811W        W21284  39.951  24.208   0.825
52812W        W21285  28.015  10.847  10.530
52813W        W21286  31.988   1.418   3.284
52814W        W21287  24.592  15.271  11.997
52815W        W21288  30.100  38.470   2.222
52816W        W21289  21.579  13.757   0.820
52817W        W21290  43.943  38.963   0.421
52818W        W21291  15.203  17.694  12.438
52819W        W21292  32.984   8.205   4.122
52820W        W21293   6.315  25.001   0.826
52821W        W21294   6.733   4.274   4.759
52822W        W21295  27.030  30.423   0.888
52823W        W21296   7.255  13.297   1.850
52824W        W21297  29.961   8.227   0.383
52825W        W21298   9.157   0.268   1.331
52826W        W21299  36.415  29.513  11.539
52827W        W21300   9.728  31.438  14.030
52828W        W21301  20.680  28.975  10.910
52829W        W21302   6.220  35.990   4.295
52830W        W21303  22.640  31.519  14.307
52831W        W21304  22.167  40.945  12.442
52832W        W21305  18.177  16.087   2.677
52833W        W21306  23.115  31.909  13.030
52834W        W21307   7.342  40.806   3.348
52835W        W21308  34.936  44.488  10.630
52836W        W21309  43.454  19.090   0.932
52837W        W21310  33.024  41.919   9.533
52838W        W21311  18.638   4.221  11.931
52839W        W21312   7.880  13.828  13.461
52840W        W21313  33.000   8.214  12.979
52841W        W21314  22.138  33.585  11.408
52842W        W21315  40.867   5.912   3.792
52843W        W21316  44.939   3.896  13.963
52844W        W21317  33.549  38.525   2.729
52845W        W21318   8.189  11.152   4.610
52846W        W21319   4.436  11.259  10.594
52847W        W21320   5.216  13.808  13.857
52848W        W21321  42.326  17.629  10.626
52849W        W21322  44.498  10.303  11.066
52850W        W21323  22.615  17.627  10.501
52851W        W21324  17.226   5.743  11.428
52852W        W21325  29.540   0.322   4.765
52853W        W21326   1.800  16.657   1.432
52854W        W21327  30.147  19.231   2.761
52855W        W21328  34.886  15.791  14.941
52856W        W21329  19.196  20.051  12.874
52857W        W21330   2.732  38.902   0.854
52858W        W21331  39.417  14.336  11.561
52859W        W21332  30.064  24.490  11.121
52860W        W21333  10.701  24.629   0.925
52861W        W21334   0.956  37.031  13.885
52862W        W21335  27.472  12.747  10.923
52863W        W21336   8.320   3.770   0.348
52864W        W21337  21.177  13.281   1.713
52865W        W21338  12.320   4.936   3.846
52866W        W21339  31.075  38.565   3.378
52867W        W21340  40.501  20.668  14.896
52868W        W21341  33.098  21.258  14.865
52869W        W21342  15.620  37.354   3.816
52870W        W21343  35.436  21.740  14.994
52871W        W21344   2.430  34.104   0.763
52872W        W21345   5.837   6.342   0.296
52873W        W21346   7.893  41.460   5.171
52874W        W21347  40.909  43.305  13.984
52875W        W21348  19.687   4.861  11.393
52876W        W21349   2.346   3.784  12.061
52877W        W21350   8.211  25.526  11.480
52878W        W21351  11.134  22.574   4.244
52879W        W21352  17.146   3.404   5.128
52880W        W21353  24.000  14.736  10.944
52881W        W21354   6.831  30.125  14.891
52882W        W21355  26.091  14.212   0.390
52883W        W21356  42.943  44.470  12.048
52884W        W21357  42.291   0.446  11.116
52885W        W21358  26.550  21.075  12.559
52886W        W21359  24.689  37.020  14.878
52887W        W21360  19.595   5.706  11.124
52888W        W21361   1.318  32.429   1.720
52889W        W21362  18.092  25.082  11.997
52890W        W21363  15.722   8.335   1.916
52891W        W21364  16.770  41.338   2.329
52892W        W21365  34.027  21.634   2.758
52893W        W21366  30.515  33.971   3.691
52894W        W21367  19.261  16.190  14.462
52895W        W21368  21.703  35.924   0.875
52896W        W21369  31.000  12.788  11.930
52897W        W21370  40.431  27.477   3.768
52898W        W21371  14.731  36.566  14.332
52899W        W21372  33.457  27.945  12.082
52900W        W21373  17.064  36.446   2.199
52901W        W21374  23.171  43.342   0.431
52902W        W21375  36.926   5.236  10.526
52903W        W21376  23.995  13.302   3.154
52904W        W21377  15.703  18.199  11.421
52905W        W21378   8.817  36.467   1.442
52906W        W21379  14.719  30.477  14.783
52907W        W21380   1.364  21.111   5.101
52908W        W21381  34.090  20.076  12.419
52909W        W21382  16.695  44.370  14.391
52910W        W21383  24.008  28.615   1.846
52911W        W21384  44.460  19.645   3.216
52912W        W21385  40.504  37.874   0.817
52913W        W21386  16.618  29.563   4.136
52914W        W21387   6.778  20.662   0.947
52915W        W21388  37.568  21.695   2.250
52916W        W21389  25.572   8.847   3.724
52917W        W21390  37.017  32.912  12.071
52918W        W21391  31.627  11.202  11.430
52919W        W21392   0.486  27.025  13.885
52920W        W21393  25.990  44.364   1.859
52921W        W21394  11.234  34.549  14.281
52922W        W21395  30.628  35.097   2.350
52923W        W21396  33.874  44.928  13.904
52924W        W21397  20.201   6.744  11.439
52925W        W21398   7.777  22.096  11.419
52926W        W21399  27.589  42.022   0.730
52927W        W21400  14.172  42.928   1.915
52928W        W21401   6.885  27.159  14.866
52929W        W21402  35.439   2.786   2.874
52930W        W21403  14.095  31.117  10.604
52931W        W21404   1.743  33.426  10.453
52932W        W21405  14.829  37.414   2.704
52933W        W21406   4.260  35.090   3.799
52934W        W21407  41.794  37.005  12.904
52935W        W21408  33.517  40.393  12.833
52936W        W21409  26.617  28.472   3.252
52937W        W21410  28.463  39.314   2.271
52938W        W21411   4.400  26.103  11.402
52939W        W21412   1.781  23.006   4.342
52940W        W21413   2.260  27.950   1.885
52941W        W21414  37.914   2.274   0.462
52942W        W21415  25.018  11.245   4.235
52943W        W21416  41.386  15.754  14.908
52944W        W21417  33.382  11.291  12.036
52945W        W21418  34.473  38.972   0.939
52946W        W21419  32.917  41.306   2.353
52947W        W21420  20.176  30.010   1.269
52948W        W21421  30.454  35.361   2.736
52949W        W21422  36.974  34.470  12.844
52950W        W21423   7.693  25.654  14.975
52951W        W21424  33.391   2.934  12.915
52952W        W21425  12.719   2.465  13.393
52953W        W21426  15.166  25.096  13.982
52954W        W21427  29.172  15.674   3.765
52955W        W21428   8.189   6.805  11.495
52956W        W21429  25.062  23.037   4.674
52957W        W21430   9.206   4.888   2.889
52958W        W21431  24.038   5.210   2.712
52959W        W21432   2.756  32.903   4.805
52960W        W21433  19.096   5.430  14.815
52961W        W21434   8.695  27.036  11.568
52962W        W21435  38.001   7.834   2.208
52963W        W21436  25.479   4.229  10.473
52964W        W21437  25.607  12.837   0.818
52965W        W21438  17.070   3.827   4.710
52966W        W21439  31.604   1.807  11.429
52967W        W21440  44.914  20.737  13.888
52968W        W21441  44.395  30.430   1.905
52969W        W21442  40.970  41.406  14.888
52970W        W21443  30.560  27.637  12.040
52971W        W21444  11.167  32.629  14.493
52972W        W21445  34.486  14.710   3.201
52973W        W21446  16.743  25.601  10.613
52974W        W21447   6.292  20.696   3.797
52975W        W21448  26.471   3.281   4.235
52976W        W21449  13.256   7.773  11.609
52977W        W21450  35.976  10.310  10.967
52978W        W21451   6.347  21.735   4.691
52979W        W21452  30.984  40.857   4.794
52980W        W21453  14.261  26.119  11.926
52981W        W21454  40.523  20.643   4.284
52982W        W21455  11.666   7.233   2.857
52983W        W21456  34.873   4.728   1.309
52984W        W21457  37.495  19.238  13.808
52985W        W21458  42.859  24.586   1.782
52986W        W21459  12.696  32.947   0.892
52987W        W21460  23.162  39.481  11.103
52988W        W21461  28.129  14.692   0.370
52989W        W21462  30.552   3.820   3.729
52990W        W21463  30.107   3.393  14.377
52991W        W21464   0.431  42.449  13.851
52992W        W21465  43.870  16.574  11.463
52993W        W21466  14.147  36.404   2.805
52994W        W21467  35.918   7.774   3.653
52995W        W21468  36.517   2.949  10.466
52996W        W21469  39.383  41.518  14.509
52997W        W21470  31.571  33.503  11.461
52998W        W21471  27.486  41.466   3.856
52999W        W21472   3.391  34.964  14.328
53000W        W21473  36.567  34.378  10.129
53001W        W21474  32.105  33.103  10.634
53002W        W21475  37.873  43.971  10.503
53003W        W21476   7.365   2.364  13.482
53004W        W21477  34.435   1.419   0.423
53005W        W21478  26.079   1.295  11.867
53006W        W21479  13.250  17.750  14.379
53007W        W21480  29.090  25.547  12.436
53008W        W21481  17.170   1.940   5.172
53009W        W21482   8.333  13.653   4.735
53010W        W21483  41.793  10.672  11.515
53011W        W21484  25.018  43.351   1.434
53012W        W21485   0.893  38.375  12.070
53013W        W21486  28.680  28.168  12.032
53014W        W21487  26.151   0.929   3.351
53015W        W21488   0.391  14.107   4.605
53016W        W21489  21.588  35.042  11.087
53017W        W21490  30.434  34.915  13.844
53018W        W21491   9.671  20.136   1.814
53019W        W21492  10.689   9.741   1.920
53020W        W21493  41.407  32.401  13.469
53021W        W21494   1.894  26.466   4.631
53022W        W21495   7.249  17.129  14.801
53023W        W21496   8.827   8.369  14.971
53024W        W21497  33.015  17.769  11.567
53025W        W21498  22.633   8.898  13.926
53026W        W21499  19.553  35.397   0.458
53027W        W21500  30.447   5.359   3.285
53028W        W21501  28.129  12.697   1.713
53029W        W21502  44.260  36.849   1.919
53030W        W21503   0.968  10.864   1.317
53031W        W21504   8.247  32.445  14.883
53032W        W21505  14.275  22.662  14.290
53033W        W21506  43.996  40.389   3.822
53034W        W21507  17.213  21.540   4.689
53035W        W21508  43.987  27.085  13.962
53036W        W21509  21.216  28.456  12.079
53037W        W21510  37.885  43.887  12.403
53038W        W21511   4.799  21.659  11.865
53039W        W21512   9.215  17.291  14.374
53040W        W21513   9.813   6.399   1.873
53041W        W21514  31.644  25.699   4.343
53042W        W21515  12.671  29.644   3.634
53043W        W21516   6.416  41.379   2.388
53044W        W21517  26.081  37.923   2.352
53045W        W21518  35.498   0.980   1.229
53046W        W21519  19.772  38.403  10.895
53047W        W21520  29.158  22.169   0.932
53048W        W21521   8.335   6.315   2.214
53049W        W21522  35.535  26.571  14.303
53050W        W21523  14.732  31.435   3.827
53051W        W21524  37.452   0.854   3.359
53052W        W21525   7.866  18.581   4.667
53053W        W21526  14.264  30.023  11.943
53054W        W21527  41.406  23.560   3.806
53055W        W21528  15.672  31.974   4.743
53056W        W21529  38.516  34.989   3.841
53057W        W21530   1.855  39.830  12.551
53058W        W21531   2.335  11.687  11.372
53059W        W21532  15.627   5.242   2.258
53060W        W21533  41.336  25.519  11.522
53061W        W21534  23.108  38.383   0.893
53062W        W21535  40.903   0.745  12.524
53063W        W21536   3.799  23.018  11.007
53064W        W21537  28.029  18.677  10.603
53065W        W21538  21.687  17.748  13.965
53066W        W21539  16.231  22.614  10.089
53067W        W21540  30.146  21.593   1.282
53068W        W21541   0.372   4.352  10.973
53069W        W21542  34.998  12.313  13.051
53070W        W21543  36.415   9.335  11.611
53071W        W21544  42.826  14.261   4.753
53072W        W21545  20.661  16.182   1.264
53073W        W21546   8.821  29.160   3.707
53074W        W21547  39.555   0.860   1.804
53075W        W21548   6.884  44.485  10.612
53076W        W21549  44.794   4.234  13.973
53077W        W21550  29.960  42.413   9.936
53078W        W21551  18.201  41.928  13.330
53079W        W21552   6.856  32.074   2.721
53080W        W21553  37.003  19.535   2.800
53081W        W21554  36.577  29.608   3.343
53082W        W21555  21.225   9.823   1.738
53083W        W21556  33.584  38.475   3.164
53084W        W21557  44.830  28.991  14.474
53085W        W21558   7.243  25.151  11.376
53086W        W21559  36.904  35.905  14.962
53087W        W21560   8.848  10.365   3.191
53088W        W21561  19.136  21.117   4.634
53089W        W21562  34.928  30.030   3.828
53090W        W21563   1.286  30.470  13.020
53091W        W21564  19.084  20.675   0.850
53092W        W21565  20.232  12.213  10.440
53093W        W21566  40.842  20.686   2.398
53094W        W21567  25.137  27.511   0.922
53095W        W21568  42.422  33.990   2.377
53096W        W21569   9.707  43.880  10.540
53097W        W21570   0.972   0.846   1.288
53098W        W21571  42.853  15.123  11.026
53099W        W21572  43.449   7.310  13.312
53100W        W21573  28.580  30.461   1.357
53101W        W21574  20.540  44.285  10.968
53102W        W21575  35.042  40.507   2.253
53103W        W21576  11.211  30.952  13.374
53104W        W21577  41.346   4.407   4.350
53105W        W21578  41.970  19.080  12.501
53106W        W21579  27.545  38.505   3.768
53107W        W21580   3.729   1.473  12.981
53108W        W21581  13.741  32.597   1.406
53109W        W21582  27.134  37.049   4.631
53110W        W21583  12.239  37.495   0.768
53111W        W21584  41.488  27.575   1.293
53112W        W21585  11.730  26.983  11.535
53113W        W21586   9.785  35.389   0.877
53114W        W21587  33.455  18.620   1.725
53115W        W21588  18.706   5.253   2.882
53116W        W21589   7.175  33.520   4.688
53117W        W21590  31.930  40.827  14.829
53118W        W21591  17.207   7.374  13.464
53119W        W21592  42.868  16.705   3.754
53120W        W21593  39.963  23.102  11.067
53121W        W21594  44.282  13.219   3.276
53122W        W21595  13.750   2.342  11.481
53123W        W21596  23.050  17.129   3.344
53124W        W21597   2.881  33.403   2.758
53125W        W21598  26.101  18.686  10.564
53126W        W21599  12.836  39.895   1.916
53127W        W21600  13.623  43.511  10.597
53128W        W21601  23.646   3.399  11.003
53129W        W21602  11.833  26.468  10.427
53130W        W21603   9.382  19.733   0.823
53131W        W21604  43.314  19.125  14.318
53132W        W21605  44.358  41.359  12.919
53133W        W21606  12.620  19.740   3.763
53134W        W21607  17.774   8.271  12.517
53135W        W21608   4.814  30.446  12.973
53136W        W21609   1.941   5.858   1.430
53137W        W21610   5.858  17.148  11.603
53138W        W21611  18.588   2.728  13.523
53139W        W21612  37.532   0.396  13.438
53140W        W21613  11.307  25.075  14.430
53141W        W21614  37.551  22.104   1.318
53142W        W21615  34.970  28.093   4.326
53143W        W21616  32.619  37.986  11.907
53144W        W21617  35.995  31.437   3.862
53145W        W21618  22.045   1.778   1.324
53146W        W21619  25.023   2.291   4.654
53147W        W21620  28.511  26.514  11.902
53148W        W21621  39.327  23.601  10.586
53149W        W21622  10.217  43.782   2.746
53150W        W21623   6.277   9.150   3.275
53151W        W21624   3.327  39.425  11.900
53152W        W21625  13.164  36.564  13.869
53153W        W21626  10.151  22.672  12.052
53154W        W21627   0.957  16.245  10.601
53155W        W21628  12.230  31.594  11.118
53156W        W21629  27.547  15.694   2.191
53157W        W21630  43.439   1.750   0.957
53158W        W21631   3.888  15.199  10.155
53159W        W21632  39.517   3.396   1.276
53160W        W21633  32.117  22.661   3.676
53161W        W21634   8.335  32.430  14.301
53162W        W21635  34.381  22.637   3.233
53163W        W21636   9.359  20.767  12.536
53164W        W21637  14.097  20.659  10.485
53165W        W21638  17.781  17.794   4.780
53166W        W21639  11.133  35.067   2.332
53167W        W21640  44.482   8.340  13.840
53168W        W21641  14.815   3.382   4.795
53169W        W21642  20.691  36.559  12.002
53170W        W21643  16.141  15.142  12.523
53171W        W21644  39.449  10.755  12.487
53172W        W21645  20.562  37.948   3.841
53173W        W21646  21.605  29.144   2.696
53174W        W21647  16.638  28.530   0.448
53175W        W21648  41.925   6.912   0.841
53176W        W21649   6.282   2.288  13.933
53177W        W21650  15.670  43.408   0.733
53178W        W21651  31.530  33.043  10.591
53179W        W21652   9.848  15.268   2.307
53180W        W21653  20.047  26.678   3.232
53181W        W21654  21.634  32.068  12.385
53182W        W21655   4.874  10.788   0.768
53183W        W21656  14.646  13.806  14.461
53184W        W21657  17.243   6.357  10.033
53185W        W21658  13.327  41.920   1.224
53186W        W21659   7.183  21.714  13.538
53187W        W21660  40.524  42.313  11.916
53188W        W21661  20.165  26.075   3.840
53189W        W21662  39.372  37.904   3.731
53190W        W21663  29.046  32.481   0.955
53191W        W21664  16.115  31.519   0.923
53192W        W21665   0.285  36.087  11.456
53193W        W21666   6.693  15.785  10.613
53194W        W21667  24.187  38.954   3.343
53195W        W21668  19.173  25.120  12.391
53196W        W21669  26.985  11.129   2.811
53197W        W21670  15.297   0.364  12.573
53198W        W21671  23.568  15.577  14.919
53199W        W21672  27.072  31.641  10.586
53200W        W21673  13.654  43.765  11.909
53201W        W21674  41.979  19.741  12.067
53202W        W21675  29.013  28.448  11.514
53203W        W21676  31.953  42.322   1.893
53204W        W21677  34.476  21.605  12.430
53205W        W21678  30.560  13.680  10.936
53206W        W21679  32.440  29.020  14.772
53207W        W21680   3.841  14.606   0.859
53208W        W21681  20.536  44.788   3.710
53209W        W21682  13.145  27.115   3.170
53210W        W21683  18.781  20.046  11.576
53211W        W21684  28.556   7.672   4.330
53212W        W21685  44.762  26.501  12.409
53213W        W21686  42.909  40.519   4.719
53214W        W21687  14.276  11.798   3.258
53215W        W21688  29.019   0.438  13.002
53216W        W21689  24.551  32.040  14.929
53217W        W21690  40.965  14.154   4.663
53218W        W21691   2.779  39.317  11.569
53219W        W21692  31.474  26.683  11.906
53220W        W21693  29.475  22.069  12.019
53221W        W21694   6.203   8.825   9.975
53222W        W21695  40.824   1.822   2.889
53223W        W21696  34.587   9.155   2.366
53224W        W21697  22.037  35.603  10.975
53225W        W21698  32.927  34.952   4.745
53226W        W21699  32.605  14.591  14.453
53227W        W21700   0.785  27.445  12.451
53228W        W21701  24.185  43.480  13.975
53229W        W21702  16.584  15.259   2.381
53230W        W21703   0.766   8.383  13.968
53231W        W21704   5.759  17.205  12.856
53232W        W21705   0.393  30.416  12.838
53233W        W21706  34.966  27.609  11.868
53234W        W21707   8.396  39.501  12.974
53235W        W21708  15.319  44.347  10.603
53236W        W21709  36.979  33.925   0.766
53237W        W21710  10.768  39.902  12.417
53238W        W21711   9.369  26.485   0.838
53239W        W21712  18.560  12.223  12.885
53240W        W21713  40.433   5.762   3.292
53241W        W21714  35.860  30.432  13.472
53242W        W21715  28.549  12.676  14.290
53243W        W21716  21.246  28.032  14.493
53244W        W21717  31.561  40.387   1.300
53245W        W21718  30.147   7.332  14.924
53246W        W21719   4.941  35.969   4.667
53247W        W21720  30.605  25.627  12.543
53248W        W21721  29.462  22.534   2.247
53249W        W21722  16.272  19.694  10.630
53250W        W21723  22.581  26.511  14.785
53251W        W21724   0.401  37.886   0.437
53252W        W21725   4.403  14.603   0.390
53253W        W21726  26.601  34.114   3.703
53254W        W21727  41.897   9.886  14.774
53255W        W21728  34.604  18.622  12.018
53256W        W21729  27.464  20.084  12.508
53257W        W21730   3.830   9.765   4.316
53258W        W21731  23.062   0.323  10.584
53259W        W21732  17.713  10.740  13.898
53260W        W21733  32.890  31.963  10.437
53261W        W21734  27.041  19.700  13.371
53262W        W21735  32.492  41.953   5.149
53263W        W21736  41.792  27.522  11.038
53264W        W21737  23.732  23.657  11.562
53265W        W21738  33.069  10.139  11.018
53266W        W21739  37.004   1.251   0.922
53267W        W21740  36.418   3.786   1.294
53268W        W21741  32.479  29.645   2.361
53269W        W21742  35.453   4.333   3.713
53270W        W21743  11.834  19.127  10.519
53271W        W21744  22.083  31.986   0.825
53272W        W21745  33.516   0.802  11.470
53273W        W21746  24.177  18.713   2.239
53274W        W21747  38.875  22.534  10.988
53275W        W21748  26.606  28.951   3.715
53276W        W21749  19.646  39.928   2.700
53277W        W21750  25.130  16.800   1.864
53278W        W21751  24.157  42.936  10.020
53279W        W21752  12.805  15.636   2.700
53280W        W21753   9.850  13.758  11.538
53281W        W21754  22.669  10.641   0.279
53282W        W21755  30.092  25.538   5.236
53283W        W21756  14.094  28.117   1.842
53284W        W21757  43.791  10.843  14.777
53285W        W21758   9.671  24.533  10.495
53286W        W21759   0.817  31.938   4.243
53287W        W21760  36.074  32.898   0.373
53288W        W21761  33.421  34.468   2.235
53289W        W21762  25.157  30.939  11.888
53290W        W21763  41.491   9.839  12.442
53291W        W21764  18.555  10.873   1.433
53292W        W21765  32.562   4.295  10.895
53293W        W21766  15.100  23.985   4.306
53294W        W21767  22.502  34.951   2.293
53295W        W21768  12.844  10.166   2.419
53296W        W21769   7.249  17.246  12.994
53297W        W21770  10.680  11.235   0.945
53298W        W21771  44.828  42.343  12.967
53299W        W21772  33.098  27.024  12.061
53300W        W21773  14.722  20.651   4.718
53301W        W21774  44.956  42.030   2.396
53302W        W21775   0.326  37.503  14.956
53303W        W21776  30.923  28.045   3.734
53304W        W21777  15.291  17.227  11.041
53305W        W21778  10.731   2.875  11.999
53306W        W21779  44.930   8.856   4.294
53307W        W21780  23.662   4.299  13.926
53308W        W21781  24.215  13.650   3.236
53309W        W21782   0.321  12.807   3.733
53310W        W21783  44.792   3.742   0.464
53311W        W21784  26.186  21.068  11.562
53312W        W21785  35.377  14.634  10.921
53313W        W21786   7.191   8.824   1.400
53314W        W21787  42.381  35.515  10.908
53315W        W21788  38.467   8.858  14.989
53316W        W21789  30.009  24.149   0.381
53317W        W21790  11.804   8.243  10.435
53318W        W21791  25.093  42.527  14.369
53319W        W21792  30.558  41.791   3.680
53320W        W21793  40.371  15.628   1.417
53321W        W21794  22.214   8.752  11.477
53322W        W21795   0.875  16.308   4.311
53323W        W21796  10.667   6.702  14.927
53324W        W21797  22.554   3.350  13.862
53325W        W21798  41.997  37.435  11.599
53326W        W21799  25.015  16.221  11.913
53327W        W21800  11.337  40.026   1.798
53328W        W21801  43.828  24.105  11.971
53329W        W21802  39.922  43.785  14.937
53330W        W21803  34.446  26.106   0.746
53331W        W21804  27.676  16.177  12.005
53332W        W21805  43.012  25.095   9.968
53333W        W21806  24.508   0.435   3.169
53334W        W21807   5.209  13.619   0.300
53335W        W21808  23.688  19.271   3.361
53336W        W21809   1.800   4.766  11.919
53337W        W21810  37.368  38.482   4.809
53338W        W21811  41.478  21.141   0.270
53339W        W21812   3.823  44.874  13.042
53340W        W21813  11.626  17.220  14.767
53341W        W21814  39.061  12.837  14.358
53342W        W21815  34.443  43.975   1.437
53343W        W21816  12.315  28.546   3.358
53344W        W21817  22.134  17.743  13.987
53345W        W21818  41.963  40.029  11.611
53346W        W21819  33.124  15.282  14.302
53347W        W21820   2.299  15.256  11.951
53348W        W21821  10.159  39.350   2.903
53349W        W21822  17.177  44.433  12.846
53350W        W21823  30.542   1.451   3.652
53351W        W21824  10.202  22.617  13.043
53352W        W21825  40.490  13.682   2.405
53353W        W21826  15.302  21.662  13.950
53354W        W21827   8.791   2.357   0.356
53355W        W21828  22.231  21.709  11.938
53356W        W21829  37.575   0.290   1.774
53357W        W21830  37.395   1.814   4.252
53358W        W21831  34.898   9.223   3.252
53359W        W21832  14.264  15.271   0.408
53360W        W21833  21.240  25.115   1.292
53361W        W21834   3.335  31.525   1.812
53362W        W21835  12.820   9.740   3.764
53363W        W21836  16.681  29.550  11.509
53364W        W21837  33.112  11.826  13.919
53365W        W21838  12.333  30.508   0.822
53366W        W21839  13.206  11.171  11.885
53367W        W21840  31.118  40.006  12.950
53368W        W21841  33.625   6.320   3.264
53369W        W21842  10.717  21.686   1.708
53370W        W21843  12.810  39.816   4.312
53371W        W21844   8.724  16.081  10.416
53372W        W21845  34.871  31.091   1.840
53373W        W21846  35.007  28.111  10.916
53374W        W21847  30.159  31.102   4.194
53375W        W21848  27.550  26.468   0.928
53376W        W21849  42.521  29.631  14.032
53377W        W21850  25.600  19.774  11.859
53378W        W21851  40.020  11.146  11.995
53379W        W21852  41.853  39.025   4.300
53380W        W21853  11.281  42.315   3.638
53381W        W21854  19.681  27.006   4.609
53382W        W21855  17.175  23.681  11.534
53383W        W21856  37.008  21.052   2.249
53384W        W21857  43.346  44.009  11.481
53385W        W21858  19.556  42.967   9.955
53386W        W21859  29.598  33.069   2.291
53387W        W21860  28.933  31.146   4.208
53388W        W21861   5.231  32.541  10.560
53389W        W21862   7.385   6.858   3.686
53390W        W21863  11.777  24.006  10.473
53391W        W21864  44.783  32.487   1.303
53392W        W21865  10.815  35.052   3.299
53393W        W21866  20.051   4.243   0.367
53394W        W21867  21.660   5.846  11.429
53395W        W21868  41.018   3.294   2.899
53396W        W21869   0.982  36.425  10.543
53397W        W21870   7.864  10.237   0.803
53398W        W21871   5.707  30.616   4.185
53399W        W21872  41.915   6.335  12.377
53400W        W21873  11.361  26.518  14.788
53401W        W21874   1.876  18.186  11.487
53402W        W21875   8.255  43.492  11.385
53403W        W21876  14.198  15.635   2.837
53404W        W21877  25.641  25.614   2.231
53405W        W21878  14.247   9.779  11.384
53406W        W21879  36.543  22.099   1.886
53407W        W21880  34.612   1.394   4.124
53408W        W21881  15.807  42.007   4.783
53409W        W21882  39.357  43.771   2.860
53410W        W21883  10.293  14.242   0.478
53411W        W21884  35.900  11.814   3.367
53412W        W21885   4.923   1.324   1.291
53413W        W21886  34.387  36.444  14.927
53414W        W21887   5.712   9.232  11.477
53415W        W21888  14.704  13.782  14.013
53416W        W21889  33.563  38.370  14.981
53417W        W21890  16.632   8.278  13.800
53418W        W21891  33.067  35.417  12.040
53419W        W21892  34.883   8.341  13.803
53420W        W21893   9.744  18.773  11.469
53421W        W21894  42.794  30.045   0.783
53422W        W21895  38.949  12.633   4.600
53423W        W21896   4.348   9.877   0.408
53424W        W21897  26.525  11.759  11.450
53425W        W21898  30.609  25.174   1.746
53426W        W21899  21.726  12.241  12.428
53427W        W21900   7.755   0.402   3.763
53428W        W21901  32.524  35.417  12.837
53429W        W21902  26.101  29.585  12.083
53430W        W21903  16.760   0.386   1.916
53431W        W21904  34.954  13.256   0.894
53432W        W21905  36.886  20.076   4.345
53433W        W21906  37.538  24.100   1.258
53434W        W21907  25.601  39.821   3.765
53435W        W21908  21.583  22.175  13.846
53436W        W21909  24.985   6.299   4.826
53437W        W21910  42.524  38.497   3.770
53438W        W21911  32.391  32.097  13.395
53439W        W21912  24.095  21.558  12.028
53440W        W21913  16.630   9.858   0.260
53441W        W21914  38.377   6.379   2.260
53442W        W21915  25.218  17.222   3.196
53443W        W21916  25.029  17.640  13.958
53444W        W21917   3.237  25.173   0.386
53445W        W21918  33.566  31.563   0.882
53446W        W21919  24.086  28.118   3.645
53447W        W21920  24.228  35.982   9.922
53448W        W21921  34.905  41.391   3.865
53449W        W21922  37.977  22.549  13.528
53450W        W21923  40.420   2.848   4.331
53451W        W21924  28.933   8.322   2.803
53452W        W21925  41.498   0.851  13.892
53453W        W21926  42.783  19.767  13.362
53454W        W21927  13.806  12.848  11.466
53455W        W21928  26.600  29.431  12.020
53456W        W21929  32.091  19.652  12.974
53457W        W21930  29.592  27.506   0.303
53458W        W21931  34.509  36.374  13.814
53459W        W21932  44.264  42.017  11.862
53460W        W21933  19.186  21.698  10.891
53461W        W21934  36.503  19.156  11.021
53462W        W21935  35.001  26.111  13.308
53463W        W21936   0.750  32.583   4.249
53464W        W21937  18.576   3.459   3.175
53465W        W21938  31.611  37.002  10.928
53466W        W21939  32.578   2.344  14.331
53467W        W21940  40.526  35.089   3.287
53468W        W21941  22.158  44.359   0.400
53469W        W21942  19.151  24.495   4.248
53470W        W21943  19.068  23.190   0.775
53471W        W21944  23.522  31.625   3.652
53472W        W21945  43.845   4.381   4.695
53473W        W21946   2.771  12.855   4.833
53474W        W21947   3.866  11.662   1.819
53475W        W21948  37.439   8.238   2.782
53476W        W21949  16.310  39.978   0.483
53477W        W21950  14.812  42.833   1.731
53478W        W21951  24.552   3.364   2.728
53479W        W21952  34.938  29.155  12.886
53480W        W21953  13.320  38.986   4.740
53481W        W21954  11.849  11.337  14.387
53482W        W21955  43.439  19.779   0.351
53483W        W21956  12.240   4.716  10.642
53484W        W21957  31.113  30.061   1.726
53485W        W21958   7.194  20.095  11.906
53486W        W21959  41.903  35.604  14.377
53487W        W21960  16.280  35.030  10.924
53488W        W21961  29.116  42.382  13.381
53489W        W21962  29.545   8.755   9.983
53490W        W21963  33.891   2.798  11.098
53491W        W21964   0.816  40.398   1.224
53492W        W21965  21.563  42.468  12.426
53493W        W21966   4.246  14.138  11.918
53494W        W21967  14.198  21.178   4.827
53495W        W21968  28.560  11.221   1.275
53496W        W21969   6.729   2.779   2.346
53497W        W21970  11.304  17.255   1.702
53498W        W21971   4.227  28.444  14.276
53499W        W21972  26.474  10.152  14.018
53500W        W21973  41.005  20.623   4.143
53501W        W21974  16.568  19.192   0.318
53502W        W21975   7.685   7.400  13.488
53503W        W21976  19.595  20.623   0.425
53504W        W21977   6.243  22.119  12.515
53505W        W21978   3.890   5.798  12.867
53506W        W21979  33.417  36.085  11.935
53507W        W21980  15.641  28.501  14.437
53508W        W21981  31.466  12.854  11.916
53509W        W21982  21.069  39.881  11.005
53510W        W21983  11.245  18.105  14.778
53511W        W21984   2.404  36.040  12.868
53512W        W21985  16.237  36.945   3.367
53513W        W21986  26.004   3.267   2.418
53514W        W21987  33.498  20.585  13.420
53515W        W21988  27.173  37.416   0.470
53516W        W21989  37.965  19.569  12.877
53517W        W21990  38.519  10.214   3.820
53518W        W21991  22.524  34.884   1.286
53519W        W21992  33.036  21.162  14.440
53520W        W21993  40.996  26.553  14.492
53521W        W21994   7.696   7.357  12.557
53522W        W21995  41.918  27.547   0.914
53523W        W21996  19.233  44.856   3.197
53524W        W21997  30.473  28.152   0.286
53525W        W21998   5.414   6.318  12.939
53526W        W21999  26.550  18.712   3.707
53527W        W22000  14.183   5.842   0.806
53528W        W22001   4.848  28.073   1.853
53529W        W22002  16.185  38.856   0.945
53530W        W22003  20.555  13.317   4.230
53531W        W22004  35.076   4.443   4.149
53532W        W22005  25.036  25.006  11.913
53533W        W22006  25.072  26.050   4.243
53534W        W22007  35.910   9.871  10.609
53535W        W22008  43.816  41.534   1.240
53536W        W22009   4.361   1.464   2.778
53537W        W22010   4.816  42.364  13.544
53538W        W22011   2.356  35.972   1.852
53539W        W22012  36.431  23.529   1.395
53540W        W22013   0.911  13.273   2.395
53541W        W22014  42.858  14.588  10.520
53542W        W22015   0.951   1.239  13.979
53543W        W22016  42.373   0.872  12.357
53544W        W22017  39.486  44.773   2.250
53545W        W22018   7.358  38.335   4.747
53546W        W22019  27.460   6.786   4.149
53547W        W22020  22.746  32.131  12.542
53548W        W22021  21.647  42.963  14.983
53549W        W22022   3.762  10.875  14.903
53550W        W22023  18.129  32.005   3.366
53551W        W22024   1.417  41.344  13.352
53552W        W22025  32.079  34.533   4.733
53553W        W22026  12.341   9.781  11.391
53554W        W22027  22.598  35.458  10.543
53555W        W22028  15.238   7.270   0.310
53556W        W22029  34.503  30.021   2.368
53557W        W22030   5.358  19.666   4.165
53558W        W22031   5.334  33.595  10.605
53559W        W22032  29.161  28.603   1.694
53560W        W22033  28.118  27.082   2.400
53561W        W22034  32.452  13.287   1.282
53562W        W22035  35.481   1.482   0.820
53563W        W22036   3.331  43.998  10.408
53564W        W22037  13.131  38.914   1.315
53565W        W22038  15.742  21.126  11.872
53566W        W22039  24.695  38.897  11.416
53567W        W22040  22.068  15.248  12.090
53568W        W22041  27.035   9.333  12.553
53569W        W22042  44.372  30.137  10.495
53570W        W22043  14.764   9.340   2.184
53571W        W22044  42.869  36.505  11.092
53572W        W22045  41.885  17.568  14.462
53573W        W22046  31.969  10.231  14.335
53574W        W22047  24.609  11.246   2.823
53575W        W22048   8.890   5.751   4.692
53576W        W22049  44.320  18.073  14.812
53577W        W22050  21.562  39.449   1.343
53578W        W22051  12.621  31.916  11.959
53579W        W22052  44.990  30.950  13.387
53580W        W22053  28.681   0.874   0.836
53581W        W22054   7.397   0.749   0.855
53582W        W22055  42.399  17.152  12.505
53583W        W22056  41.951  13.219   4.169
53584W        W22057  17.790  33.094   0.443
53585W        W22058  42.965  30.060   1.449
53586W        W22059  43.373  32.046   2.803
53587W        W22060  36.986  12.777   4.122
53588W        W22061  38.921  13.828  12.518
53589W        W22062   9.347  42.997   3.686
53590W        W22063  40.988  35.065   4.687
53591W        W22064   2.922  27.986   1.412
53592W        W22065  40.017  17.089  12.566
53593W        W22066  31.443  30.093  12.050
53594W        W22067  28.968   3.315  11.976
53595W        W22068  19.618   3.782   4.774
53596W        W22069  11.770  23.694  12.577
53597W        W22070  28.677  13.264  13.934
53598W        W22071  33.498  35.960   1.400
53599W        W22072  36.422  21.114  10.916
53600W        W22073  39.888  28.666   4.730
53601W        W22074  27.177  26.137   1.900
53602W        W22075  21.029  18.767  12.574
53603W        W22076  35.495   6.385  10.590
53604W        W22077  15.677  27.046  12.427
53605W        W22078  44.803  43.280  11.856
53606W        W22079  41.992  22.060  13.794
53607W        W22080  42.949  15.255  12.966
53608W        W22081  38.457  27.948   0.373
53609W        W22082  13.351  31.915  11.448
53610W        W22083  16.220  32.547  11.420
53611W        W22084  31.008  20.682   1.216
53612W        W22085  19.071   0.863   2.746
53613W        W22086  43.000  18.594   4.691
53614W        W22087   6.310  28.940   1.879
53615W        W22088  13.769  29.019   0.828
53616W        W22089  21.679  42.301  10.907
53617W        W22090  42.987  31.897   1.703
53618W        W22091  24.531  12.225  10.488
53619W        W22092  44.867  16.737  13.965
53620W        W22093   7.845   4.317  14.869
53621W        W22094  28.995  32.596   2.360
53622W        W22095  37.437  26.587  10.960
53623W        W22096   8.701  14.662   4.183
53624W        W22097  31.468  23.023  12.024
53625W        W22098   9.788  35.881   3.315
53626W        W22099  27.077  13.842   1.246
53627W        W22100  37.495  38.897  14.842
53628W        W22101  15.120  27.681  11.994
53629W        W22102  16.634   1.889  10.528
53630W        W22103  39.061  37.025   3.212
53631W        W22104  40.370   9.248  12.935
53632W        W22105  12.219  11.252  11.905
53633W        W22106  20.144  15.647   2.346
53634W        W22107   0.305  10.242   2.758
53635W        W22108   9.358  37.545   0.269
53636W        W22109  31.508  13.156  13.908
53637W        W22110  41.827  33.081   4.607
53638W        W22111  21.126  33.532   0.379
53639W        W22112  14.328  30.604   3.306
53640W        W22113  11.149  15.175   1.818
53641W        W22114  34.555  23.103   3.369
53642W        W22115  30.421   6.842  14.872
53643W        W22116  38.850  22.665  14.341
53644W        W22117   8.193   6.918   2.701
53645W        W22118   1.344  33.909  11.075
53646W        W22119  44.869   0.365  13.331
53647W        W22120  15.328   8.760  10.644
53648W        W22121  17.285   1.855   2.380
53649W        W22122  37.884  39.871   1.795
53650W        W22123   9.176  22.702  12.037
53651W        W22124  22.100   6.189  11.608
53652W        W22125  20.032  20.662  12.046
53653W        W22126  16.767  36.570  11.570
53654W        W22127  38.904   4.270   1.440
53655W        W22128  10.801  22.204  14.896
53656W        W22129  15.329  33.960   1.915
53657W        W22130  42.866  31.401   2.321
53658W        W22131  15.768  22.132   4.787
53659W        W22132  17.697  35.455   4.654
53660W        W22133  44.287  12.197   4.296
53661W        W22134  29.029  28.543   2.867
53662W        W22135  30.095  22.157   2.814
53663W        W22136  24.654   2.724   3.705
53664W        W22137   9.731  20.595  12.866
53665W        W22138  34.510  42.341  13.319
53666W        W22139  43.020  21.122   3.789
53667W        W22140  20.584  38.977  12.376
53668W        W22141   7.738  38.819   4.597
53669W        W22142  35.988   4.391   2.688
53670W        W22143  39.523  18.263  12.896
53671W        W22144  28.040   1.462   2.364
53672W        W22145   2.934  11.645   2.798
53673W        W22146  17.595  18.779   4.258
53674W        W22147  20.079  30.624  14.305
53675W        W22148  28.652  31.622  11.963
53676W        W22149  33.550  17.657   3.813
53677W        W22150   6.322  31.096   3.770
53678W        W22151  26.126  32.482  13.457
53679W        W22152   2.724  31.995  13.367
53680W        W22153  17.293  12.652  11.582
53681W        W22154  33.596  10.727   3.266
53682W        W22155  25.064   1.403  14.825
53683W        W22156  31.063  44.937   4.694
53684W        W22157   6.682  12.764  14.372
53685W        W22158  30.490  17.695  13.486
53686W        W22159  38.841  18.757  10.909
53687W        W22160  38.353  21.064   2.661
53688W        W22161   3.950  15.750   4.797
53689W        W22162  40.928  13.642   0.306
53690W        W22163  21.737  12.854  11.452
53691W        W22164  14.141   0.290  12.860
53692W        W22165  38.973  40.384  12.963
53693W        W22166   9.737  26.109  13.989
53694W        W22167  33.913  36.952   4.200
53695W        W22168  12.686  18.251   1.262
53696W        W22169  33.427  42.925   4.665
53697W        W22170  10.246   4.286   4.221
53698W        W22171  28.186  21.533   0.810
53699W        W22172  28.670  24.209  13.917
53700W        W22173  34.119  13.133  13.892
53701W        W22174  21.151  44.914  10.919
53702W        W22175  25.981  32.583  11.442
53703W        W22176  36.972  36.456  11.880
53704W        W22177  17.127  37.369  10.608
53705W        W22178  30.139  22.635   4.168
53706W        W22179  36.396  17.729  14.949
53707W        W22180   8.714  37.578   0.424
53708W        W22181  16.234  28.086   0.425
53709W        W22182  38.402  38.046   1.773
53710W        W22183  32.472  34.015  14.410
53711W        W22184   6.740  14.307  12.403
53712W        W22185   9.211  37.004  12.528
53713W        W22186   5.226  14.249   3.831
53714W        W22187  41.293  20.750   3.668
53715W        W22188  33.474  26.499   1.337
53716W        W22189  12.259  40.525  14.927
53717W        W22190  10.154  10.186  14.285
53718W        W22191  16.269  12.831  13.827
53719W        W22192  35.399  25.090   4.649
53720W        W22193   1.947  12.125   0.751
53721W        W22194  14.716  43.793   1.850
53722W        W22195  44.352  41.001  11.506
53723W        W22196  13.128  26.132  12.417
53724W        W22197   4.356  27.154   1.805
53725W        W22198  23.724  24.660  14.431
53726W        W22199  43.339   9.811   3.640
53727W        W22200  35.093   1.328   1.366
53728W        W22201  26.644   4.428  13.994
53729W        W22202  18.786  32.442  12.012
53730W        W22203   8.306  30.130  14.435
53731W        W22204  12.323   6.340  12.469
53732W        W22205   2.362   8.283  12.876
53733W        W22206  21.746   2.452  14.435
53734W        W22207  18.682   1.926   0.788
53735W        W22208  13.672  19.068   0.378
53736W        W22209  23.550  25.984   3.707
53737W        W22210   0.856  13.658   0.453
53738W        W22211  23.615  38.842  11.042
53739W        W22212  19.604  22.642   3.351
53740W        W22213   6.409  31.089  12.089
53741W        W22214  10.733   0.905  14.452
53742W        W22215  44.872  35.882  11.451
53743W        W22216  18.563  42.837   4.120
53744W        W22217  33.000  37.968  14.889
53745W        W22218  25.518  40.989  12.475
53746W        W22219  13.113   0.929  12.922
53747W        W22220  14.654  33.098  13.030
53748W        W22221  18.275   9.152   1.280
53749W        W22222  38.496  39.049   1.440
53750W        W22223  17.757  28.119   2.254
53751W        W22224  10.782  36.065   4.778
53752W        W22225  40.899  24.227  11.921
53753W        W22226   0.760  13.302   1.449
53754W        W22227  41.853  38.380   0.774
53755W        W22228  38.827  15.120  12.543
53756W        W22229  31.142  39.817   4.346
53757W        W22230  18.235  42.490  13.062
53758W        W22231  37.423  36.922  13.536
53759W        W22232  36.904  14.204   1.354
53760W        W22233  41.944  11.625   1.246
53761W        W22234  18.082  23.613  11.486
53762W        W22235  35.510  36.372   3.698
53763W        W22236  32.447  20.064  13.967
53764W        W22237  34.572  32.428  14.401
53765W        W22238  32.122   8.796   4.304
53766W        W22239  27.677  19.637  13.031
53767W        W22240  20.580   5.774   1.769
53768W        W22241  42.895   6.781  12.845
53769W        W22242  13.196   4.292   0.428
53770W        W22243  21.545  20.588   4.345
53771W        W22244  26.559  28.606   5.262
53772W        W22245  18.643  41.998   1.934
53773W        W22246   3.711  26.631   1.827
53774W        W22247  11.862  28.932  10.998
53775W        W22248  20.526  25.643   2.315
53776W        W22249  10.223  31.591   3.333
53777W        W22250  34.560   4.280   4.632
53778W        W22251  42.358  24.111   2.344
53779W        W22252  26.049  43.318   5.641
53780W        W22253  17.243  26.164  13.487
53781W        W22254   0.868  16.778   4.601
53782W        W22255   2.341  32.466  12.579
53783W        W22256  18.729   0.461   0.397
53784W        W22257  17.084  42.335  11.997
53785W        W22258  44.779  20.524   1.387
53786W        W22259  25.683  23.688   0.815
53787W        W22260  10.290   2.289   0.898
53788W        W22261  42.340  35.489  13.539
53789W        W22262  20.605  42.801   2.204
53790W        W22263  41.344  11.830   3.147
53791W        W22264   3.869  37.394   0.469
53792W        W22265  39.908   4.433   0.289
53793W        W22266  12.642  34.432   3.282
53794W        W22267  33.489  38.558  13.919
53795W        W22268  23.188   9.827   4.308
53796W        W22269  16.152  11.156  13.796
53797W        W22270  16.074  17.181  12.096
53798W        W22271  34.561  38.448  10.624
53799W        W22272  27.034   2.743  14.955
53800W        W22273  22.726  34.953  10.470
53801W        W22274   4.882  16.656   3.377
53802W        W22275  33.413   5.360   4.216
53803W        W22276  30.008  41.304  10.624
53804W        W22277  17.568  27.110  13.446
53805W        W22278   9.322  29.957  14.816
53806W        W22279  40.458  29.426  10.559
53807W        W22280  32.932  42.914  12.938
53808W        W22281   7.895  10.869   0.955
53809W        W22282  42.924   1.430   0.279
53810W        W22283  42.000   2.816  10.940
53811W        W22284  40.304   9.218   3.850
53812W        W22285   4.722  23.607  10.406
53813W        W22286  40.875  12.611   3.302
53814W        W22287  13.143  44.469   0.955
53815W        W22288  30.539  42.455   3.261
53816W        W22289  22.209  14.142  11.496
53817W        W22290  38.870   5.404   0.394
53818W        W22291   2.334  29.033   1.328
53819W        W22292   8.844  33.442  12.889
53820W        W22293  41.316  39.429  14.994
53821W        W22294  14.669  31.007   3.208
53822W        W22295  22.659  14.731  12.339
53823W        W22296  19.197   5.902  10.437
53824W        W22297  29.425  22.190   2.232
53825W        W22298  16.086  20.676  12.435
53826W        W22299  35.559  21.196  14.990
53827W        W22300  39.923  29.996   4.267
53828W        W22301   0.813  41.850   4.276
53829W        W22302  41.513  20.138   3.749
53830W        W22303   5.416  21.255  14.019
53831W        W22304  20.214  37.414   0.371
53832W        W22305  40.047  16.673  12.901
53833W        W22306  21.156   5.227   0.915
53834W        W22307  34.061  19.746  14.015
53835W        W22308  37.866   6.720  14.836
53836W        W22309  17.773   3.828  14.343
53837W        W22310   4.739   7.856  13.806
53838W        W22311   2.801  10.191  13.503
53839W        W22312  35.466  15.654  14.877
53840W        W22313  20.600  36.563   2.811
53841W        W22314   7.205  15.114   1.888
53842W        W22315  21.752  21.654  13.483
53843W        W22316  15.217  34.437   3.175
53844W        W22317  30.478  16.720   3.772
53845W        W22318  16.211   9.863   3.294
53846W        W22319  35.079  27.035   2.305
53847W        W22320  26.459  18.617   3.199
53848W        W22321  42.296  36.513  11.103
53849W        W22322  12.313  24.659  14.778
53850W        W22323  42.931  23.646   3.168
53851W        W22324   4.304  13.631  10.431
53852W        W22325  40.007   8.809  14.348
53853W        W22326  25.105  13.122   0.366
53854W        W22327  29.131  41.467   3.203
53855W        W22328   5.885   2.827   2.364
53856W        W22329  35.578  12.622   3.264
53857W        W22330  42.431  43.364  14.284
53858W        W22331  26.618  34.873  14.308
53859W        W22332  30.107   4.812  14.408
53860W        W22333  36.908   8.312  13.022
53861W        W22334  38.827  38.553   1.266
53862W        W22335  34.379  38.824  11.118
53863W        W22336  32.989  27.532  11.441
53864W        W22337  40.903  17.713   4.237
53865W        W22338   1.762  36.914   3.174
53866W        W22339  35.454  20.171  13.056
53867W        W22340   7.701  44.295  10.604
53868W        W22341   6.266  21.027   0.925
53869W        W22342  31.049   3.430  14.810
53870W        W22343  24.669  15.318   1.760
53871W        W22344   8.732  13.116  14.912
53872W        W22345  36.089  40.817  10.955
53873W        W22346   9.645  39.855  12.425
53874W        W22347  44.276  39.521   2.240
53875W        W22348  10.181  29.664   1.386
53876W        W22349   5.734  16.259   5.147
53877W        W22350  36.022  36.014  11.481
53878W        W22351   3.888  10.206  14.318
53879W        W22352  25.658   2.244  10.492
53880W        W22353  26.066  38.997   1.918
53881W        W22354  11.655  42.935  10.138
53882W        W22355   4.703  32.041   2.867
53883W        W22356  16.625   3.836   0.257
53884W        W22357   3.747  32.924   0.954
53885W        W22358  14.183  12.267   0.479
53886W        W22359  12.679   6.242  14.796
53887W        W22360  41.382  17.687  11.053
53888W        W22361  37.066  33.423  14.397
53889W        W22362  42.496  12.240  12.978
53890W        W22363  36.885   3.835  13.323
53891W        W22364  32.113  18.142  13.918
53892W        W22365   4.275  13.813  12.021
53893W        W22366  28.571  40.488   4.805
53894W        W22367  36.551   8.737   4.774
53895W        W22368   9.875  42.996  10.930
53896W        W22369  43.432  29.489  13.843
53897W        W22370  17.621  32.126  12.421
53898W        W22371  44.010  27.974  10.962
53899W        W22372  29.509  17.156   2.699
53900W        W22373  20.219  37.849  11.088
53901W        W22374  21.220  21.727   2.878
53902W        W22375  26.190  13.602  10.603
53903W        W22376  24.512   3.845   3.244
53904W        W22377  35.022  41.832  14.977
53905W        W22378   6.861   6.363  12.559
53906W        W22379  27.543  29.990   1.924
53907W        W22380   5.419   8.178  11.074
53908W        W22381  39.878  34.905   2.673
53909W        W22382   0.293  39.356  14.351
53910W        W22383  24.223   7.247   0.340
53911W        W22384  35.915   7.247  12.844
53912W        W22385  17.596  44.326  12.375
53913W        W22386  25.068   8.205   3.379
53914W        W22387  17.589  22.083  12.569
53915W        W22388   7.323  16.754   1.291
53916W        W22389  16.698   3.773   3.742
53917W        W22390  18.257  21.222  11.071
53918W        W22391  37.063  44.938  13.900
53919W        W22392  40.309  35.542   1.698
53920W        W22393  17.117  13.311  13.947
53921W        W22394  39.406   6.363  10.969
53922W        W22395  27.609  31.071  11.605
53923W        W22396  15.715  42.968   0.304
53924W        W22397   9.198  37.987   2.720
53925W        W22398  40.992  32.460   3.860
53926W        W22399  32.621  19.275  10.887
53927W        W22400  26.458  14.719  12.886
53928W        W22401   1.940  13.803   3.760
53929W        W22402   7.353  35.420   2.334
53930W        W22403  10.648  13.188   1.244
53931W        W22404  42.906  24.105  14.948
53932W        W22405  34.907  37.408  12.507
53933W        W22406  15.119  36.523   4.610
53934W        W22407  43.934  26.700  10.440
53935W        W22408  39.948  24.699  12.036
53936W        W22409  24.671   3.721   1.333
53937W        W22410  32.092   6.679   2.313
53938W        W22411  33.428  41.975   0.901
53939W        W22412   7.214  43.801  14.304
53940W        W22413  12.664  37.908  12.445
53941W        W22414  30.492   8.219   0.385
53942W        W22415  14.212  21.262  10.512
53943W        W22416   0.813  17.653   4.615
53944W        W22417  17.306  35.408  14.332
53945W        W22418  26.072   4.715  12.560
53946W        W22419   7.406  10.357   2.378
53947W        W22420  19.584  40.313  11.438
53948W        W22421  13.120   4.258  13.343
53949W        W22422  25.618  33.535   4.726
53950W        W22423  41.976  34.549  11.377
53951W        W22424  39.407   7.790   0.848
53952W        W22425  11.290  30.965  10.559
53953W        W22426   8.785   7.181   2.400
53954W        W22427  37.367  39.400   1.913
53955W        W22428  39.029   0.861   2.759
53956W        W22429  26.681  37.989  14.500
53957W        W22430   4.233  33.052  11.999
53958W        W22431  30.964  43.491  11.885
53959W        W22432   8.834  43.426   3.186
53960W        W22433   2.226  25.485   1.242
53961W        W22434  18.694  12.808  14.816
53962W        W22435  33.889   3.425   2.419
53963W        W22436  42.929  11.798   2.894
53964W        W22437  14.660  13.314  14.275
53965W        W22438  32.630  34.967  10.161
53966W        W22439  13.829  28.562  14.500
53967W        W22440  19.691  11.864  10.979
53968W        W22441  24.501  15.819   2.236
53969W        W22442  32.025  15.306   4.349
53970W        W22443   4.726   5.249   3.268
53971W        W22444  27.031  23.033   3.855
53972W        W22445  29.983  30.045  14.878
53973W        W22446  26.127  24.711   1.304
53974W        W22447  34.865  25.140  14.853
53975W        W22448  39.977  27.098  14.939
53976W        W22449  16.259  36.044  11.602
53977W        W22450  15.748  33.591  12.860
53978W        W22451  39.062  28.655  12.563
53979W        W22452  31.944  28.639  11.053
53980W        W22453   1.368  11.249  11.011
53981W        W22454  21.757  33.517   3.286
53982W        W22455  27.544   5.773  11.434
53983W        W22456  13.779  40.921  14.016
53984W        W22457  15.137  28.973   1.859
53985W        W22458  43.454  43.983  14.305
53986W        W22459  21.247  32.040  10.464
53987W        W22460  35.914   4.244   3.173
53988W        W22461  39.897  39.022   1.298
53989W        W22462  11.713  16.811   1.310
53990W        W22463  30.517  39.481   0.332
53991W        W22464  31.043  37.832  13.310
53992W        W22465   1.835  12.704  12.927
53993W        W22466  35.587  27.636   1.347
53994W        W22467  20.760  26.022   5.631
53995W        W22468  43.488  30.524  13.449
53996W        W22469  23.146  26.575   0.259
53997W        W22470  10.158  11.256   0.893
53998W        W22471  14.644  16.139  13.438
53999W        W22472  37.419  35.104   1.363
54000W        W22473  18.702  13.828   1.386
54001W        W22474   7.754  16.739   2.263
54002W        W22475  15.299   7.792  14.945
54003W        W22476  21.079  27.058   1.815
54004W        W22477  34.549  36.941  14.807
54005W        W22478  37.549  41.373  14.860
54006W        W22479  37.990  29.129   0.847
54007W        W22480  13.313  39.499  13.515
54008W        W22481  32.938  38.470   1.830
54009W        W22482   2.318  42.997   1.726
54010W        W22483  27.078   8.749   9.986
54011W        W22484  27.130  32.082  12.968
54012W        W22485  41.975  35.426  13.058
54013W        W22486  40.492  44.764  10.987
54014W        W22487  19.608  42.288  11.487
54015W        W22488  37.449  32.125  10.127
54016W        W22489  41.339  42.942  14.878
54017W        W22490  11.761  40.503   4.812
54018W        W22491   6.848  23.496   1.237
54019W        W22492  29.547  17.289  12.903
54020W        W22493  22.545  35.888   5.217
54021W        W22494  33.035  16.589   2.733
54022W        W22495  37.083  39.050   1.895
54023W        W22496  14.723  25.037   2.887
54024W        W22497  43.781  32.129   2.771
54025W        W22498  32.597  31.144  14.923
54026W        W22499  21.714  40.964   3.330
54027W        W22500  16.087  41.865  13.805
54028W        W22501  23.648  19.166  13.309
54029W        W22502   0.290  44.962  14.501
54030W        W22503   6.334  39.380  13.899
54031W        W22504  43.319  18.237  14.965
54032W        W22505  26.205  44.291  12.935
54033W        W22506   6.848   3.865   4.604
54034W        W22507  20.248  35.534   4.265
54035W        W22508  20.206  28.661  10.903
54036W        W22509  39.516  25.619  10.640
54037W        W22510   2.468  11.290   4.130
54038W        W22511  42.994  31.577  12.401
54039W        W22512  29.622  31.440   1.259
54040W        W22513  41.800  23.683  12.459
54041W        W22514  23.585  43.426   3.272
54042W        W22515  13.823  20.644  13.886
54043W        W22516  19.645  33.935  10.967
54044W        W22517   5.712  23.723  10.601
54045W        W22518  41.922  32.622   3.239
54046W        W22519   1.900  29.532  14.328
54047W        W22520  10.814  30.071   3.214
54048W        W22521   4.254  37.940   1.905
54049W        W22522   7.214  34.569   1.252
54050W        W22523  17.291  33.950  13.046
54051W        W22524  25.094  23.490  13.407
54052W        W22525   2.733  12.150  11.416
54053W        W22526  20.079  32.455   3.288
54054W        W22527   7.205  22.153  14.325
54055W        W22528  31.633  12.765   0.478
54056W        W22529  41.433  43.403  14.278
54057W        W22530  24.497   5.899  14.021
54058W        W22531   1.421  15.085   2.894
54059W        W22532  19.539  22.523   1.860
54060W        W22533  22.742   3.793   3.196
54061W        W22534  33.050  17.636  14.279
54062W        W22535  40.513   3.719  13.026
54063W        W22536  15.647  30.568   3.350
54064W        W22537  38.499  35.103  12.420
54065W        W22538  22.093   5.253   2.861
54066W        W22539  34.930  12.687  14.760
54067W        W22540  28.178  25.478   4.722
54068W        W22541  43.002  17.654  13.540
54069W        W22542  23.530   3.357   2.274
54070W        W22543  17.760  39.328  12.874
54071W        W22544  17.303  38.921  11.965
54072W        W22545  11.828  20.627   3.671
54073W        W22546  11.176  44.280   3.162
54074W        W22547   1.448  36.899   0.841
54075W        W22548   0.846   1.879   0.780
54076W        W22549  12.354  27.503  12.970
54077W        W22550  27.190  23.648  11.110
54078W        W22551  29.520  10.250  10.125
54079W        W22552  26.103  35.573   1.249
54080W        W22553   6.702  10.199   2.707
54081W        W22554  27.140  44.396  11.460
54082W        W22555   8.326  10.295  14.989
54083W        W22556  36.907  26.615  10.448
54084W        W22557   9.719  32.439   4.810
54085W        W22558  32.408  31.555   0.455
54086W        W22559  31.412   9.655  10.994
54087W        W22560  20.242  18.579  14.439
54088W        W22561  34.538  14.273  12.014
54089W        W22562  17.593  36.096   2.682
54090W        W22563  27.603  32.574   3.853
54091W        W22564  23.516   7.854   3.737
54092W        W22565  34.963  20.186  11.975
54093W        W22566  22.694  29.154   0.280
54094W        W22567  26.477  27.946  12.529
54095W        W22568  39.987  40.542  12.862
54096W        W22569  17.704  34.528   1.767
54097W        W22570   2.451   4.856   1.907
54098W        W22571  42.976  15.741   0.853
54099W        W22572   9.757   3.241  14.009
54100W        W22573  11.692  35.585   2.399
54101W        W22574   8.859   4.332   0.347
54102W        W22575  24.700  41.858  11.432
54103W        W22576   8.304  41.911  11.555
54104W        W22577  43.983  41.965  13.051
54105W        W22578  21.237  30.075   1.800
54106W        W22579  25.591  20.610  10.629
54107W        W22580  44.958  31.420   1.230
54108W        W22581  29.062  30.163  14.823
54109W        W22582   0.377  13.306   0.930
54110W        W22583   8.836  38.939   4.225
54111W        W22584   5.927  29.454  10.502
54112W        W22585  28.029  25.177   4.250
54113W        W22586  38.427  43.862   3.819
54114W        W22587  18.079  16.787   0.911
54115W        W22588  20.215  29.055  12.868
54116W        W22589  40.379  27.652   0.267
54117W        W22590  11.658  41.992  14.906
54118W        W22591  23.539  29.080  12.475
54119W        W22592  37.538  31.639   4.347
54120W        W22593  21.586   2.894   0.856
54121W        W22594  32.050   8.352  11.075
54122W        W22595  39.532  20.623   0.907
54123W        W22596  44.956  21.035   2.388
54124W        W22597  29.612  13.636   0.754
54125W        W22598  29.472  17.094  11.407
54126W        W22599  34.931  30.537   2.295
54127W        W22600  38.521  15.219   4.237
54128W        W22601   7.340  31.513   2.828
54129W        W22602  29.928  20.562   0.361
54130W        W22603   1.955  32.966  12.368
54131W        W22604  13.705  11.771   1.303
54132W        W22605  18.202  18.641   0.444
54133W        W22606  15.595  24.160  14.386
54134W        W22607  38.421  44.260  12.080
54135W        W22608  25.653   2.870  14.454
54136W        W22609   2.372   5.814  13.442
54137W        W22610  38.528  32.102  12.997
54138W        W22611  37.406  12.659   4.630
54139W        W22612  43.394  31.575  13.363
54140W        W22613  20.167  14.628  13.469
54141W        W22614  30.057  36.965   3.207
54142W        W22615  13.300  16.612   3.334
54143W        W22616   4.271  24.654  13.488
54144W        W22617  30.086  16.218   3.232
54145W        W22618  17.573  28.439  14.785
54146W        W22619  39.520  41.865   3.245
54147W        W22620  14.829  38.941   0.273
54148W        W22621  32.634  22.137  11.437
54149W        W22622  42.305  16.589  13.824
54150W        W22623  11.635  42.296   2.792
54151W        W22624  44.910  37.564   0.397
54152W        W22625  14.210  17.736  14.781
54153W        W22626   9.382  30.544  10.519
54154W        W22627  37.541  33.495   0.427
54155W        W22628   7.299  11.149   3.684
54156W        W22629   0.392  28.454  12.506
54157W        W22630   2.892  32.912   1.811
54158W        W22631   1.272  15.101   1.353
54159W        W22632  43.866   2.311  13.812
54160W        W22633   6.823   0.787  10.896
54161W        W22634  21.571  37.934   2.711
54162W        W22635  36.989  28.461   4.828
54163W        W22636   6.750  37.573  11.937
54164W        W22637  37.470   0.834  14.370
54165W        W22638   6.700  20.717  12.563
54166W        W22639  16.586  15.311  14.491
54167W        W22640  24.598  23.182   1.805
54168W        W22641  41.830   4.884  10.950
54169W        W22642   3.315  13.763  13.885
54170W        W22643  37.509   9.267  12.379
54171W        W22644  17.255   4.772   3.321
54172W        W22645  16.766  20.240  12.401
54173W        W22646  16.695  35.974   0.398
54174W        W22647   2.965  34.010   2.772
54175W        W22648  42.920  24.014  12.967
54176W        W22649   2.940  42.438  10.599
54177W        W22650  35.906  43.379  13.401
54178W        W22651  32.429   1.473  14.839
54179W        W22652  43.457  43.512  11.008
54180W        W22653  41.340   3.850  14.344
54181W        W22654   5.868  41.504   4.159
54182W        W22655  38.568  39.841  10.915
54183W        W22656  28.097   2.778  10.605
54184W        W22657  35.490  35.376  12.435
54185W        W22658  43.816  26.121   1.752
54186W        W22659  41.472  42.776  11.090
54187W        W22660   3.930  19.072  14.939
54188W        W22661   7.802  18.568  10.513
54189W        W22662  42.430   0.855  11.946
54190W        W22663  44.364   8.369   4.310
54191W        W22664  32.137  28.972  11.031
54192W        W22665  18.755  38.859   1.263
54193W        W22666  39.408  34.960   0.308
54194W        W22667  19.630  43.917  13.463
54195W        W22668  25.103  43.370  10.559
54196W        W22669  40.944  17.569  10.960
54197W        W22670  22.176  13.204   0.908
54198W        W22671  14.715  21.612   0.460
54199W        W22672   0.900  27.529  14.484
54200W        W22673  21.659  11.759   2.856
54201W        W22674  28.056  41.990  11.576
54202W        W22675  36.442  30.526  12.391
54203W        W22676   5.763   0.793  12.955
54204W        W22677  20.037  35.023  11.076
54205W        W22678  11.860  26.063  12.850
54206W        W22679  23.639  16.754   4.687
54207W        W22680  27.681  39.390   4.208
54208W        W22681   3.227  41.302   2.262
54209W        W22682  35.455  24.174   2.309
54210W        W22683   3.303  31.954   2.274
54211W        W22684  23.167  17.687  11.576
54212W        W22685  15.220  27.534   2.398
54213W        W22686  23.100   6.750   2.860
54214W        W22687  40.985  37.913  12.984
54215W        W22688  28.485   0.340  10.965
54216W        W22689  38.035   1.960   0.383
54217W        W22690   2.839   6.402   3.684
54218W        W22691  16.285  30.576   1.926
54219W        W22692  10.303  38.072   3.689
54220W        W22693  31.947  25.688   5.654
54221W        W22694  37.086  23.579  13.333
54222W        W22695   5.919  13.270   9.674
54223W        W22696  29.485  29.007   1.412
54224W        W22697  44.955  41.932  14.883
54225W        W22698   4.220   6.203  14.845
54226W        W22699  12.170  30.081  11.880
54227W        W22700  38.457   5.846  14.369
54228W        W22701  35.061  15.604  13.474
54229W        W22702  36.009   3.307   0.326
54230W        W22703   9.746  22.016  14.962
54231W        W22704  21.035  32.592   0.859
54232W        W22705  40.885   0.770   4.808
54233W        W22706  13.165  42.884  10.007
54234W        W22707  38.928   1.790   1.229
54235W        W22708  16.777  31.577   3.864
54236W        W22709  27.617  30.649   1.833
54237W        W22710  42.030  23.009   2.767
54238W        W22711   0.959  44.930   3.314
54239W        W22712   1.440  17.261  12.494
54240W        W22713  27.062  37.888  14.861
54241W        W22714  40.405  43.891   3.185
54242W        W22715  29.635   2.725   1.746
54243W        W22716  11.341  12.181  12.449
54244W        W22717   0.417   4.833   1.841
54245W        W22718   8.881  20.083   1.335
54246W        W22719  36.550  23.030  10.605
54247W        W22720  24.533   1.837  13.994
54248W        W22721   3.867   2.895   3.807
54249W        W22722  40.457  17.197   3.351
54250W        W22723  40.812  32.036   0.243
54251W        W22724  41.538  16.665   0.286
54252W        W22725  16.222  14.192   0.452
54253W        W22726  14.159   9.242   2.211
54254W        W22727  13.164  40.430  12.065
54255W        W22728   1.470   6.384  11.955
54256W        W22729  12.187  22.138   2.869
54257W        W22730  19.199  25.493   2.406
54258W        W22731   6.410  23.181  13.331
54259W        W22732   3.428  33.097  11.914
54260W        W22733  11.715  30.622   4.183
54261W        W22734  17.166  27.979   1.359
54262W        W22735   3.408  37.539  10.473
54263W        W22736  28.448  22.618   1.344
54264W        W22737  23.143  38.413  11.445
54265W        W22738  31.592   0.250   3.279
54266W        W22739  44.467  27.078  14.834
54267W        W22740   8.827   6.406   3.300
54268W        W22741  40.547  24.575   3.809
54269W        W22742  13.265   1.319  10.614
54270W        W22743   9.846  28.565  14.394
54271W        W22744  21.151  14.255  13.058
54272W        W22745  24.579  39.350  10.897
54273W        W22746  29.991  37.956  12.911
54274W        W22747  34.540  35.433  12.420
54275W        W22748  10.358  18.206   5.136
54276W        W22749  36.962  15.179  12.917
54277W        W22750  32.470   3.391   0.928
54278W        W22751  25.584  23.051   3.289
54279W        W22752   8.856  28.520   4.737
54280W        W22753  41.335  22.583  11.496
54281W        W22754  14.810  44.817   4.750
54282W        W22755  17.649  15.268   1.914
54283W        W22756  43.011  29.121   4.137
54284W        W22757  39.992  41.814  11.437
54285W        W22758  17.300  12.139   3.304
54286W        W22759  22.080   2.471   1.376
54287W        W22760  38.515  40.469  12.445
54288W        W22761  14.769  15.772   4.149
54289W        W22762  10.225   8.735   2.799
54290W        W22763  27.675  33.473  13.368
54291W        W22764   0.941  37.425  13.907
54292W        W22765  13.703  23.021   1.822
54293W        W22766  44.779  13.235  10.915
54294W        W22767  19.575  11.641  13.496
54295W        W22768   3.378  12.688  10.408
54296W        W22769  33.980  44.801  11.552
54297W        W22770  29.521   5.895  11.517
54298W        W22771  37.942   1.332   3.659
54299W        W22772  34.943  41.454  10.078
54300W        W22773  20.218  28.564   0.266
54301W        W22774  14.188  16.233   2.771
54302W        W22775   6.718  25.582   3.257
54303W        W22776  12.333  10.673  13.025
54304W        W22777   3.306   6.707  11.869
54305W        W22778   5.893  37.529  12.011
54306W        W22779  17.708  40.527  14.417
54307W        W22780  32.612  10.166  12.356
54308W        W22781  39.862   6.718  11.599
54309W        W22782   2.460  29.936   0.763
54310W        W22783   3.359  44.776   1.886
54311W        W22784  38.917  11.690  12.950
54312W        W22785  29.435  15.802  11.080
54313W        W22786  20.223  19.729   4.714
54314W        W22787   7.788  32.518  10.538
54315W        W22788   9.162  13.782  10.925
54316W        W22789  38.488  12.761   3.286
54317W        W22790  30.560  10.351  13.889
54318W        W22791  19.046  32.578  14.309
54319W        W22792   6.206  36.368   1.741
54320W        W22793  14.238   6.413   2.286
54321W        W22794  22.181  21.052   2.840
54322W        W22795   6.232  26.698   4.294
54323W        W22796  24.062   0.793  12.838
54324W        W22797  10.876  38.394   2.230
54325W        W22798   3.775  44.367   3.174
54326W        W22799  39.514  40.882  14.815
54327W        W22800  42.937  42.466  13.046
54328W        W22801   8.295  43.464   1.249
54329W        W22802   9.879   8.885  10.895
54330W        W22803   7.311  22.183   4.189
54331W        W22804  43.459   6.394   3.844
54332W        W22805  30.516   4.860   4.781
54333W        W22806  10.250  20.214   1.385
54334W        W22807  18.599   8.763  12.852
54335W        W22808   7.240  31.902  14.511
54336W        W22809  18.107  15.809  12.954
54337W        W22810  29.557  14.759  12.482
54338W        W22811  35.375  33.955  13.975
54339W        W22812  17.665  27.069   4.697
54340W        W22813  43.336   0.902  14.842
54341W        W22814   1.262  31.521  11.917
54342W        W22815  16.590  31.545  10.637
54343W        W22816  44.466  23.136  11.061
54344W        W22817  31.453  34.523   2.725
54345W        W22818   7.176  26.021   0.953
54346W        W22819  18.148  40.401   0.384
54347W        W22820  36.083   2.865   3.859
54348W        W22821   3.261   6.722  12.482
54349W        W22822  25.133   2.813  12.357
54350W        W22823  11.225  26.168  10.954
54351W        W22824  27.649  38.833  12.520
54352W        W22825   5.404  26.136  14.011
54353W        W22826  41.380  11.754  14.023
54354W        W22827  12.762  10.834   1.875
54355W        W22828  20.095   1.426  13.899
54356W        W22829  25.968  20.268  13.361
54357W        W22830  29.576  40.812   2.690
54358W        W22831   2.429  38.994  14.424
54359W        W22832  34.057  35.898  11.921
54360W        W22833  27.445  27.488  12.369
54361W        W22834  25.609  18.769   0.914
54362W        W22835  36.528  19.580  14.956
54363W        W22836   7.284  13.846   0.432
54364W        W22837  28.022  10.797  11.504
54365W        W22838  20.075  27.589   0.388
54366W        W22839   0.892  13.636   3.711
54367W        W22840  33.055  41.033  10.915
54368W        W22841  22.532   1.352  14.390
54369W        W22842  35.978  24.714  10.892
54370W        W22843   1.738  36.356   4.628
54371W        W22844  25.701  42.965   4.760
54372W        W22845  18.088  14.594   1.296
54373W        W22846  18.147  38.498  10.987
54374W        W22847  38.416  19.673  11.515
54375W        W22848  35.429   6.368  14.967
54376W        W22849  39.377  16.585   3.766
54377W        W22850  34.544  44.441  12.868
54378W        W22851  27.082  43.774   5.696
54379W        W22852   3.804  20.545  13.892
54380W        W22853  22.742  26.460  11.596
54381W        W22854  17.613  34.494   3.339
54382W        W22855  22.650   4.909  10.434
54383W        W22856  41.951   7.281   3.270
54384W        W22857  24.713   2.461   0.392
54385W        W22858  10.749  42.293   0.781
54386W        W22859  35.882   3.820  13.954
54387W        W22860  39.427  17.290  14.968
54388W        W22861   3.825  25.125   3.303
54389W        W22862  13.184  29.941   2.413
54390W        W22863  29.972   3.917   1.424
54391W        W22864  21.164  31.474  10.930
54392W        W22865  24.140   5.852  14.361
54393W        W22866  28.580  21.665   1.392
54394W        W22867  19.215  40.969   1.880
54395W        W22868  44.361  25.057   1.828
54396W        W22869  10.760   5.384   4.728
54397W        W22870  34.434  40.336  12.397
54398W        W22871  15.120   1.318   4.162
54399W        W22872  17.268  15.097   1.384
54400W        W22873  10.216  35.994   4.722
54401W        W22874  30.499  43.458   3.265
54402W        W22875  29.488  13.605   4.268
54403W        W22876  35.933  28.547  11.068
54404W        W22877  10.777  12.784   3.836
54405W        W22878  42.326  35.096  10.983
54406W        W22879  14.315  24.229  12.068
54407W        W22880   1.741  37.014  14.463
54408W        W22881   9.224  20.643   2.774
54409W        W22882  44.795  14.802  10.594
54410W        W22883  38.944  43.397   2.816
54411W        W22884   3.354   1.327   4.690
54412W        W22885   6.804  37.001  10.967
54413W        W22886   3.375  36.517  10.564
54414W        W22887  40.893   1.398  12.864
54415W        W22888   5.257  19.046   2.398
54416W        W22889   9.243  43.992   4.319
54417W        W22890   8.203  30.628   3.663
54418W        W22891  43.286  25.541  12.863
54419W        W22892  28.519  32.053  13.040
54420W        W22893  38.545  17.241  14.335
54421W        W22894  37.037   0.882   0.380
54422W        W22895   1.855  23.210  12.094
54423W        W22896  25.194   1.893  11.940
54424W        W22897  14.634  40.506  10.150
54425W        W22898  25.490  11.313  14.358
54426W        W22899  35.435  28.540   4.717
54427W        W22900  13.291  22.627  10.547
54428W        W22901  31.595  27.049   2.721
54429W        W22902  33.388  43.857  10.020
54430W        W22903  28.510  19.709   5.083
54431W        W22904  34.045  20.187   4.641
54432W        W22905  14.620   3.313  14.862
54433W        W22906  41.413  35.852  13.914
54434W        W22907  17.738  14.649  12.526
54435W        W22908  12.826  33.464  10.573
54436W        W22909  18.627  28.971  10.918
54437W        W22910  43.771  12.697   2.897
54438W        W22911  29.624  33.105   0.405
54439W        W22912  17.164   9.218  10.513
54440W        W22913  25.588   0.274  11.556
54441W        W22914   9.380  32.591   1.395
54442W        W22915  39.468  19.671   0.275
54443W        W22916  12.623   3.396  14.415
54444W        W22917   2.347  19.227   3.639
54445W        W22918  17.278  38.421  13.358
54446W        W22919  38.963  12.138  12.463
54447W        W22920  11.629  30.428   3.223
54448W        W22921  23.553  33.615  11.025
54449W        W22922  14.108   7.851   0.894
54450W        W22923   4.329  13.723   5.196
54451W        W22924  28.488  34.980  10.551
54452W        W22925  43.286  24.660  12.533
54453W        W22926  11.825  41.300  12.561
54454W        W22927  37.373   1.755  11.978
54455W        W22928   9.701  31.023   1.703
54456W        W22929  38.532  39.927   4.177
54457W        W22930  32.922  11.221   2.693
54458W        W22931  24.996  28.593   4.269
54459W        W22932  27.614  22.658   3.298
54460W        W22933  29.504  26.524   2.702
54461W        W22934  24.567   0.393   0.894
54462W        W22935  41.388  19.720   0.845
54463W        W22936  33.924  19.679   1.272
54464W        W22937  40.406   9.672  14.469
54465W        W22938  23.546  13.252  13.501
54466W        W22939  38.057  38.399  10.900
54467W        W22940  37.370  23.172   4.637
54468W        W22941  41.812  21.686  14.503
54469W        W22942   2.312   6.846  12.948
54470W        W22943   1.764  16.755   4.282
54471W        W22944  29.120  34.534  12.496
54472W        W22945  24.606   4.887  12.945
54473W        W22946  13.804  24.214   3.757
54474W        W22947   6.317  33.975  12.874
54475W        W22948  41.415  12.179  11.609
54476W        W22949  41.302   0.306  10.599
54477W        W22950  41.989  20.619  12.375
54478W        W22951  30.622   7.764   0.402
54479W        W22952   9.180  42.353   2.335
54480W        W22953  28.937  28.010   4.215
54481W        W22954   6.850  40.358  14.782
54482W        W22955  34.078  42.905   9.935
54483W        W22956  43.415   3.853   3.227
54484W        W22957  28.150   4.916  10.523
54485W        W22958  24.631  20.693  14.862
54486W        W22959   5.869  25.475  12.555
54487W        W22960  38.331  26.174   2.302
54488W        W22961  15.297  24.613  13.429
54489W        W22962   8.873   4.718   2.413
54490W        W22963  21.556  23.710   3.147
54491W        W22964  15.614  40.865  10.956
54492W        W22965  13.177   5.791  11.569
54493W        W22966  31.110  26.140  13.974
54494W        W22967  39.984   0.987   3.177
54495W        W22968  28.094  34.565   4.231
54496W        W22969  16.736  22.032  12.029
54497W        W22970  32.124  17.728   1.908
54498W        W22971  24.658   8.692  13.939
54499W        W22972   8.316   6.358  13.902
54500W        W22973  36.364  33.531   4.125
54501W        W22974  34.964   0.956   1.305
54502W        W22975  37.908  28.530  12.554
54503W        W22976  35.396   1.976  11.580
54504W        W22977   7.368   2.963   2.826
54505W        W22978  19.645  31.085  11.384
54506W        W22979  25.688  41.799   0.925
54507W        W22980  29.164  32.600  14.499
54508W        W22981  17.292  31.613  11.870
54509W        W22982  36.556   1.423   1.428
54510W        W22983  20.192  22.543  10.121
54511W        W22984  20.697  11.220   1.874
54512W        W22985   9.885  11.267  12.920
54513W        W22986  16.229  20.046   2.820
54514W        W22987  20.218  32.422   4.147
54515W        W22988  10.662  25.963   0.252
54516W        W22989  27.103   4.699  14.009
54517W        W22990   4.413   7.826   0.902
54518W        W22991  19.043  42.298   4.242
54519W        W22992   7.357  42.368  12.045
54520W        W22993  23.724  43.427   0.740
54521W        W22994  15.323  15.601   0.477
54522W        W22995  20.057  19.776   0.783
54523W        W22996  16.253  10.787  13.838
54524W        W22997  39.041  21.162   3.347
54525W        W22998  41.529  39.839   0.463
54526W        W22999  35.104  25.014  14.468
54527W        W23000  40.356  27.682  12.912
54528W        W23001  15.797  33.897  12.029
54529W        W23002   5.692  37.432   3.344
54530W        W23003  36.054   7.249   4.275
54531W        W23004  10.763  17.754   4.186
54532W        W23005   2.907   5.431  10.615
54533W        W23006  11.182  39.529  13.385
54534W        W23007  21.706   2.790   3.350
54535W        W23008   4.217  12.163   1.385
54536W        W23009  41.895   2.289   3.324
54537W        W23010   5.790  15.755   9.496
54538W        W23011   0.917   3.251   2.286
54539W        W23012   0.869  11.347  13.996
54540W        W23013  11.762  16.232  11.021
54541W        W23014  36.881  13.182  14.834
54542W        W23015  25.177  13.681   4.773
54543W        W23016  15.777  25.103   0.924
54544W        W23017  23.016   3.367  14.868
54545W        W23018  37.467  40.049   2.728
54546W        W23019  25.512   8.387   4.691
54547W        W23020  39.480  10.811  11.864
54548W        W23021  30.941  29.436   1.363
54549W        W23022  33.076  42.905  12.022
54550W        W23023  12.227  42.875  13.806
54551W        W23024  11.129   2.879   0.957
54552W        W23025  14.631  26.460   0.935
54553W        W23026  35.012  24.990   3.196
54554W        W23027  11.198  36.959   1.696
54555W        W23028  17.653  39.872   0.861
54556W        W23029  11.218  33.118  13.466
54557W        W23030   8.892   0.279   1.315
54558W        W23031  23.116  35.917  14.003
54559W        W23032  42.415  19.738  14.032
54560W        W23033   1.860  28.159   1.317
54561W        W23034  19.700  10.354  11.546
54562W        W23035  15.218   9.195   1.329
54563W        W23036  14.639  15.781  11.512
54564W        W23037  42.882  19.131  14.819
54565W        W23038   6.786  28.167   2.769
54566W        W23039  25.705  13.779   4.278
54567W        W23040   4.915   8.700  11.970
54568W        W23041  36.489  37.943  11.467
54569W        W23042  40.968  12.197   4.669
54570W        W23043  17.079   0.937   0.283
54571W        W23044  22.555  37.506  13.489
54572W        W23045  25.139  14.238   3.631
54573W        W23046  39.400  25.164   4.326
54574W        W23047  19.779  42.433   0.952
54575W        W23048   4.223  28.504  13.921
54576W        W23049  16.732  26.654  14.807
54577W        W23050  39.332   5.785  14.929
54578W        W23051  33.586  43.917  11.415
54579W        W23052  21.198  11.146  12.882
54580W        W23053   4.763  17.096   0.727
54581W        W23054   9.861  11.188   4.247
54582W        W23055   6.390  24.650  10.505
54583W        W23056  44.352  19.725  13.944
54584W        W23057  16.813  37.392   3.649
54585W        W23058  39.459  23.024  10.972
54586W        W23059  12.136  43.010  10.104
54587W        W23060  25.207  32.988   4.322
54588W        W23061  20.157  19.569  13.359
54589W        W23062  13.635  38.914  10.410
54590W        W23063  27.549  38.838   4.185
54591W        W23064   1.398  29.530  11.998
54592W        W23065   3.242  24.510  12.380
54593W        W23066   6.886  26.623   2.691
54594W        W23067   2.391  42.286   3.789
54595W        W23068  34.565  18.787   1.707
54596W        W23069  43.904  30.121   3.659
54597W        W23070  35.465  37.988   3.664
54598W        W23071   5.706  18.739  11.463
54599W        W23072   8.221  14.205   0.847
54600W        W23073  34.063  29.651  11.993
54601W        W23074   4.288   6.901   4.234
54602W        W23075  44.358  17.177  13.004
54603W        W23076  32.001  21.530  10.435
54604W        W23077  28.561  17.271   0.783
54605W        W23078  16.651  37.939   1.889
54606W        W23079  21.062  39.384  12.476
54607W        W23080   1.426  15.166   1.779
54608W        W23081  35.045  33.919  13.312
54609W        W23082  33.558  26.570  13.331
54610W        W23083  30.539  15.141  10.462
54611W        W23084  23.176  23.620   2.824
54612W        W23085  36.441  14.256  11.897
54613W        W23086   6.192  43.465  12.394
54614W        W23087  15.627  38.070  14.810
54615W        W23088  19.278   1.305   1.413
54616W        W23089  43.010  23.157  10.942
54617W        W23090  18.101   7.729   0.835
54618W        W23091  11.198   0.932  11.050
54619W        W23092  16.586  22.128  14.394
54620W        W23093  29.450  18.625   3.291
54621W        W23094  30.141  40.904   1.356
54622W        W23095   7.696  22.142  13.829
54623W        W23096   6.339   4.404   9.652
54624W        W23097  38.498  15.748  14.004
54625W        W23098  16.259  32.065   3.265
54626W        W23099  37.060  20.070  12.962
54627W        W23100  15.184  35.101   4.625
54628W        W23101   6.913  21.159   1.803
54629W        W23102  33.526  25.588   4.268
54630W        W23103   5.725   8.813  10.568
54631W        W23104  21.597  14.170   4.217
54632W        W23105  26.471  14.687  13.500
54633W        W23106  21.146  40.828  13.356
54634W        W23107   9.717   4.787  11.978
54635W        W23108   1.475   8.256  10.609
54636W        W23109   1.800  38.567   4.723
54637W        W23110  22.140  10.284   3.636
54638W        W23111  38.014  21.573   4.276
54639W        W23112  35.001  42.875  13.334
54640W        W23113  33.900  13.234   2.707
54641W        W23114  28.664   2.953  13.533
54642W        W23115  33.429  26.648  14.817
54643W        W23116  37.552  12.856  11.120
54644W        W23117  20.671  21.639  12.428
54645W        W23118  33.908  33.033   2.328
54646W        W23119  38.974   4.710  10.097
54647W        W23120   7.816  13.272  11.387
54648W        W23121  20.182  22.653  11.872
54649W        W23122  39.889  32.060   3.801
54650W        W23123  18.066   1.239  12.478
54651W        W23124  28.081  21.730   1.420
54652W        W23125   8.824  16.263   2.754
54653W        W23126  34.501  15.325   0.456
54654W        W23127   8.189  17.253   0.443
54655W        W23128  31.037  17.191   1.921
54656W        W23129  33.492  29.453   5.183
54657W        W23130  35.432  42.872  11.041
54658W        W23131   9.380  35.376  10.484
54659W        W23132  30.610  35.055   4.262
54660W        W23133   9.333   4.233  11.489
54661W        W23134  17.570  23.572   0.726
54662W        W23135  12.644   0.381  10.977
54663W        W23136   6.324  39.969   0.417
54664W        W23137  38.332   3.903   4.612
54665W        W23138  41.024  14.185  11.024
54666W        W23139  30.606  30.910  14.787
54667W        W23140  31.410  39.376   3.196
54668W        W23141  38.481   2.787   2.317
54669W        W23142  13.282  37.003  13.018
54670W        W23143  24.715  37.923  10.966
54671W        W23144  11.791  39.472  12.506
54672W        W23145  15.701  35.101  11.426
54673W        W23146  34.984  28.183   5.289
54674W        W23147  12.274   4.324  14.316
54675W        W23148  15.163  40.942   2.179
54676W        W23149  39.526  42.367  14.908
54677W        W23150  17.222  33.508   0.768
54678W        W23151  27.975  31.102   2.342
54679W        W23152  33.056   9.774  12.539
54680W        W23153  31.591  17.282  13.365
54681W        W23154  35.420   3.231   0.474
54682W        W23155   4.904  26.553   2.851
54683W        W23156  21.245  43.966  11.473
54684W        W23157  33.496  44.861   1.389
54685W        W23158   9.822  25.467   3.653
54686W        W23159   2.764   2.344   2.672
54687W        W23160   3.900  24.210   3.232
54688W        W23161   6.685  40.042   2.201
54689W        W23162  12.360   3.423  14.820
54690W        W23163  29.999  42.946  13.027
54691W        W23164  39.346  14.171  10.922
54692W        W23165   7.363  28.466  14.899
54693W        W23166  40.302   5.712   0.360
54694W        W23167  28.163  20.752  13.801
54695W        W23168   4.710  11.199   0.368
54696W        W23169  14.273  23.002  14.760
54697W        W23170  36.022  15.597  14.328
54698W        W23171  28.586  19.093  12.476
54699W        W23172  27.655  19.044   3.158
54700W        W23173  20.769  38.420  12.464
54701W        W23174  22.014  27.150   3.341
54702W        W23175  11.713  35.871   2.759
54703W        W23176  22.723  36.999  14.773
54704W        W23177  38.493  42.787  14.296
54705W        W23178  28.974  17.257   1.314
54706W        W23179  12.263   4.278  11.032
54707W        W23180  17.168  37.882   0.441
54708W        W23181   8.262  15.798  14.011
54709W        W23182  38.337  41.332   4.838
54710W        W23183  20.528  15.644   3.735
54711W        W23184  22.245  40.798  11.062
54712W        W23185  34.516   7.873   1.909
54713W        W23186   7.218  36.932  10.984
54714W        W23187  21.517  37.582   0.932
54715W        W23188  30.530   6.310   1.330
54716W        W23189   0.877   8.814  11.895
54717W        W23190   4.737  25.141   1.325
54718W        W23191   2.448  22.205  14.905
54719W        W23192  30.042   4.734   3.763
54720W        W23193  17.203  33.962  14.766
54721W        W23194  20.115  27.633  10.970
54722W        W23195  17.295  25.641  11.012
54723W        W23196  34.582  21.615  13.322
54724W        W23197  21.692  27.556  14.334
54725W        W23198  26.489   3.953  11.424
54726W        W23199  16.304  21.673   2.324
54727W        W23200  15.284   0.768  11.077
54728W        W23201  31.594  27.664   1.710
54729W        W23202  34.612  15.631   0.343
54730W        W23203  10.664  15.112   4.775
54731W        W23204  28.490  12.734   3.707
54732W        W23205  27.018  16.073  13.370
54733W        W23206  40.441  17.711   2.683
54734W        W23207  24.482  34.599  14.330
54735W        W23208  41.451  32.971   2.342
54736W        W23209  34.534  34.113  12.953
54737W        W23210  26.973  41.507   4.198
54738W        W23211  11.652  12.120  11.986
54739W        W23212  26.623  11.727  13.508
54740W        W23213   9.372  33.998  14.827
54741W        W23214  16.130  42.978  13.420
54742W        W23215  31.087   2.930   0.292
54743W        W23216  26.586   4.340  11.524
54744W        W23217  13.837  13.262   3.844
54745W        W23218   3.814  43.967  13.454
54746W        W23219  16.703   9.885  13.492
54747W        W23220  18.721   9.802  13.433
54748W        W23221  23.561  13.734  11.527
54749W        W23222  44.772   5.402   4.647
54750W        W23223  19.061  18.680  13.873
54751W        W23224  29.509   0.888   5.275
54752W        W23225  30.528  35.496  10.994
54753W        W23226  19.583  15.705  13.355
54754W        W23227  44.283  15.810  10.099
54755W        W23228   3.916  32.571  12.451
54756W        W23229  22.169   4.254  13.025
54757W        W23230  11.345  26.630   1.889
54758W        W23231  27.575  32.011   3.259
54759W        W23232  21.223  24.697   3.335
54760W        W23233  10.191  35.539   0.961
54761W        W23234  22.684  16.617   4.219
54762W        W23235  21.553  36.372   4.124
54763W        W23236   9.272   4.776  10.442
54764W        W23237   6.221  34.372  13.414
54765W        W23238  13.313  33.018   3.217
54766W        W23239  11.853   3.815  10.582
54767W        W23240  34.461   4.720   2.676
54768W        W23241   5.699  43.004   1.708
54769W        W23242  25.479  10.355  10.980
54770W        W23243  10.647   6.254  10.633
54771W        W23244  16.706   1.876  11.584
54772W        W23245  35.939  44.759   4.296
54773W        W23246   0.308  30.535  12.548
54774W        W23247  12.353  22.219  12.952
54775W        W23248   7.767  41.963   3.793
54776W        W23249  23.014  38.362  10.605
54777W        W23250  37.398  30.447   9.948
54778W        W23251  38.827  29.012  13.968
54779W        W23252  24.655   9.239   0.781
54780W        W23253  18.790  28.609   4.823
54781W        W23254  15.653  16.224   1.699
54782W        W23255   5.889  10.776   0.782
54783W        W23256  28.026  26.541  13.905
54784W        W23257  12.259  42.414   4.828
54785W        W23258  44.953  30.456  14.430
54786W        W23259  11.262  29.012  12.852
54787W        W23260   5.733  28.939   0.443
54788W        W23261  31.045  23.628   4.200
54789W        W23262  13.260  44.339  13.859
54790W        W23263  43.396   9.813  14.341
54791W        W23264  43.930  36.887  11.074
54792W        W23265   6.884  24.209   4.650
54793W        W23266   3.332  32.893   4.609
54794W        W23267  21.098   0.342   5.124
54795W        W23268  10.338  12.197   1.312
54796W        W23269  39.476  28.084  13.437
54797W        W23270  20.238  18.085  12.350
54798W        W23271  41.428   3.939  12.351
54799W        W23272  33.078  25.159  10.064
54800W        W23273   2.920  43.890  11.897
54801W        W23274  27.493  23.651   0.909
54802W        W23275  37.001  25.543  12.042
54803W        W23276  31.092  19.218   0.351
54804W        W23277   1.844  25.189  14.482
54805W        W23278   1.734   0.397  14.473
54806W        W23279  23.606  10.856   2.730
54807W        W23280  20.717  44.936   1.405
54808W        W23281  10.658  41.900  13.950
54809W        W23282  14.120  13.625   0.386
54810W        W23283  16.743  41.853  14.915
54811W        W23284  17.802  29.093   1.358
54812W        W23285  42.917  12.323  11.408
54813W        W23286  42.791   5.897  14.851
54814W        W23287  41.915   5.205   0.425
54815W        W23288  35.031   5.824  12.399
54816W        W23289  26.041  10.862  12.880
54817W        W23290  30.071  42.943  13.493
54818W        W23291  29.077  42.884   2.341
54819W        W23292  14.218  33.909  14.487
54820W        W23293  19.116  22.099  12.825
54821W        W23294  31.645  35.407  13.318
54822W        W23295  44.264  37.412  13.348
54823W        W23296   0.798  19.588   3.281
54824W        W23297  17.778  22.663  10.503
54825W        W23298   5.356  40.961  13.447
54826W        W23299  33.034   2.407   1.928
54827W        W23300  26.037  19.579   4.309
54828W        W23301  21.554  29.935  11.082
54829W        W23302  43.368  21.151   4.117
54830W        W23303  22.227   1.380   2.361
54831W        W23304   0.747   4.220  13.852
54832W        W23305  14.623   6.717  10.432
54833W        W23306  38.561  28.657  11.393
54834W        W23307   5.382  26.027   4.813
54835W        W23308  26.147  14.142  13.795
54836W        W23309  36.591  26.018  10.950
54837W        W23310  28.660   3.767  14.406
54838W        W23311  26.480  21.525   1.405
54839W        W23312  32.023  32.500   0.766
54840W        W23313  11.187  12.736   4.327
54841W        W23314  36.842  21.040  13.051
54842W        W23315  18.619  33.445   3.724
54843W        W23316  42.885  31.520  12.916
54844W        W23317   0.966  37.833  11.376
54845W        W23318  18.106  27.668   4.139
54846W        W23319   1.936  25.157  14.957
54847W        W23320  24.627  24.592  12.465
54848W        W23321  11.299  42.291  11.983
54849W        W23322  39.334  31.059  11.942
54850W        W23323  24.637  27.465  12.407
54851W        W23324  30.584  44.883  13.429
54852W        W23325  41.824  30.124   1.384
54853W        W23326  16.776   8.733  12.924
54854W        W23327  12.799  41.816  11.024
54855W        W23328  32.531  38.922  12.458
54856W        W23329  33.513  15.671  10.600
54857W        W23330  24.528  38.569  12.364
54858W        W23331  23.682   0.844  12.866
54859W        W23332  23.085  17.075   1.325
54860W        W23333  14.748  34.071  14.482
54861W        W23334   0.960  23.063  12.018
54862W        W23335  40.994  30.518   3.747
54863W        W23336  41.947   5.865   2.228
54864W        W23337   3.231  15.114   3.710
54865W        W23338   3.949   7.210  12.831
54866W        W23339  31.488  25.978  10.026
54867W        W23340  15.208   9.311  13.321
54868W        W23341  26.090  34.449  13.831
54869W        W23342   5.355  17.581   0.907
54870W        W23343  23.126  13.325   1.444
54871W        W23344  37.900  17.133  14.362
54872W        W23345  17.782  34.462  10.448
54873W        W23346  20.539  27.091  12.539
54874W        W23347  43.438  29.503  13.435
54875W        W23348  12.623  24.654  14.848
54876W        W23349  27.037  29.065   2.286
54877W        W23350  34.909  12.789  11.873
54878W        W23351   0.359  20.733  13.476
54879W        W23352  20.178  30.490   3.303
54880W        W23353  26.644  30.912   1.322
54881W        W23354  38.056   4.749  11.962
54882W        W23355  17.715  44.478   0.931
54883W        W23356  15.701  26.058   2.672
54884W        W23357  34.952   3.874   0.838
54885W        W23358  31.625  13.603   4.771
54886W        W23359  22.504  39.992   1.828
54887W        W23360  21.076  12.723   1.422
54888W        W23361   1.273   3.215  13.869
54889W        W23362  44.963  33.626   0.401
54890W        W23363  14.210  10.151   4.114
54891W        W23364   2.249  17.071  11.591
54892W        W23365  34.595  21.054  11.109
54893W        W23366  20.753   3.245  11.090
54894W        W23367  29.569  43.850  11.871
54895W        W23368  20.585  43.491  12.078
54896W        W23369   5.350  39.393  12.875
54897W        W23370  14.799  14.596  10.917
54898W        W23371  38.420  26.972  10.941
54899W        W23372  18.081  18.578   0.759
54900W        W23373  30.596  41.892   1.305
54901W        W23374  39.547   0.865   4.155
54902W        W23375  40.470  39.459  13.309
54903W        W23376  37.884   9.162  11.889
54904W        W23377   7.342  42.520  12.448
54905W        W23378  22.640  35.019  10.026
54906W        W23379  38.842  38.426   0.376
54907W        W23380   8.714  19.191  14.819
54908W        W23381  24.032   9.721   1.387
54909W        W23382  31.622  35.513   4.679
54910W        W23383  21.515  22.151   2.672
54911W        W23384  40.351  18.108  12.910
54912W        W23385  42.512  22.561  11.569
54913W        W23386   8.700  10.703   3.822
54914W        W23387  31.920  14.293  11.953
54915W        W23388  13.218  35.373   2.281
54916W        W23389  39.856  37.546  10.570
54917W        W23390  31.049  43.414  10.903
54918W        W23391  21.753  22.008   1.279
54919W        W23392  40.547   8.359   0.744
54920W        W23393   0.343  30.089  11.520
54921W        W23394  31.086  34.083   0.363
54922W        W23395  18.695  14.331  11.565
54923W        W23396   1.367  12.812   1.813
54924W        W23397  43.446  39.448  13.546
54925W        W23398  29.449  31.610   0.368
54926W        W23399  24.528   0.880   0.807
54927W        W23400  14.182  41.983   0.336
54928W        W23401  38.484   7.238  13.827
54929W        W23402  39.329  21.204  14.972
54930W        W23403  33.054  23.054   2.786
54931W        W23404  13.182  40.542   0.308
54932W        W23405  27.637   5.360   3.206
54933W        W23406  28.030  17.580  11.379
54934W        W23407   1.334   0.376  12.001
54935W        W23408  38.963  40.842   3.695
54936W        W23409  37.873  18.258   1.342
54937W        W23410  11.297   4.765  12.977
54938W        W23411  32.422  39.359   1.794
54939W        W23412  34.890  11.856   1.770
54940W        W23413  41.843   3.372   3.191
54941W        W23414   5.434  37.862   2.411
54942W        W23415  10.201  35.863  11.384
54943W        W23416  28.538   9.167  10.603
54944W        W23417  33.584  29.159   3.318
54945W        W23418  19.763   5.304  12.884
54946W        W23419   1.778  37.450   3.313
54947W        W23420  24.061  11.192   3.699
54948W        W23421  38.852   9.330   2.826
54949W        W23422  28.572  30.945   2.841
54950W        W23423  17.774  37.569   3.760
54951W        W23424   4.833   3.930  12.020
54952W        W23425  21.109  19.618  14.489
54953W        W23426   3.905   0.425  12.551
54954W        W23427  30.051  36.862   3.857
54955W        W23428  10.646   0.355  14.334
54956W        W23429  35.978  22.103   4.803
54957W        W23430  33.035  30.014  12.414
54958W        W23431  15.186  24.188   3.245
54959W        W23432  16.589  31.557   4.188
54960W        W23433  33.384  12.308  10.479
54961W        W23434  38.853   1.871   4.650
54962W        W23435  42.356  37.051  11.429
54963W        W23436   0.960  17.787  10.970
54964W        W23437   4.827  17.589   4.351
54965W        W23438  23.672  32.997   2.753
54966W        W23439  42.289  43.850  13.401
54967W        W23440  13.189  15.157  14.847
54968W        W23441  23.689  23.188   1.895
54969W        W23442   1.772  34.529  11.972
54970W        W23443  43.939  12.737  14.931
54971W        W23444  30.112  26.069   3.372
54972W        W23445  26.666  12.276   1.280
54973W        W23446  39.547  21.696  10.914
54974W        W23447  34.090  33.517   4.235
54975W        W23448  30.133   3.740   0.873
54976W        W23449  24.517  37.874  11.859
54977W        W23450  28.517  31.970  11.036
54978W        W23451  28.634  27.948  12.861
54979W        W23452  14.691  24.112  12.960
54980W        W23453   5.407  12.732   0.297
54981W        W23454  11.286  13.735   0.897
54982W        W23455  12.794   8.351   3.663
54983W        W23456  20.672   0.757  11.048
54984W        W23457  42.870  11.345   2.211
54985W        W23458  27.530  19.060  12.363
54986W        W23459   9.709  39.842   0.822
54987W        W23460  14.824  41.381   5.187
54988W        W23461  41.911  27.613  11.402
54989W        W23462  33.986  32.117  12.402
54990W        W23463  31.428  14.737  12.527
54991W        W23464  13.214  40.405   3.645
54992W        W23465  36.083   1.323  11.594
54993W        W23466  32.081   2.949  13.954
54994W        W23467  16.751  22.234  14.893
54995W        W23468  36.486  27.511   3.738
54996W        W23469  17.193  10.720   2.361
54997W        W23470  22.046  37.880   0.348
54998W        W23471   3.400  41.456   0.474
54999W        W23472  10.177  25.103   5.626
55000W        W23473  16.733  41.327  14.343
55001W        W23474  35.518  39.939  13.878
55002W        W23475  29.438   6.342   2.391
55003W        W23476  18.586  12.290   2.395
55004W        W23477  31.482  35.930   4.764
55005W        W23478  37.877  39.476   3.677
55006W        W23479  32.003  33.530   2.844
55007W        W23480  32.628  40.932   5.236
55008W        W23481  33.940  24.628  12.854
55009W        W23482  22.246  29.955  10.576
55010W        W23483  40.524  42.936  12.456
55011W        W23484  40.365  13.631   4.294
55012W        W23485   7.203  30.498   2.848
55013W        W23486  41.349   9.842   0.773
55014W        W23487  12.653  42.777   1.238
55015W        W23488  18.726  33.602  13.043
55016W        W23489   9.748   2.942   0.824
55017W        W23490  14.190  42.018   3.646
55018W        W23491   5.838   6.257  12.830
55019W        W23492  20.531  22.734   3.214
55020W        W23493  27.150  43.395  11.014
55021W        W23494  34.381  15.749  12.074
55022W        W23495  28.543  26.499  12.453
55023W        W23496  31.092   0.461   0.939
55024W        W23497  10.258  21.733  13.038
55025W        W23498  33.876  19.252   1.430
55026W        W23499   7.865   4.289   3.835
55027W        W23500  17.661  38.962  14.393
55028W        W23501   6.269  37.968  10.553
55029W        W23502   7.213  37.470  14.360
55030W        W23503  39.894  34.496  14.912
55031W        W23504   5.245  16.290  13.460
55032W        W23505  13.758   4.332  14.427
55033W        W23506  42.026   1.439   0.883
55034W        W23507   3.729  42.512  11.421
55035W        W23508  29.509  43.914  14.822
55036W        W23509  22.549  28.133   5.649
55037W        W23510  21.025  10.169   5.308
55038W        W23511   8.200  19.713   3.224
55039W        W23512   1.318   0.398  13.869
55040W        W23513  29.625   1.759   1.283
55041W        W23514  17.798  35.925  13.441
55042W        W23515   7.375  39.478  11.089
55043W        W23516  37.896   7.741  10.636
55044W        W23517  42.526  24.617  11.026
55045W        W23518  35.968  37.050  12.519
55046W        W23519   3.826  22.178   3.813
55047W        W23520  31.489  29.920  14.002
55048W        W23521   9.154  21.719  10.910
55049W        W23522  21.615  33.436  12.435
55050W        W23523  40.875  41.026   4.256
55051W        W23524  19.102  21.624  13.007
55052W        W23525   5.305   9.722  14.784
55053W        W23526  12.326  29.661  13.060
55054W        W23527   9.266   1.752   2.267
55055W        W23528  11.755  34.039   4.222
55056W        W23529  11.642  34.494  12.876
55057W        W23530   2.461  27.635   2.701
55058W        W23531  37.454  33.426   1.800
55059W        W23532  15.615  40.909   5.120
55060W        W23533  42.419  28.534  14.962
55061W        W23534   6.890   3.835   2.691
55062W        W23535  43.926  44.403  14.978
55063W        W23536  34.516  39.874  11.098
55064W        W23537  33.025  18.129  12.837
55065W        W23538  21.201  31.621  12.922
55066W        W23539   7.725  25.600   0.932
55067W        W23540  15.250  11.328   3.296
55068W        W23541  13.132  38.491   3.844
55069W        W23542  11.705  35.552   1.818
55070W        W23543  23.553  36.464   0.938
55071W        W23544  31.117  28.630   4.191
55072W        W23545  23.095  37.012  13.372
55073W        W23546  40.978  26.694   0.401
55074W        W23547   5.855   7.892   1.872
55075W        W23548   8.837   7.900   3.308
55076W        W23549   9.688  33.508  13.003
55077W        W23550   7.320  44.884  11.106
55078W        W23551  12.681  18.595  14.895
55079W        W23552  34.047  30.526  14.900
55080W        W23553   1.371  31.442   3.338
55081W        W23554   1.889  14.726   5.088
55082W        W23555   7.249   2.334   1.319
55083W        W23556  13.115  39.966  13.396
55084W        W23557  28.026   8.295   4.790
55085W        W23558  40.901  19.647   0.901
55086W        W23559  34.028  35.958  10.984
55087W        W23560   3.454  16.151  11.501
55088W        W23561  27.153  37.048   4.331
55089W        W23562   4.913  29.589   2.881
55090W        W23563  35.360  16.736   4.607
55091W        W23564  37.914  12.338   1.344
55092W        W23565  42.351  10.869  12.496
55093W        W23566  31.097   4.398   0.754
55094W        W23567  12.356  20.567   0.396
55095W        W23568  27.182  22.641   2.885
55096W        W23569  22.736  25.078  10.909
55097W        W23570  17.700  44.889   4.317
55098W        W23571  31.139   6.331   3.646
55099W        W23572  11.626   7.363  14.442
55100W        W23573  30.442  36.518  14.432
55101W        W23574  10.185   7.302  12.344
55102W        W23575  15.735  19.653   3.305
55103W        W23576   8.697  13.323   5.101
55104W        W23577  10.192  27.536  11.944
55105W        W23578  16.696  25.964   2.839
55106W        W23579  23.585  12.207   0.816
55107W        W23580  35.537  19.748   1.924
55108W        W23581   2.818  22.077  11.036
55109W        W23582  21.239  16.587  11.563
55110W        W23583  36.453  13.764   2.346
55111W        W23584   5.346  17.209   3.226
55112W        W23585   6.247  25.564   4.668
55113W        W23586  31.527   9.149   0.413
55114W        W23587   5.906  15.708  10.493
55115W        W23588  26.989   7.230   2.848
55116W        W23589  31.122  14.267   3.836
55117W        W23590  34.481   5.326  12.456
55118W        W23591  44.004  38.392  13.460
55119W        W23592  28.135  20.246  13.986
55120W        W23593   2.453   1.772   5.148
55121W        W23594  10.189  28.578   0.285
55122W        W23595  37.006  33.505  13.928
55123W        W23596  20.238   1.847   2.892
55124W        W23597  39.900   8.264   4.741
55125W        W23598  39.871  23.696  13.317
55126W        W23599  31.121  11.295   1.230
55127W        W23600  18.073  34.973  13.987
55128W        W23601   6.332  17.610  13.879
55129W        W23602  34.521  38.999  12.362
55130W        W23603  41.460   6.829   3.668
55131W        W23604  15.589   4.326   9.988
55132W        W23605  23.549  22.234   2.253
55133W        W23606  26.688  12.321   4.144
55134W        W23607  27.675  25.656  11.475
55135W        W23608  15.785  29.448   3.368
55136W        W23609  25.682  42.926   2.874
55137W        W23610  19.748  20.632   4.708
55138W        W23611   0.980   9.790   0.907
55139W        W23612  14.331  38.966  10.574
55140W        W23613  30.571  40.461  13.424
55141W        W23614  24.041  36.548  12.929
55142W        W23615  24.532  35.035  11.100
55143W        W23616  41.923   2.371  12.509
55144W        W23617  25.664  17.104   3.794
55145W        W23618  30.449   7.283  12.517
55146W        W23619   9.802  20.096   2.231
55147W        W23620   4.301  23.697  13.374
55148W        W23621  32.463   3.334  13.791
55149W        W23622  25.204   6.805   4.339
55150W        W23623  14.724  28.961  10.052
55151W        W23624  26.640  35.954   3.335
55152W        W23625  34.958   9.710  11.526
55153W        W23626  19.639  28.512  11.016
55154W        W23627   4.363   2.797   1.707
55155W        W23628  17.802  20.255   4.225
55156W        W23629  36.037  18.577  11.435
55157W        W23630   9.336  13.136   1.787
55158W        W23631  30.953  14.249  13.936
55159W        W23632  18.096  23.545   2.224
55160W        W23633  41.470   1.454   4.309
55161W        W23634   7.808  39.330   3.732
55162W        W23635   2.765  28.547  11.597
55163W        W23636  24.983  35.362   4.686
55164W        W23637  20.582  44.304  14.894
55165W        W23638  19.097  20.236   2.865
55166W        W23639  39.938  17.215  13.523
55167W        W23640  28.622   5.698   3.638
55168W        W23641  11.138  23.209   2.313
55169W        W23642  37.998  15.580   4.322
55170W        W23643   0.362  37.950   2.304
55171W        W23644   5.825   3.717   4.755
55172W        W23645  31.493  35.859   0.441
55173W        W23646  25.490   1.469  13.456
55174W        W23647  40.389  32.935   1.330
55175W        W23648  37.353  10.304   3.673
55176W        W23649   0.479  44.423  11.029
55177W        W23650  26.603  43.382  12.922
55178W        W23651   2.772  15.287  12.066
55179W        W23652  13.328  34.489   1.884
55180W        W23653  39.038  32.623  13.494
55181W        W23654   2.461  25.993   3.294
55182W        W23655  28.553  12.167   4.301
55183W        W23656   2.918   8.350   3.688
55184W        W23657  38.970  30.056  11.051
55185W        W23658  43.921  36.983   2.306
55186W        W23659  22.998   4.944  12.400
55187W        W23660   9.246  28.007  13.407
55188W        W23661  42.992   1.398  11.919
55189W        W23662  36.427  13.687   2.785
55190W        W23663   5.772   5.905  10.586
55191W        W23664  12.851   0.856   0.432
55192W        W23665  31.029  42.858  14.356
55193W        W23666   8.854   2.735   2.900
55194W        W23667  32.527  24.128  13.018
55195W        W23668  23.090  15.743  12.555
55196W        W23669  37.869  42.344  12.421
55197W        W23670   9.799   3.333   1.316
55198W        W23671  31.466  33.071   3.383
55199W        W23672  15.585  27.574  11.454
55200W        W23673  13.600  21.604  11.565
55201W        W23674  22.603  18.589  10.621
55202W        W23675  40.386  44.262  12.864
55203W        W23676  15.690  36.049   5.103
55204W        W23677  10.221  14.205  13.966
55205W        W23678  29.652  25.192  10.089
55206W        W23679  37.461  26.115   1.788
55207W        W23680  25.483  28.600  12.418
55208W        W23681  15.150  32.550  12.072
55209W        W23682  44.777  42.495  12.544
55210W        W23683   4.893  22.504  11.874
55211W        W23684   1.255  24.711   3.320
55212W        W23685  22.670  40.865  13.958
55213W        W23686  28.170  41.837  10.490
55214W        W23687  30.043  15.211   4.129
55215W        W23688  29.635  21.176  13.036
55216W        W23689   1.379  43.844   2.876
55217W        W23690   8.403   3.366  11.000
55218W        W23691  34.595  31.938   4.774
55219W        W23692  14.260   2.409  14.884
55220W        W23693   7.178  42.402  10.609
55221W        W23694  40.000  25.028   1.779
55222W        W23695   7.802  15.706   5.693
55223W        W23696   5.874  40.477  11.393
55224W        W23697  12.808  37.423   3.219
55225W        W23698  41.359  24.003  11.501
55226W        W23699  37.984  28.016  14.292
55227W        W23700   1.844  18.778   1.770
55228W        W23701  17.306   0.355  14.364
55229W        W23702  23.230  23.646   3.342
55230W        W23703  31.598   2.230  12.924
55231W        W23704   1.783   9.365  12.986
55232W        W23705  17.171  21.055   0.951
55233W        W23706   6.377  32.573  10.942
55234W        W23707  10.373   4.766   2.693
55235W        W23708  37.838  16.191  14.804
55236W        W23709  18.714  11.628   2.752
55237W        W23710   7.820  35.451   3.859
55238W        W23711  30.084  14.753   0.403
55239W        W23712  39.841  41.296  13.370
55240W        W23713  25.702  21.038  14.393
55241W        W23714  32.411  26.172  11.579
55242W        W23715   8.698  40.925   4.251
55243W        W23716  43.988  24.615   3.826
55244W        W23717  39.393   0.310   2.279
55245W        W23718  21.724  30.549   3.217
55246W        W23719  19.604   1.387  13.400
55247W        W23720   8.179  44.371  10.520
55248W        W23721  38.335   9.729   3.663
55249W        W23722  35.586  38.068   0.850
55250W        W23723  18.553  27.174  11.468
55251W        W23724  44.839   8.671  12.055
55252W        W23725   2.903  17.256  11.404
55253W        W23726  14.313  44.401  12.449
55254W        W23727  17.635  33.086  14.860
55255W        W23728  13.211   9.356   4.753
55256W        W23729  21.572  24.044   4.125
55257W        W23730  33.993  42.409  12.419
55258W        W23731   7.343   3.881   1.820
55259W        W23732  25.125   6.393   0.859
55260W        W23733  43.831  33.509  11.600
55261W        W23734  21.635  10.662   1.249
55262W        W23735  25.681  15.810   3.168
55263W        W23736  16.742  14.686  11.542
55264W        W23737   9.188   2.248  12.050
55265W        W23738  13.830  13.152  11.102
55266W        W23739  25.541  15.804   4.300
55267W        W23740  12.637   4.932   4.832
55268W        W23741  31.533  20.600   0.450
55269W        W23742   5.278  34.396  10.635
55270W        W23743  25.587  38.022   3.155
55271W        W23744  19.115  30.570  13.899
55272W        W23745  26.648  23.725   3.207
55273W        W23746  24.152  30.455   2.198
55274W        W23747  44.467  24.090   2.754
55275W        W23748  14.226  44.850  11.425
55276W        W23749  15.684  40.438  12.358
55277W        W23750  28.978  12.699   0.417
55278W        W23751   4.702  11.785   1.721
55279W        W23752  43.820   4.737  10.583
55280W        W23753  17.292  31.128  14.947
55281W        W23754  34.520   6.768   1.274
55282W        W23755  25.970  36.535   4.832
55283W        W23756  37.502   7.849   0.835
55284W        W23757  17.227  41.437  12.889
55285W        W23758  21.631  15.303  14.488
55286W        W23759  37.985   1.411   3.274
55287W        W23760  19.671   2.454   2.195
55288W        W23761  40.851  35.893   2.799
55289W        W23762  29.645  25.506   1.419
55290W        W23763  17.739  10.709  14.455
55291W        W23764  18.206  13.805  13.936
55292W        W23765  36.919  11.859   0.786
55293W        W23766  27.042  15.761  12.056
55294W        W23767  43.386  31.479   3.231
55295W        W23768   0.747  19.546   5.126
55296W        W23769  29.611  21.118  14.300
55297W        W23770  10.838  18.097   0.462
55298W        W23771  29.988   1.876   1.263
55299W        W23772  36.863   3.381   2.667
55300W        W23773   0.751  44.873   2.719
55301W        W23774  32.018   4.821   2.696
55302W        W23775  41.379  41.477   4.289
55303W        W23776   1.822   9.761   1.813
55304W        W23777  14.756  30.979   1.903
55305W        W23778  35.394  42.016   2.797
55306W        W23779  21.512   3.880   1.725
55307W        W23780  25.985  21.169  12.524
55308W        W23781   6.320  35.028  14.340
55309W        W23782  11.266  21.043   0.449
55310W        W23783  32.453  25.558   4.260
55311W        W23784  29.929  12.753   0.794
55312W        W23785   0.447  25.015  12.053
55313W        W23786  38.436  31.489   3.849
55314W        W23787  27.012  38.555  14.497
55315W        W23788  41.004  43.497  13.006
55316W        W23789   5.708  24.976  12.451
55317W        W23790  24.498  15.773  12.854
55318W        W23791  18.658  16.688  14.296
55319W        W23792  22.191   7.363  11.089
55320W        W23793  28.549   9.216  12.530
55321W        W23794  10.769  19.689   2.318
55322W        W23795  44.270   4.923  12.074
55323W        W23796   0.379  14.216   0.310
55324W        W23797   7.378   5.228  14.868
55325W        W23798   6.266   4.898   4.756
55326W        W23799  21.131  13.735   3.848
55327W        W23800   3.282  18.681  13.967
55328W        W23801  27.138  42.425  14.334
55329W        W23802  32.589  10.152   1.248
55330W        W23803   7.210   0.820   1.879
55331W        W23804  33.613  42.915  14.933
55332W        W23805  42.785  38.945   5.241
55333W        W23806  13.134  13.720   2.243
55334W        W23807  31.905  30.532   4.171
55335W        W23808   6.701  42.516  11.865
55336W        W23809  19.182  18.225   1.828
55337W        W23810  32.996  20.150   4.119
55338W        W23811  12.633   0.920   1.785
55339W        W23812  13.216  21.073  13.378
55340W        W23813   1.296   7.376  13.043
55341W        W23814  42.381  32.138  13.340
55342W        W23815  38.540   0.443   4.287
55343W        W23816  23.040  33.562  14.840
55344W        W23817  42.477  23.700  11.458
55345W        W23818  34.442  22.670   3.762
55346W        W23819   4.352  11.206   2.303
55347W        W23820  21.731   8.797   5.121
55348W        W23821  18.246   3.409  14.992
55349W        W23822  29.103  14.145  14.443
55350W        W23823   6.256   5.412   3.357
55351W        W23824  30.039  12.619   3.284
55352W        W23825  39.492  13.709   0.938
55353W        W23826  11.708   2.308   1.332
55354W        W23827  24.157  38.842  10.042
55355W        W23828  29.474  20.059  14.931
55356W        W23829  34.904  37.895  11.554
55357W        W23830  11.627  39.546  14.839
55358W        W23831  18.674  21.210  14.888
55359W        W23832  40.496  29.433  13.063
55360W        W23833  16.769  29.948   0.922
55361W        W23834   2.309  28.939   2.857
55362W        W23835  15.182   1.335   3.255
55363W        W23836   7.392  15.730   4.680
55364W        W23837  39.503  32.409   3.350
55365W        W23838  20.606  17.290   2.895
55366W        W23839  16.771  39.025  12.006
55367W        W23840  44.368  33.441   1.753
55368W        W23841  43.798  43.776  13.969
55369W        W23842   2.271  30.607  11.002
55370W        W23843  26.518  20.227  11.552
55371W        W23844  31.530  21.111  12.950
55372W        W23845  42.946  16.685  10.945
55373W        W23846   0.383  14.618   0.365
55374W        W23847  36.530  30.101  14.381
55375W        W23848   5.855   4.431  13.372
55376W        W23849  43.488  12.624   1.427
55377W        W23850  37.512   9.340   0.341
55378W        W23851  25.603  32.063   0.950
55379W        W23852   5.750  40.502   3.354
55380W        W23853  43.514  24.650   2.737
55381W        W23854   9.781  30.527  10.608
55382W        W23855  44.389   1.451   3.813
55383W        W23856  14.790   7.393  13.942
55384W        W23857   8.660  11.184  10.012
55385W        W23858  25.095  30.933   0.854
55386W        W23859  32.590  32.528  11.593
55387W        W23860   9.873   3.241  14.973
55388W        W23861  17.108   1.885   9.948
55389W        W23862  21.545   5.354  14.887
55390W        W23863  29.064  40.896   3.755
55391W        W23864  26.506  16.297   1.815
55392W        W23865   2.418  37.454   0.876
55393W        W23866  12.760  35.455  11.609
55394W        W23867  30.490  19.168  13.518
55395W        W23868   2.739   3.277   1.897
55396W        W23869  39.525  33.596   0.246
55397W        W23870  22.660  22.060   1.228
55398W        W23871  38.010  14.702  10.562
55399W        W23872  27.974  23.181   9.963
55400W        W23873  15.259  30.036  13.931
55401W        W23874  34.042  11.762  14.910
55402W        W23875  13.790  12.715  14.987
55403W        W23876  22.112  17.298  10.462
55404W        W23877  30.161  24.067  13.524
55405W        W23878  20.193  31.633   4.670
55406W        W23879   7.777  42.905   3.335
55407W        W23880  36.850  15.219   3.681
55408W        W23881  14.224   6.917   4.294
55409W        W23882   8.168   7.259  14.406
55410W        W23883  14.718  12.136  12.935
55411W        W23884  14.727  24.011   4.121
55412W        W23885   0.891   6.231   0.354
55413W        W23886  14.196  37.451   4.236
55414W        W23887   0.456  40.930   2.282
55415W        W23888  33.942  31.572  14.900
55416W        W23889  18.770  34.544   1.766
55417W        W23890   2.420  11.307   2.702
55418W        W23891  13.623  33.473  10.931
55419W        W23892  23.499   0.759  14.353
55420W        W23893   1.466  33.523   1.875
55421W        W23894  28.597   5.725  14.954
55422W        W23895  11.341   5.270   0.773
55423W        W23896  27.608  37.393   0.963
55424W        W23897  38.427  44.401  13.955
55425W        W23898   0.479   0.796  13.944
55426W        W23899  28.630  32.967  13.471
55427W        W23900  25.062  40.468   2.336
55428W        W23901  19.771  42.305   1.789
55429W        W23902   6.856  25.701  14.358
55430W        W23903  37.853  37.965  11.397
55431W        W23904  38.405  15.660   2.339
55432W        W23905  34.975  29.477   2.846
55433W        W23906  31.130   7.211  10.431
55434W        W23907   1.958  15.757   0.279
55435W        W23908  25.086  13.337   1.273
55436W        W23909   7.733  25.642  11.992
55437W        W23910  21.158   3.886  11.947
55438W        W23911  27.969  29.950  12.048
55439W        W23912  32.001  43.963   2.376
55440W        W23913  36.387  26.504  11.128
55441W        W23914   4.821  20.195   4.646
55442W        W23915  26.663  43.816  11.921
55443W        W23916  43.995  17.787   4.223
55444W        W23917  30.597  33.111  13.962
55445W        W23918  37.889  31.621   3.797
55446W        W23919  18.581   0.490   0.763
55447W        W23920  15.672  28.443   0.250
55448W        W23921  34.097  43.842   3.756
55449W        W23922   9.263  20.647   2.394
55450W        W23923  32.081  43.785  10.526
55451W        W23924   4.402  10.233  11.088
55452W        W23925   9.788  39.978   2.297
55453W        W23926   7.903  26.107   1.698
55454W        W23927  12.352  16.245   4.689
55455W        W23928  24.095  10.275  12.040
55456W        W23929  43.454   5.404   4.819
55457W        W23930  31.134   7.702   2.361
55458W        W23931   7.199  37.991  12.093
55459W        W23932  11.245  28.010   2.703
55460W        W23933   1.784   3.860  13.970
55461W        W23934  43.932  13.148   3.855
55462W        W23935   3.360  18.244   3.845
55463W        W23936  21.132  21.059  12.962
55464W        W23937  24.538  11.753   4.752
55465W        W23938  37.548  39.540   0.338
55466W        W23939  43.298  16.708   4.254
55467W        W23940  10.838  34.013   1.771
55468W        W23941  10.378  43.963   1.731
55469W        W23942  36.955  37.539   0.958
55470W        W23943  14.287  37.451  11.379
55471W        W23944  22.023  15.192  14.469
55472W        W23945  37.840  20.696   2.393
55473W        W23946  31.906  11.658  12.448
55474W        W23947  20.270  38.877   2.681
55475W        W23948   2.751   6.861   4.317
55476W        W23949  22.529  22.523   0.263
55477W        W23950   2.836   7.248   4.805
55478W        W23951  16.597  27.168  10.566
55479W        W23952  28.633   2.779  14.778
55480W        W23953  31.987  31.960   2.265
55481W        W23954  43.999   9.699  13.933
55482W        W23955  36.551   3.744  14.933
55483W        W23956  27.153   3.751   0.890
55484W        W23957   9.871   4.352   1.750
55485W        W23958  34.953  21.751  14.467
55486W        W23959  14.285   2.443  10.901
55487W        W23960   3.949  38.015  11.101
55488W        W23961  21.556  13.758   1.851
55489W        W23962  24.140  25.962  13.843
55490W        W23963  34.898  30.499  12.949
55491W        W23964  34.378  10.200   1.267
55492W        W23965   7.707   6.863  10.412
55493W        W23966  40.903  17.714   1.419
55494W        W23967  21.571   4.399  11.105
55495W        W23968  34.961   0.899   0.912
55496W        W23969  43.953  41.015   2.209
55497W        W23970  37.476  44.850   1.299
55498W        W23971  18.667  10.355   4.660
55499W        W23972  12.792   3.350  13.926
55500W        W23973  22.649  28.434   0.469
55501W        W23974  33.571  37.491   4.802
55502W        W23975  32.607  15.193  10.453
55503W        W23976  31.505  12.235  14.851
55504W        W23977   0.293  12.204  11.405
55505W        W23978  37.367  15.726  13.998
55506W        W23979  24.725  39.433  14.446
55507W        W23980  28.639  24.085  12.969
55508W        W23981  23.662   8.685  13.441
55509W        W23982  13.686  39.051  11.599
55510W        W23983  39.477  38.358   3.775
55511W        W23984  11.164  24.209  10.615
55512W        W23985  43.970  16.297  13.436
55513W        W23986  24.620  40.533  13.365
55514W        W23987  18.557  17.192  13.319
55515W        W23988  13.125   1.355   0.780
55516W        W23989  38.971  12.153  11.525
55517W        W23990  16.226  39.493   0.419
55518W        W23991   6.399   9.277   4.268
55519W        W23992  14.720  34.528   0.726
55520W        W23993   2.872  43.992  14.807
55521W        W23994  24.097   7.170  10.137
55522W        W23995  33.401   6.193   2.280
55523W        W23996  29.120  44.880   1.417
55524W        W23997  24.164   0.825  11.905
55525W        W23998   9.156  22.063  14.433
55526W        W23999   5.209   6.224  10.025
55527W        W24000  10.870  33.925   4.115
55528W        W24001  44.443  34.494  10.615
55529W        W24002  21.523  33.939  14.471
55530W        W24003  24.673  11.296  14.482
55531W        W24004  37.844   6.807   2.248
55532W        W24005  31.003  44.269   1.256
55533W        W24006   6.193  37.386  11.963
55534W        W24007  27.491  11.722   0.874
55535W        W24008  10.664   6.335   2.844
55536W        W24009   7.345  28.639  14.498
55537W        W24010  16.803   5.921   4.739
55538W        W24011  41.868  42.964  10.920
55539W        W24012   5.250   0.844   2.892
55540W        W24013  21.092   9.822  14.321
55541W        W24014  10.161  35.876   4.323
55542W        W24015   5.713  35.976   2.367
55543W        W24016  11.147  41.993  14.378
55544W        W24017  26.580  20.673   3.281
55545W        W24018   4.864   1.760  10.954
55546W        W24019  21.641  41.515   1.228
55547W        W24020  36.873   5.256   3.705
55548W        W24021  19.045  29.493  14.410
55549W        W24022  41.911  10.671  12.983
55550W        W24023  30.595  16.269  11.567
55551W        W24024  24.999  20.739   4.213
55552W        W24025  40.513  27.540   4.715
55553W        W24026  17.715   9.884   0.270
55554W        W24027  29.571  29.060  14.987
55555W        W24028  24.059  32.988   2.251
55556W        W24029  15.312  11.247  12.827
55557W        W24030  35.564  21.608   2.683
55558W        W24031  39.881  21.560  14.922
55559W        W24032   2.464   4.725   2.400
55560W        W24033  10.700  39.341   1.759
55561W        W24034  44.871  20.694   2.853
55562W        W24035   6.874  12.809  11.859
55563W        W24036  41.970  24.017   0.280
55564W        W24037   1.392  21.235   3.709
55565W        W24038   7.409   5.811  11.400
55566W        W24039  21.241  42.887   5.180
55567W        W24040  25.129  31.523  14.447
55568W        W24041  36.587  15.257   3.303
55569W        W24042   9.687  43.990  12.477
55570W        W24043   5.763  30.976   1.736
55571W        W24044  41.298  23.554  13.510
55572W        W24045  33.060  15.244   2.203
55573W        W24046  29.150  18.234  12.535
55574W        W24047  37.532   5.417   1.278
55575W        W24048  15.127  27.478  13.043
55576W        W24049  18.680  38.426   0.348
55577W        W24050  24.212   2.757  14.345
55578W        W24051  28.496  11.773  14.985
55579W        W24052  14.730  35.409  12.482
55580W        W24053   9.372  44.432  12.966
55581W        W24054   4.424   6.762  13.381
55582W        W24055  42.353   8.338  14.514
55583W        W24056  25.574  14.696  13.911
55584W        W24057   5.390  29.669  13.488
55585W        W24058  35.899  14.189   3.671
55586W        W24059   4.217  39.529  10.984
55587W        W24060  14.688  28.638   1.364
55588W        W24061  43.486  31.560  14.825
55589W        W24062  29.129  44.447   0.280
55590W        W24063  25.596   1.732   5.152
55591W        W24064  23.501   6.782   3.313
55592W        W24065  19.725  16.076   2.239
55593W        W24066  10.192  18.289  12.922
55594W        W24067   4.714   2.878  10.951
55595W        W24068  30.433  11.292   2.418
55596W        W24069   1.824  33.951   4.277
55597W        W24070  29.428   6.338  14.317
55598W        W24071  21.047  22.528   0.324
55599W        W24072  36.404   2.892  10.894
55600W        W24073   7.190  24.158  11.593
55601W        W24074  38.929   0.431   3.191
55602W        W24075   6.819  28.168  14.934
55603W        W24076  43.372   8.242   3.805
55604W        W24077  29.989  14.245  13.825
55605W        W24078  33.935  44.005   3.386
55606W        W24079  17.276  26.498   2.813
55607W        W24080  14.125  38.030   2.833
55608W        W24081  39.001   5.692  10.025
55609W        W24082  28.130   1.740  11.467
55610W        W24083  16.306  18.748   2.197
55611W        W24084  27.679  31.544   4.190
55612W        W24085  37.917  27.140   2.835
55613W        W24086  38.442  29.641   4.639
55614W        W24087  43.939   4.732  12.067
55615W        W24088  32.104  39.536   3.849
55616W        W24089   5.733  24.212   4.669
55617W        W24090  35.987  43.452   2.222
55618W        W24091   8.344  44.832  12.920
55619W        W24092  10.238  24.174   5.299
55620W        W24093   5.782  17.683  14.808
55621W        W24094  28.975   7.174  14.827
55622W        W24095   4.249   2.805  11.128
55623W        W24096  25.612  43.863   1.829
55624W        W24097  22.071   5.921  14.780
55625W        W24098  10.785   3.916  12.077
55626W        W24099  37.064  26.494   3.673
55627W        W24100  34.372  11.312   3.706
55628W        W24101   8.360   0.295  12.945
55629W        W24102  37.882   7.824  13.367
55630W        W24103  42.395  33.026  13.450
55631W        W24104  38.842  22.708  10.416
55632W        W24105  25.095   9.654   1.386
55633W        W24106  20.028  35.097   4.761
55634W        W24107   1.303  13.254  11.515
55635W        W24108  38.502  44.794  11.461
55636W        W24109   7.683   3.348   3.766
55637W        W24110  26.476   5.879  10.487
55638W        W24111   3.447  30.613  11.099
55639W        W24112  28.534  16.778   4.227
55640W        W24113   5.853  23.191  12.367
55641W        W24114  21.522  41.390   2.180
55642W        W24115  35.993  30.659  12.553
55643W        W24116  38.051   6.744   2.791
55644W        W24117  15.754  35.469  10.633
55645W        W24118  35.079  43.955  13.810
55646W        W24119  31.076   9.734  13.518
55647W        W24120  34.573  28.654   2.349
55648W        W24121  24.985  44.782  12.082
55649W        W24122  25.640  12.162   2.772
55650W        W24123  27.078  34.501  10.569
55651W        W24124   6.361  29.048   2.768
55652W        W24125  14.784  17.252  14.462
55653W        W24126  27.463  11.310   1.247
55654W        W24127  13.776   1.967   2.380
55655W        W24128   2.764  28.452  11.966
55656W        W24129   3.790  14.250  12.942
55657W        W24130  40.031  40.480   1.258
55658W        W24131  35.105   6.300  10.444
55659W        W24132  39.434  15.608   1.797
55660W        W24133  30.933   9.238   3.257
55661W        W24134  38.953  26.953  11.466
55662W        W24135  21.685  41.931  12.408
55663W        W24136   8.233   8.893   3.686
55664W        W24137  18.545  33.447   1.926
55665W        W24138  25.205   3.232   3.204
55666W        W24139  40.952  19.159   4.142
55667W        W24140  32.989  41.371   5.124
55668W        W24141  25.509  37.504   1.814
55669W        W24142   2.310  13.217   4.745
55670W        W24143  27.534   7.208  14.513
55671W        W24144  37.439  23.618   0.462
55672W        W24145   6.315  24.195   0.371
55673W        W24146  42.453   5.866  12.016
55674W        W24147  25.476  40.494   2.877
55675W        W24148  20.115  29.026   4.270
55676W        W24149   0.360  32.895  10.887
55677W        W24150  43.435   1.912  12.486
55678W        W24151  28.071   1.745  12.481
55679W        W24152  29.037  10.221  12.954
55680W        W24153  26.961  23.633  11.878
55681W        W24154  19.209   4.932   1.320
55682W        W24155  19.227  20.748  12.395
55683W        W24156   9.748  19.544  14.812
55684W        W24157  29.620   3.374  11.017
55685W        W24158  16.688   4.389  12.914
55686W        W24159  25.539  30.523  13.954
55687W        W24160   0.980  15.181  14.425
55688W        W24161  10.828  25.557  14.328
55689W        W24162   8.192  38.360   4.312
55690W        W24163  20.660   2.928   0.381
55691W        W24164  33.444   3.716   2.894
55692W        W24165  15.734  34.587  13.949
55693W        W24166  19.637   0.898   3.349
55694W        W24167  18.173   7.857  13.940
55695W        W24168   6.413  25.204  11.090
55696W        W24169  40.819  44.435  13.960
55697W        W24170  42.308  23.990  10.924
55698W        W24171  43.848  16.277  13.994
55699W        W24172  22.180   2.310   3.750
55700W        W24173  15.824  33.391   1.246
55701W        W24174   1.803   8.728   1.369
55702W        W24175  38.509  18.595  10.986
55703W        W24176  12.694  26.177  11.486
55704W        W24177   8.257   6.895  11.941
55705W        W24178  14.154  36.406  13.834
55706W        W24179  26.665  30.568   3.863
55707W        W24180  38.857   0.882  10.096
55708W        W24181  34.380  20.614  13.358
55709W        W24182  29.557  21.113  12.578
55710W        W24183  36.354  20.531   0.805
55711W        W24184  14.740  19.683   2.263
55712W        W24185  15.808  24.202   1.352
55713W        W24186  32.590  22.715  12.009
55714W        W24187  39.809  19.223  11.053
55715W        W24188  15.579  12.259   1.850
55716W        W24189  36.882  35.917   2.847
55717W        W24190  42.959   3.764   4.661
55718W        W24191  10.233  17.191  12.873
55719W        W24192  24.609   7.391  13.352
55720W        W24193  30.590  39.372  14.325
55721W        W24194  20.170   4.223  13.317
55722W        W24195   0.252  11.715  14.768
55723W        W24196  14.152  14.222   0.412
55724W        W24197  42.027  21.598  13.346
55725W        W24198  14.663  24.518  13.993
55726W        W24199   3.378  34.872  14.937
55727W        W24200   0.926   9.329  11.008
55728W        W24201  26.977   5.704   0.931
55729W        W24202  15.136  23.568  13.880
55730W        W24203  31.065   0.749  10.510
55731W        W24204   3.733  26.208   3.799
55732W        W24205  11.705  12.309  10.554
55733W        W24206  29.118  18.211  14.986
55734W        W24207  39.392  21.706   4.279
55735W        W24208  29.991  28.037   2.785
55736W        W24209  24.636  11.856  13.884
55737W        W24210  38.833  21.569   0.849
55738W        W24211   3.895  17.760   4.803
55739W        W24212  21.032   5.391  13.911
55740W        W24213  34.408  31.003  12.917
55741W        W24214  23.103  42.963   2.326
55742W        W24215  40.937  44.778   3.207
55743W        W24216  13.620  38.447  11.478
55744W        W24217  23.062   5.238   1.877
55745W        W24218  22.006  28.668   2.325
55746W        W24219   3.746  33.606   1.392
55747W        W24220   7.885  19.627  12.071
55748W        W24221   4.936   3.829   3.362
55749W        W24222   9.174  44.965   4.638
55750W        W24223   9.261  11.681   4.225
55751W        W24224  39.910   4.362  13.945
55752W        W24225  19.112  31.504   4.750
55753W        W24226  27.546  29.514   4.317
55754W        W24227  15.302   5.290  12.927
55755W        W24228  24.107  42.873   4.800
55756W        W24229  40.331  35.103   2.673
55757W        W24230  24.655   0.760   4.268
55758W        W24231  26.954  15.693   2.703
55759W        W24232   0.871   9.166   3.791
55760W        W24233  34.938   0.259   3.865
55761W        W24234   6.279   2.336  13.492
55762W        W24235  22.114  34.476  14.985
55763W        W24236   6.405  13.150  10.091
55764W        W24237  13.189  32.556  14.769
55765W        W24238   5.699   4.716  12.996
55766W        W24239  21.515  43.433  11.048
55767W        W24240  44.778   3.918   3.756
55768W        W24241  17.206  31.038   3.147
55769W        W24242  22.199   9.327  11.425
55770W        W24243  26.137  31.617   0.871
55771W        W24244  39.008  44.367   0.368
55772W        W24245  33.928   4.310  12.026
55773W        W24246  13.625   0.957  14.770
55774W        W24247  23.204   3.432   0.338
55775W        W24248  39.922  39.470  11.919
55776W        W24249  10.347  42.410   1.329
55777W        W24250  40.038  28.467   0.737
55778W        W24251  20.176   6.900   0.404
55779W        W24252   0.263   8.803   4.240
55780W        W24253  27.595  44.954  11.924
55781W        W24254  21.215  14.679   0.900
55782W        W24255  43.934  29.977  11.609
55783W        W24256  36.992  36.572  10.604
55784W        W24257  10.324  41.986  13.051
55785W        W24258  18.652  11.224  10.503
55786W        W24259  12.819  34.483   2.676
55787W        W24260  15.181  28.510  10.965
55788W        W24261   6.826  29.559  12.576
55789W        W24262  34.105  33.920  13.019
55790W        W24263  34.010  30.966  11.503
55791W        W24264   1.394  37.409  10.110
55792W        W24265  44.923  16.135   0.911
55793W        W24266  44.451  20.118   3.735
55794W        W24267  36.913   1.764  13.373
55795W        W24268  17.263  30.522  11.921
55796W        W24269  44.824  41.018  13.868
55797W        W24270  27.149  41.928   4.196
55798W        W24271   8.772   3.391  14.503
55799W        W24272  24.684   3.237   0.407
55800W        W24273  22.008   5.762   2.245
55801W        W24274   0.441  37.419  12.372
55802W        W24275   6.794   1.302   4.739
55803W        W24276  25.631  40.962  11.416
55804W        W24277  19.562  24.723   4.673
55805W        W24278  32.529  40.843  10.966
55806W        W24279   7.910  30.065  12.953
55807W        W24280  11.780  41.969   5.101
55808W        W24281   1.789   3.826   0.277
55809W        W24282   5.770  11.294  12.066
55810W        W24283  10.841  22.711   3.654
55811W        W24284  11.204  18.191   3.240
55812W        W24285  33.945  36.864  13.001
55813W        W24286   1.377  12.188  12.416
55814W        W24287  29.427   3.458  12.557
55815W        W24288  43.452   4.310   4.833
55816W        W24289  31.899  27.533  12.892
55817W        W24290  30.606  16.280   0.414
55818W        W24291  14.698  30.453  10.012
55819W        W24292  28.539  10.165   3.297
55820W        W24293   0.800  21.618  13.365
55821W        W24294  17.617  35.582   4.150
55822W        W24295  38.556   6.833   4.333
55823W        W24296  26.170  41.497  12.523
55824W        W24297  16.663  36.914  14.444
55825W        W24298  18.065  15.239   4.158
55826W        W24299   2.801  11.794  13.793
55827W        W24300   6.395  43.905   3.664
55828W        W24301  27.191   4.770   1.245
55829W        W24302   6.734   7.823   5.238
55830W        W24303  33.118  28.628   1.346
55831W        W24304  41.486  43.311   4.621
55832W        W24305   2.957  33.493  13.308
55833W        W24306  41.453  38.824   4.326
55834W        W24307  14.267  24.104  14.898
55835W        W24308  32.017  12.738  13.059
55836W        W24309  19.739  15.084   1.763
55837W        W24310  17.077  25.020  10.128
55838W        W24311  16.232  30.009   0.731
55839W        W24312  10.818  43.950   3.161
55840W        W24313  31.936  11.153  13.046
55841W        W24314  31.554  34.613   3.220
55842W        W24315  44.321   2.891  12.508
55843W        W24316  33.399  38.033  10.507
55844W        W24317  38.860   8.172  12.086
55845W        W24318   0.847  14.162  13.315
55846W        W24319  42.492   9.299  13.465
55847W        W24320   5.873  35.535  12.533
55848W        W24321   9.357  10.275   1.798
55849W        W24322  11.859  36.387   2.721
55850W        W24323  18.689  41.863   3.657
55851W        W24324   2.885  17.801   1.750
55852W        W24325   1.269   1.375  10.405
55853W        W24326  15.135  15.802  10.094
55854W        W24327  29.661  10.720  11.428
55855W        W24328   6.307  42.842   4.204
55856W        W24329  19.190  39.457  11.483
55857W        W24330  37.969  14.117  13.426
55858W        W24331  16.184  32.067  11.544
55859W        W24332  11.327  34.048   2.321
55860W        W24333  40.022  36.382   1.845
55861W        W24334  41.988  42.846  14.439
55862W        W24335  13.751  18.564  12.410
55863W        W24336  32.509   6.894   1.750
55864W        W24337  29.508  21.250   4.237
55865W        W24338   4.800   6.376  14.509
55866W        W24339  24.597   9.847  10.942
55867W        W24340   4.373  40.395  10.590
55868W        W24341  10.242  44.370  11.971
55869W        W24342  27.509   1.797  11.120
55870W        W24343  36.026   8.182  10.947
55871W        W24344  40.355  10.149  13.015
55872W        W24345   4.821  28.092   0.830
55873W        W24346  18.583  11.775   1.271
55874W        W24347   1.812   1.863  11.451
55875W        W24348  32.022  12.703  13.834
55876W        W24349  31.513  40.927  14.997
55877W        W24350   6.323   9.327  14.308
55878W        W24351  34.103  34.613  13.045
55879W        W24352  33.910  20.724   1.257
55880W        W24353  31.142  24.593  10.506
55881W        W24354  31.025   0.831   3.362
55882W        W24355  18.265  31.486  14.285
55883W        W24356  30.654  14.322  12.357
55884W        W24357  17.748  37.935  12.574
55885W        W24358  43.827   4.371  14.842
55886W        W24359   7.385  25.160   3.762
55887W        W24360  24.054  20.101   2.675
55888W        W24361   6.246  19.567  14.296
55889W        W24362   1.810  20.044  12.543
55890W        W24363  16.267   2.735  10.549
55891W        W24364   0.933  24.040   4.805
55892W        W24365  40.009   5.793  14.998
55893W        W24366  32.070  18.087   3.226
55894W        W24367  34.995   8.167   1.228
55895W        W24368  30.157  17.717   3.761
55896W        W24369  15.264   7.805   2.290
55897W        W24370  31.623  16.289  12.430
55898W        W24371  22.032  33.398  14.019
55899W        W24372  38.559   6.825   4.838
55900W        W24373   1.945   5.825  11.110
55901W        W24374  38.425  29.494  14.378
55902W        W24375   7.316  40.044   2.685
55903W        W24376  29.558   1.938  13.875
55904W        W24377  32.398  36.095   4.839
55905W        W24378  16.623  20.735  12.538
55906W        W24379   2.781  40.467   0.872
55907W        W24380  34.003   0.865   0.912
55908W        W24381  29.486  41.392   0.453
55909W        W24382  21.250   9.714  13.062
55910W        W24383   7.695  29.646   1.701
55911W        W24384   7.739   8.214  11.052
55912W        W24385  11.178   4.336  12.489
55913W        W24386  35.951  14.317   2.224
55914W        W24387  44.271  38.372  13.969
55915W        W24388  16.773  38.037   0.395
55916W        W24389  24.706  18.618   3.281
55917W        W24390  19.234  24.637  13.901
55918W        W24391  44.503  37.413   0.377
55919W        W24392   8.203  13.140   4.265
55920W        W24393   7.236  32.953   1.739
55921W        W24394  14.690   8.185   3.853
55922W        W24395   8.255   8.890  11.468
55923W        W24396  17.185  36.988  13.043
55924W        W24397  44.978   8.659   2.819
55925W        W24398  39.507   8.661  10.993
55926W        W24399  16.262  35.406  13.882
55927W        W24400   4.366  31.032   4.209
55928W        W24401   4.776  18.158   1.720
55929W        W24402   0.903  43.800  13.971
55930W        W24403  25.637  41.353  11.126
55931W        W24404  34.489  13.250   1.374
55932W        W24405  31.550  29.062  11.417
55933W        W24406  21.254   0.443  11.891
55934W        W24407  19.085  25.210   1.740
55935W        W24408   9.880  25.157   2.385
55936W        W24409   9.769  44.486   4.260
55937W        W24410  31.912  18.119   1.865
55938W        W24411   4.821  23.053   2.415
55939W        W24412  38.956  21.642   3.789
55940W        W24413  12.742  44.286  14.817
55941W        W24414  15.188  15.158   3.309
55942W        W24415   4.387   5.433  13.351
55943W        W24416  42.366  18.097  11.373
55944W        W24417  34.555  23.533   3.286
55945W        W24418  26.536  14.832   0.270
55946W        W24419  27.598  21.653   4.705
55947W        W24420   0.786  20.546   4.265
55948W        W24421  18.086  37.398   4.679
55949W        W24422   2.324  42.917   4.277
55950W        W24423  43.475  26.603   0.731
55951W        W24424   0.474  42.007  10.929
55952W        W24425  18.653  34.925  12.053
55953W        W24426  17.570  24.719  12.573
55954W        W24427  24.624  42.413  14.426
55955W        W24428   1.947  19.573   3.386
55956W        W24429  29.162   0.391   1.723
55957W        W24430  18.236  20.714   4.175
55958W        W24431  36.571   3.872   1.896
55959W        W24432  13.122  44.388  14.875
55960W        W24433  33.483  31.457   4.151
55961W        W24434  39.361  17.710   1.215
55962W        W24435   9.206   8.320   3.313
55963W        W24436  17.683   2.809  10.474
55964W        W24437  39.957  20.658  12.869
55965W        W24438  16.799  10.823   4.693
55966W        W24439   1.472  24.031   1.261
55967W        W24440   5.913  17.131   2.308
55968W        W24441  24.048  35.890   2.697
55969W        W24442  24.074  24.544   4.267
55970W        W24443  40.376   6.417  12.065
55971W        W24444  31.126  44.280   1.791
55972W        W24445  22.603  37.868  13.428
55973W        W24446  11.727  41.995   0.460
55974W        W24447  41.316   9.646   3.245
55975W        W24448  44.875  33.566   2.766
55976W        W24449  12.792  23.013  14.774
55977W        W24450  15.230  11.659   3.192
55978W        W24451  33.621  41.389   3.861
55979W        W24452  36.935   1.756  14.810
55980W        W24453  35.527  27.604  10.593
55981W        W24454  25.127   5.899   2.196
55982W        W24455   0.442  13.839  13.375
55983W        W24456  27.955  41.380   3.163
55984W        W24457  33.874  36.016  13.970
55985W        W24458  19.605   3.391   1.218
55986W        W24459  11.688  29.129   4.773
55987W        W24460  21.075  28.536  14.009
55988W        W24461  27.049  25.568   4.802
55989W        W24462  19.712  32.012   0.942
55990W        W24463   2.959  32.957   0.390
55991W        W24464   6.815  21.726   1.442
55992W        W24465  10.728  15.657  12.893
55993W        W24466  39.057  43.472  10.993
55994W        W24467  20.033  28.098  12.954
55995W        W24468  31.080  10.743   2.785
55996W        W24469  20.115   4.703  12.525
55997W        W24470  31.431  43.885   3.281
55998W        W24471   7.200   0.400   1.796
55999W        W24472   5.778   7.798  10.064
56000W        W24473  21.657  12.630  10.604
56001W        W24474  39.414  19.764  13.346
56002W        W24475  42.031  43.463   0.808
56003W        W24476   6.826  27.010  10.592
56004W        W24477  28.522   8.704  13.425
56005W        W24478   7.715  14.786  13.974
56006W        W24479  35.097  32.993   2.855
56007W        W24480  43.839   1.942  14.389
56008W        W24481   5.689  43.975  12.945
56009W        W24482  32.549   8.725  12.424
56010W        W24483  20.609  38.420  11.916
56011W        W24484   4.273  42.440  14.928
56012W        W24485  21.104  15.712  14.434
56013W        W24486  20.745   2.856  13.931
56014W        W24487   8.869  22.045  13.928
56015W        W24488  35.897   0.870   2.683
56016W        W24489  27.029  14.831   0.338
56017W        W24490  24.697  14.211   4.694
56018W        W24491   5.819  25.668  14.908
56019W        W24492  17.138  13.673   1.821
56020W        W24493  23.197  25.550  10.075
56021W        W24494  40.542   4.760   5.259
56022W        W24495  38.561   2.354   1.423
56023W        W24496  36.478  36.061  11.878
56024W        W24497  15.216  40.409   4.118
56025W        W24498   9.380  30.063  12.422
56026W        W24499  11.155  33.984   1.339
56027W        W24500   3.454  31.609  14.406
56028W        W24501   9.801  24.136  14.029
56029W        W24502  31.915  19.159  10.484
56030W        W24503   8.177   3.830   0.878
56031W        W24504  15.179  13.746  10.466
56032W        W24505  42.437  13.196   3.774
56033W        W24506  25.538   7.280  11.109
56034W        W24507   9.741   5.313  11.436
56035W        W24508  12.623  32.498   0.472
56036W        W24509   9.769  31.639  12.520
56037W        W24510  22.621   8.840   3.843
56038W        W24511  17.190  16.596   2.400
56039W        W24512  15.628   3.323   1.874
56040W        W24513  11.816  11.790  10.488
56041W        W24514  31.914  36.886  11.482
56042W        W24515  38.001  36.040   3.197
56043W        W24516  37.940  16.087   0.276
56044W        W24517  40.905   4.828  10.990
56045W        W24518   2.343  13.657  14.335
56046W        W24519  14.758  24.188  12.049
56047W        W24520  10.656  16.196   1.338
56048W        W24521  38.419  14.782   0.378
56049W        W24522  28.626  13.196  14.999
56050W        W24523   8.735  43.894   9.962
56051W        W24524  37.535  28.490  12.528
56052W        W24525   6.777  36.080  14.334
56053W        W24526  36.450  34.931   2.180
56054W        W24527  34.101  27.178  11.996
56055W        W24528  24.555  13.167  12.016
56056W        W24529   9.244   2.871  10.631
56057W        W24530   5.808   7.743  13.823
56058W        W24531   3.714  31.430   0.267
56059W        W24532   8.814   4.712   0.380
56060W        W24533  18.642  43.796  11.519
56061W        W24534  30.511  23.150  12.082
56062W        W24535   5.353  27.988  13.891
56063W        W24536  37.503  22.156   1.740
56064W        W24537  23.223  43.879   2.842
56065W        W24538  37.963  32.586   2.706
56066W        W24539  17.755  11.738  14.278
56067W        W24540  43.454  19.718   5.087
56068W        W24541  42.452  20.705  14.368
56069W        W24542  33.060  34.403  14.506
56070W        W24543  43.019  17.778   4.190
56071W        W24544  11.834   9.385  12.516
56072W        W24545  12.688   9.302   2.310
56073W        W24546   0.478   6.296   2.820
56074W        W24547  27.570  10.314   1.913
56075W        W24548  20.267  32.061  11.868
56076W        W24549   2.875  35.896  13.876
56077W        W24550   4.718  10.693   2.780
56078W        W24551   3.354  39.469  10.998
56079W        W24552   3.748  18.057  10.925
56080W        W24553   3.941  16.205   2.708
56081W        W24554  15.612  39.828   4.289
56082W        W24555  36.984   4.215  11.436
56083W        W24556  24.226  25.193  13.347
56084W        W24557  10.295  21.584  13.399
56085W        W24558   3.336  26.205  12.996
56086W        W24559  21.175  44.818   1.402
56087W        W24560  19.633  24.481   2.229
56088W        W24561   5.737  17.229   9.927
56089W        W24562   3.304   7.857   1.429
56090W        W24563  18.732   7.398   4.784
56091W        W24564  23.539  24.573  12.068
56092W        W24565  24.720  10.870  11.954
56093W        W24566  19.750  34.016  12.364
56094W        W24567  35.073  26.592  12.066
56095W        W24568  32.914  36.937   3.802
56096W        W24569  23.068   6.722   2.185
56097W        W24570  31.609   8.855   3.814
56098W        W24571  12.679  32.494  13.537
56099W        W24572   0.427  29.644  14.827
56100W        W24573  31.002  15.211  11.435
56101W        W24574  28.956   4.810  10.001
56102W        W24575  24.490  22.025   4.662
56103W        W24576  32.458  25.564  11.042
56104W        W24577   4.851  14.638  13.511
56105W        W24578   5.349  12.789   3.814
56106W        W24579   4.882   3.460  14.779
56107W        W24580  36.462   2.868  14.295
56108W        W24581  24.001  31.444  10.480
56109W        W24582  30.096  35.505   2.244
56110W        W24583  43.442  17.713   0.814
56111W        W24584  15.648  34.893   5.306
56112W        W24585  16.114  11.144   0.370
56113W        W24586  28.569   8.861   2.277
56114W        W24587  18.710  43.514   1.433
56115W        W24588   7.261  31.617   0.778
56116W        W24589  29.094  34.453  11.469
56117W        W24590  24.590  41.377  13.974
56118W        W24591  34.120  32.611  13.833
56119W        W24592   0.935  13.261  14.871
56120W        W24593  29.529  41.293  10.483
56121W        W24594  36.931   3.937   0.463
56122W        W24595  23.234  36.866  13.877
56123W        W24596  38.331  39.970   2.683
56124W        W24597  15.197  36.566  10.576
56125W        W24598  25.969  11.708   0.449
56126W        W24599  27.589  26.207  11.862
56127W        W24600  30.102   3.774   2.365
56128W        W24601  21.712  20.245   2.342
56129W        W24602  27.189  19.699  12.510
56130W        W24603  36.509  43.772   1.438
56131W        W24604  19.041  13.284   3.261
56132W        W24605   8.666  40.450  14.838
56133W        W24606  28.456   7.747   1.424
56134W        W24607  23.195  38.442   0.382
56135W        W24608  33.517  23.603  13.509
56136W        W24609   4.412  13.610  10.070
56137W        W24610   7.703   2.961   3.765
56138W        W24611  12.806  17.650  13.386
56139W        W24612  19.752   4.431  10.524
56140W        W24613  19.650  33.972   4.232
56141W        W24614  10.660  30.935  14.816
56142W        W24615  35.514   4.901   4.636
56143W        W24616   3.440  23.634   1.775
56144W        W24617  38.991   1.954  11.974
56145W        W24618   2.953  40.013   3.790
56146W        W24619   4.890   9.787   1.932
56147W        W24620  28.616  12.673   2.217
56148W        W24621  41.849  14.780  14.427
56149W        W24622  42.952  38.928  13.398
56150W        W24623  36.873   5.246  11.985
56151W        W24624  10.692  20.558  14.421
56152W        W24625  41.988   1.283  11.061
56153W        W24626  40.822  15.740   3.287
56154W        W24627  15.588  38.327  10.506
56155W        W24628  14.100   0.254   1.379
56156W        W24629  29.064  32.890  13.542
56157W        W24630  36.434  11.793  13.336
56158W        W24631  31.025  43.863  10.520
56159W        W24632   6.401   6.367  14.324
56160W        W24633  26.615  36.547   1.820
56161W        W24634  35.400  42.380  13.398
56162W        W24635   8.874  20.061   5.320
56163W        W24636  30.910  20.568   1.908
56164W        W24637  14.260  30.917   0.919
56165W        W24638  41.308  31.517   3.208
56166W        W24639  34.926  13.148  12.022
56167W        W24640  42.998  37.560   4.349
56168W        W24641   8.232  40.035  12.511
56169W        W24642  18.266   4.361   3.313
56170W        W24643  31.084  43.841   1.410
56171W        W24644  43.880  27.972   3.867
56172W        W24645  18.701  35.942  14.985
56173W        W24646  11.324  24.603   9.501
56174W        W24647  16.680  24.658   4.210
56175W        W24648  44.287  37.082  13.968
56176W        W24649  27.099   0.933   0.364
56177W        W24650  16.141  21.027  10.476
56178W        W24651  32.401  30.982   2.236
56179W        W24652  44.873  14.697  11.473
56180W        W24653  15.730  18.703  10.989
56181W        W24654  27.577  12.622  14.514
56182W        W24655  17.763  36.485  13.878
56183W        W24656  42.011  41.865  13.919
56184W        W24657  36.513  13.714   0.897
56185W        W24658  34.559  18.225  10.900
56186W        W24659  30.538  12.695  13.817
56187W        W24660   9.174  24.974  13.469
56188W        W24661  21.260   3.416   1.919
56189W        W24662  15.301  37.387  11.021
56190W        W24663  19.173  15.752  13.542
56191W        W24664   4.838  23.500   3.838
56192W        W24665   3.715  33.094  14.433
56193W        W24666  28.508  43.412  10.972
56194W        W24667   3.354   3.711  12.890
56195W        W24668  12.358  17.684  11.987
56196W        W24669   1.415  29.946  12.439
56197W        W24670  20.034   5.195   3.296
56198W        W24671  20.062  40.930  11.011
56199W        W24672   4.915  18.113  13.024
56200W        W24673  26.574  44.476   0.941
56201W        W24674  28.089   3.241   5.196
56202W        W24675  32.427  41.957   9.991
56203W        W24676  40.010   1.767   4.346
56204W        W24677  37.416  21.573  12.376
56205W        W24678  31.970  41.300  11.432
56206W        W24679  36.968  33.545   1.376
56207W        W24680  35.908  12.300  14.318
56208W        W24681  19.117  15.236  14.450
56209W        W24682  15.804  40.391   1.837
56210W        W24683  29.100  25.612  10.628
56211W        W24684  22.593   4.305   3.241
56212W        W24685  32.435  10.833   3.795
56213W        W24686  41.861   8.406   0.472
56214W        W24687  17.751  23.120  13.964
56215W        W24688  19.565  41.451  10.409
56216W        W24689   4.351   0.255  14.306
56217W        W24690   9.156  21.688  11.423
56218W        W24691  28.174   1.280  14.782
56219W        W24692  34.524  39.526  14.966
56220W        W24693   6.774  15.764  12.022
56221W        W24694  42.777  37.901  11.499
56222W        W24695   8.175  18.606   0.805
56223W        W24696  24.121  18.229  13.315
56224W        W24697  36.470  32.067   9.991
56225W        W24698  31.639  28.946   3.268
56226W        W24699  11.707   8.727  10.928
56227W        W24700  38.915  25.492   3.205
56228W        W24701   9.237  42.991   2.831
56229W        W24702   7.873  41.454  13.989
56230W        W24703  30.572  44.341   4.778
56231W        W24704  32.130  38.058  14.782
56232W        W24705   4.248  13.125   1.715
56233W        W24706  18.701  28.540   1.755
56234W        W24707  20.218  32.605  13.546
56235W        W24708   2.260  44.795  14.351
56236W        W24709  32.084  37.938   1.245
56237W        W24710  23.177  10.224  11.106
56238W        W24711  29.096  20.268   1.878
56239W        W24712  11.663  30.499  14.881
56240W        W24713  31.919  41.386  12.945
56241W        W24714  10.153   6.337   1.828
56242W        W24715   7.358   4.891   4.189
56243W        W24716  11.212  17.766  10.420
56244W        W24717   9.733   8.405  12.480
56245W        W24718  39.360  42.846  13.346
56246W        W24719  37.966  31.492  11.439
56247W        W24720  19.281  12.799   4.599
56248W        W24721   3.819  28.613   3.815
56249W        W24722  37.347   7.884   1.711
56250W        W24723  39.380  31.451   2.265
56251W        W24724   1.411  16.179   0.422
56252W        W24725  31.574  31.586  11.611
56253W        W24726  12.130  23.538  10.439
56254W        W24727  10.358  34.899   2.886
56255W        W24728  34.039  10.760  10.925
56256W        W24729  34.428   9.351  13.479
56257W        W24730   5.702  14.756   1.835
56258W        W24731  37.063  26.987  11.610
56259W        W24732  12.247  42.373   2.796
56260W        W24733   3.400  43.992  13.916
56261W        W24734  33.039  11.320   2.353
56262W        W24735   5.791  38.937   0.290
56263W        W24736   1.768  16.174  14.392
56264W        W24737  25.001  12.255  10.967
56265W        W24738  36.508  15.156   4.271
56266W        W24739  29.054  15.650   1.883
56267W        W24740  28.520   2.420  10.570
56268W        W24741  10.354  38.343  13.039
56269W        W24742  25.582  15.794  14.762
56270W        W24743  35.501   6.698  12.387
56271W        W24744  36.499  28.530  13.857
56272W        W24745  19.121   2.400  12.064
56273W        W24746   7.362   7.688   4.165
56274W        W24747  41.389  39.889  11.380
56275W        W24748  40.485   2.353   0.835
56276W        W24749  15.250  26.548  12.860
56277W        W24750  42.483  29.576  14.981
56278W        W24751  33.522  27.450   4.343
56279W        W24752  20.259   9.791  14.816
56280W        W24753  12.149  27.135  11.035
56281W        W24754  38.993  42.866   4.304
56282W        W24755  20.626  31.074  10.642
56283W        W24756  43.358  27.039  11.491
56284W        W24757  23.992  37.917  12.844
56285W        W24758  17.656  24.224   3.194
56286W        W24759  43.826  15.147  11.490
56287W        W24760  37.069  41.005  11.609
56288W        W24761  23.241   4.380  13.388
56289W        W24762  30.452  26.987   4.289
56290W        W24763  32.432  13.304   3.152
56291W        W24764  10.705  24.978  14.961
56292W        W24765  33.566   0.912  14.426
56293W        W24766  21.165  29.975   3.240
56294W        W24767  37.568  36.080   0.829
56295W        W24768   9.237  33.397   3.706
56296W        W24769  26.197  40.865   1.932
56297W        W24770  37.478  20.237   3.231
56298W        W24771   1.385   6.239  10.509
56299W        W24772  18.197   4.847   4.236
56300W        W24773  37.868  23.999   4.687
56301W        W24774  10.271  43.469   4.234
56302W        W24775  23.601  14.600  10.895
56303W        W24776  26.666   9.802   4.210
56304W        W24777  15.603  33.407   2.693
56305W        W24778   4.847  18.296  14.377
56306W        W24779  18.770   6.728  13.979
56307W        W24780  18.147  23.663   2.686
56308W        W24781  37.924  17.739  10.999
56309W        W24782  24.561  27.023   1.844
56310W        W24783  21.103  37.428   4.246
56311W        W24784  36.921  13.677   1.776
56312W        W24785  40.890  28.487  11.995
56313W        W24786  22.555  19.148  11.426
56314W        W24787  27.502   1.931  12.874
56315W        W24788  32.530  32.464   0.332
56316W        W24789  13.286  32.101   4.670
56317W        W24790  15.257  42.958   2.362
56318W        W24791  36.974  42.897   5.321
56319W        W24792   2.851  17.222  12.949
56320W        W24793   9.150  24.021   1.750
56321W        W24794   7.798  31.410  12.349
56322W        W24795   7.200  25.056  14.305
56323W        W24796  38.459  24.201  13.504
56324W        W24797  25.673  10.323  11.967
56325W        W24798   4.846   4.268   4.674
56326W        W24799  31.005  26.498  12.073
56327W        W24800  10.672  44.986  12.879
56328W        W24801  14.108  26.494   0.371
56329W        W24802  30.433  29.443   2.233
56330W        W24803  22.711  41.357   5.273
56331W        W24804  22.679   9.852  11.887
56332W        W24805   4.376  16.231  11.482
56333W        W24806  26.001  10.680   3.802
56334W        W24807  24.107  20.222  12.914
56335W        W24808  36.563   4.316  14.363
56336W        W24809  27.659   8.871   1.826
56337W        W24810   7.408  16.298   0.898
56338W        W24811   5.269  21.680   3.178
56339W        W24812  30.570  42.819   3.309
56340W        W24813  10.847  19.664   3.640
56341W        W24814  17.115   4.798  10.969
56342W        W24815  42.923  32.509  14.502
56343W        W24816   1.297   0.404   1.785
56344W        W24817  13.759  14.623   0.335
56345W        W24818  13.268  13.181   3.146
56346W        W24819  11.254  13.338   3.853
56347W        W24820  11.330   1.861   0.333
56348W        W24821   8.383  10.700   1.287
56349W        W24822  28.023   4.246  10.433
56350W        W24823  13.267   6.339  10.609
56351W        W24824  21.067  43.801   0.374
56352W        W24825  28.932  39.477  13.972
56353W        W24826  25.621  40.344  13.014
56354W        W24827   7.710  13.117   1.816
56355W        W24828  26.192   6.264  12.076
56356W        W24829  18.238   4.931   4.832
56357W        W24830  43.790  25.090  13.812
56358W        W24831  23.597   5.373   2.742
56359W        W24832  26.665  16.216  14.375
56360W        W24833   7.417  10.271   1.735
56361W        W24834  33.570  44.997  13.046
56362W        W24835  17.623  44.266   4.198
56363W        W24836  41.470  27.151   4.183
56364W        W24837  11.830  38.539   1.261
56365W        W24838   5.364  13.745   9.575
56366W        W24839   1.775   1.405  10.949
56367W        W24840   1.835  31.579  13.528
56368W        W24841   8.850  11.680   0.434
56369W        W24842  29.000  28.984   2.366
56370W        W24843  26.137  44.775  12.353
56371W        W24844  30.035  41.397   2.700
56372W        W24845  14.688  43.922  12.087
56373W        W24846  36.468  29.492   1.281
56374W        W24847  25.547  32.006  10.893
56375W        W24848   8.716  38.515   1.299
56376W        W24849  36.508   7.320  12.926
56377W        W24850  31.986  28.956   0.374
56378W        W24851   1.434  28.536   3.161
56379W        W24852  33.590  28.160   4.783
56380W        W24853  15.580  19.055   4.720
56381W        W24854  39.862  27.684  12.850
56382W        W24855  14.589  43.876   3.149
56383W        W24856   0.492  33.599   4.136
56384W        W24857  31.030   6.318  13.063
56385W        W24858   6.756  44.995  14.316
56386W        W24859   7.806   8.834   3.677
56387W        W24860  40.797   4.446  13.856
56388W        W24861  39.463  26.513   4.790
56389W        W24862  43.974  11.159  10.579
56390W        W24863  36.512   7.264   2.370
56391W        W24864   5.357   2.366  12.986
56392W        W24865  38.337  27.969   1.271
56393W        W24866   2.302  16.683   2.284
56394W        W24867   5.778  20.623  14.876
56395W        W24868   4.279  39.407   2.902
56396W        W24869  35.862  30.918   3.367
56397W        W24870  44.920  25.696  13.374
56398W        W24871  40.322  32.479  11.119
56399W        W24872  41.943   3.798  12.394
56400W        W24873  34.454   9.251  14.468
56401W        W24874  33.987  42.980   0.938
56402W        W24875  23.608  20.531   1.258
56403W        W24876  20.594   6.809   4.657
56404W        W24877  29.445  24.167   2.842
56405W        W24878  25.201   3.782  12.829
56406W        W24879  15.768   4.225  14.908
56407W        W24880  37.445   8.324  14.388
56408W        W24881  41.981  44.766   4.329
56409W        W24882  26.671  44.399  11.887
56410W        W24883  36.041   6.337  10.975
56411W        W24884  37.506  12.846  13.965
56412W        W24885  40.871  19.673   3.670
56413W        W24886   2.234   5.871   4.709
56414W        W24887  31.014  40.479  14.832
56415W        W24888  24.202   0.433  11.856
56416W        W24889  34.424  18.751   3.269
56417W        W24890   3.416  24.548  12.034
56418W        W24891  39.435   8.772   0.383
56419W        W24892  44.502  39.454   9.936
56420W        W24893  33.625  15.123   5.102
56421W        W24894   9.250  27.050   0.752
56422W        W24895   6.247   8.190   4.614
56423W        W24896   7.175  14.305  11.471
56424W        W24897   3.299  21.737  13.891
56425W        W24898  39.343  31.531  13.340
56426W        W24899   3.946  29.537   3.781
56427W        W24900  40.372  12.123  10.513
56428W        W24901  28.163  26.474   3.309
56429W        W24902  22.135  24.660  12.536
56430W        W24903  22.744  12.287   0.749
56431W        W24904  22.106  36.926  12.825
56432W        W24905  33.876  37.006  12.564
56433W        W24906   4.770  12.171  11.020
56434W        W24907  39.033  42.942  11.929
56435W        W24908  43.831  25.056  12.435
56436W        W24909  30.455  32.104  13.848
56437W        W24910  21.740  41.886  12.918
56438W        W24911  17.105  18.203  10.992
56439W        W24912  31.546  23.093   1.379
56440W        W24913  19.265  29.962  12.565
56441W        W24914  38.917   4.705   1.906
56442W        W24915   4.800  24.688  12.008
56443W        W24916  37.843   3.283   2.224
56444W        W24917  34.511   2.953  11.505
56445W        W24918  11.821   9.264  14.299
56446W        W24919  28.940  20.179  13.007
56447W        W24920  18.085  10.664  14.309
56448W        W24921  19.140   9.310   3.168
56449W        W24922  39.383  31.436   0.847
56450W        W24923  18.197   9.889   3.705
56451W        W24924  14.748  18.137  13.872
56452W        W24925  10.752  26.983   0.424
56453W        W24926  21.242   5.765  10.150
56454W        W24927   6.216  10.137   1.813
56455W        W24928  31.466  11.698  12.906
56456W        W24929  26.549  11.317   4.123
56457W        W24930  43.911  39.957   2.372
56458W        W24931  39.927  32.450  10.499
56459W        W24932   8.800  25.510  12.438
56460W        W24933   6.741   7.366   1.744
56461W        W24934  19.173   3.908  11.045
56462W        W24935   6.714  18.268  13.436
56463W        W24936  21.569  12.638   5.682
56464W        W24937  32.938  37.461  10.981
56465W        W24938  22.164  28.478  10.114
56466W        W24939  36.931   4.314  12.873
56467W        W24940  12.732  36.540   0.896
56468W        W24941  21.036   9.280  14.007
56469W        W24942  30.061  32.035   1.320
56470W        W24943  37.531  23.150  14.787
56471W        W24944  20.170   7.891  14.323
56472W        W24945   0.415  11.329  14.507
56473W        W24946   2.268  12.617   5.180
56474W        W24947  20.077   8.264  12.030
56475W        W24948  27.651  42.464  10.498
56476W        W24949  34.028  29.658  10.949
56477W        W24950   5.855  29.168   4.654
56478W        W24951  16.740  35.396  10.950
56479W        W24952  17.213  28.666   4.788
56480W        W24953  35.573  26.515   1.866
56481W        W24954   6.304  21.070   3.374
56482W        W24955   6.265   4.799   3.715
56483W        W24956  17.196  30.587   2.691
56484W        W24957  27.107  38.403  11.119
56485W        W24958  17.738  43.488  10.632
56486W        W24959  25.018  30.039   4.350
56487W        W24960  23.697  43.492   4.780
56488W        W24961  23.497   3.319   1.236
56489W        W24962  10.179   9.680   0.459
56490W        W24963  36.561   6.332   3.165
56491W        W24964  22.712  16.773   1.811
56492W        W24965   9.224  34.410  11.495
56493W        W24966  35.898  27.603  12.416
56494W        W24967  30.518  21.046   2.883
56495W        W24968  40.797  29.046  11.568
56496W        W24969  27.971  21.587  14.415
56497W        W24970  31.967  11.177  11.585
56498W        W24971  13.714   8.214   4.785
56499W        W24972  36.851  14.785  10.964
56500W        W24973  38.000  44.786   1.364
56501W        W24974  44.315   3.410  11.526
56502W        W24975  34.516   6.328  10.467
56503W        W24976  38.905  32.578   4.715
56504W        W24977  32.616   7.210   3.847
56505W        W24978  15.666  20.758  12.048
56506W        W24979  23.015  32.574   4.674
56507W        W24980   4.419  37.549   2.280
56508W        W24981   0.369  44.338  10.412
56509W        W24982  11.373  42.844   3.368
56510W        W24983  14.195  31.611   0.277
56511W        W24984  22.671  25.067  11.858
56512W        W24985   8.836  31.993   4.236
56513W        W24986  44.842  40.510   2.187
56514W        W24987  11.791  17.679   4.258
56515W        W24988  32.127  24.622  12.905
56516W        W24989  18.239   9.721  14.373
56517W        W24990  19.622  12.262   3.161
56518W        W24991  31.410  42.827  13.514
56519W        W24992  40.850  22.997  10.934
56520W        W24993  30.120   5.926  12.477
56521W        W24994  14.671  13.815  10.579
56522W        W24995  29.951   0.296  10.522
56523W        W24996  13.303   6.309  11.068
56524W        W24997   0.826  18.676  12.023
56525W        W24998  30.655  16.193  14.439
56526W        W24999   4.809  10.150  10.138
56527W        W25000   9.779   5.433   3.695
56528W        W25001  12.272   9.379   0.758
56529W        W25002   4.716   0.423  13.376
56530W        W25003  43.387  27.160  10.578
56531W        W25004  28.586  21.750   2.851
56532W        W25005  26.619  10.646   4.626
56533W        W25006  27.562   0.981   0.476
56534W        W25007   6.735  31.450  11.958
56535W        W25008   0.887   4.846   2.786
56536W        W25009  32.615  32.011   4.297
56537W        W25010  26.462  37.903  14.869
56538W        W25011   3.784  28.074   3.787
56539W        W25012  44.913  36.002  14.863
56540W        W25013  33.382  18.596  11.044
56541W        W25014  33.603  15.643   3.321
56542W        W25015  18.197  31.413  10.408
56543W        W25016   8.896  33.508  13.425
56544W        W25017  28.946  12.228   3.677
56545W        W25018   9.850  12.312   3.386
56546W        W25019   4.393   1.933  11.440
56547W        W25020  27.447  24.647  11.889
56548W        W25021  17.720  24.087  11.978
56549W        W25022   4.213  31.011  14.919
56550W        W25023  42.488  37.857   2.775
56551W        W25024  31.440  32.468  13.541
56552W        W25025  20.067   6.750   1.215
56553W        W25026  27.970  44.472  13.548
56554W        W25027  19.134  24.130   0.844
56555W        W25028   6.741  30.561  13.367
56556W        W25029  36.477  31.579  13.527
56557W        W25030   1.359  29.062  14.315
56558W        W25031  12.620  35.435   1.356
56559W        W25032   4.422  28.167  11.098
56560W        W25033  10.268  17.589   2.681
56561W        W25034  12.235  44.329  10.561
56562W        W25035  30.502  36.041   1.300
56563W        W25036  31.114  38.352  10.568
56564W        W25037  18.174  15.625  14.994
56565W        W25038  26.078  26.490   3.670
56566W        W25039   6.421  39.400  12.942
56567W        W25040   3.422  13.118   2.355
56568W        W25041  33.434  35.446  14.839
56569W        W25042  21.627  40.026  13.869
56570W        W25043  39.362  29.169  12.056
56571W        W25044  43.865  18.289   1.906
56572W        W25045  33.531  31.004  14.941
56573W        W25046  15.133  34.583  10.442
56574W        W25047  34.992  40.991   4.607
56575W        W25048  31.077  30.022   0.287
56576W        W25049  35.526  39.329   2.892
56577W        W25050  33.990  13.707  11.896
56578W        W25051  14.174  24.140  12.510
56579W        W25052   7.179  13.690  11.446
56580W        W25053   2.790  33.938  11.552
56581W        W25054  12.216  31.550  12.431
56582W        W25055  24.150  15.224   5.288
56583W        W25056  10.840  27.481   0.286
56584W        W25057  32.092  26.048   2.219
56585W        W25058   9.322  11.312  12.851
56586W        W25059  39.853   4.888  12.021
56587W        W25060  33.488  29.159  11.417
56588W        W25061  27.628  18.085   3.737
56589W        W25062  36.939   3.750   0.789
56590W        W25063  19.051  12.343   2.264
56591W        W25064   8.395  17.182  12.937
56592W        W25065   5.699  39.492  10.932
56593W        W25066   0.367  35.974   2.708
56594W        W25067  39.979  19.632  14.452
56595W        W25068  21.525   4.271  13.420
56596W        W25069  23.166  10.323   4.251
56597W        W25070   4.377  39.031  10.410
56598W        W25071  30.002  13.735  11.492
56599W        W25072  41.351  24.569  14.507
56600W        W25073  39.983  44.498  12.077
56601W        W25074  10.354  10.835  13.869
56602W        W25075   9.710  30.575  11.093
56603W        W25076  17.646  19.656  11.916
56604W        W25077   4.294  36.416   1.321
56605W        W25078   9.655  12.142  13.806
56606W        W25079  34.992   0.314  14.007
56607W        W25080  15.091  31.121   0.404
56608W        W25081  40.020  34.399  13.493
56609W        W25082  38.412  16.118  11.036
56610W        W25083  18.630  24.164  14.476
56611W        W25084  44.879  33.028   0.260
56612W        W25085  32.952  18.768   2.731
56613W        W25086  20.731  25.661  11.023
56614W        W25087   9.283  37.881   4.269
56615W        W25088   3.250  25.055   1.701
56616W        W25089  31.038  15.103   2.753
56617W        W25090  37.555  42.005   3.791
56618W        W25091  34.081  25.678   0.483
56619W        W25092  34.467  11.665  13.512
56620W        W25093   9.390  44.953  11.568
56621W        W25094  25.528  42.515  10.601
56622W        W25095  14.312  29.049  13.455
56623W        W25096   1.242  19.721   0.470
56624W        W25097  11.712  11.623   0.735
56625W        W25098  31.107   5.701   2.309
56626W        W25099  23.629   0.449  13.981
56627W        W25100  12.725   8.312   1.703
56628W        W25101  27.675  13.142   0.352
56629W        W25102   3.372  22.006   4.628
56630W        W25103  11.719  17.214  12.833
56631W        W25104   9.150   8.881   3.176
56632W        W25105  29.969  41.438   3.330
56633W        W25106  33.963  14.218  12.516
56634W        W25107  16.128  29.986  11.523
56635W        W25108   8.758  27.158   4.703
56636W        W25109  12.204  23.066   0.801
56637W        W25110  29.601   5.721  13.917
56638W        W25111  15.214  28.070  13.922
56639W        W25112   1.936  35.377  11.433
56640W        W25113  17.789  44.000   1.779
56641W        W25114  43.885  19.130   0.468
56642W        W25115   0.271  37.564   2.299
56643W        W25116  37.928  42.956   4.192
56644W        W25117  25.169  33.515  12.000
56645W        W25118  28.135   4.791  12.092
56646W        W25119   3.905   7.258  11.993
56647W        W25120  40.519  14.114  13.850
56648W        W25121   6.785  40.929   4.757
56649W        W25122   8.768  30.147  10.992
56650W        W25123   3.454  23.649   2.259
56651W        W25124  14.257  40.444   1.395
56652W        W25125  34.889  14.796  13.974
56653W        W25126  27.543   5.760   1.891
56654W        W25127  12.767  27.635   2.751
56655W        W25128  30.568  40.831   0.476
56656W        W25129   0.446  40.879  14.364
56657W        W25130  17.635  14.737   3.373
56658W        W25131  26.608  14.831   0.842
56659W        W25132  34.552  14.112  11.411
56660W        W25133  34.865  15.725  13.911
56661W        W25134  24.635  28.118  12.847
56662W        W25135  17.142  33.102  10.959
56663W        W25136   3.858  37.951  11.490
56664W        W25137  38.529  27.690  14.929
56665W        W25138  26.659   9.351  11.557
56666W        W25139  40.454   0.457  11.432
56667W        W25140   0.924  32.935  12.428
56668W        W25141  33.481   2.748   3.327
56669W        W25142   4.401   9.745  13.804
56670W        W25143  33.617  20.175   3.851
56671W        W25144  28.029  25.009  12.943
56672W        W25145  11.332  23.197   5.315
56673W        W25146  30.950   0.903  11.085
56674W        W25147  23.112  23.695  14.930
56675W        W25148  21.143  31.634  11.859
56676W        W25149   2.451   4.339   3.760
56677W        W25150   4.381  37.057  14.484
56678W        W25151  23.543  20.115  13.987
56679W        W25152  24.080   3.889   1.278
56680W        W25153  27.987  20.136   3.866
56681W        W25154   3.440  21.045   1.718
56682W        W25155  38.029  39.331   1.283
56683W        W25156  37.863  41.349   5.126
56684W        W25157  39.468  33.092  11.932
56685W        W25158  23.494   8.855  11.410
56686W        W25159  21.140   0.363  10.569
56687W        W25160  40.311  37.489  10.031
56688W        W25161   7.201  40.916   1.933
56689W        W25162  35.017  15.808   0.745
56690W        W25163   9.201   5.818  13.917
56691W        W25164  23.992  34.563   1.363
56692W        W25165  21.230  15.654   1.784
56693W        W25166  44.805  39.843  12.360
56694W        W25167   3.388  30.022   4.284
56695W        W25168  26.040  17.794  12.487
56696W        W25169  30.650  19.242   2.673
56697W        W25170  38.437  42.372  10.551
56698W        W25171   0.408  21.095  11.391
56699W        W25172  13.151  24.045  14.984
56700W        W25173  31.601  21.750   1.215
56701W        W25174   4.856   3.862  10.636
56702W        W25175  27.100  42.395   2.407
56703W        W25176  11.665   5.892   3.326
56704W        W25177  18.105  32.007   1.295
56705W        W25178   1.856  38.066  11.535
56706W        W25179  37.437   6.383   4.741
56707W        W25180   3.779  37.382  14.835
56708W        W25181  15.203  33.909   0.273
56709W        W25182  15.192  16.738   0.781
56710W        W25183  20.046  34.564   3.257
56711W        W25184  27.628  14.177   0.429
56712W        W25185   6.746  35.105   2.856
56713W        W25186  17.149  30.485  14.424
56714W        W25187   1.393  34.885  13.966
56715W        W25188  21.154  22.192   3.332
56716W        W25189  27.052   4.809   2.781
56717W        W25190   2.745  36.461  10.471
56718W        W25191   5.920  36.958   3.712
56719W        W25192  15.762  22.615  14.332
56720W        W25193  18.064  40.304   4.761
56721W        W25194  16.778  36.025   2.778
56722W        W25195  15.703   2.344  14.909
56723W        W25196  15.745   3.354   4.651
56724W        W25197   5.262  18.151   4.656
56725W        W25198   9.230   2.960   2.302
56726W        W25199  18.777  11.795   3.344
56727W        W25200   1.355  15.310  13.911
56728W        W25201  16.654  37.963   5.278
56729W        W25202  40.396  32.418  10.436
56730W        W25203   5.726  12.713   3.342
56731W        W25204   0.951   3.379  12.918
56732W        W25205  23.562   2.856  12.478
56733W        W25206  13.728   5.753   2.196
56734W        W25207  31.641  18.060  12.855
56735W        W25208  39.329   7.288   4.327
56736W        W25209  40.429  35.374  11.051
56737W        W25210  37.942   3.283   4.791
56738W        W25211  27.556  31.553  13.531
56739W        W25212  18.555   2.358  13.470
56740W        W25213  19.780  34.871  14.477
56741W        W25214  20.221  23.070   2.300
56742W        W25215  31.532  15.654   0.460
56743W        W25216   5.879  19.260  12.436
56744W        W25217  35.412  43.812   3.750
56745W        W25218  24.005   0.339  12.951
56746W        W25219  18.187  35.931  12.408
56747W        W25220  41.874  32.955  11.518
56748W        W25221  42.450  43.436   1.415
56749W        W25222  21.515  23.114   1.260
56750W        W25223  30.039  20.589   4.144
56751W        W25224  25.682  32.623  13.885
56752W        W25225  31.424  38.339   2.236
56753W        W25226  36.452  38.560  11.562
56754W        W25227   1.935  27.540   1.246
56755W        W25228  19.113   9.705   4.198
56756W        W25229  27.451  24.701   0.730
56757W        W25230  13.793   7.209   0.750
56758W        W25231  27.129  14.191  12.854
56759W        W25232  43.309  43.799  13.791
56760W        W25233   8.216  29.507   1.738
56761W        W25234  37.552  40.334  12.495
56762W        W25235  14.232  30.488  13.843
56763W        W25236  14.284   7.195  10.541
56764W        W25237  16.609  18.132   4.698
56765W        W25238   7.811   2.446  12.384
56766W        W25239  37.510  44.928   3.637
56767W        W25240  34.432  28.932   3.820
56768W        W25241  20.197   8.896   2.808
56769W        W25242  35.066  38.413   0.780
56770W        W25243  42.472  20.173   1.333
56771W        W25244  26.591   2.379   4.815
56772W        W25245  13.127  42.416  13.388
56773W        W25246  40.530   1.323   2.253
56774W        W25247   1.816   9.270  13.540
56775W        W25248  12.335  11.346  11.007
56776W        W25249  36.036  29.041  12.552
56777W        W25250   7.725   7.309   0.267
56778W        W25251  40.822  43.491   1.917
56779W        W25252  31.114   3.906  12.945
56780W        W25253  30.092   2.952  12.429
56781W        W25254   7.707  10.173   0.292
56782W        W25255  34.553   9.196  14.919
56783W        W25256  20.626   9.356   2.192
56784W        W25257  30.513  24.987  14.825
56785W        W25258  23.101  23.642  12.412
56786W        W25259  22.126  25.567  13.914
56787W        W25260  14.706  41.301   2.319
56788W        W25261  24.066  14.330   1.753
56789W        W25262  30.999  44.994   1.741
56790W        W25263  10.275  16.236  12.833
56791W        W25264  24.179   5.392   0.376
56792W        W25265   9.359  25.511   2.230
56793W        W25266   0.939  21.604  10.899
56794W        W25267  15.319  33.875   0.909
56795W        W25268  25.166  10.164  12.477
56796W        W25269  36.994  17.084  11.542
56797W        W25270  30.912  34.979   3.833
56798W        W25271  14.780   8.671   4.675
56799W        W25272  15.725  38.459  11.019
56800W        W25273  25.061  37.991  14.328
56801W        W25274   8.368  20.622   1.900
56802W        W25275   5.826   2.469  12.889
56803W        W25276  31.432  21.540  12.356
56804W        W25277  30.078  36.583   2.874
56805W        W25278   1.452   7.392   3.275
56806W        W25279  41.005   2.312   2.334
56807W        W25280  12.133  35.529  12.906
56808W        W25281  24.211  35.373  10.910
56809W        W25282   1.914  44.940   0.404
56810W        W25283   3.723   6.383  14.765
56811W        W25284   4.403  15.308  11.572
56812W        W25285  32.625  41.982  12.399
56813W        W25286  32.434  20.075  12.532
56814W        W25287  14.314  23.703  14.937
56815W        W25288   4.843  35.903   1.300
56816W        W25289  26.546  15.806  12.528
56817W        W25290   6.720  34.444   1.869
56818W        W25291  19.751  37.398  11.482
56819W        W25292  33.054  40.915   2.338
56820W        W25293   5.236  25.479   2.209
56821W        W25294  31.905  16.676  11.935
56822W        W25295  11.692  40.504   5.286
56823W        W25296  22.092  37.435   2.279
56824W        W25297  17.222  24.223   2.750
56825W        W25298  44.926  30.505   4.620
56826W        W25299  25.031  19.235   4.310
56827W        W25300  37.355   8.869   2.900
56828W        W25301  34.546  21.227  11.971
56829W        W25302  25.095  29.542  11.566
56830W        W25303  32.424  13.663  12.434
56831W        W25304  39.483   0.877   0.880
56832W        W25305  32.530  33.038  11.524
56833W        W25306  18.615  35.999   4.812
56834W        W25307  24.085   8.689  13.905
56835W        W25308  37.566  12.117   2.419
56836W        W25309  44.777  38.847  10.493
56837W        W25310  24.588  32.468   2.796
56838W        W25311  37.538  22.716  13.030
56839W        W25312  22.534  33.019   3.761
56840W        W25313  13.654  26.086  14.350
56841W        W25314  15.229  38.046  13.041
56842W        W25315   6.858  29.119   3.805
56843W        W25316  34.996  39.492  11.551
56844W        W25317  23.190  39.982  12.555
56845W        W25318  38.977  43.844  11.519
56846W        W25319  42.306  10.686   4.814
56847W        W25320  29.504   5.813  10.558
56848W        W25321  34.517  22.240  12.354
56849W        W25322  19.693  20.648   1.761
56850W        W25323  38.980  27.109   4.229
56851W        W25324  15.237  23.168   2.276
56852W        W25325  22.194   5.822   0.339
56853W        W25326  20.161   5.708   3.214
56854W        W25327   6.768   2.905  10.891
56855W        W25328  25.664   0.344   2.813
56856W        W25329  35.452  21.748  14.284
56857W        W25330  26.097  30.503   0.412
56858W        W25331  10.807  44.957  10.905
56859W        W25332  15.746  24.189   3.341
56860W        W25333  10.852  15.117  12.951
56861W        W25334  27.601   6.416  10.476
56862W        W25335  13.639  22.723   2.325
56863W        W25336  35.101  25.203   0.921
56864W        W25337  35.379  35.431  10.941
56865W        W25338  35.864   9.394   2.398
56866W        W25339  32.485  43.484   2.407
56867W        W25340  12.332  19.767  11.876
56868W        W25341  10.381  13.263   2.212
56869W        W25342  39.816  37.478   1.789
56870W        W25343  34.510  28.659  13.994
56871W        W25344  16.149  31.570  11.505
56872W        W25345  24.561   4.782   4.232
56873W        W25346  34.941  32.534  12.042
56874W        W25347   0.269  22.047  10.923
56875W        W25348  43.889  33.583   1.252
56876W        W25349   2.392  30.456  10.407
56877W        W25350  36.890   1.746  11.473
56878W        W25351  39.813  25.614  12.431
56879W        W25352  28.680  14.287   4.713
56880W        W25353  39.442  37.359   2.417
56881W        W25354  35.509   3.752  12.521
56882W        W25355  35.426  15.301  13.870
56883W        W25356  37.003  26.559   3.331
56884W        W25357  22.717  25.647   2.846
56885W        W25358  30.018  22.548   4.833
56886W        W25359  28.968  36.078   3.749
56887W        W25360  33.408  12.733   1.750
56888W        W25361  37.021  19.227  13.413
56889W        W25362  24.620   3.444   4.329
56890W        W25363  17.286   3.314  14.918
56891W        W25364  23.595  37.561   0.739
56892W        W25365  24.626  29.581   3.834
56893W        W25366  36.462  30.624   2.685
56894W        W25367  27.464  26.476   1.696
56895W        W25368   9.253  25.701   1.442
56896W        W25369  24.133  34.987   1.789
56897W        W25370  38.987  28.048  13.898
56898W        W25371   2.465   5.434  11.480
56899W        W25372   1.435   8.210  12.889
56900W        W25373  34.935  23.995  13.022
56901W        W25374  38.909  36.017  13.919
56902W        W25375   0.252  33.904   2.362
56903W        W25376  38.054   7.209  12.021
56904W        W25377   6.708  37.949   0.472
56905W        W25378  14.176   7.216   2.235
56906W        W25379  38.067   5.203  11.409
56907W        W25380   3.827  13.122   2.691
56908W        W25381  24.614  17.137  14.967
56909W        W25382  15.117  24.160  11.582
56910W        W25383  22.246  43.406   4.168
56911W        W25384   3.909   0.285   1.282
56912W        W25385  14.646  12.744   1.873
56913W        W25386  27.619  30.545   3.791
56914W        W25387   8.233   7.769  11.588
56915W        W25388  32.509   8.825  13.023
56916W        W25389  14.751  32.627  13.519
56917W        W25390  21.054   4.742  13.061
56918W        W25391   3.264  11.629   0.455
56919W        W25392  32.488   9.693  12.923
56920W        W25393   1.814   8.791   0.407
56921W        W25394   9.835  38.895  12.972
56922W        W25395   9.777   1.821  11.564
56923W        W25396  29.629  43.956  11.593
56924W        W25397  27.491   1.839   0.410
56925W        W25398  43.295  38.020   3.261
56926W        W25399  22.141  30.971  11.537
56927W        W25400  26.511   2.814  14.498
56928W        W25401  21.667  14.590   4.336
56929W        W25402   2.294  21.121   9.999
56930W        W25403  33.396  21.193   0.301
56931W        W25404  35.482   6.806  14.515
56932W        W25405  43.824  12.769   4.164
56933W        W25406  21.532  33.412  14.988
56934W        W25407  29.035  29.561   4.781
56935W        W25408  18.099  18.731  11.014
56936W        W25409  21.106  43.815   4.760
56937W        W25410  23.151  41.844   2.294
56938W        W25411   4.734  12.766   5.200
56939W        W25412  14.698  17.606  12.497
56940W        W25413   8.326   1.319   4.732
56941W        W25414  38.945  30.487   2.304
56942W        W25415  32.993   1.311  10.980
56943W        W25416  24.697   3.371  10.596
56944W        W25417  44.348  31.422  12.399
56945W        W25418  12.813  22.693  11.557
56946W        W25419  34.920   1.802  13.799
56947W        W25420  21.105   9.393   0.901
56948W        W25421  35.374   0.926  13.853
56949W        W25422  19.702  25.656   4.812
56950W        W25423  34.103   2.788  11.945
56951W        W25424  26.457  14.704   3.747
56952W        W25425  20.674  13.243  13.316
56953W        W25426  43.308  23.156  12.005
56954W        W25427   6.768   2.313  11.106
56955W        W25428  41.443   2.913  14.767
56956W        W25429  17.787  44.775  12.430
56957W        W25430   4.278  23.660  12.533
56958W        W25431  33.951  11.786  10.053
56959W        W25432  38.026  15.222   0.386
56960W        W25433  15.775  34.966  14.504
56961W        W25434  37.886  26.460  10.956
56962W        W25435  36.000   3.345   0.751
56963W        W25436  22.025   7.858  12.059
56964W        W25437   2.377  26.106  10.567
56965W        W25438  42.010  25.566   3.165
56966W        W25439  37.354  11.271  11.416
56967W        W25440  24.170  39.990   2.886
56968W        W25441  19.112  44.345  12.850
56969W        W25442   4.450   3.236   3.820
56970W        W25443  24.151  21.187   0.245
56971W        W25444  22.675   9.327  12.891
56972W        W25445  26.061  19.573  13.398
56973W        W25446  16.136  23.051  13.504
56974W        W25447  40.823  15.152   1.338
56975W        W25448  11.790  29.514   4.759
56976W        W25449  26.549   4.412   0.351
56977W        W25450  32.620  20.544  13.536
56978W        W25451  25.155  22.698  14.029
56979W        W25452  19.656  16.169  12.887
56980W        W25453  25.140  33.113  11.941
56981W        W25454  31.508  21.074  12.506
56982W        W25455  29.432  42.953  11.415
56983W        W25456  13.820  25.062   0.833
56984W        W25457   8.280  18.258  13.418
56985W        W25458  26.640   6.199   4.791
56986W        W25459  14.744  34.935  13.015
56987W        W25460   1.895  13.287  13.006
56988W        W25461   8.342  12.149   1.309
56989W        W25462   1.963  22.698   4.239
56990W        W25463   6.734  27.624   4.271
56991W        W25464  11.222  39.059  13.978
56992W        W25465  27.075  18.193  14.828
56993W        W25466   3.886  42.905   4.231
56994W        W25467  33.467  18.773   4.126
56995W        W25468  35.104   1.242   4.178
56996W        W25469  41.961  15.187  12.041
56997W        W25470  43.368  22.097   1.698
56998W        W25471  31.416  33.608  14.960
56999W        W25472  31.012  31.139   1.373
57000W        W25473  36.506  12.808   2.713
57001W        W25474  36.549  30.024  13.953
57002W        W25475  12.267  12.669  10.463
57003W        W25476  26.586  20.662  14.003
57004W        W25477  15.620   3.334   0.468
57005W        W25478  32.888  19.139  11.882
57006W        W25479   6.304   6.251   0.467
57007W        W25480  34.007  12.754   4.746
57008W        W25481   1.274  31.904  10.626
57009W        W25482  22.185   6.410   1.852
57010W        W25483   3.948  42.928   0.746
57011W        W25484  28.468  16.712   2.861
57012W        W25485  17.569   1.885  12.482
57013W        W25486   9.264  24.031   3.870
57014W        W25487  40.808   7.304  14.364
57015W        W25488  11.298  11.677   3.146
57016W        W25489  37.045  17.690   0.865
57017W        W25490  41.812  18.745   2.791
57018W        W25491  20.201   1.376   3.715
57019W        W25492  31.642  38.029   1.800
57020W        W25493   5.731  36.393   4.758
57021W        W25494   7.308   6.417   3.870
57022W        W25495  19.753  20.274   0.787
57023W        W25496  36.875  25.083   1.319
57024W        W25497  43.005  30.644  12.870
57025W        W25498   3.394  41.939   2.338
57026W        W25499  34.972  29.145   3.824
57027W        W25500  19.191  43.279  13.930
57028W        W25501  31.029  20.583   2.410
57029W        W25502  14.167  42.403  11.050
57030W        W25503  42.382  18.602  13.956
57031W        W25504  11.223  31.597   4.326
57032W        W25505  38.422  27.552  11.501
57033W        W25506  25.146  37.526   4.132
57034W        W25507  41.302  29.527  12.897
57035W        W25508  25.035  26.998   3.298
57036W        W25509  26.191  20.093  13.960
57037W        W25510   5.920  20.236  13.319
57038W        W25511  37.836   3.251  12.377
57039W        W25512  10.698  34.001   4.754
57040W        W25513  27.033   1.393   0.799
57041W        W25514  10.634   9.755  13.021
57042W        W25515  42.866   6.193   3.295
57043W        W25516  15.748   3.773  12.001
57044W        W25517  26.035  13.239   0.943
57045W        W25518  26.055  39.324  12.007
57046W        W25519  32.010  44.433   0.957
57047W        W25520  10.714  33.026   2.363
57048W        W25521  34.439  10.247   2.901
57049W        W25522  38.938   9.670   0.316
57050W        W25523  21.136  22.088  14.309
57051W        W25524  44.375  18.157   3.763
57052W        W25525  23.498  30.621   0.906
57053W        W25526  15.216  11.255   1.252
57054W        W25527   9.268  21.725  12.918
57055W        W25528  20.722   8.759  14.300
57056W        W25529  17.773  42.445  13.889
57057W        W25530  24.516   0.792  12.353
57058W        W25531  27.992  15.211   2.187
57059W        W25532  43.831  31.052  12.824
57060W        W25533  15.693  31.618  12.528
57061W        W25534  15.692  15.192  12.947
57062W        W25535  39.906  27.681  14.439
57063W        W25536  12.643  20.565   4.293
57064W        W25537  32.590  38.463  12.437
57065W        W25538   3.306  42.955  12.865
57066W        W25539  36.938  21.606  13.063
57067W        W25540  12.830  31.918   9.947
57068W        W25541  19.221  16.128  13.331
57069W        W25542  27.056  35.940  10.513
57070W        W25543  31.572  41.016  11.908
57071W        W25544  33.624  13.298  11.599
57072W        W25545   5.427  29.645   3.858
57073W        W25546  16.601  40.418  12.065
57074W        W25547  18.096  44.352   4.833
57075W        W25548   0.821   1.366  11.090
57076W        W25549  40.821  15.685  13.061
57077W        W25550  13.799  39.859   3.787
57078W        W25551  17.635  44.503  11.413
57079W        W25552  33.440  30.930   0.402
57080W        W25553  41.493  34.533  14.495
57081W        W25554  20.210   8.711   3.825
57082W        W25555   6.313  39.851   4.302
57083W        W25556   9.708  37.444   2.335
57084W        W25557   5.208   8.766   0.952
57085W        W25558  25.625  10.818   0.910
57086W        W25559  35.518   8.682   0.280
57087W        W25560  25.474   5.813   2.680
57088W        W25561   4.429  12.297  10.626
57089W        W25562  24.577   3.439  13.835
57090W        W25563  23.117   2.955  12.077
57091W        W25564   0.895  30.467  13.457
57092W        W25565  19.089  11.663  14.324
57093W        W25566   0.908   7.383   4.783
57094W        W25567  35.986  30.465  14.014
57095W        W25568  35.389  43.844  13.415
57096W        W25569  40.309  33.921  11.996
57097W        W25570  22.579  34.467   2.195
57098W        W25571  39.384   1.391   2.767
57099W        W25572  35.562  10.746  11.891
57100W        W25573   7.865  11.756  11.128
57101W        W25574   7.819   9.733  13.015
57102W        W25575  13.720  43.985  11.606
57103W        W25576   1.472  12.627  11.041
57104W        W25577  38.439  33.612   2.846
57105W        W25578  34.569  26.611  13.443
57106W        W25579  36.918  11.152   2.194
57107W        W25580  23.521  22.215  11.045
57108W        W25581   6.317   6.716  12.070
57109W        W25582  16.760  26.550  10.607
57110W        W25583   4.847  28.995  14.871
57111W        W25584  23.135  10.296  10.059
57112W        W25585  23.200  39.020   3.164
57113W        W25586  26.591   0.782   4.637
57114W        W25587  22.073  27.541  12.031
57115W        W25588  26.080   7.751  10.953
57116W        W25589  36.451  36.513   3.311
57117W        W25590   4.930  10.298  13.910
57118W        W25591   6.337  36.045   4.712
57119W        W25592  36.932  16.086   1.253
57120W        W25593  26.983  33.970  14.464
57121W        W25594  44.323   0.481   4.248
57122W        W25595  34.439  25.540   3.328
57123W        W25596  39.932   3.408   2.299
57124W        W25597  22.615  25.667   9.583
57125W        W25598   4.737  39.340   1.720
57126W        W25599  18.736  16.792   1.723
57127W        W25600  41.518  38.411  10.941
57128W        W25601  22.571   8.716   4.720
57129W        W25602  42.460  38.044  13.493
57130W        W25603  26.702  42.791  13.534
57131W        W25604   4.859  36.943   2.832
57132W        W25605  25.185  35.371  11.417
57133W        W25606  40.006  14.696  10.434
57134W        W25607  22.164  43.474  13.357
57135W        W25608  34.870  15.111  14.473
57136W        W25609  16.145  25.682   0.775
57137W        W25610  12.792  35.960  13.360
57138W        W25611  22.617   5.799   0.279
57139W        W25612  18.545  37.399   1.249
57140W        W25613  42.409  24.702  13.946
57141W        W25614  26.611  24.017   3.775
57142W        W25615  42.852   5.299  11.000
57143W        W25616  21.101  21.678   4.292
57144W        W25617  27.603  25.521   0.367
57145W        W25618  15.283  43.436  14.002
57146W        W25619   1.254  24.210  14.353
57147W        W25620   5.214  10.693   1.746
57148W        W25621  23.651  28.135   4.257
57149W        W25622  33.947  23.146   1.884
57150W        W25623  36.016  26.678   2.664
57151W        W25624  11.697  23.024  11.385
57152W        W25625  30.920  33.431   3.340
57153W        W25626   5.345  43.316  13.015
57154W        W25627   4.756  40.861  12.866
57155W        W25628  40.501  18.768  12.500
57156W        W25629  16.785  21.529   3.197
57157W        W25630  13.340  18.672  13.440
57158W        W25631  16.806   3.819  14.773
57159W        W25632  37.568  20.632   0.459
57160W        W25633  10.148   9.744  11.009
57161W        W25634  36.455  13.310  14.919
57162W        W25635  26.643  19.647  10.418
57163W        W25636  22.652  17.774  13.877
57164W        W25637  17.601  43.383   4.736
57165W        W25638  20.251  13.808   4.247
57166W        W25639  18.154  38.851  11.574
57167W        W25640  39.319   8.375  14.959
57168W        W25641  20.189  31.935  13.020
57169W        W25642   7.669  26.648  14.025
57170W        W25643  43.423  22.022   4.821
57171W        W25644  34.587   7.843  11.003
57172W        W25645  29.138  23.203   1.717
57173W        W25646  25.576  14.214   4.333
57174W        W25647  13.148   5.224   4.708
57175W        W25648   4.292  26.567   4.200
57176W        W25649  10.739  38.503   1.709
57177W        W25650  12.673  35.457  12.536
57178W        W25651  26.556   7.906  10.958
57179W        W25652  10.751  20.619   3.280
57180W        W25653  44.906  15.619  11.024
57181W        W25654   1.853   4.358   4.769
57182W        W25655   2.340  36.906  13.474
57183W        W25656  41.002  17.251  11.098
57184W        W25657  32.966  24.550  12.417
57185W        W25658  23.688   7.802   4.781
57186W        W25659  20.063   0.937   5.199
57187W        W25660  23.691  36.875   4.763
57188W        W25661  13.246  24.072  12.911
57189W        W25662  24.158   6.240  13.967
57190W        W25663  36.561  11.309  13.808
57191W        W25664  17.588  31.507  12.913
57192W        W25665  15.157  24.067  10.983
57193W        W25666   7.769  43.017   1.733
57194W        W25667  25.682  41.806  12.869
57195W        W25668  26.017   0.416   2.280
57196W        W25669  33.385   8.227  12.554
57197W        W25670  34.119  43.447   2.255
57198W        W25671  24.653  36.068   4.278
57199W        W25672  41.379  39.491   4.767
57200W        W25673  20.117  35.922  11.859
57201W        W25674  26.672  21.028   4.608
57202W        W25675  40.457  33.015  12.023
57203W        W25676  34.098  27.536   0.266
57204W        W25677  38.018  35.589  13.819
57205W        W25678   5.802  27.580   2.344
57206W        W25679  17.175  15.181   3.751
57207W        W25680  21.577   4.809   3.668
57208W        W25681  33.421  42.459   1.855
57209W        W25682  32.902  25.207  13.005
57210W        W25683  37.027  26.695   1.211
57211W        W25684  29.496  41.404  14.814
57212W        W25685  39.896  24.589   1.887
57213W        W25686  35.879  12.638  10.910
57214W        W25687  44.376  35.443   2.879
57215W        W25688  26.140  42.335  11.026
57216W        W25689  12.760   9.799   0.409
57217W        W25690   4.383  30.478  11.523
57218W        W25691  15.255  15.203  14.293
57219W        W25692  43.995  34.074  13.031
57220W        W25693  37.439   9.331   0.777
57221W        W25694  37.343  22.039  13.508
57222W        W25695  28.059   2.409  14.940
57223W        W25696  15.297  40.391  14.947
57224W        W25697   2.408  38.448  13.815
57225W        W25698  23.155  38.396   1.850
57226W        W25699   6.363   0.429  11.398
57227W        W25700   7.187   4.896   9.962
57228W        W25701  39.815  22.021   3.778
57229W        W25702  37.574  31.557   2.338
57230W        W25703  37.525  26.199   3.366
57231W        W25704   1.434  23.064   3.743
57232W        W25705  33.492  25.149   4.327
57233W        W25706  15.647  20.161  10.121
57234W        W25707  17.196  20.715  12.575
57235W        W25708  34.504  16.103  13.003
57236W        W25709  44.344  36.579  12.869
57237W        W25710  22.153   3.449  10.565
57238W        W25711  21.743  38.852   1.285
57239W        W25712  24.656  38.340  13.499
57240W        W25713  12.812  37.926   3.315
57241W        W25714   5.809  44.434  12.023
57242W        W25715   4.247  37.070   3.864
57243W        W25716   5.347  29.122   4.598
57244W        W25717   6.208  33.113  12.370
57245W        W25718  39.913   4.245  11.965
57246W        W25719  35.045  18.629   4.672
57247W        W25720  17.622   1.478  13.526
57248W        W25721  11.725  10.147  14.312
57249W        W25722   5.742   9.714   4.341
57250W        W25723  32.022  25.143   1.389
57251W        W25724  36.861  32.033   4.651
57252W        W25725  44.868  10.191  10.490
57253W        W25726  12.714   4.927   3.217
57254W        W25727  36.566  16.737  13.016
57255W        W25728  22.101  40.512   0.375
57256W        W25729  11.747  43.839   3.727
57257W        W25730   5.414  15.655   4.741
57258W        W25731  35.869  11.777  14.915
57259W        W25732   1.963  12.257   2.688
57260W        W25733  36.557  41.379  10.490
57261W        W25734   5.329   3.311  14.954
57262W        W25735  34.515  31.616   2.240
57263W        W25736   5.762  41.402   0.410
57264W        W25737   4.899  15.116  11.127
57265W        W25738   7.317  40.532  14.804
57266W        W25739  43.496  39.441  11.491
57267W        W25740   1.929   3.437  12.902
57268W        W25741  12.252   1.821  13.508
57269W        W25742  41.299  25.047   2.357
57270W        W25743   1.925  39.989   4.794
57271W        W25744  36.481  25.487  13.935
57272W        W25745  38.451  24.595   4.305
57273W        W25746  31.060  20.137  10.900
57274W        W25747  34.001   4.778   0.371
57275W        W25748  25.199  12.194   2.405
57276W        W25749  15.700  26.679   0.473
57277W        W25750  25.709  18.096  10.131
57278W        W25751  10.241  24.055  12.907
57279W        W25752  15.108   1.842  13.802
57280W        W25753  44.483  23.496   2.679
57281W        W25754  39.533   7.784   2.181
57282W        W25755   9.725   5.395  14.412
57283W        W25756  32.451  15.652  10.138
57284W        W25757  20.656  16.276   4.253
57285W        W25758  35.524  39.938  12.463
57286W        W25759  16.172  21.743  14.408
57287W        W25760  30.975  34.522  13.361
57288W        W25761  37.503   2.407   5.155
57289W        W25762  16.783  37.516  13.039
57290W        W25763   6.918  44.829   0.331
57291W        W25764  20.769  40.499  11.405
57292W        W25765   8.703  40.545  11.989
57293W        W25766   9.286  41.950  11.937
57294W        W25767  27.493  42.443   0.781
57295W        W25768  28.993  44.348   1.892
57296W        W25769  42.803  16.806  14.385
57297W        W25770  35.431   3.280   4.709
57298W        W25771  28.644   9.663  10.528
57299W        W25772   1.972   6.745   0.298
57300W        W25773  24.155  15.610   3.702
57301W        W25774  39.900  39.459   3.330
57302W        W25775  41.030   8.212   2.840
57303W        W25776  16.642  13.632  14.978
57304W        W25777   1.399  35.431   4.247
57305W        W25778  34.886  28.445   0.331
57306W        W25779  42.502  26.119   0.913
57307W        W25780  12.699  29.067   3.344
57308W        W25781   7.732  37.393   4.219
57309W        W25782  42.314  12.837  13.440
57310W        W25783   8.718  23.112   2.296
57311W        W25784  26.493  21.691   3.838
57312W        W25785  25.053  26.205  13.955
57313W        W25786  16.716   9.244  13.484
57314W        W25787  30.157   6.759  14.457
57315W        W25788  25.150  23.614  11.045
57316W        W25789  42.412  37.520   0.784
57317W        W25790  40.892  41.002   1.275
57318W        W25791   6.276   6.320   4.114
57319W        W25792  22.063  25.567   4.726
57320W        W25793  17.112   8.814   4.601
57321W        W25794  15.618  38.065   1.712
57322W        W25795  20.553  33.598  14.982
57323W        W25796  37.400  13.160  11.905
57324W        W25797  23.065  21.250   4.261
57325W        W25798  12.820  32.438   2.400
57326W        W25799  30.568  27.077  10.544
57327W        W25800  26.028  31.974   2.811
57328W        W25801   6.797  18.084   0.916
57329W        W25802   1.781  31.424   2.714
57330W        W25803   4.882  19.598   2.711
57331W        W25804  13.223   8.703  11.937
57332W        W25805  24.023   7.763   2.320
57333W        W25806  15.146   3.375  11.895
57334W        W25807  16.736   0.494   1.439
57335W        W25808  25.167  21.653   1.363
57336W        W25809  35.593  44.503  14.292
57337W        W25810  18.703   8.211  12.005
57338W        W25811  43.909  38.481  13.004
57339W        W25812  10.708  15.624   4.301
57340W        W25813  13.748  36.037   1.740
57341W        W25814  38.932  16.628  14.412
57342W        W25815   6.259  12.123  11.495
57343W        W25816  41.371  14.181  11.087
57344W        W25817  32.081  26.482   3.807
57345W        W25818  25.073  44.906   1.826
57346W        W25819  27.474   9.321  14.287
57347W        W25820  38.339  23.986   1.752
57348W        W25821  10.784  19.074  10.911
57349W        W25822   8.264   2.928  14.939
57350W        W25823  17.610  31.070   4.655
57351W        W25824  19.574  42.963   0.874
57352W        W25825   7.403   8.255  14.973
57353W        W25826  29.578  43.288  14.293
57354W        W25827  18.548  22.067  13.849
57355W        W25828  28.099   7.184   1.704
57356W        W25829  10.286  18.681  14.480
57357W        W25830  20.230  11.185  10.109
57358W        W25831  27.045  28.041  10.897
57359W        W25832  44.427   1.940   9.929
57360W        W25833  38.530  39.382   2.726
57361W        W25834  41.960   1.948  10.999
57362W        W25835  40.303  16.178  10.639
57363W        W25836   6.785   7.297  13.860
57364W        W25837  27.044  40.309  11.461
57365W        W25838   1.380  11.790   4.320
57366W        W25839   9.202  26.041   9.589
57367W        W25840  29.486  38.449  14.802
57368W        W25841   0.957  11.682   1.721
57369W        W25842  14.817  40.506   4.200
57370W        W25843   8.684  30.514   2.338
57371W        W25844   2.824  36.354  10.890
57372W        W25845   0.844  43.989   4.213
57373W        W25846  19.636   0.487   4.648
57374W        W25847  26.645   1.432  12.545
57375W        W25848   3.303  34.570  14.951
57376W        W25849  33.043   9.713   3.778
57377W        W25850  11.314  25.033  11.560
57378W        W25851  32.479  37.916  14.300
57379W        W25852   5.194  29.432  13.926
57380W        W25853  39.414  15.815  12.383
57381W        W25854  18.701   6.741  11.886
57382W        W25855  29.505  25.211  14.919
57383W        W25856  25.107   1.253   1.431
57384W        W25857  42.342  20.120   2.889
57385W        W25858  27.650  15.673  13.814
57386W        W25859  44.764  26.645  11.480
57387W        W25860   9.346   9.787  10.933
57388W        W25861  23.634   8.362  14.325
57389W        W25862  16.104   5.720   2.276
57390W        W25863  27.524  42.793   0.361
57391W        W25864  26.124  16.805   0.408
57392W        W25865  43.435  39.318  12.380
57393W        W25866  22.067  16.178   0.757
57394W        W25867   4.340  35.971  13.867
57395W        W25868  15.608  22.052  12.939
57396W        W25869  30.496  21.025  11.393
57397W        W25870  12.614  20.595   0.843
57398W        W25871  38.423  26.190   3.288
57399W        W25872  22.165  15.593   4.762
57400W        W25873  43.814  27.990  10.465
57401W        W25874   7.235  40.007   4.818
57402W        W25875  30.924  12.756  10.571
57403W        W25876   4.831  36.975  13.061
57404W        W25877   1.405  23.031  14.515
57405W        W25878  30.961  23.127   2.220
57406W        W25879  40.307   8.202   0.401
57407W        W25880   2.881  43.515   2.832
57408W        W25881  26.163  22.091   1.734
57409W        W25882  18.110  13.148   0.360
57410W        W25883  37.899  20.121  12.922
57411W        W25884  38.339   8.304   2.284
57412W        W25885  25.579  42.776  13.456
57413W        W25886  17.616   0.745  11.542
57414W        W25887  25.069  19.624   1.331
57415W        W25888  12.705   3.899   1.410
57416W        W25889  11.265  38.862   3.711
57417W        W25890  11.228  13.162  11.586
57418W        W25891  19.140  13.123  11.554
57419W        W25892  38.999  35.078  13.539
57420W        W25893   1.803  25.668  11.604
57421W        W25894  21.623  31.633  14.995
57422W        W25895  10.638  27.173   4.795
57423W        W25896  27.578  17.150   3.644
57424W        W25897  26.458  14.119   4.616
57425W        W25898  23.228  15.725  10.986
57426W        W25899   7.802  18.266   3.634
57427W        W25900  26.166  10.831  14.896
57428W        W25901  19.102  43.271   2.368
57429W        W25902  24.144  44.863  13.921
57430W        W25903  19.725  33.436   1.734
57431W        W25904  40.826  25.692   3.255
57432W        W25905  32.542  22.641   2.189
57433W        W25906  16.649  35.909   3.812
57434W        W25907  41.362  27.010  10.974
57435W        W25908  37.389  22.146  12.063
57436W        W25909  40.856  44.801  10.932
57437W        W25910   2.936  13.821   0.311
57438W        W25911  23.004  18.181   4.141
57439W        W25912  13.350   1.805  14.367
57440W        W25913   5.372   4.879  13.455
57441W        W25914   7.741  15.234  13.514
57442W        W25915  31.944  41.871   5.198
57443W        W25916   3.898  16.717   4.721
57444W        W25917  39.902   1.327   4.208
57445W        W25918  34.471  25.665  13.030
57446W        W25919  13.757  33.914   4.141
57447W        W25920  38.418  29.921   2.817
57448W        W25921   8.863  37.427  12.537
57449W        W25922  38.443  11.688   3.249
57450W        W25923   4.926   1.276  14.763
57451W        W25924  43.364  15.145   3.185
57452W        W25925   5.805   7.216   4.241
57453W        W25926  35.057  42.031   3.800
57454W        W25927  10.278  14.275   2.813
57455W        W25928  27.163   8.808  13.799
57456W        W25929  10.305  12.220  13.529
57457W        W25930  15.808  18.635  12.913
57458W        W25931  34.011  26.660   3.171
57459W        W25932   2.757  18.645  10.608
57460W        W25933  28.597  28.667  11.905
57461W        W25934  34.863  15.694   4.165
57462W        W25935  40.914   3.216   0.405
57463W        W25936  43.388  15.128   1.820
57464W        W25937  10.790   0.357  10.614
57465W        W25938  21.152  17.298   4.653
57466W        W25939  13.201  25.971   0.450
57467W        W25940  41.982  24.543  13.320
57468W        W25941   5.751  10.315   4.823
57469W        W25942   7.816  18.206  14.854
57470W        W25943  13.606   5.206  12.366
57471W        W25944  10.638  31.440   4.743
57472W        W25945  36.387   7.762   4.310
57473W        W25946  28.067   6.419  14.960
57474W        W25947   8.745  41.890   2.720
57475W        W25948  18.050   3.862  13.433
57476W        W25949  31.904  31.581   0.894
57477W        W25950  36.028  22.716  12.977
57478W        W25951  22.662  31.519   1.266
57479W        W25952  36.093  15.286   3.354
57480W        W25953   6.762  20.171  14.964
57481W        W25954  13.805  25.100  12.543
57482W        W25955   9.231  16.253  14.448
57483W        W25956  11.165  14.795   4.631
57484W        W25957  38.858   6.814   0.957
57485W        W25958  28.533  17.566   2.320
57486W        W25959   9.793  10.665  13.393
57487W        W25960  37.574  15.704   1.252
57488W        W25961  37.453  19.725  11.925
57489W        W25962  19.737  43.370  13.444
57490W        W25963  34.020  24.221  12.534
57491W        W25964  30.615  13.184  10.979
57492W        W25965  35.358  44.360   3.858
57493W        W25966  31.647  15.803   2.661
57494W        W25967   9.356  18.709   0.325
57495W        W25968  26.509  15.187   4.330
57496W        W25969   1.836   4.261   0.276
57497W        W25970   4.804  41.980  13.470
57498W        W25971  16.649  21.758  14.781
57499W        W25972  23.101   6.343   0.450
57500W        W25973  38.484   4.324  11.376
57501W        W25974   3.279  13.672  14.769
57502W        W25975  40.947   0.489   3.352
57503W        W25976  21.122   5.933  11.475
57504W        W25977   3.346   4.399  10.033
57505W        W25978   5.197   7.796   2.259
57506W        W25979   1.455   8.857   3.328
57507W        W25980  44.964  21.598  12.055
57508W        W25981  23.145  10.713   1.932
57509W        W25982  23.175  14.299  13.511
57510W        W25983  15.641  30.157  10.485
57511W        W25984  42.777   1.311   2.211
57512W        W25985  22.559  11.133   2.244
57513W        W25986   1.749   5.899  10.585
57514W        W25987   3.861  19.222   3.230
57515W        W25988  24.187   4.938   1.710
57516W        W25989  28.930  11.178  12.449
57517W        W25990  36.001  11.345   2.377
57518W        W25991   9.815  30.001  12.545
57519W        W25992   4.825  37.402   1.445
57520W        W25993  24.499  33.489   2.200
57521W        W25994  11.712  22.060  14.380
57522W        W25995  43.425  39.925   0.773
57523W        W25996  20.272  37.570  13.946
57524W        W25997  33.110  37.512   3.732
57525W        W25998   4.408  34.429   1.815
57526W        W25999  21.094  29.117  10.909
57527W        W26000  41.386  18.702   4.154
57528W        W26001  15.314   8.894   1.249
57529W        W26002  27.513  18.679   1.293
57530W        W26003   8.301   4.813   5.694
57531W        W26004  26.963  39.472   4.713
57532W        W26005   6.737  16.800   0.903
57533W        W26006  33.060  36.896   2.221
57534W        W26007  36.901  41.842   3.374
57535W        W26008  28.594  18.650   2.823
57536W        W26009   2.759   2.900   0.279
57537W        W26010  30.438   8.864   2.792
57538W        W26011  29.523  27.547  11.095
57539W        W26012  40.412  41.824   1.443
57540W        W26013  16.756  27.490  10.901
57541W        W26014  24.705   2.812   0.349
57542W        W26015  13.794  19.186  12.429
57543W        W26016  27.614  15.139  12.399
57544W        W26017  37.062  31.105   0.882
57545W        W26018   0.427  30.078  12.372
57546W        W26019  31.539  36.590  10.491
57547W        W26020  14.656  44.388  14.990
57548W        W26021  20.183  24.019   4.286
57549W        W26022   7.220  41.943  12.869
57550W        W26023  19.149  32.944   1.262
57551W        W26024  20.671  31.999   4.287
57552W        W26025  27.501  33.553   1.341
57553W        W26026   2.356  33.601   2.676
57554W        W26027  34.496   2.772  12.566
57555W        W26028   9.858  34.873  14.277
57556W        W26029  38.376  21.194  12.980
57557W        W26030  12.336  10.773  10.547
57558W        W26031   3.852  40.521  10.141
57559W        W26032  14.125  38.876   3.176
57560W        W26033  35.037  11.757   3.828
57561W        W26034  15.304  12.721  12.472
57562W        W26035  25.033   2.471  11.000
57563W        W26036  30.431  22.134  13.017
57564W        W26037  14.159  37.372   1.228
57565W        W26038  19.180  35.511   1.226
57566W        W26039   4.442  31.983   1.439
57567W        W26040  35.015   0.404   4.138
57568W        W26041  15.799  37.363   1.381
57569W        W26042  20.142  15.772  13.922
57570W        W26043  21.173  11.313  11.416
57571W        W26044   3.298  42.968   3.821
57572W        W26045  35.921  26.656   2.186
57573W        W26046   9.740   6.305   0.727
57574W        W26047  41.833  17.689  13.866
57575W        W26048  38.952  39.480   0.390
57576W        W26049   4.752  20.701   4.827
57577W        W26050  21.210  15.710  12.540
57578W        W26051  44.288  34.007  11.604
57579W        W26052  40.378  25.550  10.544
57580W        W26053   7.729  22.729  12.993
57581W        W26054  23.090  19.205   0.391
57582W        W26055  11.130  12.853   2.803
57583W        W26056  39.878  35.055   2.271
57584W        W26057  19.049   0.954   0.351
57585W        W26058  42.496   8.345  12.019
57586W        W26059  37.871  43.463  11.419
57587W        W26060  12.152  33.095   0.914
57588W        W26061  43.770   9.269   3.156
57589W        W26062   1.397   1.868   2.675
57590W        W26063  21.033  27.512   2.711
57591W        W26064  20.150  14.136   1.211
57592W        W26065  14.619   5.826  11.595
57593W        W26066  39.996  12.312  14.363
57594W        W26067   9.708  15.122  10.493
57595W        W26068  26.670  17.073  10.916
57596W        W26069  15.615   5.355   4.354
57597W        W26070  21.686  11.373   4.685
57598W        W26071  28.574  37.857   2.868
57599W        W26072  11.309  30.996   2.852
57600W        W26073  12.296  41.967  12.865
57601W        W26074   7.893   1.938  12.825
57602W        W26075   7.667   0.442  14.274
57603W        W26076  38.065  12.161  12.842
57604W        W26077  14.236  18.635   2.216
57605W        W26078  40.446   9.767   3.848
57606W        W26079  15.713  42.980  12.373
57607W        W26080  32.930  25.613   1.771
57608W        W26081   9.876  35.918   4.659
57609W        W26082   8.848  34.372   4.829
57610W        W26083   1.460  20.750  11.603
57611W        W26084  41.819  40.470  14.813
57612W        W26085  31.079  10.318  11.972
57613W        W26086   5.416   8.271   3.161
57614W        W26087  39.473  13.274  11.996
57615W        W26088   5.712  42.964   2.846
57616W        W26089  41.424  39.022   0.929
57617W        W26090  29.432   2.245  13.847
57618W        W26091  19.614  26.006  13.833
57619W        W26092  37.866   8.258   3.638
57620W        W26093   6.794  35.102   0.735
57621W        W26094  10.266  12.743   1.842
57622W        W26095  17.773   4.227  14.869
57623W        W26096   5.832  24.977  14.773
57624W        W26097  30.128   2.898   2.781
57625W        W26098  13.227  18.268   2.308
57626W        W26099   8.292  28.153  14.854
57627W        W26100  44.812  18.230   0.246
57628W        W26101  13.258  31.140  14.299
57629W        W26102  34.538  27.040   0.889
57630W        W26103  28.458   4.908   2.219
57631W        W26104  32.017  27.947  10.485
57632W        W26105  30.936  14.592   3.212
57633W        W26106  33.414  34.569   4.274
57634W        W26107   1.246  39.891   4.719
57635W        W26108  39.551   0.966  11.057
57636W        W26109  22.551  34.468   4.195
57637W        W26110  22.710  33.514   2.253
57638W        W26111   1.281  31.940   4.144
57639W        W26112  43.865  41.027   0.391
57640W        W26113  35.427  14.812  14.791
57641W        W26114  30.486   2.383  10.599
57642W        W26115  17.306  36.548  12.476
57643W        W26116  21.543  28.014  13.974
57644W        W26117   6.376   6.756   3.326
57645W        W26118   6.226   4.331  10.084
57646W        W26119  33.554   3.769  12.424
57647W        W26120  29.107   5.326   2.274
57648W        W26121  23.695  20.184   1.792
57649W        W26122  10.299  22.037  10.523
57650W        W26123  29.082   3.307  11.080
57651W        W26124  13.712   1.358  14.899
57652W        W26125  31.622  33.028   2.861
57653W        W26126  22.555  36.908   4.720
57654W        W26127  32.398  43.781  12.974
57655W        W26128  18.211  35.959  13.848
57656W        W26129  27.138  32.920  14.913
57657W        W26130   6.918   7.715   1.792
57658W        W26131   1.335   8.760  10.947
57659W        W26132  23.496  42.523   3.378
57660W        W26133   8.678  13.634  14.007
57661W        W26134  18.756   8.764   1.384
57662W        W26135  32.568  33.608  12.526
57663W        W26136  14.638  44.261   1.272
57664W        W26137  22.201  34.081  10.524
57665W        W26138  43.454   3.224  12.422
57666W        W26139  44.010  36.574  11.934
57667W        W26140   5.921  31.427   4.113
57668W        W26141  11.865  32.417   0.263
57669W        W26142  22.591  27.616   4.327
57670W        W26143  16.173  19.679   2.347
57671W        W26144   0.874  38.900   1.788
57672W        W26145  32.995  31.125   4.207
57673W        W26146  38.440  30.528  13.442
57674W        W26147  38.409  14.748   2.796
57675W        W26148  43.317  36.034   3.262
57676W        W26149  11.244  18.550  11.506
57677W        W26150   1.957   4.886   0.259
57678W        W26151  13.633   2.463  12.874
57679W        W26152  13.772  15.789   3.183
57680W        W26153   0.316  14.693   4.754
57681W        W26154  38.074  13.675  12.974
57682W        W26155   8.658  32.104  12.021
57683W        W26156   8.380  17.199  12.068
57684W        W26157  11.812   1.897   0.299
57685W        W26158   1.933   8.176  11.980
57686W        W26159   1.370  36.484  11.954
57687W        W26160  23.089  28.025   1.372
57688W        W26161  25.117   6.701   0.470
57689W        W26162  30.443  36.984  11.607
57690W        W26163  23.993   7.801   0.423
57691W        W26164   1.861  11.774   4.735
57692W        W26165  23.643  32.103   1.292
57693W        W26166  29.506  17.761  12.417
57694W        W26167   6.688   0.479   1.695
57695W        W26168   4.896   1.842   2.281
57696W        W26169  23.108  42.941  14.026
57697W        W26170  31.106  36.903   1.432
57698W        W26171  15.170  13.772   4.308
57699W        W26172   7.414   2.964  12.480
57700W        W26173  39.818  24.064  12.090
57701W        W26174  16.213  23.584   2.368
57702W        W26175   1.788   8.690  13.411
57703W        W26176  10.249  42.977   0.253
57704W        W26177  10.817  41.941   1.432
57705W        W26178  28.163  26.022  10.612
57706W        W26179  19.697  16.217   2.792
57707W        W26180   3.321  17.245   3.291
57708W        W26181  31.027  39.029  14.014
57709W        W26182   1.272   1.795  10.486
57710W        W26183  41.950  43.324  14.989
57711W        W26184  16.111  18.119  12.864
57712W        W26185  29.109   0.981   3.369
57713W        W26186  27.945   5.712   4.207
57714W        W26187  24.679  34.984  10.424
57715W        W26188   9.649  35.578  10.159
57716W        W26189  17.632  31.451  10.909
57717W        W26190  44.933  28.089   1.758
57718W        W26191  34.583  19.166   3.763
57719W        W26192   3.270  22.201   0.859
57720W        W26193  13.609  12.751   0.840
57721W        W26194  12.151  35.015  10.902
57722W        W26195  13.291  33.100   0.320
57723W        W26196  44.293  25.114   0.375
57724W        W26197  15.322  37.833  13.382
57725W        W26198  44.320  32.559   1.443
57726W        W26199  39.531  21.658  13.396
57727W        W26200  32.581   0.409   4.222
57728W        W26201  26.508  24.137   1.228
57729W        W26202   1.320  27.142   0.754
57730W        W26203  31.409  26.472  11.485
57731W        W26204  21.228  23.032  12.500
57732W        W26205  12.677  43.964  10.545
57733W        W26206   4.437  32.549  12.574
57734W        W26207  26.657   3.949  12.394
57735W        W26208  34.508   2.837   4.826
57736W        W26209  42.304   4.415  12.859
57737W        W26210  27.152  17.751   2.798
57738W        W26211   7.728  24.134   3.196
57739W        W26212  38.852  34.451   4.172
57740W        W26213   5.244  33.559  13.855
57741W        W26214  38.862  37.911   4.287
57742W        W26215  13.223  37.889  11.071
57743W        W26216  25.687  44.940  10.529
57744W        W26217  10.220   5.893   4.292
57745W        W26218  37.964  16.725   1.727
57746W        W26219  38.457  14.129   5.176
57747W        W26220  34.988   9.150   0.390
57748W        W26221  23.022  32.457   3.259
57749W        W26222  35.429  17.607   1.836
57750W        W26223   6.788   9.699  12.010
57751W        W26224  42.014  29.033   2.890
57752W        W26225   9.153  35.410   1.815
57753W        W26226  35.412  38.935   2.327
57754W        W26227  34.410   2.301  11.094
57755W        W26228  21.202   7.395   3.241
57756W        W26229  39.968   9.193  11.430
57757W        W26230  35.560   3.725  14.772
57758W        W26231  16.792  19.132   4.319
57759W        W26232   6.700  17.587   2.722
57760W        W26233  36.465  43.931   4.657
57761W        W26234   7.816  16.573   3.660
57762W        W26235  14.630  15.152   2.865
57763W        W26236  24.575  15.250  11.373
57764W        W26237  32.022  28.496   2.680
57765W        W26238  25.106  34.019  14.895
57766W        W26239  42.864  35.097   4.630
57767W        W26240  15.619   0.406   2.774
57768W        W26241   7.750  11.175   0.417
57769W        W26242  34.864   0.495   2.758
57770W        W26243  24.574  14.829   4.747
57771W        W26244  12.664   6.393   1.250
57772W        W26245   7.836   5.412  14.409
57773W        W26246  23.069   8.859  13.866
57774W        W26247  23.591  12.713  11.993
57775W        W26248   8.900  35.952   4.832
57776W        W26249  27.610  36.014  14.446
57777W        W26250   1.463  28.039  12.412
57778W        W26251   6.693  44.382   0.875
57779W        W26252  33.035  10.376  14.933
57780W        W26253  10.293  19.598  13.813
57781W        W26254  34.381  43.356  14.323
57782W        W26255  31.032   7.886  12.443
57783W        W26256  39.394  21.068   1.919
57784W        W26257  33.118  36.059   1.848
57785W        W26258  39.395  33.500   3.806
57786W        W26259  27.578  12.316   3.231
57787W        W26260  30.935  23.719   3.332
57788W        W26261   0.260  23.629  14.956
57789W        W26262  35.436  44.869   3.241
57790W        W26263   5.741  39.521  14.286
57791W        W26264  41.962  14.326  12.411
57792W        W26265   0.411  11.651  13.333
57793W        W26266  35.456  15.748  13.820
57794W        W26267   9.831  24.160   4.227
57795W        W26268  30.519  16.634  14.487
57796W        W26269   5.880  41.896   2.384
57797W        W26270  24.482  38.877  13.395
57798W        W26271  31.013  19.257   1.328
57799W        W26272   4.368   8.818   1.277
57800W        W26273  40.384   6.895   3.214
57801W        W26274  19.074  16.621  10.484
57802W        W26275  42.476  15.128  11.543
57803W        W26276   9.186  34.914   3.806
57804W        W26277  10.735   2.728   3.706
57805W        W26278   0.790  22.559   0.863
57806W        W26279  20.708   2.754  14.401
57807W        W26280   5.925  41.953  11.098
57808W        W26281  17.788  10.347   0.385
57809W        W26282  43.497  31.042  13.536
57810W        W26283  12.701   2.467  11.930
57811W        W26284   4.809  32.065  14.483
57812W        W26285  20.060   0.904   1.384
57813W        W26286  30.151  39.863   1.363
57814W        W26287  43.377  32.136  14.508
57815W        W26288  23.524   6.742  11.597
57816W        W26289  34.059   5.904  13.449
57817W        W26290   7.237  10.857   0.935
57818W        W26291   1.245   5.723   3.172
57819W        W26292  44.963  37.422  13.017
57820W        W26293  35.530   7.765  12.094
57821W        W26294  12.852  23.688  13.881
57822W        W26295  39.453  37.473  11.538
57823W        W26296  17.571  30.518   1.264
57824W        W26297  29.623   8.351  12.340
57825W        W26298  29.425   3.377  14.479
57826W        W26299   0.819  25.540   1.276
57827W        W26300  32.009  10.877   1.706
57828W        W26301  12.321  31.085  12.848
57829W        W26302  19.562  27.971  13.318
57830W        W26303  44.334  44.263   4.673
57831W        W26304  13.323  25.973  10.461
57832W        W26305  34.532  44.010  12.468
57833W        W26306  15.100  21.630  12.408
57834W        W26307  31.422  28.088   4.326
57835W        W26308  34.402  23.730  10.605
57836W        W26309  25.192   9.646  14.449
57837W        W26310  12.809  13.738  13.488
57838W        W26311   0.972  37.516  14.891
57839W        W26312  26.987  26.982  14.997
57840W        W26313  13.105  17.579   1.247
57841W        W26314  31.983  17.252  11.086
57842W        W26315  40.994  27.162  10.533
57843W        W26316   9.328  26.700  12.871
57844W        W26317  40.851  14.801  12.996
57845W        W26318  18.255  27.958  13.356
57846W        W26319  18.085   5.887   0.835
57847W        W26320  40.420  32.040   0.330
57848W        W26321  26.967  39.979   1.218
57849W        W26322  36.351  24.711  10.567
57850W        W26323   0.889  29.006  14.484
57851W        W26324  20.704  41.481   0.316
57852W        W26325  16.158   6.680   4.689
57853W        W26326  23.566  29.562  13.863
57854W        W26327   7.720  24.977   4.600
57855W        W26328  18.563   0.426   2.242
57856W        W26329  14.663   3.882  12.985
57857W        W26330  36.004   2.722  14.338
57858W        W26331  32.515  15.116  11.899
57859W        W26332  37.470  42.832  14.466
57860W        W26333  11.348  43.288  12.493
57861W        W26334  44.004  28.675   3.259
57862W        W26335  27.470  29.949  11.904
57863W        W26336  43.320  44.265  11.993
57864W        W26337  18.054  19.630   3.717
57865W        W26338  28.087  29.993   4.736
57866W        W26339  11.756  24.677  14.760
57867W        W26340  14.223  24.085  11.127
57868W        W26341  18.650   8.204   2.747
57869W        W26342  20.636  10.846   1.745
57870W        W26343   3.725  28.063  12.063
57871W        W26344  26.093   4.220  14.999
57872W        W26345  32.533   3.760   0.959
57873W        W26346  23.024  44.418   1.749
57874W        W26347   8.360  20.205  12.018
57875W        W26348  36.515  25.208  12.022
57876W        W26349  15.319  36.393   0.474
57877W        W26350  36.050  14.188  11.125
57878W        W26351  36.537   8.787   9.955
57879W        W26352  11.306  11.144  12.503
57880W        W26353  11.694  15.190   0.942
57881W        W26354  16.298   5.251   4.705
57882W        W26355  21.635   0.874   0.956
57883W        W26356  30.087  10.268   2.774
57884W        W26357   3.304   5.880  12.569
57885W        W26358  42.873  10.264   4.725
57886W        W26359  34.391  26.126   3.842
57887W        W26360  10.173  27.989  11.051
57888W        W26361   7.204  44.996  14.807
57889W        W26362  30.657  31.093  10.954
57890W        W26363  13.130  15.275  12.847
57891W        W26364   9.351  32.442  13.461
57892W        W26365   9.311  43.855   2.831
57893W        W26366  25.983  28.142  14.920
57894W        W26367  16.191  14.673  10.948
57895W        W26368  22.058  13.817  13.439
57896W        W26369  23.602   1.409  14.776
57897W        W26370   2.323  43.837  13.030
57898W        W26371  16.772  23.623   3.223
57899W        W26372  32.053   3.325   0.871
57900W        W26373  27.032  23.588  14.416
57901W        W26374  11.177  34.436   0.358
57902W        W26375  16.101  42.421  11.915
57903W        W26376  38.040  42.332   0.353
57904W        W26377  22.687   9.719   3.154
57905W        W26378  19.751  16.106   1.210
57906W        W26379  39.834  29.127   0.363
57907W        W26380   2.281  40.813   3.189
57908W        W26381  16.641  10.352  11.441
57909W        W26382  13.603  12.831  13.473
57910W        W26383  42.969  19.748  11.032
57911W        W26384   9.889   3.222   3.839
57912W        W26385  44.833  15.133  13.884
57913W        W26386  29.598  29.454  11.954
57914W        W26387   8.308  29.458   4.256
57915W        W26388  26.549  27.492  12.922
57916W        W26389  16.226  12.648   4.755
57917W        W26390  36.557  10.140  11.033
57918W        W26391   1.396  44.804   0.453
57919W        W26392   9.684  32.456  11.124
57920W        W26393   3.372  23.523  12.473
57921W        W26394  21.063   5.689   3.838
57922W        W26395  22.612  18.226  14.916
57923W        W26396  17.676   0.957   1.720
57924W        W26397   0.268  17.062  11.938
57925W        W26398  42.381   4.365   4.784
57926W        W26399   1.299  42.938  14.874
57927W        W26400  34.371  44.464  12.416
57928W        W26401   6.804  11.348  10.600
57929W        W26402  24.525   3.337  11.588
57930W        W26403  32.076   7.766   0.745
57931W        W26404   8.714  31.953  12.554
57932W        W26405  44.285  27.609   0.444
57933W        W26406  15.583  10.303   1.776
57934W        W26407   8.220  25.014  10.628
57935W        W26408  23.190   8.747   3.172
57936W        W26409   4.306  15.807  12.919
57937W        W26410  26.167  25.498   2.779
57938W        W26411   7.895  15.306  12.932
57939W        W26412  36.585  36.071   2.817
57940W        W26413  21.578  35.027  14.321
57941W        W26414  41.452  30.143  10.463
57942W        W26415  11.779  42.312   0.440
57943W        W26416  37.879  30.598  11.575
57944W        W26417  20.148  37.505   5.145
57945W        W26418  31.580  22.152   2.308
57946W        W26419   1.848   4.745  11.580
57947W        W26420  25.158  23.165   3.341
57948W        W26421   1.935  20.537  13.034
57949W        W26422  19.631  16.106  12.391
57950W        W26423  23.049   6.838   1.804
57951W        W26424  31.123  24.657  14.323
57952W        W26425  43.950  40.383   2.220
57953W        W26426  32.984  33.481  12.540
57954W        W26427  19.173   4.791  11.468
57955W        W26428   6.215  11.318   4.138
57956W        W26429  16.190  38.910   3.836
57957W        W26430  32.434  31.507   2.847
57958W        W26431   7.719  41.867  13.341
57959W        W26432  23.165  39.864   3.285
57960W        W26433  37.000  31.914   3.156
57961W        W26434   2.388  26.690  14.366
57962W        W26435  38.846  34.589  13.060
57963W        W26436   9.151  29.082  14.863
57964W        W26437  25.664  44.791   4.698
57965W        W26438  30.996  10.188   2.331
57966W        W26439  15.228  22.139   0.967
57967W        W26440  30.528  12.337  11.891
57968W        W26441  43.429   5.801  11.373
57969W        W26442  32.929  13.836  13.525
57970W        W26443  10.750  35.439   9.546
57971W        W26444  44.395  23.188  13.994
57972W        W26445  37.985  20.216   4.809
57973W        W26446  44.793  22.730   2.739
57974W        W26447   4.849   3.855   1.447
57975W        W26448  34.501  14.589   0.824
57976W        W26449  24.163  27.155  10.573
57977W        W26450  28.035  28.096   3.227
57978W        W26451  10.853   3.721   4.675
57979W        W26452   0.444   8.806  14.444
57980W        W26453  15.727  14.334   1.317
57981W        W26454  39.021  15.646   2.240
57982W        W26455  16.789  28.671  14.353
57983W        W26456  14.697  40.002  14.368
57984W        W26457   1.445  44.766   2.348
57985W        W26458  42.418  30.445  10.906
57986W        W26459  34.033  37.340  10.423
57987W        W26460  10.646  34.081   0.821
57988W        W26461   3.350  29.052  14.911
57989W        W26462  40.433   1.933   4.634
57990W        W26463  18.202  36.009  10.600
57991W        W26464  40.469  17.673   3.225
57992W        W26465  21.516  28.611  11.876
57993W        W26466   2.460  25.064   1.768
57994W        W26467   8.785  23.493  10.038
57995W        W26468  11.261  10.874   0.899
57996W        W26469  40.896  34.464   1.281
57997W        W26470   3.793  28.590   0.255
57998W        W26471  35.977  21.741   3.854
57999W        W26472  42.939  38.536   2.343
58000W        W26473  34.037  30.016   1.317
58001W        W26474  29.437  42.879  10.454
58002W        W26475  23.109  16.175   4.727
58003W        W26476  35.586  24.073   4.796
58004W        W26477  20.163   4.258  11.601
58005W        W26478  27.556  11.234  13.836
58006W        W26479  43.908  18.563  12.513
58007W        W26480  41.925  17.238  14.770
58008W        W26481  43.324  31.495   1.387
58009W        W26482  14.176  20.581  10.999
58010W        W26483  17.708  32.962  12.466
58011W        W26484  30.468  36.992   2.762
58012W        W26485  11.198  14.643   0.304
58013W        W26486  11.747  33.985  11.554
58014W        W26487  44.892  24.220  14.468
58015W        W26488   4.716  23.066   3.241
58016W        W26489   5.421  44.396  10.935
58017W        W26490  38.035  21.164  14.403
58018W        W26491  20.712  32.615  13.900
58019W        W26492  27.620  40.314  11.466
58020W        W26493  35.097  20.632  13.059
58021W        W26494  12.187  40.436  10.513
58022W        W26495  12.141  18.197   3.286
58023W        W26496  24.676  11.346   3.799
58024W        W26497  15.658  44.435   0.382
58025W        W26498  28.512  20.203   1.735
58026W        W26499  12.361  34.049   0.406
58027W        W26500  32.502  38.542   2.291
58028W        W26501  24.016   7.910  12.359
58029W        W26502  32.539  12.741   3.636
58030W        W26503  30.018  24.010   4.756
58031W        W26504   1.820  26.026   1.875
58032W        W26505  29.994  14.218   2.274
58033W        W26506  13.769   0.385  11.612
58034W        W26507  42.448   8.235  12.361
58035W        W26508  39.360  35.887   3.212
58036W        W26509  22.503  21.221   1.425
58037W        W26510  24.655  43.774   2.884
58038W        W26511  26.627  37.889   4.634
58039W        W26512   6.190  32.895   4.129
58040W        W26513  26.981  13.249   4.753
58041W        W26514  40.039   0.363  14.815
58042W        W26515  40.429  15.222   0.351
58043W        W26516  25.173  44.265  14.456
58044W        W26517  43.516   5.815   2.790
58045W        W26518  18.774  24.556  12.996
58046W        W26519  34.868  44.983   3.696
58047W        W26520  13.219  21.196  12.960
58048W        W26521  14.821  43.437   3.815
58049W        W26522   2.411  43.838   4.255
58050W        W26523  26.596  43.920   3.386
58051W        W26524  33.508   2.324  13.351
58052W        W26525  36.566  18.727  11.983
58053W        W26526  12.704  17.064   3.667
58054W        W26527  42.798  14.321  14.500
58055W        W26528   0.254   4.328   1.831
58056W        W26529  35.486  36.522   4.302
58057W        W26530  42.490  12.151   2.808
58058W        W26531   9.755  16.771   3.806
58059W        W26532  21.559  35.002  14.961
58060W        W26533  13.288  14.313   9.944
58061W        W26534  44.421  39.493   1.404
58062W        W26535  22.167  39.345  14.900
58063W        W26536  14.264  10.367   0.468
58064W        W26537  41.497  18.780   1.308
58065W        W26538  39.345   2.335  13.331
58066W        W26539  37.463   1.469  12.373
58067W        W26540  43.855  27.078   4.715
58068W        W26541  30.643   6.678   4.308
58069W        W26542  14.229  32.490  12.015
58070W        W26543  36.440  31.563  14.427
58071W        W26544  14.724  39.878  14.823
58072W        W26545  30.630  17.180  14.788
58073W        W26546   6.837  20.039  10.600
58074W        W26547  25.048   0.324  14.408
58075W        W26548   0.947   1.378   3.846
58076W        W26549  19.088  33.111   2.887
58077W        W26550  16.657   0.787  10.575
58078W        W26551  27.107   9.159  12.836
58079W        W26552  40.917  36.473  12.873
58080W        W26553  43.297  33.079   0.457
58081W        W26554   9.213   4.316   4.163
58082W        W26555  27.471  23.089   4.118
58083W        W26556   6.419  22.737   4.787
58084W        W26557  16.799  42.964  12.919
58085W        W26558  12.143  20.065   1.239
58086W        W26559  42.023  20.546  13.047
58087W        W26560   1.864  23.635  12.341
58088W        W26561  34.104  37.845  10.507
58089W        W26562  33.571  37.392  13.052
58090W        W26563  12.694   8.758   1.752
58091W        W26564  24.050  15.788   0.732
58092W        W26565  19.555  15.740   3.337
58093W        W26566  44.834  41.882   2.816
58094W        W26567  27.684  10.645  14.276
58095W        W26568  33.109  39.954   1.722
58096W        W26569  39.410   9.220   4.308
58097W        W26570   7.220  42.460  14.375
58098W        W26571   5.806  34.030   4.619
58099W        W26572  22.172  40.933  14.425
58100W        W26573  21.162  28.567   1.334
58101W        W26574  12.172   1.303   2.814
58102W        W26575  15.767  31.932   1.786
58103W        W26576  41.790  43.842  12.020
58104W        W26577  29.128  15.597  13.383
58105W        W26578  44.461  42.424  14.759
58106W        W26579  20.661  33.592  14.280
58107W        W26580  36.515  18.101  14.855
58108W        W26581  16.605  34.514  10.559
58109W        W26582  16.156  10.244   3.820
58110W        W26583  14.691  23.174  14.404
58111W        W26584  18.657   3.323  14.834
58112W        W26585   1.377  31.019  14.987
58113W        W26586  31.107   0.783   0.442
58114W        W26587  28.557  33.887  10.630
58115W        W26588  43.949  18.150  14.443
58116W        W26589  14.621   8.663  12.062
58117W        W26590  25.606  41.917   2.883
58118W        W26591  31.109  36.517   1.875
58119W        W26592  33.597  18.704  11.393
58120W        W26593  32.588   0.794  10.995
58121W        W26594  34.415   5.706   1.809
58122W        W26595  39.356  23.184   4.619
58123W        W26596  36.908  30.952  10.470
58124W        W26597   5.750   0.912   2.352
58125W        W26598  11.678  32.904   2.377
58126W        W26599  32.397  23.701  14.802
58127W        W26600  26.147  19.087  11.122
58128W        W26601  41.936   2.922  14.953
58129W        W26602  29.136  31.587   4.283
58130W        W26603  34.110  24.078   0.431
58131W        W26604   0.463  23.592  14.003
58132W        W26605  24.149  20.715  12.900
58133W        W26606  25.060  11.300  13.419
58134W        W26607  25.557   2.402  11.020
58135W        W26608   3.768  25.607  12.490
58136W        W26609   9.219  22.717   2.666
58137W        W26610  14.184  42.820  13.057
58138W        W26611   7.690   7.755   0.280
58139W        W26612  36.022  16.792  10.442
58140W        W26613  28.964   6.290  12.513
58141W        W26614  14.114  38.961   5.233
58142W        W26615  18.160  11.249   2.178
58143W        W26616   2.263  17.676   1.361
58144W        W26617  31.466   2.748  12.987
58145W        W26618  36.557  35.038   0.387
58146W        W26619  29.008  11.765   4.787
58147W        W26620  25.665  23.993  14.407
58148W        W26621   0.490  13.802  14.379
58149W        W26622  41.031   3.780  13.473
58150W        W26623   3.739  35.005   3.375
58151W        W26624  36.981   5.439  12.346
58152W        W26625  37.067  24.979  11.033
58153W        W26626   5.310   0.767   2.338
58154W        W26627  37.923   1.345   0.744
58155W        W26628  20.141  21.046   2.252
58156W        W26629  27.564  37.946   4.115
58157W        W26630  15.656  25.534   1.381
58158W        W26631  21.084  15.734  10.581
58159W        W26632  10.746  33.001  11.439
58160W        W26633  34.031  30.107  11.873
58161W        W26634  13.167   3.892  13.914
58162W        W26635  29.035   9.267  14.860
58163W        W26636  13.599  11.269   1.712
58164W        W26637  42.026  26.161   2.354
58165W        W26638  16.773   5.430  14.501
58166W        W26639  31.912  42.908  12.510
58167W        W26640   5.290  29.432  10.953
58168W        W26641   4.804   2.410   2.229
58169W        W26642  16.096  38.444  13.798
58170W        W26643  25.706  44.327   5.143
58171W        W26644   7.181  16.612  12.059
58172W        W26645  29.034  41.824   0.927
58173W        W26646  20.713   4.243  12.556
58174W        W26647  28.019  23.644   2.888
58175W        W26648  30.127  21.184   2.345
58176W        W26649  29.464  20.544   1.321
58177W        W26650  30.994   4.748   1.743
58178W        W26651  12.136  29.118  11.094
58179W        W26652  44.759  28.996  14.831
58180W        W26653  10.849  36.494   3.853
58181W        W26654  10.215   9.224   0.862
58182W        W26655   5.896  36.432  13.532
58183W        W26656  33.496   2.845  10.966
58184W        W26657  20.689  28.651  11.574
58185W        W26658  25.581   1.756   4.129
58186W        W26659  20.619   8.266   2.240
58187W        W26660   8.224  14.173  14.976
58188W        W26661  34.412  24.206  11.585
58189W        W26662  36.412  33.098   0.822
58190W        W26663  31.529  18.175   1.353
58191W        W26664  24.517  14.826   4.180
58192W        W26665  17.258  18.276   2.231
58193W        W26666  15.646  19.634  12.018
58194W        W26667   9.786  37.857  11.464
58195W        W26668  12.778  26.157   0.850
58196W        W26669  28.068  37.425   4.328
58197W        W26670  41.958  43.464   4.271
58198W        W26671   0.825  21.148   3.384
58199W        W26672  27.534  36.954   2.266
58200W        W26673   8.780   5.922  13.912
58201W        W26674   5.372  17.123   1.851
58202W        W26675  39.017  20.187  12.530
58203W        W26676  36.558  22.650   0.453
58204W        W26677  17.761  19.048   3.381
58205W        W26678  18.604  41.527   1.304
58206W        W26679  29.572   5.926   0.767
58207W        W26680  33.606  12.674   4.201
58208W        W26681  35.410  40.533  12.349
58209W        W26682  28.146  17.711  12.414
58210W        W26683  33.078  21.624  13.405
58211W        W26684  31.949   0.961  10.987
58212W        W26685   9.755  14.788   1.788
58213W        W26686  18.628  19.631  12.568
58214W        W26687  21.069  13.818   0.908
58215W        W26688  11.196  13.801   2.836
58216W        W26689  25.010  22.221   3.275
58217W        W26690  11.359  33.077  12.868
58218W        W26691  21.248  26.643  10.036
58219W        W26692  23.223  41.328  11.401
58220W        W26693  35.390  32.487   0.441
58221W        W26694  39.386  13.766  13.857
58222W        W26695  26.113  30.985   3.229
58223W        W26696  15.125  40.964  13.816
58224W        W26697   6.412  36.406   4.810
58225W        W26698  14.639  19.203   3.750
58226W        W26699   7.768   0.485   4.221
58227W        W26700  43.941  44.984  10.981
58228W        W26701  33.036   0.938  10.959
58229W        W26702  15.181  28.165  13.044
58230W        W26703   8.828   0.856  13.026
58231W        W26704  28.063   4.854   4.148
58232W        W26705   1.850  13.160  13.492
58233W        W26706  34.925  41.496   2.399
58234W        W26707  19.213  25.712  10.906
58235W        W26708  28.443  10.746   3.256
58236W        W26709  41.415  18.730  12.070
58237W        W26710  34.466  40.836   3.698
58238W        W26711  32.549  14.718  12.368
58239W        W26712  40.324  30.427   1.259
58240W        W26713  32.412  44.822  13.808
58241W        W26714  34.087   1.939   1.809
58242W        W26715  28.608   2.355   1.224
58243W        W26716  15.760  16.618   3.180
58244W        W26717  32.047  42.974  14.934
58245W        W26718   6.275   4.706  10.127
58246W        W26719  26.069  18.107   3.858
58247W        W26720  10.636  42.832   4.741
58248W        W26721  12.347   3.377  13.362
58249W        W26722   0.352  44.007  12.345
58250W        W26723  10.796   1.856  11.960
58251W        W26724   3.252  11.216  10.961
58252W        W26725   9.859  29.622   3.183
58253W        W26726  37.373  30.089  10.461
58254W        W26727  25.182   3.393   4.312
58255W        W26728   1.934   0.478  12.380
58256W        W26729   4.884   3.265  13.414
58257W        W26730  23.070   9.166  14.907
58258W        W26731   9.253  44.496  11.955
58259W        W26732  37.998  29.472   3.740
58260W        W26733  43.985  19.678   3.791
58261W        W26734   5.345  27.012   3.255
58262W        W26735  23.696  27.997   2.334
58263W        W26736  23.176   3.916   3.658
58264W        W26737  38.547   3.808  12.352
58265W        W26738  38.458  15.192  10.563
58266W        W26739  38.948  20.532  12.993
58267W        W26740  13.166  24.130   2.809
58268W        W26741  16.144  29.598   3.219
58269W        W26742  15.662  17.146  14.911
58270W        W26743  22.529   1.329  12.874
58271W        W26744  39.038  33.603   1.337
58272W        W26745  35.954   6.187   3.339
58273W        W26746  43.916  12.761  12.383
58274W        W26747  38.882  28.054   1.451
58275W        W26748  43.932  16.121  14.390
58276W        W26749   0.303  17.634  14.847
58277W        W26750   9.354  35.934  14.343
58278W        W26751  39.330  12.746   4.133
58279W        W26752  39.811   5.413  13.950
58280W        W26753  32.452  39.412  14.960
58281W        W26754  20.104  36.002   2.712
58282W        W26755  11.830  35.028  13.918
58283W        W26756  10.272  27.053   1.211
58284W        W26757  29.145   2.417   4.836
58285W        W26758   7.672  30.583  14.299
58286W        W26759  11.228  20.125   0.843
58287W        W26760  31.923   9.699   1.442
58288W        W26761  31.554  17.094   1.391
58289W        W26762  28.113   2.867   1.739
58290W        W26763   9.887  33.494   4.675
58291W        W26764   8.803  32.911   9.969
58292W        W26765  17.184  30.634  10.967
58293W        W26766  17.681  32.945   4.820
58294W        W26767  40.357  13.181  14.902
58295W        W26768  16.761  44.915  14.899
58296W        W26769  29.644  28.122   4.779
58297W        W26770   2.907  40.958  14.968
58298W        W26771  26.099  42.475   4.838
58299W        W26772  27.637  37.506   4.179
58300W        W26773  29.131  36.541   4.834
58301W        W26774  11.718  26.583  13.918
58302W        W26775  25.574  23.568   1.840
58303W        W26776  18.614  22.139  12.561
58304W        W26777  32.984   0.248   0.448
58305W        W26778  12.235   2.275   2.747
58306W        W26779  40.862   1.773   3.378
58307W        W26780   6.310  30.559  12.840
58308W        W26781  11.324  20.653  10.594
58309W        W26782  30.012  42.825  13.925
58310W        W26783   8.879  17.690  12.937
58311W        W26784  10.650  36.442  14.317
58312W        W26785  16.165   5.297   3.790
58313W        W26786   2.858  39.035  13.531
58314W        W26787   4.252  39.455   2.198
58315W        W26788  14.126   3.730   2.393
58316W        W26789  29.435   7.351  11.075
58317W        W26790  14.774  14.137  10.425
58318W        W26791  15.129  38.982   3.185
58319W        W26792  27.117  15.679  12.867
58320W        W26793  30.923   5.399   2.378
58321W        W26794  10.263  22.616  13.401
58322W        W26795  20.563  15.609  13.863
58323W        W26796   0.471  22.581  12.561
58324W        W26797  12.731  21.758   4.301
58325W        W26798  36.476   5.786   2.756
58326W        W26799  15.805   6.860  11.410
58327W        W26800  20.227  42.864  13.395
58328W        W26801  38.885  33.923   3.339
58329W        W26802   9.211  22.215   1.220
58330W        W26803   2.284   6.265  14.323
58331W        W26804  42.017  38.002   0.957
58332W        W26805  28.627   1.910   1.762
58333W        W26806  39.496  29.113   3.788
58334W        W26807  24.144  31.440  13.038
58335W        W26808  15.270   6.737  11.432
58336W        W26809  35.049   3.870   3.842
58337W        W26810  39.391  44.271  12.019
58338W        W26811  36.420  20.728   1.734
58339W        W26812  42.969  38.823  12.004
58340W        W26813  24.621   4.704   0.793
58341W        W26814  28.525  43.493   0.383
58342W        W26815  18.708  25.165   5.183
58343W        W26816   8.705   1.745   4.340
58344W        W26817  34.970   1.844  13.419
58345W        W26818  27.666  29.571   1.338
58346W        W26819   7.203  13.816  13.943
58347W        W26820  29.968  33.508  11.040
58348W        W26821  23.552  41.972   2.802
58349W        W26822  28.488  19.264  13.406
58350W        W26823  37.421   0.276   4.321
58351W        W26824  44.287  35.538  12.892
58352W        W26825  26.679  20.555  10.997
58353W        W26826  13.239  17.687  12.542
58354W        W26827  36.962  37.405  14.908
58355W        W26828  44.794  16.627  14.823
58356W        W26829   1.934  10.823  11.587
58357W        W26830  29.596   6.770   4.689
58358W        W26831  12.262   5.236  12.001
58359W        W26832  35.091   0.934  14.869
58360W        W26833  26.596  20.096   3.207
58361W        W26834  21.109  16.254  12.052
58362W        W26835  10.641  31.525  10.512
58363W        W26836   8.889   1.950  13.029
58364W        W26837  29.456  27.539  12.533
58365W        W26838  22.183  39.014   4.757
58366W        W26839  10.840  27.677   1.899
58367W        W26840   3.842  26.653   2.188
58368W        W26841  15.716  42.810   2.178
58369W        W26842  24.681  22.725  12.047
58370W        W26843  26.614  35.448  11.414
58371W        W26844  24.659  35.899   4.744
58372W        W26845  12.311  25.044  11.985
58373W        W26846  43.946  16.801   2.332
58374W        W26847  38.897  39.065   3.731
58375W        W26848   7.839  21.036   0.282
58376W        W26849  28.055  37.339   2.361
58377W        W26850   5.392  35.028   2.679
58378W        W26851  21.626  26.559   2.373
58379W        W26852  34.864   3.812  11.016
58380W        W26853  27.480  30.424  11.402
58381W        W26854  31.016  22.226   1.422
58382W        W26855   7.734  42.446  13.482
58383W        W26856  32.486  42.305   4.814
58384W        W26857   3.415  39.848   1.722
58385W        W26858   3.725   5.415  14.506
58386W        W26859  19.569  13.664  10.925
58387W        W26860  25.616  43.451  10.425
58388W        W26861  40.393   8.319  12.404
58389W        W26862  17.190  18.790  11.858
58390W        W26863  24.510  43.886   4.683
58391W        W26864  39.376  29.431   2.864
58392W        W26865  23.186  31.523  14.984
58393W        W26866  37.069  34.978  11.431
58394W        W26867   6.713  39.441  11.513
58395W        W26868  14.110  30.920   1.864
58396W        W26869  24.656  12.149   2.256
58397W        W26870  41.874  12.718  14.957
58398W        W26871  11.278  29.109  14.314
58399W        W26872  19.076  43.966   3.356
58400W        W26873  11.330   5.438   3.234
58401W        W26874  21.670   4.925   4.605
58402W        W26875   2.793   1.825   1.868
58403W        W26876  37.423  20.762  12.412
58404W        W26877   9.224  26.505   5.198
58405W        W26878   1.428  30.471   1.415
58406W        W26879  41.427  22.728   2.706
58407W        W26880  16.572  19.582   4.598
58408W        W26881  14.294  28.033  13.533
58409W        W26882  12.679   5.875  10.559
58410W        W26883  28.092  41.040  12.397
58411W        W26884  24.658  24.125   0.751
58412W        W26885  24.479  19.547   0.360
58413W        W26886  36.513   5.769  14.475
58414W        W26887  22.167  26.635   4.206
58415W        W26888  22.016  17.195   4.313
58416W        W26889  23.215  31.484   1.355
58417W        W26890   5.843  15.090   2.409
58418W        W26891  23.676   1.377   4.632
58419W        W26892  29.620   6.859  12.939
58420W        W26893  21.720  16.105  14.495
58421W        W26894   4.349  10.683  10.600
58422W        W26895  33.416  41.880  13.408
58423W        W26896  40.022  20.124   4.311
58424W        W26897  21.712   5.764  13.008
58425W        W26898  39.043  29.053   0.448
58426W        W26899  17.303  44.857  14.796
58427W        W26900  33.573  16.264  12.847
58428W        W26901  28.050  38.329  13.457
58429W        W26902  11.777  36.968  14.324
58430W        W26903  44.352  43.997   4.334
58431W        W26904  18.656  41.315   0.453
58432W        W26905   1.305  23.064  11.607
58433W        W26906  24.637  26.134   5.190
58434W        W26907   7.237   4.762   5.082
58435W        W26908   7.195  27.193  13.898
58436W        W26909  30.005  31.425   1.345
58437W        W26910   3.919  22.165   0.270
58438W        W26911  10.698  38.034   4.280
58439W        W26912  21.725  28.658   2.743
58440W        W26913  32.572  40.823  10.126
58441W        W26914  34.980   7.238   0.756
58442W        W26915   9.682  12.351  10.494
58443W        W26916  22.736  24.654   3.663
58444W        W26917  22.195  23.184  11.515
58445W        W26918   2.397  10.220  11.965
58446W        W26919  14.744  32.407   0.895
58447W        W26920  13.162  31.634  11.376
58448W        W26921  17.277  40.353  14.369
58449W        W26922   7.728   1.805  10.433
58450W        W26923  40.000  38.948  11.586
58451W        W26924   9.875  10.701   1.923
58452W        W26925  18.053  36.959   3.786
58453W        W26926  42.524  15.609   4.827
58454W        W26927  37.078  21.112   3.867
58455W        W26928   7.825  32.472   4.713
58456W        W26929  23.596   5.890   0.432
58457W        W26930  29.095  22.242  13.054
58458W        W26931   8.182  15.762  14.889
58459W        W26932  29.171  24.029   3.852
58460W        W26933  26.988  22.655   1.266
58461W        W26934  10.288  22.747  11.086
58462W        W26935  21.554  15.243   1.261
58463W        W26936   1.909   3.857   2.199
58464W        W26937   6.279  10.787   2.258
58465W        W26938  44.987  18.202  14.805
58466W        W26939  15.316   8.658  12.024
58467W        W26940   8.862  44.272  13.997
58468W        W26941   3.389   3.271  14.850
58469W        W26942  29.031  23.652   4.633
58470W        W26943  40.831  29.519   0.769
58471W        W26944  38.019  19.625   2.732
58472W        W26945  43.442  29.096   3.767
58473W        W26946  14.177  13.709  13.355
58474W        W26947  36.524  19.121   3.323
58475W        W26948   2.232  22.582  14.925
58476W        W26949  15.272  24.593   1.308
58477W        W26950  28.964  25.007   2.732
58478W        W26951  22.708  36.539  12.823
58479W        W26952  28.972  13.808   3.350
58480W        W26953  44.298  27.175  12.463
58481W        W26954  42.377  21.141   1.694
58482W        W26955  23.085  15.657   3.760
58483W        W26956  27.105  18.596   2.853
58484W        W26957  17.626  28.133  13.969
58485W        W26958  20.633   5.799  14.006
58486W        W26959  17.125   5.396   0.780
58487W        W26960  30.952  36.452  14.979
58488W        W26961  23.182  28.549   5.286
58489W        W26962   5.290  24.141   4.174
58490W        W26963  30.978  28.639   3.352
58491W        W26964  31.899  33.006  10.031
58492W        W26965   9.358   7.770   1.219
58493W        W26966  16.590  40.006   4.722
58494W        W26967  42.349   8.899   5.098
58495W        W26968  33.064  39.495   1.382
58496W        W26969  13.307  10.323  13.447
58497W        W26970  43.787  27.076   3.805
58498W        W26971   2.285  24.642  13.915
58499W        W26972  19.074   5.803   1.923
58500W        W26973  37.031   1.832   0.802
58501W        W26974  35.596  30.523   1.220
58502W        W26975  11.206  14.597  12.966
58503W        W26976  26.150  12.646  14.025
58504W        W26977  38.051  15.726  10.417
58505W        W26978  42.812  33.962   3.811
58506W        W26979  25.073  33.064  10.487
58507W        W26980   3.915   8.368   1.433
58508W        W26981  30.559   4.750  10.892
58509W        W26982  33.930  38.390  13.007
58510W        W26983  25.653  19.566   0.456
58511W        W26984  33.064  16.699   4.745
58512W        W26985  22.658  25.087  14.810
58513W        W26986  15.155  13.218   4.799
58514W        W26987   9.857  43.925  14.763
58515W        W26988  24.196   6.679   0.468
58516W        W26989  15.673  39.372  10.937
58517W        W26990  19.570   7.179  14.858
58518W        W26991  25.578  35.025  11.018
58519W        W26992  24.490  30.499   3.300
58520W        W26993  30.920  18.176   3.334
58521W        W26994  30.536  44.846  11.119
58522W        W26995  33.598  19.723  10.027
58523W        W26996   0.317  19.563   1.893
58524W        W26997  19.668   2.443   0.843
58525W        W26998  20.649   4.381  13.465
58526W        W26999   4.415  37.056   2.268
58527W        W27000  15.596  26.051   1.367
58528W        W27001  39.439   3.866   0.328
58529W        W27002  27.576  29.424  13.015
58530W        W27003  11.314  11.192  10.894
58531W        W27004   7.375  13.832  14.491
58532W        W27005  22.559  22.679   1.759
58533W        W27006  21.726  19.252   2.753
58534W        W27007  30.594  43.995   3.309
58535W        W27008  31.995  36.361   2.276
58536W        W27009  33.890  11.728  11.513
58537W        W27010  25.582   9.312   2.246
58538W        W27011   6.879   0.256  14.981
58539W        W27012  21.139   8.371  13.377
58540W        W27013  17.611  34.061  14.325
58541W        W27014  40.006  36.431   4.229
58542W        W27015  38.990  41.374  12.466
58543W        W27016  36.366  14.310  12.564
58544W        W27017  27.447  27.946  14.927
58545W        W27018  14.277  21.571   2.315
58546W        W27019   9.217  27.600   1.825
58547W        W27020  20.552  25.081  13.012
58548W        W27021  28.960  18.739  11.070
58549W        W27022  40.389  18.765   0.781
58550W        W27023  10.170   8.388   3.790
58551W        W27024  30.944   8.279  14.497
58552W        W27025  14.832  35.586  12.954
58553W        W27026  38.991  28.437   3.669
58554W        W27027  26.043  44.837  11.980
58555W        W27028  38.562  38.996   1.730
58556W        W27029  11.226  29.130   0.777
58557W        W27030  26.525  40.883   4.710
58558W        W27031  13.312   9.871  11.521
58559W        W27032   3.724  22.154  13.863
58560W        W27033  40.428  25.048  13.443
58561W        W27034   5.737  33.017  13.409
58562W        W27035  42.815   6.823   2.669
58563W        W27036  36.880  29.619   2.798
58564W        W27037   4.429  12.168  14.900
58565W        W27038  42.011  35.579   1.395
58566W        W27039  11.772   5.802   4.178
58567W        W27040  25.478  34.433   4.705
58568W        W27041  40.497   9.771   2.722
58569W        W27042  16.086  24.605  14.781
58570W        W27043  11.802  21.190  11.036
58571W        W27044  39.857  32.611  11.434
58572W        W27045  15.804  16.611   4.680
58573W        W27046   4.721  43.992  14.001
58574W        W27047  17.680  37.460  11.431
58575W        W27048  17.122  14.241   5.110
58576W        W27049  27.513  23.578  13.342
58577W        W27050  26.054   9.279   2.706
58578W        W27051  10.866  36.404  11.988
58579W        W27052   6.351  29.501   5.147
58580W        W27053  34.609  24.180   3.677
58581W        W27054  33.599  16.636   4.825
58582W        W27055  13.762  10.784  14.006
58583W        W27056   9.792  18.248   3.828
58584W        W27057  19.556  44.424   3.770
58585W        W27058  12.243  19.145  13.841
58586W        W27059  34.460  34.430  12.498
58587W        W27060  33.557  21.250   1.326
58588W        W27061   7.252  33.070  14.278
58589W        W27062  17.197  29.038   4.692
58590W        W27063  41.025   0.432  11.009
58591W        W27064  22.608  16.103  11.429
58592W        W27065   6.221  43.893   4.688
58593W        W27066  12.752   4.822  14.496
58594W        W27067  39.880  40.468  14.486
58595W        W27068  19.183  30.104   1.317
58596W        W27069   3.276  13.842   1.777
58597W        W27070  38.495   2.341   3.274
58598W        W27071  17.636  25.563  14.963
58599W        W27072  38.508   9.256  13.535
58600W        W27073  30.431  28.654   3.246
58601W        W27074   1.936  20.215  11.084
58602W        W27075  37.860  43.850   2.716
58603W        W27076  10.362  20.181  10.968
58604W        W27077  25.054  42.784   1.803
58605W        W27078   6.377  44.363   5.226
58606W        W27079  22.523   2.317  13.308
58607W        W27080   5.731  18.110  14.801
58608W        W27081  40.864   6.383   3.343
58609W        W27082  16.173  19.191  11.578
58610W        W27083  37.523  22.696  11.917
58611W        W27084  23.556  33.473  13.953
58612W        W27085  33.057  43.917  10.959
58613W        W27086   1.463  26.626  14.411
58614W        W27087  38.841  22.116  10.963
58615W        W27088  20.556   0.345  10.446
58616W        W27089   0.814  30.646  12.400
58617W        W27090  21.102  25.533   5.081
58618W        W27091  32.472  19.152   3.214
58619W        W27092   6.312   0.317  14.815
58620W        W27093   4.263   8.839   4.212
58621W        W27094  21.195   3.740  10.896
58622W        W27095  28.079   3.803  10.924
58623W        W27096  28.144   8.281  11.007
58624W        W27097  35.049  11.856  12.463
58625W        W27098  28.592  25.185   0.424
58626W        W27099   4.798  37.448  13.464
58627W        W27100  36.563  18.650  10.618
58628W        W27101  38.508  14.795   4.756
58629W        W27102  42.457  11.764  12.849
58630W        W27103  42.445  26.510   2.240
58631W        W27104  29.636   6.372  10.138
58632W        W27105  24.564  24.065   4.678
58633W        W27106  37.942  42.359  12.921
58634W        W27107  43.995  14.621   1.907
58635W        W27108  39.808  10.186  13.796
58636W        W27109  26.105  41.975   1.243
58637W        W27110   4.701  36.927   5.109
58638W        W27111   5.767  42.939  11.546
58639W        W27112   9.251  20.032   0.850
58640W        W27113   6.877  28.507  13.908
58641W        W27114   8.204  33.439  11.410
58642W        W27115  14.683  43.323   4.206
58643W        W27116  41.517  41.392  12.471
58644W        W27117  41.361  39.973   2.744
58645W        W27118   7.682   0.277  11.935
58646W        W27119  18.555  27.507  14.314
58647W        W27120   1.931  20.543   2.267
58648W        W27121  18.685  10.307  14.777
58649W        W27122   6.404   5.246  14.907
58650W        W27123  19.662  33.878  14.024
58651W        W27124  44.834  16.636   0.286
58652W        W27125  29.640   3.413   4.307
58653W        W27126   4.749  16.186  10.621
58654W        W27127   5.368  11.318   1.321
58655W        W27128  30.507  18.773   4.776
58656W        W27129   5.331   6.205   2.675
58657W        W27130  34.113  38.054   0.450
58658W        W27131  13.636  12.625  14.365
58659W        W27132  36.436  20.161  13.359
58660W        W27133  17.203  38.884  13.894
58661W        W27134   4.803  26.690   3.755
58662W        W27135  40.830  13.806  13.439
58663W        W27136  19.187  26.121  12.341
58664W        W27137  22.040  12.258   4.276
58665W        W27138  37.381   7.179   4.272
58666W        W27139  15.285  30.463   0.813
58667W        W27140  26.476   8.837   1.441
58668W        W27141  19.727  23.631   4.208
58669W        W27142  15.740   0.288   1.777
58670W        W27143  13.305  23.219  14.361
58671W        W27144  40.423  12.724  13.937
58672W        W27145   7.760   1.323   3.661
58673W        W27146  28.080  33.583   5.105
58674W        W27147  19.638  13.316  11.611
58675W        W27148  20.739   5.322   0.865
58676W        W27149  24.166  23.091   4.242
58677W        W27150  13.654  27.185  13.821
58678W        W27151   9.293   1.401  14.941
58679W        W27152  19.180  12.160  14.991
58680W        W27153  22.600  12.744  14.994
58681W        W27154  42.408  21.231  14.883
58682W        W27155  31.966  18.057   2.195
58683W        W27156  24.977  22.642   4.640
58684W        W27157  27.633  26.128  12.898
58685W        W27158   2.390  31.459  12.484
58686W        W27159  42.889  31.595   1.301
58687W        W27160   1.745   2.430   0.792
58688W        W27161  32.531   3.780  13.878
58689W        W27162  21.535  38.487   3.325
58690W        W27163  31.423  12.129   1.226
58691W        W27164  10.352  30.583   2.194
58692W        W27165  30.084   8.885  14.809
58693W        W27166  31.995  43.820  12.462
58694W        W27167  24.663  10.149  14.347
58695W        W27168  22.066  35.999   2.263
58696W        W27169  37.016   4.698   4.682
58697W        W27170  42.989  40.387   3.371
58698W        W27171  21.682  17.599   4.771
58699W        W27172  30.458  13.830  12.570
58700W        W27173  11.267  42.002  13.457
58701W        W27174  17.107   7.874  12.427
58702W        W27175  14.188   0.815  14.373
58703W        W27176  32.000   8.698   4.795
58704W        W27177  11.221  16.793  11.464
58705W        W27178  40.317  32.009  12.829
58706W        W27179  31.601  37.927  13.454
58707W        W27180  19.157   2.338  11.023
58708W        W27181  38.026   3.801  12.428
58709W        W27182  25.174  24.170   2.663
58710W        W27183  40.470  25.174   4.118
58711W        W27184   0.330   8.359   2.321
58712W        W27185  39.414  39.412  10.617
58713W        W27186   8.838  38.847   1.399
58714W        W27187  31.609  40.325   0.950
58715W        W27188  14.801  16.121  14.865
58716W        W27189  20.048  44.762   3.719
58717W        W27190  33.035  30.505  12.849
58718W        W27191   0.424  14.800  13.406
58719W        W27192  19.203  24.198  13.534
58720W        W27193  37.491   8.836  11.925
58721W        W27194  12.673   4.383   3.188
58722W        W27195  10.335  19.724  10.445
58723W        W27196  39.873   6.358   3.793
58724W        W27197   6.359  26.080   3.806
58725W        W27198  19.687   2.801  13.357
58726W        W27199  27.546  30.980  12.019
58727W        W27200   3.413  40.459  13.414
58728W        W27201  18.223  40.349  14.808
58729W        W27202  23.593  43.364   2.215
58730W        W27203  39.909  43.275  13.510
58731W        W27204  41.348  20.536  10.954
58732W        W27205   9.889  31.411  12.055
58733W        W27206  30.990  36.408   2.322
58734W        W27207  43.435  42.021   3.647
58735W        W27208  12.777   2.384   4.232
58736W        W27209  37.850   0.389   2.257
58737W        W27210  10.650  40.812  12.005
58738W        W27211  19.063  22.227  10.568
58739W        W27212   4.217  17.254  13.041
58740W        W27213  26.578  39.433   1.243
58741W        W27214  35.023  30.536  14.796
58742W        W27215  17.596  39.533   9.610
58743W        W27216  10.835  31.008  13.805
58744W        W27217  20.610  32.945  14.369
58745W        W27218  10.784  16.755  12.498
58746W        W27219  33.926  25.594   2.377
58747W        W27220   9.716  36.363  10.137
58748W        W27221  23.718  29.003   0.751
58749W        W27222  16.648  39.895  13.521
58750W        W27223  11.754  43.930   0.265
58751W        W27224  24.152  20.103  13.520
58752W        W27225  14.110  25.509  14.985
58753W        W27226  40.426  17.232   3.680
58754W        W27227   3.826  29.633  11.610
58755W        W27228  26.574  21.105   1.445
58756W        W27229  31.425  31.103  10.533
58757W        W27230   4.287  18.281  11.005
58758W        W27231  38.908  29.593   2.668
58759W        W27232  34.389   6.682  14.816
58760W        W27233  35.503  29.566   0.395
58761W        W27234  14.680  20.539  13.042
58762W        W27235   6.860  17.597  12.942
58763W        W27236  41.408  17.605  14.376
58764W        W27237  34.921  32.064   5.131
58765W        W27238  43.789  24.489   0.299
58766W        W27239  24.172   9.815   1.885
58767W        W27240   1.318  32.424  11.425
58768W        W27241  34.038  41.789  13.804
58769W        W27242  18.594   2.837  12.094
58770W        W27243  19.172  33.445  14.295
58771W        W27244   3.342  35.599   4.686
58772W        W27245  35.072  11.629  14.327
58773W        W27246  24.527  12.750   5.758
58774W        W27247  13.299  13.198  13.373
58775W        W27248  26.687   6.776   1.225
58776W        W27249  13.624  42.930   2.371
58777W        W27250  24.009   7.263   2.717
58778W        W27251   1.895  33.570   0.244
58779W        W27252  24.182  24.600   1.881
58780W        W27253   6.699  15.231   2.890
58781W        W27254  44.957  11.371  10.467
58782W        W27255  33.390  42.928   1.219
58783W        W27256  13.143   3.729   4.697
58784W        W27257  22.633   2.462  11.864
58785W        W27258  37.837  11.674   1.737
58786W        W27259  16.788  33.388   4.632
58787W        W27260  43.336  27.466  14.861
58788W        W27261  10.320  41.984  13.426
58789W        W27262  33.486  32.414  14.936
58790W        W27263  26.971  41.415  14.801
58791W        W27264  35.040  14.308  13.442
58792W        W27265   1.788  24.708  14.338
58793W        W27266  13.192  37.510  13.426
58794W        W27267  15.710  36.486  11.018
58795W        W27268  32.575  41.427  14.433
58796W        W27269  44.384   2.416   4.790
58797W        W27270  38.357  22.647  14.387
58798W        W27271  29.479  32.916  13.464
58799W        W27272  12.335  14.328   4.204
58800W        W27273  24.098  35.997  12.841
58801W        W27274  43.301  36.907  12.952
58802W        W27275  39.953  25.124   3.175
58803W        W27276  28.601   4.924   9.928
58804W        W27277  25.035  37.552   3.698
58805W        W27278  44.474   7.255   1.377
58806W        W27279   0.783  24.625   0.312
58807W        W27280  41.916  26.520  10.527
58808W        W27281   5.431   5.229  11.953
58809W        W27282   4.366  31.133  14.445
58810W        W27283  11.769  16.672  13.376
58811W        W27284  35.051  35.072  13.849
58812W        W27285  20.732   9.170  11.392
58813W        W27286  13.660   3.267   2.789
58814W        W27287  26.027  34.078   4.635
58815W        W27288  23.503  22.018  12.877
58816W        W27289  42.780  30.080  10.911
58817W        W27290  10.159   6.328   1.334
58818W        W27291  40.534  42.864   1.285
58819W        W27292  15.611  12.163   3.290
58820W        W27293  24.017  21.595  12.456
58821W        W27294  43.924  13.212   1.885
58822W        W27295  16.280   4.799  12.897
58823W        W27296  12.262   8.697  12.852
58824W        W27297   5.751  28.459   2.181
58825W        W27298  24.557   0.442  13.845
58826W        W27299   1.918  20.192   4.194
58827W        W27300   6.873  39.812   3.857
58828W        W27301   6.196  14.098  11.118
58829W        W27302  23.648   2.461   2.210
58830W        W27303   8.403  12.793   3.673
58831W        W27304  30.968  43.010   0.741
58832W        W27305  31.920  42.990  10.964
58833W        W27306  17.122  34.491  13.315
58834W        W27307  14.175  13.616  14.338
58835W        W27308  14.811   0.973   3.732
58836W        W27309  16.780  37.940   0.924
58837W        W27310  14.797  43.770   2.837
58838W        W27311  16.127  13.222   1.405
58839W        W27312  23.658  24.500   0.402
58840W        W27313   2.341  18.744   3.865
58841W        W27314   0.941  43.352   0.875
58842W        W27315  28.935  34.460  14.904
58843W        W27316  44.491  32.032   4.311
58844W        W27317  41.432  34.431  13.355
58845W        W27318  12.277  33.969  14.997
58846W        W27319  14.202  40.805   3.204
58847W        W27320  44.266  16.274  13.995
58848W        W27321  29.468  30.038   3.759
58849W        W27322  27.634  36.578   4.795
58850W        W27323  41.438   5.904  14.817
58851W        W27324   4.212   3.934   2.267
58852W        W27325  34.903   3.792  13.510
58853W        W27326  35.578  13.670   0.929
58854W        W27327  37.425  24.078   4.643
58855W        W27328   1.976  31.112   2.184
58856W        W27329   8.231  22.016  13.016
58857W        W27330   0.943  42.382  11.068
58858W        W27331   2.930  26.586   0.965
58859W        W27332  42.457  14.130   4.704
58860W        W27333  24.202  10.758  10.986
58861W        W27334   2.841  37.475  13.872
58862W        W27335   1.762  35.546  10.924
58863W        W27336   7.871  12.132   2.284
58864W        W27337  19.548  19.113  14.796
58865W        W27338   4.254  43.856  14.286
58866W        W27339  17.115  43.865  14.857
58867W        W27340  26.150  18.238  10.587
58868W        W27341   5.243  30.988  10.541
58869W        W27342  29.141  34.384   3.778
58870W        W27343  14.120  42.926   1.255
58871W        W27344  43.353  30.440   4.232
58872W        W27345   7.710   6.363   5.252
58873W        W27346   1.355   9.341   4.263
58874W        W27347  17.116  34.028   0.940
58875W        W27348  37.937  19.283   0.476
58876W        W27349  42.345  17.801   3.287
58877W        W27350  37.349  31.455  13.846
58878W        W27351  19.246   7.267  10.564
58879W        W27352   4.915  23.518   4.837
58880W        W27353  33.050  14.135  13.462
58881W        W27354  16.717  24.228  14.508
58882W        W27355  33.559  32.478  11.480
58883W        W27356  29.992   2.318  13.931
58884W        W27357  41.989   4.845  11.971
58885W        W27358  11.862  20.527   2.825
58886W        W27359  17.732  37.050  10.902
58887W        W27360  36.552  25.068   4.711
58888W        W27361  23.551  39.041   1.406
58889W        W27362  14.221  17.760  12.004
58890W        W27363  35.076  19.087   4.200
58891W        W27364  38.982  35.492  10.538
58892W        W27365  40.013   7.381   2.367
58893W        W27366  29.442  24.113  12.084
58894W        W27367  23.005  17.239   4.201
58895W        W27368  27.463  25.122  12.545
58896W        W27369  15.678   2.755  10.557
58897W        W27370   6.352   9.157   2.903
58898W        W27371  42.920  36.575   2.232
58899W        W27372  13.694  26.646  11.984
58900W        W27373  17.234  32.098   2.260
58901W        W27374  37.579  22.598   0.256
58902W        W27375  17.080  43.795   0.802
58903W        W27376  23.116  21.025   3.730
58904W        W27377  12.257   3.721  14.938
58905W        W27378  13.153  39.548   3.223
58906W        W27379  21.615   4.702  13.031
58907W        W27380   2.842  21.112  10.437
58908W        W27381  31.478  12.267   2.296
58909W        W27382  36.001  34.395   1.356
58910W        W27383  14.179  32.981  12.471
58911W        W27384  20.652  33.563   0.779
58912W        W27385  22.678   3.867  14.759
58913W        W27386  18.669  37.430   1.772
58914W        W27387  39.469  33.074  14.950
58915W        W27388  41.993  36.578  11.405
58916W        W27389  40.384   2.940  11.503
58917W        W27390  18.663   7.881   3.682
58918W        W27391  36.380   0.772  12.902
58919W        W27392  37.004  15.191   0.322
58920W        W27393  39.542  41.845   1.443
58921W        W27394  36.960  11.821  11.077
58922W        W27395  17.766  44.266   1.351
58923W        W27396  43.017  41.986   0.474
58924W        W27397  15.317  10.373   4.310
58925W        W27398   8.271  17.288  10.920
58926W        W27399  37.989  23.062   2.845
58927W        W27400  14.736  12.719  11.391
58928W        W27401  40.031  29.659  13.991
58929W        W27402   5.831  30.562   4.674
58930W        W27403  14.271  31.459   2.886
58931W        W27404   9.394  22.103  10.597
58932W        W27405  24.119  23.240  12.094
58933W        W27406   3.924   3.934   0.394
58934W        W27407   1.475  21.562   3.280
58935W        W27408  21.548  32.509   2.735
58936W        W27409  12.850  40.395  12.437
58937W        W27410  19.111  14.625  12.007
58938W        W27411  38.923  41.830  11.527
58939W        W27412   0.819   3.790   3.853
58940W        W27413  16.244  14.719   2.898
58941W        W27414  20.684  33.939  14.768
58942W        W27415  35.475  36.523  12.924
58943W        W27416  21.069   0.866   2.303
58944W        W27417  15.609  17.254  13.432
58945W        W27418   1.770   8.404   3.186
58946W        W27419  26.180   6.784   1.707
58947W        W27420  43.791   7.706  11.045
58948W        W27421  33.961  15.600   2.830
58949W        W27422   8.760  28.609   2.337
58950W        W27423   5.406  34.552  13.985
58951W        W27424  33.440  17.125  11.881
58952W        W27425  31.061   2.253   0.260
58953W        W27426  23.530   5.710   4.240
58954W        W27427  38.389  32.467  13.462
58955W        W27428  16.164   6.427   1.347
58956W        W27429  37.472  11.682  14.512
58957W        W27430  21.206  28.961  12.565
58958W        W27431  41.491  16.727  14.870
58959W        W27432   6.729  34.494   0.922
58960W        W27433  31.539  24.478  10.627
58961W        W27434  16.177   4.303  10.633
58962W        W27435  24.978  20.639   3.791
58963W        W27436  16.221  39.064   0.315
58964W        W27437  12.172  10.809   2.710
58965W        W27438   4.257  33.895  13.408
58966W        W27439  21.045  23.129   2.293
58967W        W27440  37.051  13.726  12.561
58968W        W27441   4.210  14.620   1.223
58969W        W27442   0.902  18.758   4.317
58970W        W27443  22.049  33.490   4.646
58971W        W27444   9.876   5.704   4.322
58972W        W27445  41.330   1.968  10.931
58973W        W27446  18.618  23.587  11.399
58974W        W27447  18.214  21.705   3.792
58975W        W27448  37.406  31.951  13.324
58976W        W27449  40.345  37.385   3.835
58977W        W27450   7.350  32.035  10.903
58978W        W27451  12.857  13.656   3.630
58979W        W27452  36.970  20.732  10.411
58980W        W27453  23.123  40.859   4.663
58981W        W27454  12.223  10.674  14.983
58982W        W27455   9.372   4.439  13.509
58983W        W27456  44.368  26.196   3.719
58984W        W27457  34.930  36.914   2.335
58985W        W27458  16.573   3.373   0.467
58986W        W27459  26.136  23.101   3.632
58987W        W27460  27.961  37.981   4.740
58988W        W27461   3.422  22.683  12.490
58989W        W27462  36.088  32.026  14.278
58990W        W27463  25.693  19.740   4.781
58991W        W27464  10.773   9.713  11.475
58992W        W27465  39.432   9.810   1.847
58993W        W27466  41.422  13.168   4.789
58994W        W27467  44.961  13.242   1.782
58995W        W27468  28.664  31.130  13.459
58996W        W27469  24.117   0.412  14.317
58997W        W27470  26.084   2.328   3.160
58998W        W27471  11.323  22.519  14.884
58999W        W27472  39.428  34.596  13.813
59000W        W27473  12.764   7.685   2.284
59001W        W27474   4.410  39.558   1.372
59002W        W27475  39.474  24.549   1.904
59003W        W27476  36.449  40.853   0.828
59004W        W27477  33.962   2.390   0.727
59005W        W27478  22.695  25.989   1.750
59006W        W27479  43.963  44.349  11.605
59007W        W27480  27.565  42.967   1.226
59008W        W27481  31.116  42.295   2.684
59009W        W27482  20.231  41.319   1.878
59010W        W27483  43.306  31.562   1.879
59011W        W27484  18.107  42.833   3.809
59012W        W27485  23.511  26.095  11.001
59013W        W27486   4.235   4.401  14.768
59014W        W27487   9.820  25.209   3.870
59015W        W27488  15.248   9.699  14.496
59016W        W27489  37.387  37.990   1.723
59017W        W27490  34.087  10.804  11.570
59018W        W27491   5.894  19.253  11.027
59019W        W27492   9.294  40.332   2.889
59020W        W27493  30.134  11.272   4.665
59021W        W27494  10.685   8.225  11.527
59022W        W27495  18.243   3.377  12.010
59023W        W27496  44.288   7.867  14.494
59024W        W27497  33.123  19.574   4.197
59025W        W27498  20.173  39.051   3.267
59026W        W27499  39.439  30.562   1.838
59027W        W27500  30.539  12.220  14.908
59028W        W27501  27.138   5.289   3.166
59029W        W27502  24.693  12.171  11.499
59030W        W27503  41.384   7.736  14.278
59031W        W27504  11.813  23.186   5.295
59032W        W27505  11.140  21.085   1.858
59033W        W27506  16.316  12.256  10.497
59034W        W27507  28.436  11.367  11.490
59035W        W27508  18.593   6.268  14.841
59036W        W27509   0.762  32.589  13.518
59037W        W27510   0.446  29.080  14.403
59038W        W27511   6.791  30.506   2.404
59039W        W27512   1.385  42.782   3.764
59040W        W27513  32.500  40.347   4.293
59041W        W27514   6.904  36.398   4.694
59042W        W27515  14.181   4.208   4.787
59043W        W27516   2.941  11.708  10.910
59044W        W27517  34.512  20.104   2.665
59045W        W27518  13.829  39.996   1.804
59046W        W27519  43.867  33.911   2.374
59047W        W27520  14.227  32.074  13.434
59048W        W27521  37.549   4.744   2.703
59049W        W27522  29.980  27.511  13.519
59050W        W27523  39.002  35.489  11.054
59051W        W27524  10.743   2.751  13.042
59052W        W27525  39.558  29.999  14.922
59053W        W27526  34.066  21.201  14.997
59054W        W27527   3.243  31.626   3.353
59055W        W27528  18.550  14.265  12.841
59056W        W27529   9.379  39.016   1.340
59057W        W27530  30.958  39.379  11.063
59058W        W27531  28.546  30.034  12.883
59059W        W27532  12.735   0.261  14.855
59060W        W27533  43.389  41.478  13.542
59061W        W27534  35.501  25.072  13.533
59062W        W27535   8.724  22.073  11.374
59063W        W27536  19.052  13.287  14.789
59064W        W27537  12.730  17.599  14.897
59065W        W27538  23.662  38.495  11.601
59066W        W27539  30.057   9.803  13.368
59067W        W27540  21.243   0.892  11.579
59068W        W27541  13.665  28.002  11.552
59069W        W27542  17.150  36.484   1.760
59070W        W27543   9.865  24.038  11.508
59071W        W27544  21.173  19.571  13.961
59072W        W27545  37.483   4.857   0.872
59073W        W27546  38.397   7.802   0.961
59074W        W27547   7.694  17.256  10.009
59075W        W27548  42.832  10.661   3.299
59076W        W27549  13.769  21.512   0.858
59077W        W27550   7.888  19.169  13.032
59078W        W27551  44.501   1.409  14.935
59079W        W27552   2.783   6.415   4.780
59080W        W27553  12.787   3.735  10.642
59081W        W27554  10.279  10.316   4.210
59082W        W27555  27.644  21.681   2.697
59083W        W27556  25.002  33.959   3.661
59084W        W27557  34.940   6.201   0.464
59085W        W27558  17.256  27.195   1.888
59086W        W27559  34.090  13.128  13.417
59087W        W27560  35.940  31.447  10.540
59088W        W27561  26.989  24.507  11.576
59089W        W27562  33.382  35.415   3.382
59090W        W27563  18.710  22.669  12.521
59091W        W27564  42.353  26.696   5.254
59092W        W27565  24.020  16.655  13.528
59093W        W27566  23.528  29.103  13.058
59094W        W27567   4.720   0.322   3.815
59095W        W27568  16.633  29.958   0.364
59096W        W27569  15.297   7.190   2.287
59097W        W27570   2.830  13.118   4.115
59098W        W27571  43.470  16.657  11.945
59099W        W27572  18.608  31.957  14.417
59100W        W27573   8.286  31.915  14.484
59101W        W27574   5.394  25.062  12.022
59102W        W27575  16.721  21.119   1.850
59103W        W27576   7.843  35.549  14.831
59104W        W27577  24.210  10.364  11.099
59105W        W27578  16.631  29.010  14.842
59106W        W27579   7.278  16.310   4.140
59107W        W27580   4.875  30.583  11.449
59108W        W27581  21.176  17.681   0.921
59109W        W27582  35.946  43.505  14.869
59110W        W27583  14.595  42.961  10.049
59111W        W27584  17.106  27.447   9.939
59112W        W27585   5.859   1.732   3.834
59113W        W27586  35.969  14.811   0.460
59114W        W27587  38.965  16.264   4.193
59115W        W27588  43.319  25.518   4.740
59116W        W27589  10.157  13.176  12.920
59117W        W27590  11.305  13.117   3.243
59118W        W27591  42.894   6.421  13.974
59119W        W27592  39.971   6.895  12.427
59120W        W27593   1.344   7.400   1.762
59121W        W27594  37.538  15.790  14.889
59122W        W27595   8.873  21.541  13.923
59123W        W27596  30.477  28.949  13.966
59124W        W27597  13.185  39.475   2.785
59125W        W27598  25.659  44.988  12.458
59126W        W27599   8.720  12.684   1.797
59127W        W27600   1.471  26.538  10.426
59128W        W27601  38.469   6.397  14.448
59129W        W27602  29.660   8.323  12.923
59130W        W27603  34.914  10.327   0.425
59131W        W27604   9.787  10.814   2.838
59132W        W27605  35.057  42.346   3.327
59133W        W27606   4.303   3.223  12.541
59134W        W27607  38.397  23.533  14.860
59135W        W27608   6.300  14.619  14.908
59136W        W27609  10.680  11.166   2.203
59137W        W27610  38.521  21.674  10.475
59138W        W27611  35.105   6.304   3.281
59139W        W27612  22.141  23.111   0.368
59140W        W27613  22.593  24.540  13.932
59141W        W27614  19.128  39.314   1.227
59142W        W27615   3.227   5.872   4.793
59143W        W27616  27.083  10.223   3.319
59144W        W27617  15.286  32.602   0.339
59145W        W27618   1.381  21.114   1.828
59146W        W27619  29.509  23.139  13.000
59147W        W27620  13.131  39.032  13.858
59148W        W27621  16.141   9.835  11.039
59149W        W27622  24.975  26.641  12.405
59150W        W27623   0.278  28.555   1.760
59151W        W27624   7.902  43.516   4.816
59152W        W27625  38.980  12.770  12.451
59153W        W27626  37.527  12.739  11.944
59154W        W27627  10.675  16.702   2.418
59155W        W27628  25.055  26.081  13.516
59156W        W27629  36.007  41.827   0.469
59157W        W27630  10.343  13.296  10.572
59158W        W27631  15.739  34.971   2.305
59159W        W27632  12.212  34.906   3.829
59160W        W27633  22.693  39.866   0.897
59161W        W27634   5.759   9.252   4.634
59162W        W27635  26.083  36.916   3.851
59163W        W27636   0.802  33.622   0.850
59164W        W27637  22.632  20.129  14.324
59165W        W27638  31.051  36.844  12.468
59166W        W27639  23.524  26.023   2.799
59167W        W27640  27.583  14.110   1.758
59168W        W27641  29.633  16.273  14.926
59169W        W27642  15.717  28.031   0.962
59170W        W27643  26.471   0.478   5.145
59171W        W27644  43.411  42.456   0.938
59172W        W27645  37.427  18.138  11.388
59173W        W27646  40.426  37.939  10.604
59174W        W27647   2.282   9.839  14.503
59175W        W27648  22.572  15.596   2.758
59176W        W27649   5.318  21.672  13.850
59177W        W27650  34.956  44.992  10.511
59178W        W27651  17.238  14.281  10.468
59179W        W27652   9.858  43.917   0.875
59180W        W27653  44.325   5.259  12.573
59181W        W27654   2.304  28.980   4.316
59182W        W27655  16.633   4.751  10.437
59183W        W27656  19.636   1.472   2.794
59184W        W27657   0.413  13.272   3.167
59185W        W27658  13.599  41.402  13.506
59186W        W27659  14.328  15.227   0.938
59187W        W27660   5.439  37.353   1.406
59188W        W27661  18.677  10.687  14.030
59189W        W27662  42.322  26.061  14.006
59190W        W27663   3.384  40.842  11.067
59191W        W27664   7.353  18.236   3.200
59192W        W27665  33.026  40.019   2.710
59193W        W27666   6.914   8.782  12.903
59194W        W27667   6.917  18.775  11.888
59195W        W27668  17.232  13.695   3.855
59196W        W27669   9.218  37.373   5.133
59197W        W27670  17.172  40.925   2.685
59198W        W27671  43.302  32.061   0.816
59199W        W27672  17.190  37.503   2.847
59200W        W27673  37.025  24.496   3.320
59201W        W27674  33.889  38.385  14.860
59202W        W27675  30.040  19.716  10.615
59203W        W27676   8.892  24.029  12.037
59204W        W27677  31.151  41.891  14.838
59205W        W27678  41.446   4.730  12.906
59206W        W27679  43.386  17.634  11.457
59207W        W27680  42.417   9.195  11.040
59208W        W27681   0.483  33.408   2.418
59209W        W27682   4.911  23.084  14.770
59210W        W27683  27.998   8.182   1.432
59211W        W27684  39.329  43.969  14.873
59212W        W27685  38.020  29.632   3.373
59213W        W27686  36.054  34.409   2.411
59214W        W27687   3.456  14.149  11.126
59215W        W27688   2.291  11.178  12.536
59216W        W27689  14.318  17.067  12.926
59217W        W27690  33.896   3.836   0.325
59218W        W27691  33.079  23.627   9.955
59219W        W27692  34.404   2.842   1.786
59220W        W27693  31.086   7.415   0.432
59221W        W27694  28.115   5.429   1.218
59222W        W27695   3.824   5.429   0.829
59223W        W27696   1.900  10.748   3.187
59224W        W27697  33.450   0.431  10.560
59225W        W27698  10.722   6.212  12.560
59226W        W27699   2.276  34.044  13.792
59227W        W27700  29.017   6.700  11.975
59228W        W27701   3.325  41.794  12.558
59229W        W27702   6.875  36.972  14.017
59230W        W27703  21.663  14.255  12.071
59231W        W27704  39.456  21.220   1.218
59232W        W27705  17.155  19.088  14.770
59233W        W27706  14.156   1.961   4.627
59234W        W27707   2.307  38.326   0.345
59235W        W27708  44.779  44.374  11.033
59236W        W27709  29.633  24.567   4.223
59237W        W27710  21.239   2.258  14.360
59238W        W27711  23.198  37.926   1.451
59239W        W27712  12.118  29.667   2.714
59240W        W27713   6.400  10.699   3.741
59241W        W27714   0.878  38.909  14.981
59242W        W27715  37.050  29.479  14.885
59243W        W27716  17.162   5.229   1.368
59244W        W27717  25.121   0.433  13.882
59245W        W27718   0.935   0.329  10.112
59246W        W27719   7.268  12.306   2.307
59247W        W27720  20.731  38.562  14.487
59248W        W27721  13.337  26.074   3.764
59249W        W27722   3.320  25.545   1.262
59250W        W27723  31.130  15.257  13.971
59251W        W27724  36.568  21.705  12.873
59252W        W27725  29.024  40.385   2.342
59253W        W27726   0.398  10.190   3.660
59254W        W27727  13.673   3.766   1.888
59255W        W27728  41.807  33.099   1.291
59256W        W27729  19.741  29.596  12.573
59257W        W27730  35.095  13.799  14.926
59258W        W27731  42.876   3.333  14.473
59259W        W27732  36.913  42.509   0.418
59260W        W27733  17.555   3.725  12.026
59261W        W27734  37.934  13.735   3.245
59262W        W27735  22.515  18.783   3.710
59263W        W27736  37.947  33.076  10.961
59264W        W27737  18.279   1.958   0.876
59265W        W27738  42.345  20.260  11.504
59266W        W27739  10.863   8.195   0.743
59267W        W27740   0.302  29.624   1.433
59268W        W27741  40.472  44.454  10.087
59269W        W27742  18.728  16.796  13.860
59270W        W27743  10.708  26.126  14.297
59271W        W27744  23.096   7.347   3.231
59272W        W27745  18.118   2.250  13.057
59273W        W27746  44.903  35.030   3.777
59274W        W27747   8.187   8.826  11.957
59275W        W27748  40.437  17.745  11.399
59276W        W27749   7.718  25.152   2.890
59277W        W27750   1.806   3.749  11.909
59278W        W27751  31.959  41.019   1.313
59279W        W27752  43.421  14.791  11.379
59280W        W27753  28.082  10.843   4.833
59281W        W27754  13.712  36.373  10.439
59282W        W27755  31.153  17.294   4.651
59283W        W27756   3.318  24.663  10.529
59284W        W27757  16.204   3.801   2.779
59285W        W27758  44.463  41.863   4.163
59286W        W27759  30.630   2.750  11.112
59287W        W27760  15.807   6.702  13.952
59288W        W27761   8.780  31.145  13.904
59289W        W27762  40.473   1.316   0.364
59290W        W27763  27.129   6.817  13.477
59291W        W27764   3.254  41.873  14.966
59292W        W27765  31.614  34.964   3.758
59293W        W27766  35.981  31.446   4.179
59294W        W27767   9.270  18.768   2.765
59295W        W27768  42.005   4.710  10.486
59296W        W27769   1.242  36.490   0.736
59297W        W27770   4.416  26.990   2.284
59298W        W27771  12.620   1.846   3.667
59299W        W27772  40.871  22.029   4.788
59300W        W27773   4.892  13.279   3.748
59301W        W27774  15.100  41.387  12.563
59302W        W27775   7.795  13.321  14.391
59303W        W27776  44.920   7.858   3.210
59304W        W27777  36.919  10.378   2.359
59305W        W27778  30.940   4.395   3.165
59306W        W27779  43.968  42.832  14.460
59307W        W27780  14.672  22.224  11.406
59308W        W27781  23.201  33.425   3.773
59309W        W27782  26.208   8.396   2.263
59310W        W27783  34.992  30.440   3.241
59311W        W27784   3.325  15.174   4.237
59312W        W27785  33.935  35.466   2.215
59313W        W27786  27.465  33.897   0.320
59314W        W27787  23.058   4.254  13.914
59315W        W27788  16.605   6.370   0.825
59316W        W27789  42.831  29.591  11.027
59317W        W27790  26.190  23.645   1.348
59318W        W27791  37.532  18.785   3.685
59319W        W27792  12.664   0.480  13.018
59320W        W27793  10.718  19.066   0.392
59321W        W27794  37.077  38.562   3.180
59322W        W27795  15.084  10.654  10.426
59323W        W27796   6.185  22.542  13.445
59324W        W27797  12.781  11.763   0.329
59325W        W27798  43.482   2.930   1.898
59326W        W27799  39.351  32.429  11.120
59327W        W27800  11.206   8.711   3.367
59328W        W27801  32.604  31.472   2.391
59329W        W27802  22.744  35.475   1.799
59330W        W27803  33.087   3.444   0.411
59331W        W27804   2.874  43.909   4.233
59332W        W27805   5.836  12.183   4.802
59333W        W27806  10.718  30.518  10.633
59334W        W27807  35.488   2.897  14.925
59335W        W27808   1.287  15.096  14.949
59336W        W27809  37.351   4.387   4.711
59337W        W27810  11.364  17.748  13.912
59338W        W27811  11.147  23.202   1.753
59339W        W27812  43.287  16.794   2.704
59340W        W27813   0.977  21.195   2.767
59341W        W27814   5.368  26.632  12.404
59342W        W27815   8.836   8.748  14.781
59343W        W27816  31.463   4.816  14.992
59344W        W27817  40.005   6.884   4.149
59345W        W27818   1.874  20.636   1.417
59346W        W27819  24.214  43.782   2.199
59347W        W27820  27.447  42.382  13.546
59348W        W27821  10.180   5.211  11.928
59349W        W27822  30.441  10.679  11.125
59350W        W27823  39.413   8.882   2.223
59351W        W27824  10.168   7.294  11.447
59352W        W27825  25.968   7.309  12.377
59353W        W27826   4.233  22.124   2.356
59354W        W27827  14.600   0.258   3.251
59355W        W27828  30.134   0.360   4.772
59356W        W27829  23.549  10.345  10.972
59357W        W27830  35.937  21.159  13.027
59358W        W27831  38.414   8.891   1.794
59359W        W27832  44.782   4.373   1.382
59360W        W27833  25.516  20.689   2.189
59361W        W27834  43.951  36.843  13.450
59362W        W27835  39.818  27.971  14.803
59363W        W27836  11.673   5.912  11.921
59364W        W27837  15.597  33.117   0.391
59365W        W27838  28.546  36.951   2.225
59366W        W27839  15.153  31.070   1.377
59367W        W27840  31.053  26.971   9.626
59368W        W27841  34.111  18.780  14.309
59369W        W27842  14.812  39.400   4.607
59370W        W27843  41.030  11.316  12.850
59371W        W27844  27.973  42.795   2.801
59372W        W27845  17.217  24.719  14.897
59373W        W27846  44.885  25.197   2.903
59374W        W27847  31.063  13.708  14.855
59375W        W27848  24.219  13.668  11.066
59376W        W27849  14.780  14.320  10.057
59377W        W27850  37.367  17.784  10.519
59378W        W27851  24.718   7.892  14.855
59379W        W27852  35.097  43.807  13.509
59380W        W27853  17.257  31.137  10.427
59381W        W27854  17.078   0.470   1.382
59382W        W27855  12.709  44.938  14.458
59383W        W27856  30.652  34.059  13.317
59384W        W27857  38.050  20.604  12.880
59385W        W27858   3.832  11.790  14.826
59386W        W27859  26.150  17.577   0.882
59387W        W27860  41.933  23.702   1.406
59388W        W27861   0.921  26.467   4.277
59389W        W27862  18.250  29.971   4.759
59390W        W27863  11.299  18.783   2.336
59391W        W27864  17.089   6.879  11.867
59392W        W27865  18.776  21.045   4.321
59393W        W27866  41.291  18.685  10.476
59394W        W27867  21.211  12.719  14.842
59395W        W27868  37.855   3.307   5.147
59396W        W27869  20.037  14.283   4.338
59397W        W27870  24.150  37.934  11.126
59398W        W27871   0.493  31.472  12.480
59399W        W27872  10.368  35.004   0.351
59400W        W27873  24.083  43.908   0.808
59401W        W27874   6.835  20.108  11.488
59402W        W27875  44.825  18.750  14.875
59403W        W27876  38.504   6.238  12.883
59404W        W27877  11.843   7.284   2.263
59405W        W27878   3.224  32.921  11.528
59406W        W27879   9.215  12.690   2.181
59407W        W27880   5.865  22.642  13.003
59408W        W27881   0.908  28.631  12.966
59409W        W27882  41.966  13.846  14.985
59410W        W27883  39.969  38.017  14.481
59411W        W27884  16.793  16.663  10.905
59412W        W27885  44.286  36.439   4.188
59413W        W27886  40.978  18.551   2.836
59414W        W27887  28.576  25.159  13.500
59415W        W27888  11.833  39.835   1.797
59416W        W27889  31.607  10.138   2.398
59417W        W27890   6.891   8.298  12.455
59418W        W27891  24.074  38.450   4.115
59419W        W27892  16.243  32.499   1.443
59420W        W27893  29.169  34.069  14.023
59421W        W27894  18.114  32.623  12.843
59422W        W27895  11.297  43.899   1.388
59423W        W27896   5.695  26.683   4.601
59424W        W27897   6.766  11.754   2.832
59425W        W27898  11.713  11.366   0.741
59426W        W27899  16.152  23.098  11.505
59427W        W27900  18.735  36.007   1.760
59428W        W27901  43.839  34.435  10.421
59429W        W27902  32.605   8.278  11.090
59430W        W27903  42.423  34.091   1.406
59431W        W27904  41.832  29.101  13.309
59432W        W27905  38.364  15.161  12.011
59433W        W27906  13.708  43.800   4.213
59434W        W27907   1.786  28.458   1.447
59435W        W27908  20.201  44.786   1.769
59436W        W27909  20.144  33.503  13.063
59437W        W27910  19.250  44.311   2.803
59438W        W27911   7.875  26.191  12.979
59439W        W27912   7.397  32.086  13.826
59440W        W27913  23.652  43.014   4.803
59441W        W27914   5.866  29.626  14.871
59442W        W27915  40.030  22.745   2.197
59443W        W27916  10.371  24.635   1.342
59444W        W27917   0.976  16.589   2.409
59445W        W27918  24.121   0.760  13.379
59446W        W27919   1.951  20.625   0.330
59447W        W27920   4.711  14.186   1.735
59448W        W27921  28.174  38.943   1.898
59449W        W27922  15.610  14.758   1.276
59450W        W27923  23.076  11.769  12.026
59451W        W27924  30.483  31.442   4.644
59452W        W27925  40.951  21.596  10.573
59453W        W27926  34.879  15.315   0.272
59454W        W27927  18.575  25.167  13.542
59455W        W27928  12.255  25.473  10.474
59456W        W27929  21.173  13.165  13.436
59457W        W27930  21.117  35.490  14.276
59458W        W27931  36.922  28.159   2.772
59459W        W27932   1.771  20.171  12.063
59460W        W27933  36.914   6.778   2.224
59461W        W27934   0.912  35.564  14.763
59462W        W27935  34.460   1.240   2.764
59463W        W27936  34.396  44.432  14.460
59464W        W27937   0.752  30.550   3.371
59465W        W27938   1.337  36.854   0.294
59466W        W27939  11.286   0.836  14.012
59467W        W27940  24.007  27.501   3.798
59468W        W27941  24.697  36.846   4.690
59469W        W27942  15.672  29.130  14.861
59470W        W27943  17.162  20.059   2.741
59471W        W27944  33.488  33.045  11.103
59472W        W27945  11.127  20.199   0.461
59473W        W27946  44.340  41.875   2.268
59474W        W27947  26.164  35.960  11.919
59475W        W27948  10.711  38.362   3.200
59476W        W27949  25.015  10.658  14.907
59477W        W27950   2.841   7.379   3.353
59478W        W27951   9.828  23.599  10.573
59479W        W27952  18.098   0.376   3.802
59480W        W27953  15.664  38.942   2.269
59481W        W27954  13.302  10.844   2.778
59482W        W27955  19.055  17.576   3.240
59483W        W27956   0.874   6.872  12.957
59484W        W27957   5.823  34.922   3.779
59485W        W27958  39.006  33.583   0.749
59486W        W27959  31.503  23.526   2.697
59487W        W27960  37.351  11.226   2.288
59488W        W27961  11.852   3.424   1.794
59489W        W27962  41.861  44.917  13.960
59490W        W27963   9.816  27.667  14.305
59491W        W27964   5.330   8.833   2.362
59492W        W27965  23.698  32.533  13.414
59493W        W27966  17.202  31.924   0.879
59494W        W27967  23.542  34.910   1.387
59495W        W27968  20.148  30.915   2.669
59496W        W27969   8.378  19.750   3.858
59497W        W27970  25.073  28.613   3.740
59498W        W27971  37.903  24.631   0.459
59499W        W27972  29.586  32.005   3.812
59500W        W27973   1.405  20.216   1.776
59501W        W27974   1.851  28.478  13.997
59502W        W27975  30.062   8.400  12.340
59503W        W27976  41.374  30.927   2.758
59504W        W27977  10.232  31.478  13.028
59505W        W27978  42.924  25.968   0.299
59506W        W27979  15.314  21.203  14.827
59507W        W27980   9.351  32.619  14.886
59508W        W27981   8.187  40.456   4.759
59509W        W27982  12.238  12.170   1.439
59510W        W27983  30.647  43.357   5.157
59511W        W27984   9.695  17.754   1.811
59512W        W27985  16.103  12.221   1.406
59513W        W27986  19.136  15.199   2.255
59514W        W27987  26.994  29.080   4.754
59515W        W27988  12.843  32.913   3.184
59516W        W27989   7.334  13.309   4.807
59517W        W27990  20.582   4.908  13.478
59518W        W27991  44.830   0.361   3.377
59519W        W27992  36.901  44.276  10.556
59520W        W27993   9.674  34.887   1.313
59521W        W27994  16.729  35.547   2.415
59522W        W27995  17.684  44.768  11.120
59523W        W27996  42.431  23.146   0.926
59524W        W27997  21.241  40.525  14.958
59525W        W27998   3.911  22.687   1.426
59526W        W27999  18.192   1.387   1.877
59527W        W28000  22.681   0.820  10.495
59528W        W28001   5.818  43.962   4.154
59529W        W28002  44.896  16.210   2.413
59530W        W28003  18.119  12.696  12.562
59531W        W28004  12.165  20.762  10.508
59532W        W28005  14.700  25.668   0.448
59533W        W28006   2.254  26.016  12.966
59534W        W28007  16.586   2.779   4.834
59535W        W28008   3.721  34.479  13.526
59536W        W28009   3.240  19.640   4.249
59537W        W28010  11.807   6.864   0.350
59538W        W28011   3.227  33.095  11.043
59539W        W28012  24.688  40.397  14.013
59540W        W28013  32.555  30.931   1.376
59541W        W28014  20.118  34.989  12.932
59542W        W28015   9.731  20.640  14.910
59543W        W28016   9.388  18.119   0.950
59544W        W28017  18.163   7.814  12.829
59545W        W28018   9.230  44.461  10.639
59546W        W28019  28.675  20.622   4.159
59547W        W28020  30.015  27.531   0.738
59548W        W28021  13.230  36.919  11.873
59549W        W28022  19.162  35.408   4.223
59550W        W28023  12.334   4.407   4.115
59551W        W28024  32.544  33.470   1.256
59552W        W28025  43.941  20.130   4.351
59553W        W28026  13.134  18.249   4.670
59554W        W28027  25.572  28.093   0.899
59555W        W28028  12.344  44.353  10.949
59556W        W28029  44.330  42.015  13.382
59557W        W28030  18.153  39.958  11.112
59558W        W28031  16.248   7.725   1.294
59559W        W28032  18.569  35.957   3.354
59560W        W28033  15.605   7.751  12.024
59561W        W28034  20.637   5.376  11.113
59562W        W28035   3.890  36.380  13.985
59563W        W28036  25.552  34.029  12.947
59564W        W28037  38.393  19.679  11.956
59565W        W28038  39.927  18.687   4.704
59566W        W28039  12.348   2.897   4.286
59567W        W28040  21.757  18.750   1.445
59568W        W28041   5.839  27.525  14.424
59569W        W28042   8.872  25.161  14.953
59570W        W28043  36.955  20.737  12.028
59571W        W28044  10.860  37.046   1.773
59572W        W28045  37.021   3.290  11.495
59573W        W28046  26.484   6.900  10.515
59574W        W28047  19.234   4.752   0.449
59575W        W28048  23.222  29.033   0.357
59576W        W28049  43.381   4.761   3.220
59577W        W28050  30.515  32.446   3.349
59578W        W28051   0.451  25.598  12.354
59579W        W28052  29.512  15.591   1.210
59580W        W28053  25.134  29.004   4.158
59581W        W28054  18.057  40.889  14.789
59582W        W28055  19.704  34.889  14.772
59583W        W28056  14.112   5.883  14.327
59584W        W28057  16.263   5.867  12.407
59585W        W28058  44.335  10.362   4.250
59586W        W28059  12.133  29.566   1.728
59587W        W28060  37.986  10.197  10.533
59588W        W28061   9.792   7.241  13.480
59589W        W28062   9.289  32.538  13.967
59590W        W28063   2.845  31.537   3.166
59591W        W28064   5.251  40.972  12.553
59592W        W28065   7.702  41.823   0.802
59593W        W28066   1.978  39.345  12.875
59594W        W28067  20.112   9.744   4.317
59595W        W28068  44.505  24.124   1.931
59596W        W28069  25.511   5.911  14.884
59597W        W28070  24.076  39.506   2.385
59598W        W28071  37.990  11.637  15.000
59599W        W28072   6.742  28.963  13.933
59600W        W28073   1.775   9.792   2.665
59601W        W28074  36.905  25.487   4.609
59602W        W28075  24.507  27.545   4.801
59603W        W28076  12.725  17.626   2.797
59604W        W28077  25.497  35.528  10.903
59605W        W28078  31.065  12.221  14.276
59606W        W28079  25.109  16.181  14.410
59607W        W28080   0.929  13.255   1.829
59608W        W28081   3.852  41.793   1.299
59609W        W28082  41.486   2.933   2.854
59610W        W28083  26.055  17.299  11.523
59611W        W28084  44.001  32.482   2.253
59612W        W28085  38.344  26.176   1.837
59613W        W28086  19.098  10.348  14.826
59614W        W28087  17.796  36.551  12.866
59615W        W28088  43.853  16.638   3.187
59616W        W28089   2.287  33.004  10.910
59617W        W28090   9.747   4.859   2.392
59618W        W28091  25.480  26.109   0.362
59619W        W28092  12.335  22.175  14.960
59620W        W28093  34.097  20.087   2.823
59621W        W28094  42.426  27.535   4.694
59622W        W28095   5.881  44.459  12.905
59623W        W28096   4.344  32.094   2.884
59624W        W28097  44.756  40.993   3.266
59625W        W28098  12.299  25.016   1.814
59626W        W28099  13.146  34.913   4.605
59627W        W28100  28.437  27.681  11.610
59628W        W28101   3.375   9.769  11.508
59629W        W28102  10.215   6.412  12.061
59630W        W28103  26.533  32.885   2.848
59631W        W28104   2.817  35.484   3.337
59632W        W28105  44.930  37.913   0.399
59633W        W28106   3.861  14.644   0.421
59634W        W28107  15.657  40.884  13.943
59635W        W28108  24.141  22.219  12.457
59636W        W28109  11.630   6.304   5.244
59637W        W28110  19.148  25.480  12.490
59638W        W28111  25.469   8.854  12.012
59639W        W28112  40.987   3.235   3.195
59640W        W28113  18.126  35.924   1.376
59641W        W28114  24.086  42.513   4.691
59642W        W28115  23.713   5.828   2.662
59643W        W28116  15.102  35.881  11.564
59644W        W28117  13.261  33.573   2.860
59645W        W28118  28.553  17.079  11.912
59646W        W28119  31.986  19.607  14.980
59647W        W28120  31.552   2.738  13.370
59648W        W28121  17.131  23.533   1.249
59649W        W28122  44.333  11.332  12.343
59650W        W28123   8.761   3.746  14.760
59651W        W28124  22.155   3.712   1.365
59652W        W28125  43.462  22.124  14.320
59653W        W28126  14.094   0.300   3.274
59654W        W28127  18.702   9.366  13.320
59655W        W28128  41.332  11.360  11.029
59656W        W28129  32.915  44.303  11.957
59657W        W28130  22.082  38.049   3.246
59658W        W28131   5.824   4.919  10.966
59659W        W28132   8.258  29.125  10.556
59660W        W28133   5.227  25.607  11.980
59661W        W28134  14.219  20.081  11.399
59662W        W28135  25.510  27.544   1.875
59663W        W28136  36.009  24.130   3.770
59664W        W28137  21.607  42.420  11.550
59665W        W28138   8.254  33.002  11.062
59666W        W28139  19.275  23.696   4.174
59667W        W28140  40.410  17.215   0.366
59668W        W28141  29.129  34.989  10.430
59669W        W28142   5.779   9.691  14.800
59670W        W28143  40.051  27.021  12.865
59671W        W28144  37.390  10.722  12.856
59672W        W28145  13.332  30.933  10.567
59673W        W28146   2.842  19.739   2.861
59674W        W28147   2.241  30.032  12.503
59675W        W28148   6.785  21.195   4.210
59676W        W28149  18.251  30.518   2.346
59677W        W28150  34.916  14.730  14.920
59678W        W28151  21.108  34.613   0.928
59679W        W28152  32.997  29.653   0.905
59680W        W28153  25.985  26.019  11.571
59681W        W28154  29.650  30.062  13.827
59682W        W28155  34.454  11.711  14.464
59683W        W28156  11.352  35.866  10.626
59684W        W28157  20.042  28.949   2.302
59685W        W28158  31.964  14.341   0.366
59686W        W28159  26.616  23.217   5.111
59687W        W28160  27.518  15.592  10.934
59688W        W28161  13.768  34.086  11.572
59689W        W28162   8.726  12.777  11.609
59690W        W28163  29.923   1.802   4.311
59691W        W28164  17.223  37.486   4.192
59692W        W28165  31.506  32.024  13.384
59693W        W28166   6.894  23.125  14.953
59694W        W28167   6.309  44.360   3.644
59695W        W28168  14.799   6.424  10.128
59696W        W28169  32.016  25.204  14.514
59697W        W28170  10.332  31.038   1.248
59698W        W28171  30.549  21.559   0.407
59699W        W28172  19.713  19.187  14.009
59700W        W28173  33.430   9.224   0.326
59701W        W28174  44.871  15.290  13.477
59702W        W28175   8.199  33.063   4.154
59703W        W28176  11.745  18.052   1.832
59704W        W28177  35.541  21.593   4.608
59705W        W28178  12.761  24.074   3.205
59706W        W28179  33.010  40.012   3.357
59707W        W28180  19.100  23.188   4.320
59708W        W28181  35.532  40.495   1.751
59709W        W28182  35.075  22.685   2.697
59710W        W28183  43.809  11.204  12.997
59711W        W28184  40.436   3.219  13.507
59712W        W28185  17.706  19.255  13.006
59713W        W28186  24.044   6.197   0.856
59714W        W28187   7.374  44.001   0.456
59715W        W28188   1.915  20.737   1.871
59716W        W28189   6.845  44.791  13.817
59717W        W28190  36.072  38.449  12.513
59718W        W28191  34.029  12.810   1.710
59719W        W28192  43.333  36.506  13.821
59720W        W28193  12.198  18.730  14.782
59721W        W28194  16.105  15.284  14.961
59722W        W28195  10.827  24.213   3.234
59723W        W28196   2.946  22.527  10.500
59724W        W28197  27.551  42.787   2.286
59725W        W28198  20.547   2.401   3.737
59726W        W28199  39.435  24.004   1.706
59727W        W28200  19.148  38.834   1.306
59728W        W28201  23.152  34.896   1.930
59729W        W28202  23.232  41.305   4.149
59730W        W28203   8.778  15.607  13.869
59731W        W28204  41.367  35.371  13.849
59732W        W28205  41.387   5.816  12.054
59733W        W28206  43.907  37.936   0.344
59734W        W28207  25.024  30.543   0.849
59735W        W28208   6.270  40.509  14.289
59736W        W28209  41.493  33.487  10.478
59737W        W28210  20.666   9.667  11.515
59738W        W28211  31.453  35.528   0.372
59739W        W28212  38.453   8.321  11.918
59740W        W28213  22.512  34.081  13.891
59741W        W28214   1.464  23.646  14.988
59742W        W28215   2.392   7.718  11.116
59743W        W28216  40.811  13.798   2.323
59744W        W28217  14.791  33.532   3.301
59745W        W28218  27.655  25.010  11.926
59746W        W28219  13.718  33.389   1.785
59747W        W28220  20.168  21.119   1.430
59748W        W28221  31.091  12.262  11.923
59749W        W28222  33.407  27.968   9.971
59750W        W28223  11.163  26.533  10.436
59751W        W28224   0.446  19.161  12.875
59752W        W28225  16.619  11.328  11.862
59753W        W28226   6.709  14.257   1.892
59754W        W28227  14.139  25.558   1.701
59755W        W28228  21.709  32.969  10.628
59756W        W28229   8.295  37.843   3.684
59757W        W28230  42.824  27.655   0.795
59758W        W28231  37.582  16.623   2.206
59759W        W28232  39.443  42.356  10.968
59760W        W28233  23.729  37.944   1.935
59761W        W28234  30.589  28.622   3.869
59762W        W28235  41.945   3.244   1.904
59763W        W28236  12.204  16.235   3.737
59764W        W28237  16.752  33.582  13.957
59765W        W28238   1.318  16.220  14.362
59766W        W28239  35.069  23.191   2.885
59767W        W28240  19.140  35.376  10.980
59768W        W28241  24.697  29.668  11.571
59769W        W28242   3.340  14.168   1.779
59770W        W28243  11.234  38.328   1.901
59771W        W28244  38.843  34.084   0.407
59772W        W28245  34.938   0.871  13.031
59773W        W28246  20.161  19.776   2.403
59774W        W28247  44.766  10.756   0.341
59775W        W28248  29.042   5.251   3.746
59776W        W28249   9.364  32.078   2.725
59777W        W28250  32.616   8.345   1.398
59778W        W28251  32.018  24.693   2.352
59779W        W28252  33.018  38.018   3.295
59780W        W28253  24.055  36.440   0.289
59781W        W28254  38.420  12.713   4.737
59782W        W28255  13.342  44.779   1.420
59783W        W28256   5.791  40.377  11.023
59784W        W28257  42.797  36.966   2.680
59785W        W28258  26.016  13.304   0.263
59786W        W28259   0.419  30.538   4.179
59787W        W28260   2.787  24.697  14.314
59788W        W28261  38.379   9.204   3.824
59789W        W28262  27.948  30.105  14.903
59790W        W28263  24.018  23.227  14.346
59791W        W28264  41.030  21.614   3.707
59792W        W28265  18.748  32.889  13.824
59793W        W28266  24.060  12.769   1.779
59794W        W28267  14.676  43.012   1.337
59795W        W28268  27.636  12.281   0.948
59796W        W28269   0.900  32.563  13.927
59797W        W28270   6.815  11.671  14.886
59798W        W28271  17.236  36.539   0.774
59799W        W28272  32.003   3.772  14.505
59800W        W28273   1.955  21.655   2.180
59801W        W28274  17.742  15.823   4.727
59802W        W28275  18.238  14.632   0.857
59803W        W28276  29.923  39.925  13.335
59804W        W28277  13.223  44.956   1.894
59805W        W28278   7.374  15.814  12.569
59806W        W28279   9.888  31.127  10.593
59807W        W28280  14.318  35.979  10.424
59808W        W28281  28.988  17.083  10.411
59809W        W28282   4.408   2.810  13.371
59810W        W28283  26.475  41.370  13.835
59811W        W28284  11.305  37.455   4.260
59812W        W28285  28.472  16.169   1.448
59813W        W28286  13.221   1.327  12.041
59814W        W28287   7.261  32.517   2.861
59815W        W28288   3.941  44.445   4.646
59816W        W28289  34.376  17.136  11.471
59817W        W28290  44.435  21.629  11.090
59818W        W28291  44.836  18.155   2.746
59819W        W28292  25.509   4.891   1.896
59820W        W28293  33.921  31.611   1.321
59821W        W28294   7.694  10.295  14.866
59822W        W28295  43.278  40.914   4.829
59823W        W28296   0.783   7.770   2.363
59824W        W28297  17.595  27.598   4.625
59825W        W28298   9.162  15.814   2.767
59826W        W28299  31.556  29.963  12.412
59827W        W28300  19.173  29.122  12.972
59828W        W28301   8.718  21.682   4.747
59829W        W28302   4.930  41.294  14.380
59830W        W28303  21.096  14.768   5.315
59831W        W28304  38.494   6.728   0.806
59832W        W28305  22.512  35.062  11.554
59833W        W28306  19.607  42.873  11.431
59834W        W28307   5.392  12.621   1.423
59835W        W28308  21.116  14.589   2.769
59836W        W28309  21.662  40.947   2.751
59837W        W28310   2.721   4.208   2.371
59838W        W28311  29.076  17.782  11.420
59839W        W28312   1.321   4.750  10.460
59840W        W28313   5.832   3.276  14.004
59841W        W28314  36.925  31.427  14.479
59842W        W28315  36.874  34.541   1.214
59843W        W28316  23.623   0.951   4.186
59844W        W28317  21.219  28.033   2.241
59845W        W28318  10.740  29.010   2.346
59846W        W28319  17.774  25.982  14.859
59847W        W28320  15.314  15.802  12.436
59848W        W28321   7.238   6.258  13.994
59849W        W28322  11.677  43.434   3.843
59850W        W28323  32.097  18.152   1.352
59851W        W28324   1.972  41.936   4.198
59852W        W28325   7.799  40.547   4.178
59853W        W28326  32.562  28.084  14.402
59854W        W28327  34.956  39.505   3.229
59855W        W28328  43.283  33.482  13.399
59856W        W28329  30.501  12.778   4.803
59857W        W28330  16.304  27.539   0.916
59858W        W28331  19.166  27.590  12.417
59859W        W28332  43.507  24.094  10.948
59860W        W28333  11.672  29.102  12.897
59861W        W28334  43.379  33.035   2.309
59862W        W28335  17.155  38.001  10.966
59863W        W28336  29.474  19.638   2.308
59864W        W28337  44.359  10.732   4.285
59865W        W28338  10.863  43.849  11.083
59866W        W28339  21.679  33.049   4.647
59867W        W28340  17.248  25.580  14.429
59868W        W28341  11.259  41.934   3.850
59869W        W28342  35.394  35.371   4.215
59870W        W28343  27.655  40.800  10.912
59871W        W28344  26.189   2.415  11.000
59872W        W28345  41.305  21.099  12.405
59873W        W28346   8.167  18.646   2.717
59874W        W28347  14.215  38.066   0.950
59875W        W28348   0.491   1.807   3.268
59876W        W28349  13.627  14.622  13.948
59877W        W28350  11.304  12.775   0.399
59878W        W28351  37.496  25.473   1.822
59879W        W28352   5.349  18.730   1.866
59880W        W28353  36.462  35.400   1.213
59881W        W28354   7.713   6.222   1.339
59882W        W28355  19.069  34.093  14.814
59883W        W28356   9.394  20.582   1.737
59884W        W28357  32.014  25.143  13.841
59885W        W28358   8.726  38.415  13.430
59886W        W28359  35.108  27.999  13.479
59887W        W28360   4.789  10.790   4.713
59888W        W28361  34.973   5.197   1.742
59889W        W28362  25.482  14.693  11.857
59890W        W28363  21.251   8.336  11.878
59891W        W28364  16.269   2.333   0.251
59892W        W28365  41.485  38.877   4.643
59893W        W28366  41.932  44.844  12.472
59894W        W28367   1.373  32.932   3.224
59895W        W28368  29.134  14.212  10.930
59896W        W28369  23.202  12.629  12.528
59897W        W28370   3.936  40.538   0.902
59898W        W28371   2.942   9.880  12.406
59899W        W28372   8.211  42.862  14.974
59900W        W28373  36.093   2.405   1.840
59901W        W28374   4.786  13.105  13.936
59902W        W28375   8.765  34.977  11.522
59903W        W28376  29.530   5.290  12.049
59904W        W28377  40.038  21.225  13.498
59905W        W28378   8.241  27.193   4.281
59906W        W28379  36.469  40.313  14.879
59907W        W28380  31.927  40.894  14.429
59908W        W28381  32.079  24.199  11.002
59909W        W28382  20.052   2.941   4.598
59910W        W28383  44.482  42.868   0.961
59911W        W28384  35.527  21.538   1.375
59912W        W28385  40.937   4.348  14.784
59913W        W28386   7.850   8.688  10.087
59914W        W28387  28.117  22.670  13.971
59915W        W28388   9.363  24.585   4.718
59916W        W28389  26.499  17.773   1.405
59917W        W28390   6.788  26.096   0.359
59918W        W28391  42.308  12.323  10.496
59919W        W28392  35.088  21.120  14.436
59920W        W28393  33.955  11.298  14.376
59921W        W28394  30.135  16.764  14.484
59922W        W28395   0.933  12.674   3.757
59923W        W28396  15.684   7.814   2.215
59924W        W28397  35.391  42.912  13.983
59925W        W28398  36.842   1.380  14.870
59926W        W28399   8.293  11.825   4.275
59927W        W28400  35.059  12.312   0.268
59928W        W28401  30.126  12.179   0.378
59929W        W28402  20.555  10.202   0.747
59930W        W28403  22.223   0.343  13.369
59931W        W28404  41.495  13.760   2.772
59932W        W28405  23.539  19.600  13.832
59933W        W28406  27.176  33.471  11.427
59934W        W28407  18.726  18.600   3.318
59935W        W28408   3.418  31.501   4.632
59936W        W28409   6.723   7.345  10.636
59937W        W28410  19.284  36.969  14.821
59938W        W28411   8.723   2.940  14.303
59939W        W28412  44.988  24.492   3.703
59940W        W28413   6.397  21.118   5.223
59941W        W28414  25.214   8.327  13.821
59942W        W28415   7.245   5.282  12.393
59943W        W28416  23.192  38.485   4.785
59944W        W28417  19.553  23.640   2.793
59945W        W28418   6.789  27.977  13.941
59946W        W28419   5.284  21.720   2.337
59947W        W28420  30.952  25.646   4.352
59948W        W28421  44.878  42.857   3.161
59949W        W28422  33.535  41.527   2.800
59950W        W28423   0.272   9.835  14.434
59951W        W28424  31.144  20.264  12.449
59952W        W28425  25.970  41.943   3.302
59953W        W28426  26.481  11.262   3.225
59954W        W28427   7.311  37.496  11.574
59955W        W28428  39.063  35.026   4.837
59956W        W28429  43.900  12.243  12.061
59957W        W28430  30.608  20.048  12.385
59958W        W28431  19.606   0.332   0.955
59959W        W28432  10.304  23.241  11.985
59960W        W28433  12.119  22.637  13.407
59961W        W28434  33.397   5.436   3.171
59962W        W28435  30.002  39.440  11.509
59963W        W28436  10.633  17.259  14.381
59964W        W28437   4.433   2.288  11.605
59965W        W28438   6.372  35.508   1.405
59966W        W28439  21.238  21.084   1.366
59967W        W28440  24.055   0.919  14.463
59968W        W28441  37.433  29.039   2.392
59969W        W28442  34.879  35.596   4.333
59970W        W28443  44.403  21.227  11.394
59971W        W28444  23.216  39.556  10.524
59972W        W28445  23.226  12.259  13.517
59973W        W28446  25.577  42.827  12.000
59974W        W28447  32.919   9.750  13.867
59975W        W28448  41.428  43.827   1.876
59976W        W28449  26.050   4.817  14.841
59977W        W28450  14.288  23.502  11.466
59978W        W28451  21.031   3.735  13.799
59979W        W28452   4.333  22.706  13.502
59980W        W28453  34.990  30.129  13.479
59981W        W28454  26.026  43.296  12.525
59982W        W28455  14.602   6.843   3.275
59983W        W28456  28.549   7.697  13.332
59984W        W28457   2.409  26.628   1.721
59985W        W28458  38.353  22.543  12.042
59986W        W28459  30.143  21.743  11.016
59987W        W28460  10.161  34.533   3.736
59988W        W28461  17.294  42.454  12.565
59989W        W28462  13.264  27.517   0.439
59990W        W28463  31.600  38.360  11.485
59991W        W28464  12.734  17.207  12.998
59992W        W28465  12.668  14.188   2.691
59993W        W28466   6.302  14.688   0.290
59994W        W28467  40.982  41.877   3.756
59995W        W28468  12.188  26.123   3.332
59996W        W28469   3.924  31.620  11.931
59997W        W28470  32.610  20.637   4.786
59998W        W28471  37.014   4.879  11.903
59999W        W28472  18.671  30.007  13.023
60000W        W28473  38.351  19.580   1.711
60001W        W28474  24.601   2.437  11.951
60002W        W28475  34.518  13.706   2.369
60003W        W28476  17.238   1.966   3.854
60004W        W28477  31.542  41.338   5.168
60005W        W28478  41.813   6.348   1.433
60006W        W28479  19.677  25.510  13.804
60007W        W28480  41.409  44.351   4.634
60008W        W28481  37.859  35.405  14.843
60009W        W28482  27.503  22.600   2.184
60010W        W28483   1.845  30.546  14.766
60011W        W28484  24.684   1.258  10.093
60012W        W28485  26.139  25.564  13.365
60013W        W28486   6.409  28.562   4.123
60014W        W28487  19.139  31.600  14.327
60015W        W28488   6.844  44.972  12.483
60016W        W28489  36.387   1.298   2.302
60017W        W28490  20.720  42.390  13.401
60018W        W28491  20.676  22.228  12.500
60019W        W28492   6.317  28.947  13.000
60020W        W28493  38.401   0.492  11.602
60021W        W28494  17.276  40.845   3.816
60022W        W28495   5.727  23.521   1.437
60023W        W28496   7.701  27.580   4.687
60024W        W28497  18.763  24.165  12.386
60025W        W28498  44.313  17.649  11.940
60026W        W28499  13.218  41.018   3.664
60027W        W28500  15.779   7.896   1.273
60028W        W28501  39.827  14.832  11.068
60029W        W28502  38.881   8.681  12.092
60030W        W28503  27.031   2.960  10.971
60031W        W28504  39.970   5.735  11.482
60032W        W28505   9.341  30.560   4.166
60033W        W28506  14.223  17.218  11.546
60034W        W28507   1.864  35.951  12.085
60035W        W28508  20.239  31.559  12.510
60036W        W28509  24.094  38.052   4.159
60037W        W28510  24.579  34.430   4.333
60038W        W28511  25.592  42.917   5.175
60039W        W28512   1.284  40.844  14.300
60040W        W28513   8.733  20.266   4.258
60041W        W28514  41.867  33.480   1.306
60042W        W28515  36.972  44.258   4.653
60043W        W28516  35.032  11.151   3.800
60044W        W28517  17.697  16.691   4.196
60045W        W28518  25.499  22.563  13.401
60046W        W28519  10.324  36.922   1.338
60047W        W28520  38.510  31.988  10.544
60048W        W28521  43.807  14.766  10.539
60049W        W28522  39.990  16.806  11.431
60050W        W28523  27.666   7.797   2.757
60051W        W28524  29.060   1.305   1.322
60052W        W28525   4.316  17.660  12.351
60053W        W28526  36.411  10.333   2.403
60054W        W28527  43.820   8.710   0.906
60055W        W28528  15.094  39.017  10.578
60056W        W28529  25.633  13.191  12.865
60057W        W28530  17.650  23.985  12.470
60058W        W28531  18.138  24.639  14.900
60059W        W28532  34.390  31.085  11.005
60060W        W28533   8.264  31.082   0.440
60061W        W28534  29.155  27.574   4.203
60062W        W28535  22.137  35.969  14.320
60063W        W28536   5.280  20.050  14.322
60064W        W28537  39.426   7.723   1.847
60065W        W28538   6.900  14.748  10.049
60066W        W28539  27.033  44.008   0.352
60067W        W28540  25.099  22.622   0.269
60068W        W28541  37.360  26.000  12.510
60069W        W28542  32.927  37.416  10.599
60070W        W28543  43.917  19.753  11.030
60071W        W28544  11.332  38.056  14.954
60072W        W28545  26.159  20.259  10.904
60073W        W28546  20.602  10.668  12.507
60074W        W28547   4.774  37.965  14.020
60075W        W28548  26.057  31.039   0.777
60076W        W28549  12.202  20.633  12.955
60077W        W28550  35.408   0.295  11.125
60078W        W28551  13.123  10.674  12.448
60079W        W28552  43.984  31.943  10.912
60080W        W28553  26.058  14.774  11.020
60081W        W28554  36.574   7.668   0.339
60082W        W28555  18.640  10.225   4.214
60083W        W28556   1.752   0.890   5.198
60084W        W28557  35.947   8.320   0.856
60085W        W28558   9.697  33.888   2.705
60086W        W28559  10.744  12.166  13.401
60087W        W28560  14.790  35.037   0.438
60088W        W28561  15.212  44.893  14.453
60089W        W28562  41.027  31.548  10.595
60090W        W28563  13.831  11.363  14.509
60091W        W28564  19.159  10.289   2.367
60092W        W28565  29.928  28.069  14.776
60093W        W28566  20.210  43.845  10.540
60094W        W28567  41.918  40.989   2.799
60095W        W28568   3.370  28.580  11.596
60096W        W28569  27.504  14.219   3.206
60097W        W28570  35.372  41.382  11.387
60098W        W28571  16.176  24.598  13.808
60099W        W28572  40.893  31.409  14.489
60100W        W28573  36.543  26.124   4.276
60101W        W28574   6.789  15.681   3.636
60102W        W28575  35.028   8.397   4.264
60103W        W28576  41.354   3.385   4.285
60104W        W28577   5.804  20.738  13.795
60105W        W28578  42.486  11.823   2.850
60106W        W28579   4.213  35.408  14.794
60107W        W28580  33.455  29.947   4.170
60108W        W28581   7.888   6.911   5.178
60109W        W28582  11.708  13.601  13.049
60110W        W28583   8.706  23.656  11.447
60111W        W28584  34.064  10.154  13.367
60112W        W28585  32.128   2.407   2.856
60113W        W28586   2.411   6.191   2.276
60114W        W28587   0.435  20.104   4.196
60115W        W28588  40.026  22.510  13.399
60116W        W28589  27.665  25.148   0.298
60117W        W28590  30.507   4.757   1.917
60118W        W28591   8.354  22.165  13.998
60119W        W28592  32.903  25.153   2.250
60120W        W28593  43.923  40.992  13.491
60121W        W28594   0.803  32.465  12.823
60122W        W28595  42.015   7.272  13.483
60123W        W28596  18.256  35.904   0.396
60124W        W28597   8.308  42.927  12.365
60125W        W28598  34.012  24.230  11.421
60126W        W28599  26.962   4.756  12.831
60127W        W28600  42.889  39.381   0.805
60128W        W28601  25.208   6.854  11.106
60129W        W28602  23.536  22.665   1.834
60130W        W28603  42.906  11.753  14.832
60131W        W28604  16.203  12.806  13.402
60132W        W28605  32.017  23.203   1.386
60133W        W28606  43.324  35.954  10.048
60134W        W28607   1.452  14.223  12.345
60135W        W28608  35.877  15.219  12.026
60136W        W28609  17.301  41.463   3.845
60137W        W28610  35.965  11.225   3.148
60138W        W28611  43.938  38.326   0.364
60139W        W28612   4.825  13.737  11.998
60140W        W28613   7.281  28.523  11.971
60141W        W28614  29.472  28.678   2.227
60142W        W28615   6.202  19.717   1.236
60143W        W28616   8.213   5.424   4.663
60144W        W28617  21.577  21.620  11.468
60145W        W28618  11.318  16.195  14.829
60146W        W28619  26.171  44.908  10.531
60147W        W28620  28.965  15.602  10.473
60148W        W28621  18.545  25.698   1.374
60149W        W28622  38.051  44.951   4.772
60150W        W28623  28.439   1.755  13.413
60151W        W28624  30.540   6.342   3.181
60152W        W28625  12.824  40.978   2.282
60153W        W28626   8.220  21.543  14.399
60154W        W28627   6.893   2.365   2.734
60155W        W28628  18.790  42.884  14.453
60156W        W28629  10.283  35.386  14.976
60157W        W28630  43.443  16.654   1.838
60158W        W28631  17.647  12.672   2.255
60159W        W28632  18.190   0.768   3.767
60160W        W28633  35.858  33.431  13.522
60161W        W28634  34.423  29.138   4.242
60162W        W28635  38.018  32.111  14.851
60163W        W28636  14.768  40.004  11.436
60164W        W28637  27.579  35.074   2.723
60165W        W28638  39.880  33.590  14.843
60166W        W28639  36.393  43.808  12.458
60167W        W28640   3.795  31.058   2.903
60168W        W28641   9.241   0.828  12.849
60169W        W28642  11.356  19.584  13.312
60170W        W28643   8.381  38.515  12.370
60171W        W28644  17.262  28.134  12.834
60172W        W28645   9.665   2.470   0.823
60173W        W28646  30.997  24.582   3.838
60174W        W28647  17.178  13.161   1.371
60175W        W28648   7.792  43.359  14.451
60176W        W28649  28.934   1.747   3.309
60177W        W28650  13.129  28.679   4.751
60178W        W28651  12.203   9.757   3.244
60179W        W28652  19.748  28.580   4.300
60180W        W28653  42.305  39.492   3.701
60181W        W28654  44.818  29.587  10.493
60182W        W28655  41.360  36.422   0.857
60183W        W28656  41.009  36.552  10.609
60184W        W28657  44.810  29.502   1.360
60185W        W28658   0.808   7.748  13.831
60186W        W28659  24.709  42.906  11.477
60187W        W28660  32.513  16.200  10.523
60188W        W28661  13.671   3.890   4.726
60189W        W28662  38.561   2.413   4.729
60190W        W28663   3.890  16.609  11.542
60191W        W28664  43.877  11.228   2.867
60192W        W28665  43.833  40.855  11.543
60193W        W28666  40.924   0.438   4.795
60194W        W28667   1.797  38.376   3.729
60195W        W28668  12.202  12.855   1.371
60196W        W28669   8.403  28.949  11.921
60197W        W28670  32.406  37.391   1.402
60198W        W28671   6.349  28.058   2.803
60199W        W28672  22.117  15.230   9.469
60200W        W28673  25.677  13.845  10.455
60201W        W28674  44.849   0.292   0.366
60202W        W28675  38.375  33.014  13.416
60203W        W28676  22.142  15.196  14.776
60204W        W28677   4.260  34.037  12.925
60205W        W28678  21.104  14.323   2.324
60206W        W28679  19.285   2.413  12.470
60207W        W28680  29.161  17.187  14.020
60208W        W28681  34.936  19.174   2.790
60209W        W28682  31.090  39.321   0.903
60210W        W28683   8.890  21.606   1.438
60211W        W28684  28.163   5.903  10.427
60212W        W28685  36.990   0.465   1.846
60213W        W28686  37.981   3.446   0.915
60214W        W28687   1.951  23.534   4.705
60215W        W28688  26.583  13.261   4.350
60216W        W28689  23.996   4.407  14.398
60217W        W28690  37.037  24.036  12.865
60218W        W28691  33.082   4.917   0.940
60219W        W28692  12.329  32.450   4.242
60220W        W28693  39.469  31.491  12.568
60221W        W28694  42.438  39.061  10.941
60222W        W28695  19.557   3.955  13.469
60223W        W28696  42.447  10.760  13.842
60224W        W28697  41.825  17.696   0.840
60225W        W28698  27.505  44.300   3.235
60226W        W28699  44.259   5.917   3.716
60227W        W28700  41.308  40.823  11.531
60228W        W28701  31.040  28.947   2.372
60229W        W28702  12.700  36.091   2.197
60230W        W28703  44.985  16.204  10.521
60231W        W28704  35.928  37.537  13.995
60232W        W28705  41.493  31.464  14.002
60233W        W28706   7.727   3.953  13.052
60234W        W28707  28.041  34.436   1.891
60235W        W28708  33.043   0.774  11.970
60236W        W28709  32.036  26.620   1.828
60237W        W28710   6.721  31.436  11.123
60238W        W28711  36.926  36.584  13.890
60239W        W28712   2.775  34.479  11.448
60240W        W28713   8.658   4.441   4.331
60241W        W28714  20.159  41.475  12.995
60242W        W28715  38.861  18.686   2.767
60243W        W28716  22.502  38.010   2.729
60244W        W28717   6.679  17.236  11.918
60245W        W28718   7.733  21.589  14.907
60246W        W28719  28.617  20.242   3.643
60247W        W28720  37.362  11.159   0.797
60248W        W28721  27.136  25.172   3.754
60249W        W28722  36.867  26.579  11.506
60250W        W28723  25.662  36.471  14.945
60251W        W28724   7.358  41.893   1.433
60252W        W28725  43.966  12.122  13.526
60253W        W28726   2.742  35.554  14.506
60254W        W28727  44.501  11.140   1.823
60255W        W28728  40.042  34.468  12.371
60256W        W28729  24.486  16.202   0.450
60257W        W28730  16.786  13.148  12.420
60258W        W28731  37.494  40.882   2.414
60259W        W28732  40.900  12.199  10.980
60260W        W28733  36.087  29.983  14.318
60261W        W28734  29.081  44.919   3.635
60262W        W28735  21.729   8.670  12.571
60263W        W28736  27.034  20.731  13.798
60264W        W28737  29.097  16.291   1.824
60265W        W28738  15.272  19.137  10.424
60266W        W28739   3.438  37.474   2.197
60267W        W28740   4.861  35.906  12.468
60268W        W28741  20.162  34.116  10.578
60269W        W28742   5.852  16.266  11.099
60270W        W28743  12.340   6.329  13.533
60271W        W28744  38.043  18.234  10.598
60272W        W28745   2.432  19.053   4.136
60273W        W28746  25.031  35.594   0.315
60274W        W28747  28.588  10.341   4.221
60275W        W28748  27.083  42.280  12.411
60276W        W28749  41.535  26.534  11.402
60277W        W28750  33.623  27.041   4.230
60278W        W28751  29.089  29.428  14.401
60279W        W28752   4.410  39.364  13.007
60280W        W28753   7.728   5.219   2.364
60281W        W28754  34.542  10.692  14.306
60282W        W28755  19.690  23.001   3.863
60283W        W28756  43.936   3.737  13.535
60284W        W28757   9.330  22.196   4.817
60285W        W28758   2.953  30.615   3.767
60286W        W28759  13.726  32.042   3.774
60287W        W28760  24.491  18.738  11.976
60288W        W28761   9.723  22.061   4.642
60289W        W28762  32.066   1.962  11.562
60290W        W28763  30.593  13.641  14.885
60291W        W28764  44.341  38.388   3.707
60292W        W28765  11.205  42.508  13.813
60293W        W28766   1.747   1.355  12.836
60294W        W28767  24.645  13.604  11.423
60295W        W28768   0.835  35.873   9.935
60296W        W28769   9.720  15.583  11.929
60297W        W28770  37.845  27.155   1.905
60298W        W28771  42.895  42.479  14.385
60299W        W28772  34.052  42.372   5.693
60300W        W28773  26.534  19.613   1.773
60301W        W28774   7.281  40.001  11.087
60302W        W28775  22.642   2.790   4.243
60303W        W28776  35.404  26.149   1.357
60304W        W28777  41.440  18.697   1.721
60305W        W28778  41.444  22.649   1.270
60306W        W28779  17.627  40.962  13.429
60307W        W28780  25.073  11.799   4.708
60308W        W28781  21.159  36.374   1.862
60309W        W28782   5.430  14.619  11.997
60310W        W28783  31.921  27.142   3.372
60311W        W28784  44.259  33.563   3.757
60312W        W28785  31.112  22.667   9.951
60313W        W28786  29.521  27.996   0.367
60314W        W28787   1.759  44.279  12.355
60315W        W28788  26.662  43.915   4.634
60316W        W28789  42.830  16.601   4.817
60317W        W28790  20.254  42.978   1.310
60318W        W28791  17.559  26.957   1.221
60319W        W28792  37.437  19.700  12.858
60320W        W28793   1.816  40.471  13.821
60321W        W28794  16.228  15.609  13.352
60322W        W28795  18.789  20.570   2.708
60323W        W28796  12.309  43.340   0.924
60324W        W28797  31.988  27.027   2.782
60325W        W28798  27.107  37.426   4.642
60326W        W28799  30.473  25.159  12.967
60327W        W28800  44.295  12.247   1.758
60328W        W28801   1.733  32.912  13.948
60329W        W28802  12.121  23.534  11.981
60330W        W28803   0.919  32.087   4.679
60331W        W28804  37.995  12.269  14.298
60332W        W28805  16.793  43.329   4.754
60333W        W28806  16.103  25.535  13.436
60334W        W28807  24.709  32.076  11.872
60335W        W28808  31.983  32.058   0.331
60336W        W28809  10.278   9.824   4.667
60337W        W28810   5.365  12.138  14.950
60338W        W28811  24.182  39.923  13.051
60339W        W28812   6.365  12.358  14.918
60340W        W28813   8.828  10.752   4.238
60341W        W28814  15.667  34.418  12.909
60342W        W28815  35.488   0.270   4.714
60343W        W28816   1.846  11.695   5.085
60344W        W28817  26.147  42.313   2.274
60345W        W28818  15.767  25.064   0.324
60346W        W28819  22.621  19.600   4.707
60347W        W28820  16.260  44.973   2.310
60348W        W28821  15.630  37.543   4.272
60349W        W28822  42.791  37.077   0.769
60350W        W28823  31.936  39.344  13.995
60351W        W28824  29.542   6.353   3.360
60352W        W28825  32.037  42.896   4.319
60353W        W28826  17.094  41.906   1.849
60354W        W28827  31.942  23.183   9.665
60355W        W28828  27.540  13.639   1.913
60356W        W28829  25.199  35.069   0.795
60357W        W28830   6.381  36.382   2.281
60358W        W28831   9.322  34.577  10.440
60359W        W28832   4.395   4.779  13.457
60360W        W28833  11.342  21.173   4.315
60361W        W28834   1.259   5.800  14.408
60362W        W28835  12.324  35.383  10.504
60363W        W28836   9.825  41.950  14.492
60364W        W28837  22.690  28.661  11.466
60365W        W28838   6.354  27.178   4.647
60366W        W28839  34.016  36.864   0.882
60367W        W28840   5.385   0.462   3.162
60368W        W28841  22.544  43.957   1.250
60369W        W28842  43.371   5.762   1.299
60370W        W28843  15.101  26.596  10.147
60371W        W28844   2.438  18.060   9.921
60372W        W28845  23.705   5.400  14.332
60373W        W28846  15.150  35.853  13.044
60374W        W28847   6.728  22.572   1.861
60375W        W28848  17.248  40.007   3.644
60376W        W28849   8.881   3.375  13.898
60377W        W28850  40.501  27.519   3.153
60378W        W28851   7.799  35.485   5.721
60379W        W28852  12.314   4.256  12.533
60380W        W28853  26.702  22.184  10.458
60381W        W28854   4.761  42.331   2.755
60382W        W28855   6.206   5.259   0.860
60383W        W28856  33.465  29.458  14.979
60384W        W28857  17.298   8.249   0.394
60385W        W28858  23.068  41.867   3.841
60386W        W28859   5.346   0.367  13.846
60387W        W28860   0.382  16.700   4.733
60388W        W28861  18.758  38.433   3.665
60389W        W28862  32.143  23.179  12.025
60390W        W28863  22.695  27.004   0.947
60391W        W28864  35.432  32.048  14.018
60392W        W28865   8.760  14.268   4.355
60393W        W28866  36.572  28.168   3.154
60394W        W28867   2.306  11.650   2.229
60395W        W28868  41.404   1.885  11.990
60396W        W28869  33.453  16.584  12.575
60397W        W28870  11.687  41.487  10.620
60398W        W28871  22.576   3.308   1.234
60399W        W28872  11.215   4.348   4.737
60400W        W28873  30.995  12.767  14.305
60401W        W28874  44.504  30.583  14.480
60402W        W28875  23.222  10.231  12.510
60403W        W28876  16.209  24.981  11.420
60404W        W28877   6.298  12.831   2.378
60405W        W28878  23.656   5.822  12.527
60406W        W28879  19.137   3.908  11.989
60407W        W28880  15.582  39.851  13.818
60408W        W28881   2.914  16.623   0.904
60409W        W28882   4.336  33.392  11.422
60410W        W28883   1.735  41.013  11.925
60411W        W28884  32.401  42.873  14.981
60412W        W28885  20.074   8.342   1.892
60413W        W28886   2.725  16.150   2.796
60414W        W28887  20.271  18.587  11.372
60415W        W28888  15.610  26.115  11.375
60416W        W28889  26.589   2.750   4.699
60417W        W28890  43.931   6.760  10.973
60418W        W28891  24.156  41.374   4.805
60419W        W28892   6.732  15.276  10.568
60420W        W28893  33.901  30.520  13.894
60421W        W28894   3.737  32.603   4.632
60422W        W28895  42.941  42.510   2.301
60423W        W28896  22.105  14.225  11.873
60424W        W28897  11.321  15.112   4.133
60425W        W28898   4.926   2.938   3.158
60426W        W28899  40.034  39.819   1.253
60427W        W28900  27.662  32.055   1.895
60428W        W28901  13.317  20.704   4.161
60429W        W28902  39.420  11.634  12.396
60430W        W28903  41.436  31.052  12.825
60431W        W28904  25.176  40.818  14.479
60432W        W28905  31.074   4.840  14.981
60433W        W28906  41.918  34.912  11.545
60434W        W28907  20.765  17.135   4.167
60435W        W28908  23.183  11.246   0.469
60436W        W28909   1.910  37.476  10.512
60437W        W28910   7.720  16.300  12.833
60438W        W28911  10.674  35.456  10.913
60439W        W28912  31.077  28.533  14.442
60440W        W28913  39.982  13.183   4.605
60441W        W28914  26.123  26.111  12.453
60442W        W28915   8.717  28.517   2.784
60443W        W28916  35.962  18.097   2.727
60444W        W28917   6.316   0.765   2.692
60445W        W28918  22.068  37.367   2.699
60446W        W28919  23.056   1.843   1.435
60447W        W28920  10.233  38.980   0.880
60448W        W28921  30.054  39.014   1.785
60449W        W28922   4.317   0.782   2.673
60450W        W28923  21.218  35.949  11.489
60451W        W28924  17.703  26.097   0.885
60452W        W28925  38.049   3.399   1.366
60453W        W28926  41.815  26.684   5.106
60454W        W28927  14.096   2.898  14.020
60455W        W28928   9.729  16.127  11.495
60456W        W28929  24.196  22.032   0.407
60457W        W28930  14.658  42.343   1.748
60458W        W28931  29.515  39.349   4.751
60459W        W28932  16.088  11.163  11.564
60460W        W28933   7.846   9.304   4.190
60461W        W28934  35.046  25.709   3.254
60462W        W28935  15.793  14.689  14.282
60463W        W28936   7.408   4.733   2.254
60464W        W28937  14.745  35.603   0.429
60465W        W28938  38.514  19.753  12.981
60466W        W28939   9.326  17.653  10.914
60467W        W28940  28.100  30.472  12.840
60468W        W28941  18.251  33.384   1.233
60469W        W28942  44.290  32.972   1.701
60470W        W28943  15.661  44.010  12.012
60471W        W28944  37.919  14.216   0.777
60472W        W28945  33.973   9.369   3.677
60473W        W28946   8.204  21.184   2.824
60474W        W28947  37.391  18.120   4.144
60475W        W28948  15.581   5.853   2.221
60476W        W28949   3.938  18.672  11.558
60477W        W28950  25.100   2.377  14.884
60478W        W28951   2.380  28.185  12.825
60479W        W28952  38.467   7.793  12.405
60480W        W28953  18.153  44.989   3.284
60481W        W28954  32.474  12.779   0.887
60482W        W28955   3.795   4.310   2.662
60483W        W28956  39.895  42.525   1.327
60484W        W28957  20.709  14.103   2.343
60485W        W28958   5.749  19.608   0.261
60486W        W28959  44.895  29.495   2.351
60487W        W28960  10.150   9.705   1.241
60488W        W28961  19.216  39.052  11.418
60489W        W28962  17.637   3.928  14.912
60490W        W28963  43.977  16.699   0.332
60491W        W28964  19.276  34.082  12.349
60492W        W28965   8.202   0.867  13.332
60493W        W28966   4.393  25.486   3.165
60494W        W28967  33.039  31.416   4.608
60495W        W28968   7.301   7.177   2.821
60496W        W28969  39.965  32.584  14.010
60497W        W28970   2.325  33.055  11.371
60498W        W28971  19.043   8.242   1.846
60499W        W28972  37.439  32.978   3.697
60500W        W28973  41.423   1.957   0.378
60501W        W28974  23.598  13.168   3.259
60502W        W28975  21.128  28.135  12.521
60503W        W28976   4.735  31.966   1.710
60504W        W28977  27.162   3.449   2.205
60505W        W28978  40.461   9.257  11.435
60506W        W28979  37.940  17.066  10.890
60507W        W28980  19.665  27.543  13.892
60508W        W28981  27.581  10.336   4.122
60509W        W28982  26.178  39.825  10.939
60510W        W28983   3.721  23.562   4.709
60511W        W28984  15.159  11.160   0.865
60512W        W28985  10.687   2.757  14.371
60513W        W28986  24.983  36.394   3.708
60514W        W28987   1.247  41.950  13.504
60515W        W28988  12.132  15.329   2.699
60516W        W28989  40.346  43.871   4.673
60517W        W28990  30.434  17.797   2.365
60518W        W28991  14.150  10.875   4.632
60519W        W28992   5.239  36.482  12.920
60520W        W28993  30.578  39.879   4.267
60521W        W28994  34.894  22.191   1.721
60522W        W28995  17.170  29.045  13.838
60523W        W28996   7.203  19.142  13.520
60524W        W28997  34.004  33.875  14.442
60525W        W28998  43.892   6.254   0.387
60526W        W28999   4.731  30.939  10.605
60527W        W29000  41.920  22.549  14.395
60528W        W29001   9.276  16.626  14.877
60529W        W29002  10.738  21.226  12.048
60530W        W29003  35.961  23.226  10.955
60531W        W29004  12.678  31.134  13.353
60532W        W29005   1.363  14.305  13.873
60533W        W29006  23.118   4.394  10.992
60534W        W29007   5.215  10.170   3.844
60535W        W29008  44.500  16.093  10.931
60536W        W29009  29.938  26.560  12.054
60537W        W29010  43.469  21.551  14.485
60538W        W29011   7.834  37.905   2.258
60539W        W29012  38.437   2.946   1.250
60540W        W29013  13.694  16.174  11.457
60541W        W29014   8.349  25.150   3.374
60542W        W29015  26.192   3.772   1.852
60543W        W29016  25.594  37.867   2.731
60544W        W29017   7.795   6.249  10.959
60545W        W29018  19.256   0.858  10.922
60546W        W29019  15.225  42.818  11.006
60547W        W29020  18.787  22.663  14.954
60548W        W29021  13.229   7.396  13.442
60549W        W29022   4.243  22.545  12.372
60550W        W29023  40.392  44.993   2.805
60551W        W29024  15.122   5.735   2.238
60552W        W29025  20.663  41.412   2.400
60553W        W29026  27.516  24.183   2.251
60554W        W29027   0.344  12.303  11.934
60555W        W29028   2.404  25.972  11.997
60556W        W29029  44.428  25.681   1.771
60557W        W29030  14.160  15.263   3.334
60558W        W29031   3.924   6.373   1.402
60559W        W29032   4.354   7.846  11.429
60560W        W29033  41.902  29.022   0.834
60561W        W29034  19.167  43.381   4.830
60562W        W29035  42.374  24.090   1.868
60563W        W29036   6.266   7.172  11.111
60564W        W29037  21.100  14.704   1.427
60565W        W29038  16.231   9.847   2.279
60566W        W29039  33.075  27.476   0.313
60567W        W29040  21.142  16.728  14.824
60568W        W29041  41.294   1.782   2.411
60569W        W29042  33.940  22.681  11.063
60570W        W29043  44.409  27.941  14.360
60571W        W29044  15.805   0.376  10.069
60572W        W29045  35.897   5.750   2.324
60573W        W29046  32.980  16.682   3.788
60574W        W29047  15.675  36.018  10.133
60575W        W29048  23.130   0.271   1.726
60576W        W29049  44.441   4.736  10.440
60577W        W29050   4.927  20.071   3.863
60578W        W29051   3.904  39.429   1.708
60579W        W29052  40.500  15.200   4.705
60580W        W29053   7.387  15.142   1.451
60581W        W29054  30.077  32.530  13.541
60582W        W29055  21.106  36.550   1.223
60583W        W29056   5.384   6.692  12.939
60584W        W29057  33.519   0.362  11.993
60585W        W29058  39.999  12.299  13.861
60586W        W29059  26.964   3.238  14.317
60587W        W29060  32.956  28.478  13.411
60588W        W29061  23.225  43.890  14.344
60589W        W29062   1.929  41.488  10.526
60590W        W29063  29.966   8.344  13.983
60591W        W29064  20.089   9.861  11.425
60592W        W29065  14.303  15.194  12.967
60593W        W29066  27.602  30.069   3.275
60594W        W29067  38.415  32.007   1.916
60595W        W29068  35.517  16.225  10.410
60596W        W29069  35.420  41.437   2.749
60597W        W29070  21.156   8.187   3.829
60598W        W29071  29.554  37.528   3.211
60599W        W29072  19.106  37.981  12.079
60600W        W29073  33.954  16.111   2.771
60601W        W29074   2.422  11.719   3.772
60602W        W29075  20.239  38.445   3.780
60603W        W29076  32.067  18.149  14.390
60604W        W29077  20.065  11.212  13.431
60605W        W29078  33.537  16.640  11.471
60606W        W29079   1.306   9.890  11.884
60607W        W29080  21.113  10.360  12.491
60608W        W29081  41.354  35.507  13.490
60609W        W29082  40.832  36.074  14.948
60610W        W29083  38.921  18.272   2.849
60611W        W29084  41.844  25.556  14.420
60612W        W29085  37.069  33.890   1.247
60613W        W29086  30.073  21.576  14.299
60614W        W29087   5.824  30.061   2.796
60615W        W29088  42.360  12.130   0.959
60616W        W29089  26.151   0.473   4.600
60617W        W29090  42.961  33.452  11.970
60618W        W29091  21.062  11.725  12.360
60619W        W29092  30.964  33.465   0.956
60620W        W29093  36.872   5.217   0.811
60621W        W29094  21.698  25.015  14.785
60622W        W29095  15.640  31.573   3.255
60623W        W29096  21.184  37.349  12.499
60624W        W29097  12.173   4.906  14.938
60625W        W29098  34.896  24.088   2.836
60626W        W29099   5.394  42.862   4.816
60627W        W29100  17.062   9.788  10.587
60628W        W29101  27.139  13.255   2.877
60629W        W29102  23.066   7.208  10.950
60630W        W29103  39.537  19.575   2.328
60631W        W29104   5.407  20.615  13.533
60632W        W29105  44.833  18.647   0.412
60633W        W29106  31.124  36.370   3.743
60634W        W29107  42.005  21.207   0.344
60635W        W29108  20.272  27.610   2.330
60636W        W29109   9.761  16.210   4.646
60637W        W29110  14.272   7.680  11.933
60638W        W29111  19.203  38.959   2.777
60639W        W29112  11.255  30.533   4.120
60640W        W29113  42.966   4.336   4.352
60641W        W29114  21.611  40.023   0.737
60642W        W29115  41.918  18.245  13.056
60643W        W29116   3.335  11.685   2.721
60644W        W29117  10.216  38.399  12.011
60645W        W29118  12.317  29.929   2.289
60646W        W29119  18.269  17.061   3.313
60647W        W29120  29.517  23.200   0.457
60648W        W29121  42.844  37.395   9.952
60649W        W29122  17.567  13.627   0.871
60650W        W29123  33.964  12.181   0.791
60651W        W29124   5.272  10.260  14.405
60652W        W29125  20.544  24.039  14.350
60653W        W29126   2.364  38.548   0.897
60654W        W29127  43.992  12.266   4.679
60655W        W29128  14.174  40.348   2.808
60656W        W29129   1.411  35.468  14.855
60657W        W29130  34.973  26.543  10.983
60658W        W29131  30.421  15.679  13.390
60659W        W29132  22.624  24.064   0.310
60660W        W29133  21.622   0.885   1.436
60661W        W29134  27.592  44.877   5.803
60662W        W29135  16.231   6.263   4.734
60663W        W29136   8.226   1.465  14.291
60664W        W29137  41.337  35.541  14.909
60665W        W29138  29.955   9.308   2.185
60666W        W29139  28.048   0.750  11.440
60667W        W29140  29.063  11.751  11.883
60668W        W29141  42.012   8.739  11.518
60669W        W29142   6.355   5.294   2.831
60670W        W29143   8.777   3.248  12.026
60671W        W29144  27.597  14.610  10.622
60672W        W29145  13.612  14.340  11.066
60673W        W29146   8.695  15.096   0.399
60674W        W29147   5.329  36.968  10.977
60675W        W29148  19.746  29.455   0.427
60676W        W29149  40.809  16.287  10.624
60677W        W29150  14.328  24.575  11.877
60678W        W29151  39.343  35.394   4.249
60679W        W29152  16.306  43.783   4.121
60680W        W29153  21.197   5.363  12.095
60681W        W29154  41.439   0.799   3.871
60682W        W29155  17.254  10.333  11.093
60683W        W29156  20.223  25.547  14.908
60684W        W29157   4.422  36.987  13.006
60685W        W29158  36.895  18.554  12.982
60686W        W29159   9.372  18.197  12.973
60687W        W29160  43.853   6.360  13.434
60688W        W29161  20.090   9.324   2.393
60689W        W29162   2.757  39.845   3.242
60690W        W29163  15.299  22.169  11.072
60691W        W29164  42.392  26.172  13.523
60692W        W29165   1.783  10.354  11.086
60693W        W29166  29.143  13.190  12.922
60694W        W29167  33.020  16.132  14.383
60695W        W29168  12.276  20.141  11.120
60696W        W29169  30.980   7.177  13.525
60697W        W29170   8.264  28.148   2.226
60698W        W29171  38.484   8.169  10.523
60699W        W29172  28.477  16.083   1.754
60700W        W29173  15.292  38.518   1.706
60701W        W29174  32.124  22.170   3.259
60702W        W29175  27.126  18.175   2.794
60703W        W29176   1.475  19.577  14.810
60704W        W29177  28.603   3.802   3.844
60705W        W29178  15.589  30.578  10.475
60706W        W29179   4.266  22.018  13.534
60707W        W29180  25.662  12.633  10.599
60708W        W29181  17.093  31.146   0.296
60709W        W29182  28.162   0.437  14.826
60710W        W29183  12.164  31.635   4.615
60711W        W29184  26.975   1.387  10.499
60712W        W29185  11.715  30.939  10.411
60713W        W29186  27.471  38.838   3.358
60714W        W29187   7.251  17.117  12.002
60715W        W29188  33.540  12.124   2.242
60716W        W29189  41.001  12.805  11.534
60717W        W29190   6.866  26.964  14.343
60718W        W29191  34.982  28.501   4.612
60719W        W29192   7.172  29.552   3.722
60720W        W29193  16.313  37.386   1.409
60721W        W29194  29.043  29.496  11.890
60722W        W29195  21.698  37.075  11.038
60723W        W29196  30.138  14.718  11.583
60724W        W29197   7.884  34.393   1.225
60725W        W29198  21.721  39.378  10.639
60726W        W29199  13.125  22.168   0.351
60727W        W29200  28.043   9.195  11.580
60728W        W29201  41.815   5.257  12.966
60729W        W29202  35.961  23.124   4.194
60730W        W29203   2.807  42.779  12.008
60731W        W29204  27.494  44.489   4.301
60732W        W29205   3.440  29.475   1.260
60733W        W29206   5.296  25.559   1.385
60734W        W29207  37.084   8.268  14.441
60735W        W29208  32.131  19.230   3.247
60736W        W29209  18.218   4.422   2.192
60737W        W29210   6.360   5.272   1.778
60738W        W29211   0.323  39.043  11.066
60739W        W29212   2.413  40.384   4.690
60740W        W29213  26.037  32.985   0.900
60741W        W29214   8.267  32.943   2.688
60742W        W29215  41.839  29.587  12.532
60743W        W29216  13.673  37.462  10.557
60744W        W29217   7.366  38.869   2.704
60745W        W29218  22.116   6.723   0.445
60746W        W29219   0.263  17.105   4.794
60747W        W29220  27.538  32.400   0.270
60748W        W29221  25.106  29.640   4.257
60749W        W29222  44.469  16.263   2.890
60750W        W29223   2.258  38.894  11.081
60751W        W29224  18.265  19.670   1.758
60752W        W29225   2.365  15.598   2.399
60753W        W29226  27.625  41.436  13.821
60754W        W29227  11.373   5.866   2.345
60755W        W29228  18.092  32.888  13.435
60756W        W29229   0.913  19.626   2.717
60757W        W29230  41.023  27.612  12.491
60758W        W29231  41.019  18.276  10.416
60759W        W29232   3.324  19.542   1.369
60760W        W29233  17.079  16.115   2.717
60761W        W29234  23.732  31.044  12.030
60762W        W29235  40.344   8.389   3.155
60763W        W29236   9.288   8.237  14.836
60764W        W29237  11.173  14.111   0.458
60765W        W29238  12.806  17.079   0.756
60766W        W29239  42.284  19.046  11.971
60767W        W29240  31.113  11.668  11.977
60768W        W29241  20.067  33.593   3.673
60769W        W29242  26.075  19.203  13.052
60770W        W29243  39.503  35.548  11.894
60771W        W29244  11.364   0.842   3.250
60772W        W29245  24.716   0.346  14.406
60773W        W29246  36.558  28.440  14.949
60774W        W29247   2.886  35.874   1.302
60775W        W29248  13.256   2.750  11.465
60776W        W29249  38.072  30.013  12.049
60777W        W29250   3.824  44.772   4.614
60778W        W29251  44.903  40.987  11.535
60779W        W29252  32.620  27.012  13.457
60780W        W29253  44.334  12.225  13.801
60781W        W29254  44.867  30.659  11.971
60782W        W29255  17.291  20.157  12.483
60783W        W29256  38.023  13.300  12.531
60784W        W29257  31.467  40.855   4.620
60785W        W29258   1.825  25.631   1.248
60786W        W29259  21.092  41.477  13.538
60787W        W29260  26.476  15.608   1.438
60788W        W29261  36.851  39.383  10.412
60789W        W29262  44.985   9.735   1.784
60790W        W29263  27.146   0.781   2.697
60791W        W29264  41.946  31.643   4.700
60792W        W29265  41.356  27.450  12.382
60793W        W29266  34.001  32.120  13.940
60794W        W29267  34.462  14.634  10.456
60795W        W29268  15.233   5.265  11.109
60796W        W29269  10.719  41.027  14.845
60797W        W29270  23.644  34.377  12.533
60798W        W29271   4.759  43.438   1.782
60799W        W29272  28.935  28.529  14.909
60800W        W29273   4.231  27.608  12.827
60801W        W29274  35.961   7.336  15.000
60802W        W29275  32.472   7.247  12.411
60803W        W29276  17.712   3.882   2.760
60804W        W29277  34.394  17.591  11.010
60805W        W29278  27.480   4.387  14.775
60806W        W29279  17.127  31.113   0.827
60807W        W29280   7.801  40.946   3.863
60808W        W29281  14.631   6.875   4.817
60809W        W29282   6.301  22.020   0.358
60810W        W29283  12.705  41.310   2.349
60811W        W29284  15.215  44.276  12.462
60812W        W29285  21.624  18.568  12.452
60813W        W29286  38.913  31.431   1.802
60814W        W29287  10.855  24.639   3.737
60815W        W29288  25.489  28.124   3.359
60816W        W29289  43.484  41.316   2.212
60817W        W29290  17.178   0.756  10.044
60818W        W29291   1.736  13.112   0.276
60819W        W29292  42.990   3.713  11.028
60820W        W29293  13.199  27.026   1.333
60821W        W29294  21.548  32.535  13.529
60822W        W29295   7.407   1.315   2.706
60823W        W29296  39.500  10.746  13.895
60824W        W29297   1.327  12.315  12.893
60825W        W29298   5.429  12.667  11.374
60826W        W29299  30.551  44.932   4.340
60827W        W29300  42.969   7.851   0.388
60828W        W29301  18.216   1.418   4.636
60829W        W29302   3.223  12.128  11.932
60830W        W29303  30.515   1.277  11.115
60831W        W29304  21.541  34.511   3.283
60832W        W29305  32.954   0.822  13.871
60833W        W29306  42.465   7.271  13.935
60834W        W29307   8.811  33.895  11.996
60835W        W29308  10.873   0.938   3.340
60836W        W29309  24.712  38.481   2.410
60837W        W29310  12.212  36.039  14.400
60838W        W29311  24.994  15.761   3.245
60839W        W29312  32.411  20.040  14.813
60840W        W29313  27.692   6.896   1.424
60841W        W29314  36.570  39.449   2.776
60842W        W29315  42.868   8.363  13.484
60843W        W29316  40.432   0.408  10.416
60844W        W29317  38.389  30.652   3.778
60845W        W29318  38.443   1.838  13.958
60846W        W29319  10.635  19.709   3.200
60847W        W29320  29.638  14.692   4.235
60848W        W29321  27.007  28.037  11.474
60849W        W29322  44.966  13.230  10.560
60850W        W29323   9.748  29.108  12.488
60851W        W29324  28.506  11.153  14.341
60852W        W29325  31.544  35.473  13.808
60853W        W29326   5.195   1.742   4.838
60854W        W29327  20.181  25.032   1.385
60855W        W29328  12.724  31.036  11.528
60856W        W29329  30.637  11.307  10.413
60857W        W29330  11.709  39.534  12.062
60858W        W29331  10.279  41.293  11.459
60859W        W29332   4.292   2.809  13.057
60860W        W29333  15.193  38.047   3.206
60861W        W29334  27.602   9.706  13.031
60862W        W29335  44.762  29.983   3.788
60863W        W29336  11.646  33.884   1.257
60864W        W29337  25.967  32.428   1.427
60865W        W29338   5.277  33.941   4.283
60866W        W29339  11.632  16.127   0.866
60867W        W29340  44.818  31.982   2.237
60868W        W29341  35.880  10.842   1.929
60869W        W29342  26.956  21.184  11.879
60870W        W29343   0.430  38.403   1.739
60871W        W29344  14.284  20.100   4.820
60872W        W29345  18.101  39.510   0.472
60873W        W29346  24.514  24.720   2.203
60874W        W29347  23.693  36.349   3.853
60875W        W29348  18.596   9.356  10.626
60876W        W29349   1.759  21.521   4.647
60877W        W29350  13.260   5.243   0.312
60878W        W29351  24.137  33.543  10.615
60879W        W29352  19.608  17.307   1.299
60880W        W29353  44.947  40.435  10.582
60881W        W29354  17.088  16.569  10.956
60882W        W29355  17.095  42.381   2.348
60883W        W29356  27.552  14.610  12.452
60884W        W29357   8.381  32.470  11.058
60885W        W29358  32.612  37.489   1.881
60886W        W29359  20.031  41.291  10.597
60887W        W29360  36.353  21.633   1.772
60888W        W29361  11.718  13.295  10.483
60889W        W29362   7.255   5.794  10.544
60890W        W29363  26.480  40.903   1.789
60891W        W29364   7.692   5.868  12.833
60892W        W29365   4.349   5.319  14.951
60893W        W29366  44.790  20.264   3.236
60894W        W29367   5.875  19.748  11.558
60895W        W29368  19.107  35.433   0.845
60896W        W29369  37.057  19.778  12.855
60897W        W29370  28.639  23.036  13.478
60898W        W29371   9.323  13.113   2.716
60899W        W29372  13.748  35.954   2.815
60900W        W29373  26.195  33.576  13.950
60901W        W29374  39.818  43.393   3.656
60902W        W29375  40.034   0.757  10.503
60903W        W29376   4.449  21.556   0.289
60904W        W29377  32.615  19.627   4.265
60905W        W29378  16.699  33.966   3.763
60906W        W29379   8.841  13.714   0.795
60907W        W29380  30.065  42.023   2.298
60908W        W29381  19.202  39.377  11.934
60909W        W29382   4.345  12.764   4.644
60910W        W29383  19.062  32.133  11.858
60911W        W29384  27.568  21.556  11.547
60912W        W29385   8.745  35.452   2.250
60913W        W29386  43.873  42.879   1.285
60914W        W29387   0.744  27.069  13.909
60915W        W29388   1.954   1.458  13.897
60916W        W29389  40.322  25.569  13.061
60917W        W29390  32.122  22.252   0.787
60918W        W29391  39.386  26.134  10.478
60919W        W29392  13.666  38.910  13.971
60920W        W29393  37.536  15.644  11.522
60921W        W29394   7.692  15.308   4.787
60922W        W29395  15.638  20.742   2.375
60923W        W29396  11.728   7.780  12.571
60924W        W29397  13.298  30.595  13.056
60925W        W29398  37.409   9.268   4.203
60926W        W29399  32.953  29.023   1.350
60927W        W29400  11.350  12.694  13.808
60928W        W29401  19.077  41.353   3.155
60929W        W29402  37.930  41.401   3.338
60930W        W29403  33.069  15.586   4.792
60931W        W29404  27.150  28.590   3.254
60932W        W29405  41.992   4.386   1.932
60933W        W29406   1.816  21.611   3.817
60934W        W29407  14.131  43.835  10.456
60935W        W29408   0.332   2.780  12.462
60936W        W29409  32.441  26.613  11.974
60937W        W29410  26.544   4.800   2.707
60938W        W29411   4.822  10.247   0.866
60939W        W29412  28.562  38.438   1.795
60940W        W29413  27.076   4.325  13.407
60941W        W29414  31.949   6.887   3.656
60942W        W29415  13.825  32.032   4.314
60943W        W29416  22.089  44.364   4.203
60944W        W29417   6.833   0.432  10.403
60945W        W29418   6.787  21.213   2.802
60946W        W29419   7.256  40.983  12.860
60947W        W29420  34.572  34.972  10.488
60948W        W29421  43.887  31.117   4.334
60949W        W29422  38.920  29.658   3.227
60950W        W29423  37.084  31.061   4.709
60951W        W29424  33.985  25.503   3.318
60952W        W29425   2.935  12.756  11.977
60953W        W29426  42.468  23.692   1.301
60954W        W29427  39.370   6.196   3.335
60955W        W29428  33.582   1.747  12.432
60956W        W29429  24.995   4.887  12.506
60957W        W29430  14.137  44.329   3.796
60958W        W29431  43.358   2.345   0.870
60959W        W29432  32.987   4.838  10.550
60960W        W29433  20.189  22.574   4.281
60961W        W29434  43.415   0.329  10.621
60962W        W29435  17.116  38.567  10.499
60963W        W29436   0.947  16.711   2.895
60964W        W29437  30.633   7.894   1.248
60965W        W29438   3.799  42.806   0.413
60966W        W29439  39.470  37.047   0.378
60967W        W29440  19.610  15.266  12.916
60968W        W29441  34.949  27.124  12.463
60969W        W29442  40.466   9.856   1.396
60970W        W29443   7.912  22.121   0.899
60971W        W29444  19.134  38.901  14.888
60972W        W29445  29.070  32.909   4.699
60973W        W29446  22.682  43.775  11.372
60974W        W29447   6.876  11.216  12.451
60975W        W29448  23.549  14.296  10.640
60976W        W29449  20.066  39.916  14.290
60977W        W29450  41.390  26.150  10.607
60978W        W29451   9.276  32.912  14.441
60979W        W29452  32.893  44.980  14.511
60980W        W29453  41.041  24.047   2.697
60981W        W29454  34.480   4.316   0.243
60982W        W29455  19.271  34.510  12.078
60983W        W29456  25.975  44.310   3.312
60984W        W29457   5.251  13.683   5.723
60985W        W29458  27.640  43.351   2.820
60986W        W29459  18.158  33.987   1.399
60987W        W29460  14.141  35.866  10.962
60988W        W29461  37.522  36.997   4.763
60989W        W29462  36.436  33.528   1.291
60990W        W29463  14.645  31.452  12.435
60991W        W29464   6.301  10.741   1.451
60992W        W29465  15.787  27.965   5.132
60993W        W29466  14.224  11.302  11.457
60994W        W29467  29.927  15.211  13.447
60995W        W29468  24.677  41.457  13.425
60996W        W29469  16.595  25.022  14.782
60997W        W29470   8.186  12.312   1.695
60998W        W29471  17.139  43.953   3.649
60999W        W29472  35.096  20.087   0.251
61000W        W29473   4.372  13.657   5.618
61001W        W29474  10.191  32.573   0.843
61002W        W29475  16.776   7.232  11.463
61003W        W29476  44.366  21.140   9.919
61004W        W29477  33.618  18.114  13.977
61005W        W29478  20.539  16.679  14.961
61006W        W29479   7.697   8.394  13.435
61007W        W29480  44.294  18.671  10.441
61008W        W29481  38.432  32.917   2.210
61009W        W29482  34.540  33.076  11.087
61010W        W29483  36.859  32.444  12.080
61011W        W29484  37.869   0.744   2.903
61012W        W29485  37.453   8.733  12.468
61013W        W29486  43.806  42.815   4.306
61014W        W29487  13.253  41.338   9.940
61015W        W29488  34.528  28.109   4.230
61016W        W29489  26.661   1.385  14.961
61017W        W29490   5.332  26.538   4.829
61018W        W29491   8.732  41.953  13.894
61019W        W29492  39.536  16.291  13.388
61020W        W29493  22.251   3.953  14.815
61021W        W29494  26.081  20.077   2.843
61022W        W29495  39.867  24.217  12.492
61023W        W29496  44.867   3.749   4.188
61024W        W29497   5.762  41.534   0.825
61025W        W29498  17.123  40.932   2.270
61026W        W29499  34.961  32.984   0.469
61027W        W29500  43.333  33.942  13.063
61028W        W29501   6.872  12.173  11.956
61029W        W29502  10.773   2.755   2.831
61030W        W29503  14.706   4.774   0.736
61031W        W29504   8.721  19.747   0.831
61032W        W29505   3.322  14.254   0.350
61033W        W29506  40.886  12.619   4.354
61034W        W29507   0.764  24.132   0.959
61035W        W29508   7.873  40.450   2.778
61036W        W29509  18.740  28.179  12.515
61037W        W29510  24.198  12.270  13.335
61038W        W29511  38.550  22.166  13.926
61039W        W29512   9.305  35.563  13.966
61040W        W29513  17.137  29.140   0.886
61041W        W29514  24.626  21.519  11.544
61042W        W29515  19.761  38.544   1.303
61043W        W29516  29.629   1.935   4.312
61044W        W29517  24.498  42.858   0.271
61045W        W29518   5.861  30.165  10.522
61046W        W29519   0.265  44.439  13.832
61047W        W29520   1.924   6.782  13.923
61048W        W29521  43.985  12.619   0.319
61049W        W29522  30.446   4.418   3.643
61050W        W29523  37.382   9.255  14.427
61051W        W29524   3.916  23.510  13.373
61052W        W29525   8.886  22.664  10.619
61053W        W29526  35.360  34.891   4.763
61054W        W29527  39.831  31.450   1.234
61055W        W29528  35.457  21.691   0.818
61056W        W29529  21.089  42.376   1.341
61057W        W29530  13.828  26.984   0.369
61058W        W29531  22.713  31.065   0.342
61059W        W29532  36.961  18.716   3.213
61060W        W29533  15.735  15.158  11.521
61061W        W29534  10.186  20.555  10.990
61062W        W29535  28.547  31.540   3.807
61063W        W29536  25.016  10.297  14.289
61064W        W29537  34.463   8.886   2.319
61065W        W29538  43.337  42.898   0.839
61066W        W29539  21.548  22.540  14.005
61067W        W29540  24.600  33.425   4.783
61068W        W29541   6.392  15.102  13.365
61069W        W29542  17.606  25.186  12.553
61070W        W29543   4.705  24.479   0.939
61071W        W29544  18.164  29.524   3.287
61072W        W29545  42.784   2.441  12.420
61073W        W29546  33.049  29.484  10.499
61074W        W29547  17.211  43.272   3.682
61075W        W29548   0.788   6.195  10.001
61076W        W29549  37.952  27.620  14.832
61077W        W29550  23.036  14.811   0.762
61078W        W29551  39.854  31.046   0.748
61079W        W29552   8.258  25.089  14.360
61080W        W29553  20.749   8.301  13.014
61081W        W29554   0.370  29.450   4.793
61082W        W29555   3.425  18.176  13.987
61083W        W29556   5.245  15.658   5.569
61084W        W29557  21.534  14.302  10.063
61085W        W29558  24.553  30.481   1.389
61086W        W29559  18.212  32.128  10.413
61087W        W29560  31.520   1.312   1.352
61088W        W29561  32.625  39.872  14.452
61089W        W29562  16.802  33.441   3.707
61090W        W29563   1.817   7.751  13.848
61091W        W29564  38.052   0.295  11.874
61092W        W29565  33.468   7.341  11.040
61093W        W29566  12.662  39.928   2.698
61094W        W29567  31.984  23.018   0.802
61095W        W29568  27.624  32.992  14.797
61096W        W29569   9.160  31.035  12.451
61097W        W29570  36.982  44.919   3.787
61098W        W29571   5.266  11.699  13.862
61099W        W29572  40.352  24.490  10.468
61100W        W29573  13.294  12.290  11.486
61101W        W29574   5.811   0.937  10.972
61102W        W29575  36.888  18.168   1.265
61103W        W29576  30.991  11.634   3.364
61104W        W29577  35.861  10.347  12.032
61105W        W29578  30.566  15.188  11.424
61106W        W29579   0.873  24.229   1.391
61107W        W29580  37.454  25.022   4.733
61108W        W29581  36.902   1.782   4.743
61109W        W29582  36.470  36.555   1.318
61110W        W29583  14.265  13.118   5.317
61111W        W29584  33.442  29.153  14.995
61112W        W29585  25.013  43.510  12.359
61113W        W29586   1.809  11.326  11.054
61114W        W29587   9.848  24.687   0.908
61115W        W29588  37.013  32.515  11.426
61116W        W29589  13.684  28.050  12.071
61117W        W29590   3.395  11.259  12.937
61118W        W29591   9.886   5.341  13.391
61119W        W29592  13.338  25.690   3.763
61120W        W29593  37.518  39.326   4.200
61121W        W29594  29.019  11.154  13.469
61122W        W29595  29.556   7.224   3.371
61123W        W29596  10.665   4.382   2.398
61124W        W29597   4.901  28.606  13.544
61125W        W29598  39.893  18.655   2.368
61126W        W29599  43.491  34.462  13.313
61127W        W29600  29.164  11.151   0.390
61128W        W29601  38.538  15.250  12.382
61129W        W29602  41.292  35.062   4.223
61130W        W29603   0.276  21.744  11.969
61131W        W29604  14.711  18.137  12.050
61132W        W29605  16.315  42.894   2.787
61133W        W29606  25.173  32.475  14.780
61134W        W29607  22.549  19.541  11.450
61135W        W29608   1.875  44.410   0.871
61136W        W29609  11.815  15.593  12.878
61137W        W29610  41.443  23.005  13.982
61138W        W29611  13.842  44.461   3.298
61139W        W29612  21.729  34.952  13.432
61140W        W29613  25.536  14.275   4.600
61141W        W29614  19.692  25.081  10.933
61142W        W29615  30.504  28.439   4.277
61143W        W29616  17.733   4.835  12.549
61144W        W29617  16.624   4.242  11.518
61145W        W29618  44.774  43.394  10.974
61146W        W29619  35.570  34.930  10.946
61147W        W29620   6.293  19.211   2.339
61148W        W29621  12.240  21.677  13.044
61149W        W29622  16.749  39.009   4.264
61150W        W29623  34.020  15.282  13.343
61151W        W29624  31.979  35.467   4.678
61152W        W29625  32.417  33.093   1.791
61153W        W29626  13.296  32.055   1.845
61154W        W29627   7.285  32.480   4.219
61155W        W29628  25.517  29.138   2.189
61156W        W29629  42.842  35.045  13.878
61157W        W29630  18.100  15.741  13.942
61158W        W29631  12.178  17.712  13.427
61159W        W29632  20.194   9.348  13.851
61160W        W29633  34.988  43.463  13.897
61161W        W29634  23.590  15.216   9.604
61162W        W29635  23.701  23.183  13.003
61163W        W29636  41.319  38.477   2.881
61164W        W29637  23.112  14.217   1.377
61165W        W29638  25.521  15.628  12.357
61166W        W29639  33.068   0.836   2.747
61167W        W29640  21.023  23.721   1.773
61168W        W29641   8.321  39.970   3.863
61169W        W29642  10.756  12.262  13.825
61170W        W29643   8.722  42.841  10.066
61171W        W29644  22.065  21.722   1.927
61172W        W29645  16.277   9.165  11.377
61173W        W29646  17.621  38.355   4.245
61174W        W29647  31.572  31.991   1.732
61175W        W29648   4.311  10.788  14.025
61176W        W29649   8.793   5.194   1.884
61177W        W29650  21.094   5.695   3.205
61178W        W29651  10.297   9.196  14.825
61179W        W29652  29.546  40.428   0.854
61180W        W29653   5.431  10.639   0.886
61181W        W29654  43.803  37.838  13.839
61182W        W29655  34.017  34.482  12.488
61183W        W29656  27.093  37.468   4.298
61184W        W29657  39.829  24.696   3.329
61185W        W29658   6.275   9.343   1.211
61186W        W29659  23.661  39.340  10.429
61187W        W29660  14.135  29.032   1.380
61188W        W29661   0.975  24.555   0.858
61189W        W29662  41.398  29.445  11.080
61190W        W29663  30.643  30.598   3.701
61191W        W29664  35.476  38.334  11.593
61192W        W29665  11.211  35.428  11.376
61193W        W29666  12.841  14.806  12.353
61194W        W29667  30.070  21.143   4.209
61195W        W29668   1.322  25.676  12.948
61196W        W29669  10.138  12.653  14.277
61197W        W29670  24.185  42.281   0.886
61198W        W29671  22.197  15.153   5.304
61199W        W29672   1.318  20.612  13.489
61200W        W29673  24.152  24.602   4.655
61201W        W29674  36.527   0.887   1.856
61202W        W29675   6.802   4.360   0.802
61203W        W29676  23.159  16.282   4.350
61204W        W29677  39.380  11.309  10.575
61205W        W29678   2.242  11.680   0.791
61206W        W29679  15.274  34.502  11.496
61207W        W29680  27.534  38.851   4.676
61208W        W29681  13.684  42.885   2.890
61209W        W29682  18.603  25.201   0.814
61210W        W29683  12.227  37.917  12.878
61211W        W29684  14.261  31.097  13.517
61212W        W29685  42.301  33.533   2.787
61213W        W29686  43.882  24.694  12.443
61214W        W29687  18.666  15.283  13.044
61215W        W29688  29.595  41.880  10.475
61216W        W29689  12.193  20.671  11.520
61217W        W29690  43.864  15.169   3.357
61218W        W29691  43.849  15.172  13.996
61219W        W29692  36.436  36.009  12.475
61220W        W29693  29.581  10.682  12.439
61221W        W29694   7.832   2.403  14.354
61222W        W29695  12.159  18.242   0.887
61223W        W29696  25.609   6.762   1.875
61224W        W29697   1.961  28.680   3.866
61225W        W29698  39.821  44.401   3.233
61226W        W29699  23.663  19.108   0.279
61227W        W29700   2.397   7.724  12.417
61228W        W29701  11.316  16.761  10.619
61229W        W29702  24.227  15.645  11.480
61230W        W29703  41.844  18.746  13.996
61231W        W29704  40.494   9.712  13.449
61232W        W29705  23.648  14.823   1.380
61233W        W29706   6.257  42.434  12.426
61234W        W29707  22.537  42.917   2.237
61235W        W29708  31.968   5.867   1.353
61236W        W29709  15.677  20.544  14.449
61237W        W29710  30.096  39.862   0.815
61238W        W29711  26.120   3.908  11.951
61239W        W29712  33.555  22.210   3.772
61240W        W29713  36.573  38.369   1.356
61241W        W29714  32.590  44.893  10.952
61242W        W29715  28.466  40.359   2.748
61243W        W29716  40.959  37.543  10.536
61244W        W29717  24.541  23.045   0.768
61245W        W29718  41.384   8.298   2.863
61246W        W29719  33.926  31.453  14.369
61247W        W29720  42.934  16.306  10.979
61248W        W29721  41.468  23.205   1.371
61249W        W29722  28.494   3.794  12.082
61250W        W29723  16.769  36.913  13.036
61251W        W29724   7.217  13.836   3.738
61252W        W29725  24.214  44.475   1.416
61253W        W29726  17.231  35.900   5.144
61254W        W29727  40.474  31.131  11.102
61255W        W29728  28.547   9.268  14.001
61256W        W29729  40.306  32.587   1.902
61257W        W29730  30.474   6.905   0.405
61258W        W29731  30.499   3.799   5.319
61259W        W29732   6.774  16.649  10.477
61260W        W29733  37.927   7.250   1.365
61261W        W29734   1.863  25.114  10.480
61262W        W29735  10.658   5.717   3.796
61263W        W29736  34.984   5.771   1.917
61264W        W29737  38.895   3.811   3.665
61265W        W29738  34.501   2.397   1.839
61266W        W29739  10.241  11.812   3.791
61267W        W29740  21.227  32.958  12.355
61268W        W29741  27.042  12.179  14.328
61269W        W29742  43.807  30.096  10.594
61270W        W29743   7.860  32.559  12.953
61271W        W29744  20.745  23.588   0.884
61272W        W29745  42.795  17.766   4.645
61273W        W29746  44.295  11.209   0.314
61274W        W29747  29.512  16.170  13.901
61275W        W29748   4.808  43.939  11.453
61276W        W29749  20.645  20.097   3.162
61277W        W29750  37.452  36.056   2.882
61278W        W29751   8.703  34.887   3.287
61279W        W29752  40.935  26.617  11.887
61280W        W29753  18.086  20.036   4.736
61281W        W29754  32.560  39.973   4.199
61282W        W29755  28.000  33.096  12.575
61283W        W29756  42.479  19.746   2.346
61284W        W29757  14.165  25.483  14.466
61285W        W29758  27.068  35.454   4.664
61286W        W29759  24.066  11.667   3.217
61287W        W29760  38.384  22.511  13.538
61288W        W29761  29.451  43.294  12.397
61289W        W29762  18.720  31.430   1.925
61290W        W29763  33.983  20.109  14.417
61291W        W29764  30.954  20.097   4.347
61292W        W29765  25.699  18.643   3.840
61293W        W29766  38.986  32.409   2.233
61294W        W29767  26.043  29.596   0.901
61295W        W29768   4.228  19.619   3.173
61296W        W29769  32.982  24.541  14.906
61297W        W29770  27.574  12.247   3.770
61298W        W29771  34.080  25.533   0.893
61299W        W29772  32.119  40.050  12.846
61300W        W29773   8.699  13.280   3.649
61301W        W29774  13.616   5.687   4.603
61302W        W29775   2.939  32.984  14.771
61303W        W29776   4.928   4.274   5.777
61304W        W29777  24.646  38.977   0.756
61305W        W29778  23.630  20.215  10.920
61306W        W29779   9.884  29.469  10.946
61307W        W29780  22.018   3.859  13.997
61308W        W29781  34.120  27.109   1.357
61309W        W29782  43.362  35.973   4.347
61310W        W29783   9.251  31.026  14.304
61311W        W29784  24.015   1.901   1.913
61312W        W29785   9.668   6.376  12.418
61313W        W29786  31.456  22.736  13.958
61314W        W29787   3.893  14.713   2.673
61315W        W29788  18.599  41.955  12.896
61316W        W29789  15.298  17.681   2.318
61317W        W29790  38.847  23.704   2.271
61318W        W29791  39.394  38.064  14.810
61319W        W29792  11.703  36.515   1.412
61320W        W29793   7.298  42.031   4.181
61321W        W29794  22.727  27.447   0.467
61322W        W29795   8.751  16.770  11.869
61323W        W29796  30.426  13.732  13.486
61324W        W29797   0.859  33.589  14.896
61325W        W29798  35.865   9.263  13.399
61326W        W29799  15.283  18.685  14.336
61327W        W29800   1.964   3.432   2.726
61328W        W29801  41.421  12.175  13.530
61329W        W29802   5.795  21.103   0.322
61330W        W29803  32.627  14.816   2.684
61331W        W29804  40.397  16.588  10.924
61332W        W29805  43.386  23.201   1.700
61333W        W29806  21.207  44.762   2.297
61334W        W29807  12.703   6.330   4.143
61335W        W29808  40.046  36.940  10.608
61336W        W29809  40.469  35.506   4.818
61337W        W29810  38.487  10.226   4.702
61338W        W29811  19.084  28.074  14.897
61339W        W29812  25.595  25.083  11.978
61340W        W29813  31.003   3.853  12.363
61341W        W29814  35.078  30.612  10.632
61342W        W29815  11.360  16.250   4.159
61343W        W29816  30.952  12.207  13.054
61344W        W29817   0.493   5.923  14.321
61345W        W29818  11.202  35.016   0.420
61346W        W29819  21.056   9.880   0.916
61347W        W29820  43.935  22.196  11.399
61348W        W29821   9.740  21.712   1.797
61349W        W29822  16.591  11.207  10.436
61350W        W29823   9.214  38.495  14.819
61351W        W29824  15.750  20.095   2.218
61352W        W29825  26.634  10.233   0.390
61353W        W29826  36.085  12.837   2.314
61354W        W29827  35.905  33.577   1.715
61355W        W29828   5.773   2.931   4.226
61356W        W29829  22.624  32.134   3.225
61357W        W29830  35.550  22.724  12.550
61358W        W29831   6.922  29.494   2.405
61359W        W29832  19.769  38.877   1.883
61360W        W29833  32.128  29.985   0.797
61361W        W29834  33.984  26.141  13.963
61362W        W29835  32.637  13.603  11.860
61363W        W29836  31.574  28.174  13.951
61364W        W29837  18.194  11.806  11.449
61365W        W29838  32.630   1.442   0.392
61366W        W29839   4.879  10.850  12.876
61367W        W29840  28.610   0.294   4.597
61368W        W29841  44.277   7.807  13.062
61369W        W29842  34.441  35.403  11.862
61370W        W29843   0.422  41.887   2.419
61371W        W29844  23.139  36.560   0.834
61372W        W29845   8.270  23.534   2.346
61373W        W29846  30.452  16.661  10.569
61374W        W29847  40.490  25.188   2.852
61375W        W29848  39.831  39.974   3.190
61376W        W29849  37.849   6.782  13.840
61377W        W29850  17.764  12.217   2.823
61378W        W29851  15.766   8.849   1.337
61379W        W29852  24.198  31.947   4.134
61380W        W29853  10.721  31.525  12.004
61381W        W29854   6.800  36.927  13.446
61382W        W29855  15.819  42.524  12.496
61383W        W29856  34.371  11.198  11.498
61384W        W29857  17.144  18.684  12.864
61385W        W29858  40.027  22.581   1.228
61386W        W29859  40.868  30.513  14.500
61387W        W29860  12.165  28.142  10.490
61388W        W29861  42.929  40.866   4.130
61389W        W29862  42.969  33.505  12.881
61390W        W29863  40.931  10.207  13.993
61391W        W29864  23.608  27.972   0.764
61392W        W29865  11.173  24.716  11.937
61393W        W29866  42.471  16.786   2.688
61394W        W29867   5.754  22.684   1.318
61395W        W29868  21.572   4.432   2.286
61396W        W29869  16.203  41.361   1.919
61397W        W29870  34.478  27.554  14.948
61398W        W29871   0.300  25.515   2.257
61399W        W29872  27.597  39.010   1.841
61400W        W29873  25.192  43.771   1.919
61401W        W29874  29.575  44.487   3.248
61402W        W29875  38.334   1.827   1.367
61403W        W29876  42.788  28.562  12.932
61404W        W29877  18.130   4.831  12.517
61405W        W29878   1.873  19.678   4.717
61406W        W29879  23.062  25.972   4.150
61407W        W29880   5.754  35.973   4.700
61408W        W29881  10.830  15.243  11.111
61409W        W29882   1.775  11.141   4.808
61410W        W29883  29.144  19.266   3.847
61411W        W29884  40.469  30.651  14.305
61412W        W29885   4.385  39.332   0.832
61413W        W29886   6.749  33.599  12.975
61414W        W29887  31.948  30.983  14.819
61415W        W29888  42.896  13.327   3.344
61416W        W29889  10.754  37.557  12.055
61417W        W29890  31.019  17.104   2.307
61418W        W29891  30.533  35.958  11.994
61419W        W29892  15.110  35.080  10.540
61420W        W29893  41.311  32.417  14.848
61421W        W29894  25.038  21.232   4.224
61422W        W29895   4.780  11.806   4.344
61423W        W29896   7.271   4.436  14.815
61424W        W29897  12.318  23.082   3.744
61425W        W29898  34.529  15.793  12.539
61426W        W29899  10.845  15.674  12.044
61427W        W29900  20.671  10.849  13.027
61428W        W29901   6.832  11.828   4.769
61429W        W29902   8.850   0.987   0.251
61430W        W29903  26.618  10.345   3.282
61431W        W29904  42.309  24.543   3.289
61432W        W29905  18.149   8.178   1.732
61433W        W29906  13.150   3.433   4.262
61434W        W29907  30.989  28.161  11.877
61435W        W29908   0.398  40.465  12.020
61436W        W29909  38.821  21.532  14.835
61437W        W29910  38.461  26.695   3.289
61438W        W29911  21.021  22.129  12.884
61439W        W29912  28.608  10.178  13.504
61440W        W29913   0.768   4.846  13.012
61441W        W29914  16.206  18.254   2.312
61442W        W29915  23.666  44.911  11.921
61443W        W29916  44.487  40.995  12.471
61444W        W29917  43.878  26.600   3.363
61445W        W29918  36.569   6.745   3.713
61446W        W29919  19.705  17.791   0.862
61447W        W29920   5.881  32.507  12.069
61448W        W29921  23.235  37.907  14.446
61449W        W29922  40.826   7.888   0.862
61450W        W29923  16.689  22.662  12.479
61451W        W29924  28.933  24.669   0.962
61452W        W29925  25.060  29.448   1.826
61453W        W29926  42.997  27.097  11.879
61454W        W29927  19.223  31.924  13.971
61455W        W29928   2.879  43.918  12.354
61456W        W29929  28.140  31.111  14.908
61457W        W29930  11.346  23.714  13.020
61458W        W29931  19.042   4.323   0.808
61459W        W29932  21.141  17.582  13.349
61460W        W29933  40.926  28.598  10.540
61461W        W29934   7.173  26.599   1.801
61462W        W29935  17.718  44.283   1.927
61463W        W29936   2.381  15.581  14.949
61464W        W29937  34.081  24.106   4.647
61465W        W29938  18.580  31.153   0.302
61466W        W29939  27.637  43.913  13.031
61467W        W29940  28.050   3.737  12.362
61468W        W29941  12.320  23.606   4.663
61469W        W29942   4.383  20.237   3.246
61470W        W29943  42.330  42.437   2.384
61471W        W29944  20.184   2.446  11.401
61472W        W29945  29.569  42.954   3.300
61473W        W29946  38.523   4.867   0.471
61474W        W29947  24.568  34.013  10.409
61475W        W29948  26.951  21.043  14.292
61476W        W29949  22.176  12.243  14.475
61477W        W29950  35.100   8.759   2.281
61478W        W29951  22.080  14.680   3.289
61479W        W29952  21.242  25.205   4.604
61480W        W29953  25.677  18.129  10.980
61481W        W29954  28.050  33.916   4.816
61482W        W29955  10.345  24.976  12.494
61483W        W29956  40.335  38.894  13.411
61484W        W29957  26.466   1.965   4.812
61485W        W29958  25.506  44.290   1.711
61486W        W29959  42.928   2.308  12.888
61487W        W29960  13.716  13.605   2.888
61488W        W29961  18.693  29.085  14.918
61489W        W29962   5.324  33.393  11.604
61490W        W29963  36.956   2.351   0.879
61491W        W29964   2.467  15.660  10.469
61492W        W29965  18.547   0.896   4.598
61493W        W29966  12.198  44.754   2.871
61494W        W29967   2.445  42.927   0.417
61495W        W29968  17.782  43.963   0.744
61496W        W29969   7.264  36.534  14.845
61497W        W29970  10.714   6.698   3.689
61498W        W29971  35.535  41.816  12.362
61499W        W29972  15.303   0.973  14.477
61500W        W29973  36.097   8.866   5.303
61501W        W29974   3.235  24.169   4.205
61502W        W29975  24.177  28.500   0.768
61503W        W29976  25.645  18.697  11.091
61504W        W29977  28.020  42.424  13.523
61505W        W29978   2.277  25.218   3.778
61506W        W29979   6.333  23.664  11.408
61507W        W29980  32.984  20.556  12.449
61508W        W29981  12.817  32.038   0.782
61509W        W29982  40.308  25.970   3.298
61510W        W29983  36.873  19.144   2.276
61511W        W29984   1.393   0.427   2.239
61512W        W29985  20.739   0.841  14.919
61513W        W29986  41.796  10.767  10.451
61514W        W29987  26.954  33.580   1.330
61515W        W29988  11.650  25.122   4.748
61516W        W29989  40.358  41.439  14.845
61517W        W29990   1.421  17.077   1.863
61518W        W29991   6.832  41.496   1.737
61519W        W29992  38.859   7.379   1.704
61520W        W29993   9.381  17.300   4.128
61521W        W29994  13.132  33.037   2.389
61522W        W29995  19.572  33.130  14.305
61523W        W29996   1.373  14.182  11.083
61524W        W29997  18.615  14.249   3.856
61525W        W29998  38.486   5.793   3.191
61526W        W29999  18.576  38.067   4.342
61527W        W30000  43.453  44.489   1.775
61528W        W30001   8.265   4.906  13.891
61529W        W30002   0.777   8.301  10.945
61530W        W30003  28.067  42.350   1.395
61531W        W30004  42.026   8.737   3.188
61532W        W30005   1.405  36.429  13.962
61533W        W30006  15.112  15.650   0.763
61534W        W30007  43.809  39.940  12.017
61535W        W30008   8.763  22.669  14.810
61536W        W30009   3.942  42.289  12.007
61537W        W30010  25.969   2.766   3.654
61538W        W30011   6.351   2.941  11.562
61539W        W30012  24.646  14.338   2.675
61540W        W30013  41.027  34.571  13.390
61541W        W30014  18.738  14.738  12.032
61542W        W30015  12.183  14.291   3.314
61543W        W30016  17.575  43.984   1.239
61544W        W30017  29.145   7.304  12.033
61545W        W30018  30.511  41.977   3.245
61546W        W30019  13.692  24.591   3.233
61547W        W30020  17.641  39.324  11.428
61548W        W30021  39.438   4.360   1.919
61549W        W30022  43.769  16.703  12.416
61550W        W30023   0.445  11.361  12.396
61551W        W30024  21.137  39.864  13.971
61552W        W30025  39.431  20.261   4.796
61553W        W30026  37.906  43.799   4.144
61554W        W30027  33.429  29.453   0.920
61555W        W30028  15.617  19.706  14.469
61556W        W30029  33.444  10.268   3.751
61557W        W30030  38.899  10.753   3.282
61558W        W30031   8.832  20.531  14.013
61559W        W30032  25.599  27.462  11.954
61560W        W30033  36.946   7.176   3.800
61561W        W30034   1.895   9.684  14.856
61562W        W30035  27.034  20.716   3.868
61563W        W30036  11.289  25.693   3.826
61564W        W30037  10.732  18.220  14.000
61565W        W30038  27.121  27.028   4.287
61566W        W30039  43.393  12.840   3.155
61567W        W30040  21.129   0.426  12.529
61568W        W30041   3.401  20.552  14.876
61569W        W30042  35.544  10.721   1.337
61570W        W30043   1.919  32.604   2.724
61571W        W30044  20.125   7.408   0.338
61572W        W30045  34.932  12.713   2.829
61573W        W30046  35.006  31.091   4.608
61574W        W30047  31.092  31.556  13.468
61575W        W30048   0.449  14.157   4.228
61576W        W30049  33.421  30.625   3.807
61577W        W30050   8.809  43.944  14.360
61578W        W30051  12.682  44.265   1.267
61579W        W30052  29.424  39.444  13.884
61580W        W30053  24.542  35.070   1.893
61581W        W30054   1.455  33.097   3.658
61582W        W30055  38.034  12.637   5.110
61583W        W30056  32.096  21.710  12.523
61584W        W30057  42.913  23.533  12.415
61585W        W30058   3.808  18.652   2.363
61586W        W30059   8.663  13.607   1.771
61587W        W30060  10.874  12.219   0.939
61588W        W30061  33.878  26.584   4.251
61589W        W30062  11.309   9.753   0.898
61590W        W30063   7.858  23.540   0.243
61591W        W30064  27.458   8.203   1.935
61592W        W30065  19.070  20.125   4.170
61593W        W30066  18.652  18.713   1.254
61594W        W30067  37.396  38.831  11.871
61595W        W30068  32.922   7.665  11.467
61596W        W30069  17.199  34.066   1.898
61597W        W30070  38.389  23.550  11.045
61598W        W30071   2.724   7.782   3.297
61599W        W30072  18.661  34.049  12.382
61600W        W30073  12.665  22.655  11.972
61601W        W30074   7.670  17.570   1.730
61602W        W30075  32.627  20.180   3.773
61603W        W30076  10.318  15.132  10.130
61604W        W30077  16.261  11.740  10.609
61605W        W30078  38.015  31.615  10.636
61606W        W30079  22.102  42.029  10.586
61607W        W30080  35.942  23.510  14.337
61608W        W30081  12.818   3.875   4.296
61609W        W30082  31.633  44.366   2.895
61610W        W30083  30.476  41.411   9.983
61611W        W30084  32.095  16.255  14.834
61612W        W30085  36.005   2.841   1.452
61613W        W30086  20.228  38.468  12.856
61614W        W30087  19.121  30.031   3.218
61615W        W30088  25.522  41.478  13.929
61616W        W30089  27.639  14.238   4.229
61617W        W30090   4.761   7.787   0.399
61618W        W30091  11.767  23.140   2.375
61619W        W30092  19.567  14.606   1.865
61620W        W30093  28.058  32.508   3.685
61621W        W30094  42.338  15.326   1.370
61622W        W30095   2.897   0.766  10.575
61623W        W30096  10.192  19.744   3.230
61624W        W30097  10.188   2.359   1.898
61625W        W30098  16.198   0.955  14.825
61626W        W30099   7.868  34.436  12.531
61627W        W30100   7.348  34.073  14.914
61628W        W30101   5.735  30.424   2.399
61629W        W30102  23.211  39.512   3.721
61630W        W30103  39.443  30.470  11.391
61631W        W30104   5.311   4.438  14.306
61632W        W30105   2.733  27.943   3.826
61633W        W30106  29.647  12.347  11.007
61634W        W30107  24.231  44.984  14.299
61635W        W30108  41.456  14.203   4.630
61636W        W30109  11.306  42.319  10.606
61637W        W30110   2.419  39.977   0.416
61638W        W30111  25.019   8.878  14.827
61639W        W30112   5.900  42.972   9.984
61640W        W30113   9.793   3.791   0.267
61641W        W30114  11.145  19.666  10.444
61642W        W30115   0.342  43.994  13.991
61643W        W30116  34.917  29.171  14.460
61644W        W30117  16.180  18.060  14.345
61645W        W30118  33.038  30.518  13.855
61646W        W30119  28.522  34.430  14.892
61647W        W30120  38.332  22.010  14.945
61648W        W30121  31.943  11.735   0.445
61649W        W30122   4.847  17.091   5.086
61650W        W30123  36.361  34.921  14.871
61651W        W30124  19.156  34.093   0.771
61652W        W30125  41.350  29.576   1.398
61653W        W30126  22.509  29.584  12.095
61654W        W30127  36.889  32.636   3.712
61655W        W30128  12.131  22.508   2.315
61656W        W30129  16.670  35.000   0.376
61657W        W30130  29.449  42.865   4.744
61658W        W30131   6.909  43.414   1.317
61659W        W30132  11.262   0.333  14.330
61660W        W30133  42.992  35.865   2.222
61661W        W30134   4.244  20.130  13.486
61662W        W30135   7.808  26.074   4.264
61663W        W30136  17.157  44.928  11.381
61664W        W30137   1.323  40.008   0.852
61665W        W30138  18.117  10.645   4.164
61666W        W30139  32.495   5.434   3.226
61667W        W30140  40.533  37.003   0.773
61668W        W30141  25.712  26.044   2.878
61669W        W30142   1.796  10.149   3.827
61670W        W30143   0.464   1.941  12.851
61671W        W30144  12.790  25.690   5.106
61672W        W30145   6.752  41.298  13.446
61673W        W30146  42.840  18.116  11.068
61674W        W30147   6.250   4.353  12.040
61675W        W30148  20.583  38.839  10.924
61676W        W30149  16.302  18.244  12.486
61677W        W30150  23.090  31.062  12.856
61678W        W30151  11.751   8.776   0.872
61679W        W30152  16.635  31.477  11.373
61680W        W30153  13.282  42.996  14.353
61681W        W30154  24.724  44.876   5.246
61682W        W30155  25.182  17.621  10.638
61683W        W30156  25.680   3.298  13.940
61684W        W30157   3.728   4.716  11.388
61685W        W30158  20.599  25.535  12.854
61686W        W30159  35.865  15.297   3.867
61687W        W30160   9.155   6.887   3.662
61688W        W30161  16.675  27.680   0.935
61689W        W30162  18.207  14.223  12.432
61690W        W30163   0.790   4.765   5.214
61691W        W30164  43.840   4.240  10.421
61692W        W30165  33.931  17.652  14.958
61693W        W30166  37.427  27.473   1.266
61694W        W30167   3.238  26.037   1.412
61695W        W30168  38.570   0.262   0.796
61696W        W30169  33.597  19.225   0.441
61697W        W30170   8.214  41.415  13.336
61698W        W30171  18.183  10.233  11.435
61699W        W30172  44.327   3.921   2.240
61700W        W30173   4.441  30.117   0.925
61701W        W30174  18.296  40.820  11.028
61702W        W30175   4.748  20.568   3.760
61703W        W30176  16.710   1.863   3.279
61704W        W30177   8.371  14.729   0.483
61705W        W30178  16.314  19.709  13.811
61706W        W30179  40.905  32.429   0.864
61707W        W30180  22.179  36.477   1.697
61708W        W30181  10.384   1.278   3.165
61709W        W30182  27.675   7.235   1.217
61710W        W30183  32.562   9.835  11.002
61711W        W30184  10.232  26.505   4.836
61712W        W30185   2.302  39.338   2.380
61713W        W30186   3.749  27.618   3.850
61714W        W30187  13.237  17.587   0.481
61715W        W30188  34.988   3.906   3.296
61716W        W30189   6.350  11.304  10.025
61717W        W30190  34.918  37.474   5.094
61718W        W30191  17.779  31.542   4.123
61719W        W30192  27.176  33.122   1.806
61720W        W30193   0.371  41.019  12.002
61721W        W30194  36.498  39.927  11.512
61722W        W30195  31.996  14.147   5.166
61723W        W30196   6.272  31.631  13.831
61724W        W30197  11.137   8.666   0.302
61725W        W30198  23.048  34.610   3.841
61726W        W30199  15.815  13.264  11.457
61727W        W30200  31.634  17.281  12.082
61728W        W30201  39.027  35.007   2.198
61729W        W30202   4.853  11.156  13.907
61730W        W30203  10.797  44.906  10.510
61731W        W30204  15.239   6.187  11.455
61732W        W30205   9.382  42.948  12.550
61733W        W30206   6.337  25.569   4.137
61734W        W30207   9.869  21.636  13.356
61735W        W30208  14.256  12.703   4.685
61736W        W30209  16.604  23.990   1.725
61737W        W30210  20.618  31.045  12.834
61738W        W30211  34.042  13.780  13.892
61739W        W30212   9.170   7.249   5.285
61740W        W30213  40.333  40.473   4.723
61741W        W30214  25.077  23.728  13.804
61742W        W30215   9.755  37.017  11.474
61743W        W30216  25.158   9.678  11.439
61744W        W30217   1.415   6.710  12.430
61745W        W30218  27.581  33.988  12.489
61746W        W30219  39.935  26.121   2.280
61747W        W30220  23.670  17.616   4.352
61748W        W30221  42.821  13.620   0.734
61749W        W30222  25.979  41.924  10.547
61750W        W30223  19.267   3.234   1.864
61751W        W30224  35.055  21.615  12.527
61752W        W30225   9.237   6.218  13.504
61753W        W30226   6.337  37.468   2.761
61754W        W30227  38.512  10.366   0.834
61755W        W30228  32.947  32.634   2.705
61756W        W30229   2.953  14.237   3.779
61757W        W30230   1.889  44.399  10.971
61758W        W30231  27.453   9.691   2.680
61759W        W30232  12.351  25.583   3.175
61760W        W30233  10.385  32.624  10.462
61761W        W30234  24.042  33.095  12.863
61762W        W30235  42.020  20.562   0.886
61763W        W30236  42.863  31.558   3.750
61764W        W30237  30.479  29.152  11.936
61765W        W30238  17.297  40.911  10.441
61766W        W30239  16.297  25.215  12.044
61767W        W30240  38.065  43.414   3.272
61768W        W30241  14.141  21.654  10.589
61769W        W30242  31.575  10.232   1.368
61770W        W30243  18.067  13.793   1.707
61771W        W30244   2.890  15.736  11.423
61772W        W30245  23.725   6.855  13.463
61773W        W30246   9.394  28.503  13.893
61774W        W30247   1.464  10.196   3.249
61775W        W30248  13.618   8.285  12.498
61776W        W30249  42.910  16.235  14.453
61777W        W30250   9.756  38.878  12.508
61778W        W30251  19.543  18.610   3.681
61779W        W30252  34.567  23.211  13.320
61780W        W30253  28.544  25.197  10.485
61781W        W30254  13.726  26.079   3.286
61782W        W30255  17.251  40.414   0.285
61783W        W30256  15.685   0.833   1.342
61784W        W30257  23.102  40.968   1.844
61785W        W30258  44.429  30.549   0.869
61786W        W30259  32.014  42.378  11.430
61787W        W30260  23.220  16.211   2.408
61788W        W30261  33.573   1.822   5.278
61789W        W30262  28.946  11.759  13.482
61790W        W30263   0.885  26.697   1.390
61791W        W30264  17.712  28.137  10.443
61792W        W30265  24.144  27.492  11.524
61793W        W30266  27.145  19.749   4.191
61794W        W30267  44.335  14.592   2.871
61795W        W30268  26.172   8.317   3.698
61796W        W30269  10.843  11.239   2.886
61797W        W30270   0.767   8.820  13.426
61798W        W30271   2.920  41.019  11.593
61799W        W30272  17.577  37.463  10.970
61800W        W30273   1.931  15.262  12.862
61801W        W30274  25.674  22.127   3.845
61802W        W30275  39.443  27.554  14.854
61803W        W30276  37.973   9.716  10.528
61804W        W30277  40.520  44.432   2.185
61805W        W30278  14.784  25.561   4.288
61806W        W30279  32.093  14.607   5.269
61807W        W30280  10.642  20.741   4.129
61808W        W30281  23.567  34.434  12.849
61809W        W30282  26.976  24.698  13.455
61810W        W30283  34.481   0.319   0.756
61811W        W30284  11.365   1.974   1.272
61812W        W30285  43.786  17.723   3.170
61813W        W30286   2.907  34.431   2.199
61814W        W30287  31.132  21.601  13.520
61815W        W30288  26.618  22.202  12.981
61816W        W30289  23.623  31.056  14.986
61817W        W30290  28.995   5.840  10.519
61818W        W30291  29.463  22.696  10.962
61819W        W30292   5.759  40.054   3.867
61820W        W30293  38.073   8.356   3.183
61821W        W30294  27.545  17.744   0.376
61822W        W30295  34.098  38.370   0.847
61823W        W30296  14.274  31.152   3.823
61824W        W30297  16.210  14.241  14.846
61825W        W30298  27.448  21.122  11.593
61826W        W30299  38.438  35.396   1.404
61827W        W30300  44.799  40.835   2.881
61828W        W30301  43.425  28.647  12.007
61829W        W30302  19.262  10.366  11.025
61830W        W30303  43.782  24.989   0.889
61831W        W30304  39.488  20.172  13.005
61832W        W30305  43.906  37.960   3.236
61833W        W30306  16.643  27.978  10.492
61834W        W30307  37.965  40.411  12.017
61835W        W30308  38.003  31.981   2.880
61836W        W30309  42.902  11.743   3.190
61837W        W30310  15.145  11.674   4.709
61838W        W30311  39.920   1.483  14.895
61839W        W30312  27.525  34.478  12.385
61840W        W30313   0.848  26.650   9.943
61841W        W30314   0.790  15.692   1.708
61842W        W30315  23.626  34.921  10.545
61843W        W30316  28.178   4.841   5.314
61844W        W30317   7.256  36.023  14.336
61845W        W30318  39.898  42.958  14.419
61846W        W30319  19.190  29.131   2.220
61847W        W30320   2.800  42.868   0.459
61848W        W30321  42.913  32.062  14.816
61849W        W30322   1.976  33.950  11.121
61850W        W30323  31.563   6.842  11.988
61851W        W30324   3.793  17.081   4.246
61852W        W30325  21.696  27.618   1.914
61853W        W30326  24.042  22.083   2.221
61854W        W30327   2.771   0.406  13.048
61855W        W30328  13.125   0.858  14.279
61856W        W30329  27.559  43.326   4.729
61857W        W30330   0.911  35.515   1.739
61858W        W30331   6.856   4.870   5.237
61859W        W30332  37.440  41.458  12.894
61860W        W30333   0.398  14.615  14.778
61861W        W30334  22.225  42.988   5.187
61862W        W30335   2.796  36.084  11.436
61863W        W30336  34.923  21.153   0.371
61864W        W30337  12.611  14.701  10.552
61865W        W30338  39.891   7.219   2.901
61866W        W30339   1.935  21.575  11.457
61867W        W30340  14.659  40.495   2.697
61868W        W30341   6.264  32.436  12.093
61869W        W30342  37.343  33.040  13.351
61870W        W30343  10.835  19.749  12.513
61871W        W30344  15.780   2.435   3.674
61872W        W30345  26.623  18.617  14.440
61873W        W30346  15.099  26.007  13.915
61874W        W30347  43.491  18.115  12.545
61875W        W30348  20.197  18.290   2.235
61876W        W30349  33.900  33.894  12.484
61877W        W30350  27.583  37.950  12.984
61878W        W30351  36.364  35.105  11.489
61879W        W30352  41.023  37.515  12.520
61880W        W30353   5.897   0.473   0.732
61881W        W30354  30.049  13.784  14.352
61882W        W30355  31.519  21.738  10.917
61883W        W30356  19.116  29.585   4.805
61884W        W30357  30.988  10.164  11.503
61885W        W30358  11.840  42.999  13.984
61886W        W30359  27.519  31.122   3.232
61887W        W30360  13.759  30.570   1.334
61888W        W30361  30.911  35.593  12.438
61889W        W30362  17.578  40.971  14.327
61890W        W30363   1.784  43.840  14.482
61891W        W30364  15.207  24.069   3.708
61892W        W30365  29.443  34.411   0.340
61893W        W30366  34.565  44.781  11.063
61894W        W30367  14.189  18.275  13.435
61895W        W30368  14.800  36.900   2.730
61896W        W30369  26.508  44.315  12.439
61897W        W30370  29.171  23.151   2.718
61898W        W30371  15.189  37.857   0.312
61899W        W30372  24.163   6.806  14.956
61900W        W30373   2.283  27.500  14.506
61901W        W30374  35.481  30.529  14.323
61902W        W30375   9.262  32.038   1.332
61903W        W30376  15.110  44.788   2.313
61904W        W30377  31.145  27.550   1.727
61905W        W30378  17.760  29.443  13.861
61906W        W30379  33.490   2.412  14.013
61907W        W30380  26.471  32.485  13.010
61908W        W30381   9.247  30.433   0.280
61909W        W30382  28.049  14.682   4.637
61910W        W30383  18.652  25.014  10.614
61911W        W30384  25.101   7.339  12.006
61912W        W30385  19.238  19.727  11.529
61913W        W30386   9.240  41.463   1.830
61914W        W30387  13.807  40.418  10.571
61915W        W30388  11.681  26.200   1.443
61916W        W30389  32.087  42.410   9.940
61917W        W30390  26.611  38.463   1.794
61918W        W30391   0.281  25.214  13.474
61919W        W30392  24.052  43.418   1.770
61920W        W30393  44.487  13.116  10.425
61921W        W30394  31.076  28.073   2.869
61922W        W30395   4.711  24.624  14.878
61923W        W30396   4.848  22.168  10.144
61924W        W30397  15.254  20.051  13.435
61925W        W30398  35.922  32.417   2.796
61926W        W30399  36.876  23.547   4.182
61927W        W30400   4.816   0.278   0.864
61928W        W30401  42.871   4.429  11.550
61929W        W30402   7.222   4.755   0.295
61930W        W30403  32.995  40.820  12.006
61931W        W30404  15.264  38.060   1.787
61932W        W30405   4.397  32.027   0.306
61933W        W30406   9.214  44.760  13.996
61934W        W30407  40.916  41.440   0.954
61935W        W30408  15.580  32.556   0.890
61936W        W30409  37.950  38.349   1.734
61937W        W30410   9.664  27.066   4.747
61938W        W30411  27.992  23.719  11.014
61939W        W30412   9.224  21.160  12.090
61940W        W30413  35.926  10.315   5.279
61941W        W30414  31.062  41.403  13.009
61942W        W30415  32.009  44.779   1.440
61943W        W30416  27.454  33.095   4.158
61944W        W30417  28.187  18.232   0.857
61945W        W30418  42.472  21.565   3.713
61946W        W30419   3.726  34.080  13.972
61947W        W30420  16.671   4.922   4.639
61948W        W30421  28.586   2.310   3.177
61949W        W30422  41.310  37.541  13.459
61950W        W30423  18.257  34.588   3.763
61951W        W30424  34.918  37.039  13.034
61952W        W30425   6.253   5.728   3.744
61953W        W30426  28.505   5.763  13.804
61954W        W30427   8.787   9.705  14.457
61955W        W30428  25.130  18.269  10.565
61956W        W30429  37.430   2.467   2.273
61957W        W30430  29.921   2.314   0.410
61958W        W30431  10.635  19.248   4.609
61959W        W30432  29.036  25.682  10.036
61960W        W30433  26.535  34.024  14.386
61961W        W30434  22.717  17.173  14.943
61962W        W30435  37.425  41.959   2.793
61963W        W30436  10.171  35.985  12.414
61964W        W30437  38.489   0.321   4.714
61965W        W30438  22.638  15.725   4.694
61966W        W30439  19.710   0.978  14.372
61967W        W30440  28.989  23.680   3.371
61968W        W30441  30.527   1.318  12.051
61969W        W30442   2.845  24.669  13.830
61970W        W30443  43.506   3.379  14.760
61971W        W30444  43.311  15.661  11.387
61972W        W30445   3.398   4.317  11.424
61973W        W30446   6.333  44.449  14.373
61974W        W30447  27.687  11.221  11.530
61975W        W30448  33.988  20.558  14.806
61976W        W30449  22.063  31.431  14.458
61977W        W30450   5.423  20.232  11.569
61978W        W30451  37.049  26.616   4.743
61979W        W30452  23.077  10.139   1.231
61980W        W30453  42.459   8.724  12.043
61981W        W30454  28.571   8.739   1.394
61982W        W30455   8.320  44.295   0.792
61983W        W30456  14.767  39.341  11.038
61984W        W30457  40.338  16.702   3.633
61985W        W30458  15.120   0.951   1.739
61986W        W30459   7.193  38.946  11.883
61987W        W30460   2.431  15.136   4.306
61988W        W30461   5.328  33.981  13.317
61989W        W30462  27.045   4.699   3.857
61990W        W30463  42.805   7.224  13.884
61991W        W30464  18.677  28.491  11.890
61992W        W30465  25.017  38.965   4.733
61993W        W30466  31.535  41.363  13.985
61994W        W30467   5.276  13.809   2.276
61995W        W30468   4.263  36.460   4.334
61996W        W30469  32.900  31.911  14.395
61997W        W30470   5.292   2.270   1.855
61998W        W30471  22.144  19.061   3.346
61999W        W30472  26.165  39.401   2.848
62000W        W30473   6.283  36.482  14.978
62001W        W30474   4.892  38.347   5.209
62002W        W30475  10.864  14.236   3.386
62003W        W30476   3.802   9.714  13.438
62004W        W30477  23.213  40.836  13.509
62005W        W30478  23.648   2.846   3.212
62006W        W30479   5.208  20.588  10.591
62007W        W30480  27.076  37.482   3.707
62008W        W30481  36.368   3.279  11.492
62009W        W30482   1.439  41.809   4.780
62010W        W30483  38.960  41.399  14.814
62011W        W30484   8.790  30.627  13.379
62012W        W30485  26.586  40.826   2.798
62013W        W30486  20.565  34.920  14.345
62014W        W30487  41.823  24.633  13.862
62015W        W30488   9.174   0.428   2.846
62016W        W30489  26.018  29.578   3.339
62017W        W30490  11.749  41.403  14.343
62018W        W30491  19.164   5.300  10.625
62019W        W30492  44.367  25.964  11.503
62020W        W30493   5.365  27.565   2.261
62021W        W30494  26.631  32.484  14.846
62022W        W30495   8.668  39.003   2.393
62023W        W30496  13.600  42.864   4.714
62024W        W30497   9.845  14.297  12.341
62025W        W30498  18.264  22.627  13.478
62026W        W30499  12.696   0.907  12.014
62027W        W30500  33.908  28.095   3.867
62028W        W30501  13.811  34.910  13.957
62029W        W30502  26.990   6.258  12.989
62030W        W30503   5.930   3.272   0.763
62031W        W30504  15.152   0.342  14.853
62032W        W30505  11.819   4.228   1.316
62033W        W30506  11.271  15.770  12.007
62034W        W30507  34.481  42.008   2.384
62035W        W30508  27.051  36.512  14.287
62036W        W30509  19.276  43.420   3.356
62037W        W30510  30.163  30.454  11.435
62038W        W30511  22.605  44.422  14.420
62039W        W30512  31.630  36.513   4.600
62040W        W30513  13.786  42.427   4.735
62041W        W30514   8.810  24.163  13.794
62042W        W30515  41.441  11.139   4.241
62043W        W30516   7.411  44.797  14.493
62044W        W30517  36.058   9.363   4.828
62045W        W30518  27.993   3.852   1.318
62046W        W30519  27.450  44.411   5.776
62047W        W30520  18.549  21.752   2.885
62048W        W30521  42.410  26.678   4.644
62049W        W30522  38.349   6.340   4.309
62050W        W30523  22.649  44.896  10.956
62051W        W30524  24.128   2.328  13.471
62052W        W30525   1.298  12.310  10.491
62053W        W30526  10.373  32.904  12.083
62054W        W30527  11.297   3.723   4.640
62055W        W30528  11.670  38.531   2.198
62056W        W30529  42.404  19.181   2.412
62057W        W30530   0.290   8.214  13.830
62058W        W30531   3.416  16.098   3.221
62059W        W30532   1.376  12.616   1.368
62060W        W30533  20.146  17.696   1.876
62061W        W30534   7.905  31.645  13.957
62062W        W30535  41.371  15.145  14.464
62063W        W30536   2.731  18.703  12.982
62064W        W30537  37.352   5.868  12.920
62065W        W30538  22.503  20.119  11.965
62066W        W30539  29.466  19.628  14.341
62067W        W30540  31.518  14.119   2.793
62068W        W30541  42.441  16.277  10.568
62069W        W30542  34.997  10.846  12.358
62070W        W30543  40.050  21.631   1.836
62071W        W30544  21.607  23.563   3.766
62072W        W30545  24.665  40.877  13.366
62073W        W30546  36.347   8.237   1.447
62074W        W30547   1.349  42.013   1.760
62075W        W30548  23.513   2.750  14.436
62076W        W30549  16.242  37.017  10.506
62077W        W30550   5.391  44.447   3.229
62078W        W30551  35.508  27.668   2.733
62079W        W30552   7.329   6.867  10.902
62080W        W30553  25.567   8.167   0.398
62081W        W30554   8.833  41.510   4.684
62082W        W30555   2.275  13.192  14.474
62083W        W30556  37.042   2.963  11.910
62084W        W30557   5.754   6.747   1.779
62085W        W30558   0.360   9.664  10.409
62086W        W30559  36.951   3.358  13.045
62087W        W30560  44.810  43.989  10.924
62088W        W30561  11.700  39.418   4.318
62089W        W30562  12.832  40.024   0.338
62090W        W30563  23.081   8.897  12.563
62091W        W30564   2.436  14.630  10.559
62092W        W30565  43.326  30.942  12.471
62093W        W30566  39.481   6.907   0.902
62094W        W30567  29.511   5.815   1.748
62095W        W30568  19.770   1.744  10.621
62096W        W30569  40.001  17.188   0.368
62097W        W30570  25.675  32.907   4.745
62098W        W30571  15.698   0.274   3.190
62099W        W30572   6.196  19.186   3.362
62100W        W30573  20.572  32.909  10.410
62101W        W30574  43.968  26.096  11.871
62102W        W30575  10.184  38.511   3.638
62103W        W30576   5.860   2.781   3.219
62104W        W30577  23.164  32.474  13.983
62105W        W30578  41.384  20.222   5.309
62106W        W30579  24.714  41.474  11.028
62107W        W30580   0.323  11.736   0.394
62108W        W30581  40.017  28.145  14.516
62109W        W30582  44.328  20.084   2.708
62110W        W30583  14.672  10.364   2.870
62111W        W30584  34.953  10.834   2.320
62112W        W30585  22.690   8.893  10.161
62113W        W30586  10.674  15.314   3.839
62114W        W30587  23.548  35.482  13.507
62115W        W30588  33.981  26.551   3.728
62116W        W30589  28.962  19.260  12.502
62117W        W30590  20.268  18.601  12.027
62118W        W30591   4.294  40.799  11.418
62119W        W30592  43.289  32.518   2.193
62120W        W30593  21.567  25.595   5.146
62121W        W30594  42.497  30.035   3.763
62122W        W30595  14.774  34.387  10.085
62123W        W30596  22.614   3.894  12.475
62124W        W30597  28.951  19.175   4.727
62125W        W30598  30.506  25.168  11.970
62126W        W30599  24.195  22.186   0.865
62127W        W30600  42.527  42.301  13.429
62128W        W30601   3.383  23.996  12.543
62129W        W30602   0.891   0.988  11.548
62130W        W30603  35.469  19.660  12.476
62131W        W30604   0.776  22.107  10.408
62132W        W30605   5.375   6.333  14.018
62133W        W30606  22.999   7.840  14.022
62134W        W30607  11.632   4.720  11.956
62135W        W30608  27.458  30.488  12.878
62136W        W30609  23.584   9.886   0.288
62137W        W30610  14.820  42.491   2.255
62138W        W30611   2.832  43.978  12.984
62139W        W30612  38.468  30.641   1.701
62140W        W30613  10.164  43.466  11.919
62141W        W30614   6.864  29.933   2.673
62142W        W30615  37.928  15.103   2.360
62143W        W30616  26.981  18.052  13.487
62144W        W30617  19.619  29.924  11.409
62145W        W30618  17.131   2.804   2.343
62146W        W30619  40.984   8.823   3.683
62147W        W30620   1.395   2.374  14.510
62148W        W30621  14.704  16.695   1.803
62149W        W30622  35.388  39.455   1.350
62150W        W30623  19.214  26.112  10.623
62151W        W30624  41.345   2.792  11.480
62152W        W30625  39.060  35.503  13.903
62153W        W30626  18.764  22.623  11.610
62154W        W30627  43.482  27.455   0.248
62155W        W30628   9.793   7.234  12.479
62156W        W30629  37.357  12.765  12.826
62157W        W30630  33.115  18.756   1.437
62158W        W30631  10.801  20.197  14.278
62159W        W30632   7.387   6.698  13.461
62160W        W30633  17.696   2.228   1.272
62161W        W30634  30.114  43.287   4.303
62162W        W30635  26.184  36.984   2.205
62163W        W30636   1.840  21.653  13.437
62164W        W30637   7.872   3.385   2.776
62165W        W30638  15.584  41.487   1.715
62166W        W30639  32.632  17.688   4.308
62167W        W30640  41.485  28.007  12.540
62168W        W30641  33.450  30.585   1.853
62169W        W30642  17.134  24.156   3.261
62170W        W30643  41.980   3.439  11.880
62171W        W30644  31.977  38.427   4.793
62172W        W30645  31.498  28.508   4.613
62173W        W30646  42.468  36.880  12.551
62174W        W30647  39.358  18.780  14.389
62175W        W30648  24.089  42.487   2.187
62176W        W30649  13.306   0.749   1.759
62177W        W30650  29.458  30.046   2.888
62178W        W30651  10.762  13.823  11.576
62179W        W30652  32.990  16.079  13.813
62180W        W30653   7.197  35.906  13.918
62181W        W30654   8.770  19.664   2.871
62182W        W30655   3.710  42.494   4.273
62183W        W30656  31.008  20.598  14.358
62184W        W30657  42.827  28.105  14.969
62185W        W30658  21.221  24.580   4.763
62186W        W30659   9.716  15.711  12.375
62187W        W30660   4.759  40.954  14.846
62188W        W30661  36.047   0.440   3.336
62189W        W30662  41.885  26.589  13.818
62190W        W30663  16.639  21.516  10.507
62191W        W30664   9.293  26.093  14.369
62192W        W30665  35.854  15.621  13.903
62193W        W30666  35.939  34.961   1.358
62194W        W30667  42.839  15.201   4.120
62195W        W30668  13.703  34.871   3.655
62196W        W30669  40.303   1.951  14.008
62197W        W30670  36.900  24.992   4.269
62198W        W30671   7.899  31.647   3.665
62199W        W30672  30.030  28.123   3.669
62200W        W30673  44.340  27.184   4.293
62201W        W30674  25.089  26.548   2.230
62202W        W30675  32.021  12.749  10.066
62203W        W30676  22.110  33.053  13.877
62204W        W30677  39.505  10.180   3.331
62205W        W30678  28.057   7.834  13.525
62206W        W30679  42.789  17.087   1.766
62207W        W30680  37.945  28.039  10.523
62208W        W30681  27.565  44.895   1.838
62209W        W30682   9.888   8.776   2.672
62210W        W30683  18.750   6.885   1.416
62211W        W30684  27.986  35.077   2.240
62212W        W30685  17.651  38.054  13.489
62213W        W30686   4.835   0.479  11.380
62214W        W30687  27.007  35.987   0.943
62215W        W30688  15.320  40.374   5.088
62216W        W30689  11.718  14.280  10.155
62217W        W30690   1.257  31.908  12.904
62218W        W30691   8.298  33.604   0.479
62219W        W30692  32.601   5.300  14.831
62220W        W30693  21.022  37.058   2.900
62221W        W30694  27.621   4.783  14.846
62222W        W30695  35.854  29.429   4.747
62223W        W30696  14.321  13.217  10.906
62224W        W30697  29.489  42.859   2.253
62225W        W30698  29.939  37.376   2.186
62226W        W30699   9.674  43.500   2.361
62227W        W30700  29.535   6.686  14.496
62228W        W30701  18.544  16.126   4.339
62229W        W30702  15.243  11.665   3.860
62230W        W30703  39.551  15.603  14.995
62231W        W30704  35.506   1.900  12.858
62232W        W30705  21.134  26.548   1.707
62233W        W30706  16.190  20.762   2.400
62234W        W30707  44.798  26.063   0.750
62235W        W30708  13.772  42.302   2.369
62236W        W30709  14.719  39.431  12.515
62237W        W30710   0.452  21.179  12.555
62238W        W30711  28.105   2.803   1.264
62239W        W30712   7.710  43.892   4.135
62240W        W30713  15.287  43.937   4.337
62241W        W30714  29.520  32.427   0.482
62242W        W30715   5.722  29.155  10.574
62243W        W30716  13.634  31.499  11.611
62244W        W30717  19.653   5.890   3.355
62245W        W30718  34.434  39.434  14.381
62246W        W30719  29.606  43.452   4.656
62247W        W30720  43.789   9.381  12.082
62248W        W30721   1.866  23.124   3.684
62249W        W30722   5.931  24.720   1.363
62250W        W30723  15.797  17.721   2.805
62251W        W30724  32.072   8.179  13.466
62252W        W30725   0.886  43.809   1.360
62253W        W30726  29.976  11.269  13.900
62254W        W30727  33.882  24.674  12.455
62255W        W30728  16.700  36.414   4.817
62256W        W30729  40.826  44.794   1.807
62257W        W30730   6.681   1.808   1.813
62258W        W30731   4.341  35.535   4.821
62259W        W30732  17.075  44.964  10.566
62260W        W30733  28.522  35.970   2.378
62261W        W30734  24.487   4.916   1.372
62262W        W30735  40.527  11.172  13.793
62263W        W30736  26.561  15.111  13.841
62264W        W30737  41.839  29.606   1.422
62265W        W30738   8.366  22.136  14.447
62266W        W30739   7.912  40.488   4.656
62267W        W30740   6.691  44.362   3.260
62268W        W30741  44.301   3.924   4.314
62269W        W30742  41.872  35.991   3.288
62270W        W30743  42.971   2.236   1.440
62271W        W30744  21.594  33.067   2.839
62272W        W30745   5.818  44.002  12.543
62273W        W30746   6.423  17.597   4.256
62274W        W30747  34.593  33.888   4.232
62275W        W30748   1.918  27.179   3.383
62276W        W30749  10.808  18.727  11.896
62277W        W30750  19.210  11.160  12.421
62278W        W30751  38.819   2.726  13.485
62279W        W30752  16.130   2.928  14.030
62280W        W30753  31.060  32.925  14.890
62281W        W30754  29.549  10.305   4.281
62282W        W30755   4.932  21.674   4.173
62283W        W30756   1.292  38.073  13.394
62284W        W30757  20.171  11.205  12.388
62285W        W30758  41.851   9.719   3.684
62286W        W30759  18.238  24.976  13.914
62287W        W30760  41.349   1.415  11.877
62288W        W30761  31.150  44.848  12.373
62289W        W30762   7.195   7.854  10.640
62290W        W30763  26.657   5.738  12.396
62291W        W30764  36.015   5.329   4.171
62292W        W30765  15.767  33.126  12.391
62293W        W30766  35.592  29.078  12.952
62294W        W30767  23.558  41.811  14.278
62295W        W30768  15.277   3.365   4.322
62296W        W30769  10.277  28.082  11.605
62297W        W30770  16.731  38.476  10.118
62298W        W30771  28.481  35.595  11.550
62299W        W30772   0.401   3.766  10.981
62300W        W30773  34.878  10.375  13.512
62301W        W30774  22.129  41.840   1.245
62302W        W30775   2.348   2.232   4.175
62303W        W30776  19.261  19.237   2.676
62304W        W30777  21.708   3.836  13.326
62305W        W30778  21.616  44.854   3.764
62306W        W30779  11.669  38.072   4.191
62307W        W30780  34.504  19.213  11.001
62308W        W30781  28.963  36.889   4.202
62309W        W30782  21.665   8.290   2.373
62310W        W30783   3.430  42.926   9.988
62311W        W30784  20.689  27.605  14.003
62312W        W30785  13.687  15.653  11.866
62313W        W30786  32.467  10.683   2.813
62314W        W30787  10.315   1.464  14.030
62315W        W30788  31.417  29.542  13.505
62316W        W30789   1.945  20.126   2.290
62317W        W30790  34.915  35.878   4.784
62318W        W30791  38.992   8.212  11.390
62319W        W30792  14.611  17.604   1.398
62320W        W30793  28.615  18.235  14.479
62321W        W30794  26.982  14.252   3.684
62322W        W30795  27.492   7.908   3.330
62323W        W30796  20.207  14.832   4.253
62324W        W30797  35.508   8.257  12.490
62325W        W30798  12.237   4.853   4.202
62326W        W30799  22.502  13.651  12.029
62327W        W30800  44.824  10.641  14.928
62328W        W30801   2.807  26.151   0.350
62329W        W30802  41.840  22.043  12.084
62330W        W30803  28.068  22.151   2.895
62331W        W30804  22.138  34.601  13.533
62332W        W30805  12.775  20.210  12.502
62333W        W30806  38.374  10.265  11.871
62334W        W30807  30.100  38.479  10.450
62335W        W30808   9.700  41.526   2.691
62336W        W30809  26.552  20.124  10.589
62337W        W30810  39.993  19.620   4.705
62338W        W30811   3.247  42.928  12.032
62339W        W30812  29.035  23.186  13.473
62340W        W30813  28.481  40.384  14.404
62341W        W30814  30.069  19.157  14.904
62342W        W30815  38.352   8.227   3.818
62343W        W30816  33.971  27.996   1.737
62344W        W30817  29.016  10.653   4.305
62345W        W30818  10.210  25.489  12.076
62346W        W30819   8.310  22.187   0.808
62347W        W30820  15.730  31.542  14.491
62348W        W30821  25.469  24.043   4.693
62349W        W30822  14.675  41.335  14.936
62350W        W30823   0.321  34.048   4.248
62351W        W30824  17.192  21.590  10.977
62352W        W30825   9.320   7.408  11.963
62353W        W30826  17.617  36.360   4.674
62354W        W30827  18.202  32.504  14.810
62355W        W30828   3.804  23.563   3.823
62356W        W30829   0.269  12.634   3.171
62357W        W30830  31.145  30.035  12.031
62358W        W30831  23.228  16.740  10.568
62359W        W30832  21.756  10.201   4.733
62360W        W30833  19.637  25.151  12.054
62361W        W30834  19.573  28.001  12.069
62362W        W30835  21.185  11.742  11.870
62363W        W30836  33.879  34.947   0.814
62364W        W30837  39.015  34.443   5.098
62365W        W30838  13.607   1.863   1.379
62366W        W30839  27.147   2.252   4.169
62367W        W30840  21.584  38.536  10.966
62368W        W30841  13.284   7.375   3.685
62369W        W30842  28.677  26.570   4.649
62370W        W30843  11.728  33.978  10.953
62371W        W30844   2.423  12.217   3.651
62372W        W30845   6.255  40.845   3.759
62373W        W30846  34.391  44.346  10.496
62374W        W30847   4.721  11.747   0.746
62375W        W30848  34.871  10.767   1.333
62376W        W30849  35.044  39.399   2.319
62377W        W30850  19.651  17.248   2.870
62378W        W30851  33.516  38.967   0.327
62379W        W30852  11.167  33.906  14.958
62380W        W30853  14.620   0.904   0.266
62381W        W30854  28.448  38.017  10.991
62382W        W30855   2.232  23.030   2.760
62383W        W30856  33.495  29.540   3.649
62384W        W30857   4.335  34.536  10.895
62385W        W30858  16.264   8.225  13.047
62386W        W30859  24.003  11.321  11.095
62387W        W30860  12.336  37.953   2.372
62388W        W30861   0.350  34.557   4.167
62389W        W30862  19.669  12.238   1.804
62390W        W30863  14.271  30.020  11.529
62391W        W30864  33.128  34.072   4.775
62392W        W30865  23.621  36.487   0.471
62393W        W30866  41.988  34.877  11.941
62394W        W30867  18.546  15.292   3.722
62395W        W30868  37.880  32.037  12.029
62396W        W30869  40.961  34.937  11.864
62397W        W30870   4.305  15.130  14.813
62398W        W30871  22.200  38.541  14.443
62399W        W30872  38.828   7.911   1.750
62400W        W30873  22.599  16.698  14.393
62401W        W30874  22.550  24.019  12.347
62402W        W30875  23.722  41.495  12.951
62403W        W30876  26.620  10.731   0.862
62404W        W30877  34.071  17.113  11.492
62405W        W30878  22.520   3.784  10.580
62406W        W30879   6.296  13.162  11.486
62407W        W30880  30.147   7.911  13.996
62408W        W30881  20.735   7.706   0.848
62409W        W30882  31.583  34.396   3.675
62410W        W30883  18.675  18.545  13.444
62411W        W30884  13.251   6.801   3.268
62412W        W30885  26.013  40.958   2.339
62413W        W30886  42.525   9.828   4.804
62414W        W30887  14.746  26.465  10.507
62415W        W30888  20.042  43.808  10.925
62416W        W30889   2.756  23.639  11.509
62417W        W30890  36.386   9.741   2.785
62418W        W30891  20.059  33.508   3.291
62419W        W30892  20.231  19.185  12.964
62420W        W30893  33.049  11.697  11.496
62421W        W30894   1.480   3.766  14.883
62422W        W30895  16.743  25.630   1.803
62423W        W30896  24.482  37.561   0.905
62424W        W30897   1.882   4.862  10.552
62425W        W30898  42.320  27.672  13.507
62426W        W30899  33.058   2.293   3.721
62427W        W30900  37.897  32.436  14.893
62428W        W30901  27.008   8.773   1.311
62429W        W30902  35.938  31.980   4.826
62430W        W30903   1.752  30.089  14.292
62431W        W30904  31.922  42.783   0.966
62432W        W30905  22.129  21.213   3.646
62433W        W30906  21.143  32.424  10.955
62434W        W30907  27.187  16.591  13.929
62435W        W30908  15.682  41.360  13.854
62436W        W30909  37.378  43.429  11.963
62437W        W30910  33.043  18.591   4.293
62438W        W30911  35.079  33.940   2.778
62439W        W30912  37.881  37.014  13.058
62440W        W30913  15.310  28.595  11.871
62441W        W30914  36.493  22.548   5.151
62442W        W30915  36.458  37.355   2.406
62443W        W30916  37.425  13.112  14.020
62444W        W30917  41.986  13.729   1.719
62445W        W30918   6.302  12.234   3.184
62446W        W30919  10.813  35.598   3.384
62447W        W30920  19.666   2.885   3.231
62448W        W30921  41.902  20.568  12.081
62449W        W30922   3.866  14.756  12.346
62450W        W30923  33.026   0.356   3.301
62451W        W30924   2.901  10.878  10.567
62452W        W30925  28.145  35.088   1.232
62453W        W30926   1.362  12.713   2.332
62454W        W30927  16.708  18.255  13.337
62455W        W30928  34.983  19.686  12.475
62456W        W30929  16.748   3.412  10.071
62457W        W30930  25.110   1.928  11.448
62458W        W30931  32.635  19.668  11.496
62459W        W30932  11.189   3.718   1.805
62460W        W30933  34.595  17.076   3.218
62461W        W30934  29.981  34.374   3.701
62462W        W30935  44.337   8.845  14.444
62463W        W30936  26.669  28.134   3.296
62464W        W30937  29.617   4.380   4.181
62465W        W30938   1.902  28.067  11.900
62466W        W30939  13.685   3.265   4.644
62467W        W30940  40.529  15.130  14.023
62468W        W30941  12.775   3.438   3.632
62469W        W30942  24.539   5.314   2.891
62470W        W30943  21.127   7.798   0.410
62471W        W30944   4.942  40.029  11.968
62472W        W30945  19.633  19.729   0.836
62473W        W30946   4.839  42.444   3.299
62474W        W30947  44.981  43.956   3.274
62475W        W30948  38.875  19.215  11.595
62476W        W30949  13.669  29.097   0.442
62477W        W30950  31.090  25.658  11.529
62478W        W30951  14.725  18.238  10.904
62479W        W30952  29.544  16.649  12.523
62480W        W30953  17.749  21.179   2.726
62481W        W30954   7.240  28.929  14.854
62482W        W30955   1.343  12.757   0.299
62483W        W30956  41.460   0.461  13.464
62484W        W30957   8.221   2.849  12.486
62485W        W30958   1.913   6.793  14.362
62486W        W30959  38.333  23.552   3.197
62487W        W30960  21.036  29.118  13.879
62488W        W30961  42.933   0.874   2.725
62489W        W30962   5.825   8.826   2.890
62490W        W30963  23.064   1.768  12.978
62491W        W30964  41.836  16.093  10.947
62492W        W30965  18.180  34.586   4.745
62493W        W30966  15.675  40.923   2.308
62494W        W30967  17.184  12.311  13.325
62495W        W30968  42.882  43.791  12.989
62496W        W30969   7.364  27.990  12.966
62497W        W30970   3.415  40.954   2.824
62498W        W30971  22.207  37.536   0.810
62499W        W30972   3.775  30.655   3.149
62500W        W30973  25.555  29.062   1.892
62501W        W30974  33.511  30.047   1.783
62502W        W30975  37.481  37.938   4.686
62503W        W30976  42.432  12.255  11.450
62504W        W30977  13.812   7.760  10.959
62505W        W30978  31.147  12.337   1.277
62506W        W30979  19.187  34.385  10.993
62507W        W30980  22.036  22.087  10.535
62508W        W30981  13.196   9.386  11.589
62509W        W30982  11.863  44.893  11.874
62510W        W30983  11.172  19.237  14.340
62511W        W30984  18.724  26.545   2.860
62512W        W30985  16.741  33.934   3.270
62513W        W30986  25.555  10.855   0.353
62514W        W30987  20.715  25.012   2.848
62515W        W30988  31.081  21.659   0.336
62516W        W30989  39.932  44.826  11.559
62517W        W30990  38.853  42.526   4.148
62518W        W30991  31.153  11.319   3.810
62519W        W30992  37.057  37.416  11.478
62520W        W30993  26.569  21.602  14.970
62521W        W30994  37.875  16.760  14.373
62522W        W30995   6.313   1.423   1.334
62523W        W30996  29.594  43.300  13.979
62524W        W30997   4.374  42.907   3.764
62525W        W30998  29.513  28.138  14.862
62526W        W30999  25.617  33.430  13.961
62527W        W31000   5.212  11.232  14.418
62528W        W31001  22.097  22.106   4.346
62529W        W31002   7.352  27.180   4.641
62530W        W31003  22.007  25.552  12.509
62531W        W31004  21.124  24.976  13.472
62532W        W31005  20.537  35.494  14.763
62533W        W31006   8.334  26.581  12.395
62534W        W31007  25.664  16.135   4.758
62535W        W31008  11.138  16.244  12.469
62536W        W31009  23.185  23.150  12.437
62537W        W31010   8.391  40.976   2.244
62538W        W31011   2.285  42.346  12.373
62539W        W31012  31.541  23.550  12.490
62540W        W31013  22.653  13.751   9.979
62541W        W31014   0.865  11.322  13.543
62542W        W31015  23.108  18.550   1.838
62543W        W31016  43.320  24.500  12.922
62544W        W31017  25.660   8.370  14.352
62545W        W31018  36.527   8.271  12.949
62546W        W31019  12.339  25.193   2.386
62547W        W31020  18.190  22.072   1.384
62548W        W31021  29.045  24.218   3.214
62549W        W31022  26.175  12.356  13.943
62550W        W31023   4.210  44.764  11.529
62551W        W31024   0.895  24.631  11.007
62552W        W31025   4.235  21.579  13.063
62553W        W31026  35.952   1.833   1.334
62554W        W31027   1.463   1.280  11.570
62555W        W31028  18.243  37.065   0.276
62556W        W31029  11.333  26.202  12.042
62557W        W31030   4.295  31.102   2.823
62558W        W31031  25.988  27.643  13.384
62559W        W31032  10.285   8.760   9.972
62560W        W31033  12.712  28.974  14.779
62561W        W31034  24.499  35.982   2.213
62562W        W31035  27.170  15.276  12.938
62563W        W31036  16.148  29.175   4.348
62564W        W31037   9.693  20.180  13.341
62565W        W31038  16.702  44.314   1.263
62566W        W31039   3.917  44.325  14.472
62567W        W31040  39.505  18.184  11.559
62568W        W31041  32.477  31.015   0.946
62569W        W31042  18.755  20.523   0.372
62570W        W31043  24.212  19.683  11.964
62571W        W31044  21.743  12.760  13.505
62572W        W31045  41.299  16.277   3.338
62573W        W31046  30.043   1.832  12.528
62574W        W31047   9.814  35.603   4.298
62575W        W31048  22.524  19.571  14.924
62576W        W31049  32.540  37.525  13.882
62577W        W31050  32.528  30.066   3.648
62578W        W31051  11.628  42.914  12.908
62579W        W31052  18.658  16.205  11.450
62580W        W31053  38.475  39.494  13.449
62581W        W31054  44.405  23.585  12.909
62582W        W31055  12.298  30.520  13.537
62583W        W31056  15.105  23.511   1.340
62584W        W31057   4.840  34.506   3.810
62585W        W31058  14.593  38.386   9.483
62586W        W31059  19.205   8.896  10.441
62587W        W31060   0.257  37.399   0.392
62588W        W31061  13.144  23.140  11.466
62589W        W31062  42.833  22.996   1.447
62590W        W31063  17.642  28.557   2.180
62591W        W31064  22.718  43.451   0.904
62592W        W31065  12.118  37.935  10.504
62593W        W31066  21.583  40.381  12.852
62594W        W31067  15.312  21.664   4.820
62595W        W31068   4.795  43.946   0.752
62596W        W31069  19.667  19.639   5.163
62597W        W31070   8.665  42.498   1.280
62598W        W31071  37.483  44.810  14.997
62599W        W31072  11.207   0.941  12.509
62600W        W31073   9.180  21.738  10.608
62601W        W31074  38.380   5.917  12.091
62602W        W31075   2.352  42.513   4.139
62603W        W31076  29.072  44.495  12.040
62604W        W31077  15.748  36.514  12.829
62605W        W31078   2.831  42.788  10.618
62606W        W31079  31.108  15.111  13.486
62607W        W31080  22.193  29.964   0.423
62608W        W31081  23.592  42.306  11.409
62609W        W31082  20.622  26.959   5.220
62610W        W31083   7.201  19.278   4.780
62611W        W31084   0.481  15.772   3.685
62612W        W31085  15.808   9.796  13.848
62613W        W31086  35.451  25.999   3.325
62614W        W31087  39.919  26.031  14.882
62615W        W31088   9.331  14.781  12.394
62616W        W31089  33.625   9.795   4.684
62617W        W31090  43.890  36.524  13.526
62618W        W31091  35.506   4.824  10.636
62619W        W31092  13.739  31.099  12.437
62620W        W31093   0.386   6.191  11.430
62621W        W31094  24.057  15.246   0.866
62622W        W31095  15.672  26.112   1.779
62623W        W31096  44.972  19.744   4.203
62624W        W31097  18.650  25.621  14.907
62625W        W31098   0.775   6.827   0.375
62626W        W31099   2.274  13.663   0.444
62627W        W31100  43.287  34.977   1.380
62628W        W31101  20.554  30.154  11.959
62629W        W31102   3.796   0.798   1.746
62630W        W31103  43.309  18.174  14.292
62631W        W31104  11.638  37.374  13.809
62632W        W31105  34.007  40.463  11.568
62633W        W31106  13.609  14.199   0.955
62634W        W31107   7.846  31.625   4.678
62635W        W31108  21.093   4.436  10.584
62636W        W31109  44.291  12.155   0.727
62637W        W31110  30.159   6.878  12.062
62638W        W31111   5.229   6.723   2.269
62639W        W31112  38.451  40.376   3.289
62640W        W31113   2.228  24.719   4.188
62641W        W31114  28.114  19.765  12.364
62642W        W31115  34.540  39.003   4.257
62643W        W31116  26.038  35.470   3.652
62644W        W31117  39.554   2.324   0.381
62645W        W31118  16.652  20.588   1.883
62646W        W31119   6.724  27.095  13.867
62647W        W31120  41.000   9.768   1.271
62648W        W31121  34.894  42.968  10.507
62649W        W31122  39.346  22.246   3.680
62650W        W31123  25.064  40.845  11.430
62651W        W31124  40.391  26.983   1.269
62652W        W31125  13.721   0.424   2.203
62653W        W31126   4.732  23.562   1.379
62654W        W31127  34.942  19.677  13.312
62655W        W31128  30.958   3.459   4.824
62656W        W31129   5.328  28.930   0.948
62657W        W31130  32.927   2.302   0.728
62658W        W31131  34.936  10.295   1.881
62659W        W31132  43.333  20.240  14.837
62660W        W31133  15.692   8.318   3.280
62661W        W31134  27.121  34.413   1.437
62662W        W31135  23.138  40.926   2.316
62663W        W31136   0.445   5.817   2.381
62664W        W31137  26.531  15.698   2.240
62665W        W31138  10.862  38.394  14.334
62666W        W31139  26.010  33.952  10.933
62667W        W31140  39.492  20.096   3.744
62668W        W31141  39.823  33.098   1.329
62669W        W31142  43.968  11.660  11.607
62670W        W31143   7.680  40.534  13.538
62671W        W31144  25.519  27.541   2.407
62672W        W31145  15.183  19.095   4.717
62673W        W31146  15.606  23.560  12.494
62674W        W31147  35.047  35.018   0.824
62675W        W31148  41.910   8.899   0.454
62676W        W31149  12.183   5.407   0.326
62677W        W31150  28.554  25.664   3.752
62678W        W31151   9.653   4.301   4.758
62679W        W31152   1.769  18.292   4.612
62680W        W31153   8.846   6.235   3.658
62681W        W31154  14.259   5.777   4.785
62682W        W31155  10.828  19.645   4.245
62683W        W31156  10.243   2.239   4.123
62684W        W31157  43.006  43.819  10.951
62685W        W31158  26.098  17.645   0.268
62686W        W31159  23.557  31.955  13.452
62687W        W31160  13.739  25.525   2.855
62688W        W31161  26.688  18.667  12.954
62689W        W31162  32.909  25.583  10.453
62690W        W31163  29.039  33.475   2.732
62691W        W31164  13.266  41.880  12.905
62692W        W31165  42.790  33.602  14.847
62693W        W31166  30.980  26.116   5.219
62694W        W31167  27.123   5.722   1.864
62695W        W31168  10.835  36.059  13.981
62696W        W31169  36.578  33.916  10.410
62697W        W31170  40.994   8.247  14.402
62698W        W31171  36.470   6.913  13.012
62699W        W31172  28.020  43.413  11.472
62700W        W31173  24.724   8.715  13.508
62701W        W31174  13.653  23.050   0.438
62702W        W31175  37.500  38.460  12.476
62703W        W31176   9.738  41.521   3.184
62704W        W31177   7.728  37.047   3.248
62705W        W31178  36.969  39.518  11.551
62706W        W31179  33.888  44.997   2.785
62707W        W31180   3.925  38.345   1.799
62708W        W31181  19.723   1.464  13.942
62709W        W31182   1.750   6.315  13.843
62710W        W31183  38.378  43.513  11.890
62711W        W31184  35.932  43.990  12.893
62712W        W31185  43.273   6.358  11.452
62713W        W31186  14.213  34.554   0.281
62714W        W31187  42.812  21.566   1.759
62715W        W31188   3.442   8.718  13.467
62716W        W31189  31.456  24.616   4.616
62717W        W31190  16.763  19.054   0.898
62718W        W31191  14.727  12.361   1.908
62719W        W31192  13.697  32.606  14.919
62720W        W31193  38.926  42.369  10.933
62721W        W31194  43.358  13.744  12.362
62722W        W31195  17.164  12.713   4.150
62723W        W31196   2.265   4.266  13.325
62724W        W31197  32.514  14.734   1.412
62725W        W31198  25.011   0.813   0.249
62726W        W31199  24.205  44.754  12.884
62727W        W31200   7.276   6.379   0.357
62728W        W31201   4.899   5.413   2.398
62729W        W31202  43.960  18.585  11.122
62730W        W31203   4.248  36.086   4.816
62731W        W31204  42.887   0.920   3.817
62732W        W31205   4.819   9.237  11.093
62733W        W31206  42.488  40.545   1.869
62734W        W31207  18.783  22.239   2.282
62735W        W31208  16.594  11.338  13.420
62736W        W31209   6.689  42.963   2.698
62737W        W31210   6.809  34.943  11.428
62738W        W31211  10.317  42.520   0.381
62739W        W31212  13.755   2.918  11.508
62740W        W31213  16.644  26.688  11.909
62741W        W31214  23.165  14.741  14.315
62742W        W31215  15.167  34.583   2.277
62743W        W31216  26.009  22.736   2.196
62744W        W31217  28.976   1.831  13.997
62745W        W31218   2.429  42.909  12.897
62746W        W31219  36.950  20.131   2.674
62747W        W31220  33.941  11.370  12.479
62748W        W31221  26.623  35.887  11.925
62749W        W31222  42.977  29.012   0.380
62750W        W31223   7.241  26.515   2.219
62751W        W31224  14.291   6.797   3.358
62752W        W31225  35.024  27.554  14.358
62753W        W31226  23.564  23.581   3.812
62754W        W31227  25.130   4.830  12.070
62755W        W31228  22.036  35.494   0.310
62756W        W31229  44.278  32.109   4.836
62757W        W31230   1.968  37.523  11.571
62758W        W31231  38.064  19.734   3.214
62759W        W31232  23.533  30.530  10.917
62760W        W31233  12.354  38.512  14.768
62761W        W31234  33.961   0.834  13.063
62762W        W31235  39.374   5.386   4.280
62763W        W31236   7.251   7.180   1.298
62764W        W31237  25.615  10.163  13.406
62765W        W31238  11.253  28.475   4.281
62766W        W31239  29.514   8.663   0.387
62767W        W31240  18.146  30.600   3.637
62768W        W31241  22.186   8.758   1.803
62769W        W31242  16.638  12.831   1.330
62770W        W31243   4.363   9.741  14.434
62771W        W31244  37.437  15.185  12.902
62772W        W31245   3.927  41.886   4.121
62773W        W31246  22.723  37.473  12.832
62774W        W31247  22.219  33.901   2.308
62775W        W31248  26.954  28.058   3.190
62776W        W31249   4.322  34.101   2.401
62777W        W31250  16.290  15.639  13.870
62778W        W31251  24.058  44.892  11.096
62779W        W31252  24.104  14.657   3.242
62780W        W31253   6.318  25.624  13.047
62781W        W31254  11.303  44.288  13.011
62782W        W31255  17.703  15.136  14.770
62783W        W31256   5.832  38.890   3.731
62784W        W31257  11.852  43.425  11.011
62785W        W31258   8.343  39.060  13.880
62786W        W31259   6.428  28.963   3.738
62787W        W31260  42.503  11.137  12.075
62788W        W31261  37.065  19.181   0.293
62789W        W31262   3.380  35.535  14.011
62790W        W31263  16.573  12.147  14.442
62791W        W31264  33.039  36.527  12.027
62792W        W31265   1.322  35.522   3.279
62793W        W31266  23.169  41.410   1.451
62794W        W31267   6.795   7.246   2.195
62795W        W31268  33.031   8.226  12.545
62796W        W31269  38.369  24.582   2.801
62797W        W31270  27.471   0.431  13.419
62798W        W31271  22.583  27.055   0.426
62799W        W31272   7.751  17.158   3.770
62800W        W31273  10.688   4.923   0.252
62801W        W31274  25.113  37.928  13.002
62802W        W31275  27.536  35.047  11.114
62803W        W31276  17.095  34.379   4.610
62804W        W31277  37.880  40.512  14.923
62805W        W31278   8.329  13.740  12.935
62806W        W31279  38.912  37.537   9.983
62807W        W31280  39.887  32.102   3.300
62808W        W31281  14.613  37.961  14.998
62809W        W31282  21.513  21.556  10.550
62810W        W31283  29.024  26.670  13.020
62811W        W31284   4.354  35.384   1.288
62812W        W31285   9.232  27.996  10.145
62813W        W31286  15.647  37.547  12.468
62814W        W31287  22.620  15.114   1.711
62815W        W31288   8.844  31.482  13.527
62816W        W31289  33.875  35.601  14.926
62817W        W31290  42.812  20.090  13.382
62818W        W31291  44.492   6.704  13.460
62819W        W31292  41.315  32.564  10.472
62820W        W31293  10.211  34.599  11.524
62821W        W31294  26.516  30.621  11.513
62822W        W31295  17.111  28.991   3.347
62823W        W31296  20.650   4.794  10.993
62824W        W31297  22.576  12.254   3.266
62825W        W31298   4.383  31.990   1.751
62826W        W31299  11.722  16.154  12.376
62827W        W31300  10.189  33.922   2.819
62828W        W31301  10.812  33.387  14.855
62829W        W31302  39.524  20.634   2.720
62830W        W31303  14.251  18.596   5.295
62831W        W31304  41.338   2.923  10.429
62832W        W31305   0.256  23.139   4.281
62833W        W31306  37.542  10.244   5.293
62834W        W31307  32.418  28.608  14.384
62835W        W31308  14.279  14.240   3.824
62836W        W31309  19.099   4.819  12.059
62837W        W31310  42.778  35.959  11.566
62838W        W31311   0.780   6.307  10.405
62839W        W31312   6.372  17.599  11.588
62840W        W31313  31.568  25.134   3.826
62841W        W31314  28.990  27.600  13.846
62842W        W31315  27.169  26.594  12.974
62843W        W31316  23.184  14.227   4.723
62844W        W31317  37.542  26.513  13.840
62845W        W31318   7.325  42.833  12.919
62846W        W31319  42.526   9.798   2.236
62847W        W31320  26.668  22.671   2.675
62848W        W31321   4.794   7.233  10.609
62849W        W31322  13.153  11.707  13.960
62850W        W31323  15.577  19.769  11.121
62851W        W31324  26.967  12.817   4.792
62852W        W31325  28.020  16.301  11.962
62853W        W31326  19.088  12.178   4.696
62854W        W31327  13.677  39.441  13.509
62855W        W31328  40.331  18.138   2.258
62856W        W31329  15.116  10.284  14.493
62857W        W31330  43.975  25.047  12.846
62858W        W31331   7.361  28.124  11.058
62859W        W31332  14.818  44.501   9.984
62860W        W31333   6.780  27.179   3.725
62861W        W31334   8.298  42.805  10.512
62862W        W31335   0.895  15.639  13.963
62863W        W31336   7.239  13.275   2.306
62864W        W31337   4.741  18.605  12.458
62865W        W31338  22.202  16.669  13.494
62866W        W31339  20.651   7.216   4.642
62867W        W31340   1.968  23.595  12.939
62868W        W31341   3.943  17.776   3.149
62869W        W31342  27.190  42.923  11.483
62870W        W31343   7.412  36.591  11.420
62871W        W31344   8.836  37.421  14.971
62872W        W31345  12.297  39.834  13.799
62873W        W31346  20.741  27.083  11.918
62874W        W31347   7.696   6.323   5.732
62875W        W31348  10.676  21.140  11.105
62876W        W31349   4.404  30.014  10.461
62877W        W31350  26.518  13.831  13.031
62878W        W31351  35.913  12.351  13.313
62879W        W31352  13.220  32.393   1.792
62880W        W31353   7.732  17.763   3.276
62881W        W31354  42.029  40.871  11.915
62882W        W31355  30.081   9.373   2.778
62883W        W31356   5.734  37.543   2.901
62884W        W31357  16.811  42.977  11.488
62885W        W31358   5.330   1.736  14.966
62886W        W31359  13.311  19.083  14.801
62887W        W31360   6.869  33.503   4.203
62888W        W31361  35.596  35.954   1.905
62889W        W31362  11.140   3.778   4.183
62890W        W31363   4.795  13.644   4.681
62891W        W31364  37.533  14.331  12.940
62892W        W31365  15.792  41.303  12.377
62893W        W31366  26.588  15.799   0.884
62894W        W31367  20.083  14.665   3.229
62895W        W31368   2.852   6.195  14.801
62896W        W31369  17.096  11.223   3.850
62897W        W31370   3.365  42.427  11.422
62898W        W31371   1.913  27.595  13.943
62899W        W31372  42.445   4.800   1.428
62900W        W31373  26.612  42.320  12.521
62901W        W31374  17.574  27.132  12.966
62902W        W31375  13.801  20.118   4.138
62903W        W31376  19.593   5.220  13.882
62904W        W31377  38.353  11.181   0.346
62905W        W31378   0.425  35.418  10.987
62906W        W31379  20.050  41.990  14.879
62907W        W31380  34.119  32.932  13.544
62908W        W31381  39.032  23.198  10.536
62909W        W31382  21.720  14.649  11.106
62910W        W31383  38.908   1.379  14.991
62911W        W31384  35.095   8.390   1.887
62912W        W31385   0.934  24.992   4.787
62913W        W31386  37.950  26.030  10.557
62914W        W31387  32.461  25.152  14.487
62915W        W31388   5.699   0.965  13.835
62916W        W31389   7.398  30.489  10.575
62917W        W31390  27.033  36.570   1.372
62918W        W31391  19.096  20.161  10.477
62919W        W31392  35.972  27.492  13.832
62920W        W31393  43.420  44.818  11.584
62921W        W31394  17.109  44.808  12.387
62922W        W31395  24.637  18.725   3.687
62923W        W31396  10.829  23.096   5.777
62924W        W31397  40.997  16.136  13.800
62925W        W31398   4.360  41.441   4.806
62926W        W31399  36.390   0.866  13.929
62927W        W31400  23.530   7.399  14.341
62928W        W31401  16.299  10.344   1.740
62929W        W31402  31.411  18.714  13.865
62930W        W31403  23.614  12.665  10.523
62931W        W31404  32.490  38.984  13.405
62932W        W31405   3.442  37.978   1.258
62933W        W31406  34.409  23.684  13.468
62934W        W31407  24.145  43.337  11.518
62935W        W31408  37.064  37.578   3.274
62936W        W31409  29.137  34.415   2.299
62937W        W31410  25.468  21.045  12.483
62938W        W31411  15.109   2.891  11.540
62939W        W31412  35.458   4.755   0.424
62940W        W31413  42.780   1.821  12.356
62941W        W31414  34.924   4.228  10.968
62942W        W31415  13.806  19.606  13.888
62943W        W31416  15.109  42.921  10.571
62944W        W31417   1.390  21.616   0.447
62945W        W31418  17.774   9.308  14.015
62946W        W31419   0.874  10.260   1.315
62947W        W31420  14.288  34.070   4.799
62948W        W31421  25.025  35.944   1.825
62949W        W31422  25.503  25.617   0.824
62950W        W31423  43.369  39.451  11.104
62951W        W31424  42.438  34.480  13.448
62952W        W31425  15.299  30.520   1.437
62953W        W31426  16.317  14.802   3.243
62954W        W31427   5.840  11.792  13.341
62955W        W31428   3.932   4.443   0.957
62956W        W31429  34.984  41.340  12.427
62957W        W31430  12.359  11.838  13.373
62958W        W31431  23.615   4.913  13.861
62959W        W31432  30.913  35.409   0.466
62960W        W31433  12.204  13.763  12.361
62961W        W31434   4.293  25.485   1.423
62962W        W31435   8.395  37.394   0.317
62963W        W31436  25.659  32.978   0.860
62964W        W31437  25.177  42.919  10.421
62965W        W31438  35.019  19.608   4.258
62966W        W31439   5.928   2.449  14.358
62967W        W31440  29.007  16.710  10.537
62968W        W31441   7.889  13.337   1.296
62969W        W31442  39.847  10.317   1.806
62970W        W31443  23.617  18.146  13.895
62971W        W31444   3.425  38.938   0.417
62972W        W31445  38.062  44.445  14.393
62973W        W31446  44.338   3.272   5.233
62974W        W31447   5.433  29.128  13.423
62975W        W31448  15.706  23.611  11.438
62976W        W31449   1.253  10.800  13.874
62977W        W31450  29.161  21.070  10.441
62978W        W31451  33.542  32.613  10.995
62979W        W31452  36.364  15.269  11.105
62980W        W31453  31.547  30.942  12.502
62981W        W31454  25.579  33.469   1.347
62982W        W31455  28.158  12.854   0.767
62983W        W31456   3.710  44.342  13.467
62984W        W31457  18.231  39.541  12.444
62985W        W31458  35.893  17.748   3.698
62986W        W31459  11.770  25.164   3.344
62987W        W31460  13.351  26.196   2.183
62988W        W31461  19.765  13.846   4.328
62989W        W31462  29.498  16.706  10.931
62990W        W31463   1.262  18.739   4.344
62991W        W31464  22.648  42.838  10.035
62992W        W31465  14.129  43.923  12.833
62993W        W31466  19.728   5.277  14.875
62994W        W31467   6.861  32.965  10.610
62995W        W31468  22.013  39.053   3.382
62996W        W31469  12.209  23.094  13.042
62997W        W31470  11.332   2.227  12.499
62998W        W31471  33.403   3.273   0.282
62999W        W31472  30.566  35.462   0.830
63000W        W31473  20.203  25.072   3.661
63001W        W31474  38.884  14.289  11.475
63002W        W31475  11.680  15.610   4.162
63003W        W31476   2.915   5.265  14.297
63004W        W31477  20.058  44.937  12.010
63005W        W31478  37.950  14.742  14.877
63006W        W31479  26.624  14.304  14.972
63007W        W31480  44.762  26.095   4.695
63008W        W31481  28.155   4.319  12.499
63009W        W31482  38.945   1.939   0.816
63010W        W31483   0.844  25.647  13.838
63011W        W31484  30.423  29.062  13.473
63012W        W31485  37.950  31.919   4.809
63013W        W31486  25.514  18.685  12.528
63014W        W31487   1.236  20.696   1.866
63015W        W31488   4.433  39.432   4.678
63016W        W31489  39.526  29.083  11.000
63017W        W31490  40.874  21.175  13.943
63018W        W31491  16.236  12.256   2.218
63019W        W31492  21.127   9.224  14.906
63020W        W31493  20.201   3.723  13.937
63021W        W31494  44.299  28.178   3.307
63022W        W31495  43.506  25.615  10.895
63023W        W31496  37.031  15.745   2.882
63024W        W31497  18.591  37.515  10.952
63025W        W31498   7.800  32.447   0.292
63026W        W31499  36.080  27.068   4.830
63027W        W31500  34.600  29.105   4.655
63028W        W31501  42.343   2.402  13.947
63029W        W31502   0.397  16.661   1.812
63030W        W31503  18.772   7.903  11.880
63031W        W31504  15.823  27.184   4.146
63032W        W31505  35.928  10.384   0.747
63033W        W31506   0.432  15.593  12.375
63034W        W31507   4.782  20.725   3.379
63035W        W31508  33.883  37.916  12.850
63036W        W31509   0.746  15.781  12.422
63037W        W31510  22.234  42.349  12.573
63038W        W31511  16.192  38.377   5.096
63039W        W31512  37.913  18.725   0.851
63040W        W31513  11.744   9.175  14.793
63041W        W31514  27.454   9.272  11.874
63042W        W31515  23.659  36.487   1.875
63043W        W31516   4.789  32.109   5.196
63044W        W31517  12.829   6.898   4.280
63045W        W31518  23.034   9.850  12.358
63046W        W31519  43.468  22.540  11.120
63047W        W31520  30.575  40.929  13.861
63048W        W31521  43.398   5.795   3.737
63049W        W31522   8.204  23.585   1.298
63050W        W31523   1.884  28.665   1.821
63051W        W31524  27.067  24.025  14.829
63052W        W31525  11.845  20.182  11.483
63053W        W31526   0.344  11.800  14.340
63054W        W31527   0.755   2.777   0.351
63055W        W31528  10.295  23.196   2.718
63056W        W31529   0.798  32.118   9.951
63057W        W31530  37.074  13.623   2.305
63058W        W31531  15.295  15.783  14.393
63059W        W31532  35.935  30.032   4.286
63060W        W31533   7.306  36.930   3.219
63061W        W31534  31.926  26.953  12.431
63062W        W31535  16.157  19.648  11.126
63063W        W31536  32.447  28.669  10.595
63064W        W31537   1.328   4.773  12.080
63065W        W31538  16.796  39.470  14.822
63066W        W31539  39.422  22.048   1.803
63067W        W31540   0.441  37.475   2.725
63068W        W31541  27.631  25.093   4.332
63069W        W31542  24.589  39.054  14.299
63070W        W31543  43.872  33.602   2.843
63071W        W31544  36.589   1.300   1.812
63072W        W31545  11.205  28.553   0.462
63073W        W31546  25.712  15.786  11.869
63074W        W31547  15.757  42.905   5.273
63075W        W31548  37.947  24.510  14.353
63076W        W31549  31.409  38.497   0.358
63077W        W31550   1.276  15.638  11.541
63078W        W31551   9.830   4.717  13.372
63079W        W31552  10.170  12.302  11.965
63080W        W31553   4.755   8.855  14.961
63081W        W31554  41.035  14.147  12.490
63082W        W31555  14.698  21.651   1.915
63083W        W31556  24.991   4.298  11.548
63084W        W31557   5.265  43.813   0.843
63085W        W31558  28.963   0.365  10.462
63086W        W31559   7.757  10.218   3.761
63087W        W31560  12.153  23.076   1.232
63088W        W31561  41.033  12.639   3.851
63089W        W31562  42.011  42.335  14.812
63090W        W31563  19.591  24.127   1.390
63091W        W31564  42.437  16.212   3.154
63092W        W31565  23.052  32.433   1.378
63093W        W31566  31.954   9.348  13.524
63094W        W31567   2.259  23.525   3.383
63095W        W31568  16.309  32.473   3.344
63096W        W31569   4.804  21.553  10.447
63097W        W31570  23.521  31.461  10.589
63098W        W31571  29.160  10.863  11.489
63099W        W31572  26.132   5.382  14.497
63100W        W31573  11.135  16.732   2.705
63101W        W31574  42.846  24.630  14.834
63102W        W31575  26.155  24.601  10.995
63103W        W31576  26.483   7.820   0.266
63104W        W31577  35.869  44.003  11.500
63105W        W31578  35.423  40.379  12.058
63106W        W31579   7.773  39.315   0.363
63107W        W31580   2.366  38.823   4.292
63108W        W31581  23.577  26.528  12.438
63109W        W31582  21.097   6.195   0.292
63110W        W31583  16.278  24.487  13.461
63111W        W31584  21.211  14.727  10.427
63112W        W31585  28.548  24.078   1.220
63113W        W31586  42.025  35.888  10.149
63114W        W31587   7.693  15.186  13.996
63115W        W31588   9.878  25.979   9.546
63116W        W31589  18.597   9.236   1.771
63117W        W31590  29.017  44.259   2.808
63118W        W31591  18.064  43.794  14.414
63119W        W31592  29.489  35.024  11.515
63120W        W31593   5.262  35.993   1.703
63121W        W31594  25.180  35.027  12.541
63122W        W31595  43.833  33.030  14.007
63123W        W31596  17.193  10.219   4.148
63124W        W31597  17.685  21.575   2.278
63125W        W31598  38.342   7.380  13.012
63126W        W31599  13.650   8.255   1.772
63127W        W31600  41.855  36.356   1.797
63128W        W31601  11.196  38.025   4.608
63129W        W31602   5.228  22.123  14.463
63130W        W31603  17.198  37.845   5.644
63131W        W31604   5.265  27.512  12.388
63132W        W31605  22.088  16.581  11.596
63133W        W31606  31.054  32.015  14.002
63134W        W31607  41.016  37.454   2.812
63135W        W31608  23.151  30.126  12.412
63136W        W31609   7.357  20.756  14.832
63137W        W31610   5.819   7.321   0.802
63138W        W31611   3.879  26.531   1.386
63139W        W31612  41.349  43.927   0.286
63140W        W31613  38.369  43.364  11.525
63141W        W31614  14.654  24.485   4.152
63142W        W31615   4.405  23.089   4.682
63143W        W31616   1.243   1.903   3.378
63144W        W31617   9.337   0.877   2.712
63145W        W31618  13.813   3.920   2.179
63146W        W31619  23.513  33.995   4.621
63147W        W31620   3.725  16.619  14.030
63148W        W31621  39.953  12.194   3.265
63149W        W31622   9.249  11.233  12.464
63150W        W31623  42.882  26.525  11.415
63151W        W31624  11.275  38.820  12.409
63152W        W31625   6.338   0.273   4.118
63153W        W31626   0.844  11.261   3.302
63154W        W31627  13.628  13.113  14.010
63155W        W31628   4.709  13.715  14.902
63156W        W31629   4.390  20.260  14.935
63157W        W31630  32.467   9.870  14.780
63158W        W31631  14.633  37.943  14.277
63159W        W31632  37.398   3.251  14.021
63160W        W31633  16.695  40.382   3.697
63161W        W31634  26.984   0.894  13.815
63162W        W31635  31.022  11.342  10.993
63163W        W31636  40.991  11.327   4.255
63164W        W31637   6.879  13.253  13.394
63165W        W31638  27.549   5.896  14.976
63166W        W31639  23.507  19.049   1.398
63167W        W31640  31.543  20.675   2.763
63168W        W31641   8.737  35.409   1.298
63169W        W31642  16.308   8.809   1.835
63170W        W31643  20.638  29.443   2.809
63171W        W31644  42.291   6.193  13.383
63172W        W31645  41.344  42.328  13.440
63173W        W31646  12.251  17.671  12.835
63174W        W31647  22.129  17.165   0.381
63175W        W31648  37.496  24.581   3.750
63176W        W31649  44.411  35.960  10.629
63177W        W31650   4.336  20.145  13.990
63178W        W31651  43.275  39.992   4.705
63179W        W31652   4.347  17.212   0.404
63180W        W31653  20.240   3.725   0.816
63181W        W31654   3.951  34.106  13.389
63182W        W31655  39.354  38.438   3.304
63183W        W31656  14.102  38.399  13.348
63184W        W31657  31.556  21.102   4.812
63185W        W31658  17.593  11.259  10.643
63186W        W31659   3.817  41.370   1.239
63187W        W31660  35.553  17.647   3.861
63188W        W31661  13.668  42.314  12.476
63189W        W31662  41.404  32.969   2.683
63190W        W31663  24.515  43.358   1.220
63191W        W31664  14.261  44.363  12.088
63192W        W31665  18.083  40.521  11.105
63193W        W31666  24.997  31.923  13.826
63194W        W31667  35.397  44.505   1.703
63195W        W31668  14.153  18.775  10.583
63196W        W31669  19.571  42.365  12.357
63197W        W31670  13.672  32.080  14.477
63198W        W31671  44.399  43.498   2.724
63199W        W31672   6.414  13.248   1.250
63200W        W31673  19.103  33.557  13.415
63201W        W31674  40.502  17.746   1.393
63202W        W31675  37.906  30.968  12.479
63203W        W31676  41.935  33.014   2.661
63204W        W31677   7.693  20.152  13.863
63205W        W31678  22.013   1.302  10.504
63206W        W31679  25.612   9.844  13.056
63207W        W31680  30.518  21.543  12.564
63208W        W31681   2.756  28.671  13.531
63209W        W31682  39.862  12.856   2.718
63210W        W31683  44.958  28.072  14.924
63211W        W31684   9.797   3.455   4.121
63212W        W31685  22.562  32.902   0.806
63213W        W31686  26.002  11.626  14.845
63214W        W31687  13.640  11.205  13.847
63215W        W31688  37.417  35.985  13.352
63216W        W31689  30.094  27.659   1.904
63217W        W31690  36.459  14.621   4.676
63218W        W31691  19.745  13.616  11.956
63219W        W31692  14.222   9.347   3.187
63220W        W31693  14.197   6.887  12.003
63221W        W31694  44.927  27.190  13.869
63222W        W31695  36.929  14.248   4.223
63223W        W31696  13.609  26.156  14.877
63224W        W31697   8.312  16.149  11.036
63225W        W31698  14.307   9.333   2.810
63226W        W31699  17.083  17.557   4.188
63227W        W31700   4.712   8.689  10.927
63228W        W31701  14.230  44.930   0.332
63229W        W31702  40.456  35.459   3.808
63230W        W31703  22.119   1.860  14.802
63231W        W31704   0.972  32.085   5.306
63232W        W31705  35.868  11.162  13.880
63233W        W31706  41.930  25.121  13.461
63234W        W31707   9.150  39.390   1.394
63235W        W31708  23.714  27.465  13.953
63236W        W31709  29.461  35.857  12.881
63237W        W31710  31.083  40.841  14.438
63238W        W31711  39.905  11.828  11.486
63239W        W31712  41.347  15.668  12.991
63240W        W31713  18.140  24.040  13.515
63241W        W31714   6.769   1.836  11.927
63242W        W31715  40.461  33.526  10.914
63243W        W31716  20.727   2.952  13.315
63244W        W31717  12.635  22.557   4.243
63245W        W31718  17.099  43.993  11.068
63246W        W31719   1.456  24.075  11.093
63247W        W31720  41.872  31.534   2.677
63248W        W31721  19.708  35.976   3.719
63249W        W31722  43.788  20.720   3.359
63250W        W31723  24.616  43.422  14.332
63251W        W31724   0.371  37.995  11.987
63252W        W31725  44.987   3.340   3.741
63253W        W31726  31.484   7.301  12.855
63254W        W31727  28.185  14.794  14.463
63255W        W31728  38.364  19.750   1.377
63256W        W31729   3.269  31.098   3.263
63257W        W31730  41.955  15.241   2.179
63258W        W31731  27.140  29.101  13.489
63259W        W31732   4.241   3.790   3.261
63260W        W31733   6.854   6.765   9.618
63261W        W31734  15.300  26.172   2.704
63262W        W31735  14.233  29.640   1.426
63263W        W31736  19.762   5.813   0.930
63264W        W31737  35.991  43.014   1.819
63265W        W31738  34.072   3.810   0.763
63266W        W31739  10.242  17.306   1.404
63267W        W31740   4.368  16.132   3.368
63268W        W31741   3.360  37.049   3.259
63269W        W31742   1.871  17.152  11.929
63270W        W31743   4.704   7.208   4.184
63271W        W31744  28.982  12.628   1.212
63272W        W31745   9.298   3.893   2.270
63273W        W31746  31.622  40.510   4.600
63274W        W31747   6.242  15.667   4.805
63275W        W31748  44.438  40.439  10.910
63276W        W31749  30.590   4.943   0.948
63277W        W31750  36.845  34.401  14.981
63278W        W31751   0.833  16.567  11.473
63279W        W31752   3.850  10.722   0.459
63280W        W31753   6.233  18.581  13.807
63281W        W31754  29.113  29.996   4.157
63282W        W31755  44.879  36.511   0.322
63283W        W31756  15.285  10.872   3.764
63284W        W31757  16.620  13.736  12.440
63285W        W31758  30.659  16.226  10.927
63286W        W31759   2.387   2.278   0.850
63287W        W31760  43.820  24.043  12.918
63288W        W31761   5.401  15.589   4.322
63289W        W31762  44.919  22.186  14.896
63290W        W31763  41.463  10.806   4.650
63291W        W31764  10.870  15.272   1.935
63292W        W31765  21.204  23.193   1.407
63293W        W31766  22.604   4.819  12.480
63294W        W31767  20.119   3.433   1.284
63295W        W31768   0.755  35.561  11.045
63296W        W31769  29.975  18.162   4.341
63297W        W31770  20.268  31.476   1.880
63298W        W31771  24.619  13.809   3.842
63299W        W31772  23.092  34.046  11.470
63300W        W31773  35.857  31.108  14.350
63301W        W31774  19.280  20.124   2.198
63302W        W31775   6.264  21.703   4.134
63303W        W31776   7.860  39.557   2.749
63304W        W31777   1.331  27.152   0.342
63305W        W31778   2.899   7.223  12.887
63306W        W31779  25.160  16.607  10.470
63307W        W31780  12.623  44.753   1.756
63308W        W31781  18.084  15.111   3.272
63309W        W31782  15.294  43.802   0.309
63310W        W31783  26.124  33.577   1.320
63311W        W31784   8.189   9.805  13.934
63312W        W31785  16.667  32.116  13.872
63313W        W31786  13.337  25.963   1.220
63314W        W31787  35.512  37.027   0.344
63315W        W31788  28.021   1.287   3.671
63316W        W31789   7.671   8.800  14.899
63317W        W31790  12.850  19.282   4.306
63318W        W31791  24.616  41.925  10.523
63319W        W31792  29.594  44.261  11.560
63320W        W31793  17.244  20.570   4.699
63321W        W31794  10.344  32.982   0.929
63322W        W31795  27.503  27.159  14.405
63323W        W31796  30.963  11.674  14.474
63324W        W31797  33.120  44.982  13.393
63325W        W31798  32.028  44.260   2.801
63326W        W31799  11.342   5.776  14.920
63327W        W31800   2.841  33.899   2.362
63328W        W31801  12.116  39.380   3.206
63329W        W31802  23.184   6.375   1.731
63330W        W31803  35.065  38.960  14.886
63331W        W31804  22.534  23.210  12.895
63332W        W31805  20.648  44.935  10.999
63333W        W31806   4.432  15.642   3.660
63334W        W31807  40.433  40.478  10.924
63335W        W31808   0.355   5.769   3.326
63336W        W31809   4.230  15.145  12.398
63337W        W31810  24.982  39.524  14.358
63338W        W31811  41.036  22.680   0.847
63339W        W31812  34.996  42.316  14.369
63340W        W31813  10.772   7.665   3.229
63341W        W31814  40.888  31.052  12.560
63342W        W31815   5.228   7.386   5.111
63343W        W31816  23.649  36.989  13.960
63344W        W31817  11.187  16.746  14.361
63345W        W31818   7.866  18.140   3.290
63346W        W31819  33.421  36.884  11.610
63347W        W31820  34.974  33.503  12.957
63348W        W31821  25.183   6.865  10.611
63349W        W31822  34.865   1.455  12.870
63350W        W31823  16.117  22.579  13.912
63351W        W31824   4.343  23.576   1.387
63352W        W31825   1.436  40.995   4.191
63353W        W31826  12.138   2.404   4.291
63354W        W31827  11.206  37.535  12.509
63355W        W31828   4.217  18.259  12.872
63356W        W31829   6.276  31.021   3.218
63357W        W31830  24.551  26.063   9.443
63358W        W31831  22.139  28.500   5.321
63359W        W31832   8.845  42.362   3.790
63360W        W31833  15.253  37.564   5.698
63361W        W31834  39.447   3.257   4.770
63362W        W31835  18.213  39.010  13.318
63363W        W31836  13.190  23.659  11.529
63364W        W31837  18.067  40.810   3.821
63365W        W31838  23.001  33.555  13.879
63366W        W31839  32.984  39.972  13.424
63367W        W31840  44.502  22.525   4.605
63368W        W31841   3.856  24.554   3.381
63369W        W31842  21.716  19.773   1.419
63370W        W31843  38.563   4.932   1.359
63371W        W31844  43.469  32.488  14.427
63372W        W31845  39.914  32.412   4.690
63373W        W31846  43.939  33.964  11.128
63374W        W31847  40.950  34.550  11.052
63375W        W31848  23.060  31.429   2.730
63376W        W31849   6.204  40.990   2.806
63377W        W31850  21.635  17.201  14.363
63378W        W31851  23.174   9.242  11.920
63379W        W31852  25.112  35.985  12.519
63380W        W31853  32.074  44.386   4.784
63381W        W31854  15.656   6.736  12.553
63382W        W31855  33.556   4.288   0.358
63383W        W31856  32.898  42.293  14.899
63384W        W31857  41.979  26.619   0.338
63385W        W31858  10.739  28.061   4.626
63386W        W31859   4.828  16.190  12.034
63387W        W31860  34.066   7.694  13.939
63388W        W31861  16.635  41.792   1.343
63389W        W31862  10.184  12.759  10.546
63390W        W31863  32.611  14.176   4.781
63391W        W31864   9.712  15.143   4.216
63392W        W31865  39.327  40.544  14.444
63393W        W31866  34.429   7.417   0.420
63394W        W31867   8.743  18.618   1.222
63395W        W31868  15.782  25.676  12.489
63396W        W31869  25.605   0.411   3.781
63397W        W31870  10.777  23.033   4.330
63398W        W31871  29.098  13.841  12.340
63399W        W31872   6.317  32.060  12.861
63400W        W31873  11.830  14.678  13.469
63401W        W31874   6.831  13.622  11.590
63402W        W31875  40.519  26.694  14.785
63403W        W31876   3.346  17.675  11.107
63404W        W31877   6.885  31.941   0.441
63405W        W31878  38.363  43.859  12.574
63406W        W31879   5.233  22.636  10.466
63407W        W31880  26.051   4.447   1.769
63408W        W31881   4.762  11.708  14.968
63409W        W31882  30.479   4.860   2.856
63410W        W31883  43.800  29.465   3.735
63411W        W31884  33.387  36.373   1.229
63412W        W31885  34.973  41.353  11.451
63413W        W31886  31.055  21.144   2.274
63414W        W31887  38.953  32.075   2.872
63415W        W31888   8.166  39.484  11.919
63416W        W31889  10.299  43.405  10.897
63417W        W31890  27.449  36.065  11.003
63418W        W31891  23.093  44.831   0.254
63419W        W31892  13.808  16.608  11.379
63420W        W31893  38.983  25.551  14.811
63421W        W31894  27.651  26.074   4.724
63422W        W31895  33.479  25.973   1.307
63423W        W31896   3.835  28.641   3.361
63424W        W31897   8.314  14.145  12.085
63425W        W31898  40.316  11.703  11.053
63426W        W31899   9.336  35.110   4.752
63427W        W31900  32.999   3.222   1.803
63428W        W31901  31.401   6.379  12.988
63429W        W31902  41.495  23.600  13.015
63430W        W31903  31.549  15.718   3.347
63431W        W31904  37.068  12.297  14.865
63432W        W31905  34.940   1.459  13.544
63433W        W31906  24.082   1.249  13.448
63434W        W31907  42.383  44.935   0.965
63435W        W31908  42.819   6.877   1.273
63436W        W31909  18.721  11.852   5.200
63437W        W31910  21.072  38.867  12.416
63438W        W31911   3.937  41.917   3.240
63439W        W31912  32.128   7.829   3.383
63440W        W31913  40.952   0.888  10.915
63441W        W31914   0.864  14.101  11.379
63442W        W31915   8.318  40.530   1.286
63443W        W31916  28.177  35.592   0.471
63444W        W31917  20.082  17.277  10.108
63445W        W31918  12.249  34.400   1.732
63446W        W31919  33.591   6.739  12.043
63447W        W31920   5.338   0.441   1.336
63448W        W31921  29.543  24.138   3.248
63449W        W31922  20.272  24.101   3.183
63450W        W31923   9.719  34.092   5.791
63451W        W31924  40.350   1.943  10.429
63452W        W31925  36.448  16.727   2.823
63453W        W31926  34.062   1.264  10.887
63454W        W31927  32.403  17.276  10.436
63455W        W31928  30.566  13.748   2.201
63456W        W31929  26.656  27.041  13.039
63457W        W31930  35.363  10.300  14.394
63458W        W31931  35.568  22.190   4.726
63459W        W31932   4.897  15.594  14.315
63460W        W31933   5.353  41.836  14.932
63461W        W31934   8.673  37.913   0.277
63462W        W31935   6.706   0.413  14.360
63463W        W31936  11.363   1.737   1.710
63464W        W31937  42.469  15.098   2.683
63465W        W31938  13.120   6.282   4.354
63466W        W31939  16.647  15.758  14.008
63467W        W31940  33.509   1.937   2.339
63468W        W31941  26.959  36.055  11.595
63469W        W31942  44.314  31.555  13.985
63470W        W31943  32.393  40.844   4.135
63471W        W31944  32.126   4.349   4.312
63472W        W31945   9.795  21.547  14.346
63473W        W31946  11.374   6.853  11.986
63474W        W31947  30.936  26.669   1.767
63475W        W31948  42.026   7.323  13.945
63476W        W31949  24.098  43.323   0.772
63477W        W31950   6.791  20.638   4.226
63478W        W31951  24.530  26.683   5.739
63479W        W31952   0.293  18.285  14.289
63480W        W31953   5.213  31.444  10.918
63481W        W31954  20.185  11.187  14.382
63482W        W31955  39.026  14.228  14.357
63483W        W31956  32.914  34.036   0.949
63484W        W31957  20.769  37.367   0.919
63485W        W31958  17.224   1.428   1.398
63486W        W31959   7.732  36.056  10.105
63487W        W31960  11.310  36.976   3.287
63488W        W31961  12.357   6.870  11.498
63489W        W31962  28.098  10.154  11.872
63490W        W31963  35.983  18.611  13.014
63491W        W31964  36.933  28.171   3.360
63492W        W31965  18.096  21.693  13.894
63493W        W31966   0.910  19.088  11.402
63494W        W31967  42.862   8.210  12.910
63495W        W31968  37.858  38.426   3.169
63496W        W31969  25.638  39.411  10.550
63497W        W31970  43.359   6.748  13.968
63498W        W31971  20.767  33.036   1.315
63499W        W31972  15.244  25.986   3.771
63500W        W31973  17.575  42.289   2.388
63501W        W31974   4.236  34.401  13.987
63502W        W31975  30.966  16.109   1.712
63503W        W31976   2.310  24.489  11.059
63504W        W31977  36.367  43.835  11.495
63505W        W31978  18.631  28.476   3.824
63506W        W31979  25.126  32.022   0.930
63507W        W31980  18.282  37.973   1.829
63508W        W31981  29.484  24.003  14.938
63509W        W31982  27.046  11.722   2.680
63510W        W31983  27.037  35.019  14.323
63511W        W31984  14.689  12.212   0.283
63512W        W31985  10.251  18.562  14.919
63513W        W31986  27.462  36.036   2.896
63514W        W31987  28.009   6.826   4.837
63515W        W31988   6.904  28.479   3.632
63516W        W31989   3.849  22.108   2.285
63517W        W31990  34.462  23.734  14.769
63518W        W31991  20.618   5.820   2.801
63519W        W31992  33.479   9.791  14.475
63520W        W31993   7.336  21.156   1.859
63521W        W31994   3.432  10.661   3.302
63522W        W31995  17.681  27.944  11.884
63523W        W31996  33.883  31.013   4.222
63524W        W31997  20.235  33.460   4.137
63525W        W31998  17.268  18.269   4.307
63526W        W31999  18.051  28.612  13.992
63527W        W32000  13.260   2.418  11.445
63528W        W32001  30.032  36.023  13.797
63529W        W32002   8.688  18.211  10.939
63530W        W32003   7.895   1.759  13.395
63531W        W32004  21.082  44.449   9.932
63532W        W32005  36.026  26.124   2.278
63533W        W32006  39.557  35.856  14.468
63534W        W32007   4.836  15.724  10.538
63535W        W32008  35.079  17.684  10.923
63536W        W32009   8.359   8.742   1.265
63537W        W32010  31.984  28.073   3.167
63538W        W32011  29.139  26.964   0.955
63539W        W32012  26.993   3.356   1.803
63540W        W32013  19.718  33.536  13.509
63541W        W32014  40.498  39.009   1.440
63542W        W32015   2.379  17.166  12.527
63543W        W32016  30.640  36.994   4.799
63544W        W32017  21.629  18.684  10.621
63545W        W32018  36.476   0.395   0.372
63546W        W32019  38.339  27.565   2.765
63547W        W32020  20.235  11.730  14.501
63548W        W32021  15.215   5.725   3.814
63549W        W32022  34.111  37.422   2.808
63550W        W32023  17.721  40.443   1.868
63551W        W32024  17.063  17.774  10.640
63552W        W32025  34.027  12.124  12.358
63553W        W32026  17.778  39.529   4.745
63554W        W32027  23.646   7.317   2.342
63555W        W32028  28.538  35.593   0.878
63556W        W32029  13.808   8.734  11.891
63557W        W32030  15.147  20.166  14.880
63558W        W32031  26.998  38.402  14.878
63559W        W32032  37.359   6.427   1.813
63560W        W32033  18.612   6.823  13.034
63561W        W32034  41.907  23.611   0.851
63562W        W32035  38.527  43.306  12.447
63563W        W32036   7.679  21.588  10.913
63564W        W32037  12.185  27.588   4.783
63565W        W32038  24.166  32.043  14.774
63566W        W32039  43.764   7.197   1.301
63567W        W32040  36.425  41.455   0.352
63568W        W32041  17.152  38.551   1.317
63569W        W32042  14.306  25.126  11.411
63570W        W32043   6.859  34.414  10.997
63571W        W32044  43.917   4.388  11.458
63572W        W32045   0.965   0.384  10.572
63573W        W32046   8.185  10.321   0.869
63574W        W32047  29.666  43.360   2.187
63575W        W32048  43.398  16.200  11.466
63576W        W32049  28.165  24.166  13.460
63577W        W32050  11.176  34.061   3.186
63578W        W32051  23.701  26.465  12.823
63579W        W32052  40.514  34.872   0.908
63580W        W32053  14.693   0.370   0.348
63581W        W32054   0.470  40.503   4.335
63582W        W32055  13.282  20.608  14.902
63583W        W32056   1.951  31.530   3.225
63584W        W32057  17.223   2.314  11.904
63585W        W32058  30.655   4.830   5.245
63586W        W32059  41.924  12.152   2.408
63587W        W32060  40.941  12.116  14.009
63588W        W32061  18.564   1.819  14.468
63589W        W32062   4.720  32.498  12.084
63590W        W32063  30.423  38.373  11.474
63591W        W32064   2.961  31.009  10.635
63592W        W32065  22.122  12.219  13.903
63593W        W32066  29.581  12.814  10.988
63594W        W32067  34.890  29.442   0.302
63595W        W32068  38.569  33.412   4.829
63596W        W32069  14.165  43.832   3.699
63597W        W32070  24.054  38.353   4.825
63598W        W32071  16.767  36.847  10.513
63599W        W32072  24.655  41.965   3.665
63600W        W32073  40.832   3.711  11.932
63601W        W32074  15.733  13.713   2.226
63602W        W32075  31.587   5.718   0.854
63603W        W32076  40.325  14.743  14.765
63604W        W32077   6.321  19.580   0.278
63605W        W32078  42.352  10.759  13.358
63606W        W32079  27.630  18.168   3.241
63607W        W32080  14.328  29.163   1.777
63608W        W32081   2.379   6.309   0.950
63609W        W32082   0.287  23.669  13.053
63610W        W32083  15.700  14.705   4.165
63611W        W32084  38.835   4.277   3.231
63612W        W32085  41.345   5.840  10.554
63613W        W32086  39.350  17.585   0.923
63614W        W32087  20.766  29.135   1.307
63615W        W32088   1.422  14.631  11.997
63616W        W32089  31.404  16.126  14.282
63617W        W32090  36.446  41.013   4.329
63618W        W32091  41.982   7.287  13.046
63619W        W32092  36.095   4.263  12.986
63620W        W32093  43.878  16.236  14.872
63621W        W32094   8.206  29.593  13.899
63622W        W32095   7.852  34.900   0.331
63623W        W32096  37.532  25.995  10.541
63624W        W32097  35.406  16.247  14.006
63625W        W32098  15.598  26.111  14.391
63626W        W32099  21.240  23.645   4.128
63627W        W32100  35.041  33.974  12.478
63628W        W32101   9.798   9.821  11.405
63629W        W32102  41.038   8.726  11.432
63630W        W32103  19.104  31.004   1.397
63631W        W32104  22.650  44.351  14.971
63632W        W32105   0.466   0.413   2.777
63633W        W32106  14.762  25.139  14.029
63634W        W32107  29.515   7.329   2.743
63635W        W32108  33.048   4.932   2.395
63636W        W32109  27.578  13.291   0.841
63637W        W32110  28.594  42.282  13.408
63638W        W32111  30.979  36.524  11.490
63639W        W32112  40.514  24.534   3.286
63640W        W32113  43.868   3.347  13.337
63641W        W32114  17.152  37.440  10.066
63642W        W32115  25.145  42.887  14.892
63643W        W32116  17.198  11.266  13.039
63644W        W32117  14.746  15.593  10.487
63645W        W32118  13.645   1.473   1.400
63646W        W32119  19.734  35.014   2.776
63647W        W32120   3.752  22.501   2.185
63648W        W32121  16.757  15.103  11.114
63649W        W32122  12.259  15.230   0.416
63650W        W32123   1.331   0.363   4.797
63651W        W32124  24.056  40.876  14.298
63652W        W32125  11.714   8.832   3.759
63653W        W32126  41.362  41.970   2.851
63654W        W32127  30.931  23.048   3.336
63655W        W32128  29.070  10.850   0.457
63656W        W32129  14.120   4.436   2.730
63657W        W32130  22.552  20.042   4.115
63658W        W32131  24.199  10.244  13.311
63659W        W32132   8.817  14.278  14.841
63660W        W32133  16.587  41.014  12.083
63661W        W32134  43.275  22.091  12.083
63662W        W32135  24.089   9.204  13.420
63663W        W32136  33.932   1.384   2.315
63664W        W32137  17.102   5.369  10.104
63665W        W32138  33.059   2.292   0.264
63666W        W32139  44.328  20.692  11.948
63667W        W32140   4.349  38.893  12.472
63668W        W32141  33.479  42.428  11.523
63669W        W32142  17.561  12.688  14.806
63670W        W32143  19.197  14.590  12.561
63671W        W32144  32.574  28.096  12.463
63672W        W32145   4.241  44.848   4.242
63673W        W32146   9.704  24.097  10.958
63674W        W32147  34.954   4.255   0.841
63675W        W32148   2.443   8.325  14.515
63676W        W32149  38.564   8.277  13.926
63677W        W32150  18.695  43.851   1.818
63678W        W32151  33.497  30.437  12.450
63679W        W32152  41.484   0.298  14.956
63680W        W32153  41.400  41.301   4.788
63681W        W32154  31.076  31.999   4.766
63682W        W32155  14.714  31.151   0.919
63683W        W32156  27.658  42.010   4.327
63684W        W32157  26.087  17.174   4.749
63685W        W32158  26.067  35.896  13.961
63686W        W32159  16.242  40.856  10.576
63687W        W32160   6.770  30.484   1.738
63688W        W32161  44.771  36.845   0.897
63689W        W32162  39.015   5.206  10.431
63690W        W32163  31.948  41.325  10.073
63691W        W32164  39.909  16.191  12.494
63692W        W32165  10.229  29.628   2.282
63693W        W32166  27.660   8.406  14.296
63694W        W32167   0.757  39.507   9.944
63695W        W32168  18.276  28.065  14.886
63696W        W32169  32.465  11.679  10.479
63697W        W32170  23.602   8.265  12.495
63698W        W32171   8.307  37.989   0.960
63699W        W32172  18.583  32.413  10.453
63700W        W32173  18.594   1.300   4.829
63701W        W32174  24.159  32.596  11.967
63702W        W32175   0.942  40.384  10.955
63703W        W32176  22.123  27.623  12.946
63704W        W32177  18.229  24.610   2.774
63705W        W32178   6.402  33.101  13.922
63706W        W32179  23.169  39.426   4.608
63707W        W32180  23.042  38.970  14.419
63708W        W32181  43.911  27.675   0.827
63709W        W32182   4.763  11.283  14.474
63710W        W32183  41.490  18.201  14.448
63711W        W32184  43.284  23.636  14.786
63712W        W32185  14.728  16.574   3.317
63713W        W32186  12.360   2.905  13.892
63714W        W32187  19.143  38.348   1.284
63715W        W32188  22.093  29.041  11.052
63716W        W32189  44.973  42.987  14.777
63717W        W32190  20.662   3.887  13.949
63718W        W32191   2.374  23.101  12.531
63719W        W32192  28.069  36.935  11.586
63720W        W32193  24.121  37.413   1.424
63721W        W32194   2.433   9.746   0.245
63722W        W32195  32.935  15.158  14.812
63723W        W32196  19.602  15.203  12.494
63724W        W32197   9.271  29.668  13.315
63725W        W32198  30.932  35.002   3.359
63726W        W32199   2.895  10.799   0.365
63727W        W32200  17.609   2.343   1.846
63728W        W32201  30.655  35.561   1.354
63729W        W32202  10.145  35.370   1.696
63730W        W32203   9.718  13.273   3.294
63731W        W32204   5.299  15.162  14.845
63732W        W32205  20.113  16.092   1.415
63733W        W32206   3.885   3.824   1.881
63734W        W32207   7.678  30.487  10.911
63735W        W32208  27.499  25.681   0.837
63736W        W32209  43.270  22.572  14.890
63737W        W32210  30.612  16.294   4.261
63738W        W32211  11.176  15.264  12.910
63739W        W32212   4.780  23.570  12.445
63740W        W32213  18.701  38.489   1.756
63741W        W32214  36.474  30.115  11.534
63742W        W32215  25.041  23.052  11.500
63743W        W32216  32.132  30.018  14.009
63744W        W32217  40.358   4.747   0.320
63745W        W32218   1.436  12.295  10.889
63746W        W32219  38.867  31.021  14.987
63747W        W32220  34.058  28.087   4.811
63748W        W32221  40.821  25.605   4.314
63749W        W32222  19.276  15.278   1.769
63750W        W32223  20.267  21.094  14.882
63751W        W32224  24.081  24.188   1.254
63752W        W32225  13.739  38.524   4.763
63753W        W32226  19.628  37.071  13.471
63754W        W32227  40.835   5.887  14.945
63755W        W32228  32.605  28.152   1.899
63756W        W32229  35.931  17.087   1.225
63757W        W32230   3.781  36.944  10.475
63758W        W32231   2.732  21.671  12.446
63759W        W32232  36.550  13.306  12.943
63760W        W32233   2.909  19.241  11.005
63761W        W32234  11.369  33.937  14.424
63762W        W32235  12.148  24.484  11.985
63763W        W32236   7.195  17.687   0.258
63764W        W32237  24.030  25.208  11.586
63765W        W32238  30.039   1.398  12.878
63766W        W32239  28.042  42.017   4.610
63767W        W32240  23.597  32.589  14.834
63768W        W32241  26.681  18.180   1.784
63769W        W32242  31.516  36.458  14.786
63770W        W32243  39.964  29.622   2.712
63771W        W32244   4.753  24.152   1.816
63772W        W32245  41.911  20.143  11.398
63773W        W32246   0.316   4.845  10.921
63774W        W32247  15.581   5.260   0.963
63775W        W32248  23.231  18.648  11.087
63776W        W32249   6.298  32.104   2.255
63777W        W32250  21.043  25.164  10.911
63778W        W32251  20.725  24.024   3.235
63779W        W32252  19.750  14.142   0.428
63780W        W32253   8.295  34.990   0.385
63781W        W32254  38.074   9.261  12.450
63782W        W32255   3.402  28.052  10.898
63783W        W32256  35.994   7.184  11.973
63784W        W32257  44.357   0.386  13.450
63785W        W32258  21.034  43.486   0.287
63786W        W32259  12.138  38.011   1.890
63787W        W32260  37.357  12.641   3.839
63788W        W32261  22.724  34.937   1.828
63789W        W32262   9.797   0.370   2.191
63790W        W32263  31.506  43.839  12.565
63791W        W32264  34.111  43.507  14.374
63792W        W32265  31.971  36.404   4.279
63793W        W32266  18.643   6.801   2.739
63794W        W32267  26.479  37.424   0.419
63795W        W32268  23.719  12.202   4.826
63796W        W32269   4.795  38.872  13.056
63797W        W32270   8.260  44.854  10.420
63798W        W32271  11.158  26.672   0.324
63799W        W32272  42.309  37.901   2.412
63800W        W32273   4.762  29.133   3.208
63801W        W32274  18.132  14.170  14.921
63802W        W32275   1.290  16.312   1.856
63803W        W32276  39.435  27.642  12.401
63804W        W32277  29.426   4.793   2.770
63805W        W32278  13.735  21.126  10.986
63806W        W32279  36.390   3.436   1.232
63807W        W32280   8.668  25.027   0.798
63808W        W32281  18.757  31.516  10.556
63809W        W32282  13.793  40.989   3.833
63810W        W32283   1.440   8.310   2.406
63811W        W32284  36.088   1.829  13.847
63812W        W32285   8.693   3.802   3.183
63813W        W32286   3.941  31.564  14.293
63814W        W32287  34.433   4.749  14.394
63815W        W32288   5.386   8.228  14.436
63816W        W32289   3.777   8.730  11.030
63817W        W32290  20.617  17.114   0.248
63818W        W32291  23.180   3.811   2.779
63819W        W32292  28.070  16.632   3.194
63820W        W32293  19.184  28.524  12.881
63821W        W32294  22.716   3.858   2.218
63822W        W32295  39.952  36.579  11.577
63823W        W32296  24.634  29.063  11.443
63824W        W32297  19.234  18.627   1.933
63825W        W32298  43.454   9.319  14.777
63826W        W32299  39.548  19.187  14.387
63827W        W32300   2.358  22.574  11.440
63828W        W32301  28.555  35.026   3.345
63829W        W32302  20.233   1.927   3.683
63830W        W32303  28.539  43.495  14.770
63831W        W32304  44.997  24.112  12.904
63832W        W32305  42.793   7.314  11.538
63833W        W32306   3.232  10.841  14.941
63834W        W32307  36.939  15.764  12.560
63835W        W32308  23.729  41.321   3.828
63836W        W32309  32.006  27.597  12.074
63837W        W32310  10.164  39.022  10.599
63838W        W32311  15.672   3.762  14.468
63839W        W32312  18.145  41.514   1.737
63840W        W32313   5.751  28.037   2.794
63841W        W32314   8.355   5.722  14.915
63842W        W32315   8.844  18.292  10.075
63843W        W32316  22.695  17.628  12.397
63844W        W32317  10.354   2.757   1.919
63845W        W32318  11.313  10.816  13.030
63846W        W32319  40.916  26.033  11.421
63847W        W32320  33.606  18.144  12.013
63848W        W32321  13.711  20.244  10.455
63849W        W32322  35.946   3.735  13.031
63850W        W32323   2.857  29.501  14.376
63851W        W32324  20.267  23.182   1.319
63852W        W32325  35.064  16.128  11.463
63853W        W32326  13.205  11.722   0.413
63854W        W32327  43.442  32.566   2.795
63855W        W32328  41.930   5.299  14.367
63856W        W32329   8.886  43.461   1.925
63857W        W32330  16.727  14.669   2.755
63858W        W32331  13.267  40.945   4.790
63859W        W32332  42.305   4.223  12.512
63860W        W32333   4.755  11.241  12.928
63861W        W32334   6.733  39.050  13.854
63862W        W32335   1.864  29.582   3.867
63863W        W32336  25.209  20.720   1.893
63864W        W32337  30.626  41.921   4.815
63865W        W32338  31.561  14.694   0.431
63866W        W32339  36.500  33.066   1.356
63867W        W32340  18.131  39.963   2.408
63868W        W32341  14.208  38.871   0.941
63869W        W32342  21.666  38.357  11.886
63870W        W32343  43.796  31.007   2.353
63871W        W32344  37.963  26.122   2.727
63872W        W32345   6.309  11.793  11.961
63873W        W32346  33.545  40.472  12.382
63874W        W32347  37.845  30.427   5.134
63875W        W32348   9.379   7.413   2.240
63876W        W32349  39.815   7.741  14.341
63877W        W32350  18.208  34.927   0.279
63878W        W32351   5.228   3.886   2.681
63879W        W32352  40.806   5.261   1.252
63880W        W32353  38.830  10.212   2.748
63881W        W32354  12.318  44.351   2.878
63882W        W32355  13.214  11.859  14.412
63883W        W32356  26.533  25.642   2.273
63884W        W32357  32.963  19.052   1.279
63885W        W32358  27.993  40.861  12.966
63886W        W32359  35.005  21.021   5.167
63887W        W32360  18.661  35.949   2.347
63888W        W32361  36.502  38.828   3.164
63889W        W32362   4.244  25.120  13.895
63890W        W32363  29.606  28.567  10.960
63891W        W32364  35.063   2.446   3.773
63892W        W32365  26.532  31.633  13.856
63893W        W32366  29.595  35.001  10.112
63894W        W32367  39.044  20.693  11.082
63895W        W32368  44.988  41.358   0.259
63896W        W32369  33.928   5.260  11.037
63897W        W32370   0.869  24.602  14.442
63898W        W32371  13.760  20.036  10.992
63899W        W32372  41.431  22.235  14.950
63900W        W32373   9.720   1.822   2.716
63901W        W32374   9.227  29.541  10.999
63902W        W32375  21.040  40.417  11.109
63903W        W32376  26.589  12.318   1.915
63904W        W32377  20.717  14.284   2.895
63905W        W32378  18.630  16.281  14.363
63906W        W32379   7.267  18.617  12.365
63907W        W32380  11.828  10.738   4.225
63908W        W32381  32.136  17.126  14.464
63909W        W32382   7.336  23.200  12.891
63910W        W32383  26.683  27.948  10.991
63911W        W32384   4.766   7.262   3.673
63912W        W32385   4.286  31.011  11.864
63913W        W32386  19.175  15.184  11.518
63914W        W32387  27.179  32.450  14.998
63915W        W32388  16.644  20.622   3.230
63916W        W32389   2.295  27.167   4.196
63917W        W32390  37.999  17.691  11.380
63918W        W32391  21.121  18.668  13.045
63919W        W32392  38.935  32.048   9.930
63920W        W32393  40.808  25.475  10.480
63921W        W32394   1.815   9.305  12.479
63922W        W32395  26.173  23.647  14.428
63923W        W32396   0.311  36.579  10.906
63924W        W32397   5.361  10.141   2.307
63925W        W32398   2.730  26.625  11.961
63926W        W32399  15.687   4.307  14.032
63927W        W32400  34.537  31.560  14.488
63928W        W32401  19.625  17.108  14.345
63929W        W32402   1.883  40.023  14.504
63930W        W32403  25.132  11.701  11.905
63931W        W32404   5.807  29.526   2.202
63932W        W32405  42.994  39.480  13.862
63933W        W32406  40.912   4.741  14.847
63934W        W32407  22.152  19.174  14.800
63935W        W32408  28.653  31.432   4.165
63936W        W32409  13.621  42.784   3.192
63937W        W32410  37.978  24.029  14.906
63938W        W32411  10.364  10.329  11.009
63939W        W32412   1.939  39.330  10.997
63940W        W32413  26.557  13.256  13.799
63941W        W32414   3.892  33.546   0.731
63942W        W32415   0.406  38.503   2.795
63943W        W32416  24.009  25.527  12.021
63944W        W32417  30.007   9.843   4.211
63945W        W32418   7.278  24.628   0.936
63946W        W32419  12.720  29.521  13.872
63947W        W32420  31.044   3.935  11.911
63948W        W32421   8.895  15.328   3.816
63949W        W32422  10.244  14.095  14.324
63950W        W32423  35.104  30.537  14.513
63951W        W32424  31.113  28.082  12.887
63952W        W32425  29.079   4.923   3.823
63953W        W32426  34.563  30.467   3.738
63954W        W32427   1.809  24.134  11.989
63955W        W32428  38.934  41.928  14.937
63956W        W32429  33.440  38.550  13.528
63957W        W32430  26.955   1.758   3.730
63958W        W32431  25.509   7.230  13.406
63959W        W32432  28.671  10.157   1.700
63960W        W32433   2.806  22.536   2.204
63961W        W32434  39.511  10.781   4.799
63962W        W32435  27.194  10.634  11.027
63963W        W32436  39.885  14.127  14.345
63964W        W32437  19.052  28.458   1.787
63965W        W32438  43.369  31.112  11.592
63966W        W32439  37.959  22.627   2.847
63967W        W32440  20.254  15.286   3.814
63968W        W32441   9.202  20.131   4.185
63969W        W32442  14.150  24.567   3.631
63970W        W32443  18.551   2.865   3.852
63971W        W32444  26.510   8.361   0.285
63972W        W32445  30.459  10.865   0.807
63973W        W32446  24.579  22.653  13.906
63974W        W32447  40.545  26.493  12.385
63975W        W32448  10.825  37.834   3.199
63976W        W32449   5.784  14.606   0.450
63977W        W32450  41.506  18.226   3.330
63978W        W32451  11.344  12.180   3.358
63979W        W32452   5.421  21.218  14.495
63980W        W32453   4.701  44.813  13.907
63981W        W32454   2.933  44.814  13.444
63982W        W32455  18.581  11.790  14.901
63983W        W32456  43.322   7.287   2.691
63984W        W32457  23.174  33.979  12.025
63985W        W32458  12.685  38.325  14.895
63986W        W32459   9.209  38.464  13.883
63987W        W32460  24.613  22.507  10.610
63988W        W32461  29.159  19.592  10.450
63989W        W32462  19.047   2.283  14.480
63990W        W32463  37.035  42.455  12.089
63991W        W32464  39.492  41.998  14.503
63992W        W32465  33.995  20.076   3.283
63993W        W32466   2.316   5.349   1.429
63994W        W32467   4.862   3.924  13.383
63995W        W32468  40.037  44.429   1.438
63996W        W32469  34.942  26.186  12.054
63997W        W32470  17.565  11.298  13.052
63998W        W32471  25.063   7.731   4.177
63999W        W32472  16.143  26.586   3.197
64000W        W32473  22.999  11.677  12.360
64001W        W32474  44.478  26.573   0.834
64002W        W32475  32.623  28.463  12.956
64003W        W32476  31.624  27.048  14.820
64004W        W32477  44.337  38.943  11.564
64005W        W32478  15.105   8.892   4.663
64006W        W32479  12.741  44.325  13.837
64007W        W32480   4.401  26.093  13.023
64008W        W32481   4.256  34.035   0.783
64009W        W32482  29.520  15.284   3.656
64010W        W32483  30.460  16.100  10.604
64011W        W32484  33.104  42.370  14.344
64012W        W32485  15.718  28.555  12.969
64013W        W32486  36.568  16.295  10.479
64014W        W32487   2.931  40.838   4.754
64015W        W32488  15.155  37.914  14.812
64016W        W32489  28.113  25.700  12.364
64017W        W32490  33.410  33.999   1.820
64018W        W32491  23.490  43.493  11.971
64019W        W32492  12.123  29.612   4.832
64020W        W32493   4.400  41.300  10.999
64021W        W32494   0.445  38.954  11.554
64022W        W32495  44.378  29.424  14.822
64023W        W32496  44.806  41.786   0.262
64024W        W32497  36.572   1.243   3.250
64025W        W32498  22.658  35.450   0.938
64026W        W32499  16.803   0.289  14.480
64027W        W32500  37.928  34.379   2.798
64028W        W32501   6.363   0.274   4.750
64029W        W32502  12.610  25.974   0.334
64030W        W32503   0.910  34.997  11.965
64031W        W32504  36.512  36.549  13.032
64032W        W32505  42.784  44.853   0.444
64033W        W32506  37.363   0.852   0.322
64034W        W32507  23.684  35.967   0.275
64035W        W32508  10.259  44.342   3.337
64036W        W32509  11.187  24.673  13.515
64037W        W32510  18.089  33.451   0.369
64038W        W32511  12.697  15.608   0.262
64039W        W32512  15.292  26.540  11.907
64040W        W32513  35.099   7.698  11.030
64041W        W32514  20.036   7.258   1.764
64042W        W32515  37.072   0.410  13.462
64043W        W32516  43.769  26.182  13.903
64044W        W32517  23.001  41.372   4.674
64045W        W32518  11.764  42.412  12.999
64046W        W32519   6.694  15.613   2.378
64047W        W32520  34.950  19.039  12.540
64048W        W32521  17.661  34.516  10.945
64049W        W32522  20.243   3.803   4.302
64050W        W32523   2.271  38.461  13.430
64051W        W32524   6.692  21.065  11.032
64052W        W32525  44.969  30.152   0.338
64053W        W32526  36.068  13.249   5.171
64054W        W32527  20.245  30.495   1.724
64055W        W32528  18.215   2.227  13.376
64056W        W32529  38.465  29.106  10.492
64057W        W32530  41.469  12.275  13.924
64058W        W32531   2.848  33.597   4.620
64059W        W32532   0.790  40.946   3.853
64060W        W32533  24.203  40.412  10.551
64061W        W32534  11.287  11.865  12.922
64062W        W32535  35.094  40.388  11.014
64063W        W32536  21.540  11.660   0.891
64064W        W32537  32.500  38.556  10.928
64065W        W32538  33.974  37.525  14.501
64066W        W32539  24.066  37.367  10.979
64067W        W32540  34.049   6.695  10.569
64068W        W32541  13.617   4.437   2.797
64069W        W32542  31.523   5.734   0.265
64070W        W32543  27.567  26.100  13.854
64071W        W32544  15.823  38.525   2.327
64072W        W32545  18.130  39.555   0.752
64073W        W32546  25.979   8.761  10.576
64074W        W32547   6.385   3.931  13.021
64075W        W32548  42.474  18.652  10.487
64076W        W32549  34.970  16.269   0.740
64077W        W32550  38.363   5.862  14.773
64078W        W32551   5.315  33.922  11.089
64079W        W32552  44.889   2.330  14.514
64080W        W32553  36.068   1.785  14.466
64081W        W32554  10.274  30.920  14.810
64082W        W32555  24.215   4.236  12.880
64083W        W32556  44.833  17.290   2.237
64084W        W32557  16.225  33.422  10.408
64085W        W32558  22.648  23.018  11.043
64086W        W32559   6.906  24.159  12.937
64087W        W32560   8.192  16.803   4.198
64088W        W32561  29.668  38.833   1.413
64089W        W32562  41.792  38.956  11.408
64090W        W32563  17.631   9.736  13.418
64091W        W32564  41.380  22.549   2.297
64092W        W32565  27.187   8.241   0.270
64093W        W32566  12.138  13.644   4.756
64094W        W32567  22.690  33.602   0.372
64095W        W32568  40.958   7.801   2.338
64096W        W32569  29.580  25.485  12.361
64097W        W32570  42.385  32.497  14.481
64098W        W32571  16.638   0.958   1.348
64099W        W32572  38.943  24.519   2.832
64100W        W32573  36.863   4.872   1.262
64101W        W32574  40.862  12.296   3.754
64102W        W32575  39.825  18.124  10.942
64103W        W32576  26.990   2.332   1.278
64104W        W32577  37.529  37.464   5.100
64105W        W32578  41.381  23.675  10.496
64106W        W32579  32.585   0.826   1.437
64107W        W32580  44.301  34.449  11.090
64108W        W32581  20.713  21.646  13.965
64109W        W32582  38.889  22.202   2.186
64110W        W32583  13.181   9.743   1.821
64111W        W32584  13.840  13.770  14.786
64112W        W32585  24.113  36.506   4.231
64113W        W32586  38.982  34.418   3.167
64114W        W32587  31.458  26.049   4.134
64115W        W32588  38.887  12.242  10.431
64116W        W32589  43.808  27.597  13.382
64117W        W32590  15.225   7.305  12.886
64118W        W32591  10.306  40.945   1.357
64119W        W32592  19.088  24.569   0.478
64120W        W32593  42.805  29.608   3.259
64121W        W32594  28.543  22.037   1.813
64122W        W32595  22.653   9.241  14.856
64123W        W32596   4.803  19.046  13.404
64124W        W32597  22.723  25.015  12.987
64125W        W32598  25.541   0.846   4.676
64126W        W32599  25.096  31.573   2.286
64127W        W32600  38.853  23.507  14.763
64128W        W32601  11.144  14.174   3.865
64129W        W32602  44.761  34.433   2.888
64130W        W32603  27.637  35.108  12.840
64131W        W32604  42.291  12.334   4.303
64132W        W32605  44.995  27.508  11.531
64133W        W32606   7.174  35.968   2.218
64134W        W32607   4.789  12.645  11.469
64135W        W32608  18.657  37.567   3.840
64136W        W32609  29.074   9.152   2.702
64137W        W32610  25.657  17.732  11.010
64138W        W32611   0.798   0.294  14.019
64139W        W32612  12.232  22.686  11.982
64140W        W32613  30.995  30.949   3.223
64141W        W32614  17.605   2.886  12.340
64142W        W32615  41.863   5.775   4.183
64143W        W32616   0.465   1.966  10.573
64144W        W32617  13.797  42.470   1.402
64145W        W32618  44.413  41.408  11.988
64146W        W32619   5.714  18.232   2.309
64147W        W32620  39.542  13.660  10.920
64148W        W32621  16.218  43.957   4.805
64149W        W32622   4.240  26.464  12.450
64150W        W32623  17.231  31.438   0.425
64151W        W32624  35.040  18.780   1.717
64152W        W32625  20.212  29.519  11.462
64153W        W32626  36.907   5.323   0.482
64154W        W32627  39.507  44.903  11.915
64155W        W32628   5.381  25.479   4.229
64156W        W32629  21.552  36.069   1.347
64157W        W32630   8.295   9.253  10.506
64158W        W32631   4.227  37.487   4.251
64159W        W32632  10.282   6.870  12.952
64160W        W32633  33.557   7.302   4.238
64161W        W32634   9.199  10.722   3.650
64162W        W32635  35.387  11.160   3.288
64163W        W32636   9.727   9.671  12.529
64164W        W32637  18.064  43.354   1.774
64165W        W32638  30.042  31.035   1.717
64166W        W32639  41.797  17.198  12.384
64167W        W32640  15.147  41.037  12.917
64168W        W32641  39.370   0.402   3.714
64169W        W32642  41.441   4.845   4.831
64170W        W32643  38.904  42.413  14.847
64171W        W32644   0.266  17.235  12.363
64172W        W32645  15.279  26.516   0.935
64173W        W32646  17.170  33.911   4.194
64174W        W32647  27.448  39.012  13.544
64175W        W32648  30.521   7.346  13.458
64176W        W32649   9.718  17.302  12.550
64177W        W32650  12.164  24.187  14.006
64178W        W32651  29.123  33.128  13.951
64179W        W32652   2.880  37.534  11.074
64180W        W32653  18.236  16.237  11.509
64181W        W32654  13.601  13.231  10.605
64182W        W32655   7.668  22.635   2.760
64183W        W32656  43.439  18.270   2.758
64184W        W32657  31.128  24.049  11.128
64185W        W32658  14.795  30.436  14.416
64186W        W32659   2.869   6.202  13.061
64187W        W32660   2.895   0.854  11.934
64188W        W32661  32.430   9.879   0.745
64189W        W32662  17.745  42.837  13.479
64190W        W32663  30.583   0.418  14.022
64191W        W32664   6.369  28.437  13.467
64192W        W32665  18.053  11.148  13.859
64193W        W32666  37.372  19.183   1.246
64194W        W32667  40.507  21.085   3.762
64195W        W32668  12.199   8.319  12.007
64196W        W32669   6.316  26.676   1.307
64197W        W32670  16.182  20.688  11.060
64198W        W32671  33.398  23.608   2.214
64199W        W32672  22.563  36.088   4.260
64200W        W32673   9.647  26.605  11.548
64201W        W32674  38.561   8.356   2.869
64202W        W32675  28.980  36.482  10.478
64203W        W32676  19.163  36.433   4.812
64204W        W32677  20.058   0.822   4.615
64205W        W32678  43.834  17.076  12.410
64206W        W32679  33.940   9.367  13.000
64207W        W32680   7.262  24.673   3.790
64208W        W32681  15.628  31.983   0.908
64209W        W32682  28.529  34.370  10.974
64210W        W32683  28.508  23.194   3.781
64211W        W32684   7.378  25.574   0.404
64212W        W32685  29.976   9.153  13.024
64213W        W32686  41.898  28.095  10.637
64214W        W32687  42.780  34.870   0.432
64215W        W32688  17.082  33.592  12.959
64216W        W32689  24.139   7.829   2.738
64217W        W32690  31.120   8.819  10.903
64218W        W32691  24.193   0.751   0.260
64219W        W32692   1.297  30.606  10.977
64220W        W32693   7.711   5.850  14.759
64221W        W32694  11.818  31.127  12.360
64222W        W32695  31.915  25.082   1.819
64223W        W32696  28.653  14.650   0.759
64224W        W32697  21.036  31.934   2.190
64225W        W32698   3.232   2.259   0.859
64226W        W32699  25.500  14.102  14.924
64227W        W32700  23.579  28.502  12.566
64228W        W32701  13.656  26.650  12.568
64229W        W32702  23.688   4.858   3.695
64230W        W32703  15.691  29.546  10.626
64231W        W32704   2.936  12.168  13.995
64232W        W32705  29.556   9.251   2.240
64233W        W32706  28.640   7.211   4.228
64234W        W32707  27.058  32.582   0.415
64235W        W32708  14.631  39.914   1.220
64236W        W32709  21.181   7.301  14.762
64237W        W32710  31.036  12.163  13.968
64238W        W32711  30.118  40.050   2.271
64239W        W32712  14.670   5.843   3.256
64240W        W32713  19.223   1.823  10.622
64241W        W32714   2.337   4.768   4.131
64242W        W32715  43.805  41.974  10.602
64243W        W32716  13.631  34.469   4.606
64244W        W32717   9.806  26.590   4.614
64245W        W32718  16.736   7.699  12.933
64246W        W32719  17.596  11.800  13.001
64247W        W32720  42.359  23.088   3.671
64248W        W32721  15.812  38.531   4.230
64249W        W32722  15.747  19.229  11.555
64250W        W32723  39.485  21.159   2.723
64251W        W32724   8.886  32.608  12.389
64252W        W32725  28.929  15.099  14.881
64253W        W32726  37.037  10.808   1.373
64254W        W32727   7.235  33.486  13.410
64255W        W32728  16.687  14.615   2.394
64256W        W32729  25.558  37.499   0.774
64257W        W32730  30.079  12.641  10.526
64258W        W32731  13.628  37.869   1.262
64259W        W32732  24.551   5.931   2.687
64260W        W32733  31.479   4.247  13.935
64261W        W32734  11.657  44.486   1.354
64262W        W32735  22.546   2.395  14.486
64263W        W32736  37.390  33.620   4.188
64264W        W32737  44.871  14.119  12.059
64265W        W32738  21.523  26.620  11.477
64266W        W32739  44.398   9.162  10.528
64267W        W32740  20.578  23.058  11.391
64268W        W32741  39.392   6.231   2.244
64269W        W32742  22.069   9.645  14.776
64270W        W32743   8.676   5.317  12.030
64271W        W32744  15.088  29.988  11.403
64272W        W32745   3.825  11.690  14.296
64273W        W32746  17.154  17.123  11.374
64274W        W32747  32.926  30.567   2.850
64275W        W32748  25.656   4.941   3.757
64276W        W32749  35.013  30.425   0.463
64277W        W32750  23.129  29.434  14.863
64278W        W32751  31.596  44.349   5.250
64279W        W32752   5.268   2.356  12.479
64280W        W32753   0.836  18.234   3.297
64281W        W32754   9.207  18.279  14.884
64282W        W32755  37.069  36.931  10.565
64283W        W32756  18.625  19.565  12.899
64284W        W32757  38.427  33.932  13.547
64285W        W32758   0.396  33.003   2.334
64286W        W32759   9.237  22.672   5.155
64287W        W32760   0.352   5.269   4.197
64288W        W32761  30.635   8.214  14.391
64289W        W32762  43.339  20.116  10.936
64290W        W32763  16.286  43.431   2.289
64291W        W32764  42.359  36.019   4.672
64292W        W32765  39.546  38.977   1.912
64293W        W32766  15.143  37.405   3.638
64294W        W32767  33.901  22.735  13.899
64295W        W32768  38.372  39.395   0.394
64296W        W32769  20.533   9.320   3.675
64297W        W32770  31.068  34.472   2.889
64298W        W32771   5.804  27.446   0.310
64299W        W32772   5.211   6.691  12.403
64300W        W32773  28.045  30.002  13.363
64301W        W32774   8.231  41.971  13.334
64302W        W32775   5.893  18.182   3.712
64303W        W32776  37.554  28.638   1.375
64304W        W32777  40.407  24.039  13.053
64305W        W32778   2.342  42.819   2.332
64306W        W32779  12.291  12.685   4.830
64307W        W32780  40.378   3.838   2.268
64308W        W32781  28.678   6.745   0.774
64309W        W32782  28.041  24.066  14.482
64310W        W32783  29.097   2.794   3.697
64311W        W32784  33.492  27.512   4.630
64312W        W32785  24.674  32.997  14.842
64313W        W32786  13.764  16.090   1.780
64314W        W32787  27.643  31.587   0.338
64315W        W32788  21.177  35.061  11.934
64316W        W32789  25.492  37.047   4.249
64317W        W32790  27.177  37.498  10.959
64318W        W32791  39.923  24.501   2.884
64319W        W32792   9.381  17.304  11.068
64320W        W32793  34.549  24.213   4.172
64321W        W32794   8.876  22.196   1.714
64322W        W32795  36.930  33.977   4.168
64323W        W32796  29.996   6.915  12.438
64324W        W32797   2.934  26.557   0.338
64325W        W32798  20.192  26.143   2.204
64326W        W32799  19.193  10.858   2.748
64327W        W32800  12.201   0.336   3.853
64328W        W32801  39.441  41.338   0.964
64329W        W32802  39.928  24.707   3.688
64330W        W32803  26.499   9.323  12.347
64331W        W32804  39.507  22.704   2.681
64332W        W32805   8.778  28.441  11.543
64333W        W32806  16.654   7.830   3.279
64334W        W32807  19.211  13.631   2.854
64335W        W32808  44.264  41.481   2.410
64336W        W32809  38.012  44.489  10.477
64337W        W32810   6.707  12.767   2.372
64338W        W32811   9.255  38.009  14.952
64339W        W32812  19.740  31.422  12.420
64340W        W32813   0.458  32.399  11.383
64341W        W32814  20.116  44.428  14.968
64342W        W32815   2.830  43.391  13.386
64343W        W32816  41.820  15.742  11.012
64344W        W32817  20.671   9.697  11.927
64345W        W32818   1.416  13.174   1.806
64346W        W32819  27.596  33.457  13.843
64347W        W32820  12.169  36.866  13.999
64348W        W32821  10.723  13.315  14.800
64349W        W32822  41.844   2.744  12.064
64350W        W32823   1.967  33.518  11.455
64351W        W32824  42.479  43.505  12.835
64352W        W32825  28.024  24.698  10.461
64353W        W32826  33.459  18.622   3.254
64354W        W32827  15.671  30.415  10.099
64355W        W32828  23.606  26.112  11.968
64356W        W32829   1.451  41.945  13.886
64357W        W32830   9.182  30.133  13.930
64358W        W32831  39.007  24.556  10.497
64359W        W32832  12.854   0.341   4.807
64360W        W32833  38.874  43.474  14.005
64361W        W32834  33.977   7.379  14.352
64362W        W32835  32.922  14.712   3.732
64363W        W32836  31.573   3.738  14.406
64364W        W32837  14.324   3.835   3.217
64365W        W32838  40.958   7.808   3.849
64366W        W32839  41.529  21.118  13.814
64367W        W32840   0.971  31.993  12.015
64368W        W32841  10.776   7.270   3.717
64369W        W32842  10.382  38.466   1.706
64370W        W32843  14.588  33.959   1.351
64371W        W32844  18.283   2.420   1.897
64372W        W32845   4.900  27.575  12.064
64373W        W32846   5.720  17.642   2.697
64374W        W32847  12.835  11.622  12.505
64375W        W32848   7.397   6.316   4.233
64376W        W32849  42.455  38.940   0.397
64377W        W32850   8.867  11.666   5.219
64378W        W32851  32.885  25.106  10.526
64379W        W32852  40.964   2.961  12.374
64380W        W32853   4.837  23.721  11.571
64381W        W32854  13.334  30.555  11.399
64382W        W32855  11.640  22.147  10.520
64383W        W32856  36.370  32.050   4.166
64384W        W32857  43.304  28.469   2.290
64385W        W32858  28.446  42.859   0.256
64386W        W32859  27.124  15.172   1.729
64387W        W32860  39.830   8.232   0.304
64388W        W32861  23.185  29.585   0.858
64389W        W32862  24.011  10.153  12.949
64390W        W32863   8.347   6.896   0.822
64391W        W32864  10.716  37.381   3.650
64392W        W32865  17.067  25.034   2.313
64393W        W32866  32.490  32.099   2.844
64394W        W32867   4.252  14.640  14.296
64395W        W32868   9.325  26.527  11.527
64396W        W32869  31.592  18.185   2.858
64397W        W32870  39.491  23.719   4.159
64398W        W32871  20.547  11.144   2.859
64399W        W32872  37.390   5.705  11.558
64400W        W32873  14.164  35.510  13.408
64401W        W32874   0.812  20.538  13.428
64402W        W32875  29.070  37.580   4.772
64403W        W32876  10.163  11.162   2.256
64404W        W32877  18.745  23.016   0.930
64405W        W32878  30.655   2.788   4.279
64406W        W32879   7.273   2.450   3.208
64407W        W32880  41.971   9.793   0.879
64408W        W32881  29.566  10.769  12.926
64409W        W32882   8.831  13.625  13.369
64410W        W32883  30.924  19.267  13.035
64411W        W32884  43.466  38.910  11.378
64412W        W32885  42.794  35.441  14.310
64413W        W32886   4.291  35.986  12.988
64414W        W32887  13.692  33.553  14.007
64415W        W32888  26.503  17.232   4.741
64416W        W32889   8.828  22.690   0.250
64417W        W32890   1.803  43.513   0.348
64418W        W32891   6.854  12.191   2.222
64419W        W32892  30.073   1.444   0.936
64420W        W32893   5.726   5.811   4.726
64421W        W32894  38.869  21.125  12.085
64422W        W32895   2.831  43.801   2.897
64423W        W32896  16.642  28.968   0.773
64424W        W32897  19.211   1.365   2.833
64425W        W32898  43.333   7.216  10.025
64426W        W32899  44.011  36.385  14.434
64427W        W32900  32.412  25.101   9.965
64428W        W32901   2.442  32.046  11.040
64429W        W32902  31.103  44.908  14.335
64430W        W32903  15.226  44.406   1.296
64431W        W32904  29.447   9.252   4.825
64432W        W32905  22.721   1.439   2.667
64433W        W32906  20.628  35.891  12.394
64434W        W32907  25.093   3.259   0.431
64435W        W32908  16.624  38.511  13.385
64436W        W32909  26.962  41.995  12.487
64437W        W32910  26.688   5.341   0.783
64438W        W32911  31.455   3.330  11.492
64439W        W32912  34.065  34.111   0.411
64440W        W32913  20.763  21.564   3.642
64441W        W32914  27.049   6.851   0.364
64442W        W32915  17.161  40.918   0.940
64443W        W32916   9.755  36.048   3.753
64444W        W32917  21.744  17.671  10.619
64445W        W32918  15.229  14.211  13.414
64446W        W32919   4.265  12.313   2.233
64447W        W32920  26.078   1.265  13.357
64448W        W32921  30.054  13.310   3.779
64449W        W32922  30.562  40.315  10.599
64450W        W32923  15.744  16.144  12.429
64451W        W32924  31.001  13.283  10.643
64452W        W32925   4.926  19.149   0.960
64453W        W32926   0.975  43.285  14.771
64454W        W32927   0.467  21.529   1.223
64455W        W32928  19.692  25.655  14.997
64456W        W32929  18.179  16.720   3.634
64457W        W32930  18.252   6.231   3.324
64458W        W32931  27.975  22.626   4.159
64459W        W32932  34.413  29.573  12.548
64460W        W32933   9.749  19.257  14.000
64461W        W32934  30.634  23.539  10.964
64462W        W32935  43.982  32.050  14.406
64463W        W32936  19.694  39.452  14.863
64464W        W32937  32.079   7.753   3.820
64465W        W32938  17.291  32.019  13.404
64466W        W32939  11.184   6.688   1.694
64467W        W32940  20.031   1.379  12.014
64468W        W32941  35.359   3.823  13.457
64469W        W32942   6.823   8.655   2.744
64470W        W32943   2.436  38.075   0.425
64471W        W32944  17.182  37.578   0.908
64472W        W32945  25.111  29.546   5.230
64473W        W32946  34.900  14.198  10.540
64474W        W32947   7.821  26.014  11.912
64475W        W32948   4.392  13.826  14.454
64476W        W32949   5.759  41.491  14.351
64477W        W32950  39.489  22.695  10.944
64478W        W32951  40.810  15.243  12.064
64479W        W32952  41.361  24.655   3.352
64480W        W32953  37.418  25.090   3.156
64481W        W32954  17.087   2.355   3.737
64482W        W32955  18.758   2.457   5.169
64483W        W32956  10.664  27.005  12.016
64484W        W32957   0.746  21.119  11.446
64485W        W32958  21.746  10.693   3.801
64486W        W32959  17.783  21.597  12.884
64487W        W32960  16.205  42.916  14.907
64488W        W32961   5.845  22.084  13.383
64489W        W32962  44.946  42.389  11.564
64490W        W32963  42.291  38.439   2.853
64491W        W32964  12.354  43.436  10.997
64492W        W32965  33.006  11.655   0.865
64493W        W32966  19.549  11.167   0.963
64494W        W32967  27.559  28.470  14.426
64495W        W32968  10.856   1.792   1.413
64496W        W32969  41.502  37.834  12.558
64497W        W32970  21.214  19.245   3.676
64498W        W32971  13.177  16.755   1.382
64499W        W32972   9.652  39.444  10.585
64500W        W32973  40.479  39.523   1.846
64501W        W32974  19.083   0.796   3.680
64502W        W32975  23.729  33.018   1.284
64503W        W32976  15.628  41.914  13.345
64504W        W32977  10.379  44.856   1.435
64505W        W32978  29.992  29.663   0.293
64506W        W32979  43.877  17.120  12.979
64507W        W32980  35.933   5.258   0.819
64508W        W32981  39.316  42.784   4.705
64509W        W32982  40.048   7.214   0.944
64510W        W32983  37.909  28.513   0.852
64511W        W32984  31.035  20.071  12.073
64512W        W32985  17.228  27.009   4.133
64513W        W32986   8.730  23.185  11.900
64514W        W32987   3.326  38.991   1.334
64515W        W32988   9.686  20.079   0.399
64516W        W32989  10.282  15.811   4.354
64517W        W32990  22.245  26.701  11.954
64518W        W32991  19.558  10.742  10.461
64519W        W32992   4.737  42.942   0.465
64520W        W32993  32.472  32.473   3.235
64521W        W32994   3.315  27.587   4.301
64522W        W32995  22.733  43.905   3.334
64523W        W32996  26.173  33.599   2.309
64524W        W32997  25.142  31.125  14.364
64525W        W32998   7.171  32.141  10.597
64526W        W32999  12.710  37.004   0.442
64527W        W33000   6.252  12.142   4.782
64528W        W33001   2.383  44.298   2.809
64529W        W33002  22.595  12.268   1.815
64530W        W33003   5.798   0.847  12.431
64531W        W33004  21.076  20.168   2.789
64532W        W33005  11.762   0.826  13.987
64533W        W33006  35.972   9.819   1.707
64534W        W33007  11.335  34.933   3.278
64535W        W33008   9.228  20.137   4.779
64536W        W33009  44.328  31.640   3.851
64537W        W33010  10.776  25.516  12.897
64538W        W33011  35.380  32.530  10.904
64539W        W33012  35.438  23.025   4.165
64540W        W33013  10.761  26.613  10.970
64541W        W33014  26.044  13.247  12.388
64542W        W33015   8.710  40.898  13.029
64543W        W33016  20.681  29.124  12.536
64544W        W33017  33.091  12.756  12.529
64545W        W33018  16.225  18.602   3.320
64546W        W33019  16.749  33.484   2.187
64547W        W33020   7.783  11.748  14.490
64548W        W33021   6.683  35.447   1.897
64549W        W33022  31.116  31.022  12.021
64550W        W33023  23.561  20.706  14.277
64551W        W33024  42.344  30.919  14.867
64552W        W33025  27.519  32.580  14.982
64553W        W33026  37.416   4.723  14.841
64554W        W33027  22.733  11.814  10.507
64555W        W33028  28.442   6.225  13.022
64556W        W33029  27.633  31.111  14.953
64557W        W33030   4.915   5.353  10.976
64558W        W33031  29.560  32.515   4.256
64559W        W33032   0.865   7.361  14.918
64560W        W33033   3.447  21.075   4.283
64561W        W33034   5.857  10.366  12.917
64562W        W33035  39.360  16.311   1.355
64563W        W33036  33.030  17.274  10.896
64564W        W33037  37.395  22.099  12.960
64565W        W33038  13.719  11.862  14.485
64566W        W33039  33.586  35.043  13.984
64567W        W33040   2.889  10.194  11.041
64568W        W33041  16.682  39.481   0.402
64569W        W33042  33.432  22.518  12.533
64570W        W33043  22.526  14.190  12.040
64571W        W33044  39.920  34.031   4.217
64572W        W33045   0.912   2.407   4.148
64573W        W33046  40.857  27.454  14.368
64574W        W33047  44.382  39.941  14.280
64575W        W33048  38.834  26.510  14.312
64576W        W33049   3.380  29.570  14.302
64577W        W33050  12.638  43.327  11.125
64578W        W33051   3.856  11.711   0.317
64579W        W33052  20.762   4.223   4.695
64580W        W33053  15.786  31.102   5.224
64581W        W33054  25.069  43.405  12.065
64582W        W33055  30.534   3.358   1.327
64583W        W33056  26.959   6.329  10.020
64584W        W33057  40.999  20.252   3.660
64585W        W33058  18.073  35.423  14.761
64586W        W33059  29.108   5.863  13.022
64587W        W33060  32.603  39.370   3.744
64588W        W33061   1.870  36.571   2.792
64589W        W33062   1.960   5.380   4.178
64590W        W33063  32.982  43.329   1.839
64591W        W33064  37.021  26.114   0.248
64592W        W33065  34.005  27.027   0.333
64593W        W33066  10.353  44.347   5.253
64594W        W33067   6.882  25.549  12.469
64595W        W33068  31.930   1.453  10.487
64596W        W33069  40.975  17.262   0.824
64597W        W33070   4.927   1.463  12.893
64598W        W33071  24.646  34.615   2.788
64599W        W33072  36.377   4.868   4.755
64600W        W33073  18.065  18.681  12.845
64601W        W33074  22.239  15.669   1.850
64602W        W33075  28.456  42.420  11.517
64603W        W33076  41.957  11.815  14.436
64604W        W33077  35.921  43.776   1.414
64605W        W33078   0.826  40.481   3.667
64606W        W33079   2.812  21.513   0.832
64607W        W33080  35.923  21.032   1.801
64608W        W33081  41.790  41.967  11.465
64609W        W33082  14.709  34.375  14.777
64610W        W33083  30.652   4.760  13.453
64611W        W33084   0.370  33.564  13.805
64612W        W33085  17.148   8.266  12.532
64613W        W33086   0.807  38.442  14.962
64614W        W33087  36.973  11.171  11.952
64615W        W33088   7.407  44.296   3.317
64616W        W33089  34.610  27.947  10.986
64617W        W33090  38.842  38.536  13.814
64618W        W33091  17.780  14.271   3.369
64619W        W33092  20.259  17.150   0.813
64620W        W33093  29.614   8.271   1.331
64621W        W33094   7.373  11.755   4.709
64622W        W33095  11.781  19.639  14.297
64623W        W33096   9.826  33.893  11.934
64624W        W33097  26.577  25.045   3.376
64625W        W33098  12.771  38.996  10.573
64626W        W33099  42.890  11.148  13.319
64627W        W33100  15.622  40.939  14.808
64628W        W33101  14.134  28.561  11.128
64629W        W33102   9.154  32.896   0.828
64630W        W33103  42.780  23.492   2.814
64631W        W33104  22.667  42.845   3.724
64632W        W33105  13.351  11.711  14.926
64633W        W33106  15.109  25.598   4.253
64634W        W33107   0.359  27.071   0.745
64635W        W33108  24.996  39.011  10.969
64636W        W33109   6.188  10.149  13.876
64637W        W33110   2.235  14.803   1.421
64638W        W33111  26.652  15.777   4.243
64639W        W33112  34.533  35.531   4.156
64640W        W33113  28.998  37.047   3.180
64641W        W33114  40.814   4.316  11.458
64642W        W33115  37.399  30.986  14.903
64643W        W33116  34.569  37.976  14.025
64644W        W33117  43.892   2.309  12.006
64645W        W33118  22.233  19.158  13.795
64646W        W33119  32.985  16.670  14.897
64647W        W33120   6.816  34.007   3.270
64648W        W33121  14.164  11.733   4.630
64649W        W33122  30.046  39.415  11.056
64650W        W33123  34.550  38.413  13.492
64651W        W33124  27.971   0.785  12.377
64652W        W33125   4.930  42.319  13.015
64653W        W33126  12.689  12.754  12.065
64654W        W33127  30.090  27.636  14.340
64655W        W33128  14.761  10.300  14.470
64656W        W33129  27.648  12.359  10.591
64657W        W33130   8.705   7.281  11.601
64658W        W33131  39.065  25.628   3.667
64659W        W33132  29.172  23.509  14.397
64660W        W33133  38.014  39.419  11.065
64661W        W33134  36.451  40.837  14.502
64662W        W33135  29.153  36.523   4.289
64663W        W33136  34.011  36.876  11.997
64664W        W33137   7.710  11.312  14.784
64665W        W33138  44.836  26.202   3.831
64666W        W33139  15.715  20.157   1.774
64667W        W33140  12.142  31.122  14.445
64668W        W33141  19.087  17.250  12.378
64669W        W33142  32.637  25.587   3.297
64670W        W33143  37.410  35.537   2.214
64671W        W33144  14.824  20.743   2.220
64672W        W33145  17.159  32.076  14.466
64673W        W33146  17.225  41.390   1.395
64674W        W33147   4.828  34.101  11.887
64675W        W33148  34.890  11.763   9.927
64676W        W33149  41.812   8.896  10.914
64677W        W33150  44.838  38.980   4.163
64678W        W33151   9.383  40.974   4.691
64679W        W33152   3.799   2.406  11.128
64680W        W33153   0.890   5.838   2.882
64681W        W33154  19.717  34.555  14.310
64682W        W33155  30.136  40.348   1.854
64683W        W33156  12.825  40.877  12.091
64684W        W33157   2.745   1.875  10.488
64685W        W33158  10.150  19.614   5.160
64686W        W33159  42.474   9.217   1.912
64687W        W33160   7.322   1.771  13.416
64688W        W33161  13.110  27.610  14.000
64689W        W33162  31.560  29.029  10.458
64690W        W33163  19.735  15.665  12.074
64691W        W33164  33.919  21.059  11.397
64692W        W33165  20.113   2.944   0.843
64693W        W33166   1.249  26.041  11.584
64694W        W33167  14.794   7.716   1.402
64695W        W33168   6.869   8.674   5.193
64696W        W33169  12.236  11.683  14.311
64697W        W33170  11.739  25.080   2.859
64698W        W33171  21.522   0.264  11.453
64699W        W33172  29.977   5.371   4.184
64700W        W33173  30.588  10.814  12.091
64701W        W33174   8.406  20.041  12.454
64702W        W33175  32.433  17.193  12.049
64703W        W33176  38.948  28.641  12.036
64704W        W33177  24.481  12.810  14.379
64705W        W33178  18.625  19.686  10.952
64706W        W33179  17.700   9.889  14.450
64707W        W33180  39.398  20.549  11.911
64708W        W33181  41.907  30.927   1.394
64709W        W33182  16.681  43.298  12.410
64710W        W33183  39.505  39.998   3.329
64711W        W33184   3.720  37.383   1.831
64712W        W33185  28.618  26.125  13.463
64713W        W33186  19.592  44.328  14.968
64714W        W33187  18.740   8.767  14.018
64715W        W33188  33.464  12.304   4.206
64716W        W33189  31.985  25.701   9.926
64717W        W33190  19.659  25.108  14.306
64718W        W33191   6.243  17.194   1.919
64719W        W33192  44.449  24.719   3.215
64720W        W33193  33.898  31.948   1.353
64721W        W33194  18.706   0.960   3.370
64722W        W33195   5.815   9.762  12.446
64723W        W33196  25.196  12.298  11.409
64724W        W33197  11.166  40.497   2.847
64725W        W33198  34.494   3.303  11.887
64726W        W33199  25.587   3.901  13.489
64727W        W33200  18.271  26.474  12.422
64728W        W33201  38.520  24.576   0.409
64729W        W33202  16.571  29.623  14.450
64730W        W33203   7.315   3.308   3.228
64731W        W33204  30.050  15.765   0.908
64732W        W33205   0.925  35.004  10.517
64733W        W33206  19.054  11.694   2.852
64734W        W33207  40.504   9.781  10.496
64735W        W33208  30.513  26.625   1.262
64736W        W33209   3.360  27.517  11.967
64737W        W33210  38.528  31.026  14.827
64738W        W33211  14.686  12.138  13.882
64739W        W33212  10.306   1.880  10.439
64740W        W33213  16.612  11.234   4.131
64741W        W33214  39.345   3.873  14.398
64742W        W33215  37.865  24.649   3.340
64743W        W33216   1.947  26.681   1.863
64744W        W33217  30.471  15.686   2.231
64745W        W33218  44.334   5.203  14.291
64746W        W33219   0.845  43.927  14.393
64747W        W33220   9.384  37.910  14.350
64748W        W33221  29.011  30.588   2.406
64749W        W33222  10.867   8.716   0.353
64750W        W33223  42.327  11.146  13.056
64751W        W33224  19.716  38.408  13.437
64752W        W33225  22.139  36.511   2.898
64753W        W33226  14.282  36.577  11.994
64754W        W33227  26.630  38.533  13.539
64755W        W33228  30.918  28.949   0.466
64756W        W33229  17.660  31.486   4.597
64757W        W33230  17.636  32.042   4.201
64758W        W33231  23.176  25.613  11.889
64759W        W33232  21.103   4.404  12.039
64760W        W33233  15.580  17.568  10.912
64761W        W33234  10.327  32.433  12.994
64762W        W33235  10.291   4.905   1.702
64763W        W33236  19.251  40.925   2.359
64764W        W33237  11.683  35.516   0.773
64765W        W33238  19.773  37.057   0.966
64766W        W33239  42.486  11.141   3.853
64767W        W33240  32.434  14.673  14.887
64768W        W33241  44.899  41.871   0.865
64769W        W33242  16.170  39.879  11.586
64770W        W33243  20.528  12.351  14.290
64771W        W33244  11.727  17.619  14.767
64772W        W33245  42.416   5.413  12.422
64773W        W33246  20.109  33.970  11.913
64774W        W33247  28.543  17.202  14.326
64775W        W33248  30.077  17.116  10.628
64776W        W33249   1.815  24.004   0.950
64777W        W33250   1.856   3.344   1.844
64778W        W33251  22.721  44.460  13.449
64779W        W33252  17.138   8.688   0.791
64780W        W33253   4.786  29.474  10.525
64781W        W33254  33.598   0.492   0.880
64782W        W33255  27.995  37.401   4.790
64783W        W33256  12.736  35.364   2.680
64784W        W33257  22.701  31.644   0.376
64785W        W33258  10.865  42.361   3.312
64786W        W33259  29.950  39.440   1.319
64787W        W33260  15.598  16.241   3.841
64788W        W33261  37.831  10.373   3.864
64789W        W33262   4.354  40.534  12.522
64790W        W33263  23.224  23.015   4.354
64791W        W33264  14.101  27.605  11.443
64792W        W33265  15.660  27.174  10.555
64793W        W33266  19.163  40.009  11.904
64794W        W33267  28.092  36.065  14.835
64795W        W33268   6.750  30.522   3.153
64796W        W33269  17.598  36.863   0.904
64797W        W33270  21.527  38.904   3.315
64798W        W33271   0.273  28.101  14.387
64799W        W33272  23.074  44.458  13.822
64800W        W33273  43.403  38.365  12.359
64801W        W33274  19.054  11.209   1.335
64802W        W33275  42.523  39.034   2.324
64803W        W33276  42.375  12.361   1.431
64804W        W33277  38.895  23.149  10.937
64805W        W33278   3.752   8.391  13.492
64806W        W33279  15.612   9.328   4.261
64807W        W33280  21.149   4.775  12.049
64808W        W33281  13.650  25.197   3.340
64809W        W33282   9.314   1.760  10.490
64810W        W33283  31.090  39.815   0.767
64811W        W33284  12.642  15.226  10.634
64812W        W33285  11.826   4.409   0.768
64813W        W33286  40.967  40.957  12.554
64814W        W33287  22.606  15.713  10.021
64815W        W33288   6.315   2.298  10.930
64816W        W33289  33.945  33.002  11.971
64817W        W33290  29.558   2.229   1.806
64818W        W33291  18.560  32.913  11.127
64819W        W33292  42.412  13.172   4.229
64820W        W33293   2.255  42.343   4.711
64821W        W33294   1.445  38.975   4.717
64822W        W33295   5.720   6.687   4.286
64823W        W33296  41.427  23.529   2.208
64824W        W33297  37.578  29.485   4.347
64825W        W33298  10.838  44.414  11.598
64826W        W33299   7.724  37.842   4.236
64827W        W33300   3.930  21.080   4.197
64828W        W33301  32.077  42.443   4.640
64829W        W33302  33.957  22.724  14.973
64830W        W33303  21.112  34.475   1.868
64831W        W33304  43.969  14.301   0.744
64832W        W33305  33.951  35.417  13.528
64833W        W33306  17.628  11.128   1.751
64834W        W33307  37.039   8.718  13.000
64835W        W33308  22.022   4.788  12.999
64836W        W33309  15.327   8.356   3.226
64837W        W33310  34.423  10.345   4.232
64838W        W33311  13.793  18.736  13.427
64839W        W33312   6.810   7.327   9.519
64840W        W33313  29.527  31.029   2.725
64841W        W33314  44.966   5.889  10.434
64842W        W33315  10.683  17.671  13.862
64843W        W33316  20.070  43.777  13.507
64844W        W33317  13.232  23.229   4.612
64845W        W33318  33.488  39.364   1.914
64846W        W33319  13.824  29.546   2.809
64847W        W33320  33.582  32.914   4.803
64848W        W33321   6.776  30.000   0.382
64849W        W33322  24.022  14.684   9.643
64850W        W33323   5.708  11.188  14.786
64851W        W33324  36.961  39.016   3.188
64852W        W33325  26.632  44.447  11.486
64853W        W33326  39.542   7.349  13.960
64854W        W33327  29.151  19.270   0.270
64855W        W33328   9.217  18.180   4.702
64856W        W33329  37.553  18.273  10.072
64857W        W33330  42.360  14.766   4.322
64858W        W33331  13.835   3.216  10.420
64859W        W33332  21.546  44.934  11.388
64860W        W33333  38.536  23.166  12.942
64861W        W33334  31.102  42.008   3.163
64862W        W33335  22.609  24.039   1.381
64863W        W33336  31.422  24.136  13.920
64864W        W33337  31.501  43.486   1.375
64865W        W33338  14.786  30.429  12.575
64866W        W33339   6.861  35.931   2.392
64867W        W33340  20.102  31.063  13.503
64868W        W33341   3.943  42.324   2.291
64869W        W33342   9.661   8.871   3.842
64870W        W33343  26.700  32.955  11.060
64871W        W33344   3.892   9.312   4.125
64872W        W33345  17.304  29.170   2.789
64873W        W33346  31.414  13.708   1.906
64874W        W33347  25.976  41.027   4.202
64875W        W33348  12.857   8.834   2.343
64876W        W33349  33.438  31.064  10.435
64877W        W33350  20.637  31.457   4.141
64878W        W33351  35.893   8.188   1.218
64879W        W33352  33.964   6.387  11.555
64880W        W33353  20.683  14.767   2.748
64881W        W33354   5.235   5.821   1.734
64882W        W33355  36.061  43.279   3.755
64883W        W33356  20.652  16.085  11.564
64884W        W33357  29.630  41.943   2.778
64885W        W33358  16.710   4.430   2.741
64886W        W33359  23.042  20.538   3.644
64887W        W33360  29.454  27.609  11.560
64888W        W33361   3.782   7.179  11.384
64889W        W33362  31.442  40.840   3.268
64890W        W33363  20.188   4.796   5.245
64891W        W33364  16.296  22.657   0.474
64892W        W33365  17.098  26.517   4.766
64893W        W33366  18.736  25.096   1.271
64894W        W33367  40.528   8.886   2.711
64895W        W33368  38.337   8.175  14.424
64896W        W33369  11.291   3.256   0.760
64897W        W33370  14.669   8.186   1.733
64898W        W33371  30.959  10.865   0.300
64899W        W33372  30.018  40.898   4.253
64900W        W33373  16.638  22.608   4.704
64901W        W33374  29.606  39.315   4.199
64902W        W33375  13.800  22.722  13.811
64903W        W33376  15.819  34.073   2.248
64904W        W33377  20.568  13.749   1.827
64905W        W33378  41.033   1.274  14.308
64906W        W33379  30.986  31.507   1.239
64907W        W33380   8.725   6.754   4.313
64908W        W33381   8.768   7.714  14.984
64909W        W33382  13.115  34.456  14.368
64910W        W33383  38.886  19.232   2.395
64911W        W33384  29.000  36.073  10.605
64912W        W33385  27.999   2.241   0.378
64913W        W33386   2.363  32.010   1.747
64914W        W33387   2.831  41.041   0.940
64915W        W33388  15.695  25.967  13.325
64916W        W33389  37.426  44.286  13.053
64917W        W33390  21.702  39.903   2.233
64918W        W33391  42.853  18.658  11.858
64919W        W33392  40.948  24.067   3.634
64920W        W33393  17.751  15.609  12.485
64921W        W33394  38.891  10.278  11.511
64922W        W33395  33.121  26.496  14.791
64923W        W33396   3.726  29.464  11.968
64924W        W33397  22.580  30.438   4.304
64925W        W33398   3.861  15.582   5.613
64926W        W33399  31.469   7.884   1.911
64927W        W33400  36.531  19.092   1.359
64928W        W33401  22.664  41.358   0.858
64929W        W33402  15.104   7.319  12.348
64930W        W33403  40.868   4.933   9.963
64931W        W33404  32.925  24.545   1.281
64932W        W33405  33.504  23.622  13.863
64933W        W33406   9.263  23.215   5.206
64934W        W33407  33.625   5.416   2.323
64935W        W33408   5.793  32.394   4.699
64936W        W33409  40.898  26.611   4.729
64937W        W33410  33.898  15.652   1.332
64938W        W33411  14.773  31.540   0.901
64939W        W33412  14.282  25.575   1.317
64940W        W33413  32.526  30.139  12.835
64941W        W33414  11.707  34.418   0.307
64942W        W33415  10.335  38.035   0.252
64943W        W33416  41.351   8.772   4.797
64944W        W33417  11.840  18.071  13.318
64945W        W33418  16.117  33.943   4.267
64946W        W33419   2.457  36.023   2.827
64947W        W33420  44.930  43.924   4.346
64948W        W33421  22.682  39.960  11.014
64949W        W33422  23.147   9.874   1.324
64950W        W33423  43.832  15.578   2.408
64951W        W33424  19.731  23.198   1.367
64952W        W33425  23.638  13.181  14.372
64953W        W33426  35.448  24.616  13.800
64954W        W33427  34.950  21.125  10.106
64955W        W33428  39.974  28.562  10.908
64956W        W33429  32.466   6.273   2.196
64957W        W33430  37.847   0.872  14.292
64958W        W33431  44.781   0.337  14.812
64959W        W33432  27.126  36.419   3.297
64960W        W33433  25.528  17.258  12.540
64961W        W33434   7.328  30.090  11.531
64962W        W33435  36.898  42.492   1.325
64963W        W33436  33.439   2.290   1.829
64964W        W33437  30.440  42.490  11.010
64965W        W33438   7.772  17.675  12.571
64966W        W33439  39.910  28.937  10.523
64967W        W33440  40.810   7.308  13.899
64968W        W33441  25.515  13.314  14.006
64969W        W33442  14.682  39.557   1.913
64970W        W33443  17.062   4.399   2.893
64971W        W33444  30.979  23.600  12.399
64972W        W33445  22.214   0.470   3.805
64973W        W33446  34.100  41.457  14.890
64974W        W33447  43.381  41.903   2.870
64975W        W33448  43.426  30.164  12.533
64976W        W33449  28.516  24.513  13.013
64977W        W33450  28.064  27.187   0.282
64978W        W33451  37.525  26.694   0.480
64979W        W33452  40.848  31.151   1.386
64980W        W33453  28.016  41.315  10.972
64981W        W33454  40.024  35.879   3.160
64982W        W33455  31.429  35.898   3.209
64983W        W33456  16.196  37.081  10.080
64984W        W33457  12.816  21.116   3.769
64985W        W33458  34.064  17.785  10.413
64986W        W33459  37.343  43.476   4.753
64987W        W33460  41.786   2.941  13.997
64988W        W33461   7.840  11.659  12.932
64989W        W33462  38.907  38.887   4.324
64990W        W33463  44.385  32.966  13.535
64991W        W33464   1.888   7.890  14.391
64992W        W33465   2.787   0.942   4.711
64993W        W33466   8.775  31.123   2.303
64994W        W33467  18.288  42.948  13.537
64995W        W33468  10.865  30.120  12.412
64996W        W33469  11.802  12.665  11.499
64997W        W33470  38.006   8.827  12.063
64998W        W33471  20.148  43.364   0.797
64999W        W33472  21.080   2.864   4.283
65000W        W33473  12.157  36.358  12.087
65001W        W33474  44.393  44.495   4.191
65002W        W33475  34.995  12.259  13.853
65003W        W33476  31.091   7.905   1.705
65004W        W33477  44.991  15.088  10.941
65005W        W33478  44.487  11.746   5.297
65006W        W33479  20.676  22.131   1.887
65007W        W33480  41.021  14.290   1.753
65008W        W33481   3.950   5.416  13.514
65009W        W33482  36.906  32.633   1.409
65010W        W33483  38.354  33.602  13.470
65011W        W33484  34.396  37.581   4.217
65012W        W33485  10.333  31.099   4.724
65013W        W33486  35.567  19.735   3.282
65014W        W33487  11.345  31.617   3.678
65015W        W33488  40.892  24.488   3.146
65016W        W33489  21.131  39.830  12.885
65017W        W33490   4.876  37.351   4.332
65018W        W33491   3.440  18.737   1.329
65019W        W33492  21.109  25.997   1.760
65020W        W33493  19.076   7.402   3.653
65021W        W33494  19.628   0.380  11.007
65022W        W33495   7.395   1.814   0.291
65023W        W33496  43.962  25.617   1.794
65024W        W33497  28.475  42.829  14.484
65025W        W33498  32.135   7.181   0.277
65026W        W33499   4.442  34.869  11.080
65027W        W33500  38.929   0.447  14.774
65028W        W33501   6.866  28.098   0.331
65029W        W33502  19.594  26.602   2.702
65030W        W33503  24.979  13.192   3.287
65031W        W33504  22.235   2.416  13.934
65032W        W33505   3.282   4.223  12.480
65033W        W33506  19.771  27.144  12.008
65034W        W33507   4.212   0.851  14.913
65035W        W33508  38.948  42.370   2.345
65036W        W33509  23.188  30.556   4.622
65037W        W33510  23.206  24.054   3.866
65038W        W33511  11.191  24.486   9.984
65039W        W33512  14.789  33.969   4.744
65040W        W33513  27.023   8.818   2.886
65041W        W33514  24.051  39.012  10.923
65042W        W33515   2.232  19.717   4.180
65043W        W33516  44.478  22.680  13.362
65044W        W33517   4.927   1.310   3.778
65045W        W33518  26.522   4.351  10.481
65046W        W33519   8.218  23.639   3.630
65047W        W33520   6.709  41.447   0.857
65048W        W33521  28.179  41.842  13.924
65049W        W33522  29.998   1.478   2.902
65050W        W33523  34.596  44.870   0.962
65051W        W33524   6.363  25.678   3.670
65052W        W33525  25.992  31.478  11.593
65053W        W33526   8.685  32.933   4.295
65054W        W33527  34.440  41.534   3.342
65055W        W33528  21.108   0.380   2.701
65056W        W33529  38.480  43.369   4.761
65057W        W33530  16.167  35.490   2.363
65058W        W33531   9.290  27.940  13.985
65059W        W33532  21.545   1.432   2.222
65060W        W33533  43.871  42.978  11.860
65061W        W33534  38.036  26.025   1.278
65062W        W33535  26.528  23.143  11.500
65063W        W33536  28.538  44.462  14.889
65064W        W33537   1.835  15.721  12.362
65065W        W33538  29.083  15.664  12.987
65066W        W33539   1.878  38.461   1.927
65067W        W33540  30.445  37.861   1.844
65068W        W33541  22.624  15.207  12.055
65069W        W33542  24.653  28.498  11.462
65070W        W33543  41.300  43.990   2.718
65071W        W33544   1.464  15.178  11.459
65072W        W33545  40.899  26.024  13.440
65073W        W33546   2.314  44.373  10.082
65074W        W33547   8.723   9.825   4.776
65075W        W33548  44.983  42.785   3.858
65076W        W33549  21.187  10.738  14.909
65077W        W33550  42.508   1.860   2.826
65078W        W33551  39.352  14.743   1.789
65079W        W33552  31.411  19.160  10.406
65080W        W33553   8.818   0.468  11.566
65081W        W33554  41.327   1.351  14.312
65082W        W33555  42.320  19.536  12.353
65083W        W33556  27.179  41.037  13.343
65084W        W33557  42.516  22.693   1.353
65085W        W33558  10.173  17.722   4.818
65086W        W33559  41.852  37.019  14.460
65087W        W33560  43.899  18.623   3.719
65088W        W33561  24.689   4.261   3.371
65089W        W33562  18.609  29.555  14.880
65090W        W33563  25.073  25.714   5.212
65091W        W33564   5.271  10.840  11.409
65092W        W33565  37.906   8.161  11.065
65093W        W33566  21.557  34.954   2.747
65094W        W33567  36.087   3.330   4.636
65095W        W33568  43.876  30.115   0.806
65096W        W33569  11.809  30.968   2.366
65097W        W33570   0.364   0.848  10.996
65098W        W33571  39.358  41.959  12.449
65099W        W33572  16.595   6.793   3.272
65100W        W33573  43.784   2.861  11.953
65101W        W33574  26.667  17.626   3.741
65102W        W33575  15.265  13.739  13.928
65103W        W33576  16.626  41.824   1.868
65104W        W33577  36.911  32.087   1.901
65105W        W33578  34.547  22.600  10.929
65106W        W33579  14.832  25.520  12.429
65107W        W33580  30.484  24.683  11.475
65108W        W33581   3.739   3.410   0.922
65109W        W33582  23.198  27.959   3.159
65110W        W33583  30.441  25.627  14.822
65111W        W33584  18.656  19.258   1.382
65112W        W33585  37.924  29.045   1.316
65113W        W33586  31.588  44.331  12.453
65114W        W33587  22.183  19.204   0.771
65115W        W33588  18.081  40.506   3.740
65116W        W33589  33.552  38.376   3.727
65117W        W33590  16.644  44.851   1.771
65118W        W33591  10.743  33.913   3.814
65119W        W33592   2.441  13.114  12.373
65120W        W33593  42.492  20.098  12.498
65121W        W33594  32.045  14.283  14.935
65122W        W33595   5.851   3.799   3.818
65123W        W33596  28.108  22.082   4.331
65124W        W33597  18.246  14.689  10.544
65125W        W33598  18.677  16.194   0.348
65126W        W33599  42.953   9.668   2.828
65127W        W33600  31.971  44.969  14.275
65128W        W33601  18.733  43.954   3.770
65129W        W33602  17.231  22.072  13.808
65130W        W33603  31.431  12.359   1.840
65131W        W33604   0.405  43.820   2.823
65132W        W33605  16.105  43.817  11.452
65133W        W33606  26.619  43.891   5.264
65134W        W33607  18.079  26.509  11.868
65135W        W33608  19.177  16.669   3.244
65136W        W33609  23.627  17.765  11.961
65137W        W33610  11.806  43.422  10.501
65138W        W33611  15.757  12.116   4.228
65139W        W33612  25.573   2.770  14.941
65140W        W33613  35.964  44.959  11.466
65141W        W33614   9.867   3.729  12.084
65142W        W33615  14.721  38.882   1.250
65143W        W33616  12.345  17.136   2.278
65144W        W33617  14.797  28.945   0.851
65145W        W33618  21.683  13.781  10.516
65146W        W33619   5.779  29.576   0.259
65147W        W33620  27.679  22.531  11.425
65148W        W33621  19.600  33.563   3.173
65149W        W33622  14.230  24.533   0.360
65150W        W33623  14.768  10.211  14.954
65151W        W33624   9.386   8.165   3.741
65152W        W33625  33.592   1.842   4.190
65153W        W33626  44.298  41.473   9.989
65154W        W33627  30.557  24.504   5.141
65155W        W33628  38.921  27.197   3.356
65156W        W33629  22.029  29.072   2.765
65157W        W33630  26.200   4.287   0.893
65158W        W33631  18.738  29.024   2.399
65159W        W33632  39.429  37.086   3.673
65160W        W33633  16.248   7.222  14.887
65161W        W33634  28.440  15.776  12.049
65162W        W33635  44.999  10.746   2.345
65163W        W33636   4.890  20.048   2.374
65164W        W33637   6.820  35.385   3.643
65165W        W33638   7.828   0.402  12.367
65166W        W33639   4.775  41.923   2.850
65167W        W33640  30.081  31.522   2.742
65168W        W33641  43.395  12.810   4.224
65169W        W33642   8.895   3.793   4.268
65170W        W33643  35.391  32.533   2.200
65171W        W33644  13.235  21.596   4.183
65172W        W33645  28.596  13.182  14.515
65173W        W33646  25.971   6.882  12.959
65174W        W33647  13.720  22.682   2.841
65175W        W33648  27.012   6.347  11.461
65176W        W33649  38.900   2.441  10.420
65177W        W33650  26.557  28.530   0.828
65178W        W33651   7.206   5.905   2.894
65179W        W33652  43.912  36.380  12.958
65180W        W33653  17.716  22.010  14.957
65181W        W33654  14.663  15.154  12.478
65182W        W33655  10.236  10.876   3.214
65183W        W33656  31.958   2.447   1.711
65184W        W33657  14.746  14.232  12.576
65185W        W33658  33.457  23.108   2.685
65186W        W33659   5.842   3.775   4.176
65187W        W33660   3.245  36.951  10.974
65188W        W33661  40.520  10.815   4.764
65189W        W33662  19.614   0.955   0.412
65190W        W33663   1.765  34.607   2.699
65191W        W33664   4.834  28.056   3.644
65192W        W33665  10.696  40.824   0.425
65193W        W33666   7.385  31.989   0.481
65194W        W33667  26.471  41.976   0.862
65195W        W33668  26.521  22.702  13.535
65196W        W33669   1.795  37.989  12.071
65197W        W33670  18.622   4.287  11.569
65198W        W33671  21.243  14.701   1.857
65199W        W33672  11.252  24.687  14.308
65200W        W33673  26.625  32.917  14.398
65201W        W33674  37.924  39.415  14.348
65202W        W33675  24.185  38.035  11.927
65203W        W33676  33.497   1.289   3.791
65204W        W33677  33.044  12.167   2.902
65205W        W33678   6.699  22.159  10.407
65206W        W33679  18.583  34.415   0.252
65207W        W33680   7.786  39.027  12.096
65208W        W33681  11.316  21.521   3.854
65209W        W33682   4.412   8.242   2.770
65210W        W33683  43.515   5.825   3.222
65211W        W33684  12.341  29.479  11.985
65212W        W33685  37.913  19.093  14.503
65213W        W33686  13.649  44.927  10.416
65214W        W33687  28.116  21.575   3.702
65215W        W33688  33.007   0.877   0.768
65216W        W33689  40.521  30.583  12.088
65217W        W33690  19.162  42.798  12.065
65218W        W33691  22.113  12.257   2.267
65219W        W33692  30.414  37.336  13.926
65220W        W33693  34.430  36.082  14.908
65221W        W33694  37.081   6.271   2.898
65222W        W33695  43.347  25.511   3.191
65223W        W33696   4.798   1.306  10.501
65224W        W33697  16.658  28.635   1.369
65225W        W33698  41.320  26.561  14.275
65226W        W33699  44.864   3.286  13.348
65227W        W33700  43.436  10.161  14.352
65228W        W33701   0.873   2.241  10.539
65229W        W33702  28.649  13.612  13.348
65230W        W33703   6.363  37.386   1.724
65231W        W33704  34.401  42.425   3.845
65232W        W33705  41.412  13.709   3.299
65233W        W33706  43.474  24.667   3.644
65234W        W33707  28.498  10.177  14.872
65235W        W33708  33.449  11.231  12.840
65236W        W33709  24.543  25.091   3.866
65237W        W33710  27.954  36.899  10.525
65238W        W33711  36.952   9.849   2.866
65239W        W33712  16.277  41.516   2.845
65240W        W33713  34.536  26.684  14.946
65241W        W33714  30.984   6.230  12.478
65242W        W33715  19.758  26.066   3.240
65243W        W33716  32.986  22.607   1.694
65244W        W33717   7.406  38.365  11.466
65245W        W33718  36.420  38.477  14.301
65246W        W33719  20.105  35.592  14.443
65247W        W33720  44.416  17.078   0.380
65248W        W33721  30.028  22.661   2.739
65249W        W33722  15.785   8.781  10.457
65250W        W33723  27.148   1.879   4.792
65251W        W33724  41.309   9.390  14.477
65252W        W33725  37.538   9.816  10.028
65253W        W33726  29.115  14.227   2.303
65254W        W33727  18.254   8.344   2.214
65255W        W33728   7.741  37.841  11.538
65256W        W33729  39.336  43.353   0.308
65257W        W33730  34.023  15.654  12.376
65258W        W33731  32.936  31.993   4.640
65259W        W33732  15.816  43.455   2.837
65260W        W33733  16.620  16.297   4.329
65261W        W33734  43.887  27.525  13.808
65262W        W33735  23.211  17.208   4.796
65263W        W33736   4.712  19.690   0.265
65264W        W33737  41.394  13.746   0.446
65265W        W33738  43.273  21.540  13.961
65266W        W33739  40.820  34.863  11.434
65267W        W33740  40.474  11.181   0.286
65268W        W33741  18.092   0.959  12.938
65269W        W33742  44.303  22.593  12.866
65270W        W33743   5.899   4.832   3.157
65271W        W33744  27.060  17.131   3.313
65272W        W33745   7.268  27.075   1.244
65273W        W33746  16.741  31.087   0.933
65274W        W33747   0.492   0.311   4.162
65275W        W33748   9.369  40.901   2.306
65276W        W33749  21.144  35.578  14.021
65277W        W33750  43.508  32.898   2.829
65278W        W33751  19.547  38.384  11.416
65279W        W33752  29.140   7.815  13.307
65280W        W33753  23.038  35.507   4.737
65281W        W33754   1.855   8.866   3.370
65282W        W33755  44.267  12.249  12.935
65283W        W33756  13.785  43.006   1.801
65284W        W33757   6.412  21.573   2.267
65285W        W33758  33.483  34.114  12.504
65286W        W33759  40.425  30.065  12.888
65287W        W33760   5.378  31.906   0.316
65288W        W33761  29.615  31.436  10.518
65289W        W33762   3.243   0.370   3.638
65290W        W33763  23.655  13.636  13.445
65291W        W33764   5.772  42.465  12.357
65292W        W33765  34.445  12.638   3.377
65293W        W33766  10.784  42.964  12.077
65294W        W33767  29.137  12.670  10.581
65295W        W33768  43.854  24.092   2.860
65296W        W33769  43.511  33.028   0.956
65297W        W33770   2.768   7.689  12.478
65298W        W33771  33.436  25.679   0.262
65299W        W33772  26.189   0.324   1.263
65300W        W33773  30.448   8.298   0.840
65301W        W33774   4.878  14.322  11.873
65302W        W33775   2.966  30.469  14.910
65303W        W33776  11.773  33.088   1.810
65304W        W33777  13.766  25.166  11.997
65305W        W33778  18.150  20.711  13.938
65306W        W33779   9.278  18.093  14.002
65307W        W33780   8.891  24.173  11.402
65308W        W33781   2.403   3.735  12.845
65309W        W33782  15.595  14.096  13.387
65310W        W33783  24.723  37.554   1.413
65311W        W33784  23.200   5.877   4.201
65312W        W33785   7.255  10.829  11.060
65313W        W33786  30.600  16.275  12.553
65314W        W33787  27.971   9.362   4.768
65315W        W33788   2.251   9.828  14.990
65316W        W33789   7.737  41.532  11.415
65317W        W33790  14.664  27.566  14.926
65318W        W33791  44.800  26.002  11.579
65319W        W33792  37.573  24.631  13.838
65320W        W33793  33.118  10.748   4.345
65321W        W33794  16.803   4.328   1.424
65322W        W33795  31.416   6.259  10.978
65323W        W33796  10.726   7.300   5.203
65324W        W33797  19.239  33.413  10.440
65325W        W33798  21.175  13.650  11.521
65326W        W33799  13.700  31.050   2.279
65327W        W33800  39.838  12.343   0.367
65328W        W33801  20.589   3.935   0.306
65329W        W33802  14.638  12.170  13.394
65330W        W33803  39.382  40.402  14.972
65331W        W33804  39.027  17.794  13.043
65332W        W33805   9.748  23.536  13.886
65333W        W33806  43.348  28.457  13.983
65334W        W33807  36.508  29.159  12.911
65335W        W33808   2.332  15.202   4.597
65336W        W33809   4.819   7.813   2.192
65337W        W33810  28.532   3.435  12.580
65338W        W33811  39.895  35.072   4.827
65339W        W33812   2.266  31.056   3.206
65340W        W33813  43.008  34.376   3.698
65341W        W33814  31.585   8.661  14.774
65342W        W33815  27.598   6.396   2.324
65343W        W33816  35.501  14.250   0.943
65344W        W33817   9.336  11.738  12.046
65345W        W33818  40.528   3.261   0.880
65346W        W33819  16.719  25.165  13.822
65347W        W33820  28.043  40.332  11.065
65348W        W33821  44.827  31.615   0.767
65349W        W33822  43.374   8.364  13.386
65350W        W33823  41.403  22.588   1.862
65351W        W33824  40.477  20.638   0.927
65352W        W33825  44.829  40.803  11.012
65353W        W33826   1.246  13.214  11.956
65354W        W33827  38.480  16.256  11.409
65355W        W33828  11.761  44.833  12.350
65356W        W33829  42.967   6.887  14.848
65357W        W33830  42.450  28.015   4.347
65358W        W33831   6.388  23.182  13.871
65359W        W33832  24.007   1.847  13.337
65360W        W33833   0.837  19.631  11.476
65361W        W33834  29.969  38.461  12.539
65362W        W33835  23.652  43.285  13.445
65363W        W33836  23.663  18.288   0.869
65364W        W33837   0.297   6.780  13.352
65365W        W33838   9.874  43.499  12.496
65366W        W33839   8.884  34.581   0.370
65367W        W33840  40.538  21.168   2.886
65368W        W33841  30.041   4.886  12.571
65369W        W33842  39.954  27.478  11.525
65370W        W33843  24.719  24.155   4.336
65371W        W33844  16.669  15.168   0.458
65372W        W33845  27.634  22.563   4.259
65373W        W33846  19.137  33.585  13.031
65374W        W33847  19.173  34.925   4.188
65375W        W33848  10.785   8.805  13.367
65376W        W33849  37.062  34.018  14.879
65377W        W33850  12.710  40.539   4.716
65378W        W33851  39.062  35.007   3.790
65379W        W33852   4.398  32.516   1.856
65380W        W33853  41.408  32.019  12.052
65381W        W33854   8.201  28.061   1.755
65382W        W33855  29.933  35.390   0.382
65383W        W33856  24.091  19.214   4.155
65384W        W33857   1.356   8.294  14.976
65385W        W33858  43.867   3.245  14.459
65386W        W33859  12.361  17.797   4.834
65387W        W33860  35.943  33.521   1.360
65388W        W33861   6.254   3.368  10.434
65389W        W33862  33.477  34.888   2.890
65390W        W33863  30.081  20.234   3.309
65391W        W33864  39.838  17.246   2.755
65392W        W33865  15.314  23.600  13.445
65393W        W33866  11.127   3.806   0.368
65394W        W33867  43.989  37.454  10.479
65395W        W33868   6.192  13.617   5.255
65396W        W33869  23.580  40.328  14.971
65397W        W33870  14.827  27.073  12.852
65398W        W33871  43.354   2.936  12.576
65399W        W33872  41.377  34.525   4.204
65400W        W33873  31.012  28.048  11.417
65401W        W33874  20.170   1.925  13.976
65402W        W33875  23.510  15.757  11.947
65403W        W33876  34.521  31.457  10.445
65404W        W33877   3.841  17.168   0.967
65405W        W33878  20.143   5.756  10.541
65406W        W33879   8.197   6.730  14.979
65407W        W33880  35.439  25.157  10.544
65408W        W33881  40.045   8.752   2.395
65409W        W33882  44.286  30.512   2.287
65410W        W33883  30.961   0.362  13.478
65411W        W33884   2.900  30.486   5.092
65412W        W33885  21.630   0.753  10.577
65413W        W33886  12.235  39.908   2.791
65414W        W33887  31.028  13.246  11.013
65415W        W33888   1.405  13.167  10.633
65416W        W33889  12.233   0.476  13.015
65417W        W33890  20.533   9.206  12.572
65418W        W33891  15.161  28.020   3.335
65419W        W33892   5.861  30.535  12.404
65420W        W33893  26.132  14.763  11.442
65421W        W33894  25.075  12.124   4.258
65422W        W33895   5.437   4.237   9.526
65423W        W33896  38.350   4.882  13.450
65424W        W33897  14.128  17.295   4.326
65425W        W33898   5.226   5.282  10.418
65426W        W33899  18.753  22.071  11.872
65427W        W33900  15.118  36.091   3.717
65428W        W33901   9.770  22.168   1.270
65429W        W33902  14.666  19.777  12.995
65430W        W33903   1.915  17.210  12.370
65431W        W33904   7.750   6.191   0.934
65432W        W33905  43.767  15.145   2.745
65433W        W33906  36.549  13.763   1.774
65434W        W33907  43.361   3.344  13.800
65435W        W33908  17.206  13.130  11.508
65436W        W33909  13.159  42.994   0.316
65437W        W33910   7.274   8.178  14.364
65438W        W33911  35.895  16.635   0.295
65439W        W33912  44.489  30.504   5.118
65440W        W33913  20.137   6.240   0.345
65441W        W33914  25.108  33.894   0.313
65442W        W33915  16.155   5.267  12.553
65443W        W33916   7.767  24.099   1.739
65444W        W33917  42.463  16.179   0.894
65445W        W33918  12.612  22.697   2.280
65446W        W33919   1.833  41.890  13.833
65447W        W33920  35.011  17.599   3.294
65448W        W33921   7.762  31.073  10.587
65449W        W33922  33.045   7.347   1.420
65450W        W33923  11.796   7.295  13.937
65451W        W33924   5.921  41.962  13.517
65452W        W33925  22.691  23.988  12.041
65453W        W33926  41.826  12.730   5.112
65454W        W33927  44.849  22.582   3.712
65455W        W33928  16.189  43.500  13.429
65456W        W33929  18.100  20.150   0.362
65457W        W33930   0.967  22.544   2.828
65458W        W33931   9.859  43.467  13.956
65459W        W33932  42.319   6.309  13.028
65460W        W33933  40.909  12.761   1.341
65461W        W33934  15.109  21.187   4.644
65462W        W33935   2.359  44.892   2.827
65463W        W33936   5.393  42.291  12.377
65464W        W33937  26.049  35.445  11.019
65465W        W33938  21.565  32.397  10.952
65466W        W33939  37.385  19.134  12.472
65467W        W33940  29.166  20.189  12.421
65468W        W33941  42.964  16.805  10.455
65469W        W33942  11.680   9.770  11.383
65470W        W33943  29.463  25.977  14.905
65471W        W33944  34.865  23.994   1.402
65472W        W33945  29.548  40.423  14.840
65473W        W33946  12.840  37.940   0.907
65474W        W33947   2.264  38.421   3.369
65475W        W33948  39.445  43.827   4.137
65476W        W33949  10.674  42.383  13.855
65477W        W33950  10.644  18.588   2.721
65478W        W33951   4.725  35.572  12.948
65479W        W33952  26.456  22.700   5.163
65480W        W33953   9.665  39.976  14.807
65481W        W33954  22.532  16.301  13.967
65482W        W33955  29.035  35.051  14.906
65483W        W33956  10.147   9.770  12.088
65484W        W33957  32.065  39.026   4.206
65485W        W33958  25.496  11.802   2.353
65486W        W33959  32.525   7.801  10.625
65487W        W33960   8.326  24.030  13.832
65488W        W33961  29.648  19.585  10.004
65489W        W33962  39.377  43.796  12.040
65490W        W33963  11.642  35.543  10.982
65491W        W33964  17.700  30.501   3.692
65492W        W33965  41.359  25.090   2.685
65493W        W33966  21.197  30.593   1.926
65494W        W33967  35.083  23.536  12.438
65495W        W33968  30.587  33.527   2.273
65496W        W33969   0.460  10.155   0.258
65497W        W33970  10.754  33.624  11.101
65498W        W33971  19.610  36.449  12.555
65499W        W33972   2.933  27.543  11.381
65500W        W33973  23.518   4.731  10.550
65501W        W33974   1.793  13.757   2.727
65502W        W33975   5.861   8.795  13.482
65503W        W33976  39.010  39.939  10.403
65504W        W33977   0.939   7.886   3.379
65505W        W33978   5.898   7.185  11.577
65506W        W33979  13.807  21.079   0.394
65507W        W33980  24.642  12.796  10.075
65508W        W33981   1.302  23.583   1.331
65509W        W33982  29.517  31.577   3.674
65510W        W33983  20.714  18.063   3.301
65511W        W33984  17.131  13.664  13.947
65512W        W33985   3.896  26.031   2.662
65513W        W33986  34.030   3.288   1.435
65514W        W33987   9.856  20.115   0.814
65515W        W33988   9.307  20.199  14.774
65516W        W33989   4.225  35.517   2.743
65517W        W33990  23.650   7.710   2.757
65518W        W33991  20.232  25.469   3.773
65519W        W33992  20.713  27.563  11.977
65520W        W33993  27.552  13.248  13.323
65521W        W33994   8.187  24.028  10.621
65522W        W33995   5.200  27.605  10.551
65523W        W33996  38.833  17.726  11.464
65524W        W33997  16.692  16.312   0.882
65525W        W33998  10.238  31.478   2.785
65526W        W33999  28.583  37.848   1.447
65527W        W34000  32.135   5.370   4.195
65528W        W34001  26.616  42.486  13.406
65529W        W34002  42.406  17.575  13.497
65530W        W34003  16.279  31.603  10.484
65531W        W34004  40.997  44.318  10.952
65532W        W34005  33.390   0.792   0.782
65533W        W34006  38.395  43.909   0.263
65534W        W34007  28.011  12.215  10.957
65535W        W34008  41.335  16.773  11.541
65536W        W34009  10.316  21.585   2.413
65537W        W34010  33.126  27.658   4.175
65538W        W34011  42.942   6.892  11.922
65539W        W34012  29.603  25.575   0.952
65540W        W34013  34.948  28.980  10.081
65541W        W34014  10.143  10.188  11.925
65542W        W34015  18.655  23.516   0.443
65543W        W34016   3.859  10.200   9.963
65544W        W34017  11.231  40.804  13.839
65545W        W34018  41.895  39.888  12.844
65546W        W34019  40.819  24.630  10.438
65547W        W34020  27.551  24.542   3.684
65548W        W34021   3.872  25.136  10.921
65549W        W34022  31.454  33.535  10.501
65550W        W34023   2.883  39.466  14.409
65551W        W34024  15.782  39.324   4.635
65552W        W34025  29.641  19.533   2.688
65553W        W34026   5.424  24.081   3.362
65554W        W34027  14.661  19.133  14.871
65555W        W34028  14.704  34.010   0.947
65556W        W34029  37.551   3.432  13.375
65557W        W34030  34.052   6.822  14.906
65558W        W34031   2.296  15.601   1.390
65559W        W34032  11.147  31.001   0.398
65560W        W34033  32.032  34.481  10.515
65561W        W34034  23.657  42.824  11.911
65562W        W34035  19.632  14.809   3.648
65563W        W34036  34.902  21.537   0.949
65564W        W34037  32.558  30.565  10.941
65565W        W34038  39.405  16.213  12.542
65566W        W34039  10.663   9.293  14.450
65567W        W34040  28.988  28.005   3.314
65568W        W34041  43.792  21.713   4.599
65569W        W34042  33.537  30.658  14.805
65570W        W34043  32.570  36.577  13.375
65571W        W34044   3.949   6.335   4.645
65572W        W34045  35.992   6.391   2.821
65573W        W34046   6.313  13.844  12.535
65574W        W34047  41.470  11.160  13.397
65575W        W34048  38.370  31.103   0.393
65576W        W34049   3.893  10.363   1.888
65577W        W34050  40.873  30.475   4.344
65578W        W34051   5.263  41.817  12.965
65579W        W34052  21.235  38.490  13.974
65580W        W34053  39.826  40.305   2.416
65581W        W34054  30.659  26.020   4.303
65582W        W34055  41.370   8.730   0.340
65583W        W34056  28.661  33.568   4.292
65584W        W34057   6.784  22.073   4.230
65585W        W34058  37.045   4.410   0.737
65586W        W34059  20.566  27.490  14.887
65587W        W34060  37.966   2.796  13.417
65588W        W34061   7.864  25.124   0.469
65589W        W34062  17.587  17.246  12.852
65590W        W34063  18.754  23.551   0.902
65591W        W34064  40.425  42.381   2.745
65592W        W34065  27.687   3.444  14.860
65593W        W34066  26.089  18.227  12.388
65594W        W34067   7.679  27.535   0.835
65595W        W34068  42.293  44.497   1.923
65596W        W34069  20.754  43.414  13.381
65597W        W34070  31.492   3.404   3.174
65598W        W34071  20.108  23.720  12.017
65599W        W34072  18.763   3.333  13.507
65600W        W34073  25.992  10.770  11.553
65601W        W34074   4.702   5.346   0.359
65602W        W34075  12.149  14.698  10.926
65603W        W34076  14.218  17.161   3.251
65604W        W34077  44.988  36.567  10.410
65605W        W34078   6.367  13.185   5.661
65606W        W34079  17.200  42.525  11.483
65607W        W34080   8.801  17.208  14.869
65608W        W34081  40.830   9.213  14.986
65609W        W34082   9.803  41.841   4.206
65610W        W34083  27.115  25.121   3.347
65611W        W34084  11.140  30.601  12.426
65612W        W34085  30.516   6.866   0.886
65613W        W34086   6.868  19.050   0.343
65614W        W34087   3.386   2.241  11.520
65615W        W34088  39.004  27.525  14.856
65616W        W34089   8.190   6.253  12.433
65617W        W34090  25.480  11.212   1.343
65618W        W34091   5.339   5.227  11.063
65619W        W34092  28.584  20.532  12.343
65620W        W34093   5.739  28.671  11.855
65621W        W34094  28.588   9.270  14.771
65622W        W34095  21.221   7.175  10.644
65623W        W34096   2.424   0.976  11.492
65624W        W34097   8.288  29.460  13.473
65625W        W34098  24.096  23.700   5.263
65626W        W34099  29.431  30.966  10.896
65627W        W34100  43.783  35.930  14.018
65628W        W34101   0.299   5.402  10.411
65629W        W34102  27.038  15.323  13.308
65630W        W34103   3.776  16.579  13.409
65631W        W34104  14.824  24.166   1.833
65632W        W34105  22.727   3.912   2.688
65633W        W34106   8.870  17.238  14.006
65634W        W34107  24.198   6.768   1.901
65635W        W34108   0.472  37.548   3.381
65636W        W34109  35.602  33.946   4.799
65637W        W34110  17.573  30.507   0.939
65638W        W34111   5.224   6.849  11.082
65639W        W34112  31.998   4.234   2.248
65640W        W34113  36.498   9.703  12.893
65641W        W34114  31.908   0.364   1.782
65642W        W34115  29.629   5.344  13.908
65643W        W34116  36.538  34.049  11.056
65644W        W34117  32.615  16.184  11.556
65645W        W34118  34.462   0.391  12.878
65646W        W34119  17.594  31.484  14.444
65647W        W34120  18.188  19.674   1.276
65648W        W34121  33.890  22.170   0.726
65649W        W34122   0.343  39.824  12.528
65650W        W34123  26.666  12.196  13.468
65651W        W34124  40.384  30.038   3.352
65652W        W34125  38.515   7.315   0.831
65653W        W34126  41.391  14.297  12.843
65654W        W34127   6.805  22.556  11.971
65655W        W34128  23.048  24.219   3.162
65656W        W34129  35.504  11.232  12.387
65657W        W34130  29.939  12.275  11.044
65658W        W34131   0.407   1.326   3.287
65659W        W34132  39.887   7.847   1.898
65660W        W34133  32.024   1.259  11.527
65661W        W34134   9.690  17.802   0.869
65662W        W34135  11.194  15.266  11.855
65663W        W34136  13.303  41.439   2.286
65664W        W34137   0.788  19.740  14.000
65665W        W34138   7.866  34.438  14.293
65666W        W34139   6.220  31.145  13.854
65667W        W34140  40.331  40.339  14.442
65668W        W34141   7.382   7.738  12.520
65669W        W34142  27.128  33.022   0.895
65670W        W34143  24.150  38.546  13.973
65671W        W34144  41.341  27.989   0.409
65672W        W34145  17.097  10.856   3.269
65673W        W34146  16.618  11.256  11.501
65674W        W34147  24.653  11.660  12.545
65675W        W34148  38.955   7.309   0.317
65676W        W34149   5.237  23.518  10.640
65677W        W34150  35.383  10.349  14.960
65678W        W34151  40.034  37.899  13.468
65679W        W34152  42.858  26.144   1.854
65680W        W34153   7.867   6.205  11.942
65681W        W34154   8.687   7.185  10.494
65682W        W34155   3.952  24.680   1.898
65683W        W34156   0.258   2.302   3.351
65684W        W34157  40.349  35.597  13.436
65685W        W34158  10.210  25.554   2.801
65686W        W34159  12.797  38.843  12.527
65687W        W34160   4.370   6.747  14.886
65688W        W34161   7.357   9.728   0.772
65689W        W34162  37.995  16.764   4.656
65690W        W34163  40.989  25.087  10.975
65691W        W34164   5.703  31.625  10.550
65692W        W34165  13.687   8.792   1.796
65693W        W34166  38.945  42.346  12.877
65694W        W34167  40.853  32.998  11.488
65695W        W34168  10.189   0.288  13.321
65696W        W34169   0.493  27.601  11.528
65697W        W34170  13.326  42.820   3.249
65698W        W34171   7.704  40.050   4.603
65699W        W34172  13.116  20.183  14.770
65700W        W34173  29.426   4.742   5.270
65701W        W34174  19.655  29.940  14.411
65702W        W34175  38.854   0.825  12.380
65703W        W34176   3.416  10.324  12.497
65704W        W34177  41.985  16.676  11.592
65705W        W34178  21.263  32.502  12.558
65706W        W34179   2.921  41.860  13.407
65707W        W34180  18.557  11.726  13.485
65708W        W34181  23.168   4.741   4.283
65709W        W34182  10.185   7.810  13.874
65710W        W34183  43.813  43.330  12.956
65711W        W34184  43.021  19.051  10.528
65712W        W34185  38.495  21.191   0.843
65713W        W34186  39.891  24.554  10.490
65714W        W34187  14.270  19.231   0.948
65715W        W34188  26.137   9.360  14.010
65716W        W34189   4.873  25.058  10.057
65717W        W34190  33.943  42.795  14.977
65718W        W34191  27.623  28.585   0.311
65719W        W34192   8.743  28.136   1.414
65720W        W34193  28.949  42.440   4.204
65721W        W34194   0.325  21.151   4.217
65722W        W34195  26.208   3.415   3.303
65723W        W34196  34.508  25.171  14.455
65724W        W34197  43.774  26.558   2.315
65725W        W34198  22.738  14.297   5.237
65726W        W34199   5.751   2.887  14.286
65727W        W34200  32.480  30.487   4.315
65728W        W34201  15.749  29.057   3.222
65729W        W34202  41.499  42.785  11.495
65730W        W34203  23.541  25.475  13.020
65731W        W34204   8.687  16.302  11.596
65732W        W34205   0.814  26.484   2.415
65733W        W34206  16.254  22.230  10.590
65734W        W34207  32.615  27.610  11.494
65735W        W34208   8.724  34.012   0.388
65736W        W34209  42.310  34.929  14.761
65737W        W34210  43.820  41.344   2.283
65738W        W34211  38.990  22.086   1.415
65739W        W34212   6.892  42.363  13.798
65740W        W34213   0.858  29.031   5.316
65741W        W34214   8.671  27.649  11.383
65742W        W34215  30.047   3.411  13.483
65743W        W34216  12.153  23.567   2.738
65744W        W34217  14.607  43.925   4.660
65745W        W34218  33.611  40.864   2.302
65746W        W34219  14.776  17.748   2.296
65747W        W34220  40.412  12.709  11.102
65748W        W34221   2.874   0.456  13.411
65749W        W34222  19.610   3.744   1.362
65750W        W34223  24.674  37.855   3.836
65751W        W34224  40.902  24.006  11.570
65752W        W34225  12.323  19.249   1.415
65753W        W34226   5.866  34.966   0.279
65754W        W34227  17.062  44.978  11.927
65755W        W34228  12.703  37.916  14.012
65756W        W34229  16.188   1.924   1.766
65757W        W34230   9.700   7.873   2.283
65758W        W34231   6.821   9.199   1.910
65759W        W34232  40.336  11.821  10.456
65760W        W34233  21.112  18.142  12.441
65761W        W34234  36.459  20.614  10.489
65762W        W34235  16.800  10.792  14.414
65763W        W34236  41.811  35.004   0.253
65764W        W34237  17.248  38.545   1.903
65765W        W34238  16.269  15.734   5.249
65766W        W34239  32.938  24.984  14.019
65767W        W34240  42.396  33.555  12.037
65768W        W34241  39.528  37.474  12.504
65769W        W34242  27.121  38.419  11.467
65770W        W34243  17.157  36.071   3.749
65771W        W34244  18.062  37.871   2.836
65772W        W34245  30.569  35.401  14.804
65773W        W34246  39.404   3.353  12.503
65774W        W34247  32.898  20.528   2.803
65775W        W34248  19.274  36.889  13.987
65776W        W34249  34.102  27.664  13.396
65777W        W34250  11.142   4.713  11.433
65778W        W34251  43.302  32.571  11.118
65779W        W34252  37.546  30.416  14.786
65780W        W34253  27.036  19.544  14.478
65781W        W34254   0.832  32.456  11.411
65782W        W34255  33.445   7.874  13.968
65783W        W34256  39.451  10.183  12.397
65784W        W34257   3.404   8.813   4.207
65785W        W34258  36.001  39.986  14.901
65786W        W34259  16.106   2.313  13.960
65787W        W34260   9.707   5.899   1.236
65788W        W34261  11.623  16.150  13.335
65789W        W34262  32.495  33.051   4.726
65790W        W34263  36.000  42.897  12.021
65791W        W34264  24.229  31.950   2.758
65792W        W34265  24.978  38.552   1.720
65793W        W34266  22.564  22.595  10.936
65794W        W34267  12.157   0.778  10.559
65795W        W34268   9.776  42.896   1.354
65796W        W34269  34.454  42.913   9.942
65797W        W34270  23.668   8.706   0.419
65798W        W34271  16.742   6.908  13.309
65799W        W34272  41.493  11.841   4.815
65800W        W34273  30.491   0.462  11.856
65801W        W34274  13.251  29.144  10.588
65802W        W34275  29.013  36.437  13.860
65803W        W34276  40.832  39.849  11.082
65804W        W34277  33.416  17.706  14.379
65805W        W34278   1.960   7.404  14.969
65806W        W34279  22.091   2.812   1.235
65807W        W34280  44.495  32.512  14.450
65808W        W34281  15.582  10.213   4.828
65809W        W34282  38.421  12.339  14.791
65810W        W34283  28.462   0.833  12.347
65811W        W34284  41.432  12.158   4.148
65812W        W34285   1.399   0.361   0.830
65813W        W34286  18.150  42.976   0.401
65814W        W34287  19.613   5.354   2.373
65815W        W34288  16.759   8.846   2.256
65816W        W34289   5.770   5.737   0.884
65817W        W34290  28.056   4.288  14.330
65818W        W34291  24.189  25.663  11.544
65819W        W34292   4.246  43.997   2.731
65820W        W34293  14.796  36.499  13.835
65821W        W34294   6.705   6.792   1.838
65822W        W34295  12.687  11.815  10.951
65823W        W34296  27.500  28.174  10.553
65824W        W34297  23.535  35.517  12.574
65825W        W34298  11.336  12.791   1.919
65826W        W34299   5.286  36.535  10.492
65827W        W34300  25.713  42.475  14.393
65828W        W34301  29.573  39.501  11.394
65829W        W34302  43.882  44.333   2.832
65830W        W34303   7.767   6.801   0.330
65831W        W34304  27.148  38.874  11.944
65832W        W34305  18.697  41.483  13.413
65833W        W34306  14.830  40.416   4.778
65834W        W34307   2.450   9.204   0.322
65835W        W34308  14.099  38.384   3.210
65836W        W34309  33.982  30.944   0.856
65837W        W34310  32.961  22.176   4.752
65838W        W34311  25.174  39.425   3.819
65839W        W34312  11.287  18.715   4.684
65840W        W34313  30.978  12.348   0.243
65841W        W34314  30.558  37.505   1.375
65842W        W34315  15.237  43.882  11.514
65843W        W34316   9.696   6.265   4.710
65844W        W34317  27.640   3.929   1.219
65845W        W34318  19.640  37.899   3.870
65846W        W34319  44.892  22.162  11.980
65847W        W34320  34.578  26.477  12.376
65848W        W34321   9.295  17.212  12.511
65849W        W34322  20.228   1.456   0.342
65850W        W34323   5.903  26.610   1.910
65851W        W34324  22.144  33.565   0.852
65852W        W34325   6.348   3.948   9.584
65853W        W34326   2.807  30.509   4.115
65854W        W34327  40.360  36.350  13.323
65855W        W34328  33.027  24.610   2.404
65856W        W34329  29.161  12.296   0.467
65857W        W34330  43.800  29.169   3.165
65858W        W34331  42.396  43.334   0.727
65859W        W34332  17.258  26.681   2.226
65860W        W34333  44.390  10.186   0.929
65861W        W34334  42.471  37.984   3.182
65862W        W34335  12.331   7.681   4.807
65863W        W34336  43.911  33.995  13.361
65864W        W34337   5.358   0.940   0.844
65865W        W34338  21.256  34.533  13.434
65866W        W34339  31.407  40.536  11.916
65867W        W34340  28.971  12.779  11.993
65868W        W34341  33.608  14.112   0.900
65869W        W34342  26.102  39.015   0.481
65870W        W34343  42.929   0.948   0.736
65871W        W34344  36.891   8.346  14.814
65872W        W34345  30.020  16.198   2.818
65873W        W34346  25.131  40.832   0.757
65874W        W34347  44.864   6.277   2.790
65875W        W34348  28.003   5.211   3.723
65876W        W34349  12.631  30.522  11.405
65877W        W34350  37.971  19.099  12.399
65878W        W34351   9.198  18.642  12.428
65879W        W34352  14.187  27.524   2.765
65880W        W34353  14.184  21.727   2.834
65881W        W34354  27.003   4.899  14.484
65882W        W34355  22.621   6.246  13.883
65883W        W34356  24.648  11.696   3.334
65884W        W34357   1.822  31.545  11.971
65885W        W34358   2.400  15.739  13.804
65886W        W34359  18.192   7.887  12.079
65887W        W34360   1.785  20.570   3.722
65888W        W34361   4.273  32.522   2.227
65889W        W34362  35.439   4.818  13.852
65890W        W34363   6.804   7.680  14.486
65891W        W34364   9.747  43.456   3.221
65892W        W34365  21.022  40.368  11.903
65893W        W34366   0.472  29.925   4.262
65894W        W34367  29.662  32.549   1.890
65895W        W34368   0.339  13.819   1.409
65896W        W34369  36.384   1.264   0.462
65897W        W34370  23.523  42.913  10.552
65898W        W34371  30.455  40.310   0.761
65899W        W34372   2.331  20.198  11.899
65900W        W34373   4.939   3.273   0.402
65901W        W34374  35.075  21.600  11.098
65902W        W34375  18.169  32.578  14.398
65903W        W34376  25.694   0.273   2.337
65904W        W34377   3.448  10.209   4.785
65905W        W34378  36.921   2.288   4.123
65906W        W34379   6.273   7.677  10.909
65907W        W34380  16.592   6.298   3.253
65908W        W34381  14.308  39.015  11.997
65909W        W34382  40.828  29.165   4.319
65910W        W34383  25.538  41.450  14.952
65911W        W34384  12.810   6.248   3.256
65912W        W34385  25.155  30.446   1.306
65913W        W34386  30.546  34.404   1.396
65914W        W34387  31.916  14.675   3.728
65915W        W34388   6.854  14.168   3.746
65916W        W34389  35.003  10.842   4.609
65917W        W34390  31.462  19.145  11.537
65918W        W34391   2.424  23.607  14.776
65919W        W34392  44.445  16.252  12.472
65920W        W34393  16.173  36.579  11.115
65921W        W34394  10.138  26.538   0.473
65922W        W34395  35.445  35.501   0.281
65923W        W34396  38.362   5.224  13.009
65924W        W34397  42.498  30.103   2.337
65925W        W34398  11.338  32.585   4.615
65926W        W34399  23.563  11.143  10.570
65927W        W34400   1.453  22.604   0.307
65928W        W34401  14.140  32.938  13.816
65929W        W34402  29.140  38.039   4.204
65930W        W34403  21.208  15.155   2.199
65931W        W34404  19.198  25.606   4.175
65932W        W34405  17.778  27.468  14.962
65933W        W34406  13.717  20.597   0.350
65934W        W34407   6.295  35.872  13.052
65935W        W34408  38.829  30.598   4.807
65936W        W34409  19.240  33.043  10.951
65937W        W34410   3.274  20.693  12.957
65938W        W34411  18.722   9.737  11.908
65939W        W34412  18.117  34.036   4.727
65940W        W34413  16.246  16.164  11.399
65941W        W34414   0.451  30.537  11.373
65942W        W34415  41.329  31.533  14.436
65943W        W34416   4.840   5.827   0.456
65944W        W34417   0.368  36.979  11.116
65945W        W34418  42.321  41.922  14.337
65946W        W34419  24.145  31.596   2.283
65947W        W34420  13.789  41.440  12.971
65948W        W34421  22.705  38.071  13.994
65949W        W34422  19.550  43.769   2.289
65950W        W34423  22.161  26.463   3.214
65951W        W34424  24.183  29.033  14.768
65952W        W34425  11.172  32.572  13.410
65953W        W34426  18.782  36.039  12.990
65954W        W34427  29.933  32.936  12.525
65955W        W34428  28.066  11.753  14.915
65956W        W34429  35.863  26.163  12.382
65957W        W34430  38.952   9.653  12.848
65958W        W34431  13.628   9.196  11.882
65959W        W34432   5.256  28.543   1.837
65960W        W34433  33.015  25.490   0.821
65961W        W34434  40.319  41.519   4.255
65962W        W34435  32.447  40.838   2.315
65963W        W34436   1.442   0.955  12.863
65964W        W34437  17.075   3.391   3.769
65965W        W34438  41.437  29.092   0.796
65966W        W34439   0.403  18.548  11.413
65967W        W34440  43.956  20.205  14.405
65968W        W34441  32.529  36.982   1.813
65969W        W34442  21.222  28.020   3.275
65970W        W34443  31.479  42.893   4.837
65971W        W34444  24.224  21.706   3.750
65972W        W34445   1.464  40.901  13.858
65973W        W34446  28.476  12.614  11.034
65974W        W34447  12.838  16.173  11.443
65975W        W34448  28.555  34.541  13.946
65976W        W34449  12.766  28.592  13.529
65977W        W34450  17.587  20.076  12.831
65978W        W34451  21.545  30.069  12.907
65979W        W34452  21.164  34.597   2.338
65980W        W34453   1.834  37.870   3.302
65981W        W34454  21.198  33.476   5.191
65982W        W34455  32.948  35.908  14.500
65983W        W34456   7.889  20.070  12.348
65984W        W34457   5.809   3.808   0.846
65985W        W34458  25.611  18.570  14.761
65986W        W34459   8.230  16.079   0.481
65987W        W34460   5.932   6.770   2.696
65988W        W34461  21.642   2.958  12.096
65989W        W34462  31.474  39.051  10.921
65990W        W34463  18.570  32.090   5.226
65991W        W34464  10.771  39.483   3.847
65992W        W34465   5.399  42.332   1.805
65993W        W34466  11.731  29.064   0.808
65994W        W34467  43.356  33.389  12.942
65995W        W34468   1.437  17.644   3.300
65996W        W34469  16.656  39.370   1.929
65997W        W34470  35.918   8.348  13.434
65998W        W34471  10.183  39.391  11.988
65999W        W34472  11.334  38.567   2.200
66000W        W34473   4.384  10.681   2.893
66001W        W34474  16.567  39.359  12.342
66002W        W34475  13.226  19.117   4.188
66003W        W34476   5.849  21.737  14.997
66004W        W34477  29.013  39.006  14.456
66005W        W34478  22.520  40.487   3.363
66006W        W34479  25.651   1.910  11.076
66007W        W34480  15.140  25.581  14.454
66008W        W34481   4.898  18.582   2.740
66009W        W34482  15.238  29.522  11.088
66010W        W34483  32.944  43.978   9.943
66011W        W34484  28.444   1.391  11.373
66012W        W34485  41.479  25.117  11.511
66013W        W34486  26.078  28.631  11.994
66014W        W34487  38.367   4.844  10.905
66015W        W34488  11.697  16.698   3.791
66016W        W34489   1.443  22.530  12.385
66017W        W34490  40.315  28.585  14.825
66018W        W34491  29.589   1.831  14.815
66019W        W34492  40.830  35.079  13.841
66020W        W34493   2.938  29.569  10.637
66021W        W34494  18.778  29.171   3.682
66022W        W34495  33.447  31.471  14.351
66023W        W34496  11.623  18.769   1.873
66024W        W34497   8.188   2.265   3.226
66025W        W34498  19.104  21.694   0.269
66026W        W34499  32.393   2.404  14.009
66027W        W34500  11.170  28.052   2.233
66028W        W34501  31.448  24.704   2.318
66029W        W34502  17.575   0.838  12.919
66030W        W34503  17.175  43.420   3.347
66031W        W34504   2.261  16.708  10.533
66032W        W34505   8.748  21.190  10.952
66033W        W34506   3.392  28.026   3.808
66034W        W34507  37.350  20.646   2.740
66035W        W34508  37.883  29.622   2.397
66036W        W34509  35.088  37.470   4.283
66037W        W34510   9.169  34.563  12.342
66038W        W34511  35.949   3.431   4.216
66039W        W34512   4.342  36.027  11.396
66040W        W34513  38.062  37.913   3.224
66041W        W34514  12.696  44.464   4.132
66042W        W34515  11.297  38.568  11.043
66043W        W34516   2.965  19.043  13.965
66044W        W34517   6.309  22.186  11.554
66045W        W34518  21.251  32.093   5.252
66046W        W34519   7.299  29.594   0.318
66047W        W34520  23.007   3.408  13.910
66048W        W34521  11.274  34.462   4.651
66049W        W34522   6.743  28.938   0.367
66050W        W34523  19.640   3.931  14.462
66051W        W34524  31.946  38.526   2.741
66052W        W34525  22.628  14.100   3.274
66053W        W34526  36.469   9.658  11.117
66054W        W34527  27.160  39.004   4.297
66055W        W34528  16.135   3.399   3.157
66056W        W34529  27.105  32.568  14.326
66057W        W34530  14.669  13.346  14.898
66058W        W34531  37.830   9.882   3.277
66059W        W34532  30.453  30.650  11.030
66060W        W34533  15.741  21.073  12.536
66061W        W34534   5.794   1.344  13.466
66062W        W34535  19.552   7.181   0.285
66063W        W34536  36.919   3.896   4.709
66064W        W34537   5.799  11.644  10.461
66065W        W34538  22.710  22.643  12.929
66066W        W34539  11.652  31.004   1.362
66067W        W34540  27.626  27.572   2.776
66068W        W34541  35.862  14.698   3.226
66069W        W34542  29.617  20.756  11.057
66070W        W34543  16.086  43.275   0.959
66071W        W34544   1.793  16.671  12.496
66072W        W34545  29.083  11.285   2.350
66073W        W34546  19.133   5.427  11.387
66074W        W34547  39.012   9.338   3.656
66075W        W34548  39.938  10.857   0.478
66076W        W34549   0.934   8.346   4.124
66077W        W34550   3.382  29.030   4.341
66078W        W34551  39.470  15.162   1.741
66079W        W34552  38.059  42.862  14.850
66080W        W34553   0.344   5.823  14.761
66081W        W34554  33.473  25.035  12.930
66082W        W34555   8.197  18.066  14.458
66083W        W34556  28.568   7.727   0.357
66084W        W34557  44.872  24.667   1.258
66085W        W34558  30.456  23.187  13.513
66086W        W34559  26.676  34.538   2.359
66087W        W34560  40.449   1.827   5.209
66088W        W34561   3.451  17.680   2.822
66089W        W34562  34.026  23.136   4.321
66090W        W34563  31.646  40.927   0.782
66091W        W34564  33.434  29.459   1.280
66092W        W34565  16.621   4.788   0.783
66093W        W34566   6.192  11.663   4.342
66094W        W34567   9.733   9.232   0.250
66095W        W34568  20.656  15.287   4.195
66096W        W34569  30.109  17.225  13.936
66097W        W34570  10.314   0.307   0.771
66098W        W34571   7.342  13.714  10.404
66099W        W34572  21.053  20.065   2.360
66100W        W34573  43.404   2.897   0.958
66101W        W34574  15.153   3.253  11.452
66102W        W34575  25.566   6.820   3.806
66103W        W34576  35.041   4.786  10.041
66104W        W34577  30.123  40.370   4.292
66105W        W34578  29.599  13.790   3.792
66106W        W34579  32.531  44.491  11.522
66107W        W34580  19.631  13.618   1.222
66108W        W34581   8.705  30.943  12.908
66109W        W34582   0.824  41.957  10.991
66110W        W34583   1.299  14.096  10.492
66111W        W34584  21.565  14.187  14.283
66112W        W34585  29.050  24.702   3.867
66113W        W34586  23.997  27.170   9.950
66114W        W34587  22.058  15.718   4.309
66115W        W34588  24.182   1.748   4.801
66116W        W34589  43.437  26.575   1.803
66117W        W34590  32.546  12.712  13.818
66118W        W34591  29.121  30.087  14.469
66119W        W34592  24.987   6.182   1.886
66120W        W34593  42.811  21.042   0.835
66121W        W34594  22.018  33.950   0.829
66122W        W34595   8.664  43.466  10.639
66123W        W34596   0.368  30.487   2.779
66124W        W34597  18.111  19.181  14.453
66125W        W34598   2.947  34.103   3.793
66126W        W34599  36.065   8.191   4.237
66127W        W34600  26.133  36.512  12.571
66128W        W34601  31.969   0.957   3.333
66129W        W34602  38.933  44.488   2.795
66130W        W34603  25.703   4.902   9.974
66131W        W34604   5.201  38.840   1.809
66132W        W34605  34.917   0.908  13.810
66133W        W34606   0.461  10.803  12.095
66134W        W34607   9.851  23.094   2.236
66135W        W34608  36.519  36.480  11.405
66136W        W34609   7.904   8.304  14.769
66137W        W34610   0.284  33.593  10.986
66138W        W34611  15.713   8.373   2.769
66139W        W34612  10.671  23.566   0.932
66140W        W34613  37.395  11.735   0.315
66141W        W34614  14.643  37.009   1.803
66142W        W34615   2.337  25.044   0.389
66143W        W34616  33.900  22.562  10.416
66144W        W34617   1.435  35.498  12.876
66145W        W34618  23.575  36.961  10.917
66146W        W34619  19.621  39.447  12.032
66147W        W34620   6.698  29.144   2.239
66148W        W34621  41.944   5.917   0.373
66149W        W34622  12.742  34.586   1.704
66150W        W34623  41.971   6.201   2.347
66151W        W34624   4.858   3.225  12.537
66152W        W34625   8.294  11.647   3.206
66153W        W34626  27.462  22.523  14.864
66154W        W34627   8.814  21.247  12.573
66155W        W34628   0.886  32.955  11.985
66156W        W34629  32.556  31.108   1.874
66157W        W34630  18.660   0.793   2.193
66158W        W34631   9.878  33.905   1.753
66159W        W34632   1.823  29.667  12.903
66160W        W34633  19.247   7.780   2.374
66161W        W34634  25.099  10.835   1.884
66162W        W34635  26.538  19.179  12.943
66163W        W34636   9.712  30.069  13.404
66164W        W34637  27.181  11.652   0.804
66165W        W34638   2.935  28.583   4.321
66166W        W34639  43.340  28.644   1.276
66167W        W34640  24.045  33.404  11.581
66168W        W34641  15.099  25.017  14.777
66169W        W34642  19.279  41.913  12.395
66170W        W34643  30.441   4.831  12.984
66171W        W34644  10.746  13.197   2.816
66172W        W34645  32.927  21.167   1.312
66173W        W34646  38.977  11.830  14.876
66174W        W34647  35.855  33.115   4.637
66175W        W34648  22.674  37.948  14.910
66176W        W34649   5.708  22.724  12.051
66177W        W34650  14.203  23.593  11.002
66178W        W34651  23.992  30.030   0.768
66179W        W34652  28.047  25.548  11.972
66180W        W34653   2.246  40.516   1.440
66181W        W34654  36.099  28.463  14.759
66182W        W34655  41.511   0.390   3.735
66183W        W34656  41.871  12.309  13.998
66184W        W34657   3.425  14.267  13.038
66185W        W34658  30.950   4.772   0.829
66186W        W34659   1.773  40.927  13.524
66187W        W34660   2.828  25.100  13.796
66188W        W34661  33.127  34.950  13.369
66189W        W34662  32.947   7.757  13.313
66190W        W34663  32.954   2.274  13.866
66191W        W34664  29.932  24.115  12.948
66192W        W34665   1.466  44.348  11.604
66193W        W34666   3.452  21.241  14.989
66194W        W34667  17.682  30.049   4.811
66195W        W34668  30.933  24.148   0.802
66196W        W34669  31.006  29.966   4.273
66197W        W34670  15.314   7.801   3.300
66198W        W34671   4.354  29.550   3.795
66199W        W34672  29.591  26.962   1.907
66200W        W34673  11.233   7.175   1.820
66201W        W34674  16.091  22.705   3.741
66202W        W34675  38.556  36.398  10.564
66203W        W34676  30.615   6.837   1.374
66204W        W34677  12.306   6.899   3.307
66205W        W34678  34.478  36.919  13.490
66206W        W34679   1.825  12.214   4.321
66207W        W34680  22.675   9.276  14.417
66208W        W34681   1.312  11.714  11.423
66209W        W34682  43.314  21.047  13.020
66210W        W34683  20.156  43.318   4.319
66211W        W34684  31.088  28.442  11.610
66212W        W34685  12.778  32.039  10.543
66213W        W34686  15.607  33.130  14.901
66214W        W34687   5.927  25.100   1.695
66215W        W34688   0.352   2.814   2.282
66216W        W34689  29.052  30.021   2.232
66217W        W34690  13.645  31.417   0.906
66218W        W34691  38.904  10.232   0.458
66219W        W34692  11.795  14.291   2.900
66220W        W34693   7.181   9.677   2.696
66221W        W34694  39.513   1.258  13.878
66222W        W34695  25.160  26.988  12.361
66223W        W34696  32.929   5.830   0.352
66224W        W34697  36.447  33.619   0.317
66225W        W34698  28.463  28.175   4.197
66226W        W34699  40.854   8.218  14.865
66227W        W34700  39.897  44.810   0.466
66228W        W34701  10.346  39.554  14.924
66229W        W34702  24.994   9.650  13.496
66230W        W34703  34.869   8.878  10.408
66231W        W34704   0.950  43.771  11.517
66232W        W34705  13.346  39.330   0.437
66233W        W34706  35.853  29.162  14.510
66234W        W34707  24.052   1.409   0.859
66235W        W34708  25.616  20.585  14.338
66236W        W34709  13.145  14.696  10.601
66237W        W34710  39.065   1.884   3.786
66238W        W34711   3.796  10.298   3.731
66239W        W34712  27.067  31.037  10.991
66240W        W34713  10.721  16.644  13.893
66241W        W34714  34.378   3.718  13.452
66242W        W34715  26.957  44.769  11.428
66243W        W34716  16.155  27.649  12.373
66244W        W34717  39.460  30.033   4.635
66245W        W34718   1.436   9.757   2.261
66246W        W34719   6.238  15.780   0.816
66247W        W34720  44.490  40.406   5.304
66248W        W34721  24.988  30.600  11.047
66249W        W34722  37.391  34.002   4.758
66250W        W34723  17.746  18.729   2.898
66251W        W34724  30.963   2.926   2.791
66252W        W34725  31.532  24.688   4.353
66253W        W34726   8.821   0.452   2.274
66254W        W34727  37.508  41.514  10.408
66255W        W34728  42.321  38.438   4.709
66256W        W34729   7.378  20.560  11.585
66257W        W34730   0.260  15.300   2.662
66258W        W34731  38.569  12.222  13.991
66259W        W34732  41.462  34.092   3.852
66260W        W34733  28.437  13.761   4.251
66261W        W34734  31.925  41.007   4.626
66262W        W34735  17.161  15.669  10.503
66263W        W34736  20.223  44.362   4.290
66264W        W34737  19.056   8.260  14.498
66265W        W34738  22.504  10.817   0.817
66266W        W34739  44.264  42.826  10.137
66267W        W34740  30.026  37.411  12.392
66268W        W34741  27.475   9.829  10.898
66269W        W34742  30.089   8.398  14.938
66270W        W34743  32.576  14.637  12.995
66271W        W34744  19.247  10.811  13.897
66272W        W34745  30.443  44.816  11.870
66273W        W34746  14.256  43.004  13.989
66274W        W34747  22.675  25.126  10.481
66275W        W34748  31.627  36.062   1.897
66276W        W34749  14.600   4.239   2.761
66277W        W34750  22.618   5.387  10.431
66278W        W34751   9.186  21.158   0.793
66279W        W34752  27.958   8.665   5.233
66280W        W34753  17.206  20.650  11.908
66281W        W34754  28.448  24.686  12.383
66282W        W34755  29.624  20.759  12.941
66283W        W34756  21.138  29.023  10.057
66284W        W34757  31.133  17.122   4.303
66285W        W34758   3.315  32.612  11.563
66286W        W34759  18.678  42.859   2.876
66287W        W34760   6.255  29.995   3.184
66288W        W34761  22.007  12.138   0.249
66289W        W34762  23.702   6.884  12.949
66290W        W34763  11.183  38.974  11.462
66291W        W34764   1.421   8.712  14.375
66292W        W34765  11.798  20.719  14.303
66293W        W34766   8.712  36.517   4.607
66294W        W34767  15.653  19.571   9.936
66295W        W34768  11.799   6.892   9.952
66296W        W34769  32.046  40.975   9.467
66297W        W34770  23.098  24.533  10.952
66298W        W34771   7.861  25.590   3.282
66299W        W34772  14.155   6.207  14.898
66300W        W34773  21.615   6.899   0.821
66301W        W34774  16.696   7.336  13.026
66302W        W34775  12.717   7.200   0.459
66303W        W34776   2.264  14.290  13.910
66304W        W34777  40.053  25.211  12.858
66305W        W34778  31.999  13.252   0.315
66306W        W34779  13.621  32.048   1.261
66307W        W34780  33.082  21.538  13.002
66308W        W34781  35.597  29.621  10.962
66309W        W34782  22.537  21.067  11.931
66310W        W34783  19.716  41.521  13.536
66311W        W34784  28.942   3.236   4.273
66312W        W34785  11.160  20.720  12.871
66313W        W34786  44.354  10.294   3.286
66314W        W34787  30.062  20.203   4.723
66315W        W34788  35.459  31.530   0.845
66316W        W34789  28.482  31.915  14.762
66317W        W34790  33.936  44.492  11.578
66318W        W34791   3.446  21.229   0.292
66319W        W34792  10.858  36.889  13.437
66320W        W34793   3.879  30.146  11.917
66321W        W34794   9.266  33.942  10.055
66322W        W34795  31.449  28.975  10.993
66323W        W34796  36.426   4.421   2.241
66324W        W34797  16.212  24.103  11.533
66325W        W34798  34.575  23.148   0.338
66326W        W34799  10.348  34.379   1.392
66327W        W34800  17.782  24.979   3.826
66328W        W34801  12.190  34.993   1.811
66329W        W34802   3.718  15.729  12.888
66330W        W34803  17.293  38.419   5.163
66331W        W34804  16.224  23.031  10.597
66332W        W34805  37.028  33.889   3.678
66333W        W34806   3.263   1.365   0.343
66334W        W34807  16.714   8.162  12.452
66335W        W34808  38.998   7.197  14.505
66336W        W34809  25.632  16.641  11.934
66337W        W34810  12.644  42.850  11.995
66338W        W34811  38.015  20.068  11.571
66339W        W34812  34.412  39.860  10.510
66340W        W34813   9.875  26.063  10.578
66341W        W34814   7.182   6.799   0.919
66342W        W34815   3.444  28.630  13.352
66343W        W34816  43.882  31.035  11.517
66344W        W34817  35.029  42.317  13.350
66345W        W34818  28.656  40.996   3.245
66346W        W34819  16.175  42.434  13.986
66347W        W34820   1.878  39.852  13.533
66348W        W34821  24.058  42.947   4.119
66349W        W34822  43.851  10.742   1.703
66350W        W34823   8.170  37.577  12.407
66351W        W34824  42.994  11.244   4.746
66352W        W34825   4.307  11.371   3.330
66353W        W34826  19.154   9.733   1.243
66354W        W34827  43.498  36.847   1.442
66355W        W34828   1.948  41.875   0.353
66356W        W34829  40.869  28.966  10.996
66357W        W34830  21.721   4.923  10.638
66358W        W34831   3.239  43.846   2.845
66359W        W34832  41.840   0.410   2.787
66360W        W34833  33.980  19.742   4.137
66361W        W34834  41.506   6.257   2.885
66362W        W34835  10.781   2.342   1.703
66363W        W34836  20.105  42.013   0.282
66364W        W34837   0.909  33.588   1.344
66365W        W34838  29.158   5.722   0.729
66366W        W34839  41.352   5.297  11.416
66367W        W34840  34.968  42.920   2.296
66368W        W34841  40.540  20.698  11.946
66369W        W34842  10.655  12.359  11.438
66370W        W34843   9.781  31.016  11.505
66371W        W34844  20.031  28.995  11.984
66372W        W34845  17.666   4.916   3.828
66373W        W34846  38.924  36.909   2.720
66374W        W34847   6.800  37.994  13.990
66375W        W34848  38.428  10.818   2.842
66376W        W34849  20.187  13.794  11.090
66377W        W34850  10.275  41.944   0.279
66378W        W34851   5.688  28.060  10.973
66379W        W34852  13.279  29.511  14.350
66380W        W34853  26.149   4.849  14.497
66381W        W34854  13.674   7.415   2.190
66382W        W34855  40.804   6.234  12.013
66383W        W34856  18.231  18.583   3.718
66384W        W34857  17.247  15.809   1.262
66385W        W34858   8.242  19.159   4.725
66386W        W34859  30.622  21.182  14.787
66387W        W34860  32.619  39.842   3.686
66388W        W34861  32.434   3.311  12.008
66389W        W34862  10.852  40.375  13.797
66390W        W34863  29.521  18.672   0.809
66391W        W34864  29.518  14.677   2.312
66392W        W34865  14.665  20.717   3.664
66393W        W34866  40.382  24.037   1.277
66394W        W34867  35.525  18.259   1.430
66395W        W34868  17.180  28.618   3.652
66396W        W34869  44.504  11.252   1.428
66397W        W34870   6.296  13.198   2.376
66398W        W34871  17.799  12.856  13.945
66399W        W34872  41.931   5.751  13.007
66400W        W34873  14.297   1.976  14.840
66401W        W34874  36.037  36.064   3.768
66402W        W34875  24.994  20.078   2.370
66403W        W34876   9.843  34.541  13.911
66404W        W34877  29.484  30.947  13.975
66405W        W34878  29.459  30.505  12.469
66406W        W34879  28.571  41.388  10.930
66407W        W34880   4.943  16.172   0.355
66408W        W34881  29.976  40.872   0.795
66409W        W34882   2.237   2.461  13.425
66410W        W34883  44.851  20.738  13.475
66411W        W34884  42.459  37.011   3.359
66412W        W34885  14.128  24.669  13.011
66413W        W34886   6.206  33.088  14.505
66414W        W34887   0.449  12.228   0.386
66415W        W34888  40.507  30.915  13.433
66416W        W34889  21.150  26.976   0.934
66417W        W34890  36.851  23.117   1.222
66418W        W34891  25.618  18.657   2.371
66419W        W34892  37.372  35.971  11.007
66420W        W34893  25.091  22.174   1.343
66421W        W34894   6.894  13.797   0.480
66422W        W34895   2.824  24.604   1.294
66423W        W34896  34.077  14.242   4.259
66424W        W34897  11.678  30.443   1.274
66425W        W34898  29.005  37.429  11.047
66426W        W34899  24.027  26.140   4.345
66427W        W34900  44.988  24.503  13.398
66428W        W34901   2.433  28.092   2.742
66429W        W34902  27.578   9.863  10.567
66430W        W34903  24.688  12.805   5.220
66431W        W34904   8.338   1.338  11.111
66432W        W34905  30.517   8.367   2.251
66433W        W34906  29.035   2.366  10.588
66434W        W34907   9.335  35.591  13.387
66435W        W34908   2.794  14.829   0.959
66436W        W34909  13.227   4.795  14.382
66437W        W34910  44.820  30.106  10.461
66438W        W34911  20.619  21.251   4.603
66439W        W34912  32.558  41.916   3.718
66440W        W34913  14.790  42.478   4.311
66441W        W34914  36.987  11.145  13.381
66442W        W34915   5.840   0.868   2.777
66443W        W34916   1.895  13.797  14.487
66444W        W34917  40.460  24.656   4.812
66445W        W34918  22.137  11.345  13.980
66446W        W34919   0.973  17.217   0.257
66447W        W34920  26.687  36.538  13.914
66448W        W34921   1.965  14.757   2.300
66449W        W34922  44.833  10.859   3.175
66450W        W34923  19.685  30.567   4.736
66451W        W34924   3.850  30.132   1.885
66452W        W34925  34.437  30.080   1.783
66453W        W34926  22.046  25.561  13.471
66454W        W34927   2.832  16.675   4.803
66455W        W34928  26.591  20.718   0.449
66456W        W34929  41.390  21.744  14.513
66457W        W34930  39.405  36.374  11.419
66458W        W34931  44.502  37.042  10.966
66459W        W34932   1.368  36.400  14.868
66460W        W34933  41.039   2.782  14.387
66461W        W34934  29.439   2.797   2.724
66462W        W34935  24.513  31.460   2.257
66463W        W34936   2.472  36.445   0.943
66464W        W34937  35.009   0.814   1.814
66465W        W34938   6.295  30.918  12.544
66466W        W34939  17.306  26.635   5.314
66467W        W34940  25.695  31.491  13.821
66468W        W34941  27.155  10.842   4.135
66469W        W34942   0.391   4.765  13.833
66470W        W34943  42.292  19.274   4.701
66471W        W34944  38.349  21.631   1.211
66472W        W34945  13.295  18.725   3.823
66473W        W34946  44.757   5.887   1.408
66474W        W34947   6.891  12.232   0.754
66475W        W34948  31.423   0.901   0.865
66476W        W34949  23.615  36.559   4.323
66477W        W34950   5.371  14.624  14.878
66478W        W34951  23.616  24.035  13.818
66479W        W34952  44.001  29.432  12.086
66480W        W34953  37.451   0.748   0.859
66481W        W34954  29.510  23.219  13.346
66482W        W34955  30.490  36.943   2.391
66483W        W34956  10.341  28.553   3.767
66484W        W34957  41.808  40.534  13.851
66485W        W34958  14.650  22.560   2.341
66486W        W34959  12.242  24.138   1.276
66487W        W34960  12.826  15.103   3.184
66488W        W34961  28.957  27.473  12.079
66489W        W34962  36.068  17.065  13.048
66490W        W34963  29.091  31.972   3.662
66491W        W34964  38.923  27.677  11.406
66492W        W34965  31.125   1.467  12.879
66493W        W34966  20.102  43.419   2.255
66494W        W34967   7.282  33.397   2.853
66495W        W34968  17.671  32.931  13.977
66496W        W34969  28.934   3.818  14.333
66497W        W34970  19.571  33.525  11.462
66498W        W34971  23.034  10.876  14.971
66499W        W34972  33.120   7.890   4.626
66500W        W34973  27.162  43.337   4.783
66501W        W34974   7.271  30.013  11.051
66502W        W34975   4.701  24.166   4.265
66503W        W34976  15.125  27.021  13.348
66504W        W34977  33.049  19.674  14.301
66505W        W34978  32.509  40.949  12.898
66506W        W34979  10.791   9.336   3.150
66507W        W34980  34.923  40.446   1.334
66508W        W34981   8.205  15.312  13.374
66509W        W34982  10.246   9.756   1.758
66510W        W34983  13.118   9.777  13.358
66511W        W34984   1.293   6.871   0.785
66512W        W34985   7.298  43.903  10.982
66513W        W34986  40.973   8.732   3.307
66514W        W34987  30.494  40.833   2.367
66515W        W34988   9.350  31.146   4.275
66516W        W34989  12.617   8.717   4.328
66517W        W34990   2.891   5.768   4.607
66518W        W34991  12.136  23.135   4.757
66519W        W34992  25.120  30.152  12.946
66520W        W34993  24.674   4.867  10.145
66521W        W34994   3.759  18.664   4.309
66522W        W34995   7.405  13.727   2.759
66523W        W34996   4.776  31.468  10.900
66524W        W34997  31.006  18.175   4.748
66525W        W34998  21.518  11.328   0.261
66526W        W34999  44.340  25.098   3.809
66527W        W35000  28.511   2.862   3.663
66528W        W35001   0.431   2.737  14.765
66529W        W35002  21.558  20.029   1.267
66530W        W35003  12.821   6.799  12.523
66531W        W35004  26.641  10.717   1.807
66532W        W35005  38.421  10.258  14.500
66533W        W35006   9.758  44.391  10.570
66534W        W35007  24.094   0.335   2.849
66535W        W35008   6.824  19.759   1.732
66536W        W35009   7.185  30.092   3.369
66537W        W35010  37.955   9.690   0.380
66538W        W35011  35.449   8.775   4.229
66539W        W35012  33.881  16.716  12.920
66540W        W35013   3.878  19.715  13.023
66541W        W35014  10.869  21.657   3.158
66542W        W35015   6.279   8.404  14.884
66543W        W35016  21.051  23.690   2.835
66544W        W35017   0.755  14.712  14.997
66545W        W35018  22.178  23.586  11.910
66546W        W35019  27.099  43.770   9.437
66547W        W35020  22.647  22.693   2.851
66548W        W35021  12.175  39.852   0.293
66549W        W35022   9.705   0.955  11.104
66550W        W35023  32.470  25.649   5.308
66551W        W35024  31.069  13.611  13.926
66552W        W35025  16.732  39.002   2.710
66553W        W35026   9.228   3.396   2.869
66554W        W35027  39.475  30.485   3.288
66555W        W35028   3.281  40.548   3.268
66556W        W35029  29.620  10.735   4.823
66557W        W35030  23.153  16.085  12.060
66558W        W35031  15.667  38.429   4.794
66559W        W35032   9.381  28.169   1.921
66560W        W35033   7.376  16.080  12.885
66561W        W35034  16.737  15.305  13.801
66562W        W35035  12.308  32.556  11.551
66563W        W35036  28.121   4.748   3.336
66564W        W35037  36.525  31.096   3.251
66565W        W35038  23.631  27.506  13.401
66566W        W35039  28.544  41.931  12.052
66567W        W35040  44.384   9.209   1.931
66568W        W35041  40.951  37.409  12.089
66569W        W35042   6.329  43.889  10.639
66570W        W35043  11.755  38.042  10.926
66571W        W35044  41.486   9.803  11.540
66572W        W35045  14.600  11.666  10.949
66573W        W35046  28.625  26.186  11.943
66574W        W35047  12.774  15.585  14.944
66575W        W35048   4.383  12.142   1.770
66576W        W35049  18.291  14.327   4.279
66577W        W35050  25.146   1.861   4.305
66578W        W35051   8.220   0.347   3.295
66579W        W35052  35.460  41.949   0.295
66580W        W35053  18.584  42.009   1.352
66581W        W35054  29.572   7.367  11.493
66582W        W35055  22.713  15.787   3.330
66583W        W35056   8.819  37.869   3.307
66584W        W35057  20.754  24.592   2.787
66585W        W35058  23.047  36.475   3.157
66586W        W35059   6.220  29.588  11.928
66587W        W35060  39.984   0.471  12.439
66588W        W35061   7.269  37.943   2.234
66589W        W35062  12.133  42.956   4.295
66590W        W35063  12.783  35.386  11.874
66591W        W35064  43.008   3.403  14.794
66592W        W35065  42.892  39.449   4.180
66593W        W35066  36.510  21.155  14.964
66594W        W35067   9.321   6.891   0.895
66595W        W35068  43.361   1.351   0.392
66596W        W35069  25.167  18.659  14.776
66597W        W35070   1.807  25.034   4.207
66598W        W35071  29.662   5.730  11.076
66599W        W35072  14.126  23.660   2.285
66600W        W35073  26.959   5.358  11.114
66601W        W35074  24.068  20.661  12.465
66602W        W35075  14.258   2.892   0.365
66603W        W35076   5.377  27.157   2.836
66604W        W35077  39.967  39.359   2.812
66605W        W35078  31.569  10.279  14.959
66606W        W35079  12.663   1.756  11.054
66607W        W35080  44.846   7.310  12.429
66608W        W35081  33.425   1.974   3.307
66609W        W35082  14.710   9.657  10.482
66610W        W35083  19.257  22.558   2.726
66611W        W35084  36.358  12.128   0.802
66612W        W35085  38.919  13.670   2.411
66613W        W35086   0.332  22.702   2.770
66614W        W35087  11.813  37.537   9.937
66615W        W35088  33.107  25.099  13.434
66616W        W35089  18.644  43.328  14.484
66617W        W35090  43.939   0.921  14.405
66618W        W35091  37.369  39.847  11.555
66619W        W35092  29.665  25.037   9.581
66620W        W35093  21.076  34.401  10.076
66621W        W35094  18.180  11.841   2.283
66622W        W35095   9.870  43.289  14.816
66623W        W35096  26.024  18.122  14.998
66624W        W35097  23.678  12.141   0.414
66625W        W35098  33.491  16.587   4.341
66626W        W35099   4.218  41.347   3.343
66627W        W35100  15.166  42.901  12.840
66628W        W35101  41.468   8.748   1.862
66629W        W35102  35.530  27.124   2.289
66630W        W35103   0.882  24.602   3.703
66631W        W35104  36.086  12.783  12.012
66632W        W35105   3.899  43.851  13.038
66633W        W35106  39.849  28.019   4.281
66634W        W35107  10.216  18.211   2.256
66635W        W35108   1.410  37.454  12.981
66636W        W35109  20.144  43.418  11.551
66637W        W35110   4.750  13.210  11.115
66638W        W35111  34.060  21.142   0.256
66639W        W35112   9.297  31.411   3.188
66640W        W35113   1.300  29.103   4.216
66641W        W35114  35.035  39.500  14.942
66642W        W35115  36.572  21.151   5.190
66643W        W35116  35.505  10.784   0.899
66644W        W35117  33.126  29.152  11.420
66645W        W35118  24.630  43.840  10.080
66646W        W35119   6.741  27.180   4.817
66647W        W35120  21.728  21.244   4.162
66648W        W35121  39.836  22.711   3.288
66649W        W35122   8.291  38.845   0.848
66650W        W35123  42.469  33.411   0.939
66651W        W35124   9.649  31.912   3.268
66652W        W35125  20.209  21.098   4.619
66653W        W35126  26.043  21.698   3.844
66654W        W35127  38.343  29.054  12.412
66655W        W35128  42.908  36.460  13.930
66656W        W35129  26.125  22.229   3.190
66657W        W35130  42.382   6.207   0.368
66658W        W35131   6.870  16.238  13.845
66659W        W35132   7.890   6.391   3.661
66660W        W35133  23.698  13.634  12.408
66661W        W35134  25.622  15.282  13.368
66662W        W35135  15.251   4.710  12.375
66663W        W35136  37.364  18.565   5.129
66664W        W35137   7.818  40.947   1.875
66665W        W35138  22.006  19.766  13.330
66666W        W35139  16.251   4.380  11.981
66667W        W35140  41.488  17.209   4.682
66668W        W35141  27.557  29.595   4.713
66669W        W35142  16.689  31.596  12.077
66670W        W35143  13.656   1.457   3.340
66671W        W35144  27.046  38.483  13.064
66672W        W35145  44.272  25.206  10.955
66673W        W35146  42.312  29.585   3.758
66674W        W35147   8.655   5.340   2.835
66675W        W35148  12.348  20.207   1.905
66676W        W35149   8.284   2.865   2.811
66677W        W35150  26.971  21.533  14.291
66678W        W35151  11.128  12.345   1.932
66679W        W35152  21.053  28.471   0.891
66680W        W35153   4.321  15.588  10.027
66681W        W35154  17.074  14.803   2.279
66682W        W35155  30.998  16.252  10.940
66683W        W35156  38.395  19.192  11.967
66684W        W35157  17.200  26.477   0.814
66685W        W35158   9.800  33.442  12.017
66686W        W35159  29.508  44.428  13.891
66687W        W35160  26.106  20.536   1.323
66688W        W35161  40.313  17.120   2.369
66689W        W35162  22.555  27.064  11.121
66690W        W35163   9.214   6.360   3.790
66691W        W35164  41.796  27.559   4.271
66692W        W35165  17.557  15.327  12.548
66693W        W35166  18.075   3.445   3.799
66694W        W35167  15.258   5.818   0.916
66695W        W35168   9.259   4.277   0.414
66696W        W35169  27.621  19.766   3.751
66697W        W35170   3.334   5.289  14.808
66698W        W35171   1.337  41.309   4.147
66699W        W35172  43.464  18.694  12.578
66700W        W35173  37.869  26.526  12.936
66701W        W35174  22.529  44.343   4.726
66702W        W35175  18.200  17.101   1.783
66703W        W35176  26.982  38.868  10.933
66704W        W35177  22.506  29.636   4.643
66705W        W35178   4.450  18.679  13.496
66706W        W35179  37.855   7.898  10.941
66707W        W35180   2.853  21.216   4.209
66708W        W35181   0.311  14.827   1.843
66709W        W35182  12.687   0.471  13.349
66710W        W35183   6.717  16.637   2.768
66711W        W35184  32.989  26.484  13.999
66712W        W35185  33.406  19.649   3.641
66713W        W35186  31.902   4.700  12.482
66714W        W35187  38.967   6.695   0.362
66715W        W35188  34.460  25.085   3.379
66716W        W35189  12.617   6.834   1.836
66717W        W35190  14.632  16.580   1.228
66718W        W35191  24.083   8.289   1.368
66719W        W35192  11.762   1.426  14.802
66720W        W35193  33.893  19.138   2.191
66721W        W35194  11.742  21.143  11.872
66722W        W35195  37.399  30.602   3.348
66723W        W35196  23.106  21.055   3.183
66724W        W35197  16.129   8.242  11.508
66725W        W35198  14.783  20.635  11.924
66726W        W35199   4.292   0.281  14.813
66727W        W35200  13.249   0.365  14.364
66728W        W35201  43.412  34.527  10.508
66729W        W35202   2.380  22.093   3.656
66730W        W35203   8.350  36.510  13.487
66731W        W35204  17.110  38.417   3.368
66732W        W35205  31.530  22.162   4.771
66733W        W35206  12.750   7.273   1.384
66734W        W35207  39.039  25.066  12.877
66735W        W35208  29.929  43.789  12.509
66736W        W35209  32.042  34.594  11.579
66737W        W35210  38.979  27.948   3.236
66738W        W35211  34.476  22.530  13.799
66739W        W35212  37.514  26.112   4.740
66740W        W35213  38.953  26.690  13.886
66741W        W35214  11.746  25.650  10.563
66742W        W35215  43.939  36.912   0.468
66743W        W35216  12.206  40.330   0.876
66744W        W35217  28.180  43.816  12.960
66745W        W35218  36.394  30.946  12.893
66746W        W35219  17.611  32.026  14.395
66747W        W35220  25.635   5.799  14.410
66748W        W35221  27.083  15.170  12.366
66749W        W35222  32.441  16.630   0.776
66750W        W35223  29.607  27.537   2.319
66751W        W35224   6.748   2.723  14.372
66752W        W35225   8.836  37.580  14.413
66753W        W35226  29.010  21.627   1.356
66754W        W35227  23.586   2.330   2.887
66755W        W35228  16.641  24.111   3.703
66756W        W35229  17.187   3.819   0.867
66757W        W35230  43.771  35.445  11.486
66758W        W35231   5.289  44.981   1.733
66759W        W35232  10.346  21.258   5.210
66760W        W35233  17.188  38.883   1.731
66761W        W35234  42.403  17.688  14.352
66762W        W35235   2.835  26.690   1.277
66763W        W35236  18.275  23.032  11.511
66764W        W35237  11.653  26.505   3.765
66765W        W35238  29.000  18.754  11.956
66766W        W35239  19.759  28.538   3.641
66767W        W35240  42.342   0.940  10.973
66768W        W35241  24.997  38.399   1.338
66769W        W35242  37.441   8.860   0.325
66770W        W35243  39.866   7.838  10.643
66771W        W35244  36.583   2.806  11.540
66772W        W35245  37.942   7.260  14.940
66773W        W35246   6.850  12.239  14.461
66774W        W35247  43.286  31.541   4.182
66775W        W35248  17.565  13.116  11.039
66776W        W35249   4.282  38.900  14.999
66777W        W35250  37.951  10.846  14.902
66778W        W35251  32.983  28.595  14.380
66779W        W35252  14.589  37.885   2.179
66780W        W35253  35.875  23.063  12.516
66781W        W35254  37.056  27.064   3.386
66782W        W35255   0.327  25.064   0.738
66783W        W35256  14.125  34.866  10.991
66784W        W35257  24.567   8.886  14.932
66785W        W35258  18.073  21.201  12.020
66786W        W35259  28.506  13.625  10.953
66787W        W35260  41.528  26.177   2.800
66788W        W35261  28.639  36.348   2.854
66789W        W35262  15.693  44.364   0.820
66790W        W35263  15.181  42.386   4.181
66791W        W35264   1.903  35.953   2.419
66792W        W35265  38.900  11.762   2.334
66793W        W35266   7.676  14.596   3.713
66794W        W35267  29.431  43.393   1.871
66795W        W35268   1.302  11.250  13.883
66796W        W35269  44.468  26.589   2.183
66797W        W35270  40.905   5.860  14.495
66798W        W35271  15.229  27.467  14.349
66799W        W35272  27.960  32.561  11.536
66800W        W35273  35.524   8.857   0.824
66801W        W35274  11.280  43.492  12.877
66802W        W35275  35.018  22.653   4.211
66803W        W35276   9.701  30.636  14.330
66804W        W35277  18.198  43.872   0.854
66805W        W35278  28.571  41.891   0.773
66806W        W35279  39.490   5.714   4.180
66807W        W35280   9.747  27.509   0.271
66808W        W35281  38.021  34.605  10.908
66809W        W35282  28.993  43.274   4.738
66810W        W35283  24.563   0.825   1.760
66811W        W35284  23.056   3.817  11.553
66812W        W35285   9.696  10.230  10.600
66813W        W35286  10.356   2.272   1.404
66814W        W35287  34.010  37.063   2.725
66815W        W35288   5.398  13.725  11.391
66816W        W35289   1.247   3.843   2.849
66817W        W35290  34.863   5.784  14.309
66818W        W35291  42.985  22.118  10.543
66819W        W35292  15.694   8.860  11.529
66820W        W35293   3.751  11.671   2.195
66821W        W35294   4.343   7.322   0.738
66822W        W35295   7.298   8.241   1.747
66823W        W35296   9.223  39.388  13.879
66824W        W35297  24.531   3.894   0.955
66825W        W35298  11.755  32.139   5.169
66826W        W35299   5.710  35.110  11.022
66827W        W35300   3.219  29.127   2.233
66828W        W35301  10.262  30.990   4.133
66829W        W35302  42.886   9.326  13.958
66830W        W35303  26.965  35.389  12.394
66831W        W35304   2.334  41.840  12.916
66832W        W35305  18.587   9.700   2.268
66833W        W35306   9.271  30.946  11.916
66834W        W35307  12.252  40.046  11.532
66835W        W35308  26.489  13.777  11.457
66836W        W35309  33.498  32.127  11.020
66837W        W35310   2.895   3.811   3.766
66838W        W35311  42.355   0.346  11.592
66839W        W35312  25.198  14.140  12.876
66840W        W35313   7.336  24.206  10.047
66841W        W35314  29.166   1.331  13.898
66842W        W35315  30.097  29.436  10.457
66843W        W35316  10.148  37.440  10.938
66844W        W35317  16.598   0.772   0.421
66845W        W35318  32.599  44.296   9.492
66846W        W35319  36.851  24.520  10.578
66847W        W35320  30.658  26.071   0.900
66848W        W35321  22.167  11.663   2.784
66849W        W35322  38.352   7.792  13.056
66850W        W35323  27.672   4.335   2.778
66851W        W35324  11.183   4.702   4.240
66852W        W35325  39.814  39.552  11.532
66853W        W35326  28.055   7.724  11.591
66854W        W35327  14.689  21.562  13.920
66855W        W35328  31.472  17.578  13.913
66856W        W35329  19.136  17.193  11.028
66857W        W35330  35.025  24.222   4.799
66858W        W35331  32.611  43.795   4.312
66859W        W35332  44.408  29.450   5.118
66860W        W35333  14.609   7.173  14.471
66861W        W35334  42.994  39.511   2.386
66862W        W35335  19.056  40.362   4.184
66863W        W35336   2.456  28.988   4.707
66864W        W35337  17.739   9.741   3.869
66865W        W35338  12.142  18.571  11.380
66866W        W35339  29.473  33.385   2.903
66867W        W35340  34.948  37.892   4.199
66868W        W35341  26.954  23.993  13.936
66869W        W35342   6.320  28.138   4.711
66870W        W35343   3.718  37.445  12.414
66871W        W35344  10.381  28.118  14.402
66872W        W35345   5.423  17.730   2.237
66873W        W35346  30.590  31.429  12.576
66874W        W35347   2.385  32.014  10.504
66875W        W35348  26.020   1.255  14.780
66876W        W35349  29.934  16.280  12.558
66877W        W35350  29.625  22.557   5.233
66878W        W35351  33.424  10.226   2.274
66879W        W35352  35.061  34.401   3.182
66880W        W35353  10.140   4.939  11.104
66881W        W35354   9.222   6.318   0.442
66882W        W35355  11.131  36.023   4.835
66883W        W35356  22.061   7.258  13.028
66884W        W35357  43.864  31.053   2.754
66885W        W35358  42.370  42.488   0.726
66886W        W35359  35.402  42.469  12.392
66887W        W35360  35.546  18.224   0.839
66888W        W35361  39.037  40.423   3.335
66889W        W35362  38.882  12.710  12.074
66890W        W35363  27.982  37.866  13.044
66891W        W35364  33.014  31.545   3.251
66892W        W35365  27.140  37.002  14.977
66893W        W35366  36.855   3.321  13.520
66894W        W35367  18.587  12.202  11.909
66895W        W35368  39.467  28.605   0.450
66896W        W35369   3.226   1.394   1.237
66897W        W35370  19.598  26.548  13.497
66898W        W35371   2.816  43.977   2.200
66899W        W35372   3.761  36.067  11.569
66900W        W35373  25.964  24.559   0.385
66901W        W35374  28.640  38.880  10.095
66902W        W35375   0.941   1.250   4.237
66903W        W35376   1.825   2.751   3.802
66904W        W35377  29.598   9.272   3.324
66905W        W35378  26.178  26.682  10.639
66906W        W35379  33.421  40.423   1.333
66907W        W35380   7.853  44.925  11.514
66908W        W35381  21.042  20.583  11.955
66909W        W35382  24.991  25.081   1.337
66910W        W35383  40.317  10.343  14.488
66911W        W35384  37.582  40.965  13.995
66912W        W35385  11.670  33.084  13.882
66913W        W35386  10.734  32.569  12.997
66914W        W35387  11.236  40.401  10.420
66915W        W35388  20.675  11.163   0.879
66916W        W35389  36.975   4.370  13.314
66917W        W35390  32.606  40.469  11.440
66918W        W35391  16.172  16.620  12.463
66919W        W35392  22.212   1.267   3.822
66920W        W35393  16.735   0.302   0.347
66921W        W35394  41.870  29.119   2.316
66922W        W35395  15.777  21.195   0.727
66923W        W35396  25.003   6.277   2.410
66924W        W35397  42.475  43.966   4.742
66925W        W35398  26.115   8.239  14.858
66926W        W35399  24.185  25.654  11.012
66927W        W35400  32.563  44.446   1.804
66928W        W35401  11.795  10.689   1.409
66929W        W35402   9.789   5.439  13.868
66930W        W35403  30.051  44.872   2.666
66931W        W35404  38.493   7.284   4.176
66932W        W35405   9.678   1.803   1.230
66933W        W35406   7.251  20.177   4.201
66934W        W35407  37.368  21.649  14.775
66935W        W35408   8.166  31.445  14.771
66936W        W35409  30.494  34.402  10.977
66937W        W35410  29.493   4.298   2.753
66938W        W35411  38.054  19.102   3.857
66939W        W35412  13.743  34.053   0.462
66940W        W35413  30.540  20.069   4.832
66941W        W35414  17.680  24.513   0.755
66942W        W35415   6.184  32.414  13.792
66943W        W35416  23.661  26.534   2.417
66944W        W35417  37.942  40.957  13.920
66945W        W35418  10.764  25.131   2.204
66946W        W35419  12.659  34.958  13.438
66947W        W35420  38.464   1.447  14.867
66948W        W35421   6.779  37.041   4.709
66949W        W35422  15.609  21.649  13.432
66950W        W35423  12.630  11.626  10.486
66951W        W35424   0.863  10.705  13.338
66952W        W35425  28.680  40.844  11.551
66953W        W35426  12.300  32.022   1.352
66954W        W35427  27.680  36.396  10.455
66955W        W35428  20.532   7.336   2.879
66956W        W35429  44.308  42.941  14.474
66957W        W35430  17.189  24.626   1.812
66958W        W35431  23.677  14.274   1.712
66959W        W35432  42.947  19.214  12.518
66960W        W35433   6.691  24.040  10.609
66961W        W35434  11.266  12.341   1.210
66962W        W35435   3.753  11.279  14.369
66963W        W35436  23.133  18.266   2.733
66964W        W35437  18.082  21.054  14.411
66965W        W35438   7.402  18.603  11.906
66966W        W35439  18.153  28.579  10.511
66967W        W35440  28.441   5.266   1.326
66968W        W35441   2.758  19.106   1.421
66969W        W35442   3.228   3.427   1.739
66970W        W35443  28.602  38.553  12.491
66971W        W35444  38.960  22.136  12.992
66972W        W35445  15.600  25.701   2.809
66973W        W35446  36.048  42.479   0.454
66974W        W35447  43.932  32.481   1.783
66975W        W35448  38.522  13.184  13.401
66976W        W35449   3.814  29.030  10.561
66977W        W35450   7.899  21.039  10.614
66978W        W35451  12.346   7.809  13.947
66979W        W35452  13.819  35.921  13.943
66980W        W35453  44.455  22.697   2.799
66981W        W35454  42.825  14.759  12.483
66982W        W35455  32.055   7.883  11.381
66983W        W35456  42.286  37.395   2.723
66984W        W35457  25.534   3.253   2.712
66985W        W35458  12.730  34.411   3.852
66986W        W35459  28.176   0.484   4.620
66987W        W35460  31.980  16.143   3.743
66988W        W35461  10.757  21.053   3.832
66989W        W35462  44.814  35.105   0.323
66990W        W35463  15.586   0.775   4.765
66991W        W35464  32.959  23.000   2.283
66992W        W35465   2.363   3.289  11.929
66993W        W35466   0.254  11.843   2.322
66994W        W35467  14.230   9.312  13.050
66995W        W35468  16.740  33.517  14.766
66996W        W35469   5.426  16.676  14.339
66997W        W35470   0.305  10.654   0.816
66998W        W35471  27.177   9.736   0.885
66999W        W35472  36.900  20.555  14.379
67000W        W35473  26.097   0.823  11.096
67001W        W35474  18.662  23.171  13.373
67002W        W35475   5.399   0.965   3.368
67003W        W35476  26.058   1.909  12.540
67004W        W35477   8.731  41.042  12.395
67005W        W35478  25.036   1.802  12.977
67006W        W35479  14.264   8.750  14.972
67007W        W35480  12.239  42.445   1.783
67008W        W35481  36.872   1.387   4.335
67009W        W35482   7.886  31.412   2.315
67010W        W35483  26.531  40.915  12.447
67011W        W35484  14.269  13.683   2.826
67012W        W35485  23.725   8.758   3.789
67013W        W35486   7.415  35.468  12.561
67014W        W35487  21.572  38.547  14.013
67015W        W35488  23.700   7.386   2.841
67016W        W35489  35.390  19.675  14.458
67017W        W35490  32.400  12.308   3.670
67018W        W35491  16.189  24.110   0.337
67019W        W35492  11.241  40.351  11.913
67020W        W35493  24.007  32.071  12.445
67021W        W35494  13.308  11.296   4.709
67022W        W35495  35.450  24.701   1.892
67023W        W35496  12.358  21.169  13.988
67024W        W35497  40.857  33.035   4.266
67025W        W35498  25.125  15.200  13.890
67026W        W35499   7.716  31.997   1.840
67027W        W35500   4.331  20.254   4.194
67028W        W35501   3.848  20.720   1.922
67029W        W35502   6.751   9.738   2.900
67030W        W35503  27.097  19.671   3.372
67031W        W35504  23.213  19.252   2.696
67032W        W35505   1.825   1.890   2.253
67033W        W35506   1.905  21.021   3.185
67034W        W35507  33.574  44.978  11.462
67035W        W35508  30.441  43.454  14.967
67036W        W35509  13.787   4.889   0.743
67037W        W35510   9.165  10.671   1.252
67038W        W35511  42.471   8.770   2.857
67039W        W35512  32.486  20.720   4.245
67040W        W35513  37.494  36.968  11.512
67041W        W35514   5.841  32.627  12.913
67042W        W35515  41.302  41.370   0.885
67043W        W35516  44.349  15.269  14.867
67044W        W35517  12.153  21.059   3.167
67045W        W35518  18.678  42.815  13.476
67046W        W35519  27.627   2.422  10.478
67047W        W35520  38.425  36.893   3.382
67048W        W35521  17.088  22.727  11.416
67049W        W35522  38.492  10.633   4.646
67050W        W35523  18.279  17.208   4.773
67051W        W35524   7.231  31.483  13.056
67052W        W35525  38.977   8.193   3.762
67053W        W35526   7.829  28.969  11.544
67054W        W35527  21.560  39.479   2.814
67055W        W35528  33.522   9.189   1.898
67056W        W35529  20.257   6.291   3.184
67057W        W35530   7.758  16.668  11.123
67058W        W35531  14.247  22.183   4.322
67059W        W35532  22.534  37.381   0.903
67060W        W35533   9.651  30.417   0.253
67061W        W35534  41.510  22.162   4.316
67062W        W35535   6.280   8.263   0.427
67063W        W35536  22.230  13.330  11.442
67064W        W35537  22.613  23.994   2.753
67065W        W35538  23.589  13.247   3.728
67066W        W35539  27.579   6.188  11.041
67067W        W35540  21.710  39.508  12.064
67068W        W35541  27.044  22.040   1.355
67069W        W35542  20.765  38.862   1.297
67070W        W35543  36.005   6.250   2.235
67071W        W35544  41.855  38.329  12.842
67072W        W35545  25.072  18.728  12.533
67073W        W35546  31.484  15.214   0.948
67074W        W35547  30.593  12.726   0.888
67075W        W35548  31.432  33.602  11.024
67076W        W35549  36.464  16.678   4.146
67077W        W35550   3.240  32.449   0.845
67078W        W35551  33.464  29.102  11.964
67079W        W35552  16.117  22.228   3.356
67080W        W35553  23.164  37.545   0.258
67081W        W35554  14.775  43.370   4.598
67082W        W35555  19.044  43.988   4.307
67083W        W35556   5.234  13.787  12.450
67084W        W35557  31.093  28.527   0.458
67085W        W35558  23.126  40.542   1.258
67086W        W35559  37.955   7.246   4.674
67087W        W35560  12.749  16.712   1.235
67088W        W35561  25.162   9.729   3.869
67089W        W35562  42.826  20.610   4.273
67090W        W35563  28.630   3.301  13.802
67091W        W35564  22.582  40.034   3.852
67092W        W35565  26.155  28.599   1.397
67093W        W35566  11.287  36.410   3.854
67094W        W35567  26.604  33.396   4.603
67095W        W35568   9.794  25.049   5.244
67096W        W35569   8.263  44.008  11.883
67097W        W35570   0.922  28.506   2.404
67098W        W35571  10.709  10.861  14.945
67099W        W35572  30.099  32.443   3.330
67100W        W35573  33.992  41.808  10.516
67101W        W35574  33.068  19.257   4.204
67102W        W35575  43.399   7.681   0.351
67103W        W35576  38.832  30.118  12.021
67104W        W35577  26.131  25.025  11.045
67105W        W35578  26.005  13.637  13.382
67106W        W35579  28.020  16.692  11.961
67107W        W35580  31.425  23.598   9.944
67108W        W35581   6.840  13.606   0.857
67109W        W35582   6.406   6.285   3.325
67110W        W35583  34.424  15.706   0.909
67111W        W35584   8.834   2.461   2.798
67112W        W35585  33.078  10.302  12.988
67113W        W35586   5.709  23.493   0.795
67114W        W35587  24.725  37.471  13.060
67115W        W35588   4.435  22.033  14.914
67116W        W35589  32.082   6.784  14.311
67117W        W35590   7.875  37.956   3.292
67118W        W35591  38.488  29.984   4.704
67119W        W35592  27.007  10.139   2.712
67120W        W35593  16.633  35.888  14.793
67121W        W35594  14.738  37.527   0.901
67122W        W35595  11.668  21.673  11.425
67123W        W35596   7.395   2.926  13.415
67124W        W35597  30.540  32.966   4.800
67125W        W35598  27.536  15.095  11.045
67126W        W35599  30.475  22.706   1.216
67127W        W35600  10.301  43.400   2.833
67128W        W35601  14.299   9.283   3.826
67129W        W35602  29.141  10.772   0.817
67130W        W35603  19.747  14.128   4.324
67131W        W35604  18.217  22.508  11.009
67132W        W35605   1.828   9.344   3.346
67133W        W35606  22.516  19.581  10.630
67134W        W35607  27.141  27.082  10.517
67135W        W35608   0.860  32.626   0.863
67136W        W35609  18.700  34.484  11.435
67137W        W35610  43.450  14.708  13.315
67138W        W35611  31.518   9.331  12.039
67139W        W35612  38.361  39.842   3.695
67140W        W35613  10.276  22.099  10.026
67141W        W35614  11.684  40.932  12.556
67142W        W35615   3.439  12.715   4.215
67143W        W35616  39.329  22.154   0.937
67144W        W35617  13.614  27.003   1.382
67145W        W35618  37.532  19.276   3.809
67146W        W35619  28.515  24.497   0.890
67147W        W35620  32.118  36.097  12.027
67148W        W35621  10.719   6.419  11.899
67149W        W35622  31.546  11.760   0.306
67150W        W35623  23.721  24.522   4.195
67151W        W35624   2.910  28.584  11.116
67152W        W35625   7.821  21.168   3.817
67153W        W35626  31.465  15.604  11.991
67154W        W35627   5.933  39.426   3.768
67155W        W35628  35.553   0.873   3.340
67156W        W35629  10.782  31.541   0.418
67157W        W35630  15.184  24.554   2.375
67158W        W35631   3.443  20.769  10.585
67159W        W35632   3.907  43.846   4.615
67160W        W35633   5.270  44.321   2.233
67161W        W35634  13.670  41.007   2.835
67162W        W35635  11.743   1.428  13.035
67163W        W35636   8.730   1.884   0.254
67164W        W35637  18.715  24.549  10.551
67165W        W35638  35.885  23.624   4.127
67166W        W35639  20.162   0.442  13.812
67167W        W35640  17.095  26.612   4.259
67168W        W35641  20.072   7.269   3.155
67169W        W35642  27.479  19.709  14.399
67170W        W35643  18.203  38.862   2.829
67171W        W35644  10.219  22.134   4.620
67172W        W35645   4.828   6.332  11.977
67173W        W35646  23.049  22.111  14.795
67174W        W35647  32.014  34.563   4.218
67175W        W35648   8.270  15.813  12.954
67176W        W35649  17.076   9.747  13.934
67177W        W35650  27.001  31.543  14.014
67178W        W35651   0.780   8.716   2.794
67179W        W35652  43.887  34.596  13.023
67180W        W35653   3.417  32.455   4.257
67181W        W35654  35.598   8.776  14.813
67182W        W35655  34.971  27.965  12.045
67183W        W35656  25.583  24.643   2.770
67184W        W35657  34.527  19.755   4.205
67185W        W35658   4.383  41.404   1.377
67186W        W35659  29.665  41.472   1.824
67187W        W35660  42.419  15.709   0.261
67188W        W35661  15.229   4.940  14.387
67189W        W35662  26.177  27.685   0.248
67190W        W35663  33.064  11.234  13.902
67191W        W35664   6.205  19.053   1.846
67192W        W35665  12.796  17.262   4.206
67193W        W35666   5.348  40.345   0.313
67194W        W35667  32.125  11.636  13.013
67195W        W35668  16.175   7.340   1.884
67196W        W35669  27.000  16.795   1.872
67197W        W35670  12.324  36.855  13.441
67198W        W35671  21.721  22.686   3.360
67199W        W35672  38.502  14.316  14.852
67200W        W35673  40.534  33.952  10.411
67201W        W35674  13.164  11.826   5.176
67202W        W35675   2.338  19.114  12.560
67203W        W35676   2.962  26.470  13.509
67204W        W35677  38.569  18.699   0.942
67205W        W35678   8.782  12.789  14.866
67206W        W35679  16.113   5.735   0.295
67207W        W35680   5.741  30.114  12.500
67208W        W35681  30.460  17.244   4.219
67209W        W35682  32.935  37.565  11.931
67210W        W35683  25.484  13.176   2.300
67211W        W35684  23.568  19.721  13.517
67212W        W35685  39.328  18.196   2.766
67213W        W35686   7.758  40.046   0.434
67214W        W35687  21.191  32.004   3.156
67215W        W35688   1.309  35.965  12.076
67216W        W35689  29.919  24.574  11.375
67217W        W35690  17.245  32.585  14.918
67218W        W35691  42.464  23.143  13.447
67219W        W35692  41.357  40.469  12.888
67220W        W35693   4.363   9.249   1.829
67221W        W35694  30.530  17.237   0.808
67222W        W35695  36.972   7.404  13.323
67223W        W35696  31.467  41.993   1.842
67224W        W35697   1.805  30.082   2.800
67225W        W35698  30.507  16.569  11.863
67226W        W35699  32.469  11.644  11.493
67227W        W35700  26.615   9.357  12.858
67228W        W35701   8.874  40.037  13.450
67229W        W35702  37.847  20.759   0.843
67230W        W35703  13.763  36.872   1.778
67231W        W35704   8.901  10.803   4.644
67232W        W35705  29.109  27.986  10.487
67233W        W35706  32.405  22.671   4.671
67234W        W35707  29.938  22.600   1.308
67235W        W35708   9.763  17.169  10.553
67236W        W35709  37.054  17.800  10.928
67237W        W35710  20.116  42.302   4.208
67238W        W35711  20.220  25.054  12.873
67239W        W35712  41.038  32.405   4.353
67240W        W35713   0.311   0.292   1.312
67241W        W35714   5.715  22.598   3.145
67242W        W35715  40.882  15.628   2.672
67243W        W35716  38.073  33.407   4.729
67244W        W35717  23.999   8.811   3.386
67245W        W35718  30.417  34.026  13.806
67246W        W35719  17.641   1.918   3.794
67247W        W35720   3.778  24.019   0.927
67248W        W35721  42.461  32.943  10.431
67249W        W35722  22.223  39.924   0.280
67250W        W35723  24.198  31.420  13.824
67251W        W35724  15.817  42.965   2.732
67252W        W35725  14.651  30.102  13.508
67253W        W35726  11.137  38.912   9.977
67254W        W35727  12.217   0.360  14.013
67255W        W35728  37.579  21.230  11.570
67256W        W35729  42.886  18.108  14.456
67257W        W35730  38.520  33.933  10.517
67258W        W35731   9.733  30.140   3.794
67259W        W35732  25.565  10.312   9.953
67260W        W35733  33.517  41.375  13.887
67261W        W35734   2.929  30.622  11.914
67262W        W35735  32.472   9.807   2.714
67263W        W35736  44.009  13.324  11.490
67264W        W35737  21.198   2.422   4.312
67265W        W35738   5.349   0.795  12.411
67266W        W35739  43.390  32.511  12.458
67267W        W35740  25.996   0.824  14.453
67268W        W35741  38.911  20.156   4.791
67269W        W35742   3.843  15.124  13.948
67270W        W35743   5.336  12.274  11.922
67271W        W35744  43.876  29.937   2.823
67272W        W35745  34.024  38.944  13.532
67273W        W35746   8.882  28.009   3.790
67274W        W35747  24.184  35.973   5.128
67275W        W35748   4.749  36.043   4.289
67276W        W35749  13.777  42.435   0.834
67277W        W35750  36.407   4.855  11.451
67278W        W35751  40.871  25.005  11.903
67279W        W35752  16.100  40.354  12.092
67280W        W35753  10.156   6.717  13.882
67281W        W35754  34.877  34.433   4.269
67282W        W35755  42.329  20.718   1.721
67283W        W35756  15.786  28.933  12.443
67284W        W35757  16.705  17.585   0.764
67285W        W35758   1.379  25.204  13.483
67286W        W35759   9.275  41.937  14.850
67287W        W35760  31.408   0.943  11.417
67288W        W35761   9.180  15.733  12.959
67289W        W35762  22.596   4.410  11.410
67290W        W35763  26.078   5.745  14.280
67291W        W35764  15.812  44.469   2.300
67292W        W35765  25.540   6.192   0.272
67293W        W35766  20.565  14.112  14.909
67294W        W35767  27.538  27.156   4.709
67295W        W35768  35.443  29.660  10.613
67296W        W35769  11.683  32.142  12.500
67297W        W35770   4.803   2.315   1.826
67298W        W35771  44.449  40.905  12.067
67299W        W35772  40.477   3.391  13.052
67300W        W35773   9.859   6.714   2.250
67301W        W35774  13.299  15.650   1.418
67302W        W35775  27.189  40.470   0.443
67303W        W35776  25.501  43.431   3.239
67304W        W35777   5.226  18.131  14.408
67305W        W35778  15.637  17.277   3.707
67306W        W35779   8.893  27.941   4.801
67307W        W35780   5.277  38.845   4.825
67308W        W35781  18.660  23.591   1.862
67309W        W35782   1.949  28.179   2.714
67310W        W35783  44.949  16.140  12.828
67311W        W35784  16.284  34.392  12.059
67312W        W35785  21.155  34.888   2.416
67313W        W35786  34.448  14.787  12.352
67314W        W35787  24.003   0.449   9.616
67315W        W35788  33.051  40.816  14.761
67316W        W35789   8.387  25.680   2.317
67317W        W35790   1.774  35.021  12.040
67318W        W35791   7.370   3.292   1.862
67319W        W35792  41.870  10.790   4.638
67320W        W35793  19.054  21.604   3.783
67321W        W35794  35.399  12.842  10.935
67322W        W35795  28.140   5.838  13.418
67323W        W35796  11.743   4.740  13.446
67324W        W35797  29.016  15.099   2.675
67325W        W35798  23.035  14.611  12.956
67326W        W35799   6.780   5.804   4.138
67327W        W35800   5.347   1.453  14.438
67328W        W35801  16.651  34.407   0.408
67329W        W35802  17.750   2.916   2.665
67330W        W35803   3.758  11.353   4.199
67331W        W35804  16.624  41.510  12.349
67332W        W35805   9.738  14.265   3.638
67333W        W35806  32.585  31.548   0.880
67334W        W35807  44.420  32.394   0.476
67335W        W35808   8.857   6.283  12.930
67336W        W35809  29.147  27.164  13.034
67337W        W35810  20.565  21.617   2.230
67338W        W35811  13.618   3.732   1.309
67339W        W35812  25.660  15.146  11.068
67340W        W35813  20.532  37.483  11.499
67341W        W35814  38.455  41.003  10.944
67342W        W35815  41.835  41.489  12.955
67343W        W35816  17.281  29.138  14.905
67344W        W35817  13.635   9.764   3.293
67345W        W35818   6.222  30.450   4.225
67346W        W35819  32.073  23.012   5.719
67347W        W35820  36.969   3.848   1.390
67348W        W35821  23.671  16.277   3.358
67349W        W35822  34.906  31.006   2.186
67350W        W35823  23.705  25.673   2.838
67351W        W35824  26.616  27.571   3.867
67352W        W35825  30.085  44.949  12.058
67353W        W35826   1.893  27.144  13.405
67354W        W35827  13.142  36.473  14.769
67355W        W35828  12.827  15.083   4.244
67356W        W35829  25.096  18.089   3.206
67357W        W35830  14.684  44.422  11.033
67358W        W35831  23.192  26.577   1.905
67359W        W35832   2.769   3.907   1.699
67360W        W35833  41.350  23.082   2.389
67361W        W35834  24.105   1.829   1.390
67362W        W35835  14.745  39.337  10.154
67363W        W35836   3.939  36.962   3.291
67364W        W35837   7.273  37.410  12.455
67365W        W35838  20.091  14.278   0.423
67366W        W35839  21.699  35.004   0.337
67367W        W35840   4.841   1.365   0.462
67368W        W35841  18.605  36.928  13.412
67369W        W35842  11.705  17.650  10.554
67370W        W35843   0.288  14.113  14.378
67371W        W35844  44.965   2.424  11.573
67372W        W35845  32.598  27.164  14.421
67373W        W35846  18.592  30.540  14.010
67374W        W35847  38.847  10.694   0.959
67375W        W35848  16.183  10.202  13.927
67376W        W35849   9.383  34.561  13.930
67377W        W35850   3.362  30.121  14.835
67378W        W35851  20.568   1.733   1.348
67379W        W35852  31.019   9.206  10.953
67380W        W35853  12.141  31.601   1.703
67381W        W35854  40.949  34.105   0.960
67382W        W35855  27.525  42.958  13.487
67383W        W35856  21.681  20.728  11.966
67384W        W35857  36.389  31.560  11.914
67385W        W35858  40.447  13.783  13.473
67386W        W35859   5.250  37.403   0.263
67387W        W35860  32.027  23.638   9.649
67388W        W35861   2.293  32.112   2.892
67389W        W35862  27.616   7.679  12.431
67390W        W35863  44.957  38.905  12.041
67391W        W35864   2.389   6.918   4.162
67392W        W35865  28.549  30.525  14.862
67393W        W35866   3.858  13.145   1.841
67394W        W35867   4.834   0.742  10.439
67395W        W35868  18.134  37.983  12.380
67396W        W35869  21.556  13.199   3.267
67397W        W35870   2.353  19.731   2.332
67398W        W35871  21.102  10.800   3.804
67399W        W35872  11.664  29.462   2.319
67400W        W35873   5.332  21.746   2.767
67401W        W35874  17.678   0.463  13.457
67402W        W35875  14.098   2.761   1.255
67403W        W35876   0.919  13.333   3.715
67404W        W35877  33.068  22.228  11.870
67405W        W35878  16.084   6.347  10.626
67406W        W35879   5.261  19.050  12.832
67407W        W35880  14.606   5.763   4.662
67408W        W35881  27.026  25.971   3.749
67409W        W35882  12.335  24.683  13.369
67410W        W35883  26.202   3.736   4.127
67411W        W35884  13.256  19.649  13.000
67412W        W35885  24.513  42.503   0.361
67413W        W35886  10.634  38.324   1.232
67414W        W35887   2.462  43.771   0.806
67415W        W35888   9.205  36.496  14.797
67416W        W35889   7.310  28.578   0.351
67417W        W35890  31.952  44.951  11.969
67418W        W35891   5.894  24.659  12.969
67419W        W35892  17.132  11.231   3.336
67420W        W35893  41.984   5.724  13.854
67421W        W35894  35.029  23.082  12.413
67422W        W35895   4.437  23.646   0.951
67423W        W35896  36.901  42.332   2.691
67424W        W35897  10.245  34.594   2.722
67425W        W35898  35.479  26.077   0.785
67426W        W35899   4.428  36.879   1.815
67427W        W35900  17.719   6.401   3.254
67428W        W35901  23.502  23.601  14.862
67429W        W35902   3.249  24.221   3.314
67430W        W35903  10.314  14.737   5.130
67431W        W35904  28.126  39.856   1.906
67432W        W35905  17.303   9.833  12.440
67433W        W35906   8.333  18.250  12.556
67434W        W35907  44.286  13.803   2.342
67435W        W35908  17.720  34.960  14.808
67436W        W35909  32.885  17.065   4.191
67437W        W35910  35.549  13.276   4.262
67438W        W35911  10.348  16.769   0.336
67439W        W35912  20.623  43.451  13.050
67440W        W35913  31.426  24.221   0.436
67441W        W35914   5.715  43.944  11.083
67442W        W35915  23.655  31.527  14.930
67443W        W35916   4.766  15.804   0.787
67444W        W35917  23.084  23.591   2.240
67445W        W35918  42.930  12.755   4.317
67446W        W35919  39.944  31.647   0.440
67447W        W35920   6.789  31.544   2.776
67448W        W35921  15.810   5.695  14.348
67449W        W35922  15.268  43.808  12.544
67450W        W35923  28.493  28.947   4.353
67451W        W35924  36.427  20.039   1.782
67452W        W35925   5.198  44.486  14.474
67453W        W35926  11.280  31.022   2.254
67454W        W35927  18.269  14.760  13.347
67455W        W35928  12.188  42.867  11.397
67456W        W35929   5.371  13.276   9.452
67457W        W35930  17.794  31.478  11.578
67458W        W35931  20.154  11.317   1.889
67459W        W35932  11.269  17.141  10.628
67460W        W35933   7.362  31.462   1.917
67461W        W35934  38.894  14.704  13.931
67462W        W35935  30.570  30.587   1.430
67463W        W35936  11.181  35.487  13.416
67464W        W35937  24.631  10.211  11.891
67465W        W35938   0.916  17.208   4.598
67466W        W35939  14.164  14.810   1.755
67467W        W35940  30.975  34.597   3.256
67468W        W35941  15.774  25.619  13.377
67469W        W35942  40.443  20.221   4.166
67470W        W35943  35.858   9.157   1.752
67471W        W35944  38.402  35.928  11.458
67472W        W35945  33.553  33.957   3.297
67473W        W35946   4.767  12.781   4.671
67474W        W35947  22.104  29.592  11.385
67475W        W35948  41.304  39.466  11.072
67476W        W35949  41.885  20.551   1.830
67477W        W35950  22.014  24.628  11.507
67478W        W35951  38.331  16.186   1.417
67479W        W35952  24.713  15.707   0.354
67480W        W35953   5.193  26.143  10.578
67481W        W35954   1.746  43.276  14.278
67482W        W35955  18.609  33.525  14.976
67483W        W35956  10.828  14.275  14.846
67484W        W35957  44.792  28.955  12.972
67485W        W35958  32.124  22.066   2.738
67486W        W35959  43.511   3.353   2.179
67487W        W35960   1.264  38.904  11.912
67488W        W35961  10.193  19.566  14.316
67489W        W35962  21.658  28.558  14.786
67490W        W35963  35.538  26.564  12.846
67491W        W35964  33.443  32.083  12.468
67492W        W35965  34.521  26.456  14.315
67493W        W35966  10.861  23.165  11.871
67494W        W35967  28.184   9.304   4.326
67495W        W35968  17.674   9.290   1.256
67496W        W35969  13.759   6.377   2.380
67497W        W35970  12.795  40.401   0.274
67498W        W35971  28.125  34.951   1.836
67499W        W35972  43.329  12.683  10.507
67500W        W35973  42.482  27.617  14.879
67501W        W35974  41.000  14.113  13.016
67502W        W35975   7.894  22.102   2.714
67503W        W35976  17.633   3.884   2.415
67504W        W35977  12.673  20.607   3.660
67505W        W35978  34.909  35.874  10.417
67506W        W35979  10.208  32.997   3.306
67507W        W35980  39.431   1.939  13.963
67508W        W35981  16.765   7.194   4.739
67509W        W35982  30.159  16.240  12.836
67510W        W35983  26.586  42.953  10.513
67511W        W35984  41.390  14.201   2.285
67512W        W35985  43.452  13.783   0.336
67513W        W35986  17.767  30.435  11.976
67514W        W35987  29.927  31.543   0.957
67515W        W35988  11.741  19.775   9.965
67516W        W35989   3.390  40.413  10.919
67517W        W35990  35.909   9.643   4.165
67518W        W35991  13.258  40.869  10.566
67519W        W35992  17.702   2.228   3.248
67520W        W35993  41.817  27.510   1.211
67521W        W35994  44.972  29.541   1.763
67522W        W35995  41.788  14.104  10.985
67523W        W35996  31.055  40.453   0.286
67524W        W35997  35.936  10.713   3.363
67525W        W35998  24.503  32.074  12.547
67526W        W35999  24.039  32.467   3.150
67527W        W36000  42.392   0.409  14.355
67528W        W36001  24.057  27.031  13.940
67529W        W36002  20.538  19.578  14.918
67530W        W36003  15.687  26.585  14.403
67531W        W36004   1.761  21.177   1.698
67532W        W36005  13.187   6.255  12.484
67533W        W36006   1.369  39.975   4.325
67534W        W36007  21.624  15.656  14.442
67535W        W36008  37.062   7.902  11.406
67536W        W36009  26.132  38.450   0.342
67537W        W36010   4.894   2.406   4.615
67538W        W36011  20.594  34.455   4.825
67539W        W36012  39.444  15.217   2.325
67540W        W36013   5.255  30.496   1.703
67541W        W36014  15.673  39.838   3.727
67542W        W36015  37.055  27.157   2.845
67543W        W36016  27.078  38.456  13.315
67544W        W36017  41.985  41.464  12.024
67545W        W36018  41.507  35.597   4.605
67546W        W36019  27.585  28.562  13.885
67547W        W36020   8.210  30.106  13.907
67548W        W36021   9.280   5.193  11.477
67549W        W36022   7.792  32.002  14.423
67550W        W36023  44.396  42.875  10.511
67551W        W36024  35.971  39.529   1.403
67552W        W36025  36.493  38.452   3.233
67553W        W36026   1.855  10.139  13.039
67554W        W36027  10.638  26.020   2.730
67555W        W36028  39.502  11.774  11.871
67556W        W36029  42.927  25.996  13.344
67557W        W36030  40.426  30.939   1.311
67558W        W36031  12.226  41.298   3.174
67559W        W36032  13.197  38.910   5.199
67560W        W36033  12.759   4.265   4.248
67561W        W36034   3.784  11.722   9.951
67562W        W36035  13.627  10.188  13.529
67563W        W36036  12.620   8.734  10.456
67564W        W36037  31.585  44.437  11.934
67565W        W36038   1.449  34.377   3.310
67566W        W36039  29.920  44.929   2.285
67567W        W36040  28.098  35.971  11.078
67568W        W36041   1.750   1.353  14.765
67569W        W36042  26.973  12.842  13.307
67570W        W36043  43.509  15.710  13.516
67571W        W36044  31.541   0.286   1.893
67572W        W36045  27.955   8.811   3.343
67573W        W36046  11.237  27.539   1.433
67574W        W36047  44.331  18.719  13.329
67575W        W36048  27.989  13.649  11.018
67576W        W36049  43.431  36.884  14.895
67577W        W36050  12.357  26.957  11.513
67578W        W36051  16.746  39.864   1.854
67579W        W36052  26.553  10.269  14.344
67580W        W36053  20.629  24.615  12.019
67581W        W36054  33.005  15.228   2.705
67582W        W36055  43.316   1.748  10.596
67583W        W36056  13.269  36.893  11.100
67584W        W36057  38.453  27.010  13.488
67585W        W36058  10.860  39.842   3.371
67586W        W36059  24.198  15.205  10.059
67587W        W36060   1.759   8.890  12.024
67588W        W36061  24.555   2.349   4.180
67589W        W36062   7.862  43.513  13.952
67590W        W36063  18.617  24.102  14.962
67591W        W36064  40.818   8.759  14.778
67592W        W36065  43.953  13.160   2.721
67593W        W36066  18.216   0.904  11.453
67594W        W36067  13.127  29.060  14.951
67595W        W36068  18.743  34.876   2.187
67596W        W36069   4.830   7.335  11.106
67597W        W36070  11.338  39.552  10.552
67598W        W36071  44.327  38.510   2.371
67599W        W36072  14.094   3.227   0.942
67600W        W36073   2.830  12.233  13.450
67601W        W36074   9.788  11.831  12.512
67602W        W36075   5.790  11.783   0.815
67603W        W36076   2.437   0.978   3.715
67604W        W36077   4.897  15.236  13.359
67605W        W36078  37.963   7.305   3.155
67606W        W36079  41.904  34.968   0.774
67607W        W36080  20.609  42.028  10.961
67608W        W36081  15.224  38.393  12.523
67609W        W36082   1.849  14.264   3.334
67610W        W36083  21.678   2.227  12.403
67611W        W36084  12.233   3.788   0.778
67612W        W36085   9.263  35.070  10.966
67613W        W36086  33.998  18.593   1.404
67614W        W36087  13.228  26.687  14.931
67615W        W36088  14.179  33.912  13.449
67616W        W36089  38.883  19.186   5.098
67617W        W36090  10.238   5.319   3.667
67618W        W36091   7.367   8.359   2.776
67619W        W36092  11.332  30.141  13.468
67620W        W36093  25.587   7.188   3.264
67621W        W36094  13.271  13.654  11.384
67622W        W36095   7.199   7.882  10.991
67623W        W36096  42.881   8.274  11.424
67624W        W36097  32.921  20.247  12.450
67625W        W36098  30.092   6.346   2.849
67626W        W36099  12.818  37.016   4.799
67627W        W36100  44.274   6.888   1.739
67628W        W36101  12.675  40.873  14.513
67629W        W36102  22.738  16.753  12.916
67630W        W36103  21.706  38.355   2.742
67631W        W36104  42.486  38.432   0.360
67632W        W36105  43.000  28.485   0.965
67633W        W36106  21.658  12.735  13.839
67634W        W36107  39.530   7.256  11.503
67635W        W36108  29.978  38.519   3.829
67636W        W36109  26.099  32.618  14.787
67637W        W36110   5.294  39.964  11.374
67638W        W36111  36.876  16.129  14.506
67639W        W36112  43.820  23.084  14.824
67640W        W36113  10.273  31.958  13.884
67641W        W36114  19.087   8.189  11.419
67642W        W36115  33.113  40.472   1.847
67643W        W36116   2.246  44.754   2.277
67644W        W36117   7.819  18.588   2.288
67645W        W36118  16.719  30.943  12.961
67646W        W36119  22.734   5.252   3.736
67647W        W36120  24.217   3.798   2.717
67648W        W36121  31.003  27.130  10.906
67649W        W36122  28.612   7.245   2.197
67650W        W36123  17.779  35.501  14.899
67651W        W36124  42.865  13.307   3.785
67652W        W36125  27.665   0.792   1.246
67653W        W36126  22.589  23.617   3.837
67654W        W36127  12.838   7.180  13.795
67655W        W36128  38.822  17.286   5.276
67656W        W36129  20.616  42.439   1.738
67657W        W36130  35.565   2.795  11.039
67658W        W36131  24.033  17.640  11.574
67659W        W36132  37.407  37.552   4.764
67660W        W36133  18.590   5.427   0.329
67661W        W36134  38.349  20.674  10.441
67662W        W36135   8.180  10.750  14.288
67663W        W36136  21.114  26.149  11.904
67664W        W36137  28.654  29.587   2.193
67665W        W36138  12.284  39.047   2.833
67666W        W36139   2.251   8.273  11.862
67667W        W36140  34.529   7.212   4.682
67668W        W36141  34.004  12.127   1.244
67669W        W36142  13.670  22.236   0.835
67670W        W36143  43.311  17.754   2.695
67671W        W36144   1.896  22.574  10.998
67672W        W36145   8.866  29.932   4.271
67673W        W36146  41.830  29.639   0.955
67674W        W36147  29.490  10.815   4.292
67675W        W36148  16.723  22.558   1.914
67676W        W36149  36.537  14.315  12.915
67677W        W36150  37.956  41.853  11.866
67678W        W36151   2.943  23.224   4.186
67679W        W36152  14.592  31.453   4.201
67680W        W36153  15.225  18.784   2.748
67681W        W36154  25.151  25.481  14.018
67682W        W36155  42.455  23.526  10.980
67683W        W36156   2.270  38.552   1.924
67684W        W36157  13.112  40.371   1.376
67685W        W36158  18.110   7.390   1.741
67686W        W36159   2.473   8.250   3.193
67687W        W36160  25.187  12.314  10.452
67688W        W36161  28.014  21.260   5.144
67689W        W36162  31.048  23.137   4.799
67690W        W36163  28.597  32.986  11.013
67691W        W36164  21.161  22.191   2.239
67692W        W36165  22.608  39.387   2.349
67693W        W36166  23.621   5.237   0.845
67694W        W36167  27.944  33.601   2.800
67695W        W36168   5.767  43.352  10.967
67696W        W36169  14.667   1.938   3.710
67697W        W36170  11.202  43.471   1.765
67698W        W36171  31.982   2.748  11.424
67699W        W36172  32.592   1.904  12.889
67700W        W36173  20.625  24.023   2.337
67701W        W36174   2.258  19.204   1.443
67702W        W36175  13.208   2.836  12.492
67703W        W36176  22.130  15.312  13.379
67704W        W36177  23.010   3.836   2.206
67705W        W36178   2.313  13.130   2.350
67706W        W36179   0.316   5.415   0.945
67707W        W36180  15.672  40.866   9.607
67708W        W36181  37.937  37.377  12.955
67709W        W36182  18.563  15.642   2.185
67710W        W36183  23.103  11.329  12.445
67711W        W36184   8.758  43.934  13.938
67712W        W36185  41.522  40.873  13.537
67713W        W36186  29.541  16.599   2.819
67714W        W36187   4.412  12.136  14.509
67715W        W36188  11.735  33.530   3.695
67716W        W36189  21.629  36.911   0.926
67717W        W36190  12.278   9.670   2.858
67718W        W36191  10.235   3.393  14.377
67719W        W36192  35.039  12.131   1.218
67720W        W36193   4.710  39.013   3.814
67721W        W36194  35.440  37.035   2.355
67722W        W36195  30.515  11.145  13.857
67723W        W36196  38.433  11.679  11.598
67724W        W36197  22.225   2.265   2.779
67725W        W36198  16.752  13.634  11.044
67726W        W36199  44.783  22.669  14.960
67727W        W36200  21.085  21.110  11.067
67728W        W36201  44.422   8.714   1.845
67729W        W36202  40.426  13.310  13.486
67730W        W36203  21.597  16.142  11.903
67731W        W36204  30.123  11.253  11.397
67732W        W36205   7.777  19.128  11.482
67733W        W36206   0.381  20.721   1.393
67734W        W36207  26.609  23.064  14.438
67735W        W36208  13.294  30.537   3.218
67736W        W36209  26.147  34.104   0.946
67737W        W36210  38.861  37.851   0.364
67738W        W36211   4.287  34.484   4.758
67739W        W36212  31.922  12.226  12.881
67740W        W36213  19.576  44.953  11.991
67741W        W36214  28.565  25.470   4.743
67742W        W36215  42.932  32.492  12.388
67743W        W36216  30.445   0.852   4.152
67744W        W36217   9.823  36.060  12.578
67745W        W36218  21.095  17.078  12.830
67746W        W36219  39.041  38.897   1.252
67747W        W36220   1.808   7.228   1.907
67748W        W36221   4.833  12.176  12.542
67749W        W36222  34.012  27.165  10.534
67750W        W36223   7.728  20.759  10.614
67751W        W36224   4.398  41.448   1.698
67752W        W36225  16.666  40.881   4.624
67753W        W36226  29.454  16.567  13.318
67754W        W36227  16.216   5.921   3.870
67755W        W36228  30.037  15.273  12.000
67756W        W36229   5.691   7.754   3.770
67757W        W36230  35.976  37.998  13.025
67758W        W36231  41.987  36.027   2.391
67759W        W36232   0.847  39.813  11.993
67760W        W36233  33.525  10.241  13.882
67761W        W36234   7.798   4.243  11.411
67762W        W36235  21.254  14.294   1.858
67763W        W36236  33.615   3.338  10.636
67764W        W36237  21.254  14.117   3.656
67765W        W36238  31.501  36.524  10.972
67766W        W36239   9.390  42.393   3.331
67767W        W36240  38.860  29.461   0.796
67768W        W36241  21.569  33.537   4.182
67769W        W36242  11.281  35.077   5.160
67770W        W36243  37.935  31.056  13.947
67771W        W36244  24.147   5.305   4.331
67772W        W36245  21.102  42.462   0.818
67773W        W36246  33.557  10.364   3.326
67774W        W36247   5.871  34.002  12.944
67775W        W36248  10.853  31.131  14.330
67776W        W36249  34.976  23.518  12.831
67777W        W36250  37.456  10.834   2.692
67778W        W36251  35.989  10.184   3.864
67779W        W36252  13.698  11.202   0.427
67780W        W36253   8.359  17.241  12.526
67781W        W36254  33.593  37.481  12.511
67782W        W36255  24.112  35.426   1.869
67783W        W36256   7.409   4.416   5.180
67784W        W36257  25.063  26.167   2.219
67785W        W36258  39.810  27.688   1.281
67786W        W36259  13.315  41.326   4.658
67787W        W36260  17.701  23.172  12.061
67788W        W36261  12.838  43.993   3.227
67789W        W36262  17.079  36.365   2.838
67790W        W36263  34.564  44.958   0.347
67791W        W36264  32.965   3.422   4.709
67792W        W36265  20.610  17.201  10.534
67793W        W36266   5.797  30.603  10.890
67794W        W36267  21.040  27.501   2.276
67795W        W36268  17.092  26.128  11.601
67796W        W36269  32.952  21.689  13.944
67797W        W36270  21.065  18.743  13.431
67798W        W36271  10.196  41.465   2.687
67799W        W36272  11.665  38.897   4.618
67800W        W36273  20.248  11.200   2.360
67801W        W36274   5.236   7.710   2.698
67802W        W36275  42.433  32.131   3.264
67803W        W36276  10.720  21.590   4.810
67804W        W36277  34.894  34.963   0.378
67805W        W36278  34.903  18.745  13.532
67806W        W36279  17.725  39.044   5.205
67807W        W36280  27.510  37.041   3.637
67808W        W36281   4.791  23.127   4.116
67809W        W36282  22.549  43.916   2.397
67810W        W36283  19.633  29.484   2.250
67811W        W36284  16.594  44.953   2.255
67812W        W36285  41.037  39.996   4.670
67813W        W36286  28.562  33.032   1.370
67814W        W36287  41.826  12.771   4.121
67815W        W36288  36.469  23.734   3.291
67816W        W36289  33.485  25.634  14.452
67817W        W36290  44.389  15.607  13.938
67818W        W36291   2.369  17.068  13.877
67819W        W36292   0.473  31.600   4.669
67820W        W36293  28.636  29.516   2.664
67821W        W36294  18.114  10.636  11.099
67822W        W36295  17.126  28.960   3.638
67823W        W36296  23.146  13.777   1.227
67824W        W36297   4.328  32.403  11.468
67825W        W36298  40.051   5.856  13.315
67826W        W36299  33.518  36.390  12.991
67827W        W36300  39.499   4.904   4.327
67828W        W36301   1.792  16.639  13.376
67829W        W36302  24.983  26.178   3.851
67830W        W36303   0.778  21.589  14.911
67831W        W36304  26.963  13.644  13.325
67832W        W36305  30.546  42.894   1.896
67833W        W36306   8.707  39.482  11.587
67834W        W36307  23.712   4.815   3.308
67835W        W36308   2.362  40.450  11.071
67836W        W36309  17.737  26.192  11.944
67837W        W36310   8.349   1.415  13.965
67838W        W36311  43.961  20.088   0.261
67839W        W36312   3.322  19.725  13.948
67840W        W36313  37.987   3.337  13.921
67841W        W36314  21.241  38.385  12.998
67842W        W36315   0.877  11.290  12.008
67843W        W36316  15.763  29.477   0.434
67844W        W36317  11.128  14.656   3.254
67845W        W36318  21.687   8.228   4.764
67846W        W36319  29.108   9.854  14.787
67847W        W36320  27.013  40.971  13.933
67848W        W36321   7.392  43.936  13.922
67849W        W36322   5.245  35.923   4.771
67850W        W36323  23.546   1.946  12.834
67851W        W36324  28.070  31.530  12.912
67852W        W36325  25.135  36.075   3.226
67853W        W36326  32.592  17.562  10.955
67854W        W36327  40.003  32.407   3.248
67855W        W36328   3.758  25.526   2.207
67856W        W36329  30.555  42.845  12.521
67857W        W36330   8.174   9.340   2.288
67858W        W36331  15.661  13.834   4.217
67859W        W36332  14.745  41.834  10.438
67860W        W36333  37.521  27.499  12.896
67861W        W36334  35.371  12.182  12.498
67862W        W36335   4.303  42.938   4.207
67863W        W36336  37.459  18.784  13.910
67864W        W36337  43.419  37.549  10.466
67865W        W36338  37.892  26.602   0.891
67866W        W36339  42.413  32.926   2.864
67867W        W36340  12.818  36.363  14.841
67868W        W36341   2.271  19.205  14.464
67869W        W36342  37.497   7.691  14.964
67870W        W36343   0.752  14.308   2.317
67871W        W36344   6.186  10.669  13.859
67872W        W36345  37.510  22.564   4.810
67873W        W36346   0.387  17.663  14.359
67874W        W36347   8.349  16.711   3.219
67875W        W36348  17.566  28.467   0.257
67876W        W36349  38.354  31.944   0.249
67877W        W36350  18.629   6.224  13.454
67878W        W36351  11.680  32.597  14.393
67879W        W36352  36.553  27.530   1.860
67880W        W36353  27.160  10.832   2.741
67881W        W36354   2.722   2.724  13.381
67882W        W36355  13.715   8.295   2.762
67883W        W36356  26.539  28.082  12.037
67884W        W36357  37.421   2.948  12.366
67885W        W36358  42.839  27.955  13.956
67886W        W36359  39.470  43.400  11.922
67887W        W36360  26.588  20.741   3.731
67888W        W36361  40.972  19.626  11.550
67889W        W36362  21.041   0.964   4.127
67890W        W36363  12.812  42.349  11.386
67891W        W36364  43.476  17.066   2.332
67892W        W36365  27.547  29.570  14.967
67893W        W36366  19.141  24.577   4.604
67894W        W36367  16.609   4.423  14.883
67895W        W36368  28.005  22.117  11.963
67896W        W36369  19.643  17.688  11.064
67897W        W36370  14.761   7.311   0.274
67898W        W36371  22.109  34.914   3.786
67899W        W36372  33.479  23.000  14.905
67900W        W36373  38.360   9.209  11.503
67901W        W36374   1.905  43.386  13.512
67902W        W36375  13.266  14.700  12.917
67903W        W36376  21.241  17.664   4.148
67904W        W36377  27.473  20.121  13.878
67905W        W36378  32.548  44.405  12.835
67906W        W36379  40.370  34.081   0.313
67907W        W36380   6.322  27.657   3.866
67908W        W36381  31.015  15.728  13.379
67909W        W36382  22.094  18.223  11.068
67910W        W36383  41.472   0.273   0.850
67911W        W36384  21.644  44.428   1.376
67912W        W36385   6.330  37.031   3.214
67913W        W36386  39.548   1.414   4.724
67914W        W36387  25.515  24.088  12.867
67915W        W36388  13.108  32.421   4.682
67916W        W36389  38.563   6.401  13.819
67917W        W36390  13.332  24.042   0.290
67918W        W36391   7.669  10.358   3.210
67919W        W36392  13.152  16.665   2.216
67920W        W36393  39.945  18.640  10.911
67921W        W36394  28.955  44.780  11.913
67922W        W36395  33.111  22.568   1.440
67923W        W36396  33.118  43.911   2.260
67924W        W36397  33.454   9.759  11.050
67925W        W36398   4.402   7.838  13.883
67926W        W36399   6.321  31.582  12.523
67927W        W36400  12.244  10.275   0.877
67928W        W36401  22.240  30.498  13.057
67929W        W36402  12.775  42.946   1.908
67930W        W36403  31.150   7.411  14.440
67931W        W36404   5.835  35.427   3.646
67932W        W36405  36.893  32.560  13.800
67933W        W36406   0.342  37.538   1.244
67934W        W36407   8.710  43.765   1.286
67935W        W36408  14.218  12.810  10.619
67936W        W36409  43.970  37.518  11.975
67937W        W36410   9.775  36.347   3.803
67938W        W36411  19.071   2.819  13.934
67939W        W36412   0.843  35.549   3.844
67940W        W36413  40.951   0.804   3.330
67941W        W36414  27.026  36.567   0.905
67942W        W36415  42.456  24.703  11.878
67943W        W36416  37.878  28.126   1.889
67944W        W36417  30.105  13.600   4.351
67945W        W36418  35.996   7.193   0.869
67946W        W36419  31.902   4.227  10.534
67947W        W36420  19.210  44.417   4.753
67948W        W36421   6.397  22.150   3.857
67949W        W36422  33.464  24.689   0.346
67950W        W36423  42.945  43.779   4.703
67951W        W36424  38.054   7.252  12.497
67952W        W36425   3.956   4.898   4.254
67953W        W36426   9.809  43.890  10.895
67954W        W36427  40.438  44.896   1.285
67955W        W36428  36.980   1.432   1.223
67956W        W36429  28.017   9.717   4.700
67957W        W36430  18.071   0.881  12.349
67958W        W36431  10.304   6.281   2.267
67959W        W36432  21.207  37.943   2.294
67960W        W36433  27.479  17.237  12.843
67961W        W36434  35.903   1.859   2.793
67962W        W36435  13.687  40.034  12.020
67963W        W36436  24.061  12.705  14.990
67964W        W36437  20.664  35.531   4.680
67965W        W36438  18.188  11.354  11.893
67966W        W36439  37.847  33.030  12.969
67967W        W36440  11.235  44.840  14.766
67968W        W36441  17.231  44.804   1.706
67969W        W36442   5.784  29.044  14.787
67970W        W36443   6.842  35.568  10.928
67971W        W36444  36.583   1.837   2.761
67972W        W36445  24.592  43.463  13.474
67973W        W36446  23.000   6.346   0.776
67974W        W36447  26.621  14.286  11.974
67975W        W36448   3.712   6.388   3.181
67976W        W36449  37.383  20.748  13.831
67977W        W36450   6.368  15.238  14.838
67978W        W36451  11.132  36.591  12.456
67979W        W36452  21.198  31.473  13.955
67980W        W36453  15.151  41.361  14.508
67981W        W36454   5.910   8.336   0.742
67982W        W36455  19.742  35.041   0.272
67983W        W36456  16.218   6.192  14.940
67984W        W36457  44.973   3.320  14.762
67985W        W36458  18.190  16.804  14.382
67986W        W36459  13.273  15.646   5.293
67987W        W36460  23.988  39.884   4.697
67988W        W36461  14.302  19.771   4.731
67989W        W36462  20.748  15.175   0.917
67990W        W36463   2.775   6.835  13.508
67991W        W36464  12.749   8.841   2.785
67992W        W36465   4.712  11.299   2.737
67993W        W36466  26.509   8.716  10.931
67994W        W36467  25.610   7.201   4.275
67995W        W36468  28.616  28.974  10.983
67996W        W36469   0.901  40.515   4.794
67997W        W36470  31.479   2.362  12.020
67998W        W36471   3.360  18.058  14.889
67999W        W36472  39.550  23.569  12.013
68000W        W36473  36.552  33.077  12.923
68001W        W36474  32.573  20.540   0.745
68002W        W36475  31.420  28.952  12.026
68003W        W36476  13.755  17.290  11.548
68004W        W36477  28.478  15.661  12.551
68005W        W36478  21.750  10.865   3.192
68006W        W36479  11.372  33.024   0.343
68007W        W36480  38.844   7.216   1.310
68008W        W36481   5.331  18.286   2.206
68009W        W36482  15.611  13.184  12.457
68010W        W36483   1.295  21.194  14.306
68011W        W36484  35.009  28.594  14.877
68012W        W36485  28.604  34.608   3.209
68013W        W36486   6.397  43.765   0.748
68014W        W36487  31.508  36.081   0.834
68015W        W36488  13.703  25.557  11.604
68016W        W36489  22.235  18.126  14.937
68017W        W36490  18.572  23.059   0.331
68018W        W36491  23.696   9.857  14.914
68019W        W36492  30.585  25.542   1.757
68020W        W36493  11.858  12.241  14.870
68021W        W36494  10.192  16.635  11.432
68022W        W36495  31.554   2.787  14.018
68023W        W36496  39.540  30.575   0.400
68024W        W36497  27.055  40.470  10.096
68025W        W36498  31.000   4.724  10.569
68026W        W36499  10.364  44.944   3.841
68027W        W36500  17.105  17.707   1.804
68028W        W36501  11.733   2.445   0.924
68029W        W36502   3.361  29.524   0.482
68030W        W36503  33.519  27.609   2.225
68031W        W36504  27.949  36.369   0.389
68032W        W36505  34.514  39.356  12.562
68033W        W36506  33.892  44.797  11.049
68034W        W36507  42.950  32.096  13.921
68035W        W36508  14.151  44.308  10.428
68036W        W36509  42.408   7.285  12.013
68037W        W36510   1.822   1.836   0.828
68038W        W36511   9.804  36.369   5.093
68039W        W36512  31.528  40.341  14.441
68040W        W36513  23.054  35.859  13.418
68041W        W36514   8.324  40.527   0.264
68042W        W36515  21.656  34.433   2.333
68043W        W36516  44.927  35.557   0.924
68044W        W36517  21.742  20.184   2.805
68045W        W36518  22.045  35.092   1.441
68046W        W36519  39.334  12.352  13.876
68047W        W36520  26.201  37.997   3.809
68048W        W36521   4.761  21.589   0.306
68049W        W36522  42.878  22.995  14.493
68050W        W36523   4.381  11.764  11.374
68051W        W36524   2.336  44.863   0.869
68052W        W36525  19.567  36.350  14.395
68053W        W36526  27.451  14.788  11.083
68054W        W36527   3.218  28.444  11.893
68055W        W36528  41.463  22.997   0.824
68056W        W36529   9.168   1.281   2.316
68057W        W36530  28.059  33.876   3.323
68058W        W36531  23.638   9.724   2.753
68059W        W36532  25.535   9.227   1.390
68060W        W36533  27.945  20.195  10.608
68061W        W36534  21.133   9.247  13.057
68062W        W36535  41.341  10.361  12.359
68063W        W36536  27.448   2.802   1.373
68064W        W36537  43.366   3.836  14.328
68065W        W36538  12.262  22.188   2.294
68066W        W36539  19.073  30.610  13.330
68067W        W36540  20.753  28.504  14.771
68068W        W36541  29.504  20.137   4.301
68069W        W36542  19.051  10.837   2.182
68070W        W36543  44.300  24.606   4.156
68071W        W36544  23.731  13.107  13.859
68072W        W36545  29.536  16.102  11.455
68073W        W36546  37.371  41.040  11.504
68074W        W36547  39.900  14.096   1.793
68075W        W36548  26.520  22.113   3.345
68076W        W36549  14.806  43.445  14.377
68077W        W36550  39.011   7.854   4.711
68078W        W36551  24.978  31.449  11.913
68079W        W36552  28.094  29.535  13.043
68080W        W36553  20.584   9.859   2.345
68081W        W36554  26.510   9.840   3.344
68082W        W36555   1.795  12.640  14.492
68083W        W36556  31.090  38.522  14.342
68084W        W36557  33.905  29.479  13.477
68085W        W36558  23.728  41.960   1.758
68086W        W36559  11.222  37.347   3.167
68087W        W36560  28.957  13.123  11.521
68088W        W36561   9.341  12.172   0.903
68089W        W36562   2.858  43.837   1.785
68090W        W36563  43.472  10.264  14.898
68091W        W36564  40.916  33.009  11.083
68092W        W36565  30.474  11.785   0.413
68093W        W36566  19.679  42.976   0.304
68094W        W36567  38.396  31.550   2.195
68095W        W36568  38.035  36.355   1.860
68096W        W36569  44.938  44.347   2.685
68097W        W36570  11.156  21.618  13.911
68098W        W36571   5.362  37.369   0.955
68099W        W36572   4.853  41.331   2.264
68100W        W36573  39.050  31.412   9.952
68101W        W36574  17.612  24.607  14.814
68102W        W36575  44.869  17.766   3.690
68103W        W36576  36.038  12.331  10.425
68104W        W36577  38.050  30.952   1.257
68105W        W36578   1.284  32.956  14.788
68106W        W36579  29.020  13.794   3.798
68107W        W36580  44.846  20.106   1.238
68108W        W36581  32.533  33.121   1.330
68109W        W36582  32.937  29.582   2.814
68110W        W36583   8.294  15.173  11.430
68111W        W36584  30.908  12.296  11.563
68112W        W36585  21.040  11.721   1.357
68113W        W36586  39.409  14.695  12.496
68114W        W36587  40.001  11.221   3.662
68115W        W36588  28.481  44.350   2.782
68116W        W36589  35.562  40.347   3.298
68117W        W36590  11.358  33.999   5.157
68118W        W36591  10.770  38.968   0.873
68119W        W36592   0.895  38.039   0.331
68120W        W36593  34.024   3.374  14.324
68121W        W36594   0.976  42.415   0.938
68122W        W36595   7.200   7.682   1.911
68123W        W36596  32.079  35.523  12.364
68124W        W36597  10.187  44.293   4.624
68125W        W36598  20.624   6.399   0.429
68126W        W36599  25.706   2.875   4.307
68127W        W36600  31.618  33.484   2.341
68128W        W36601  41.328   9.276   3.358
68129W        W36602  25.077  43.322  14.485
68130W        W36603  27.665  39.871  14.871
68131W        W36604   4.721  14.287  14.991
68132W        W36605  32.497   6.906   2.282
68133W        W36606  25.516  23.541  11.037
68134W        W36607  18.236  33.969   2.798
68135W        W36608  26.997  24.178   0.735
68136W        W36609  42.977   8.393   4.720
68137W        W36610  15.715  20.533   1.846
68138W        W36611  40.921  21.674  13.025
68139W        W36612  29.582   0.331  10.432
68140W        W36613  15.215  35.992   4.731
68141W        W36614  32.599  24.701  12.046
68142W        W36615  22.218   0.431  12.450
68143W        W36616   4.421   1.935  12.979
68144W        W36617   8.276  12.693  12.037
68145W        W36618  28.171   9.165  12.465
68146W        W36619  30.502  44.972   3.322
68147W        W36620   3.238  29.667   3.685
68148W        W36621  39.890  12.210   2.797
68149W        W36622  13.289  39.456  11.511
68150W        W36623  38.819  31.934  11.594
68151W        W36624   2.967  35.886  14.475
68152W        W36625  28.078   0.904   2.398
68153W        W36626  35.905  40.462  13.885
68154W        W36627  13.144  37.418   0.352
68155W        W36628  36.952  33.056   0.941
68156W        W36629  28.069   0.753   4.791
68157W        W36630  30.452   9.788   4.620
68158W        W36631   6.346  16.741  14.902
68159W        W36632  36.589  13.258  13.439
68160W        W36633  43.374  34.445   0.860
68161W        W36634   8.781  18.218   2.377
68162W        W36635  43.291  40.391  12.009
68163W        W36636   4.377  32.100  10.445
68164W        W36637  39.033   6.747   4.309
68165W        W36638  35.549  14.280   4.273
68166W        W36639  36.431   2.434   2.324
68167W        W36640  41.921  41.795   4.730
68168W        W36641  43.785  11.704   4.185
68169W        W36642  42.881  23.702  12.920
68170W        W36643  27.098  26.543   4.693
68171W        W36644  13.632   7.718  11.574
68172W        W36645  22.732   7.781   5.258
68173W        W36646  30.004   9.163  10.892
68174W        W36647   6.231   8.754   2.722
68175W        W36648  20.104  44.435  10.551
68176W        W36649  10.793  20.601   4.691
68177W        W36650  27.113   9.720  13.308
68178W        W36651   5.290  16.705   0.441
68179W        W36652  10.788  40.958  14.026
68180W        W36653  25.985  34.393  11.074
68181W        W36654   4.778  22.525   4.215
68182W        W36655  29.157  25.205  13.359
68183W        W36656  31.600  35.479  14.860
68184W        W36657  43.419  32.451   4.661
68185W        W36658  13.147  11.643  12.957
68186W        W36659  24.111  28.050   2.779
68187W        W36660   6.690   1.970   0.379
68188W        W36661  26.672  37.419   1.882
68189W        W36662  34.601  17.734   0.963
68190W        W36663  33.894  10.150   2.903
68191W        W36664  16.630   9.384   3.721
68192W        W36665   2.722   1.383   1.340
68193W        W36666  44.351   2.419  12.005
68194W        W36667  31.104  44.811   0.772
68195W        W36668  37.088  10.349  11.903
68196W        W36669   1.394  43.002   0.740
68197W        W36670   9.238   5.887   4.178
68198W        W36671  21.724  43.502  13.425
68199W        W36672  17.281   6.918  12.499
68200W        W36673  25.205  17.134   5.096
68201W        W36674  22.051  36.446  13.361
68202W        W36675  26.563   7.291  13.883
68203W        W36676  38.046  23.135  10.522
68204W        W36677  30.537  44.283   9.981
68205W        W36678  19.090   3.409  12.952
68206W        W36679   7.741   4.706  13.519
68207W        W36680   6.390  17.206   0.838
68208W        W36681  14.305  35.455  12.415
68209W        W36682  35.589  30.575  10.527
68210W        W36683  20.049  25.687  10.508
68211W        W36684  21.150  17.258   3.235
68212W        W36685  29.986  14.695   3.386
68213W        W36686   0.772  17.555  13.965
68214W        W36687  31.001  32.911  10.470
68215W        W36688  12.333   9.273  13.030
68216W        W36689  39.516  31.946   0.834
68217W        W36690  32.939  21.022  12.048
68218W        W36691  11.261  35.563  12.411
68219W        W36692  21.592  16.712   2.256
68220W        W36693  26.010  29.146   2.292
68221W        W36694  19.177   5.369   0.772
68222W        W36695  39.473  10.285   2.854
68223W        W36696  34.021   2.372  12.917
68224W        W36697   4.852  41.526  13.866
68225W        W36698  40.878   1.949  11.466
68226W        W36699   2.311  28.499   3.386
68227W        W36700  33.591   1.843  14.395
68228W        W36701  21.183  13.264  10.553
68229W        W36702  39.518  43.857  13.395
68230W        W36703   7.377  38.386   2.850
68231W        W36704   9.260  33.561  11.399
68232W        W36705  25.682  30.543  10.434
68233W        W36706  42.818  29.959   2.854
68234W        W36707   6.698  23.067  11.969
68235W        W36708  30.548  40.947   4.627
68236W        W36709  33.388  38.557  12.830
68237W        W36710  12.731  14.205  13.058
68238W        W36711   2.328  26.473   5.207
68239W        W36712  23.047  21.633  13.469
68240W        W36713  22.699  28.119   1.386
68241W        W36714  24.995  43.464  14.800
68242W        W36715  14.782  10.156  13.819
68243W        W36716  31.534  12.649  13.423
68244W        W36717  41.371  30.602   3.705
68245W        W36718  24.487   1.735  14.932
68246W        W36719   7.354  30.940  10.963
68247W        W36720  23.062   2.398   2.230
68248W        W36721  39.841   7.330  10.520
68249W        W36722  41.826  21.182  11.380
68250W        W36723  43.817   4.915   0.767
68251W        W36724   3.327  21.047   2.680
68252W        W36725  43.921  37.915  12.896
68253W        W36726  30.076   1.341   3.706
68254W        W36727  40.400  24.496   1.890
68255W        W36728  16.179  44.406  10.522
68256W        W36729  42.349   4.789  14.901
68257W        W36730  32.895  35.059   2.735
68258W        W36731  26.463  28.934   4.290
68259W        W36732   6.270  44.362  11.046
68260W        W36733  34.012  38.493  13.438
68261W        W36734   5.321  44.964  10.609
68262W        W36735  21.689  28.651   0.421
68263W        W36736   7.403   3.238  12.006
68264W        W36737  26.966   0.419  10.107
68265W        W36738  42.469  31.608   3.280
68266W        W36739  16.581  28.970  10.495
68267W        W36740  18.278  30.596  12.555
68268W        W36741  34.078   9.150  14.911
68269W        W36742  14.334  10.276   2.267
68270W        W36743  37.020   6.399   1.309
68271W        W36744  39.529  42.463  10.574
68272W        W36745  33.889   5.306   2.382
68273W        W36746  22.080  24.635   0.967
68274W        W36747   0.748   8.360   3.791
68275W        W36748   8.271  17.297   0.753
68276W        W36749  43.848  10.352  14.005
68277W        W36750  35.908  13.341  14.814
68278W        W36751  41.309  12.782   3.724
68279W        W36752   8.684  15.812  14.970
68280W        W36753  33.576  36.578   3.682
68281W        W36754  12.277  35.935   0.948
68282W        W36755  11.733  23.622  13.849
68283W        W36756  41.015  18.767   3.234
68284W        W36757   6.400  42.305   0.447
68285W        W36758  21.709  33.481   1.297
68286W        W36759  13.796  23.008   0.907
68287W        W36760  38.526  31.132   1.882
68288W        W36761  15.697  24.086  13.923
68289W        W36762  20.121   1.807   1.763
68290W        W36763  17.798  24.193  11.454
68291W        W36764  24.209   2.783   1.796
68292W        W36765  35.389  32.609  14.352
68293W        W36766  23.233  31.920  10.630
68294W        W36767  21.745  20.754  12.386
68295W        W36768  34.531  41.535  10.600
68296W        W36769  12.301   1.847  10.445
68297W        W36770   1.378  28.959  12.547
68298W        W36771  33.946  17.275  14.466
68299W        W36772  40.924  33.535   1.710
68300W        W36773  44.304   8.198  10.510
68301W        W36774   9.264  33.950   2.221
68302W        W36775  37.954   5.235   1.793
68303W        W36776  34.516  12.671  14.905
68304W        W36777  14.228  39.448  13.535
68305W        W36778  16.678  23.131   0.848
68306W        W36779   2.340   1.268   3.837
68307W        W36780  31.613  27.015   4.222
68308W        W36781  35.533  39.503   2.381
68309W        W36782  12.650  18.179  10.645
68310W        W36783  17.585   5.222  13.803
68311W        W36784  21.095   3.433  14.387
68312W        W36785  43.792  22.691   3.781
68313W        W36786  23.673  44.311   4.786
68314W        W36787  28.970  22.111  13.314
68315W        W36788  33.954  32.134  13.498
68316W        W36789  35.593  40.397  11.564
68317W        W36790  30.911  40.418  11.097
68318W        W36791   9.694   7.238   0.774
68319W        W36792  22.535  30.587   5.322
68320W        W36793  36.473   6.354  14.832
68321W        W36794  22.745  19.609   3.277
68322W        W36795  42.904  12.772  12.487
68323W        W36796   6.309  13.125   0.469
68324W        W36797   9.774   5.799  10.991
68325W        W36798  40.326   0.794  11.104
68326W        W36799  39.488  32.485   3.866
68327W        W36800  38.515  16.310   0.306
68328W        W36801  34.898   6.383  12.441
68329W        W36802  14.179  42.434   1.227
68330W        W36803  17.120  10.237   1.338
68331W        W36804  35.006   2.252   1.237
68332W        W36805  26.539   6.367   1.316
68333W        W36806  32.452  41.910  13.326
68334W        W36807  17.078  37.015  11.050
68335W        W36808  29.154  29.642   0.741
68336W        W36809   4.775  40.054  12.347
68337W        W36810   1.306   9.197   3.744
68338W        W36811  25.095  27.015  11.942
68339W        W36812  32.944   5.763  13.054
68340W        W36813  13.195  10.200  12.490
68341W        W36814  30.116   1.292  12.433
68342W        W36815  12.159  36.991  10.975
68343W        W36816   7.816  13.292   0.831
68344W        W36817  26.649  19.049  14.765
68345W        W36818  15.793   6.755   4.803
68346W        W36819   3.425  37.082   0.459
68347W        W36820  15.132  23.520  14.983
68348W        W36821  25.564  23.603   2.409
68349W        W36822  31.010  14.143   1.371
68350W        W36823  22.084   7.205  14.026
68351W        W36824  25.528  42.378   2.775
68352W        W36825  16.199  32.104   4.754
68353W        W36826  10.349  15.237   3.694
68354W        W36827  40.013  14.327   2.204
68355W        W36828  31.565  27.685  14.374
68356W        W36829  38.020  17.578   4.809
68357W        W36830  31.559  42.301  13.896
68358W        W36831  31.624   4.296   4.726
68359W        W36832  17.125   9.782   0.351
68360W        W36833   2.839  13.782  10.413
68361W        W36834  13.277   8.836   0.336
68362W        W36835  34.065  29.548  10.417
68363W        W36836  22.105   4.214  14.496
68364W        W36837  44.312   8.387   4.628
68365W        W36838  28.466  13.135   2.208
68366W        W36839  38.358  12.736   1.309
68367W        W36840   2.929  29.571   1.401
68368W        W36841  18.570  21.712   4.310
68369W        W36842   2.399   1.463   0.874
68370W        W36843  33.386   2.850  13.358
68371W        W36844  20.648  26.641  10.110
68372W        W36845  20.698  29.000  11.859
68373W        W36846  17.147  18.117  14.443
68374W        W36847  34.513  26.121  12.025
68375W        W36848   3.920  12.626   2.783
68376W        W36849  25.634  23.092   0.251
68377W        W36850   7.821  18.600   3.314
68378W        W36851  35.477   0.255   4.250
68379W        W36852  38.954   9.863   4.146
68380W        W36853  35.949  20.560   2.192
68381W        W36854  42.778  21.714  10.472
68382W        W36855  20.523  28.449   2.418
68383W        W36856  22.715  21.584   3.658
68384W        W36857  18.716  38.064   1.366
68385W        W36858  25.188  35.362   1.281
68386W        W36859   1.469  41.791  14.445
68387W        W36860   1.404   3.906   2.347
68388W        W36861  40.507  17.115  14.376
68389W        W36862  23.117  10.827  12.979
68390W        W36863  41.450  33.895   0.905
68391W        W36864   5.819  33.536   3.195
68392W        W36865  20.533  37.991  10.459
68393W        W36866  29.931  15.681   2.330
68394W        W36867  20.141  28.537  12.541
68395W        W36868  29.526  28.519  12.035
68396W        W36869  40.374   4.410  11.452
68397W        W36870  12.143  32.938   3.261
68398W        W36871  13.636  22.610  11.001
68399W        W36872   9.234  33.481   3.343
68400W        W36873  38.044  20.044  14.460
68401W        W36874  27.478  23.548  14.987
68402W        W36875  10.740  13.121   1.756
68403W        W36876   1.366  20.704   1.414
68404W        W36877  12.169  22.526  11.470
68405W        W36878  26.085  14.740   1.792
68406W        W36879  33.561  36.417  14.811
68407W        W36880   9.338  21.210   3.272
68408W        W36881  14.328  33.072  11.424
68409W        W36882   2.447  31.577   4.227
68410W        W36883  41.993   5.933   3.695
68411W        W36884   9.768  41.005   4.317
68412W        W36885   4.288  10.737  13.059
68413W        W36886   0.444  40.540  13.423
68414W        W36887  36.414  22.139  12.015
68415W        W36888   7.715   3.454  13.902
68416W        W36889  36.426  32.968   4.767
68417W        W36890  33.476   2.858  12.459
68418W        W36891  35.898   7.840  13.545
68419W        W36892  26.131  26.965  14.297
68420W        W36893  39.019  21.244   9.965
68421W        W36894  25.575  42.900  14.904
68422W        W36895  29.986  28.150  13.872
68423W        W36896  43.012  10.754   0.874
68424W        W36897  35.048   6.693  13.810
68425W        W36898  28.986  22.623   3.338
68426W        W36899  37.548  24.664   2.203
68427W        W36900  39.054  44.785   3.707
68428W        W36901  31.582   4.699   1.447
68429W        W36902  32.511  19.630   2.355
68430W        W36903   0.758  38.027   1.916
68431W        W36904  28.023   8.824   2.886
68432W        W36905  26.096  20.175   0.317
68433W        W36906  36.866  34.440  11.105
68434W        W36907   9.293  34.386  12.893
68435W        W36908   0.865  40.804   0.253
68436W        W36909  33.040  44.006   0.416
68437W        W36910   9.789  17.118  11.555
68438W        W36911  10.365  39.967   3.782
68439W        W36912  27.072   6.423  12.061
68440W        W36913   5.741   7.844   4.785
68441W        W36914  16.303  24.550   3.271
68442W        W36915  34.370   5.733  13.871
68443W        W36916  30.475  19.563   0.867
68444W        W36917  36.951   8.881   3.233
68445W        W36918   9.655  40.053  12.973
68446W        W36919  36.370  31.536  12.408
68447W        W36920  25.506  23.735  14.018
68448W        W36921  19.042  12.269  13.389
68449W        W36922  41.298   2.825  14.450
68450W        W36923   2.746  34.874  13.055
68451W        W36924   2.315  40.538   4.213
68452W        W36925  34.465  33.429   3.292
68453W        W36926  29.051   3.889  10.972
68454W        W36927  12.255  37.511  13.859
68455W        W36928  34.564  33.913  12.425
68456W        W36929   7.756  10.760   2.759
68457W        W36930   5.828  12.839   5.131
68458W        W36931  17.638  31.102   1.287
68459W        W36932  26.177  32.989   4.277
68460W        W36933  33.561  14.824  11.388
68461W        W36934  35.988  28.655  12.985
68462W        W36935  34.945  35.089  13.475
68463W        W36936  28.084  22.006   3.714
68464W        W36937  42.845  27.607   3.172
68465W        W36938  21.257  38.416   3.385
68466W        W36939   3.951  40.953   1.316
68467W        W36940  13.159   1.923   0.349
68468W        W36941  30.118  12.186   2.860
68469W        W36942  15.798  14.325  13.836
68470W        W36943  19.107  40.858  11.435
68471W        W36944  40.829  36.960   2.336
68472W        W36945   2.398  36.542  11.393
68473W        W36946  35.018  27.541   0.309
68474W        W36947  11.642  40.996  10.540
68475W        W36948  17.601  11.165  11.124
68476W        W36949  10.665  44.922  14.404
68477W        W36950   9.885   8.375  13.964
68478W        W36951  29.455  36.034  10.488
68479W        W36952  32.996  41.039   4.229
68480W        W36953  18.707  43.804  13.526
68481W        W36954  31.524  27.590  11.435
68482W        W36955  17.297  39.341  11.879
68483W        W36956  35.044   4.236   2.197
68484W        W36957  37.549  29.466   0.796
68485W        W36958  14.698   7.798   0.959
68486W        W36959  31.511  27.132  11.938
68487W        W36960  42.336   9.654  13.847
68488W        W36961   9.194   7.233   1.397
68489W        W36962  16.801  21.694   3.800
68490W        W36963  33.439  43.992  14.832
68491W        W36964  32.112   4.352   3.656
68492W        W36965  23.569  11.359  12.994
68493W        W36966   3.868  38.907   1.812
68494W        W36967  22.180  14.219   4.310
68495W        W36968  33.018  25.668   4.282
68496W        W36969  33.480  16.711   1.824
68497W        W36970   7.257  29.112  10.565
68498W        W36971   6.725  34.007   4.666
68499W        W36972  37.030  35.542  13.968
68500W        W36973  37.871  36.491   0.412
68501W        W36974  12.357   5.390   3.696
68502W        W36975  13.686   5.880  11.987
68503W        W36976  41.894  44.906   0.733
68504W        W36977  18.154  34.486  14.800
68505W        W36978  16.123  28.589  11.897
68506W        W36979  17.075  35.862   1.916
68507W        W36980  26.048   7.893  14.924
68508W        W36981  32.906   0.381  14.313
68509W        W36982  33.084   8.346   3.267
68510W        W36983   3.947  31.145   0.772
68511W        W36984  38.327  26.972   0.727
68512W        W36985  40.923   5.770   0.834
68513W        W36986  20.100  16.094   4.340
68514W        W36987  41.493  15.279   1.837
68515W        W36988  11.752  23.068   0.811
68516W        W36989  16.607  10.835   3.635
68517W        W36990   3.854  43.803   0.467
68518W        W36991   8.757  35.013   4.641
68519W        W36992  42.979  11.733   1.427
68520W        W36993   7.779   2.286   1.761
68521W        W36994  29.565  42.322  12.478
68522W        W36995  12.307   4.870   1.724
68523W        W36996  27.508  18.243   1.282
68524W        W36997  44.946  40.835   1.259
68525W        W36998  29.999  19.659  11.612
68526W        W36999  31.923  24.081   3.810
68527W        W37000  24.183  17.157   4.147
68528W        W37001   3.744   9.751   3.868
68529W        W37002  16.742  12.748  12.397
68530W        W37003  23.183  43.317   1.260
68531W        W37004  28.479  32.534   2.662
68532W        W37005  44.328  10.358   5.161
68533W        W37006  34.525  39.961  13.846
68534W        W37007  24.503  12.844  11.550
68535W        W37008  25.146  27.097   4.309
68536W        W37009  40.430  11.625   1.824
68537W        W37010  10.171  33.445  11.390
68538W        W37011  25.489   7.261  11.945
68539W        W37012  27.037   2.241  14.872
68540W        W37013  25.049  13.661   1.266
68541W        W37014  24.715  12.751  11.930
68542W        W37015   8.279  36.963  13.942
68543W        W37016  35.032  32.029   0.845
68544W        W37017  16.755  19.540   0.957
68545W        W37018  37.041   2.906   0.963
68546W        W37019  10.810   5.430   2.235
68547W        W37020  39.376  34.907  12.051
68548W        W37021   1.393  38.044  12.446
68549W        W37022  20.274  43.964   4.211
68550W        W37023  23.162  32.075  11.855
68551W        W37024  44.263  21.704   2.413
68552W        W37025  43.306  21.550   0.820
68553W        W37026   8.375  44.847  12.090
68554W        W37027  41.858  28.604   2.674
68555W        W37028  44.460   1.812  12.353
68556W        W37029  21.512  37.940  12.407
68557W        W37030  28.585  40.882   0.813
68558W        W37031  10.367  22.218  13.808
68559W        W37032   8.353  38.887  14.422
68560W        W37033  14.137  24.169  13.362
68561W        W37034  13.666   5.809   3.842
68562W        W37035   9.371  27.524   4.210
68563W        W37036  25.105  37.018  11.554
68564W        W37037  24.125  28.483  11.922
68565W        W37038   1.903  28.571  12.464
68566W        W37039  10.241  41.329   1.328
68567W        W37040   6.682  15.770  11.441
68568W        W37041  28.932  32.560  12.924
68569W        W37042   2.246  15.310  12.939
68570W        W37043  34.972   7.193   4.209
68571W        W37044  33.931  40.382   1.233
68572W        W37045  27.956  14.320   2.852
68573W        W37046  18.709   9.239   0.397
68574W        W37047  36.466  14.702   1.362
68575W        W37048  10.222  20.542   1.731
68576W        W37049  16.573  43.770   0.444
68577W        W37050  29.127  12.118   0.909
68578W        W37051  36.362   1.918  14.493
68579W        W37052   0.928  35.016   0.317
68580W        W37053  27.020  43.373   2.704
68581W        W37054  23.539  22.593   3.180
68582W        W37055  27.568  30.935   4.225
68583W        W37056  31.135  31.070  13.526
68584W        W37057  19.253  17.759   2.354
68585W        W37058  12.121  31.612   3.815
68586W        W37059  17.135  39.975   0.430
68587W        W37060  26.601   9.364   0.449
68588W        W37061  23.707  37.381  13.962
68589W        W37062  40.366  17.718   0.292
68590W        W37063  26.669   9.666  13.822
68591W        W37064  37.911  17.229  12.537
68592W        W37065   9.248  14.176   0.839
68593W        W37066  13.626  44.819  14.965
68594W        W37067  34.371  23.141   0.860
68595W        W37068   4.768  13.209   5.097
68596W        W37069   0.887  29.529  12.941
68597W        W37070  21.754  17.800   3.640
68598W        W37071  39.876   2.296  11.973
68599W        W37072   0.455   6.255  11.117
68600W        W37073  24.487  19.283   2.794
68601W        W37074  21.112  32.017  14.787
68602W        W37075  19.767  26.596   4.222
68603W        W37076   7.201  28.030  12.380
68604W        W37077  33.059   3.712   4.725
68605W        W37078   8.391   3.931   1.223
68606W        W37079  30.985  15.250  12.892
68607W        W37080   0.767  17.251   2.857
68608W        W37081  38.940  23.989   3.261
68609W        W37082  26.521  44.871  11.407
68610W        W37083  10.320  19.265   0.371
68611W        W37084  10.867  28.516  11.888
68612W        W37085   1.302  21.540  12.896
68613W        W37086  21.199   1.806   0.327
68614W        W37087  32.955  23.032   0.299
68615W        W37088  40.021  26.534  10.946
68616W        W37089  27.679   4.316  13.982
68617W        W37090  43.875  25.177   4.696
68618W        W37091  33.976  19.046   0.878
68619W        W37092  39.503  20.179  13.931
68620W        W37093   2.283  22.136  11.042
68621W        W37094   3.776  40.462   0.475
68622W        W37095   6.718  33.500  11.482
68623W        W37096  21.588  31.568   2.417
68624W        W37097  27.640  31.551  11.070
68625W        W37098  19.140  10.796  13.042
68626W        W37099  30.115  44.858   1.301
68627W        W37100   7.740  10.146   5.160
68628W        W37101  11.252  35.856   3.153
68629W        W37102  12.710  28.109   4.187
68630W        W37103  31.095   0.742  14.829
68631W        W37104  21.028   7.284  13.011
68632W        W37105  19.550  26.556   2.209
68633W        W37106  16.723  33.529   0.818
68634W        W37107  26.112  22.715  12.874
68635W        W37108  31.115  35.856  11.464
68636W        W37109  14.216  10.641  14.281
68637W        W37110  37.970  35.592   1.794
68638W        W37111  30.060   9.238   4.218
68639W        W37112   0.345  15.180   1.762
68640W        W37113  36.962  43.396   1.374
68641W        W37114  11.236  33.887   3.845
68642W        W37115   5.231  12.176  10.595
68643W        W37116   4.275  40.835  14.972
68644W        W37117  24.218   3.899  14.012
68645W        W37118  40.811  33.566   4.209
68646W        W37119  10.797  19.219  11.577
68647W        W37120  24.721  30.597   0.253
68648W        W37121  30.987  21.062   3.147
68649W        W37122  41.455   5.920   3.317
68650W        W37123  22.130  30.120   1.425
68651W        W37124  18.695  12.257   2.689
68652W        W37125  14.763  18.742   0.924
68653W        W37126  27.578   5.691   4.753
68654W        W37127  36.568  13.707  14.852
68655W        W37128  14.784  36.851  13.412
68656W        W37129  36.865  23.119   2.688
68657W        W37130  19.708  31.920  12.839
68658W        W37131  10.274   8.268   2.269
68659W        W37132  30.421  11.236   0.453
68660W        W37133  24.513  25.165  12.368
68661W        W37134  42.387  43.892   0.757
68662W        W37135  43.968  35.519  11.056
68663W        W37136  11.344   4.305   4.275
68664W        W37137  21.038  14.691  14.361
68665W        W37138  34.033  26.121  14.292
68666W        W37139  34.430  44.369   3.248
68667W        W37140  19.200  14.690   2.693
68668W        W37141  19.732  14.791  14.816
68669W        W37142  27.047  39.437   0.898
68670W        W37143  18.761   7.191  10.957
68671W        W37144  39.364  15.178   4.824
68672W        W37145  16.605  10.164   2.716
68673W        W37146  20.247  24.009  13.001
68674W        W37147  26.564  33.117   4.201
68675W        W37148  38.468  24.177  12.036
68676W        W37149  26.612  39.547  12.368
68677W        W37150   3.715   5.815   4.242
68678W        W37151  32.901  36.024  13.871
68679W        W37152  10.752  24.536  10.920
68680W        W37153  37.011  39.005  13.542
68681W        W37154  32.580  24.637   3.155
68682W        W37155  26.203   2.804  13.521
68683W        W37156  10.380  14.738  10.602
68684W        W37157  35.490   2.428   2.815
68685W        W37158  38.870  15.625  12.900
68686W        W37159  44.295   6.907   0.880
68687W        W37160  24.502  19.091   2.380
68688W        W37161  42.923  25.697   5.156
68689W        W37162   5.363  18.665  13.021
68690W        W37163  10.238  25.651  11.056
68691W        W37164  31.914  13.194  13.447
68692W        W37165   8.815  26.551   3.676
68693W        W37166  29.120   7.669   3.831
68694W        W37167  26.044   1.743  13.908
68695W        W37168  11.307  41.413   3.230
68696W        W37169   9.881   7.849   4.742
68697W        W37170  15.296  34.010  11.102
68698W        W37171  20.227  11.153  11.556
68699W        W37172   3.227   5.824   1.744
68700W        W37173   3.888  15.225  10.639
68701W        W37174   5.348  12.118  11.553
68702W        W37175  40.515  11.804  13.341
68703W        W37176  41.844  38.969   5.174
68704W        W37177  29.613  38.908  13.390
68705W        W37178   2.260  43.866   2.714
68706W        W37179  15.593  38.063   2.839
68707W        W37180  16.305  39.412  11.002
68708W        W37181  29.667  36.856  14.964
68709W        W37182   1.946  11.298   2.692
68710W        W37183  10.358  31.408  14.810
68711W        W37184   4.228  38.920   0.326
68712W        W37185  10.655   1.420   4.824
68713W        W37186  18.283  34.417  13.918
68714W        W37187   1.378  41.431  14.778
68715W        W37188  43.923  11.627  14.841
68716W        W37189  40.458  38.973   2.816
68717W        W37190   4.752   6.889  11.503
68718W        W37191  41.898   1.978  14.819
68719W        W37192  17.222  20.720   1.302
68720W        W37193  24.006  30.595   3.358
68721W        W37194   3.824  12.615   4.730
68722W        W37195  26.130  21.167  13.334
68723W        W37196   4.270  22.180   4.315
68724W        W37197   0.413  13.771  12.467
68725W        W37198  25.505  24.646  14.011
68726W        W37199  39.509  37.853  10.514
68727W        W37200   3.217  36.022   3.383
68728W        W37201   5.405  28.174   1.261
68729W        W37202  16.295  40.423   9.577
68730W        W37203  24.665  41.793   3.236
68731W        W37204  33.614  24.035  10.986
68732W        W37205   5.354  16.731   1.891
68733W        W37206  36.979  37.889   4.833
68734W        W37207  40.478  12.225   2.289
68735W        W37208   2.288  40.810   0.858
68736W        W37209  22.570   7.331  14.982
68737W        W37210  36.963  29.125   1.270
68738W        W37211  14.656  41.529   2.789
68739W        W37212  24.482  16.211   3.722
68740W        W37213  25.693  18.070  13.795
68741W        W37214  11.248  32.924   4.616
68742W        W37215  36.955  25.177   0.354
68743W        W37216  34.089  21.143  13.873
68744W        W37217  23.133  34.091   3.160
68745W        W37218  28.584  42.480  14.286
68746W        W37219  26.183   1.902  10.944
68747W        W37220  16.608   6.196  14.465
68748W        W37221   4.325  44.940   0.811
68749W        W37222  12.778  31.902   2.299
68750W        W37223  34.530  23.166   2.192
68751W        W37224  42.894  28.181   0.836
68752W        W37225  12.297   5.903  12.035
68753W        W37226  39.898  28.482   1.827
68754W        W37227  16.573  36.847   1.315
68755W        W37228  33.513   3.428   4.348
68756W        W37229  24.513  25.622   3.644
68757W        W37230  34.110  16.616   0.799
68758W        W37231  39.326   5.202  12.019
68759W        W37232   5.818  21.248  13.482
68760W        W37233   5.311  30.062  12.457
68761W        W37234  44.298  32.927  14.925
68762W        W37235  43.271  39.393   1.701
68763W        W37236  38.049   0.346  13.399
68764W        W37237  39.826  32.538  11.075
68765W        W37238  31.440  42.418  10.988
68766W        W37239  28.641  30.550   0.795
68767W        W37240  39.495  43.483   1.748
68768W        W37241  36.458  23.217  11.961
68769W        W37242  22.167  31.971   4.760
68770W        W37243  38.941   6.391  11.865
68771W        W37244  14.794   9.813   2.285
68772W        W37245  12.697  42.439   1.869
68773W        W37246  15.096   8.318   4.203
68774W        W37247  18.710   3.779  11.939
68775W        W37248   3.884   2.868  11.093
68776W        W37249  10.821  37.452   0.345
68777W        W37250  30.020  20.243   2.872
68778W        W37251  44.791   5.861  11.023
68779W        W37252   1.759  44.832  13.851
68780W        W37253  36.406  11.670   3.190
68781W        W37254  39.470  20.574  12.448
68782W        W37255  39.405  29.606  12.463
68783W        W37256  36.455  43.990  13.056
68784W        W37257   8.171  37.950  12.089
68785W        W37258  18.280  37.544   1.726
68786W        W37259  31.415  26.971  12.937
68787W        W37260  26.109   4.906   3.802
68788W        W37261  21.019  27.542   9.961
68789W        W37262  18.682  26.562   2.252
68790W        W37263  19.249  26.148  13.432
68791W        W37264   5.904  29.571   1.852
68792W        W37265  33.915   5.243   4.139
68793W        W37266  39.865  19.647   3.675
68794W        W37267  23.620  29.063   4.628
68795W        W37268  43.448  15.811  13.925
68796W        W37269  23.075  40.967   3.779
68797W        W37270  25.667  14.137   0.311
68798W        W37271   0.418  28.627  13.427
68799W        W37272  18.678  12.675  10.588
68800W        W37273  21.186  24.009  13.534
68801W        W37274  30.504  24.010  14.477
68802W        W37275  34.891  17.631   2.818
68803W        W37276  32.550   3.457  11.112
68804W        W37277   6.202  42.827   5.203
68805W        W37278  36.404  22.523   4.820
68806W        W37279  21.099  10.659   0.249
68807W        W37280   2.948  30.145  12.928
68808W        W37281  43.321  13.740   1.428
68809W        W37282  12.684   6.682  11.126
68810W        W37283  43.880  19.601  13.058
68811W        W37284  22.169  23.050   2.331
68812W        W37285   9.279  12.849   3.238
68813W        W37286   2.232  21.523  10.902
68814W        W37287  39.064  40.524  11.886
68815W        W37288  12.245  28.677  10.490
68816W        W37289  12.148  27.956  14.451
68817W        W37290  21.051   1.834  12.004
68818W        W37291  29.429  34.900  14.949
68819W        W37292   4.365  21.573  10.641
68820W        W37293  39.519  23.504   2.332
68821W        W37294  28.486  31.943   2.887
68822W        W37295  34.047  20.674   1.901
68823W        W37296  33.902  11.327  12.843
68824W        W37297  31.430  19.237   2.295
68825W        W37298  32.012  25.638  10.601
68826W        W37299  30.054  26.544   3.357
68827W        W37300   2.335  30.417   9.940
68828W        W37301   4.303  15.087  10.590
68829W        W37302  34.370   6.907   2.290
68830W        W37303  18.786  35.591   1.923
68831W        W37304  25.075  14.707  12.072
68832W        W37305  41.856  36.446  12.563
68833W        W37306  25.011  15.139   0.292
68834W        W37307  24.499  13.108  12.409
68835W        W37308  16.237  26.106  12.954
68836W        W37309   7.361  21.686  10.456
68837W        W37310  36.937  21.134  14.476
68838W        W37311  16.657  32.068   4.191
68839W        W37312  10.798   8.258  14.490
68840W        W37313   1.269  11.719  13.010
68841W        W37314  29.014  18.557  10.612
68842W        W37315  18.101  23.586  13.502
68843W        W37316  43.902  22.531  13.865
68844W        W37317  42.798   4.344  12.943
68845W        W37318  33.032  18.754  12.577
68846W        W37319  39.911   2.903  13.433
68847W        W37320  35.542  21.222   2.715
68848W        W37321  11.768  16.188   3.639
68849W        W37322  17.078  21.529   1.214
68850W        W37323  26.166  24.038   3.869
68851W        W37324  24.538  43.989   1.900
68852W        W37325  21.224  44.458   3.852
68853W        W37326   9.322  20.629   4.122
68854W        W37327  19.268  39.359  13.830
68855W        W37328  44.937  21.566   4.835
68856W        W37329  23.686  13.329  12.572
68857W        W37330   8.237  13.291   4.605
68858W        W37331  18.179  32.406   1.308
68859W        W37332  38.907  13.727  10.478
68860W        W37333  13.693  24.160  12.866
68861W        W37334  40.863   7.824   0.370
68862W        W37335  37.516  42.444  12.878
68863W        W37336  30.972  44.503  11.939
68864W        W37337   2.370   2.767   4.624
68865W        W37338  44.846  16.677   3.317
68866W        W37339   2.819  36.845   1.717
68867W        W37340  24.496  32.437   4.148
68868W        W37341  26.087  30.536  13.395
68869W        W37342  39.431  35.458  14.477
68870W        W37343  23.597   2.737  12.937
68871W        W37344  31.568   0.266   2.283
68872W        W37345  38.997  16.626  11.437
68873W        W37346  23.553   2.232  13.811
68874W        W37347  40.947  13.814  11.901
68875W        W37348  35.530  23.508   1.407
68876W        W37349  17.206  25.195   4.748
68877W        W37350  30.457  27.166   3.154
68878W        W37351  11.145  32.916  14.451
68879W        W37352  39.880   7.222   1.911
68880W        W37353  43.964  24.004  14.964
68881W        W37354  42.287  22.671   2.858
68882W        W37355  27.054  18.265  11.422
68883W        W37356  30.913  35.904  12.422
68884W        W37357  39.428  13.734  11.480
68885W        W37358  25.686   5.825  10.088
68886W        W37359   7.225  13.312  10.628
68887W        W37360   0.968  31.494  13.021
68888W        W37361   6.295  14.209  13.470
68889W        W37362  20.058   2.402  14.469
68890W        W37363  25.166  42.030  13.885
68891W        W37364  22.181   9.717  14.484
68892W        W37365  25.011  30.563  13.423
68893W        W37366  26.134  22.513   3.728
68894W        W37367   9.702  44.881   0.367
68895W        W37368  32.010  28.079   4.194
68896W        W37369   5.767  32.015   2.329
68897W        W37370  42.523  43.454   1.725
68898W        W37371   0.877  44.882   1.869
68899W        W37372   5.388  20.236   4.814
68900W        W37373  33.535  10.183   1.446
68901W        W37374  39.843  37.497   5.113
68902W        W37375  17.064  21.088  10.930
68903W        W37376   0.248  32.470   1.333
68904W        W37377  31.470   7.241  11.477
68905W        W37378   4.225  10.829  11.947
68906W        W37379  30.466  27.550   0.732
68907W        W37380   8.832  21.053   9.991
68908W        W37381  42.471  14.754   4.714
68909W        W37382  18.266  12.131   1.297
68910W        W37383   7.286  30.136  14.419
68911W        W37384   9.887  24.707   3.174
68912W        W37385  19.565   2.729   4.704
68913W        W37386  44.391   8.805  10.632
68914W        W37387  22.162   4.900   0.799
68915W        W37388  26.500  37.338  10.405
68916W        W37389   5.812  30.021   0.791
68917W        W37390  18.277   5.385  11.057
68918W        W37391  16.168  22.510  11.879
68919W        W37392   1.940  18.714   1.450
68920W        W37393   8.868  33.468  11.516
68921W        W37394  11.238   3.278   2.744
68922W        W37395  40.044  12.273  13.386
68923W        W37396   1.285   5.384   3.715
68924W        W37397  13.177  17.592  11.492
68925W        W37398   9.672  41.348   1.835
68926W        W37399   3.335  12.715   1.267
68927W        W37400  36.021   7.248   1.728
68928W        W37401   0.381  13.699  14.866
68929W        W37402  17.658   1.320   3.217
68930W        W37403  18.262  15.180   0.297
68931W        W37404  21.257   7.780  13.429
68932W        W37405  18.136  36.416   3.693
68933W        W37406   7.741  30.501   3.373
68934W        W37407   6.750  29.481  14.018
68935W        W37408   0.299  39.485  11.099
68936W        W37409   7.284  19.722   0.906
68937W        W37410  14.111  10.243   0.881
68938W        W37411  34.077  20.082  14.869
68939W        W37412   6.295  13.348  11.062
68940W        W37413  35.497  23.508   0.288
68941W        W37414   7.266   0.911  14.806
68942W        W37415  20.223  16.148  10.983
68943W        W37416  22.126  33.488   2.186
68944W        W37417  15.757  40.910   4.227
68945W        W37418  44.830  10.820   1.839
68946W        W37419   7.885  15.085   9.949
68947W        W37420  44.307  16.102  14.835
68948W        W37421  40.434   3.422   0.266
68949W        W37422  12.856  30.109  10.888
68950W        W37423  44.010  20.671  14.289
68951W        W37424  14.109  28.533   1.903
68952W        W37425  21.072  14.206  11.422
68953W        W37426  16.217  12.269  12.968
68954W        W37427   4.812  24.591   3.203
68955W        W37428   2.293  28.551   1.389
68956W        W37429  44.850  44.966   3.375
68957W        W37430   1.259  27.622   0.763
68958W        W37431  43.272  32.501  10.453
68959W        W37432   1.245  44.838   4.262
68960W        W37433  41.804  26.992  14.507
68961W        W37434  20.253  44.308  12.570
68962W        W37435  26.456  34.557   2.717
68963W        W37436  18.643   5.723   1.346
68964W        W37437   8.336  18.617  13.391
68965W        W37438  34.473  39.002   3.859
68966W        W37439   2.768  18.070  13.972
68967W        W37440  25.049  36.955  10.571
68968W        W37441  11.624  18.181  14.761
68969W        W37442  38.358  37.341   4.257
68970W        W37443  19.163  18.172   3.738
68971W        W37444  22.668  27.646   9.578
68972W        W37445  41.823   7.828   0.359
68973W        W37446  12.277  43.832  11.984
68974W        W37447  25.985  11.247   2.255
68975W        W37448   9.240   2.297  14.473
68976W        W37449   5.301  14.605   1.303
68977W        W37450   8.824  18.253   1.353
68978W        W37451  41.020   8.694   2.189
68979W        W37452  11.268  13.122   4.668
68980W        W37453  17.698  10.341   2.293
68981W        W37454   8.892  14.209   1.319
68982W        W37455  34.539  12.815   3.793
68983W        W37456  43.337   2.423   3.691
68984W        W37457  21.247  44.777  11.452
68985W        W37458  19.735  37.913   1.346
68986W        W37459  30.659   9.288  11.047
68987W        W37460  12.353  37.077  12.397
68988W        W37461  33.598  43.370   4.751
68989W        W37462   9.190  16.606   1.235
68990W        W37463  39.943   9.884   2.415
68991W        W37464  25.643  17.081  14.800
68992W        W37465  17.724  42.431   1.331
68993W        W37466   8.787  13.759   4.321
68994W        W37467  22.056  36.498  12.535
68995W        W37468  41.418  41.480  13.317
68996W        W37469  14.112  35.873  13.387
68997W        W37470  24.699   8.813  11.010
68998W        W37471  20.600  10.804   0.366
68999W        W37472  32.066  14.149  13.807
69000W        W37473  42.931  41.470   0.364
69001W        W37474   0.911   9.675   3.733
69002W        W37475   2.234  24.173   1.730
69003W        W37476  39.503  32.547   0.853
69004W        W37477  43.475  20.266   3.318
69005W        W37478  44.972  37.059   1.374
69006W        W37479  14.287   3.365  12.015
69007W        W37480   0.300   3.367   4.263
69008W        W37481   5.238  37.891  13.312
69009W        W37482   8.294  20.043  14.957
69010W        W37483  12.353   1.761  14.410
69011W        W37484  21.058  27.103   1.420
69012W        W37485  44.900   6.211   4.162
69013W        W37486  10.861  25.669   2.894
69014W        W37487  21.583  37.064   3.753
69015W        W37488  10.285  41.519  10.959
69016W        W37489   9.847  20.631  11.004
69017W        W37490  27.627  19.164   2.187
69018W        W37491  11.823   8.394  10.962
69019W        W37492   4.843  13.622   1.772
69020W        W37493   4.900  17.604   4.703
69021W        W37494   5.785  36.428  14.462
69022W        W37495  41.442  11.863  12.365
69023W        W37496  41.525  19.773   4.822
69024W        W37497  14.684  43.451   2.693
69025W        W37498  24.674   5.794   1.894
69026W        W37499  24.528  15.756  11.060
69027W        W37500  18.220  31.010  11.885
69028W        W37501  37.007   6.847  11.930
69029W        W37502  14.267  42.335  14.982
69030W        W37503  23.498   2.332  14.479
69031W        W37504  39.052   6.730  10.972
69032W        W37505  29.176   4.700  11.100
69033W        W37506  35.018  24.154   2.338
69034W        W37507  30.632  13.774  12.968
69035W        W37508   0.369  38.849   0.335
69036W        W37509  26.570  41.349   3.279
69037W        W37510  22.053  32.411   3.275
69038W        W37511  40.939  31.416   2.195
69039W        W37512   9.377  14.764   4.345
69040W        W37513   0.908  40.042  10.133
69041W        W37514   4.276  42.934  11.053
69042W        W37515  40.392  44.337  10.926
69043W        W37516  31.503  26.530   3.850
69044W        W37517  35.104  40.011   4.764
69045W        W37518  35.522  10.158  13.452
69046W        W37519  16.221   3.811   3.770
69047W        W37520   8.165   9.720  12.941
69048W        W37521  44.314  44.290   0.885
69049W        W37522   6.298  37.051  11.027
69050W        W37523  21.743  17.133  11.523
69051W        W37524  16.710  41.392  11.089
69052W        W37525  44.810  36.906  14.985
69053W        W37526  16.262   5.837  13.002
69054W        W37527  41.833  32.961   2.415
69055W        W37528   8.766  44.961  13.997
69056W        W37529  32.136  38.067  13.468
69057W        W37530  33.388  41.315   1.328
69058W        W37531   2.776  43.335  12.951
69059W        W37532  21.076  35.388   2.842
69060W        W37533  33.561  11.305  14.349
69061W        W37534  27.039  26.461   0.800
69062W        W37535   8.714  26.566   1.225
69063W        W37536  18.545  32.057  13.996
69064W        W37537   4.404   0.452  13.821
69065W        W37538   3.270  20.715  11.525
69066W        W37539  10.254   4.424  13.542
69067W        W37540  30.507  22.516   0.430
69068W        W37541  21.672  14.798  12.080
69069W        W37542   6.258  43.010  12.539
69070W        W37543   2.937  35.598  12.981
69071W        W37544   9.300   1.943  11.017
69072W        W37545   6.220   2.421   5.317
69073W        W37546  30.080  32.901  14.327
69074W        W37547  28.994  16.274  11.915
69075W        W37548  15.683   2.251   2.682
69076W        W37549  36.438  43.973  11.003
69077W        W37550  26.685  39.904   4.793
69078W        W37551   0.870  42.789   2.186
69079W        W37552   2.244  25.676  12.945
69080W        W37553  11.207  35.561   5.698
69081W        W37554   5.264  13.348   2.238
69082W        W37555   9.388  15.743   3.745
69083W        W37556  17.245  41.896  11.383
69084W        W37557  11.824  16.131   3.248
69085W        W37558  37.938  19.045  10.456
69086W        W37559  38.022  12.265  10.563
69087W        W37560  30.652  23.144   3.172
69088W        W37561  20.679   8.673   2.792
69089W        W37562  19.061   8.178   2.209
69090W        W37563   3.911  25.972  14.888
69091W        W37564  24.683   0.473  12.936
69092W        W37565  26.204  13.843  12.908
69093W        W37566  12.808  13.748  11.595
69094W        W37567  44.800  38.921   3.647
69095W        W37568  35.506  33.384   3.249
69096W        W37569  32.898  16.158  14.778
69097W        W37570  37.054  30.998   0.248
69098W        W37571   7.197  20.740   3.845
69099W        W37572   8.791  29.565   0.423
69100W        W37573  37.566  20.743   4.151
69101W        W37574  11.146  22.036  13.036
69102W        W37575   3.439  18.183  14.360
69103W        W37576   9.205  27.608   4.720
69104W        W37577   0.329  26.658  10.636
69105W        W37578   0.822   6.269  12.922
69106W        W37579  10.220  10.310   1.898
69107W        W37580  25.513   9.367  11.930
69108W        W37581  23.026  38.470   3.217
69109W        W37582  19.103   0.412  11.082
69110W        W37583  29.550  12.808   4.291
69111W        W37584  15.746   1.752   2.198
69112W        W37585   0.967  24.645  13.857
69113W        W37586  32.102   6.729   4.174
69114W        W37587  34.476  20.107   1.212
69115W        W37588   2.395  32.549   0.769
69116W        W37589  17.109  13.315  12.455
69117W        W37590  21.160   4.296  13.799
69118W        W37591  27.485  37.514   2.211
69119W        W37592  32.109   1.770   4.626
69120W        W37593  32.930   3.338   3.669
69121W        W37594  27.542  23.579  11.103
69122W        W37595  29.470   5.350   3.649
69123W        W37596   3.747   9.706  14.279
69124W        W37597  14.135   2.798  13.544
69125W        W37598   6.279  39.061   1.919
69126W        W37599  44.936   1.814  13.832
69127W        W37600   4.874  32.449  11.469
69128W        W37601  15.144  38.969   1.726
69129W        W37602  43.980   9.851  13.470
69130W        W37603  28.584   5.240   1.757
69131W        W37604  12.708  17.777  10.631
69132W        W37605   9.224  12.352  14.468
69133W        W37606  14.095  41.439   3.748
69134W        W37607   4.890  12.342  13.968
69135W        W37608  38.388  27.139  12.445
69136W        W37609   3.247  28.650   2.848
69137W        W37610  13.189   2.863  11.882
69138W        W37611  24.553  37.550   4.650
69139W        W37612  28.954  10.241  12.469
69140W        W37613  44.304  42.015   4.776
69141W        W37614  23.571  41.009  11.074
69142W        W37615  27.083  30.455  10.461
69143W        W37616  44.499  20.673   1.771
69144W        W37617   1.806  21.082  14.959
69145W        W37618  33.403  39.463   0.370
69146W        W37619  44.802  26.537   4.716
69147W        W37620   2.731  15.193   3.778
69148W        W37621  23.170   5.298   2.699
69149W        W37622  12.740   4.228  10.971
69150W        W37623  27.148  30.094  10.965
69151W        W37624  10.163  20.264   0.313
69152W        W37625  44.290   3.283  14.988
69153W        W37626  37.536  16.117  13.853
69154W        W37627  32.097  40.969   3.790
69155W        W37628   3.432  36.572   5.273
69156W        W37629  34.934   7.254  14.368
69157W        W37630  34.509  34.601   4.769
69158W        W37631  20.176  30.563  10.633
69159W        W37632  31.990  29.541  13.895
69160W        W37633  15.795  20.565  13.959
69161W        W37634  33.399   3.254   1.930
69162W        W37635   7.290  25.567  14.796
69163W        W37636  36.408  23.586  13.459
69164W        W37637   7.883  21.139   1.424
69165W        W37638  41.007  14.266   2.875
69166W        W37639  25.535   6.268  12.944
69167W        W37640  34.539  36.041  13.518
69168W        W37641  28.473  11.327   3.809
69169W        W37642  41.519  28.677  13.492
69170W        W37643  40.330  33.073  10.477
69171W        W37644  31.108  31.406  12.352
69172W        W37645  12.611  25.151   1.805
69173W        W37646  10.868  38.009   0.413
69174W        W37647  25.484  10.313  14.843
69175W        W37648  40.434  37.053  12.834
69176W        W37649  12.328  10.262  11.006
69177W        W37650  41.025  30.163   2.343
69178W        W37651   9.681   6.368  13.443
69179W        W37652   7.191  12.677  13.857
69180W        W37653  21.143  26.031   2.697
69181W        W37654  32.596  20.744  12.958
69182W        W37655  25.496  41.351   0.467
69183W        W37656  35.917   2.264   1.337
69184W        W37657  14.313   6.780   1.269
69185W        W37658  13.816  38.511   0.764
69186W        W37659   4.709  30.415   4.288
69187W        W37660   1.412  13.131   3.157
69188W        W37661  16.738  21.210  13.017
69189W        W37662  37.842  31.544   3.253
69190W        W37663   6.315  40.954  12.882
69191W        W37664   2.810  12.701   1.239
69192W        W37665  43.333  13.294   4.295
69193W        W37666  19.657  31.912   1.731
69194W        W37667  40.876  18.594   0.369
69195W        W37668  44.500  29.659  11.047
69196W        W37669  32.137  20.648  10.518
69197W        W37670  43.805  22.713  14.469
69198W        W37671   9.670  33.475  13.388
69199W        W37672  38.982   6.237   4.199
69200W        W37673   5.344  15.626   2.266
69201W        W37674  16.275  25.197   4.673
69202W        W37675   6.692  34.937   4.666
69203W        W37676  25.184  15.284   0.863
69204W        W37677  34.447  36.368  14.488
69205W        W37678   6.213  24.986   5.224
69206W        W37679  29.163   2.262  12.485
69207W        W37680  14.128  14.205  14.310
69208W        W37681  22.073  44.266   0.794
69209W        W37682  33.995  18.759   3.751
69210W        W37683  44.974  27.195   0.933
69211W        W37684   0.402   0.882  11.405
69212W        W37685   9.658  26.951  13.392
69213W        W37686  30.089   2.397   2.773
69214W        W37687  39.479  36.580   2.836
69215W        W37688  39.809  38.982   3.173
69216W        W37689  16.275   2.274  11.376
69217W        W37690  41.787  35.045  13.810
69218W        W37691  23.720  17.214  13.910
69219W        W37692  11.280   6.822  11.081
69220W        W37693  40.870   5.376   2.226
69221W        W37694  31.614  12.744   4.289
69222W        W37695  28.980  29.575  13.050
69223W        W37696  34.587  22.044  14.011
69224W        W37697  22.083   7.689  11.073
69225W        W37698  39.455   9.859   0.438
69226W        W37699   0.855  39.352  13.535
69227W        W37700   7.894  11.845   0.789
69228W        W37701  36.922   9.377   4.662
69229W        W37702   3.845  42.524   0.934
69230W        W37703  12.116   8.662  13.965
69231W        W37704   4.813  40.000   2.760
69232W        W37705  40.028  24.045   2.388
69233W        W37706  34.115  39.410   2.813
69234W        W37707   8.333  37.881  13.522
69235W        W37708   9.696   7.770   0.877
69236W        W37709  21.115  43.838  12.445
69237W        W37710   9.287  19.672   0.361
69238W        W37711  22.208  43.472  11.996
69239W        W37712  29.449  39.946   2.230
69240W        W37713  19.173  35.515   0.380
69241W        W37714  16.165  31.547   0.369
69242W        W37715  29.982  26.208   2.745
69243W        W37716  11.132   1.776   2.386
69244W        W37717   7.267  41.858  11.050
69245W        W37718   6.827  34.929  14.417
69246W        W37719  34.547   4.260   3.717
69247W        W37720  28.638  14.174   1.330
69248W        W37721  18.276   5.720  13.898
69249W        W37722  37.907  39.812  14.963
69250W        W37723  15.293  27.090  14.811
69251W        W37724  21.127  42.291  14.969
69252W        W37725  43.502  41.996  14.455
69253W        W37726  14.102  12.157  10.408
69254W        W37727  37.050   7.323   2.354
69255W        W37728  12.633  38.554   1.413
69256W        W37729  26.101  28.979  11.076
69257W        W37730   6.860  21.185   4.658
69258W        W37731  20.087  13.349  14.369
69259W        W37732  14.287  29.574   4.658
69260W        W37733   4.307  25.557  10.536
69261W        W37734  35.527  10.839  12.528
69262W        W37735  26.550  16.236  13.972
69263W        W37736  32.554  33.460  12.851
69264W        W37737  12.788  17.606   3.230
69265W        W37738  16.588  11.272  14.481
69266W        W37739  28.492  19.246   4.316
69267W        W37740  11.288  42.418  11.518
69268W        W37741  20.617  28.955  13.366
69269W        W37742  15.661  27.493  14.316
69270W        W37743  43.373  16.215  12.068
69271W        W37744  35.364  32.010   2.729
69272W        W37745  34.387  23.114   4.669
69273W        W37746  28.023   8.278  14.368
69274W        W37747   3.869  21.110  10.638
69275W        W37748  37.495  38.355  10.070
69276W        W37749  11.283  21.719   4.713
69277W        W37750  19.749  34.055  10.544
69278W        W37751  25.070  10.862  14.493
69279W        W37752  26.586  25.151  10.096
69280W        W37753  42.525  23.577  12.965
69281W        W37754  27.009  37.863   2.394
69282W        W37755  20.634  44.909  13.990
69283W        W37756  29.603  20.183  12.491
69284W        W37757  16.748  38.943   0.256
69285W        W37758  35.853   7.714   3.299
69286W        W37759   0.451  39.342  11.557
69287W        W37760  20.597  43.465   2.674
69288W        W37761  36.925  14.097  11.385
69289W        W37762  39.495  29.435   3.733
69290W        W37763  33.536   4.721   5.140
69291W        W37764  14.310  26.556   4.338
69292W        W37765  39.402  10.823   1.921
69293W        W37766  16.191  29.599  11.928
69294W        W37767  27.064  44.979   2.395
69295W        W37768  20.607  16.757   4.622
69296W        W37769  35.536  35.543   1.702
69297W        W37770  36.559  38.933   5.138
69298W        W37771  31.961   0.766   1.818
69299W        W37772   4.324  42.435   2.400
69300W        W37773  21.686   1.248  11.461
69301W        W37774  33.408  16.161   1.820
69302W        W37775  24.193  19.052  13.511
69303W        W37776  44.481  11.752  12.907
69304W        W37777  43.920  11.666   1.731
69305W        W37778  36.030  40.858   1.859
69306W        W37779  36.090   2.407   4.132
69307W        W37780  34.604  15.209  12.387
69308W        W37781   4.316  17.250  11.125
69309W        W37782   2.764  12.303   2.367
69310W        W37783   3.244  29.076  11.876
69311W        W37784  23.226  43.393   3.854
69312W        W37785  44.979  19.574  10.950
69313W        W37786   8.725  17.736   0.834
69314W        W37787   8.688   9.290   0.463
69315W        W37788  16.274  28.519   1.240
69316W        W37789  11.725  40.040   3.792
69317W        W37790  29.091  32.978  11.558
69318W        W37791  25.083  22.530  12.974
69319W        W37792  29.582  21.518   1.738
69320W        W37793   4.355   1.452  10.987
69321W        W37794   5.918  11.315   3.211
69322W        W37795  15.630  25.530   9.978
69323W        W37796  18.734  36.017  14.393
69324W        W37797  39.954  24.573   0.407
69325W        W37798  28.553   5.758   2.285
69326W        W37799   3.233  38.829   1.723
69327W        W37800  18.175  16.736   0.252
69328W        W37801  20.245  38.032   1.333
69329W        W37802  10.709  43.963   4.824
69330W        W37803  21.752  27.594   4.618
69331W        W37804   2.868   4.864   3.725
69332W        W37805  21.161  43.801  10.484
69333W        W37806  35.888  26.164  14.867
69334W        W37807  22.073  34.459   2.784
69335W        W37808  25.136  15.122   2.290
69336W        W37809  25.468  44.007   4.201
69337W        W37810  28.991  17.659  13.862
69338W        W37811  25.521   1.869   3.721
69339W        W37812  26.028  43.322  13.929
69340W        W37813  28.008  23.171  14.345
69341W        W37814  19.203   6.880  14.981
69342W        W37815   1.745  12.224   0.273
69343W        W37816  16.714  44.353   3.845
69344W        W37817   4.879   3.237   4.832
69345W        W37818  15.326  20.096   1.934
69346W        W37819  31.620  40.412   3.374
69347W        W37820  12.318  40.326  12.892
69348W        W37821  42.526  28.624  10.909
69349W        W37822  23.029   4.820   0.889
69350W        W37823   5.418   8.849   3.744
69351W        W37824  41.892   5.318  14.967
69352W        W37825  44.268  31.439   3.272
69353W        W37826  14.792   7.210  13.377
69354W        W37827  23.209  21.070  12.084
69355W        W37828  18.141  22.565   3.331
69356W        W37829   7.236  31.018  12.052
69357W        W37830  14.658  31.103  13.529
69358W        W37831  27.633  32.407  13.018
69359W        W37832  35.928  43.471  14.463
69360W        W37833  39.355  12.710  13.007
69361W        W37834  40.841  10.314  14.314
69362W        W37835   1.322  18.270  12.073
69363W        W37836  31.478  23.193   5.701
69364W        W37837   0.952  41.423   0.453
69365W        W37838  13.229  36.893   2.295
69366W        W37839  41.017  21.203  11.866
69367W        W37840  16.787  19.113   1.238
69368W        W37841  18.126  18.156   4.672
69369W        W37842   1.380  15.639  12.357
69370W        W37843  26.636  15.132   4.605
69371W        W37844  16.813  44.758   3.793
69372W        W37845   9.690  32.962  10.004
69373W        W37846  20.151  23.219  12.972
69374W        W37847  10.764  43.515   4.124
69375W        W37848  19.713   9.684  10.918
69376W        W37849  17.716  38.401  13.403
69377W        W37850   2.433  43.910  10.933
69378W        W37851  35.555   9.835  10.442
69379W        W37852   3.402   1.449   4.228
69380W        W37853  41.807  17.106  14.311
69381W        W37854  36.972  10.167  10.075
69382W        W37855  25.987   9.275   3.658
69383W        W37856  32.941  19.045   2.716
69384W        W37857  16.229   1.238   1.844
69385W        W37858  21.224  14.601  13.488
69386W        W37859  20.731  34.926  12.368
69387W        W37860  22.236  40.927   1.337
69388W        W37861  39.550  41.878  11.920
69389W        W37862   5.696  14.324  11.958
69390W        W37863  25.026  10.250   3.681
69391W        W37864  40.514   5.698  14.825
69392W        W37865  33.925   9.762   0.813
69393W        W37866   1.845  27.002   2.790
69394W        W37867  37.884   9.877  11.612
69395W        W37868  26.636  39.351   4.276
69396W        W37869  24.211   8.177  12.390
69397W        W37870   2.865   4.284   1.802
69398W        W37871  37.402   5.286  14.930
69399W        W37872  28.591  33.542  10.437
69400W        W37873   2.754  28.968  13.355
69401W        W37874  14.327   6.768   2.669
69402W        W37875  32.523  43.969   5.267
69403W        W37876  34.997  44.288  13.028
69404W        W37877   1.883   3.902  13.334
69405W        W37878  33.402  14.254   2.876
69406W        W37879   6.258  10.349   3.213
69407W        W37880  29.115  17.594  14.426
69408W        W37881  32.907  24.012  12.070
69409W        W37882  20.740  11.147  10.971
69410W        W37883  36.433  29.125  14.400
69411W        W37884  19.666   0.400  12.006
69412W        W37885   7.277  17.102   2.374
69413W        W37886  34.100  28.028  12.869
69414W        W37887  27.527  26.207  11.444
69415W        W37888  31.515  17.596   3.343
69416W        W37889  22.048  35.420   4.681
69417W        W37890  22.555  10.347   0.852
69418W        W37891  17.094  28.611  14.451
69419W        W37892  41.341  18.567   2.735
69420W        W37893   0.950   1.735  11.605
69421W        W37894  32.015  44.870   4.695
69422W        W37895  25.210  12.828   0.434
69423W        W37896  22.534   0.485  12.008
69424W        W37897  28.579  42.304  12.969
69425W        W37898  24.175  27.954   1.410
69426W        W37899  21.604   1.822   1.430
69427W        W37900   7.850   7.694  11.511
69428W        W37901  10.722  22.597  12.397
69429W        W37902   6.282  35.082  11.002
69430W        W37903  19.115  38.945   3.299
69431W        W37904  32.900  30.007  13.491
69432W        W37905  15.108  17.128  14.807
69433W        W37906  36.990  31.012  14.454
69434W        W37907  25.613  32.575   0.807
69435W        W37908   2.350  31.013  10.949
69436W        W37909  29.985  17.699   1.275
69437W        W37910  32.977  39.055  12.928
69438W        W37911  39.989  12.777  11.390
69439W        W37912  26.081  34.520   2.802
69440W        W37913  33.955  23.512  14.342
69441W        W37914  40.384  14.713   1.313
69442W        W37915  38.352  38.523   2.207
69443W        W37916   0.455   9.191   2.829
69444W        W37917  32.450  16.710  13.314
69445W        W37918  16.251   1.446   3.869
69446W        W37919  30.496  32.008   2.336
69447W        W37920  20.038  16.594  13.364
69448W        W37921  41.503   1.440  12.445
69449W        W37922  30.979  43.356   3.730
69450W        W37923  10.812  37.023  12.052
69451W        W37924   3.756  15.234  14.433
69452W        W37925  18.615  19.676  10.524
69453W        W37926   8.835  25.474   3.194
69454W        W37927  23.126  22.693  13.318
69455W        W37928  14.175  41.318   1.323
69456W        W37929  27.960  44.347   4.753
69457W        W37930  43.391   7.731   2.271
69458W        W37931  39.913  25.591   3.320
69459W        W37932  40.494  39.317   2.300
69460W        W37933  41.381  25.544  12.873
69461W        W37934  38.843  26.537   4.233
69462W        W37935  34.099  35.859  13.377
69463W        W37936  27.509  13.343   1.235
69464W        W37937   1.862  13.188   2.237
69465W        W37938  27.142  22.656   1.922
69466W        W37939   9.220  24.619  13.327
69467W        W37940  17.076  41.303   0.839
69468W        W37941  18.672   3.330  10.126
69469W        W37942  26.039   3.420  13.919
69470W        W37943   5.808   4.399  12.014
69471W        W37944  29.637   5.752   3.635
69472W        W37945  10.753   0.368  13.497
69473W        W37946  14.246  11.283  12.854
69474W        W37947   1.972  39.909   1.342
69475W        W37948  16.731   0.874  13.903
69476W        W37949   0.905  43.938   1.736
69477W        W37950  20.631   9.886   1.331
69478W        W37951  26.537  41.360  10.982
69479W        W37952  42.806   6.330   2.317
69480W        W37953  19.698  21.580  14.399
69481W        W37954  15.748   5.691  13.839
69482W        W37955  17.239  20.739   2.369
69483W        W37956  35.931  21.186   0.805
69484W        W37957  44.936  35.058   1.756
69485W        W37958   4.723  37.948  10.635
69486W        W37959  26.951   9.292   0.482
69487W        W37960   4.398   1.333  13.880
69488W        W37961  13.267  39.810   3.703
69489W        W37962  27.472  23.997   2.742
69490W        W37963  13.828  11.682   1.780
69491W        W37964  10.218  16.295  10.434
69492W        W37965   7.357  13.632  13.516
69493W        W37966  19.147  13.722  11.074
69494W        W37967  39.377   8.393  11.028
69495W        W37968   0.951  41.292   2.762
69496W        W37969  36.939  35.574  13.379
69497W        W37970  36.368  18.676  13.323
69498W        W37971  26.052  18.628  12.497
69499W        W37972   3.331   1.947   0.737
69500W        W37973   4.306  41.445  14.310
69501W        W37974  44.413  41.904  13.969
69502W        W37975  42.912   0.900  11.490
69503W        W37976  36.902  20.704   2.396
69504W        W37977  42.944  32.138  12.990
69505W        W37978   7.333  23.193   0.415
69506W        W37979  41.394  16.576  12.057
69507W        W37980  40.539  42.361  13.892
69508W        W37981   3.910  34.981  13.340
69509W        W37982  38.354  43.000  10.991
69510W        W37983  43.973  36.529   0.932
69511W        W37984  30.941  38.989  10.046
69512W        W37985  33.539   1.854  13.953
69513W        W37986  12.251   8.671   2.705
69514W        W37987  35.562  25.616  10.473
69515W        W37988  36.592  38.485   2.329
69516W        W37989  42.935   7.192  14.889
69517W        W37990  29.632   5.796   2.397
69518W        W37991  12.826   6.236   1.776
69519W        W37992  25.107  41.792  10.483
69520W        W37993  12.129  11.808  10.978
69521W        W37994   5.406   4.798  10.989
69522W        W37995  31.033  27.080   4.318
69523W        W37996  28.096   4.438   2.804
69524W        W37997  34.606  33.580   0.281
69525W        W37998  44.393  11.355   4.253
69526W        W37999  39.004  25.690  14.408
69527W        W38000   2.394  37.399   0.426
69528W        W38001  37.920  17.599  10.516
69529W        W38002  18.586  33.591  10.130
69530W        W38003  13.342  13.601   3.765
69531W        W38004  43.788  23.163  12.927
69532W        W38005  42.409   3.914  12.068
69533W        W38006  44.335  30.972  13.421
69534W        W38007  42.480  27.456   3.247
69535W        W38008  44.346  20.738  12.858
69536W        W38009  44.780  35.860  13.386
69537W        W38010  20.735   7.187  12.923
69538W        W38011  16.713   1.328  14.898
69539W        W38012  43.331   6.348  11.051
69540W        W38013  33.040  21.106   4.752
69541W        W38014  35.395  14.105   3.267
69542W        W38015  15.262  44.497  13.926
69543W        W38016  23.061   4.805  14.776
69544W        W38017  18.112  15.271  12.002
69545W        W38018  28.127   4.351  10.894
69546W        W38019  22.582  22.664  11.544
69547W        W38020   7.354  35.470  13.358
69548W        W38021  32.004  15.620   4.700
69549W        W38022  38.904  43.404   1.772
69550W        W38023  15.583   8.328   1.436
69551W        W38024  29.559   8.731  11.483
69552W        W38025   9.745  33.496  12.463
69553W        W38026   3.253   2.947   2.366
69554W        W38027  23.170  18.107  12.034
69555W        W38028   9.371  38.453   2.843
69556W        W38029   8.385   3.387   4.620
69557W        W38030  35.924  34.885  14.408
69558W        W38031   5.243  41.372   1.713
69559W        W38032  33.578   9.678  11.537
69560W        W38033  20.093  36.075   3.850
69561W        W38034  41.879   9.252  14.279
69562W        W38035  35.853  41.329  12.982
69563W        W38036  43.902  31.585   0.870
69564W        W38037   6.837  38.865   2.281
69565W        W38038  38.010  21.041  10.104
69566W        W38039  41.898  44.837  12.842
69567W        W38040  21.676   2.237  12.877
69568W        W38041  31.503  27.089   0.353
69569W        W38042   9.187   7.347   0.360
69570W        W38043  35.368  42.811   0.843
69571W        W38044  42.926   7.669  14.018
69572W        W38045  41.817  19.188  14.767
69573W        W38046  21.225  28.510   3.816
69574W        W38047   3.392   8.897   1.901
69575W        W38048   9.178  44.442   2.662
69576W        W38049  14.663  19.746  14.920
69577W        W38050   4.384  15.203  11.934
69578W        W38051  12.613  18.778   2.258
69579W        W38052  10.721  22.517   3.348
69580W        W38053  27.968   9.732  10.630
69581W        W38054   8.193  18.097   4.227
69582W        W38055   4.253   3.911  10.941
69583W        W38056  36.357   6.763  11.522
69584W        W38057  25.962  40.811  11.926
69585W        W38058  44.931  30.454   3.346
69586W        W38059   5.379   9.250  13.007
69587W        W38060   0.268  25.998  14.384
69588W        W38061  33.907  44.888   1.436
69589W        W38062  35.571  14.208  14.304
69590W        W38063  43.995  27.516  12.411
69591W        W38064   4.855  20.165  14.840
69592W        W38065  37.524  23.087   0.276
69593W        W38066  42.322  31.129   1.852
69594W        W38067   9.362  38.532  13.414
69595W        W38068   0.438   1.893   1.700
69596W        W38069   3.711  29.594   1.862
69597W        W38070  27.988  44.336  14.397
69598W        W38071  14.161  41.885  10.540
69599W        W38072   7.808  30.141   3.258
69600W        W38073  22.139  42.482   2.873
69601W        W38074   0.908  12.645   2.728
69602W        W38075   4.394  40.038  11.410
69603W        W38076  26.541   8.341  13.877
69604W        W38077  44.870  19.693  12.372
69605W        W38078  42.911  39.907  10.498
69606W        W38079  32.461  20.654   2.363
69607W        W38080  23.595  12.800   3.275
69608W        W38081   3.800  11.717  11.432
69609W        W38082  41.922  26.061  14.909
69610W        W38083   2.341  17.576  14.000
69611W        W38084  33.420  20.109  14.995
69612W        W38085  42.899  36.921  11.413
69613W        W38086  29.600   5.412  12.940
69614W        W38087  19.075  19.637  13.342
69615W        W38088  12.780  40.549  11.520
69616W        W38089  28.564  20.553  11.463
69617W        W38090  44.319  37.967   4.339
69618W        W38091   7.183   8.681  12.943
69619W        W38092  15.622  20.266   4.159
69620W        W38093  36.890  26.461  10.025
69621W        W38094  15.764  33.609   3.651
69622W        W38095   1.338  14.206  14.420
69623W        W38096  15.301   2.931   1.905
69624W        W38097   9.829  22.640  11.893
69625W        W38098   1.957  11.785   3.151
69626W        W38099  43.839  20.146  13.946
69627W        W38100  26.958  22.546  13.476
69628W        W38101  15.188  39.366   2.876
69629W        W38102  10.854  37.049   2.826
69630W        W38103  41.965   9.255  13.051
69631W        W38104   1.447   5.280  14.872
69632W        W38105  32.049   3.833   0.927
69633W        W38106  28.156  28.495   0.777
69634W        W38107  30.587   4.788  12.542
69635W        W38108  33.423  42.345   3.722
69636W        W38109  19.183   0.467  13.829
69637W        W38110  13.124  43.862  11.952
69638W        W38111  40.318   9.763  13.843
69639W        W38112  44.756   1.787  11.902
69640W        W38113  11.272  28.591   1.915
69641W        W38114   5.775  17.242   2.857
69642W        W38115   0.332  18.185  12.539
69643W        W38116  15.633  31.904   3.795
69644W        W38117  11.366  11.731  11.052
69645W        W38118  31.505   1.254  13.317
69646W        W38119  34.082  18.742  11.895
69647W        W38120  28.009   8.793  10.074
69648W        W38121   0.955   4.919   3.870
69649W        W38122   3.934  33.080   2.267
69650W        W38123   2.881   7.816   1.741
69651W        W38124  39.007  17.175   4.238
69652W        W38125  41.353  44.896  11.857
69653W        W38126  36.462   6.341  14.289
69654W        W38127  27.450  40.961   4.689
69655W        W38128   7.706  38.840  14.332
69656W        W38129   0.929  27.138   4.601
69657W        W38130  42.988  36.479   3.729
69658W        W38131  43.810  25.002   1.432
69659W        W38132   3.330  31.559   1.408
69660W        W38133  42.942  38.870   1.348
69661W        W38134  18.772  13.840  13.492
69662W        W38135  14.149  31.998   5.158
69663W        W38136   9.698  29.534  13.357
69664W        W38137  15.200  27.514  14.835
69665W        W38138  33.038  18.232   1.916
69666W        W38139  30.510  23.528   5.780
69667W        W38140  31.597  26.985   9.574
69668W        W38141   9.650  13.684   3.154
69669W        W38142   0.425  37.540  13.332
69670W        W38143  42.383  18.676   3.693
69671W        W38144  37.410  41.839  12.399
69672W        W38145  42.349  26.005  10.542
69673W        W38146  41.971  16.120   0.938
69674W        W38147   6.256  23.549  13.043
69675W        W38148   4.356  40.937  13.986
69676W        W38149  13.302  19.116  12.448
69677W        W38150  37.864  16.584  12.396
69678W        W38151  15.320  34.884   1.428
69679W        W38152  26.648  12.227   2.405
69680W        W38153  40.929  26.012  10.927
69681W        W38154  44.500  37.409  13.879
69682W        W38155   2.305  42.016   3.779
69683W        W38156  24.531   6.310   0.463
69684W        W38157  13.612  32.025   4.741
69685W        W38158  44.890   6.808   3.360
69686W        W38159  38.043  24.994  13.797
69687W        W38160  42.318  10.833   0.924
69688W        W38161   4.797  40.022   3.745
69689W        W38162  16.291   1.432  14.866
69690W        W38163  32.612   3.890   2.309
69691W        W38164  14.140  32.030   4.117
69692W        W38165  26.020  37.529   5.251
69693W        W38166  20.556  40.461   1.404
69694W        W38167  24.514   6.376  12.920
69695W        W38168   3.231  33.913   0.305
69696W        W38169  36.024  13.300  13.838
69697W        W38170  35.460  20.225  11.021
69698W        W38171  13.154   8.349   4.743
69699W        W38172  29.147  11.352  12.035
69700W        W38173   7.822  41.485   4.203
69701W        W38174  43.341  15.264  10.579
69702W        W38175  40.428  33.478   0.372
69703W        W38176  33.878  22.212   2.280
69704W        W38177  17.625  34.069  10.407
69705W        W38178  41.402  20.692   4.657
69706W        W38179  17.242  12.293   4.153
69707W        W38180   1.805  21.746   0.481
69708W        W38181  43.418  19.047  14.805
69709W        W38182  44.758  30.449  10.909
69710W        W38183  12.253   8.845   2.321
69711W        W38184  30.074  27.475   4.644
69712W        W38185  38.883  15.174  11.927
69713W        W38186   5.221  37.505  11.428
69714W        W38187  38.338  41.442  12.881
69715W        W38188  27.076  18.648   2.247
69716W        W38189  40.865  27.586   4.349
69717W        W38190  44.480   9.226   2.418
69718W        W38191  33.517  10.377   0.872
69719W        W38192   9.209  41.859   1.792
69720W        W38193  30.508   5.750   2.833
69721W        W38194  33.432  20.031   2.287
69722W        W38195  32.515  39.873  12.849
69723W        W38196   2.733  41.436  10.416
69724W        W38197   1.387  24.498  14.819
69725W        W38198  34.522   1.336   3.684
69726W        W38199  19.572   9.271  12.340
69727W        W38200  37.950   8.655   4.172
69728W        W38201  11.727  17.755   1.825
69729W        W38202  25.093  22.722   2.833
69730W        W38203  29.569  12.632  13.966
69731W        W38204   9.235  35.940   1.856
69732W        W38205  44.384  41.496  14.903
69733W        W38206  33.099  13.621  14.800
69734W        W38207   5.905   4.254   3.638
69735W        W38208  31.524  21.152   0.294
69736W        W38209  38.954  10.679  12.397
69737W        W38210  16.728   6.423  13.431
69738W        W38211   8.777  25.131  13.858
69739W        W38212  18.755  27.641   0.791
69740W        W38213  15.624  31.145   0.369
69741W        W38214  10.740  17.774   2.809
69742W        W38215   6.404   1.402   4.289
69743W        W38216  34.079  20.120  10.963
69744W        W38217  32.623  17.739   0.262
69745W        W38218  26.178  27.684  14.494
69746W        W38219  16.612  11.659  14.496
69747W        W38220  32.892  35.592   3.711
69748W        W38221   4.806  18.143   2.361
69749W        W38222   7.880   5.768  11.904
69750W        W38223  10.816  31.512  14.446
69751W        W38224   1.380  43.837   3.318
69752W        W38225  37.840  38.546  12.080
69753W        W38226  15.616  30.939   1.259
69754W        W38227  39.386   4.921  14.419
69755W        W38228  14.179  25.487  11.995
69756W        W38229   6.902  31.120  11.595
69757W        W38230   0.936  20.595   3.305
69758W        W38231   3.446  19.773  14.314
69759W        W38232  22.726  24.178  12.930
69760W        W38233   8.798  41.323   1.413
69761W        W38234   4.403  14.248  14.001
69762W        W38235   5.836  41.846   4.269
69763W        W38236  16.719  27.631   0.385
69764W        W38237  40.426  37.876   3.165
69765W        W38238  23.010  39.382  12.837
69766W        W38239   1.308  22.573   4.636
69767W        W38240  31.464  36.034  14.355
69768W        W38241  18.595  34.610  13.915
69769W        W38242  25.586  17.636   0.400
69770W        W38243  25.095  42.326   4.118
69771W        W38244   3.361  11.182  14.942
69772W        W38245  13.819  11.746   3.180
69773W        W38246   7.216   9.306   2.667
69774W        W38247  29.013  31.638  13.370
69775W        W38248  18.546  41.530  13.053
69776W        W38249  10.253  37.421   2.202
69777W        W38250   7.912  18.780   3.640
69778W        W38251  44.757   9.868   0.736
69779W        W38252  32.068  15.616   3.698
69780W        W38253  26.208  38.479  13.426
69781W        W38254  44.011  43.302   4.307
69782W        W38255  42.935  25.708  10.560
69783W        W38256  30.061  30.550  10.889
69784W        W38257   1.410   4.768   1.832
69785W        W38258  20.662   2.826  11.039
69786W        W38259  26.121   2.419  13.492
69787W        W38260   6.244  16.644   4.174
69788W        W38261  36.422  20.546  13.367
69789W        W38262   0.944  36.568   3.726
69790W        W38263  39.530  44.930   0.377
69791W        W38264  29.609   2.386  13.445
69792W        W38265  35.891  34.386  14.413
69793W        W38266   6.342  23.024   2.707
69794W        W38267  14.659  17.226  10.078
69795W        W38268  24.685   5.281   0.919
69796W        W38269  20.724  16.692  11.379
69797W        W38270  17.620  35.541   0.433
69798W        W38271  22.649  16.659  13.963
69799W        W38272   5.300  32.925  12.879
69800W        W38273   2.947  18.773  13.924
69801W        W38274   9.674  21.624  11.545
69802W        W38275  43.439  27.021   0.327
69803W        W38276  28.585  30.007   3.297
69804W        W38277  16.613  15.119  13.048
69805W        W38278   2.443  40.831   2.797
69806W        W38279  23.176   4.770  13.807
69807W        W38280  42.860   3.249   1.832
69808W        W38281  23.175  35.858  12.945
69809W        W38282  36.431   1.894  12.985
69810W        W38283  38.338  43.454   1.323
69811W        W38284  18.232  36.857   4.828
69812W        W38285  27.006  11.821  11.989
69813W        W38286  10.844  42.300  14.374
69814W        W38287  31.080  31.428   2.722
69815W        W38288  33.385   9.666  14.925
69816W        W38289  34.506  29.586  12.921
69817W        W38290  40.496  25.016   4.767
69818W        W38291  38.041  15.113  14.824
69819W        W38292  32.104   0.987   2.387
69820W        W38293  30.579  37.403  14.426
69821W        W38294  37.484  37.843   3.700
69822W        W38295   4.227  33.052   2.851
69823W        W38296  11.720  33.403  11.909
69824W        W38297  19.213  26.485   1.871
69825W        W38298  43.767  21.097   3.197
69826W        W38299  11.187  44.301   0.391
69827W        W38300  36.046  30.011  12.002
69828W        W38301  32.420  28.592   1.831
69829W        W38302   2.381  21.629  14.470
69830W        W38303  30.036  38.361  11.452
69831W        W38304  16.647   8.189  11.886
69832W        W38305  34.494  34.484  11.501
69833W        W38306  18.128   3.898   1.267
69834W        W38307  20.595  12.359  11.074
69835W        W38308  16.215  37.556   4.211
69836W        W38309  13.230  38.896  13.028
69837W        W38310  33.027  18.097  10.899
69838W        W38311  23.101  34.952   3.361
69839W        W38312   9.861  17.280   2.242
69840W        W38313  42.849  34.008  11.067
69841W        W38314  11.201   7.673   0.815
69842W        W38315  29.060  15.755  12.028
69843W        W38316  22.517  12.762   3.735
69844W        W38317  19.194  35.018   2.382
69845W        W38318   2.761  14.758   1.370
69846W        W38319  32.079  25.574  12.087
69847W        W38320  17.165  40.859   4.243
69848W        W38321  44.867  23.496  14.497
69849W        W38322  15.308  44.946  11.529
69850W        W38323  29.950  43.867  13.009
69851W        W38324  18.614  10.636   3.147
69852W        W38325  31.411   0.428  12.557
69853W        W38326  11.850  29.993  14.398
69854W        W38327  25.643  27.690   4.195
69855W        W38328  35.406   2.265  13.911
69856W        W38329  22.526   7.795   0.910
69857W        W38330   9.391   9.651  11.419
69858W        W38331  13.743  35.013  14.399
69859W        W38332   6.241  25.968   1.436
69860W        W38333  20.588  44.968  11.381
69861W        W38334  26.474  12.361  10.941
69862W        W38335  37.350  21.097   1.839
69863W        W38336   2.427  11.331   3.363
69864W        W38337  38.042  22.052  10.950
69865W        W38338  37.931   4.288  13.875
69866W        W38339  39.320  29.588  14.809
69867W        W38340  43.883  39.926  14.350
69868W        W38341   8.872  28.178  10.942
69869W        W38342  33.907  11.688   4.668
69870W        W38343   7.772   5.766   4.209
69871W        W38344  14.632  42.356  11.992
69872W        W38345  16.583  10.158  13.334
69873W        W38346  11.853  23.029  10.605
69874W        W38347  21.253   7.222  11.016
69875W        W38348  23.182  39.376  14.335
69876W        W38349  30.643   9.261   1.427
69877W        W38350  26.974  31.610   3.736
69878W        W38351  10.748  37.471   0.922
69879W        W38352   1.909  17.132  13.437
69880W        W38353  22.050  11.225  10.537
69881W        W38354  44.846  20.077  11.509
69882W        W38355  44.473   1.322  10.634
69883W        W38356  27.979  30.152  12.419
69884W        W38357  18.562  17.191   1.736
69885W        W38358  11.219   6.236  10.605
69886W        W38359  43.385  38.931  13.410
69887W        W38360  14.161  44.429  10.936
69888W        W38361   5.850  29.039   3.326
69889W        W38362  42.992  18.148  11.451
69890W        W38363  43.882  18.583   2.675
69891W        W38364  16.173  13.616  12.848
69892W        W38365  11.743  42.779  12.423
69893W        W38366  25.661  24.481   1.861
69894W        W38367  17.668  23.224   1.859
69895W        W38368  15.135  20.560   4.227
69896W        W38369  17.084  32.088   0.349
69897W        W38370  24.014  29.594  11.971
69898W        W38371  19.144  39.810  13.029
69899W        W38372  16.717  37.502  13.824
69900W        W38373   9.676  26.196  13.434
69901W        W38374  37.554  21.018   4.276
69902W        W38375  11.679  14.659   1.871
69903W        W38376  22.210  17.715   1.837
69904W        W38377   4.895  18.741  13.482
69905W        W38378   0.968  25.470   4.705
69906W        W38379  14.697  10.849   2.184
69907W        W38380  17.194  42.907  14.292
69908W        W38381   4.394  35.077  12.464
69909W        W38382   6.793  16.749  13.344
69910W        W38383  18.728   5.859  11.032
69911W        W38384   2.230  41.976   4.823
69912W        W38385  12.312  38.848  12.936
69913W        W38386  40.993  26.642  10.441
69914W        W38387  30.466  42.463   0.444
69915W        W38388   5.765  20.528   4.820
69916W        W38389  30.132   5.881   1.858
69917W        W38390  24.517  29.571  12.492
69918W        W38391  27.015  28.443   0.319
69919W        W38392  10.299  33.544  13.312
69920W        W38393  34.903   4.370  12.031
69921W        W38394  22.507  15.135  10.589
69922W        W38395  25.207  11.867  12.923
69923W        W38396  31.445  18.194  13.509
69924W        W38397   4.431  42.497  12.417
69925W        W38398  38.833  16.142  11.074
69926W        W38399  28.473  14.259  12.423
69927W        W38400   1.417  29.502   2.795
69928W        W38401   5.752  38.018  13.873
69929W        W38402   0.841  36.911  14.323
69930W        W38403  33.063  10.323  11.417
69931W        W38404   2.364  17.171  10.532
69932W        W38405  32.099  16.617   2.178
69933W        W38406  21.596  39.065  11.385
69934W        W38407   3.760   9.272  13.929
69935W        W38408  43.476  18.081   3.851
69936W        W38409   3.390  27.997   3.291
69937W        W38410  34.015  14.818  10.902
69938W        W38411  40.354  16.704  10.517
69939W        W38412  15.746  30.914  12.910
69940W        W38413  19.076  22.179   3.754
69941W        W38414  14.800  15.663  13.488
69942W        W38415   4.866  20.708  12.902
69943W        W38416   5.851  28.138  13.934
69944W        W38417  31.138  44.009  10.079
69945W        W38418   6.756  28.053  10.491
69946W        W38419  14.256  21.560  12.520
69947W        W38420  10.379   7.886   0.756
69948W        W38421  30.954  11.320   0.408
69949W        W38422  17.613   6.827  13.465
69950W        W38423  26.131   9.684   2.404
69951W        W38424  42.009  40.825  13.966
69952W        W38425  11.359  10.239  12.464
69953W        W38426  42.418  39.367   1.730
69954W        W38427   0.375   7.714  10.530
69955W        W38428  17.190  29.455   3.314
69956W        W38429   0.466  42.497   4.169
69957W        W38430  26.106  42.428  11.445
69958W        W38431   0.307  22.075   2.840
69959W        W38432  33.454  14.736  14.925
69960W        W38433  32.915  14.167   3.808
69961W        W38434  41.861  41.962   1.219
69962W        W38435  43.805  30.091   0.334
69963W        W38436   9.346  42.494  12.484
69964W        W38437  17.582  16.102   1.218
69965W        W38438  20.070  37.494   2.722
69966W        W38439  28.546   5.830  13.025
69967W        W38440  28.022  32.102  11.933
69968W        W38441  24.673  16.784   3.299
69969W        W38442   6.260  29.928   2.822
69970W        W38443  10.857  13.264   2.228
69971W        W38444  31.478  43.384  14.955
69972W        W38445  36.946  31.465  12.052
69973W        W38446   2.759  25.064  14.806
69974W        W38447  29.081   8.171  11.464
69975W        W38448  14.189  38.453   0.912
69976W        W38449  13.781   6.726   0.784
69977W        W38450   2.251  16.705  12.440
69978W        W38451  36.383  26.611  14.867
69979W        W38452  27.116  28.637  10.605
69980W        W38453  25.505  43.953   0.891
69981W        W38454  19.070  37.831   0.812
69982W        W38455  14.748  28.597   0.421
69983W        W38456  35.071  27.522  11.564
69984W        W38457  12.730  14.595   1.817
69985W        W38458   6.344  37.472   0.857
69986W        W38459  10.266   2.922  13.390
69987W        W38460   7.283  34.566  13.531
69988W        W38461  29.447  24.052   0.285
69989W        W38462   3.783  24.502  10.407
69990W        W38463  41.351  33.027   4.178
69991W        W38464  38.021  22.105  11.479
69992W        W38465  15.642  21.676  10.596
69993W        W38466   3.710  16.794   4.132
69994W        W38467  44.378  11.807  10.936
69995W        W38468   6.707  36.430  10.447
69996W        W38469  44.794  31.986  12.980
69997W        W38470  20.541  20.039  14.988
69998W        W38471  13.660  14.244  12.563
69999W        W38472   1.306   0.953   1.279
70000W        W38473  33.087  24.043  11.456
70001W        W38474  37.842  41.803   0.754
70002W        W38475  15.230  31.142  10.940
70003W        W38476   8.854  27.994  14.299
70004W        W38477  24.106   6.704  14.025
70005W        W38478   0.328  35.854  10.492
70006W        W38479  25.075  43.377  11.076
70007W        W38480  19.593   5.819   4.139
70008W        W38481   8.245  22.608  14.367
70009W        W38482   1.475  41.457  10.641
70010W        W38483  31.479   2.869  10.902
70011W        W38484  36.572  16.625  11.105
70012W        W38485  37.428  35.104   3.356
70013W        W38486  39.964  43.350   0.877
70014W        W38487  12.612  11.789   1.338
70015W        W38488  44.866  29.648   0.422
70016W        W38489   5.816  34.878  12.383
70017W        W38490  40.847   5.232  10.429
70018W        W38491  23.697  10.818   3.184
70019W        W38492   1.940  15.225  11.590
70020W        W38493   4.934  35.893  10.928
70021W        W38494  39.401  38.352  14.927
70022W        W38495  13.109  29.932  12.490
70023W        W38496  16.135  24.501  11.378
70024W        W38497  17.120   2.766  10.470
70025W        W38498   7.777   0.372   2.411
70026W        W38499   2.734  14.620  11.993
70027W        W38500  18.288  35.983  14.298
70028W        W38501  12.841  19.582  13.806
70029W        W38502  26.501   5.849   2.662
70030W        W38503  12.704  38.017  14.773
70031W        W38504  27.968  23.622  10.535
70032W        W38505  42.901  30.490  13.378
70033W        W38506  33.038  24.012   2.750
70034W        W38507  21.611  36.478  10.950
70035W        W38508  15.171  36.903  10.069
70036W        W38509  10.161  32.527  11.004
70037W        W38510  41.465  22.095   1.849
70038W        W38511  44.900  13.783  10.531
70039W        W38512   1.397  13.803   2.343
70040W        W38513  20.161  12.848  11.041
70041W        W38514   7.345  29.594   1.765
70042W        W38515   7.268  28.122   2.260
70043W        W38516  29.642  42.414   2.210
70044W        W38517  18.058  14.739   4.248
70045W        W38518  13.213   7.245   0.405
70046W        W38519  27.646  43.003  12.841
70047W        W38520   2.891  44.362  11.011
70048W        W38521  21.511  17.674   2.711
70049W        W38522  24.108  23.210   1.265
70050W        W38523  16.074   1.838   4.711
70051W        W38524  44.354  43.847   3.167
70052W        W38525  27.497  42.306   2.753
70053W        W38526   4.789  25.167  10.956
70054W        W38527  25.523  17.295  14.325
70055W        W38528  22.042   8.288  11.878
70056W        W38529  29.115   2.367  14.349
70057W        W38530  28.634   0.426  13.803
70058W        W38531   7.317   9.809  11.014
70059W        W38532  11.663   7.850   3.736
70060W        W38533   9.171  40.425  14.880
70061W        W38534  33.507  44.438  10.504
70062W        W38535  19.147  29.602   1.248
70063W        W38536  20.028   5.213  12.474
70064W        W38537  24.524  19.179  10.544
70065W        W38538  20.051  23.048  13.417
70066W        W38539   5.851  20.085  12.498
70067W        W38540  20.633  41.323  14.446
70068W        W38541  33.461  14.761  12.489
70069W        W38542  23.499  27.464  12.872
70070W        W38543   4.430   1.400  13.370
70071W        W38544  27.671  19.209   1.834
70072W        W38545  33.901   0.396   4.230
70073W        W38546   3.248  13.719   5.304
70074W        W38547  40.431  26.001  12.961
70075W        W38548   6.335  28.174  10.439
70076W        W38549  17.256   1.810   4.724
70077W        W38550   5.380  26.615  14.510
70078W        W38551   3.799  27.182  12.013
70079W        W38552  32.909  30.974   1.764
70080W        W38553  24.542   5.851  12.412
70081W        W38554  43.371   1.429  14.340
70082W        W38555  40.509   0.940  14.385
70083W        W38556   7.843   8.685  11.878
70084W        W38557  34.552  36.994  14.351
70085W        W38558  20.645  13.229  13.961
70086W        W38559  22.121  27.121  10.987
70087W        W38560   8.230  18.249  13.926
70088W        W38561  27.991  30.982   4.817
70089W        W38562   6.736  11.746   2.278
70090W        W38563  29.039  15.102   1.307
70091W        W38564  16.275  29.647  10.621
70092W        W38565  21.051  44.326   4.817
70093W        W38566   1.858  27.977   0.950
70094W        W38567  36.360  39.406  11.423
70095W        W38568  41.994  25.489   4.298
70096W        W38569   0.343  18.757  11.061
70097W        W38570  21.081  13.793   1.797
70098W        W38571  44.345  28.640  12.894
70099W        W38572  38.832  12.714   5.195
70100W        W38573  11.172  28.058  10.632
70101W        W38574  11.210  25.544  13.906
70102W        W38575   5.321  16.276  11.381
70103W        W38576  27.533   1.927  13.936
70104W        W38577  35.005  30.626  11.981
70105W        W38578  13.295  44.770   0.253
70106W        W38579   0.485  28.022  13.511
70107W        W38580  11.770  31.402  13.000
70108W        W38581  40.346   2.362  13.399
70109W        W38582   9.787  19.643   2.728
70110W        W38583  25.688   0.780  14.820
70111W        W38584  32.508  34.510   3.319
70112W        W38585  10.869  24.697   4.729
70113W        W38586  29.526  35.477  11.002
70114W        W38587  43.005  41.377  11.928
70115W        W38588  22.137  32.910   3.868
70116W        W38589  24.189  40.341  14.314
70117W        W38590  19.253   7.768   1.719
70118W        W38591  14.229  28.580  13.469
70119W        W38592   8.778  42.463  12.483
70120W        W38593  22.667  41.828   2.731
70121W        W38594   4.828  10.150   1.772
70122W        W38595  29.103  14.134  13.915
70123W        W38596  36.406   0.488   1.804
70124W        W38597  13.646  25.088   1.432
70125W        W38598  11.867  34.611   3.184
70126W        W38599  32.619  14.749  10.624
70127W        W38600  16.269  41.324   3.727
70128W        W38601  16.801  28.016   0.397
70129W        W38602  30.435  13.199  10.631
70130W        W38603   1.879   2.345   3.272
70131W        W38604  22.995  25.468   2.664
70132W        W38605  27.464  17.610   3.233
70133W        W38606  40.829  33.618   3.642
70134W        W38607   7.877  39.558  14.438
70135W        W38608  43.373  26.662   4.713
70136W        W38609  37.010   4.836  14.505
70137W        W38610   2.263  41.911   2.372
70138W        W38611  10.354  35.946   3.827
70139W        W38612  37.930  38.370  14.923
70140W        W38613  12.333  27.083   2.734
70141W        W38614   4.262   2.448   1.723
70142W        W38615   5.253  29.134  11.045
70143W        W38616  41.430  39.476  13.425
70144W        W38617  20.174   5.931  14.831
70145W        W38618  37.846  20.145   0.779
70146W        W38619  22.524  31.998   5.235
70147W        W38620  34.552  12.240   3.838
70148W        W38621  24.120  31.927  11.128
70149W        W38622  21.155  20.716  14.774
70150W        W38623   2.923  11.781   0.929
70151W        W38624  17.783  21.694   4.782
70152W        W38625  18.661  30.466  10.935
70153W        W38626   5.246  19.137  13.953
70154W        W38627  30.163  30.491  14.932
70155W        W38628  20.609  25.650  12.398
70156W        W38629  15.220   1.297  14.984
70157W        W38630  24.085  25.581   1.323
70158W        W38631  26.683  26.688   2.665
70159W        W38632  34.089  43.955  12.094
70160W        W38633  38.530  43.406  13.909
70161W        W38634  17.260   3.400  12.448
70162W        W38635  32.549  28.592   0.871
70163W        W38636  25.131  22.651   2.208
70164W        W38637  30.127  11.621  12.541
70165W        W38638  37.344  21.682  11.879
70166W        W38639   1.317  42.379  13.451
70167W        W38640  30.562  13.155  13.812
70168W        W38641   5.304  23.525  13.016
70169W        W38642  22.550   8.684   3.347
70170W        W38643   8.326   0.943   3.278
70171W        W38644  38.872  23.613   0.355
70172W        W38645  41.989  22.638   3.321
70173W        W38646  30.016   1.276   2.285
70174W        W38647  11.366  18.746   0.780
70175W        W38648  26.542  40.800   3.184
70176W        W38649  25.985  43.323  12.063
70177W        W38650   1.263  29.149   3.379
70178W        W38651  39.953  39.960  14.407
70179W        W38652  34.015  21.734   3.154
70180W        W38653   4.340   3.816  13.430
70181W        W38654  38.379  21.044   3.330
70182W        W38655  19.744  38.482   2.827
70183W        W38656  38.011  19.585  14.880
70184W        W38657  16.156  36.425  13.368
70185W        W38658   8.337  10.176  11.488
70186W        W38659  25.480   3.401   0.860
70187W        W38660  15.820  35.503  11.045
70188W        W38661  36.853  11.693   3.767
70189W        W38662  30.949  26.998   5.712
70190W        W38663   0.256  43.386  11.950
70191W        W38664  15.273   0.492  11.511
70192W        W38665  33.550  16.579  13.949
70193W        W38666   9.246   4.842  10.967
70194W        W38667  34.459  23.628   0.916
70195W        W38668  41.498  23.586  12.028
70196W        W38669  19.762  37.848  12.874
70197W        W38670  40.376  18.129  13.370
70198W        W38671   2.738  34.950   1.317
70199W        W38672   7.666  19.135  11.985
70200W        W38673  26.468  15.224   3.252
70201W        W38674  12.159   5.778   2.411
70202W        W38675   6.377  34.023   1.424
70203W        W38676  42.413  43.409   4.838
70204W        W38677   0.429  28.478  14.466
70205W        W38678  15.584  22.656   2.749
70206W        W38679  17.207  32.085   4.620
70207W        W38680   0.370  33.035  12.906
70208W        W38681  26.180  31.630  10.500
70209W        W38682   5.796  26.116   4.829
70210W        W38683  37.836  31.462   2.216
70211W        W38684  27.515  12.160   2.311
70212W        W38685  36.842  39.891  10.905
70213W        W38686  30.502  20.579  12.533
70214W        W38687   9.722  35.481  11.388
70215W        W38688  32.104  37.448   0.891
70216W        W38689  36.868  20.629   0.334
70217W        W38690   8.239  21.640   4.301
70218W        W38691  30.561  28.656   4.802
70219W        W38692  19.608  19.156  12.840
70220W        W38693  19.070  34.402  12.473
70221W        W38694  16.289  32.569   0.925
70222W        W38695   1.883  32.559  14.766
70223W        W38696   0.467  24.490  13.442
70224W        W38697   0.899   3.346   0.815
70225W        W38698   6.213  17.729  13.007
70226W        W38699  11.336  14.690   2.865
70227W        W38700  40.942  26.972  13.410
70228W        W38701  37.386  25.214  12.527
70229W        W38702  36.053   8.823   4.637
70230W        W38703  28.534   8.189  13.882
70231W        W38704  15.718  36.950   4.799
70232W        W38705  23.997  35.901  14.460
70233W        W38706   0.963   2.464   2.277
70234W        W38707  26.974  33.429   0.363
70235W        W38708   6.238  27.507   3.298
70236W        W38709  38.424   0.766  12.508
70237W        W38710  35.580  23.013  12.438
70238W        W38711  36.372   2.859   1.847
70239W        W38712  10.211  19.167  13.425
70240W        W38713  27.146  13.614   2.671
70241W        W38714   9.812  37.572   1.281
70242W        W38715  42.327  39.813   3.327
70243W        W38716   8.885  20.655   2.393
70244W        W38717  15.680  39.903  11.472
70245W        W38718   1.268   3.776  13.382
70246W        W38719   8.352   9.793  12.072
70247W        W38720  22.522   3.883   0.879
70248W        W38721   9.650  28.954   3.700
70249W        W38722  26.991  17.685  14.476
70250W        W38723  30.454  30.021   0.926
70251W        W38724  18.271  42.915   4.151
70252W        W38725  17.244  11.778  14.012
70253W        W38726  10.369   3.902  12.892
70254W        W38727  14.700  26.990   2.739
70255W        W38728   1.336  18.059   4.675
70256W        W38729  38.065   6.293  14.787
70257W        W38730  20.535  24.165   2.869
70258W        W38731   7.192  32.422   0.755
70259W        W38732  28.564  31.545  11.475
70260W        W38733  30.503  43.331  12.876
70261W        W38734  19.626  15.706  14.992
70262W        W38735   3.791  10.808  10.969
70263W        W38736  27.163  16.141   0.859
70264W        W38737  30.975  18.645   2.902
70265W        W38738  39.357   6.697   4.124
70266W        W38739  27.139  31.147   0.469
70267W        W38740  15.247  10.815  14.838
70268W        W38741   5.215  23.665   1.934
70269W        W38742  24.581   8.875  14.382
70270W        W38743  33.426   7.864  11.953
70271W        W38744   7.376  14.786  14.456
70272W        W38745  21.630   7.232   1.295
70273W        W38746   5.697  34.522  11.378
70274W        W38747  40.417   4.816  10.622
70275W        W38748  14.604   0.461   1.337
70276W        W38749  33.402  20.704  14.436
70277W        W38750   6.804  28.450   2.388
70278W        W38751  20.099  41.297   4.185
70279W        W38752  24.658  18.066  14.470
70280W        W38753  22.040  19.596  14.431
70281W        W38754   6.790  44.974   1.696
70282W        W38755  22.142  32.948  14.396
70283W        W38756  29.519   5.262   4.601
70284W        W38757  25.164  39.065   2.709
70285W        W38758   5.838  36.495   0.319
70286W        W38759  32.502  22.547  14.820
70287W        W38760  24.087  40.055   0.479
70288W        W38761  13.829  31.022   2.848
70289W        W38762  26.078  15.711   4.746
70290W        W38763  27.523  12.647   4.767
70291W        W38764  43.381   7.863   4.725
70292W        W38765  14.740  21.137   4.184
70293W        W38766  11.308  36.934   4.671
70294W        W38767   8.295   5.206  12.941
70295W        W38768  39.854  29.539   1.872
70296W        W38769  32.888  34.108   4.256
70297W        W38770  22.725   7.305   4.289
70298W        W38771  30.588  39.511   3.315
70299W        W38772   0.374  25.474   4.823
70300W        W38773  21.028   2.793   0.923
70301W        W38774  43.331  36.532  12.449
70302W        W38775  10.199  34.926  14.500
70303W        W38776  30.608  22.624  12.543
70304W        W38777  34.583  27.966   4.806
70305W        W38778  41.926  18.118  10.538
70306W        W38779  39.054  28.133   5.239
70307W        W38780  19.535  24.151  14.919
70308W        W38781   1.454  36.011   2.359
70309W        W38782  25.616  42.471   4.838
70310W        W38783  21.171  33.903   1.217
70311W        W38784   9.273  12.169   3.738
70312W        W38785  32.973  38.559  10.522
70313W        W38786   8.778  28.500   0.732
70314W        W38787   1.908  43.929  13.475
70315W        W38788  35.985   8.894   1.849
70316W        W38789  32.422  22.248  13.985
70317W        W38790  27.679  15.627   1.710
70318W        W38791  39.460  40.806  13.821
70319W        W38792  25.506  43.369   9.575
70320W        W38793  36.068  35.893   4.821
70321W        W38794  36.574  16.178  12.457
70322W        W38795  23.100   6.771  14.469
70323W        W38796  15.808  25.671  14.807
70324W        W38797  15.190   9.660   1.836
70325W        W38798  16.296  39.376  12.417
70326W        W38799  15.622   2.287  10.475
70327W        W38800  39.434   9.724  12.865
70328W        W38801  32.605   3.267   2.335
70329W        W38802  31.564  33.432  12.901
70330W        W38803   3.372  39.995  11.478
70331W        W38804   2.378  44.480   4.165
70332W        W38805  12.790  44.407  10.030
70333W        W38806   0.277   3.852  11.998
70334W        W38807  40.477  31.947   4.721
70335W        W38808  32.995   5.743   3.702
70336W        W38809  30.158   8.819  12.415
70337W        W38810  15.189  35.975  13.863
70338W        W38811   2.370  10.862  14.921
70339W        W38812  42.371  34.552  12.931
70340W        W38813  23.527  25.679  13.348
70341W        W38814  32.494  21.710   3.753
70342W        W38815   6.790  32.628   4.289
70343W        W38816   3.398  12.647  11.565
70344W        W38817  34.372  27.517  13.382
70345W        W38818  31.989  10.186   4.656
70346W        W38819   9.253  36.552   3.254
70347W        W38820  28.607  43.363  12.544
70348W        W38821  34.591  42.873   0.961
70349W        W38822   9.161  17.676  13.019
70350W        W38823  16.735  40.893  10.889
70351W        W38824  33.924   2.370  11.074
70352W        W38825   7.741  38.967   1.804
70353W        W38826  37.995  40.545  10.411
70354W        W38827  30.008  37.911  12.040
70355W        W38828  28.666  35.449   4.679
70356W        W38829  18.241   5.321   0.425
70357W        W38830  44.383   0.458  11.416
70358W        W38831  28.018  41.351   2.806
70359W        W38832  21.260  35.905   1.226
70360W        W38833   1.912  43.790  12.862
70361W        W38834  43.977  41.992  14.310
70362W        W38835   9.885  12.162  12.511
70363W        W38836  38.040   6.884   3.686
70364W        W38837  28.663  42.413   0.884
70365W        W38838  39.546  37.903   1.370
70366W        W38839  17.272  15.691  10.095
70367W        W38840  29.972  14.712  13.993
70368W        W38841  21.673  18.774   3.758
70369W        W38842  29.555  21.730  12.059
70370W        W38843  16.616  37.021   3.683
70371W        W38844   0.853  10.663  13.798
70372W        W38845  21.588  33.512  11.977
70373W        W38846  28.971  19.718   0.930
70374W        W38847   3.359  42.907  11.019
70375W        W38848  31.897  13.293  12.020
70376W        W38849  10.846  36.943  10.454
70377W        W38850   1.390  23.238   0.339
70378W        W38851   4.917  17.088  14.835
70379W        W38852  35.968  23.144   0.928
70380W        W38853  38.063  40.379   3.299
70381W        W38854  25.031   3.325   1.376
70382W        W38855   1.923  39.370  10.609
70383W        W38856  27.653   0.418   5.283
70384W        W38857   5.435  15.088   0.878
70385W        W38858  41.394  15.700  14.443
70386W        W38859  30.623   2.407  14.307
70387W        W38860  37.886  44.447  11.416
70388W        W38861  41.361  29.009   3.168
70389W        W38862  26.645  12.340  14.312
70390W        W38863   2.364  11.330   1.276
70391W        W38864  28.566   7.711  11.546
70392W        W38865  18.665  35.008  10.136
70393W        W38866  14.104  43.904   1.824
70394W        W38867  14.123  12.686  10.044
70395W        W38868   7.694  30.007   4.740
70396W        W38869  25.137  38.943   0.252
70397W        W38870  20.737  19.141  11.410
70398W        W38871  44.925  16.743  10.486
70399W        W38872  38.497  32.926  11.521
70400W        W38873  25.098  41.500  14.839
70401W        W38874  15.766  28.519   1.226
70402W        W38875  37.940  24.529   2.388
70403W        W38876  12.676  29.512   4.189
70404W        W38877  16.743   9.880   0.747
70405W        W38878  19.245  23.155   4.622
70406W        W38879   1.976  36.028  14.003
70407W        W38880  33.588   1.456  13.901
70408W        W38881  32.551  37.475  14.988
70409W        W38882  40.987  11.691   4.769
70410W        W38883  40.005  17.574   2.278
70411W        W38884  44.419   9.643   0.751
70412W        W38885   7.840  37.071   2.822
70413W        W38886  38.861   2.249   1.789
70414W        W38887  30.948  30.043  13.803
70415W        W38888  43.902  42.361   2.750
70416W        W38889  24.523  39.853   2.291
70417W        W38890  33.996  18.770  13.360
70418W        W38891   5.703  44.889   4.743
70419W        W38892  28.608   3.367   4.773
70420W        W38893   0.830  34.895  12.532
70421W        W38894  29.153  26.515  11.604
70422W        W38895   2.949  39.548   0.811
70423W        W38896   6.692  17.142   1.362
70424W        W38897  33.089  33.427   0.828
70425W        W38898  21.676  31.146  14.317
70426W        W38899  32.559   5.828  13.470
70427W        W38900   5.731  33.034  11.435
70428W        W38901   7.772  14.797   3.261
70429W        W38902   0.273  13.678  13.841
70430W        W38903  37.919   7.737   3.673
70431W        W38904  39.507  10.632   1.368
70432W        W38905  20.637   1.965  11.469
70433W        W38906  21.655  21.602   4.725
70434W        W38907  25.061   0.448  13.388
70435W        W38908  12.197  40.841   1.920
70436W        W38909  10.366  34.084  14.834
70437W        W38910  28.172  38.825   2.694
70438W        W38911  33.114  34.440   2.293
70439W        W38912  15.582  20.029  14.309
70440W        W38913  26.559   2.824   3.709
70441W        W38914  15.704  24.231  12.976
70442W        W38915   8.260  24.996  11.071
70443W        W38916   9.878  29.995   3.367
70444W        W38917  23.667  38.422   2.759
70445W        W38918  32.581  33.496  12.069
70446W        W38919  27.588  14.651  11.927
70447W        W38920  10.814  28.078  13.530
70448W        W38921  25.525  29.171   5.209
70449W        W38922   6.720   4.818  13.895
70450W        W38923   5.210   7.678   1.288
70451W        W38924  21.171  28.489  12.867
70452W        W38925  38.353  32.392   3.816
70453W        W38926  41.911   3.717  13.542
70454W        W38927  28.628  34.032  13.852
70455W        W38928  12.121  24.144  14.990
70456W        W38929  33.110   3.361  12.981
70457W        W38930  27.050  37.057   3.747
70458W        W38931   6.218  29.123   3.201
70459W        W38932  41.498  29.103   1.334
70460W        W38933  40.501   5.289   3.309
70461W        W38934  43.777  12.855   1.873
70462W        W38935  13.663   7.225  12.579
70463W        W38936  36.483   9.358   3.206
70464W        W38937   7.841  24.531   5.696
70465W        W38938  41.476   2.890  13.858
70466W        W38939  15.788  29.103   4.699
70467W        W38940  44.421  40.050  10.490
70468W        W38941  27.041  26.084  13.377
70469W        W38942   3.311   2.436  13.996
70470W        W38943   9.290  31.483  13.010
70471W        W38944  11.200  22.507  12.403
70472W        W38945  41.896  35.033  10.518
70473W        W38946   8.658  34.074  14.415
70474W        W38947   5.819   0.744   4.597
70475W        W38948   5.406   9.798  10.618
70476W        W38949   8.655  17.560  14.277
70477W        W38950  32.559  38.969   2.696
70478W        W38951  13.135  41.357  14.825
70479W        W38952  38.369  11.287  10.537
70480W        W38953  13.270  19.674   0.288
70481W        W38954  20.660  27.467   5.692
70482W        W38955  34.564  26.517   1.914
70483W        W38956  43.450  39.997   4.312
70484W        W38957   9.177   3.317  14.842
70485W        W38958  28.998  42.324   2.688
70486W        W38959  24.587  28.055  12.076
70487W        W38960   4.818  26.084  10.065
70488W        W38961  25.171   2.766   0.308
70489W        W38962  19.043  20.556   3.773
70490W        W38963   3.812  21.083  13.034
70491W        W38964  29.627  27.983   4.289
70492W        W38965   9.174  23.015   2.729
70493W        W38966  22.665  42.323  11.385
70494W        W38967  33.522  17.718   2.760
70495W        W38968  10.765  21.030   2.209
70496W        W38969  23.012  16.580   1.285
70497W        W38970  36.911   1.942  13.844
70498W        W38971  32.115   7.699   4.203
70499W        W38972  26.528   3.325   3.869
70500W        W38973  15.325   2.381  10.969
70501W        W38974  38.020  14.337  14.356
70502W        W38975  36.876  34.460  11.922
70503W        W38976  37.357  29.546  11.076
70504W        W38977  35.366  12.344   4.695
70505W        W38978  18.202   8.257  13.060
70506W        W38979  20.701  18.744   4.211
70507W        W38980  13.784  16.214  14.429
70508W        W38981   9.306  21.726   0.784
70509W        W38982  22.104  31.435   1.841
70510W        W38983  31.018  32.008  13.334
70511W        W38984  24.559  44.940   3.648
70512W        W38985  27.973  30.583  11.381
70513W        W38986   0.460  29.081   2.236
70514W        W38987  28.026   7.337  12.495
70515W        W38988  20.145   1.955  13.400
70516W        W38989  14.801   0.311  10.918
70517W        W38990   2.379   3.868   2.311
70518W        W38991   0.863  12.168  12.870
70519W        W38992  30.483  14.713  13.060
70520W        W38993   9.232   4.809   3.373
70521W        W38994  15.213   9.763   0.467
70522W        W38995  29.036  38.408  11.915
70523W        W38996   4.245  28.615   2.781
70524W        W38997  44.375  23.122   1.364
70525W        W38998   8.257  21.756   2.681
70526W        W38999  30.114  21.087   1.307
70527W        W39000  40.350   1.931  12.471
70528W        W39001  12.801  39.470  11.107
70529W        W39002  16.161  44.766  11.883
70530W        W39003  30.593  35.936   2.754
70531W        W39004  42.875  20.560   3.319
70532W        W39005  26.070   6.214   1.425
70533W        W39006   9.849  26.164   5.269
70534W        W39007  27.005   0.964   3.840
70535W        W39008   3.223  24.627   2.831
70536W        W39009  33.037  25.520   3.151
70537W        W39010  32.504   1.886  12.546
70538W        W39011  28.986  29.641  13.523
70539W        W39012  36.391   6.241  13.936
70540W        W39013   5.239  22.166  11.516
70541W        W39014  36.498  41.386   1.770
70542W        W39015  22.043  34.037   0.305
70543W        W39016  40.965  44.355   2.803
70544W        W39017  16.155  41.308  12.350
70545W        W39018  14.805  31.609  13.018
70546W        W39019   2.445  10.818   3.170
70547W        W39020  19.055   6.312  11.437
70548W        W39021  16.077   4.381   4.819
70549W        W39022  31.466  21.744   2.334
70550W        W39023  42.340  22.669  10.438
70551W        W39024  29.115  26.498   0.296
70552W        W39025  19.137   1.371   1.740
70553W        W39026   2.362  13.122   4.258
70554W        W39027  26.113  28.014  11.862
70555W        W39028  35.376   8.400  14.872
70556W        W39029  29.996   7.348  10.490
70557W        W39030  17.287  17.092   5.186
70558W        W39031  39.893  19.047   0.764
70559W        W39032   9.740  14.658  13.885
70560W        W39033  28.980   6.787  14.411
70561W        W39034  13.669   6.825  11.034
70562W        W39035  26.051  24.636  14.346
70563W        W39036  41.517  24.591   0.306
70564W        W39037  44.959  35.068   4.807
70565W        W39038  36.055  21.173   3.247
70566W        W39039  29.080  34.464  11.116
70567W        W39040  21.706   7.698  13.025
70568W        W39041  38.372  33.571  10.932
70569W        W39042  16.683  36.018  10.560
70570W        W39043  41.460  40.912   1.395
70571W        W39044  40.342   5.201  12.039
70572W        W39045  23.061  30.054  12.071
70573W        W39046  34.932   4.738   2.728
70574W        W39047  32.074  44.395  12.487
70575W        W39048  25.147   1.811  12.390
70576W        W39049  23.688   8.705  13.946
70577W        W39050  23.239  42.364   3.263
70578W        W39051   8.870  14.156   0.281
70579W        W39052  19.601  41.925   3.663
70580W        W39053  37.459  44.279   4.190
70581W        W39054  13.696  10.327   4.153
70582W        W39055   7.783   3.409  14.314
70583W        W39056   2.720  18.681  12.372
70584W        W39057  17.161   5.380  13.505
70585W        W39058   6.403  39.347   4.752
70586W        W39059  24.183  32.404  13.861
70587W        W39060  32.605  13.182  14.425
70588W        W39061  41.503  42.315   0.480
70589W        W39062   3.357  19.667   0.328
70590W        W39063  43.337   6.403   2.826
70591W        W39064  21.187  25.631  13.848
70592W        W39065  12.305  24.102  13.354
70593W        W39066  41.023  35.077  12.399
70594W        W39067   9.382  28.974  10.541
70595W        W39068  12.652   6.854   4.685
70596W        W39069  41.903  11.804  10.410
70597W        W39070  39.337  24.501   3.746
70598W        W39071  44.437  17.071   2.330
70599W        W39072  22.155  43.910   3.661
70600W        W39073  13.728   0.945  10.904
70601W        W39074   0.360  35.515   3.229
70602W        W39075   9.753  19.253   2.724
70603W        W39076  35.996  34.390  11.552
70604W        W39077  14.333  19.774   1.407
70605W        W39078  27.022  29.530   1.315
70606W        W39079   1.936  27.645   2.308
70607W        W39080  39.009  41.525  11.446
70608W        W39081  23.106   4.914  12.838
70609W        W39082  42.325   4.295   2.744
70610W        W39083  26.505  15.186   2.285
70611W        W39084  42.798  40.044  11.884
70612W        W39085  26.093  32.120   1.882
70613W        W39086  11.273  34.896  14.431
70614W        W39087  26.986  44.321  12.090
70615W        W39088  28.479  32.133   1.237
70616W        W39089  33.557  30.595  14.355
70617W        W39090   5.245  20.673   1.845
70618W        W39091  36.039  17.244   3.340
70619W        W39092  36.387  30.148  11.986
70620W        W39093  17.580  23.055   4.138
70621W        W39094  33.523  35.879  13.965
70622W        W39095  41.450  16.632  10.641
70623W        W39096   0.919  44.330   5.320
70624W        W39097  28.955  37.917  11.003
70625W        W39098  38.039  39.384   1.857
70626W        W39099  43.510  35.380   2.397
70627W        W39100  39.820   4.398  11.075
70628W        W39101  32.591  11.785  13.458
70629W        W39102   0.271  15.156  14.482
70630W        W39103  39.413   9.268  12.942
70631W        W39104  14.246   6.305  13.063
70632W        W39105   1.757  15.606   2.371
70633W        W39106   0.936   7.750   0.279
70634W        W39107   4.217  23.049  13.051
70635W        W39108   1.845  30.011   4.300
70636W        W39109  22.640  30.007  10.414
70637W        W39110  24.544   2.897   0.742
70638W        W39111  40.016  29.529  11.957
70639W        W39112  23.601  38.005   0.893
70640W        W39113  37.941  15.821  10.944
70641W        W39114  38.971  36.935  14.303
70642W        W39115  30.103  19.272  12.479
70643W        W39116  12.628  12.164   3.343
70644W        W39117  39.854  15.778  13.525
70645W        W39118  28.151   7.201   3.832
70646W        W39119  25.029  29.017   1.335
70647W        W39120  33.381  17.264  10.549
70648W        W39121  19.045  18.053  13.970
70649W        W39122   1.732   7.277   0.429
70650W        W39123  36.896  21.175   3.284
70651W        W39124   2.290   3.229   2.218
70652W        W39125  26.671   1.241   1.364
70653W        W39126   7.706  35.051  13.465
70654W        W39127  30.163  20.188   2.181
70655W        W39128  12.186  27.560  10.448
70656W        W39129  35.024  25.533  13.383
70657W        W39130   3.723  44.940   2.875
70658W        W39131  34.881  16.670  14.299
70659W        W39132   9.300  36.055   0.866
70660W        W39133  35.360  16.684   3.862
70661W        W39134   7.773  41.933  10.414
70662W        W39135  39.939  36.460  13.886
70663W        W39136  44.426  41.395   3.806
70664W        W39137  24.159  40.433   1.377
70665W        W39138  26.523  27.484  14.311
70666W        W39139  17.735  40.513   1.332
70667W        W39140  36.037  44.797   3.178
70668W        W39141  20.244  13.767   4.813
70669W        W39142   2.956  43.278   1.911
70670W        W39143  25.670  42.395  12.382
70671W        W39144  44.273  34.951   0.269
70672W        W39145   5.408  23.559  13.508
70673W        W39146  30.423  16.175  13.872
70674W        W39147  38.930   4.943   5.152
70675W        W39148  34.953  33.952  14.967
70676W        W39149  39.542  33.050   0.736
70677W        W39150  27.682  17.082  11.532
70678W        W39151   9.706  19.169  10.617
70679W        W39152  27.602   4.320  11.870
70680W        W39153  17.640  42.853   2.417
70681W        W39154  22.218  12.209  10.952
70682W        W39155  33.531   5.386  10.427
70683W        W39156  34.554  33.006  13.921
70684W        W39157  16.175  18.122   4.666
70685W        W39158   8.286  26.204  14.783
70686W        W39159  41.790  16.643   3.169
70687W        W39160  22.248  10.640   2.833
70688W        W39161  10.347   9.200   0.402
70689W        W39162  39.435  29.172   0.289
70690W        W39163  19.162  33.432   3.848
70691W        W39164  13.669  37.561  12.374
70692W        W39165   5.230   2.338   3.245
70693W        W39166  38.569  28.607   0.465
70694W        W39167  24.713  38.995  12.354
70695W        W39168   0.453   4.205  10.484
70696W        W39169  24.145  27.671  12.468
70697W        W39170  10.812  33.505  10.144
70698W        W39171  32.129  15.676   5.214
70699W        W39172  32.044  25.030   0.425
70700W        W39173  33.943   5.343  14.508
70701W        W39174  30.591  18.075   1.918
70702W        W39175  13.668   5.330   2.371
70703W        W39176  19.721  35.027   4.305
70704W        W39177  38.456  26.139  11.419
70705W        W39178  27.665  21.126   3.642
70706W        W39179  32.554  17.581  13.807
70707W        W39180  30.653  39.912  14.439
70708W        W39181  26.068  11.336  12.958
70709W        W39182  23.609   3.782  13.034
70710W        W39183  23.638  32.428   2.252
70711W        W39184  35.974  21.534  14.403
70712W        W39185  31.442  38.961  14.976
70713W        W39186  25.035  12.824  13.796
70714W        W39187   5.217  20.082  12.380
70715W        W39188  32.085   8.862  10.135
70716W        W39189  20.724  35.484   1.702
70717W        W39190  35.548  13.281   1.846
70718W        W39191  37.961  34.881  11.403
70719W        W39192  32.003  42.316  10.644
70720W        W39193  38.034  22.083  12.094
70721W        W39194  34.041   3.950  12.044
70722W        W39195  12.192  44.943   0.382
70723W        W39196   0.252  32.011  12.848
70724W        W39197  39.823   2.342   3.630
70725W        W39198  11.670   5.904  14.014
70726W        W39199  43.901   3.333   0.770
70727W        W39200  27.009  17.183  13.931
70728W        W39201  20.136  38.493  11.557
70729W        W39202  23.130  43.508   3.238
70730W        W39203   7.312  12.157   2.866
70731W        W39204  25.078  15.738   2.206
70732W        W39205  36.860   0.892  14.000
70733W        W39206   9.169   5.211   2.375
70734W        W39207  14.227  36.510   1.304
70735W        W39208  29.648  37.512   2.385
70736W        W39209  18.116   9.808  14.817
70737W        W39210  16.724   5.369   2.278
70738W        W39211  43.818  32.426  11.091
70739W        W39212   4.883  26.123   2.405
70740W        W39213   8.822  39.350   3.840
70741W        W39214  11.677  17.760  10.151
70742W        W39215  44.916  11.175   0.923
70743W        W39216  42.802  14.147   5.311
70744W        W39217  37.381   2.847   0.478
70745W        W39218  28.508  17.151   2.794
70746W        W39219   8.749  31.502   4.732
70747W        W39220  17.575  26.084   2.852
70748W        W39221   8.190  34.469   3.667
70749W        W39222   9.210  16.575  13.527
70750W        W39223  13.638   1.780  14.878
70751W        W39224  22.584  15.223  11.035
70752W        W39225  35.876  42.338   4.323
70753W        W39226  26.977   4.778   2.361
70754W        W39227   8.262  31.031  12.928
70755W        W39228  37.432  13.726  10.462
70756W        W39229  36.551   3.437  10.569
70757W        W39230  18.055  21.135   2.226
70758W        W39231  36.418  27.654   0.442
70759W        W39232  29.062  19.248   1.713
70760W        W39233  28.479  40.918   2.855
70761W        W39234   8.817  41.840  12.485
70762W        W39235  20.095  41.375  13.410
70763W        W39236  36.902  13.832  10.491
70764W        W39237  22.233  34.967   0.931
70765W        W39238   0.967  32.391   1.434
70766W        W39239  36.553   7.266   1.794
70767W        W39240  35.400  12.843   4.250
70768W        W39241  29.051  42.793   4.139
70769W        W39242  11.327  44.891   2.860
70770W        W39243  26.535  44.827   4.697
70771W        W39244  40.362   4.339  13.918
70772W        W39245  32.573  44.456   0.382
70773W        W39246  34.952  42.901   2.791
70774W        W39247  13.672  32.015   0.392
70775W        W39248  22.535  17.560  13.501
70776W        W39249  32.114  14.593  13.413
70777W        W39250  36.468  12.240  12.979
70778W        W39251  11.152  44.475  14.366
70779W        W39252  11.639   7.702  10.511
70780W        W39253   5.428  38.407  12.003
70781W        W39254   9.385  13.770   0.940
70782W        W39255  44.829  25.479   0.377
70783W        W39256  22.222  37.016  13.998
70784W        W39257  14.593  33.895  13.425
70785W        W39258   3.442   7.815   2.351
70786W        W39259  29.570  11.216  13.442
70787W        W39260  43.011  20.585  10.988
70788W        W39261  30.505   0.386   3.253
70789W        W39262  13.168  11.138  13.504
70790W        W39263  14.648   6.367  11.582
70791W        W39264  31.046   1.863  13.357
70792W        W39265  15.122   0.305  10.642
70793W        W39266  43.357  38.450  13.508
70794W        W39267  32.040  15.697  14.011
70795W        W39268   5.892  14.655  13.933
70796W        W39269  38.409  16.718  12.498
70797W        W39270   2.402  28.964  12.937
70798W        W39271  33.932  27.640   2.832
70799W        W39272  39.032   4.440  10.048
70800W        W39273  33.043   3.323  10.601
70801W        W39274  42.422  34.507  14.410
70802W        W39275  16.307   6.917   0.857
70803W        W39276   2.856  35.021  12.088
70804W        W39277  33.553   6.318  12.459
70805W        W39278  37.954   8.720  10.644
70806W        W39279  21.186  42.499  10.905
70807W        W39280  41.823  36.400   3.326
70808W        W39281  12.330  42.978   2.734
70809W        W39282  40.359  11.164   1.911
70810W        W39283  42.976  33.078  10.085
70811W        W39284   8.236  28.967   2.192
70812W        W39285  28.138  21.117   2.738
70813W        W39286  40.375  28.627   0.920
70814W        W39287  11.753  33.961  14.352
70815W        W39288  42.403   3.418   4.339
70816W        W39289  44.447  41.992   0.785
70817W        W39290  35.996   0.742  12.972
70818W        W39291  13.842   1.390  12.936
70819W        W39292  13.248  10.783   4.784
70820W        W39293  36.365  38.864  13.509
70821W        W39294  41.494  24.591   1.449
70822W        W39295   2.461  32.429  13.485
70823W        W39296  31.901  32.062  13.978
70824W        W39297  33.953  27.675  13.866
70825W        W39298  31.417   5.248  11.029
70826W        W39299   8.395   4.759   0.752
70827W        W39300   6.405  17.252  11.552
70828W        W39301  15.105  14.180   4.641
70829W        W39302  12.254  13.251  14.881
70830W        W39303  25.144   0.470  12.376
70831W        W39304  26.187   9.745  11.044
70832W        W39305   2.733  13.339   0.855
70833W        W39306  40.484  26.643   2.766
70834W        W39307  27.502  12.137   4.126
70835W        W39308   4.422  29.565  12.451
70836W        W39309  29.542  40.013   2.818
70837W        W39310  39.494  40.901  10.921
70838W        W39311   8.363  33.999   5.744
70839W        W39312  14.653  40.305   1.288
70840W        W39313   3.460  14.300  14.346
70841W        W39314   9.247  44.890  13.359
70842W        W39315  14.724   3.837  11.992
70843W        W39316  36.356  18.110  11.021
70844W        W39317  31.631  41.872  12.531
70845W        W39318  30.120  12.142  13.428
70846W        W39319  15.150  20.593  14.494
70847W        W39320  30.995  23.106  14.295
70848W        W39321  39.030  27.090   2.364
70849W        W39322  40.303  36.528   3.154
70850W        W39323   8.746   5.705  10.630
70851W        W39324  19.617  34.888  12.439
70852W        W39325  16.612  27.500   3.636
70853W        W39326  13.160  33.532   1.777
70854W        W39327  34.923  44.264  10.115
70855W        W39328  35.436  17.190  14.833
70856W        W39329   1.883  29.985  11.934
70857W        W39330  38.964   3.735  11.981
70858W        W39331  10.632   0.966  10.009
70859W        W39332  20.724  40.447  10.406
70860W        W39333  39.493  22.189   3.296
70861W        W39334  16.663  44.325   0.950
70862W        W39335  16.660  30.421   2.834
70863W        W39336   6.421  43.354   0.822
70864W        W39337  42.454  44.390  14.912
70865W        W39338   3.814  36.543   0.824
70866W        W39339  13.726  23.197   4.788
70867W        W39340  38.420   6.277   0.908
70868W        W39341   6.233  15.764   5.293
70869W        W39342  43.411  14.752   2.842
70870W        W39343  24.721   1.914  11.121
70871W        W39344  33.539  28.613  10.636
70872W        W39345  42.873  24.202   3.631
70873W        W39346  44.980  32.078  12.048
70874W        W39347  37.036  37.430  10.431
70875W        W39348  16.789   3.798  11.431
70876W        W39349  36.020  37.440   2.383
70877W        W39350  24.173  16.182  14.445
70878W        W39351  29.573  22.548  12.427
70879W        W39352  30.084  37.073  11.394
70880W        W39353  43.774  13.622  11.906
70881W        W39354  20.156  16.665  14.965
70882W        W39355  33.610  44.812   3.244
70883W        W39356  35.486   4.857  11.493
70884W        W39357   3.398  42.291  13.430
70885W        W39358   0.429  29.427  13.950
70886W        W39359  37.426   2.287   3.744
70887W        W39360  34.510   2.292   0.289
70888W        W39361   1.349  16.731   4.826
70889W        W39362  32.115  36.994   4.262
70890W        W39363  37.865  29.646  12.496
70891W        W39364  34.405   0.248  12.557
70892W        W39365   1.830  18.765   3.258
70893W        W39366  26.056  27.985   0.950
70894W        W39367  22.117   6.877   1.215
70895W        W39368  26.592  32.971   3.761
70896W        W39369  34.997  29.050  13.974
70897W        W39370  25.039  16.570   3.804
70898W        W39371   8.701   1.460  11.971
70899W        W39372   9.668  29.004   1.303
70900W        W39373  33.428   3.880   1.731
70901W        W39374  44.482  44.998   0.807
70902W        W39375   6.720  42.308  12.457
70903W        W39376  38.007  40.384  14.475
70904W        W39377  37.343  16.617  12.008
70905W        W39378  44.375  20.710   1.325
70906W        W39379  16.132  20.230  13.890
70907W        W39380  34.931  33.388  12.490
70908W        W39381  25.481   9.231   1.815
70909W        W39382  14.718  32.053  14.343
70910W        W39383  40.982  24.517  13.821
70911W        W39384  12.280   9.700   0.959
70912W        W39385   4.259  27.457   0.932
70913W        W39386   6.703  44.421  11.023
70914W        W39387  40.035  38.071  12.500
70915W        W39388   3.367  41.502   3.793
70916W        W39389  40.834  20.535  14.843
70917W        W39390  16.291  24.015   0.902
70918W        W39391   4.806  24.665  13.404
70919W        W39392  34.436  41.004   0.261
70920W        W39393  38.942   6.852   1.719
70921W        W39394  28.547  34.082  14.379
70922W        W39395  32.988  20.146   3.290
70923W        W39396  28.069  44.807  12.940
70924W        W39397  16.798  42.330  13.352
70925W        W39398   6.692  30.044   1.704
70926W        W39399  28.093  25.705   3.850
70927W        W39400  29.925  28.614   1.710
70928W        W39401  14.227  31.062   2.342
70929W        W39402  31.027  15.285   0.265
70930W        W39403  41.483  37.438  11.907
70931W        W39404  20.579  28.604  14.477
70932W        W39405  22.095   6.783  13.391
70933W        W39406  22.572  42.326  13.310
70934W        W39407   8.365   9.238   3.826
70935W        W39408  20.173  25.016  14.478
70936W        W39409   4.415  36.886   4.795
70937W        W39410  40.039  14.264  13.879
70938W        W39411  19.604  14.734   1.220
70939W        W39412  34.077  25.090   1.867
70940W        W39413   3.290  27.153  12.466
70941W        W39414  37.956  21.256  13.836
70942W        W39415  20.239  41.978  14.398
70943W        W39416  35.889  35.045   2.289
70944W        W39417   4.776  24.701  12.533
70945W        W39418  30.125  24.002  11.522
70946W        W39419  31.116  31.524  14.009
70947W        W39420  21.082  13.777  14.792
70948W        W39421  31.126  44.848   0.274
70949W        W39422  40.811  15.819  11.910
70950W        W39423  25.599  19.534   1.283
70951W        W39424  27.189   9.346   2.816
70952W        W39425  43.315  22.633   2.866
70953W        W39426  42.508  20.694   0.948
70954W        W39427   7.222  16.199  12.023
70955W        W39428  41.488   3.799  10.491
70956W        W39429   4.340  25.059   4.806
70957W        W39430   5.323  34.921   4.605
70958W        W39431  19.105  15.795  10.100
70959W        W39432  17.751  31.029   2.419
70960W        W39433  19.756  18.558  12.876
70961W        W39434   8.164  33.921   2.894
70962W        W39435  41.329  13.792  10.546
70963W        W39436   7.701  33.486  12.510
70964W        W39437  27.136  27.595  11.006
70965W        W39438  41.845  12.658  14.028
70966W        W39439  24.980  34.036  13.451
70967W        W39440  41.907  29.460  11.566
70968W        W39441  12.251  10.747  11.399
70969W        W39442  35.361   7.681   1.881
70970W        W39443  23.613  16.261  13.322
70971W        W39444  25.590  43.485   0.283
70972W        W39445  22.103  25.192   2.179
70973W        W39446   1.247  21.235   3.310
70974W        W39447  33.938  42.799   3.836
70975W        W39448  16.201  15.798   4.149
70976W        W39449  25.577  43.440   0.831
70977W        W39450  30.630  15.207  13.955
70978W        W39451   0.908  12.260   4.290
70979W        W39452  15.238  43.443   3.671
70980W        W39453  22.556  21.066   4.670
70981W        W39454  24.665   6.796  13.907
70982W        W39455  14.285  38.044  10.506
70983W        W39456  41.336  21.640   4.723
70984W        W39457  37.061  41.519   2.348
70985W        W39458   4.894  41.035  10.529
70986W        W39459  36.352  28.969  11.941
70987W        W39460  14.795  31.487  14.358
70988W        W39461   7.730  16.754   0.745
70989W        W39462  19.626  29.083  14.822
70990W        W39463  21.177  30.095   4.661
70991W        W39464  33.540  10.671  14.998
70992W        W39465  34.983  26.501  10.501
70993W        W39466  39.878  20.220   3.255
70994W        W39467  36.084  44.983   2.248
70995W        W39468   2.777  35.423   1.368
70996W        W39469  24.025  22.658   0.740
70997W        W39470  21.113  38.567   1.925
70998W        W39471  13.312  31.476  14.404
70999W        W39472   8.261   9.782  13.444
71000W        W39473  10.179  11.741  11.050
71001W        W39474  11.776  39.034   4.287
71002W        W39475  18.609  22.023   4.786
71003W        W39476  39.871  14.175   2.900
71004W        W39477  21.716   0.281  11.892
71005W        W39478  23.067  36.496  11.103
71006W        W39479  31.980  30.041   2.866
71007W        W39480  17.655  30.654   4.278
71008W        W39481  30.486  39.945  14.906
71009W        W39482  37.374   4.729   2.310
71010W        W39483  34.111  41.900   3.753
71011W        W39484  36.456  25.573  12.021
71012W        W39485  36.446  42.328   1.901
71013W        W39486  14.801  24.002   1.431
71014W        W39487  32.612  14.157   3.234
71015W        W39488  21.572   7.666   1.258
71016W        W39489  27.574  25.663   4.767
71017W        W39490  35.909  25.695  12.539
71018W        W39491  15.124   2.253  10.618
71019W        W39492  12.759  43.342   3.830
71020W        W39493  35.928  27.982   3.283
71021W        W39494  21.118   3.800   5.320
71022W        W39495   4.416  27.610   1.286
71023W        W39496  33.922  26.650  11.920
71024W        W39497  29.959  27.156  11.519
71025W        W39498  14.247  10.698   2.757
71026W        W39499  10.350  18.679   2.280
71027W        W39500   0.773   7.190  11.481
71028W        W39501  36.936  24.172   0.395
71029W        W39502  38.443  39.895  13.799
71030W        W39503  15.773  19.160  11.086
71031W        W39504   4.293  16.106   4.339
71032W        W39505  27.053  28.546  11.477
71033W        W39506  32.634  40.031   0.967
71034W        W39507  19.250  34.969  10.592
71035W        W39508  25.570  37.456  14.327
71036W        W39509  43.414  21.104   0.278
71037W        W39510   7.807   7.181   3.348
71038W        W39511   9.152  17.245  14.784
71039W        W39512   5.760  13.820  13.981
71040W        W39513  21.646  41.817   3.301
71041W        W39514  20.745  43.988  13.327
71042W        W39515  40.799  10.317   2.210
71043W        W39516  25.973  42.443  13.893
71044W        W39517  14.715  11.196   4.269
71045W        W39518  21.637   8.199   1.890
71046W        W39519  38.017  16.700   3.238
71047W        W39520   2.946  36.384   0.817
71048W        W39521  25.513  14.125   9.973
71049W        W39522  32.403  29.092   3.702
71050W        W39523  14.105  26.667  12.950
71051W        W39524  25.678  10.374   0.278
71052W        W39525  43.351  43.408   3.331
71053W        W39526  21.123  24.669   1.306
71054W        W39527  33.878  18.759   0.797
71055W        W39528  34.438  22.111  14.919
71056W        W39529  15.739  20.592   0.373
71057W        W39530   5.199  18.553   2.855
71058W        W39531  32.120  31.944   2.896
71059W        W39532   6.704  22.659   4.156
71060W        W39533  37.533   6.776   2.682
71061W        W39534  44.415  17.802   1.274
71062W        W39535  34.413  14.674  13.972
71063W        W39536  38.013  24.723   4.208
71064W        W39537  10.187  23.587  10.604
71065W        W39538  38.022  37.573  14.878
71066W        W39539   0.960  16.221  11.514
71067W        W39540  44.914  33.559  14.980
71068W        W39541  24.692   6.199   0.881
71069W        W39542  18.186  21.251  12.529
71070W        W39543   6.387  40.375   2.306
71071W        W39544  31.073  43.427  10.610
71072W        W39545  21.052   6.744  11.865
71073W        W39546  44.866  37.842  14.317
71074W        W39547  19.161  37.372  14.444
71075W        W39548  16.164  34.438   0.897
71076W        W39549  38.829  16.765  11.080
71077W        W39550  19.150  27.108  10.487
71078W        W39551  22.072   4.808   4.118
71079W        W39552  21.645   8.323   3.708
71080W        W39553  21.047  27.550  11.577
71081W        W39554  36.858   6.342  13.853
71082W        W39555   0.931  27.028  14.769
71083W        W39556  42.010  15.329   4.225
71084W        W39557  37.428  43.495  12.451
71085W        W39558  10.661  32.406  11.448
71086W        W39559   5.694  10.643  14.984
71087W        W39560  10.798   6.846  12.063
71088W        W39561  25.653  32.029   4.619
71089W        W39562  41.391  23.183  14.348
71090W        W39563   7.904  25.039   1.386
71091W        W39564  13.140  11.243   1.857
71092W        W39565  42.313  38.893  13.997
71093W        W39566  23.116   8.738  10.584
71094W        W39567  24.222  33.119   4.290
71095W        W39568   9.393  41.983  11.120
71096W        W39569   0.749  18.172  11.478
71097W        W39570   3.874  21.176  13.506
71098W        W39571  37.893  22.024   2.763
71099W        W39572  17.763   5.390   1.920
71100W        W39573  44.451  29.633   1.925
71101W        W39574  39.506  40.966   2.756
71102W        W39575   6.407   1.335  13.900
71103W        W39576  26.634  15.787  12.057
71104W        W39577   1.965  44.485  10.539
71105W        W39578  14.279  12.747   2.703
71106W        W39579  24.113  13.179  10.084
71107W        W39580   1.432   0.283  10.598
71108W        W39581  12.640  39.519   0.950
71109W        W39582  35.469  22.725   4.178
71110W        W39583   5.726  23.226  14.446
71111W        W39584  21.709  19.630  12.369
71112W        W39585  43.421   5.315  10.490
71113W        W39586  13.830  18.184   0.807
71114W        W39587  28.055  43.846   3.849
71115W        W39588   4.270  16.799   2.391
71116W        W39589  19.057  20.631   4.653
71117W        W39590   3.894  43.287   4.238
71118W        W39591  25.167  40.979  14.901
71119W        W39592  19.559  35.538  13.427
71120W        W39593  42.288  44.304   2.868
71121W        W39594  33.566  40.314   0.468
71122W        W39595  25.587  40.035  14.945
71123W        W39596  31.999  11.708   1.756
71124W        W39597  28.177   3.760   3.201
71125W        W39598  38.875   8.685  10.987
71126W        W39599  35.041   1.746   4.230
71127W        W39600  34.109  27.971   0.763
71128W        W39601  13.644  12.798  12.385
71129W        W39602  31.063   1.828  10.558
71130W        W39603  42.433   4.341   0.295
71131W        W39604  32.603  11.759  11.035
71132W        W39605  33.387  30.079   2.692
71133W        W39606   1.266   7.205   4.737
71134W        W39607  42.527   8.730   3.370
71135W        W39608  30.464  42.381  13.459
71136W        W39609  37.509   3.827   0.807
71137W        W39610  42.813  39.322  12.448
71138W        W39611  29.122  16.749   0.918
71139W        W39612  29.068  10.191   1.362
71140W        W39613  16.639   7.356   2.273
71141W        W39614  30.491  43.392   4.604
71142W        W39615  17.081  38.001   1.449
71143W        W39616  26.028   6.377  14.774
71144W        W39617  23.132  15.648   1.230
71145W        W39618  38.053  19.766   0.885
71146W        W39619  29.975  32.965   3.385
71147W        W39620  42.393  30.073  10.517
71148W        W39621   5.340   7.348   4.314
71149W        W39622  39.928  12.345   4.270
71150W        W39623  16.086   8.367  13.534
71151W        W39624   8.183   4.365   4.272
71152W        W39625  29.106   5.233  11.423
71153W        W39626  21.530   7.381  10.922
71154W        W39627   2.405  38.342  11.077
71155W        W39628  16.621  22.226  13.506
71156W        W39629  33.998  35.422  14.298
71157W        W39630   2.350  43.297  13.486
71158W        W39631  16.252  22.103   0.266
71159W        W39632  26.491  22.241   4.668
71160W        W39633  23.655  35.450   0.271
71161W        W39634  42.466  32.961   1.239
71162W        W39635   1.299  35.986   1.831
71163W        W39636  40.902  25.086  13.525
71164W        W39637  11.219  44.971   4.650
71165W        W39638  28.636  29.052  14.307
71166W        W39639  13.216  24.527   3.798
71167W        W39640  27.509  19.778  13.920
71168W        W39641  14.275  12.757   1.730
71169W        W39642  18.658   8.732   2.405
71170W        W39643  25.630  16.616  12.992
71171W        W39644  32.595  13.294   1.698
71172W        W39645   9.394   3.215   1.221
71173W        W39646   4.276   9.204  13.989
71174W        W39647  40.429   9.829   3.230
71175W        W39648   2.837  19.579  14.379
71176W        W39649  35.983   2.724   1.843
71177W        W39650   3.313   5.843  11.451
71178W        W39651  25.217   0.856   2.758
71179W        W39652  16.120  25.692  11.114
71180W        W39653  10.859  32.579   4.710
71181W        W39654  24.125  14.114  10.121
71182W        W39655  30.616  19.773   2.334
71183W        W39656  13.180  27.123  11.045
71184W        W39657  18.120  22.089   0.965
71185W        W39658  20.067   4.358   3.268
71186W        W39659  18.147  17.747  12.545
71187W        W39660   9.342  19.709  11.906
71188W        W39661  29.063  22.515   2.740
71189W        W39662  21.672  19.266   1.753
71190W        W39663   2.461   0.317  12.438
71191W        W39664  27.520  41.471   2.691
71192W        W39665   7.233  19.187  11.031
71193W        W39666   4.837  22.106   1.906
71194W        W39667  14.280  31.137  14.329
71195W        W39668  19.537  32.979   4.150
71196W        W39669  16.643  31.548  14.317
71197W        W39670  41.833  17.152   4.601
71198W        W39671  41.998   1.467  14.513
71199W        W39672  28.454  44.451   0.337
71200W        W39673   7.688  37.462   2.680
71201W        W39674  39.454  16.712   2.180
71202W        W39675  28.967  16.226  10.443
71203W        W39676  13.748  36.058   4.668
71204W        W39677  13.663   1.916  11.954
71205W        W39678  10.809   1.932  11.050
71206W        W39679  35.412   5.839  12.893
71207W        W39680  44.809  35.559  11.909
71208W        W39681  11.646  32.101  13.895
71209W        W39682  41.465  24.644  10.521
71210W        W39683  21.742  40.420   2.785
71211W        W39684  29.600   7.353   1.431
71212W        W39685  18.702  35.963   2.792
71213W        W39686  32.551  32.009  14.906
71214W        W39687  29.591  31.427  13.999
71215W        W39688  13.175   0.988  12.514
71216W        W39689  30.619  28.674  12.871
71217W        W39690   1.395  12.852   4.640
71218W        W39691  29.562  26.461  14.383
71219W        W39692  23.580  17.300  10.598
71220W        W39693  11.136  31.935  12.073
71221W        W39694  11.350  25.531   4.160
71222W        W39695  10.813   7.759  13.521
71223W        W39696   4.295   0.878   3.297
71224W        W39697   3.328  17.581   3.258
71225W        W39698  14.337  36.932  11.567
71226W        W39699   1.303  36.870   1.346
71227W        W39700  16.619   8.852   1.837
71228W        W39701  19.627  13.688   0.746
71229W        W39702  28.100  35.099   4.632
71230W        W39703  19.568   4.281  12.553
71231W        W39704   2.284   5.421  14.964
71232W        W39705   5.814   3.900  13.060
71233W        W39706  14.778  35.999   3.220
71234W        W39707  18.634  38.550  13.365
71235W        W39708  42.798  19.284  12.982
71236W        W39709  27.663  18.156  13.884
71237W        W39710   8.345  32.447  13.050
71238W        W39711   5.309  10.175   0.942
71239W        W39712  23.101   4.400   4.745
71240W        W39713  28.677  23.548  11.924
71241W        W39714  43.780   8.255   1.746
71242W        W39715   2.874  21.756   0.260
71243W        W39716  27.573  21.612  12.889
71244W        W39717   7.375  17.072  10.981
71245W        W39718  34.558  25.102  14.009
71246W        W39719   2.303   4.401  10.929
71247W        W39720  28.984  35.431   3.289
71248W        W39721  34.522  40.953   1.346
71249W        W39722  26.154  41.535  12.933
71250W        W39723  37.378   0.877  13.953
71251W        W39724  37.047  41.989   1.908
71252W        W39725  23.037  40.543  10.462
71253W        W39726  11.718  25.556  14.374
71254W        W39727  33.541   0.492  12.916
71255W        W39728  17.700  33.032  12.948
71256W        W39729  44.949  19.647  13.494
71257W        W39730  32.453   6.854  12.902
71258W        W39731  29.031  43.304  11.941
71259W        W39732  15.743  17.702  12.824
71260W        W39733  29.934  11.703  13.368
71261W        W39734  21.705  35.454  14.900
71262W        W39735   6.858  35.073   3.186
71263W        W39736   2.306   8.771   3.149
71264W        W39737   8.241  43.275   3.851
71265W        W39738  15.299   6.187   4.157
71266W        W39739  31.528  32.576   0.415
71267W        W39740  32.504  14.631   2.188
71268W        W39741  15.748  19.156   4.308
71269W        W39742  28.617  26.566   0.284
71270W        W39743  22.040  43.394  12.990
71271W        W39744  26.997   5.405  10.619
71272W        W39745  32.054  44.832  12.963
71273W        W39746   6.421   9.177  13.465
71274W        W39747  22.039  14.241  14.849
71275W        W39748  41.527  10.227  13.988
71276W        W39749  19.630  15.642  10.592
71277W        W39750  32.101   5.759   4.718
71278W        W39751  17.800  32.128  13.348
71279W        W39752  39.384  33.915  12.925
71280W        W39753  39.341  43.946  12.474
71281W        W39754  34.872   8.732   3.302
71282W        W39755  31.081  33.390  12.829
71283W        W39756  31.441  25.641   5.729
71284W        W39757  26.523   5.809   3.645
71285W        W39758  14.589   6.367   4.233
71286W        W39759  23.139  36.515   1.401
71287W        W39760  44.792  25.205   1.348
71288W        W39761  40.322   0.961   0.925
71289W        W39762  29.943  36.926   1.792
71290W        W39763   9.255   8.313  12.022
71291W        W39764  12.662  13.301  14.397
71292W        W39765  19.075   4.851   3.378
71293W        W39766   8.197  28.034  13.468
71294W        W39767  11.747  15.289  10.589
71295W        W39768   9.343  35.909  12.086
71296W        W39769  31.457   5.855   3.326
71297W        W39770  43.825   8.762  10.500
71298W        W39771  31.115  10.158  14.009
71299W        W39772  34.083  26.989   3.150
71300W        W39773   3.408  15.664   3.720
71301W        W39774  15.297   7.846   0.478
71302W        W39775  33.902  11.293   3.241
71303W        W39776  18.181  13.230  11.459
71304W        W39777   1.299  19.597   2.301
71305W        W39778  14.288  42.796   4.129
71306W        W39779  34.599   5.718   1.354
71307W        W39780  15.741   5.195  12.515
71308W        W39781   5.439  28.623   2.783
71309W        W39782  11.305   2.896   3.723
71310W        W39783  37.851  19.108   3.307
71311W        W39784  26.520  19.579  14.811
71312W        W39785  18.064  17.717   2.739
71313W        W39786  26.575  16.186   2.800
71314W        W39787  11.851  21.177   2.273
71315W        W39788   4.743  40.482  10.424
71316W        W39789  29.027  27.530   3.816
71317W        W39790  44.774  13.197   3.837
71318W        W39791  24.517  31.427   3.191
71319W        W39792  23.188  25.517   5.748
71320W        W39793  26.033   7.390   2.209
71321W        W39794  31.600  39.488  14.407
71322W        W39795  36.908   6.830   1.256
71323W        W39796   6.888   1.976  10.591
71324W        W39797   8.354  13.743   4.301
71325W        W39798  34.900  25.025  11.080
71326W        W39799  37.831  31.927   4.307
71327W        W39800  24.530  23.720   0.326
71328W        W39801   9.253  12.254   1.393
71329W        W39802  23.167  22.140  14.403
71330W        W39803  27.019   4.829  11.411
71331W        W39804  26.579  40.528   4.149
71332W        W39805  17.669  44.004  12.859
71333W        W39806  21.660  25.631  11.408
71334W        W39807   7.314  24.033  14.789
71335W        W39808  14.818   8.779  11.463
71336W        W39809  19.680  44.503   0.284
71337W        W39810  12.746  16.105   4.740
71338W        W39811  40.912  18.632  14.393
71339W        W39812   7.269  34.993  12.877
71340W        W39813   1.747  32.905  10.592
71341W        W39814  30.536   5.304   3.634
71342W        W39815   9.810  17.690  10.954
71343W        W39816  15.708  11.162  13.529
71344W        W39817  19.248  29.552  14.836
71345W        W39818  25.060  18.290   2.881
71346W        W39819  33.549  31.586   0.332
71347W        W39820  16.307  12.300  13.420
71348W        W39821  44.786  31.581  13.844
71349W        W39822  20.545  30.022   4.260
71350W        W39823   2.245  29.606  14.482
71351W        W39824  17.667   6.227   2.708
71352W        W39825  19.231  21.159  11.381
71353W        W39826  23.617  35.485   2.847
71354W        W39827  23.714  14.739   0.360
71355W        W39828  19.537   8.826   3.686
71356W        W39829  15.156  19.089  11.059
71357W        W39830  42.837   3.454  10.563
71358W        W39831   1.952   3.885   3.727
71359W        W39832   3.249  37.350  11.409
71360W        W39833  19.227  40.536   3.254
71361W        W39834  13.166  26.164  13.538
71362W        W39835  28.144  16.216  14.304
71363W        W39836  34.399  31.636  11.432
71364W        W39837  40.397   4.786   4.654
71365W        W39838  35.455  39.525  11.120
71366W        W39839  13.844  10.661   1.254
71367W        W39840   0.385   1.461   0.389
71368W        W39841  25.703  31.996  13.896
71369W        W39842   8.303  39.992  11.882
71370W        W39843   7.729  21.045   3.209
71371W        W39844  14.228  15.106   4.772
71372W        W39845  16.079  17.295   0.739
71373W        W39846  34.395  24.713  13.366
71374W        W39847  17.690  30.485   0.480
71375W        W39848  10.253  38.356  10.473
71376W        W39849   6.912  38.976   0.355
71377W        W39850  37.474  14.832   1.228
71378W        W39851  40.503  41.831  12.453
71379W        W39852   0.428  31.597  10.926
71380W        W39853  44.309   2.371  10.896
71381W        W39854  23.502  43.469   3.745
71382W        W39855   6.715  24.980  10.588
71383W        W39856  14.213  21.088   4.340
71384W        W39857   2.776  18.201   4.647
71385W        W39858  38.375  25.029   2.228
71386W        W39859  27.980  20.271  12.861
71387W        W39860  29.471  18.772  14.941
71388W        W39861   0.344  35.472   2.764
71389W        W39862  28.526   1.476  13.887
71390W        W39863  25.971  29.594  14.890
71391W        W39864  42.281   7.748  12.544
71392W        W39865  16.204  13.189  11.088
71393W        W39866  35.529  14.248  10.613
71394W        W39867  30.413  37.424   0.276
71395W        W39868  13.273   2.448  13.507
71396W        W39869  41.505  21.520   1.374
71397W        W39870  43.011  29.612   0.766
71398W        W39871   9.312  34.990  11.469
71399W        W39872  39.358  23.120  10.518
71400W        W39873   4.218  25.681  13.512
71401W        W39874  20.272  29.018  12.383
71402W        W39875  24.169  10.681  12.881
71403W        W39876  22.119   1.275  12.545
71404W        W39877  40.540  10.728   3.253
71405W        W39878  19.730  24.102   4.666
71406W        W39879  43.890   5.741   2.811
71407W        W39880   2.843  12.309  14.400
71408W        W39881  16.799  21.177   2.686
71409W        W39882  20.571  32.416   0.765
71410W        W39883  19.682  10.352  10.933
71411W        W39884  43.983  41.797  14.024
71412W        W39885   8.162   1.406   3.631
71413W        W39886  41.989  18.783   1.287
71414W        W39887  14.681  44.317  10.575
71415W        W39888  19.069  29.006  11.892
71416W        W39889  18.687  22.742  13.916
71417W        W39890   5.794  12.728   3.838
71418W        W39891  37.913  41.304  10.126
71419W        W39892  11.256  21.512   3.185
71420W        W39893  30.974   9.848   4.180
71421W        W39894  25.078  29.099  12.417
71422W        W39895  33.888  34.000  11.376
71423W        W39896  16.125  38.445  14.871
71424W        W39897  14.170  21.714  11.068
71425W        W39898   3.742  36.555   1.808
71426W        W39899   2.883   3.410  14.505
71427W        W39900  23.055  28.622   5.647
71428W        W39901  16.717  33.990   2.731
71429W        W39902  37.029  22.522   1.376
71430W        W39903  12.323   0.911  14.292
71431W        W39904  36.409  35.875   4.657
71432W        W39905   4.940  16.683  10.544
71433W        W39906  33.919  27.106  14.944
71434W        W39907  31.646  39.838  12.361
71435W        W39908  43.771  39.831  11.451
71436W        W39909  13.308  43.822   3.841
71437W        W39910  15.318   8.284  14.392
71438W        W39911  20.636   1.902   0.303
71439W        W39912  28.164  18.656   2.664
71440W        W39913   1.776  40.806  12.432
71441W        W39914  12.655  14.277  11.860
71442W        W39915  16.713  15.622   4.681
71443W        W39916   1.448   5.250  12.573
71444W        W39917  25.549  18.701  11.603
71445W        W39918  32.590  34.518   3.768
71446W        W39919  31.049   0.927   2.238
71447W        W39920  20.664  34.564  12.416
71448W        W39921   2.963   6.717  11.872
71449W        W39922  36.577   3.800  12.079
71450W        W39923  30.097  30.038   2.320
71451W        W39924  33.964   1.904   0.842
71452W        W39925  10.689   4.762   3.173
71453W        W39926  44.880  31.140  12.957
71454W        W39927  17.064  42.397   4.668
71455W        W39928  10.271  32.087   2.872
71456W        W39929  20.066   0.365  14.460
71457W        W39930   2.342  12.654   1.268
71458W        W39931  33.401  34.547  13.439
71459W        W39932  27.531   6.318  14.469
71460W        W39933  18.611  34.583  12.994
71461W        W39934  24.553  32.940   0.892
71462W        W39935  31.999  22.603   0.281
71463W        W39936  19.283  27.488   0.338
71464W        W39937   0.484  12.751   0.403
71465W        W39938  26.074  29.087  14.866
71466W        W39939  15.698  33.408   0.860
71467W        W39940  10.139  17.715  12.029
71468W        W39941  31.614  22.567   4.770
71469W        W39942   0.321  12.754  13.395
71470W        W39943  40.448  18.146  10.043
71471W        W39944  19.043  24.554   1.792
71472W        W39945   7.679  19.581   4.160
71473W        W39946  24.679   9.673  13.057
71474W        W39947  34.054  29.962  14.361
71475W        W39948  16.239  28.599  12.503
71476W        W39949  40.397  23.221   3.740
71477W        W39950  28.949  23.999  12.933
71478W        W39951  22.522  27.954   3.199
71479W        W39952  14.623  20.678  10.464
71480W        W39953  16.703  40.334  12.946
71481W        W39954  18.128  15.191   2.811
71482W        W39955   1.345  41.809  10.991
71483W        W39956  39.536  31.111  14.359
71484W        W39957  42.028  30.456  11.527
71485W        W39958   9.249   1.796  14.770
71486W        W39959   2.304  22.038  10.588
71487W        W39960  21.639   8.199   4.165
71488W        W39961  39.345   5.924  14.027
71489W        W39962  11.808  15.097  14.027
71490W        W39963  39.012  26.641   1.323
71491W        W39964  37.557  12.343  14.383
71492W        W39965   5.719  16.268   0.390
71493W        W39966  15.117  35.934  14.464
71494W        W39967  35.601   2.408   4.308
71495W        W39968  19.258  40.960  13.994
71496W        W39969  38.902  31.923   4.167
71497W        W39970   5.254  22.675  14.439
71498W        W39971  15.638  22.648   0.298
71499W        W39972   0.439  14.827   3.249
71500W        W39973  11.743  23.639   2.832
71501W        W39974   4.755   9.302   4.605
71502W        W39975  17.141  12.842   3.346
71503W        W39976  10.708  36.015   1.256
71504W        W39977   4.805  42.354  10.631
71505W        W39978  37.502   2.754  13.835
71506W        W39979   1.921  32.030  13.025
71507W        W39980  11.267  13.633  14.829
71508W        W39981  16.220  33.892  12.830
71509W        W39982  12.208   5.903  13.357
71510W        W39983  15.225  18.236  10.524
71511W        W39984   3.949  13.215  11.400
71512W        W39985  35.978   1.295  13.849
71513W        W39986   5.308  22.059  14.814
71514W        W39987  30.502  38.358   3.328
71515W        W39988   4.364  31.976   3.730
71516W        W39989  25.472  42.868   4.138
71517W        W39990   3.386  40.021  13.000
71518W        W39991   2.751   1.819  12.996
71519W        W39992   8.366  26.149  13.965
71520W        W39993  35.545  10.699   4.815
71521W        W39994  10.232  30.153  12.991
71522W        W39995  43.478  27.058  14.006
71523W        W39996   4.735   3.772  14.334
71524W        W39997   1.740  35.890  12.366
71525W        W39998  35.923  28.637  12.095
71526W        W39999  15.629  10.186  11.378
71527W        W40000  24.059  39.880  10.541
71528W        W40001  22.087  33.512   3.711
71529W        W40002  11.167  38.854   2.307
71530W        W40003  38.540  43.277  14.928
71531W        W40004  23.562  34.961   0.833
71532W        W40005  15.590  41.962   0.938
71533W        W40006   6.790  26.635  13.990
71534W        W40007  10.372  38.502   3.175
71535W        W40008  23.108  36.425   2.197
71536W        W40009   9.177  17.595   1.916
71537W        W40010  13.317  23.647   1.765
71538W        W40011  22.703   4.759   5.247
71539W        W40012  22.218  20.211  12.967
71540W        W40013  19.698  12.616   3.870
71541W        W40014  11.214  28.507  12.890
71542W        W40015  30.149  21.226  12.434
71543W        W40016  19.055  42.489   3.838
71544W        W40017  22.611  30.130   0.874
71545W        W40018   7.792  25.023  13.396
71546W        W40019   5.356   8.699  13.422
71547W        W40020   9.297  34.540   1.255
71548W        W40021  32.538  12.202  10.899
71549W        W40022  15.084  38.334  12.942
71550W        W40023  29.640  40.877  10.955
71551W        W40024   3.892  40.460   2.778
71552W        W40025   6.728   2.820  13.502
71553W        W40026   9.311  11.749   2.820
71554W        W40027  41.530  26.473  14.030
71555W        W40028   7.245  39.959   2.297
71556W        W40029  29.655  18.115  10.080
71557W        W40030  31.042  27.152   0.758
71558W        W40031  25.522  12.352   4.199
71559W        W40032  42.798  18.702   2.359
71560W        W40033   6.714  27.675   3.187
71561W        W40034  30.055  31.562   3.644
71562W        W40035  31.055   2.794  12.986
71563W        W40036  30.430  10.177   2.669
71564W        W40037  35.071   4.384  12.340
71565W        W40038  33.510   3.268  14.946
71566W        W40039  14.301  34.881   3.736
71567W        W40040   7.901  23.631   2.814
71568W        W40041  34.379  30.990   1.827
71569W        W40042  42.898  23.149   3.715
71570W        W40043  18.778  15.673   4.830
71571W        W40044  20.235   7.756  13.052
71572W        W40045  22.234  41.910  12.919
71573W        W40046  41.952   9.263  10.454
71574W        W40047   4.344  15.671   2.814
71575W        W40048   8.848  27.992  12.460
71576W        W40049  15.276   5.356   3.260
71577W        W40050  34.891  36.027   3.790
71578W        W40051  26.520  25.076   1.358
71579W        W40052  32.975  34.421  13.312
71580W        W40053  33.007  37.020  11.492
71581W        W40054  41.400  27.958  11.434
71582W        W40055   6.761  10.795  10.585
71583W        W40056  40.395  14.130   4.641
71584W        W40057  16.261   3.814   0.764
71585W        W40058  43.971  14.730   4.174
71586W        W40059  35.527  44.436  11.099
71587W        W40060  36.917   9.774  10.615
71588W        W40061  18.186  34.116  14.383
71589W        W40062  36.499  30.420   3.764
71590W        W40063  19.626  13.166  13.054
71591W        W40064  15.094  15.632   1.274
71592W        W40065   2.465  29.619   0.843
71593W        W40066  35.024   5.851  10.597
71594W        W40067  27.608  33.547  11.455
71595W        W40068  29.423  20.165  14.278
71596W        W40069  33.074  20.551   3.177
71597W        W40070  25.711   6.775   0.851
71598W        W40071  31.975  17.101   2.418
71599W        W40072  24.007  12.694  14.453
71600W        W40073  16.772   4.837   0.268
71601W        W40074  13.260   1.463   3.303
71602W        W40075   2.292  21.187  12.879
71603W        W40076  21.547   5.407  12.548
71604W        W40077  19.114  39.329  12.998
71605W        W40078  29.537  40.830   3.353
71606W        W40079  14.102  38.346   2.665
71607W        W40080  36.567  32.506   4.782
71608W        W40081  15.206  24.125  13.022
71609W        W40082  32.628  22.016  11.122
71610W        W40083  36.477  43.351   1.305
71611W        W40084   9.670  33.888   2.418
71612W        W40085  13.160   5.786   1.364
71613W        W40086   0.461  32.609  12.026
71614W        W40087   1.359  42.417  10.995
71615W        W40088  11.693  20.554   4.788
71616W        W40089  29.045  38.884  11.074
71617W        W40090  43.435   9.151  14.472
71618W        W40091  35.555   9.705  13.972
71619W        W40092  42.426  17.646  11.564
71620W        W40093  11.258  20.205  12.957
71621W        W40094   6.323  27.982   4.284
71622W        W40095  36.391  22.025  13.352
71623W        W40096   9.270  43.317   3.355
71624W        W40097  35.595  39.909   4.223
71625W        W40098  17.157  16.073  11.441
71626W        W40099  13.344  44.329  12.992
71627W        W40100  39.485   2.422   4.288
71628W        W40101  15.095  25.539   2.316
71629W        W40102   9.197   4.908  13.022
71630W        W40103   6.348  29.621   3.803
71631W        W40104   2.802  28.968  12.016
71632W        W40105   0.819  23.597   1.916
71633W        W40106  21.628  33.452   2.765
71634W        W40107  26.130   4.373   3.380
71635W        W40108  10.219  20.643   4.750
71636W        W40109  29.163   0.775   3.814
71637W        W40110  33.065   1.922   2.736
71638W        W40111  21.686  10.367   4.238
71639W        W40112   3.724   8.692  14.852
71640W        W40113  14.128   8.685   3.215
71641W        W40114  19.182  37.352   2.863
71642W        W40115  43.446  13.317  11.520
71643W        W40116  34.403  27.007   4.670
71644W        W40117  28.174  35.973  11.529
71645W        W40118  44.957   2.869   4.252
71646W        W40119   5.264  42.821  11.070
71647W        W40120  11.717   0.945  11.490
71648W        W40121  29.133  17.114   3.777
71649W        W40122  19.578   7.273  11.508
71650W        W40123  24.481   2.958  12.394
71651W        W40124   4.376  39.388  10.495
71652W        W40125  19.716   2.233  13.011
71653W        W40126  25.194  19.774   2.349
71654W        W40127  35.461  39.421   0.887
71655W        W40128  17.564  42.870   1.274
71656W        W40129  18.283  39.875  14.427
71657W        W40130   3.229  23.062  12.840
71658W        W40131   5.880  42.492  11.877
71659W        W40132  17.219  11.237  14.919
71660W        W40133   8.836  15.263  13.365
71661W        W40134  20.534  19.268  12.884
71662W        W40135  43.418   7.209   0.439
71663W        W40136   8.736  25.969  13.959
71664W        W40137  35.056  16.090  13.415
71665W        W40138  18.561  33.455   0.912
71666W        W40139  28.126  30.963  10.902
71667W        W40140  42.337   1.793   4.300
71668W        W40141  17.715  21.098  12.516
71669W        W40142   7.282  43.816   4.810
71670W        W40143  41.477  44.876  10.494
71671W        W40144  40.811  32.034  13.365
71672W        W40145  16.643  27.105  12.920
71673W        W40146  34.083  21.039   2.795
71674W        W40147   9.646   6.725   0.364
71675W        W40148  27.987  21.556   2.836
71676W        W40149  31.928  32.061  12.573
71677W        W40150  39.916   8.663  13.335
71678W        W40151  33.037   4.866   3.385
71679W        W40152  27.091   0.762  13.036
71680W        W40153  44.454  13.231  14.824
71681W        W40154  31.563   4.755  11.420
71682W        W40155   9.882   6.261   4.343
71683W        W40156  24.482  40.445   4.303
71684W        W40157  13.735  26.985  10.966
71685W        W40158  25.162   0.859  10.498
71686W        W40159  19.580   6.388   0.287
71687W        W40160  16.730  24.604  14.900
71688W        W40161  29.515  38.003  11.997
71689W        W40162   6.324   0.397  10.454
71690W        W40163  15.129  38.544  11.042
71691W        W40164  41.961  13.843  12.937
71692W        W40165  26.011  22.160   4.149
71693W        W40166  23.683  36.440   2.180
71694W        W40167  23.503   3.955   2.253
71695W        W40168  18.236  43.319  13.452
71696W        W40169  39.044  31.938   0.251
71697W        W40170  21.241   8.896  14.350
71698W        W40171  15.095  29.105   4.353
71699W        W40172  42.921  18.178   4.183
71700W        W40173  18.176  12.306  13.885
71701W        W40174   9.180  29.523   3.681
71702W        W40175   3.928  20.579   0.937
71703W        W40176   5.731  24.567  10.442
71704W        W40177  35.367   7.840  10.524
71705W        W40178  25.968   3.797  12.339
71706W        W40179  44.838   3.856  12.543
71707W        W40180  34.601  32.519  10.958
71708W        W40181  19.718  39.519  11.031
71709W        W40182  42.903  22.571   1.867
71710W        W40183  29.506  44.388  13.523
71711W        W40184   4.360  27.167  14.842
71712W        W40185  31.507  34.022  12.076
71713W        W40186  10.340   2.908   3.235
71714W        W40187  13.345   4.384  12.958
71715W        W40188   9.332   9.743   4.194
71716W        W40189  10.765   9.675   2.795
71717W        W40190  22.079  28.441   9.607
71718W        W40191  32.535  21.567  12.890
71719W        W40192   2.250  22.007  13.937
71720W        W40193  14.805   5.256  14.840
71721W        W40194  30.448  24.980  10.583
71722W        W40195  38.908  16.614  12.392
71723W        W40196  36.057   1.851   0.319
71724W        W40197  44.411  30.483  12.497
71725W        W40198  15.194  36.543  11.019
71726W        W40199   0.803  29.468  13.803
71727W        W40200  34.033   2.775   0.778
71728W        W40201   0.812  22.527   4.776
71729W        W40202  34.585  20.742  11.459
71730W        W40203  28.561   5.808   3.201
71731W        W40204   7.399  23.166  12.498
71732W        W40205  30.471  32.899  11.092
71733W        W40206  40.889  18.789  11.499
71734W        W40207  21.690  16.580   0.890
71735W        W40208  44.337   0.965  11.023
71736W        W40209  23.551  43.851  11.559
71737W        W40210  28.181  13.732  11.500
71738W        W40211  33.594  42.930  12.515
71739W        W40212  21.039  12.727  11.047
71740W        W40213   7.318  16.690   3.830
71741W        W40214   5.749  34.492   3.316
71742W        W40215   2.961  42.348  12.461
71743W        W40216  36.987  12.121   3.632
71744W        W40217  43.922  33.916   4.648
71745W        W40218  38.023  15.225   2.860
71746W        W40219  33.087  27.647   0.909
71747W        W40220  27.078  38.028  13.394
71748W        W40221  22.231  43.871  13.928
71749W        W40222  23.700  29.144   0.274
71750W        W40223   6.383   1.433  14.282
71751W        W40224  32.416  19.675  11.020
71752W        W40225  32.524  44.306  14.783
71753W        W40226  17.651  29.969   0.939
71754W        W40227  44.366  29.631   2.384
71755W        W40228  41.416  17.070  10.407
71756W        W40229   0.481  24.169   1.903
71757W        W40230   7.897  22.036  10.571
71758W        W40231   0.866  15.733   5.152
71759W        W40232   7.242  43.376  14.470
71760W        W40233  19.205  27.986  10.504
71761W        W40234  22.720  28.989   2.766
71762W        W40235  30.976   9.375  13.031
71763W        W40236  40.038  10.262  14.347
71764W        W40237  16.651  17.136   1.261
71765W        W40238  32.609   2.820  12.972
71766W        W40239   7.398  17.119   1.297
71767W        W40240  42.985  24.011  13.988
71768W        W40241   0.354   2.426   1.697
71769W        W40242   3.437  21.650   3.251
71770W        W40243  11.683  22.707   3.374
71771W        W40244  27.086  42.781   2.357
71772W        W40245  24.499   4.336   0.825
71773W        W40246  26.078  21.153   3.202
71774W        W40247   2.794   3.345   1.265
71775W        W40248  40.493  17.084  11.434
71776W        W40249   5.924  30.422   0.960
71777W        W40250  22.052  40.450   3.351
71778W        W40251  19.585  16.643  13.948
71779W        W40252  40.328   6.880   2.367
71780W        W40253  34.602   0.255   2.902
71781W        W40254  33.912   6.347  13.055
71782W        W40255  15.304   0.383   4.744
71783W        W40256   5.271  28.104   3.649
71784W        W40257  11.136   3.314  12.036
71785W        W40258  41.845  21.675   1.422
71786W        W40259   9.836  30.472  13.330
71787W        W40260  17.134  14.197  11.993
71788W        W40261  28.129   7.289   2.680
71789W        W40262  32.567  42.900   1.792
71790W        W40263  11.296  29.612  12.019
71791W        W40264  41.371  24.543   2.256
71792W        W40265   1.262  39.827  13.904
71793W        W40266  44.005  25.677  11.994
71794W        W40267  25.632  15.115  11.970
71795W        W40268  34.393  30.971   2.409
71796W        W40269  32.926  15.779  13.852
71797W        W40270  38.982   8.290   2.871
71798W        W40271  41.486  37.382   1.235
71799W        W40272  19.270  22.643   1.785
71800W        W40273  32.529  33.035  14.803
71801W        W40274  25.124  44.903  13.322
71802W        W40275  36.559   2.853   4.255
71803W        W40276  23.139  14.722   1.698
71804W        W40277  43.360   4.728   4.741
71805W        W40278   6.913  13.288   2.874
71806W        W40279  19.206  35.073   2.710
71807W        W40280  21.672  12.308   0.933
71808W        W40281  44.261  29.642  14.387
71809W        W40282  15.798   4.840  11.894
71810W        W40283  35.575  14.787  13.422
71811W        W40284  37.490  29.164   0.818
71812W        W40285  26.629  28.005   2.743
71813W        W40286  23.038  41.895  11.892
71814W        W40287  27.975   0.435   5.294
71815W        W40288  35.012  12.610  12.850
71816W        W40289  39.006  26.019  12.913
71817W        W40290  40.304  30.576  10.147
71818W        W40291  27.476  29.092  11.098
71819W        W40292  19.625   5.266  12.570
71820W        W40293   7.280  42.847   5.251
71821W        W40294   4.355  33.556   3.279
71822W        W40295  32.585  20.524  12.514
71823W        W40296  36.009   2.288   4.777
71824W        W40297   5.229  42.392   1.336
71825W        W40298   0.860  19.118  12.875
71826W        W40299  25.191   6.233  10.488
71827W        W40300  29.621   3.892   0.411
71828W        W40301   8.770  31.123  13.402
71829W        W40302  32.620  41.929  10.932
71830W        W40303  28.635  29.124  14.869
71831W        W40304   4.230  13.137  11.576
71832W        W40305   0.922  22.059   2.260
71833W        W40306  27.052  41.340   2.389
71834W        W40307  39.359  34.110   3.773
71835W        W40308  35.453  27.488  12.083
71836W        W40309  10.324  10.732   0.894
71837W        W40310  13.129  24.653   3.386
71838W        W40311   7.721  43.003  13.499
71839W        W40312  38.544  30.984  13.495
71840W        W40313  27.600   3.420   0.401
71841W        W40314  17.707  34.569   0.282
71842W        W40315   3.844   1.887  10.898
71843W        W40316  22.682  28.956   0.964
71844W        W40317  41.965  34.901   3.758
71845W        W40318  10.857   3.842  12.859
71846W        W40319  32.065  10.737   4.307
71847W        W40320  19.554  30.636   2.725
71848W        W40321  27.138  35.906   4.339
71849W        W40322   2.315  27.941   0.408
71850W        W40323   5.903  32.038   4.219
71851W        W40324  15.756  41.470   2.758
71852W        W40325   7.207  33.119  13.873
71853W        W40326   3.828  18.660   4.830
71854W        W40327  33.934   4.765  11.906
71855W        W40328  17.067  39.018  13.386
71856W        W40329   0.365  29.929  13.392
71857W        W40330   3.322  18.101   3.297
71858W        W40331   4.436   4.433  12.512
71859W        W40332   8.370  10.244   3.714
71860W        W40333  41.902  14.703  13.996
71861W        W40334  14.663  18.072   1.882
71862W        W40335  38.001  15.647   9.958
71863W        W40336  15.278  41.345   4.353
71864W        W40337  13.623  13.838  10.993
71865W        W40338  20.086  32.588  12.559
71866W        W40339  40.512  12.800   3.170
71867W        W40340  41.851  25.603  10.623
71868W        W40341  14.232  28.162  14.902
71869W        W40342  25.636   0.435   1.271
71870W        W40343  10.295  35.067   4.671
71871W        W40344   1.320  13.721  10.986
71872W        W40345  20.551  14.781  10.919
71873W        W40346  27.969  14.718  11.930
71874W        W40347  34.393  41.425  14.001
71875W        W40348  11.152  36.988  12.044
71876W        W40349  37.420  23.039   4.169
71877W        W40350  25.116  26.489  10.474
71878W        W40351   9.793   1.339   3.792
71879W        W40352  26.525  32.551   1.311
71880W        W40353   6.265   4.875  12.943
71881W        W40354   0.972  35.430   2.871
71882W        W40355  33.461  11.798  12.962
71883W        W40356   4.250   9.883   2.670
71884W        W40357  38.456  23.493  11.556
71885W        W40358  13.755   6.182   0.402
71886W        W40359  31.926  41.036   1.728
71887W        W40360  12.759  19.772   0.736
71888W        W40361  28.171  22.609  14.408
71889W        W40362  10.310   1.464  11.431
71890W        W40363  15.589   5.805   5.212
71891W        W40364  29.044  31.019  14.386
71892W        W40365  41.849  38.565  13.446
71893W        W40366  16.182   7.715   3.817
71894W        W40367  19.553  37.509   9.982
71895W        W40368  44.426  20.635   0.363
71896W        W40369  43.390  29.140   2.806
71897W        W40370  44.920  36.369  11.372
71898W        W40371  16.072  20.582  12.093
71899W        W40372  29.161  18.263  14.359
71900W        W40373  36.470  19.643  12.416
71901W        W40374  34.880  10.660   0.417
71902W        W40375   9.836  15.778  11.445
71903W        W40376  11.313  33.922  14.029
71904W        W40377  40.908  24.043  10.470
71905W        W40378  25.043   5.814  12.946
71906W        W40379   1.953  11.355  10.622
71907W        W40380  14.199  33.958   2.883
71908W        W40381  31.934   3.294   3.218
71909W        W40382  30.976   5.703  14.877
71910W        W40383  11.752  12.660  12.898
71911W        W40384   7.383   0.274  13.874
71912W        W40385  14.218  12.736  14.854
71913W        W40386  39.982  18.566  13.049
71914W        W40387   9.339  26.032   1.260
71915W        W40388  42.290  30.088  12.439
71916W        W40389   2.352   8.376   2.379
71917W        W40390  37.902  41.911   3.658
71918W        W40391   9.230   6.846  13.999
71919W        W40392   5.259  40.945   1.422
71920W        W40393   9.787  32.995  13.466
71921W        W40394   9.807  35.924   0.299
71922W        W40395  40.922  10.153   3.287
71923W        W40396  12.725  17.244  11.374
71924W        W40397   6.790  29.945   2.395
71925W        W40398   3.934   3.309  13.865
71926W        W40399  34.093  17.126  12.454
71927W        W40400   7.404  29.160  11.949
71928W        W40401  38.070  38.507   0.798
71929W        W40402  10.257  11.368  11.474
71930W        W40403  44.769   9.820  13.473
71931W        W40404  13.789  24.216   2.192
71932W        W40405  42.923  41.995   3.834
71933W        W40406  43.811   0.754   0.733
71934W        W40407  43.764  33.021  12.033
71935W        W40408   9.719  15.269  14.363
71936W        W40409  12.687  14.221  10.956
71937W        W40410  22.064  31.635   0.790
71938W        W40411  20.616  34.571   3.258
71939W        W40412  30.495  26.692  14.501
71940W        W40413   9.184   1.236  12.572
71941W        W40414   7.821  19.776   5.223
71942W        W40415   6.786   3.939   5.222
71943W        W40416   1.401   6.739  13.396
71944W        W40417  24.222  42.911   5.265
71945W        W40418   2.730  12.851   0.258
71946W        W40419  22.142  27.081   1.791
71947W        W40420  34.987  12.276   3.235
71948W        W40421  31.014  35.597   2.313
71949W        W40422  34.514  18.735  11.057
71950W        W40423  13.614   5.905  12.432
71951W        W40424  24.710  30.043  14.982
71952W        W40425  25.204  27.940  11.082
71953W        W40426  34.960  44.446   3.644
71954W        W40427  10.264  41.346   4.718
71955W        W40428  14.607   1.901   1.855
71956W        W40429  40.412  25.675   1.349
71957W        W40430   1.799  27.037  10.592
71958W        W40431  10.364  27.644   4.667
71959W        W40432   2.389  12.736   0.925
71960W        W40433  22.062  26.156  10.069
71961W        W40434   6.703   8.356  14.436
71962W        W40435  21.142  22.693  12.962
71963W        W40436  14.798  15.122   0.360
71964W        W40437  12.351   0.445   0.268
71965W        W40438  42.030  27.012   2.811
71966W        W40439  43.781  16.291   3.290
71967W        W40440  40.396  44.957   0.271
71968W        W40441  41.307  12.296   0.448
71969W        W40442   7.260  31.599   2.371
71970W        W40443   4.871  34.599   5.168
71971W        W40444   3.859  10.279   0.431
71972W        W40445  29.665   4.276  10.512
71973W        W40446  39.377   6.298   4.811
71974W        W40447  21.603  27.180  10.410
71975W        W40448  42.992  11.171  14.974
71976W        W40449  43.836  26.523   4.824
71977W        W40450  38.989  14.224   3.371
71978W        W40451  33.890  23.710   3.376
71979W        W40452  33.029  17.080  13.356
71980W        W40453  42.398   6.338  10.466
71981W        W40454  29.919  25.550   3.180
71982W        W40455  29.666  44.816  12.384
71983W        W40456   7.325  34.882   2.394
71984W        W40457  24.126   4.942  14.477
71985W        W40458   1.753  39.915   2.394
71986W        W40459  28.632  10.178  10.893
71987W        W40460  29.042  21.179  13.321
71988W        W40461   7.857  38.356   2.822
71989W        W40462  41.426  44.448   4.197
71990W        W40463  42.804  37.883   4.181
71991W        W40464   5.233  37.077  12.833
71992W        W40465  28.006  21.144   1.314
71993W        W40466  34.026  22.024  11.493
71994W        W40467   7.235  32.554  13.441
71995W        W40468  29.979  17.682  11.993
71996W        W40469   7.257  23.214  10.600
71997W        W40470  42.807  15.083   0.733
71998W        W40471  34.934  29.621  10.918
71999W        W40472   1.271   9.382   2.675
72000W        W40473  39.998  29.600   0.385
72001W        W40474  22.063   6.861  14.813
72002W        W40475  15.609   0.379  14.389
72003W        W40476  10.233  19.650   2.713
72004W        W40477  36.573  16.805   2.244
72005W        W40478   2.441  19.734  10.580
72006W        W40479  23.514  21.653   0.334
72007W        W40480  40.946   1.278  12.061
72008W        W40481  18.700  26.460  14.784
72009W        W40482   4.419  24.563   1.233
72010W        W40483  35.869  43.436   4.722
72011W        W40484  12.264  27.590   2.352
72012W        W40485  10.176   3.346  10.083
72013W        W40486   4.286   6.798  11.865
72014W        W40487  19.055  34.891   3.678
72015W        W40488  23.624   8.869  12.489
72016W        W40489  35.359  40.313  11.074
72017W        W40490   4.909   6.375  10.464
72018W        W40491  14.178  11.161   2.885
72019W        W40492  37.925  27.019  12.420
72020W        W40493  22.644  18.127   4.237
72021W        W40494  44.286  41.452   3.145
72022W        W40495  13.121  23.701  10.951
72023W        W40496   2.790  14.238   4.226
72024W        W40497   7.335   8.789   4.275
72025W        W40498   0.327  25.510  13.528
72026W        W40499  31.503  41.012   2.376
72027W        W40500  44.928  21.125   1.339
72028W        W40501  17.161  37.076   1.771
72029W        W40502  19.271  11.740   1.350
72030W        W40503  27.073  36.568  10.410
72031W        W40504  23.227  16.116  12.461
72032W        W40505  35.067   9.711  10.516
72033W        W40506  19.762  20.533   0.817
72034W        W40507  28.659  13.718   3.235
72035W        W40508   9.355  32.968   4.715
72036W        W40509  28.083  11.733  13.306
72037W        W40510   9.306  33.395  10.145
72038W        W40511   4.826   7.795  14.804
72039W        W40512  36.347  35.907   5.213
72040W        W40513   4.797  30.018   0.358
72041W        W40514  13.187  11.789   1.371
72042W        W40515  24.088  18.066  10.554
72043W        W40516  24.977  12.693  12.853
72044W        W40517  16.803   3.215  14.491
72045W        W40518  34.583  20.626   0.873
72046W        W40519  20.666  22.555   2.758
72047W        W40520  16.090  12.785   4.259
72048W        W40521  16.672  11.299   3.741
72049W        W40522  36.857  38.007  13.868
72050W        W40523   5.322  10.355  12.047
72051W        W40524  21.663  43.295   0.813
72052W        W40525  41.521  19.642   2.228
72053W        W40526  32.545   2.957  10.931
72054W        W40527  10.338  26.627  13.054
72055W        W40528  21.026  32.992  13.382
72056W        W40529  10.177  14.165  11.979
72057W        W40530  35.019  14.252   2.891
72058W        W40531  36.030  26.008   3.201
72059W        W40532  20.261  42.492  11.906
72060W        W40533   4.240  45.000  11.109
72061W        W40534  34.476  32.121   1.920
72062W        W40535  28.605   8.846   4.289
72063W        W40536   4.326   7.243   1.840
72064W        W40537  41.299  10.873   2.711
72065W        W40538  21.080   9.375   3.291
72066W        W40539  29.984  28.680  12.829
72067W        W40540  20.597  26.137  12.092
72068W        W40541  40.955   2.950   2.677
72069W        W40542   4.917  33.005  12.525
72070W        W40543  10.769  31.074  12.083
72071W        W40544  31.926  18.625   2.194
72072W        W40545  42.956   8.665  13.888
72073W        W40546  40.874  44.761  13.461
72074W        W40547  34.040  29.919  10.887
72075W        W40548   3.920  18.788  11.051
72076W        W40549  30.111   8.398  13.041
72077W        W40550  11.241  40.311  11.389
72078W        W40551   8.237  39.988   0.454
72079W        W40552  30.569  16.696  11.391
72080W        W40553  16.728   7.833  14.395
72081W        W40554  11.343  41.374  14.350
72082W        W40555  38.466  10.180   0.439
72083W        W40556  24.538  10.191   0.290
72084W        W40557  16.741  13.294  11.554
72085W        W40558  14.329   5.392   0.895
72086W        W40559  37.862  33.032   3.176
72087W        W40560  32.930  36.940   3.361
72088W        W40561  39.880  30.019  14.313
72089W        W40562  19.597  18.575   4.126
72090W        W40563  39.015  26.122  10.108
72091W        W40564  15.681  36.878  11.067
72092W        W40565  44.896  19.155   0.901
72093W        W40566  10.276  27.178  13.444
72094W        W40567   0.471  11.825   3.854
72095W        W40568   2.806  41.921   3.377
72096W        W40569  43.311  43.816  12.377
72097W        W40570  39.532  14.746   3.847
72098W        W40571   8.785   5.711  11.404
72099W        W40572  13.109  12.278  13.499
72100W        W40573  28.068  37.061   4.708
72101W        W40574  16.606   6.289  12.920
72102W        W40575  36.592  21.182   2.331
72103W        W40576  20.649   2.241  14.980
72104W        W40577  26.588  26.163   0.897
72105W        W40578  41.035  26.996   1.261
72106W        W40579  22.716   9.745   2.311
72107W        W40580   9.675  34.934  13.847
72108W        W40581   5.737   1.238   2.391
72109W        W40582  40.410  30.956   1.854
72110W        W40583  12.737   1.483  10.641
72111W        W40584  38.383  37.523  12.032
72112W        W40585  44.408  24.524   1.351
72113W        W40586  28.977   8.331   0.868
72114W        W40587  20.098   7.837   3.254
72115W        W40588  37.361   4.219   0.426
72116W        W40589  29.936  22.107   3.152
72117W        W40590  22.231  39.008  11.554
72118W        W40591  14.727  10.695   4.316
72119W        W40592  42.873  13.752   1.285
72120W        W40593   8.747  31.449   3.683
72121W        W40594  30.618  43.499   2.185
72122W        W40595  43.816  18.549   3.185
72123W        W40596  25.674   1.888   3.200
72124W        W40597  40.867  27.671  12.952
72125W        W40598  31.944  16.712  10.453
72126W        W40599   7.267  30.153  12.512
72127W        W40600  24.625   1.259   5.165
72128W        W40601  12.762  35.437  14.392
72129W        W40602  19.764  35.940  12.570
72130W        W40603   0.424  27.574   0.853
72131W        W40604  18.719  31.522   0.410
72132W        W40605  21.023  23.670  12.025
72133W        W40606  14.232  39.966   3.809
72134W        W40607   2.838  19.149  10.526
72135W        W40608  39.363  21.031  10.510
72136W        W40609  22.050  26.655  13.859
72137W        W40610   9.180  24.985   5.683
72138W        W40611  15.644  34.086   3.686
72139W        W40612  16.227  25.615  12.000
72140W        W40613  43.502  25.963  12.399
72141W        W40614  15.597  31.904   3.181
72142W        W40615  21.640   8.671   4.328
72143W        W40616  30.068   6.282   1.384
72144W        W40617  33.508  28.615  14.957
72145W        W40618  22.582  39.439  12.910
72146W        W40619  18.151  36.589   1.429
72147W        W40620  13.225  42.447  13.820
72148W        W40621  28.019   9.837  14.784
72149W        W40622  26.569  17.135  13.452
72150W        W40623   6.877   4.357   2.276
72151W        W40624   5.736  31.896  12.457
72152W        W40625  27.941  32.528  12.946
72153W        W40626  14.166  16.233   3.721
72154W        W40627  18.129  44.393   1.812
72155W        W40628   9.695  15.770   3.230
72156W        W40629  20.035  30.059   0.408
72157W        W40630  44.494  44.333   1.420
72158W        W40631   0.473  30.436   3.370
72159W        W40632  18.759   9.308   0.912
72160W        W40633  41.476  11.721  10.586
72161W        W40634  28.673   6.208   3.679
72162W        W40635   5.228  32.032   0.913
72163W        W40636   6.215  18.083  12.857
72164W        W40637  38.457  40.924   1.867
72165W        W40638   7.785  18.727  13.821
72166W        W40639  44.404  17.143   5.099
72167W        W40640  11.810  25.981   1.818
72168W        W40641  16.293  35.860   2.673
72169W        W40642  32.979   5.426   1.740
72170W        W40643  20.619  41.476   4.221
72171W        W40644   5.286  17.255  11.445
72172W        W40645  35.446  32.100   0.841
72173W        W40646   8.735   1.826   1.789
72174W        W40647  36.372  34.578  14.994
72175W        W40648  39.947  21.205  11.504
72176W        W40649  36.347  27.964  14.769
72177W        W40650  24.129   1.404  10.954
72178W        W40651  12.710  23.191   3.280
72179W        W40652  37.538  29.608  14.368
72180W        W40653   7.833  43.793   1.905
72181W        W40654  24.631  39.504   1.332
72182W        W40655  42.967  43.348  11.457
72183W        W40656  10.269  44.900   4.337
72184W        W40657  39.502  12.647  10.486
72185W        W40658  41.530  20.066   4.202
72186W        W40659  16.191  17.664  12.461
72187W        W40660  42.501   5.807   0.381
72188W        W40661  21.099  24.540  11.921
72189W        W40662  15.211  35.064   0.729
72190W        W40663  29.598  17.789  12.053
72191W        W40664   8.193  11.126  13.926
72192W        W40665  37.000  40.986   4.236
72193W        W40666  38.004  20.104   3.379
72194W        W40667   7.793  38.330   4.624
72195W        W40668  30.488  39.012  11.970
72196W        W40669  29.100   5.819   1.240
72197W        W40670  39.940  29.997   1.738
72198W        W40671  14.632  44.393   3.838
72199W        W40672  12.788   5.836  12.404
72200W        W40673  21.099  38.957  11.561
72201W        W40674   0.437   8.855   2.822
72202W        W40675  19.047   5.902   0.909
72203W        W40676  44.393  37.069   1.254
72204W        W40677   1.410   6.313   1.270
72205W        W40678  43.868   1.890   2.776
72206W        W40679  10.344  18.189   1.401
72207W        W40680  16.677  31.917   4.781
72208W        W40681   8.854  19.146  12.569
72209W        W40682  18.608  26.027   4.203
72210W        W40683  15.671   3.270   2.863
72211W        W40684  35.096   3.365  10.137
72212W        W40685  12.241  34.970  14.865
72213W        W40686  10.166  12.301  12.565
72214W        W40687  20.729  30.582  11.923
72215W        W40688  39.060  39.361  12.071
72216W        W40689  13.663  30.615   1.934
72217W        W40690  41.940  37.406  10.438
72218W        W40691   6.799  21.622   0.378
72219W        W40692  28.628   6.295   4.674
72220W        W40693  40.549  29.480  12.534
72221W        W40694  39.504  32.622  14.376
72222W        W40695  16.274  31.082  13.828
72223W        W40696  32.926  40.528   0.423
72224W        W40697  19.748   2.330   5.228
72225W        W40698  31.080  12.730   5.194
72226W        W40699   5.290  27.099   0.385
72227W        W40700  19.740  43.446   3.839
72228W        W40701   5.775  31.627   2.699
72229W        W40702  26.151   6.689   4.343
72230W        W40703  38.473  34.582  14.842
72231W        W40704  15.203  23.104   0.287
72232W        W40705   7.851  17.653   4.770
72233W        W40706  30.577  31.101   3.365
72234W        W40707  28.957  21.101   2.203
72235W        W40708  29.537   2.227  10.557
72236W        W40709   0.376  41.346  12.053
72237W        W40710  19.153   1.460   0.964
72238W        W40711  32.582  24.075   0.254
72239W        W40712  31.611   2.914  10.539
72240W        W40713  40.372  34.018  14.315
72241W        W40714  18.729  15.193  14.454
72242W        W40715  19.585   1.772  11.990
72243W        W40716  17.101  35.456  12.986
72244W        W40717  21.032  29.985   2.841
72245W        W40718   0.456  41.302   1.310
72246W        W40719  15.185  37.055   3.200
72247W        W40720  28.435  18.143  12.865
72248W        W40721   1.342   9.205  10.937
72249W        W40722  19.606  22.219  12.839
72250W        W40723   0.290  39.320  12.564
72251W        W40724  40.934  39.949  13.929
72252W        W40725  39.024  37.961  11.568
72253W        W40726  36.843  24.198  13.421
72254W        W40727  12.193  14.129  12.450
72255W        W40728  12.628  31.998   3.242
72256W        W40729  40.986  44.854  12.086
72257W        W40730  38.886  18.623  14.990
72258W        W40731  23.599  31.152  14.329
72259W        W40732   4.248   6.273   3.694
72260W        W40733  20.753  13.205   0.921
72261W        W40734  35.013  35.095  14.993
72262W        W40735  40.008  25.560  11.520
72263W        W40736  39.047  35.474  14.284
72264W        W40737  16.143   7.851  11.390
72265W        W40738  36.509  21.550  14.958
72266W        W40739   4.752  34.386   1.719
72267W        W40740  29.971  16.242   3.652
72268W        W40741  39.849  40.353  13.918
72269W        W40742   7.372  29.161  11.048
72270W        W40743  20.745   5.375  13.975
72271W        W40744  23.504  23.031   0.477
72272W        W40745  36.935  18.547   1.285
72273W        W40746  41.810  10.295   3.694
72274W        W40747  39.330  15.317  10.451
72275W        W40748   4.888  43.365   4.179
72276W        W40749  38.010  32.132  12.888
72277W        W40750   0.285  26.573   2.727
72278W        W40751   6.702  31.525  14.906
72279W        W40752  34.428   5.728  11.029
72280W        W40753  14.251  22.631   1.400
72281W        W40754  41.528  16.697   2.691
72282W        W40755   0.283  28.558  11.990
72283W        W40756  12.842  29.655  11.490
72284W        W40757  17.611   6.332  11.966
72285W        W40758  11.684   5.264   1.275
72286W        W40759  25.192  26.559   3.683
72287W        W40760  19.146  10.676   1.356
72288W        W40761   2.226  27.092  11.567
72289W        W40762  33.499   2.820   1.734
72290W        W40763  20.170  10.657  11.584
72291W        W40764  41.039   5.847   3.224
72292W        W40765   4.364  30.004  11.125
72293W        W40766   3.898  24.132   1.731
72294W        W40767  32.592  42.799  12.464
72295W        W40768   4.711   8.167  14.858
72296W        W40769  26.693  18.668  13.897
72297W        W40770  33.611  26.987   0.839
72298W        W40771  24.592  33.461  11.584
72299W        W40772   0.376  27.150   4.713
72300W        W40773   3.232   6.799   0.336
72301W        W40774  17.153  42.459  10.611
72302W        W40775  12.740  10.637   1.217
72303W        W40776  36.925  32.989   4.796
72304W        W40777  22.194  43.988  14.949
72305W        W40778  10.824  32.003  13.338
72306W        W40779  11.222   2.352   0.471
72307W        W40780   4.718  37.954  11.887
72308W        W40781  18.723  19.046  11.572
72309W        W40782  38.032  15.775  14.817
72310W        W40783  40.991  23.122  12.965
72311W        W40784   9.196  25.550  11.057
72312W        W40785  22.157   5.299   3.256
72313W        W40786  10.167  36.472   3.652
72314W        W40787  44.269   3.239   3.305
72315W        W40788  15.207  28.484   4.312
72316W        W40789   6.804  43.275   3.280
72317W        W40790   8.307   5.363  11.027
72318W        W40791  22.201  14.599   0.300
72319W        W40792  31.979  24.615  11.859
72320W        W40793  26.079  25.477  12.575
72321W        W40794  38.888  39.847   1.239
72322W        W40795  41.000  21.063   0.454
72323W        W40796   0.329  23.998  11.568
72324W        W40797  39.021  16.207   2.397
72325W        W40798  23.233  10.262   3.182
72326W        W40799  34.027  33.505  14.496
72327W        W40800  44.955  42.436  13.527
72328W        W40801  13.714  31.565  14.780
72329W        W40802   3.327  10.168   3.764
72330W        W40803   3.277  37.844   3.352
72331W        W40804  17.208  15.715  11.974
72332W        W40805  36.981  13.741   4.642
72333W        W40806  31.007  14.831  12.045
72334W        W40807  13.758  14.788  13.522
72335W        W40808  34.485   2.766  10.958
72336W        W40809  28.551   6.875   3.375
72337W        W40810  16.780   0.277  13.434
72338W        W40811   7.684  29.066  11.057
72339W        W40812  11.212  25.975   4.180
72340W        W40813  44.360  10.142  14.786
72341W        W40814  35.433  23.127   0.314
72342W        W40815  11.141  34.518   5.122
72343W        W40816  36.920  26.119  14.004
72344W        W40817   6.185  27.515  11.567
72345W        W40818   5.372  20.704   3.743
72346W        W40819  25.619  43.908   4.783
72347W        W40820  16.708  21.063   2.328
72348W        W40821   1.404  30.985   0.410
72349W        W40822  11.331  13.624  14.023
72350W        W40823  36.892  44.466  12.505
72351W        W40824  11.761  39.855  10.616
72352W        W40825  26.624  39.555   1.849
72353W        W40826  21.714  34.876   0.880
72354W        W40827  10.643  41.976  11.496
72355W        W40828  23.657  17.128   2.679
72356W        W40829  33.972  40.335  14.792
72357W        W40830  39.543   5.320   2.318
72358W        W40831   7.393  26.476  14.407
72359W        W40832  39.867  27.543  12.359
72360W        W40833  25.077  11.342   1.283
72361W        W40834  14.297  25.661  11.386
72362W        W40835  36.552   7.813  12.357
72363W        W40836   6.297   5.821   4.340
72364W        W40837  19.090  18.692   0.815
72365W        W40838  19.145   8.250   2.859
72366W        W40839   5.389  26.498  10.991
72367W        W40840  22.058  10.683   0.456
72368W        W40841  25.969  24.195  13.812
72369W        W40842   5.289  42.974   2.178
72370W        W40843   6.335  29.618   4.291
72371W        W40844  20.696   6.344   2.713
72372W        W40845  20.136   6.861  11.884
72373W        W40846   4.398  21.535  12.077
72374W        W40847  19.610  27.174  14.838
72375W        W40848   6.334   4.934   0.891
72376W        W40849  12.663  35.440   4.248
72377W        W40850  10.316  41.814  14.885
72378W        W40851  26.652  17.583   1.754
72379W        W40852  28.485  20.725  12.041
72380W        W40853  30.484  10.714   0.386
72381W        W40854  12.780   8.210   4.703
72382W        W40855  33.495   2.724   1.449
72383W        W40856  34.033  13.280   1.874
72384W        W40857  37.358  24.998  14.456
72385W        W40858  35.068  41.364   3.266
72386W        W40859   4.424  18.147   3.865
72387W        W40860   1.890  29.073  10.506
72388W        W40861   1.892   3.783  11.099
72389W        W40862  16.750  43.388  11.383
72390W        W40863  26.646  34.521   5.138
72391W        W40864  14.232  18.219  14.295
72392W        W40865  26.141  16.591  12.515
72393W        W40866  32.090  12.193   1.409
72394W        W40867  14.680   5.410   0.931
72395W        W40868  14.253  22.564   2.415
72396W        W40869  36.967  43.384   4.290
72397W        W40870  33.422   0.914   3.160
72398W        W40871  28.101   8.884   1.806
72399W        W40872  18.663  11.732  12.036
72400W        W40873  32.403   9.155  14.416
72401W        W40874  29.426  14.785  11.523
72402W        W40875  15.180  20.762   3.765
72403W        W40876  13.661  24.594  12.405
72404W        W40877  26.696   0.262  11.129
72405W        W40878  25.684  20.587   4.192
72406W        W40879  37.420  33.427  13.519
72407W        W40880  38.978  13.175  14.007
72408W        W40881  31.479   7.868   3.381
72409W        W40882  21.058   5.221   2.270
72410W        W40883   3.768  42.918  13.455
72411W        W40884  32.617  29.637  12.355
72412W        W40885  12.325  44.883  12.093
72413W        W40886  40.923   2.401  14.928
72414W        W40887   5.817  38.556   0.745
72415W        W40888   2.357   9.644   0.841
72416W        W40889  14.178  17.244   0.856
72417W        W40890  17.584  18.655   2.319
72418W        W40891  37.872   8.169  11.988
72419W        W40892  20.211  15.675   3.379
72420W        W40893  33.055  30.950  13.484
72421W        W40894  43.874  25.035   0.453
72422W        W40895  36.054  35.073   4.310
72423W        W40896  41.977  17.293  13.545
72424W        W40897  44.797  33.429   0.817
72425W        W40898  30.453  44.283  12.994
72426W        W40899  35.385  30.021  10.618
72427W        W40900  38.966  11.741  14.425
72428W        W40901  15.813  41.877   3.373
72429W        W40902  32.497  24.135  13.828
72430W        W40903  10.334  27.019   3.237
72431W        W40904  42.468  18.063   2.372
72432W        W40905  25.559  42.882   3.359
72433W        W40906  16.657  31.015  13.386
72434W        W40907  43.993  26.010  10.946
72435W        W40908   9.370  19.599  13.900
72436W        W40909  27.585  34.493  13.854
72437W        W40910   2.351  26.051   2.192
72438W        W40911   7.307  33.940   2.824
72439W        W40912   0.852  27.086   0.752
72440W        W40913  32.510  37.447   4.752
72441W        W40914  26.194  41.936   3.630
72442W        W40915  39.422   2.916   2.260
72443W        W40916  23.994  40.312  14.777
72444W        W40917  18.769  37.844  13.989
72445W        W40918  21.696  43.509   4.261
72446W        W40919   2.722  14.244  13.017
72447W        W40920  22.020  39.826   1.252
72448W        W40921   7.321  44.276  12.871
72449W        W40922  22.611  21.151  10.470
72450W        W40923  39.395   8.847  11.531
72451W        W40924   9.258   1.762  14.374
72452W        W40925  20.226  42.405   0.901
72453W        W40926  23.025   2.939   1.214
72454W        W40927  16.702  23.523   2.665
72455W        W40928  41.852  35.011   2.237
72456W        W40929  44.414  19.539  12.913
72457W        W40930  43.773  29.152   3.701
72458W        W40931  39.053  16.718   2.380
72459W        W40932   9.277   2.941   1.822
72460W        W40933  42.825  20.244  14.454
72461W        W40934  42.941  35.580  11.450
72462W        W40935   8.704  35.530   9.935
72463W        W40936  19.276   3.750  10.506
72464W        W40937  31.953   5.416  11.561
72465W        W40938  35.893  24.578   4.812
72466W        W40939  39.480  34.580   0.835
72467W        W40940   6.834  29.005  12.526
72468W        W40941  29.560  35.980  12.062
72469W        W40942  35.089  21.043  11.435
72470W        W40943  36.022  24.041   2.347
72471W        W40944  26.676  42.939  11.973
72472W        W40945  38.899  24.621  11.943
72473W        W40946  44.280  17.203   3.770
72474W        W40947  23.599  22.124   3.862
72475W        W40948   3.315   1.337  11.988
72476W        W40949  22.665  37.358  11.056
72477W        W40950  26.181  25.100  12.541
72478W        W40951  23.018   9.165  12.944
72479W        W40952   1.469  28.585   3.845
72480W        W40953  29.956   4.700   1.840
72481W        W40954  24.689  43.317  10.889
72482W        W40955  17.729   7.869  12.827
72483W        W40956  34.020  43.782  13.388
72484W        W40957   1.309  24.724  10.599
72485W        W40958  20.238   2.400  13.403
72486W        W40959  36.867  28.501  13.014
72487W        W40960   2.402  10.223   4.275
72488W        W40961   7.910  23.212   5.276
72489W        W40962  32.014  19.147   2.822
72490W        W40963  24.677   1.400  12.505
72491W        W40964  20.058  20.626   1.377
72492W        W40965  15.214  21.690  13.500
72493W        W40966   2.899   6.300  11.422
72494W        W40967  23.217  20.256  12.538
72495W        W40968  44.815  21.628   0.742
72496W        W40969   0.894   5.346  14.985
72497W        W40970  17.099  32.012  10.572
72498W        W40971   3.327  39.418   3.308
72499W        W40972   3.286   0.291   1.752
72500W        W40973  22.134  30.586  14.893
72501W        W40974  34.038  14.712  13.992
72502W        W40975   3.837  17.799   1.810
72503W        W40976  18.192  17.147  13.324
72504W        W40977   0.746  37.071  12.890
72505W        W40978   1.947  27.043  12.926
72506W        W40979  37.525  15.126   1.253
72507W        W40980   1.375   3.441  10.644
72508W        W40981  34.949  40.397  13.342
72509W        W40982  36.035  13.633  14.853
72510W        W40983  16.701   7.260   0.399
72511W        W40984   8.222  11.251  11.565
72512W        W40985  26.173  16.183   0.901
72513W        W40986  20.591   9.247   1.803
72514W        W40987  34.407  19.552  11.603
72515W        W40988  34.099   0.323   0.854
72516W        W40989  36.556  16.196   0.870
72517W        W40990  36.029   4.439   4.271
72518W        W40991  24.617  14.662  12.861
72519W        W40992  41.330  29.049  12.855
72520W        W40993  33.110  21.191   2.678
72521W        W40994  33.568  41.964   5.290
72522W        W40995  10.172  37.498  14.978
72523W        W40996   1.391  18.250  12.855
72524W        W40997  25.527   3.253  11.565
72525W        W40998  24.600  22.571   2.214
72526W        W40999  29.478  15.797  12.995
72527W        W41000  12.717  33.589   1.718
72528W        W41001  33.129  22.077  12.560
72529W        W41002   8.788  20.678  13.431
72530W        W41003  28.036  40.931   2.409
72531W        W41004  43.371  29.598  12.975
72532W        W41005  36.955  26.527   0.421
72533W        W41006  22.205   3.880   1.853
72534W        W41007   9.831  24.479   0.307
72535W        W41008   4.887   5.779   2.306
72536W        W41009  28.579   6.756   1.932
72537W        W41010   7.696  15.250   1.381
72538W        W41011  30.936   9.820   2.810
72539W        W41012  24.723  26.597  12.986
72540W        W41013  32.982  33.925  13.490
72541W        W41014  20.603   5.825  14.812
72542W        W41015  33.526  33.909  14.020
72543W        W41016   9.754   1.301   0.301
72544W        W41017  23.640  36.871  12.489
72545W        W41018  21.640  21.084   3.291
72546W        W41019  22.057  36.451  11.584
72547W        W41020  13.309   5.418  12.967
72548W        W41021  33.102  30.961   4.632
72549W        W41022  27.128  17.568  13.494
72550W        W41023  28.984  11.369  11.481
72551W        W41024  18.191   1.298   4.223
72552W        W41025  28.128  14.334   0.752
72553W        W41026  10.877  11.130  10.547
72554W        W41027  39.363  37.992  12.834
72555W        W41028  28.085  15.116   3.728
72556W        W41029  17.583  28.464   2.776
72557W        W41030  17.802   8.380   0.468
72558W        W41031  33.395  41.310  11.926
72559W        W41032   3.398  36.939   3.717
72560W        W41033  39.998   9.723   1.714
72561W        W41034  43.864  28.128   2.210
72562W        W41035  35.885  17.195  11.454
72563W        W41036  23.604  37.938   4.782
72564W        W41037  42.975  31.079  11.907
72565W        W41038  39.358  11.807   0.470
72566W        W41039   1.331  18.631  11.418
72567W        W41040  30.007   5.200   0.372
72568W        W41041  20.129  33.962  14.293
72569W        W41042  33.904  22.241  13.334
72570W        W41043   9.808  34.615  12.513
72571W        W41044  31.637  20.568  14.942
72572W        W41045   6.747  42.379   4.130
72573W        W41046  23.732  30.479   4.685
72574W        W41047  39.467  23.492  14.951
72575W        W41048  40.375  19.583   2.272
72576W        W41049  40.436  43.015  13.524
72577W        W41050   1.439   8.229   3.851
72578W        W41051  32.986  22.562   0.362
72579W        W41052  27.577   5.273   0.419
72580W        W41053  30.431  11.698  14.988
72581W        W41054  25.483  17.148  11.516
72582W        W41055  29.634  39.520   2.373
72583W        W41056  14.272  17.797   4.242
72584W        W41057  10.738  36.009   1.864
72585W        W41058  17.557  12.635   0.386
72586W        W41059  35.929  29.637   3.283
72587W        W41060  40.393  27.138   1.851
72588W        W41061  42.785   6.715   1.759
72589W        W41062   5.196   3.277   1.347
72590W        W41063  16.283  41.807  14.344
72591W        W41064  38.332  24.130  14.898
72592W        W41065  14.252  12.704   0.470
72593W        W41066  15.727  44.368  14.283
72594W        W41067  37.480  36.034   2.401
72595W        W41068  13.119  21.594  11.433
72596W        W41069  13.813  35.507  13.435
72597W        W41070  11.824  34.581  11.029
72598W        W41071  34.395  36.553   4.286
72599W        W41072  12.802  34.978   3.711
72600W        W41073  25.172  36.406   1.420
72601W        W41074  30.486  27.475   3.178
72602W        W41075   1.951  35.440   2.879
72603W        W41076  21.121  39.877   0.942
72604W        W41077  31.113  18.580   0.438
72605W        W41078   5.889   4.257   5.263
72606W        W41079  34.557  11.146   4.340
72607W        W41080  36.857  29.452  13.949
72608W        W41081  22.676   9.720   4.179
72609W        W41082  20.116  42.784   3.838
72610W        W41083  23.586  17.112  12.339
72611W        W41084  39.547  19.167   1.364
72612W        W41085  30.581  32.450  11.504
72613W        W41086   5.193  29.024  14.448
72614W        W41087  16.302   5.334   3.153
72615W        W41088  29.667  43.879   0.824
72616W        W41089  16.074  35.019   2.893
72617W        W41090  42.973  12.778   2.788
72618W        W41091  43.992  39.054  11.468
72619W        W41092  29.663  23.094   3.175
72620W        W41093  21.158  18.089  12.971
72621W        W41094   6.226  38.503  14.909
72622W        W41095  43.960   5.266  14.451
72623W        W41096  14.151  35.920  14.937
72624W        W41097  12.613   8.263   2.875
72625W        W41098   6.748  13.806  13.526
72626W        W41099  34.965  18.126  11.059
72627W        W41100  17.191  25.218  14.420
72628W        W41101  22.595  30.051  14.949
72629W        W41102  26.042  15.109   1.322
72630W        W41103  21.031  42.360  14.486
72631W        W41104  43.344   3.759  12.032
72632W        W41105   0.400  11.802  14.005
72633W        W41106   8.203  41.353   4.674
72634W        W41107  16.294   7.390  11.981
72635W        W41108  20.122  30.165   2.207
72636W        W41109   6.680  14.146  14.779
72637W        W41110  24.994  36.450   2.718
72638W        W41111  32.622  43.812  12.538
72639W        W41112  29.597  17.680   1.297
72640W        W41113   4.227  31.148  10.905
72641W        W41114  19.556  29.056   0.450
72642W        W41115   7.342  43.348   2.787
72643W        W41116  35.866   7.274  12.518
72644W        W41117  30.430  11.285   3.321
72645W        W41118  30.034   6.428   0.370
72646W        W41119  42.515  12.229   1.760
72647W        W41120  16.611   4.886   1.412
72648W        W41121   4.773   2.371  14.463
72649W        W41122  19.722  26.516   0.430
72650W        W41123  38.531  19.723  12.396
72651W        W41124  37.429  34.870  14.515
72652W        W41125  11.246  16.296   4.710
72653W        W41126  21.090  37.985   3.188
72654W        W41127  31.002  11.741  10.404
72655W        W41128   3.438  38.472   3.745
72656W        W41129  23.520  12.146  14.975
72657W        W41130  31.961  43.395   3.687
72658W        W41131  11.133  41.888  12.517
72659W        W41132  42.973  43.815   2.789
72660W        W41133   8.696  12.123  10.982
72661W        W41134  25.015  28.568   2.212
72662W        W41135   8.802   0.356  13.793
72663W        W41136  33.041   5.406  13.046
72664W        W41137  13.843   8.789   0.297
72665W        W41138  38.975  13.272  11.453
72666W        W41139  16.131  21.232  11.950
72667W        W41140  12.278  25.615  12.829
72668W        W41141  32.619  21.679   0.799
72669W        W41142  42.420  21.197  11.389
72670W        W41143  32.948  18.550  11.114
72671W        W41144  15.263   4.404   4.650
72672W        W41145  15.329  40.462   1.847
72673W        W41146  26.645  19.607  12.835
72674W        W41147  15.311  37.998   4.216
72675W        W41148  36.506  15.758  12.489
72676W        W41149  34.918   2.373   4.746
72677W        W41150  23.602  30.596  13.318
72678W        W41151   7.804   3.813  11.948
72679W        W41152  21.585  23.516   2.267
72680W        W41153  31.073   2.314  13.847
72681W        W41154  36.060   0.803  11.043
72682W        W41155  19.658  39.515  14.307
72683W        W41156   6.258  12.309  12.517
72684W        W41157  17.603   2.966   1.410
72685W        W41158  11.288  28.071  14.775
72686W        W41159  22.666  20.676  13.881
72687W        W41160  17.782  14.338  13.064
72688W        W41161  32.885  36.573  13.324
72689W        W41162  14.809  23.231   0.473
72690W        W41163  41.004  40.882  14.486
72691W        W41164  41.418   5.819  11.455
72692W        W41165   2.378  42.820  13.883
72693W        W41166  30.531  15.124  12.542
72694W        W41167  37.904   8.807   2.198
72695W        W41168   1.372   9.723   0.938
72696W        W41169  42.288  26.142  12.041
72697W        W41170   5.426  43.819  12.507
72698W        W41171  37.927   3.407  14.479
72699W        W41172  36.462  24.549  14.935
72700W        W41173  26.027  38.835   4.783
72701W        W41174   0.364  25.672   2.886
72702W        W41175  29.102  44.873  12.888
72703W        W41176  22.047  28.954  11.499
72704W        W41177   4.291  12.230  11.973
72705W        W41178  37.078  36.086  11.518
72706W        W41179  44.925   9.296  11.460
72707W        W41180  42.855  27.960   3.691
72708W        W41181  26.955  41.973   0.381
72709W        W41182  11.672  28.059  12.361
72710W        W41183  13.308  29.438   0.429
72711W        W41184  10.234  40.407  12.550
72712W        W41185   4.758  43.370  13.871
72713W        W41186  10.756  36.041   3.807
72714W        W41187  24.015   5.235  13.006
72715W        W41188   0.842  38.028   2.796
72716W        W41189  18.240  23.707   1.835
72717W        W41190  25.040  24.614   0.951
72718W        W41191   8.217  30.566  11.404
72719W        W41192  21.722  44.363  13.491
72720W        W41193  22.604  42.945   1.394
72721W        W41194  11.842  16.175   4.656
72722W        W41195  18.723  17.267   4.808
72723W        W41196  28.146   7.403   4.310
72724W        W41197   2.812  41.880  13.953
72725W        W41198  31.907  24.202   1.294
72726W        W41199  27.116  34.086   1.745
72727W        W41200  14.755  36.589  12.363
72728W        W41201   2.841  32.510  14.779
72729W        W41202  25.177   4.273  13.792
72730W        W41203  15.244  37.360   0.731
72731W        W41204  18.184  36.995   1.701
72732W        W41205  33.067  13.185   1.258
72733W        W41206   3.335  32.542   4.616
72734W        W41207  30.110   7.253  11.917
72735W        W41208  19.145  38.351  14.468
72736W        W41209  27.561  42.999   5.318
72737W        W41210  38.026  41.996   0.428
72738W        W41211  14.131   4.329  12.352
72739W        W41212  31.454   5.203  12.441
72740W        W41213   6.216  19.736   0.749
72741W        W41214   3.284   5.384  11.407
72742W        W41215  23.586   1.843   0.466
72743W        W41216  29.960  10.273  14.836
72744W        W41217   3.835  10.186  14.826
72745W        W41218   5.794  36.037  14.877
72746W        W41219  28.119  14.222   1.286
72747W        W41220  12.216  32.542  14.776
72748W        W41221  17.604  29.045   2.364
72749W        W41222  37.897   4.884  10.610
72750W        W41223  21.679  15.664   0.784
72751W        W41224   8.403  11.370   0.800
72752W        W41225  37.384  26.476  14.980
72753W        W41226  24.486   2.354   3.671
72754W        W41227  40.433  35.035   4.199
72755W        W41228   3.238  44.849  13.887
72756W        W41229  10.277  23.998  10.439
72757W        W41230  39.808   1.351  10.480
72758W        W41231  28.108  27.467  11.867
72759W        W41232  30.029  27.182  14.404
72760W        W41233  20.581  35.918  14.383
72761W        W41234  21.174  13.797  10.551
72762W        W41235   6.684  41.432  14.508
72763W        W41236  23.026   5.740  11.556
72764W        W41237  38.423   5.258  12.005
72765W        W41238  21.529  29.626  13.901
72766W        W41239  42.476  39.511  11.940
72767W        W41240  10.208  14.145  11.067
72768W        W41241  27.114  12.299   4.349
72769W        W41242   0.268  38.925  14.944
72770W        W41243   9.793  25.529   2.225
72771W        W41244   2.320   0.864  13.422
72772W        W41245  32.398  27.165  14.021
72773W        W41246  20.243  42.922   9.999
72774W        W41247   7.686  33.426  14.347
72775W        W41248  18.687  14.680  13.488
72776W        W41249   9.168  16.805   0.404
72777W        W41250   7.275   7.810  13.821
72778W        W41251   1.818  42.783   0.330
72779W        W41252  22.574  30.564   0.265
72780W        W41253  31.955  44.311  11.882
72781W        W41254  29.469   4.229   0.782
72782W        W41255   4.877  20.598  11.548
72783W        W41256  11.177   1.240   4.270
72784W        W41257  15.178  36.004   2.252
72785W        W41258   4.364  11.258   1.250
72786W        W41259  33.408  38.408   4.763
72787W        W41260  33.418  15.753   4.243
72788W        W41261  40.405  30.122   2.879
72789W        W41262  35.380   4.841  13.338
72790W        W41263  34.089  20.250  13.308
72791W        W41264   4.369   1.857  14.922
72792W        W41265  29.583  30.621   2.873
72793W        W41266  26.631  12.666  10.070
72794W        W41267  30.544   2.916   2.786
72795W        W41268  31.088  22.164   3.743
72796W        W41269  16.597  40.820   4.245
72797W        W41270  38.877  38.024   2.891
72798W        W41271  19.754  43.480  14.005
72799W        W41272  13.792  25.156  14.375
72800W        W41273  40.817  37.440  11.450
72801W        W41274   0.467  31.586  14.484
72802W        W41275  44.313   3.792   3.336
72803W        W41276  38.954  16.194   0.437
72804W        W41277  41.005  24.578  14.390
72805W        W41278  35.898  20.122  10.462
72806W        W41279  31.040  14.309  10.634
72807W        W41280  38.945  15.807   2.815
72808W        W41281  26.088  11.239  11.518
72809W        W41282  28.586   4.402   3.221
72810W        W41283  37.581  36.915  14.963
72811W        W41284  31.899  43.298  14.825
72812W        W41285  23.058  28.116   9.974
72813W        W41286   6.235  32.125   3.333
72814W        W41287  30.127  33.012  11.887
72815W        W41288  43.005   3.718   4.204
72816W        W41289   6.760  14.730  14.496
72817W        W41290  33.626  12.320  11.469
72818W        W41291  43.452  18.101  13.986
72819W        W41292  21.591  28.475  11.387
72820W        W41293  40.342  32.616   1.286
72821W        W41294  23.997   9.855  12.494
72822W        W41295  18.159  23.102  13.883
72823W        W41296   5.731  20.042   4.347
72824W        W41297  23.673  18.191  12.440
72825W        W41298  10.741  42.316  13.450
72826W        W41299  30.451  27.018  13.379
72827W        W41300  13.274   8.347   1.809
72828W        W41301  31.552  40.876   1.223
72829W        W41302  35.393  17.124  13.955
72830W        W41303  35.588  17.148  10.417
72831W        W41304  25.159  36.446   3.276
72832W        W41305  13.671  11.728   2.702
72833W        W41306  19.066  16.756   4.734
72834W        W41307   8.369  14.623  14.765
72835W        W41308  21.731  36.022  13.810
72836W        W41309  21.527  12.227   3.164
72837W        W41310  18.090  33.550   3.855
72838W        W41311  34.083  15.169   3.700
72839W        W41312  42.405  11.731  12.403
72840W        W41313  42.497  13.837  10.999
72841W        W41314  26.586  43.955  10.901
72842W        W41315  37.915  28.485   1.328
72843W        W41316  40.862  26.557   5.257
72844W        W41317  12.632  43.302  14.330
72845W        W41318  39.026  15.729   3.765
72846W        W41319  32.906  17.123   4.651
72847W        W41320  44.811  20.722  12.969
72848W        W41321  39.923  16.124   1.223
72849W        W41322  22.692  42.324   3.332
72850W        W41323  26.062   1.844   4.315
72851W        W41324  43.328  16.738   2.387
72852W        W41325  41.841  36.417   4.608
72853W        W41326  36.403  12.856   4.206
72854W        W41327  40.311  34.976   3.685
72855W        W41328  20.694   8.379  12.510
72856W        W41329   1.377  10.216   3.635
72857W        W41330  16.755  29.558  13.840
72858W        W41331   2.867  42.881   1.766
72859W        W41332   9.715   2.930   1.234
72860W        W41333   2.948  17.105  11.896
72861W        W41334  44.990  40.397   3.266
72862W        W41335  30.056   6.782   3.158
72863W        W41336  33.534  22.060   2.825
72864W        W41337  14.638   6.686  11.470
72865W        W41338  10.704   9.801  13.542
72866W        W41339  26.070   8.889  11.490
72867W        W41340   7.839   1.862  11.997
72868W        W41341  14.156  35.095   4.656
72869W        W41342  38.375  33.981  14.433
72870W        W41343   1.329   2.471  13.843
72871W        W41344  22.687   6.390  14.398
72872W        W41345  34.968  40.827   4.153
72873W        W41346  18.545  13.193   0.262
72874W        W41347   6.221  33.602  13.527
72875W        W41348   0.393  44.906   3.818
72876W        W41349  26.061  15.802   2.220
72877W        W41350  38.031  37.021   2.294
72878W        W41351  39.027   3.397  11.463
72879W        W41352  29.485   6.748   4.113
72880W        W41353  22.683  20.067  12.531
72881W        W41354   3.395  21.724   4.219
72882W        W41355  24.101  15.274  14.851
72883W        W41356   0.747   2.923  13.492
72884W        W41357   1.916  31.544  10.600
72885W        W41358  17.302  26.648   3.859
72886W        W41359   0.285  15.677   1.332
72887W        W41360   6.782  21.054  13.486
72888W        W41361  20.660  32.635  14.922
72889W        W41362  17.703  26.494  12.984
72890W        W41363   1.866  15.085   1.288
72891W        W41364  23.665  32.895  13.801
72892W        W41365   1.407  30.565  13.326
72893W        W41366  18.565  44.330  12.349
72894W        W41367  25.638   9.337  11.576
72895W        W41368  14.327  11.774   0.482
72896W        W41369  30.453   2.944  10.576
72897W        W41370  31.144  43.315  13.393
72898W        W41371  11.764   2.276   3.254
72899W        W41372  40.813  21.155   0.896
72900W        W41373  19.262  19.090  14.865
72901W        W41374  20.748   6.868  13.420
72902W        W41375  19.756  37.982  14.964
72903W        W41376  19.688  22.530  14.431
72904W        W41377  32.022   1.268   1.788
72905W        W41378  37.042  15.763   1.231
72906W        W41379   8.186  35.056   4.725
72907W        W41380   4.268  38.982  13.883
72908W        W41381  16.194  38.060   3.313
72909W        W41382  34.579  16.196   0.357
72910W        W41383  12.253  35.014  12.889
72911W        W41384  31.545  38.554   4.296
72912W        W41385   2.268  16.163   4.810
72913W        W41386  42.785  11.629  13.526
72914W        W41387   8.188   4.370  14.346
72915W        W41388  30.076  18.079   0.400
72916W        W41389  32.542  11.148   3.695
72917W        W41390   7.796   2.274   3.715
72918W        W41391   3.396   6.865  13.980
72919W        W41392  15.274  29.036   0.753
72920W        W41393  21.035  24.203   4.229
72921W        W41394  10.174   4.847  11.423
72922W        W41395  20.055   0.465   0.425
72923W        W41396   4.771   6.387   2.369
72924W        W41397  43.873  28.135  12.005
72925W        W41398  15.699   8.899  12.394
72926W        W41399  17.124  22.565  13.013
72927W        W41400  37.860  29.068  13.024
72928W        W41401   7.846   2.819  12.859
72929W        W41402  41.457  34.014  14.992
72930W        W41403  16.601   7.718  14.010
72931W        W41404  22.533  13.320  10.124
72932W        W41405  39.424  33.029  12.434
72933W        W41406   0.789  12.825   0.896
72934W        W41407  12.668  40.499  12.979
72935W        W41408  18.643  22.538   4.197
72936W        W41409  39.883  41.024  13.941
72937W        W41410  38.361  34.962  12.982
72938W        W41411  36.000  32.068   1.212
72939W        W41412  42.858   9.653   4.325
72940W        W41413  20.537  34.080   4.772
72941W        W41414  42.401  42.314  14.371
72942W        W41415  43.288   4.871   1.314
72943W        W41416  35.004  42.852  12.912
72944W        W41417  30.038   2.773  11.544
72945W        W41418   4.821  41.358   4.213
72946W        W41419  21.135  44.838   3.827
72947W        W41420  41.392  26.607   0.278
72948W        W41421  15.646  39.011  11.468
72949W        W41422   9.652  22.038  12.959
72950W        W41423   9.371  16.593  12.831
72951W        W41424  10.705  28.982  14.783
72952W        W41425  30.569  33.422  13.350
72953W        W41426  17.207  24.057   1.439
72954W        W41427   2.407  41.962  10.906
72955W        W41428  14.143  15.292   4.209
72956W        W41429  14.286  30.555  10.493
72957W        W41430  38.454  40.810  12.895
72958W        W41431  31.483  33.393   3.641
72959W        W41432   7.887  22.513  10.430
72960W        W41433  10.354  18.219   0.416
72961W        W41434  18.704   0.453  11.501
72962W        W41435  31.130  42.487  10.038
72963W        W41436  18.575   5.808  13.036
72964W        W41437  25.084  14.723   1.408
72965W        W41438  33.465  12.311  11.104
72966W        W41439  36.411  18.139  13.928
72967W        W41440  25.485  19.111   3.159
72968W        W41441   0.907  23.020   4.242
72969W        W41442   3.270  22.595  14.942
72970W        W41443  28.521   4.215  13.972
72971W        W41444   4.796  30.427   9.986
72972W        W41445  25.172  40.929   2.384
72973W        W41446  14.254  23.523   1.349
72974W        W41447  35.597  24.173  11.527
72975W        W41448  18.552  23.665  14.510
72976W        W41449  11.171  14.675   1.392
72977W        W41450  29.074  28.035  10.963
72978W        W41451  44.980  35.987  14.392
72979W        W41452   1.292  37.842  14.959
72980W        W41453  35.003  14.155   0.282
72981W        W41454  19.130  16.136  13.978
72982W        W41455  39.956  20.592   2.191
72983W        W41456  23.715  39.002   3.221
72984W        W41457  12.724  23.702   1.337
72985W        W41458  42.850  11.757  12.470
72986W        W41459  12.203  21.714   3.325
72987W        W41460  13.739   7.729  14.941
72988W        W41461  41.973  37.875   2.192
72989W        W41462  22.044  37.341   1.330
72990W        W41463  23.025  43.884   2.413
72991W        W41464   6.910   8.696   2.356
72992W        W41465  24.990  43.392   3.269
72993W        W41466  27.075  19.202   2.314
72994W        W41467  40.814   0.465   3.759
72995W        W41468  42.411  32.021   5.249
72996W        W41469  36.086  21.743   0.767
72997W        W41470   1.790  16.645  10.891
72998W        W41471  12.270  42.383   3.252
72999W        W41472  38.548  20.551  10.939
73000W        W41473   5.310  11.621  12.968
73001W        W41474  16.698  14.720  14.433
73002W        W41475  24.689  39.948  12.925
73003W        W41476  14.738   1.788   0.730
73004W        W41477  39.055   1.865   0.258
73005W        W41478  14.706  19.618   4.181
73006W        W41479  13.604  24.037  13.451
73007W        W41480  18.632   1.444   1.390
73008W        W41481  18.241  44.483   9.978
73009W        W41482   0.436   3.308  11.387
73010W        W41483   4.372  38.352   0.867
73011W        W41484   5.782  38.521   1.297
73012W        W41485  40.461   9.804  10.946
73013W        W41486  32.909   8.222  14.938
73014W        W41487  11.625  31.451  11.438
73015W        W41488  43.794  29.496  12.844
73016W        W41489   9.887  44.944  13.933
73017W        W41490  10.300  24.216   0.745
73018W        W41491   8.682  27.058   1.312
73019W        W41492   9.841  23.182   3.228
73020W        W41493   2.815  26.591  13.859
73021W        W41494  15.656   4.267  12.080
73022W        W41495  39.920  23.225   3.671
73023W        W41496  11.652  14.159   4.211
73024W        W41497  38.002  31.590   4.191
73025W        W41498  18.120  32.110   2.289
73026W        W41499   4.825  10.238   3.753
73027W        W41500  11.194  17.595  12.082
73028W        W41501  34.940  20.054  13.872
73029W        W41502  12.135   9.187  11.910
73030W        W41503  30.598   1.799  11.420
73031W        W41504  32.540  42.330  11.858
73032W        W41505  19.177  40.870   0.758
73033W        W41506  13.124  20.629   3.820
73034W        W41507  38.471  11.296   4.310
73035W        W41508  30.445  30.487  13.534
73036W        W41509  35.858   4.745   4.256
73037W        W41510  18.197  19.148   3.840
73038W        W41511  42.518  10.649  11.470
73039W        W41512  17.109  29.027  13.513
73040W        W41513  18.770  40.454  12.561
73041W        W41514   5.212   4.843   2.405
73042W        W41515  16.277  34.068  11.392
73043W        W41516  15.133  11.809   0.899
73044W        W41517  42.027  40.385   1.820
73045W        W41518  16.284  21.262   3.718
73046W        W41519  34.021  41.528   4.830
73047W        W41520   0.848  18.096   4.794
73048W        W41521  41.927  27.521  12.486
73049W        W41522  19.065   9.807   4.638
73050W        W41523   8.385  41.466   4.343
73051W        W41524  28.493  13.721   4.796
73052W        W41525  26.166  33.596  12.080
73053W        W41526  34.983  35.941  13.827
73054W        W41527  41.011  30.553  10.549
73055W        W41528  22.165  15.158  11.490
73056W        W41529  12.686  42.924   3.758
73057W        W41530  27.134  38.840  14.478
73058W        W41531  37.489  41.392   1.409
73059W        W41532  21.262  28.489  11.389
73060W        W41533  35.584   9.715   4.273
73061W        W41534  26.695   2.285   3.698
73062W        W41535  24.505  42.497  10.585
73063W        W41536   8.315   6.814  13.031
73064W        W41537   6.738   9.391  10.577
73065W        W41538  32.988  31.967  13.896
73066W        W41539  32.441  42.380   2.687
73067W        W41540   7.724   4.938   4.786
73068W        W41541  17.223  44.794   1.324
73069W        W41542  26.033  23.670   2.740
73070W        W41543  36.864  22.155  13.362
73071W        W41544   3.735  35.508   1.283
73072W        W41545  11.195  30.631   1.712
73073W        W41546  28.587   7.319  11.121
73074W        W41547  29.623  40.849  11.531
73075W        W41548   2.959   2.878  10.548
73076W        W41549  31.631   1.794  12.929
73077W        W41550  31.952  33.051  12.504
73078W        W41551   6.295  33.050   3.677
73079W        W41552  20.086  12.622   4.795
73080W        W41553  10.381  29.000   1.839
73081W        W41554  23.501  31.637   4.288
73082W        W41555  30.963  44.920   4.245
73083W        W41556  43.488  20.621   0.452
73084W        W41557  32.993   5.763   1.428
73085W        W41558  16.732  19.044  13.824
73086W        W41559  10.158  20.262  12.985
73087W        W41560  21.112  27.492   3.662
73088W        W41561  15.661  21.069   3.179
73089W        W41562   6.351  32.542   0.752
73090W        W41563   7.680   3.428  11.594
73091W        W41564   8.320  14.693  12.450
73092W        W41565  30.461   7.889   0.902
73093W        W41566  22.209  41.925  14.507
73094W        W41567  42.319   5.420  12.858
73095W        W41568  27.617   4.208  11.041
73096W        W41569  37.078  26.702  11.894
73097W        W41570  31.404  43.279  10.558
73098W        W41571  33.416  12.795  11.961
73099W        W41572  35.953  42.941   0.318
73100W        W41573  32.007  39.037  13.321
73101W        W41574  32.593  27.519  14.349
73102W        W41575  15.212   5.325   1.903
73103W        W41576  43.271  32.079   0.288
73104W        W41577   4.220  13.735  13.355
73105W        W41578  44.773   2.290   2.861
73106W        W41579  32.497  27.583  10.535
73107W        W41580   9.382  30.043   3.180
73108W        W41581  10.292  15.621   1.236
73109W        W41582  14.246  31.405   3.293
73110W        W41583   7.713  38.041   3.820
73111W        W41584  17.770  36.978   1.307
73112W        W41585  12.823  33.996  12.954
73113W        W41586   8.764  43.501   3.630
73114W        W41587   4.721   1.459   2.299
73115W        W41588  17.220  36.906   3.188
73116W        W41589   8.296  24.047   3.267
73117W        W41590  20.238  36.869   0.821
73118W        W41591   3.378  19.776  12.849
73119W        W41592  28.945   5.700   0.312
73120W        W41593  17.558  19.574  13.036
73121W        W41594  11.199  28.152  13.835
73122W        W41595   1.365   4.295  11.965
73123W        W41596  18.283  11.225   0.914
73124W        W41597  35.549  33.954  10.621
73125W        W41598  20.764  28.498   0.847
73126W        W41599  22.159  43.455   2.286
73127W        W41600  35.365  33.496  10.992
73128W        W41601  21.582   5.350  10.950
73129W        W41602   7.665  12.130  14.932
73130W        W41603   9.868  30.971  13.047
73131W        W41604  41.006  31.557  13.804
73132W        W41605  39.470   8.197  14.339
73133W        W41606  34.395  33.454  12.517
73134W        W41607  27.951  40.339   4.662
73135W        W41608   2.227   9.700  13.500
73136W        W41609  42.887   5.346  13.012
73137W        W41610  27.505  13.680  14.507
73138W        W41611  11.222  15.612   4.806
73139W        W41612  29.516  36.867  13.001
73140W        W41613  43.282  19.558  14.819
73141W        W41614  35.873  25.486   4.239
73142W        W41615  19.082  39.333  14.435
73143W        W41616  44.761  23.233  11.046
73144W        W41617  22.570  36.846   0.783
73145W        W41618   9.782  32.058   0.472
73146W        W41619  41.455  15.749   3.244
73147W        W41620   5.736   7.184   3.684
73148W        W41621  32.106  34.882   3.249
73149W        W41622   4.280  36.939   0.890
73150W        W41623  17.164  12.738  11.934
73151W        W41624  27.672   3.460   1.889
73152W        W41625  36.446  40.833   4.793
73153W        W41626  38.936  27.633   0.780
73154W        W41627   2.944   2.371   1.211
73155W        W41628   8.202  19.166  12.391
73156W        W41629  44.457  16.082  12.882
73157W        W41630  10.202   0.409  14.998
73158W        W41631   8.175  36.352  11.596
73159W        W41632  17.262  44.838  13.483
73160W        W41633  10.829  36.455  10.051
73161W        W41634  20.120   1.305  14.788
73162W        W41635  39.341  29.438  14.472
73163W        W41636  15.675   1.313   3.263
73164W        W41637  20.275  32.576   2.400
73165W        W41638  16.576  26.143   0.400
73166W        W41639  25.609  24.149  13.513
73167W        W41640   9.684  42.373   1.922
73168W        W41641  21.534  36.379   2.309
73169W        W41642  13.272  42.980   2.380
73170W        W41643  27.620  34.075  14.354
73171W        W41644  11.839  30.558   4.758
73172W        W41645  34.398  39.975   2.724
73173W        W41646  32.001  29.944   2.192
73174W        W41647  35.951  12.338   2.292
73175W        W41648  32.094  25.489  12.943
73176W        W41649  41.450  38.971   1.352
73177W        W41650  10.811  42.915   3.200
73178W        W41651  17.595  43.376  13.473
73179W        W41652  17.692   0.927   0.877
73180W        W41653  18.626  29.147   5.281
73181W        W41654  12.726  24.705  11.404
73182W        W41655  38.985  19.670   3.218
73183W        W41656  30.060  34.560   1.240
73184W        W41657  12.734  19.283  12.362
73185W        W41658   6.765  37.034  14.919
73186W        W41659   9.220  33.538   5.762
73187W        W41660  39.434  39.900  11.546
73188W        W41661  36.985  44.835   3.363
73189W        W41662  18.577  36.966   2.769
73190W        W41663   5.408  16.110  13.971
73191W        W41664  15.259  37.389   4.764
73192W        W41665  24.050   9.375  10.424
73193W        W41666  30.431   1.336   2.790
73194W        W41667  10.843   0.477   1.354
73195W        W41668   6.235  29.504  14.987
73196W        W41669  28.667  43.021  10.927
73197W        W41670  24.974  20.628  12.030
73198W        W41671  39.389   6.705   2.247
73199W        W41672  11.370  30.482  14.763
73200W        W41673  29.515  41.488   2.202
73201W        W41674   5.815  18.082   1.880
73202W        W41675  12.340  29.039   3.769
73203W        W41676  12.252  30.429   0.399
73204W        W41677  35.972  17.174   2.802
73205W        W41678   4.280   5.758  10.901
73206W        W41679  29.922  33.874  11.031
73207W        W41680  28.100  21.076  13.368
73208W        W41681   7.239  32.514  14.337
73209W        W41682  23.581   7.303   3.763
73210W        W41683   9.360  37.576  12.499
73211W        W41684  24.715  18.767  14.822
73212W        W41685  25.132  23.507   3.708
73213W        W41686  11.742  20.767   3.335
73214W        W41687   3.375  19.115   4.251
73215W        W41688  24.102  38.834  14.002
73216W        W41689  34.490  29.934  10.442
73217W        W41690  34.459  11.848  14.901
73218W        W41691   5.854  33.130  10.429
73219W        W41692  17.217  39.471  11.112
73220W        W41693  17.624  41.794  14.276
73221W        W41694  37.529  11.837   5.280
73222W        W41695   5.767  28.509  12.559
73223W        W41696  40.376  34.901  13.433
73224W        W41697   7.754   0.981   0.869
73225W        W41698  36.960  14.830  14.799
73226W        W41699  15.115  20.081  14.422
73227W        W41700  37.492  39.010  10.897
73228W        W41701  30.632  23.984   0.754
73229W        W41702  32.005  17.700  11.940
73230W        W41703  25.497   9.176  14.915
73231W        W41704  23.056  43.904   1.751
73232W        W41705  27.001   7.888   4.628
73233W        W41706  34.899   3.715  14.360
73234W        W41707  11.348   2.253   3.274
73235W        W41708  33.531   8.728   2.735
73236W        W41709  19.074   8.227  11.965
73237W        W41710  13.145  32.100   2.187
73238W        W41711  39.058  41.347   0.341
73239W        W41712  15.627  10.879   0.480
73240W        W41713  35.434  33.408   2.303
73241W        W41714   9.746  10.341   2.304
73242W        W41715   5.274  39.912  11.975
73243W        W41716  11.196  26.964   3.649
73244W        W41717  39.920   6.328  13.497
73245W        W41718  36.372  15.117  12.881
73246W        W41719  17.780  44.798  14.989
73247W        W41720   9.820  10.302   4.250
73248W        W41721  36.986   2.393  11.962
73249W        W41722  34.410  16.771   4.813
73250W        W41723   0.414  26.982   2.772
73251W        W41724  38.440   9.887  14.800
73252W        W41725  42.415  34.025  11.871
73253W        W41726  32.462  23.642  10.056
73254W        W41727  31.073  31.912   3.719
73255W        W41728  23.193  35.417   2.778
73256W        W41729  12.794  34.393  14.955
73257W        W41730  36.484  40.972   0.422
73258W        W41731  20.077   4.349   2.822
73259W        W41732  40.847  30.975  12.910
73260W        W41733  24.589   0.352   1.777
73261W        W41734  34.545  10.815   4.314
73262W        W41735   4.285  20.548  10.557
73263W        W41736  11.211  39.864  12.065
73264W        W41737  38.018  33.898   2.356
73265W        W41738  32.424   1.898  10.549
73266W        W41739  16.299  26.112  11.569
73267W        W41740   9.814   3.789  11.394
73268W        W41741  41.880  43.851   2.812
73269W        W41742  18.576  30.164  10.594
73270W        W41743  15.287  32.445   3.725
73271W        W41744  29.545   9.173  11.059
73272W        W41745  13.730  17.266   0.894
73273W        W41746  20.220  32.633   0.325
73274W        W41747   0.370  11.149  13.474
73275W        W41748   7.198  21.537  11.956
73276W        W41749  44.000  17.661  14.398
73277W        W41750  11.343  35.054  10.633
73278W        W41751  12.267  17.145  11.516
73279W        W41752  26.677  38.335   2.702
73280W        W41753  29.024   0.256   0.402
73281W        W41754  22.651   2.263  12.859
73282W        W41755  16.271  30.000   3.661
73283W        W41756   5.751  41.529  11.534
73284W        W41757  44.449  17.081  13.834
73285W        W41758   3.250  39.471   1.291
73286W        W41759   1.802  22.203   1.914
73287W        W41760  42.887  41.489   2.244
73288W        W41761  18.197  17.236   0.798
73289W        W41762  11.306  28.481   4.627
73290W        W41763  12.254  19.220   4.638
73291W        W41764   4.827  43.502  10.526
73292W        W41765   2.279  18.547   2.265
73293W        W41766  28.456  13.228  11.995
73294W        W41767  27.465  44.952  11.388
73295W        W41768  10.694  37.358   2.393
73296W        W41769   2.314  21.050   0.868
73297W        W41770   3.891  15.283  10.962
73298W        W41771  10.371  21.604   2.897
73299W        W41772   4.213  31.005   1.842
73300W        W41773   9.176  21.592   1.339
73301W        W41774  12.268  28.153   0.364
73302W        W41775  39.857  31.976  10.890
73303W        W41776   0.848  20.636  14.466
73304W        W41777   3.813  20.238  13.800
73305W        W41778  20.637  25.557   9.971
73306W        W41779  27.983   2.891   3.158
73307W        W41780  36.447  31.008   1.708
73308W        W41781   7.312  38.947   0.458
73309W        W41782  28.595  18.555  13.466
73310W        W41783   6.842  20.089   4.668
73311W        W41784  35.994  35.971   2.749
73312W        W41785  36.917   8.854  10.956
73313W        W41786  13.842  18.571   4.608
73314W        W41787  23.635   5.843   2.274
73315W        W41788  20.649  24.071  10.503
73316W        W41789  33.602  22.215   2.388
73317W        W41790  30.066  43.378   1.894
73318W        W41791  10.282   7.733  10.890
73319W        W41792  14.115  11.801  11.578
73320W        W41793  31.037  20.614  12.578
73321W        W41794  24.684  28.614   4.804
73322W        W41795  15.132  18.723  12.551
73323W        W41796  41.944  29.074   1.368
73324W        W41797  34.018  16.747   1.264
73325W        W41798  17.563   7.836   1.378
73326W        W41799  35.425   3.287   3.753
73327W        W41800  19.562  44.359  11.428
73328W        W41801  29.526  25.057   0.870
73329W        W41802  13.808   4.247   1.346
73330W        W41803  36.875  29.436  11.875
73331W        W41804  31.939  33.424   1.801
73332W        W41805  33.482  20.211  13.871
73333W        W41806  13.788  28.678   4.348
73334W        W41807  10.655  37.909  13.479
73335W        W41808  32.952  42.881  10.965
73336W        W41809  36.514  11.784   2.248
73337W        W41810  16.171  34.477  10.967
73338W        W41811  40.968   0.289   4.133
73339W        W41812  15.211  28.472  10.607
73340W        W41813  43.358  28.100   0.470
73341W        W41814   6.355  35.020  12.877
73342W        W41815   6.797  35.592  14.902
73343W        W41816  15.299  21.117  10.529
73344W        W41817  36.500  19.119  13.417
73345W        W41818  16.570   0.845  10.925
73346W        W41819  17.189  22.116  12.936
73347W        W41820  17.706  32.061   1.867
73348W        W41821  30.141  31.916   2.228
73349W        W41822  22.199  28.181  13.839
73350W        W41823   9.264  40.338  11.874
73351W        W41824  26.183  37.859  12.578
73352W        W41825  25.501  26.661  10.924
73353W        W41826  33.942   5.278  12.483
73354W        W41827  24.638  22.123   0.739
73355W        W41828   5.821  36.043  12.878
73356W        W41829   5.347  25.985   1.832
73357W        W41830  37.545  39.874  14.897
73358W        W41831  31.153   8.676   0.759
73359W        W41832  14.200   0.279  14.473
73360W        W41833  23.495  25.020   1.365
73361W        W41834   1.332   4.226  13.371
73362W        W41835   4.207  40.819   2.393
73363W        W41836  27.676  31.104   4.730
73364W        W41837  34.905   7.382   1.230
73365W        W41838  41.001   3.258  14.358
73366W        W41839   3.948  20.142   0.336
73367W        W41840  11.697  29.123   5.319
73368W        W41841  11.827  41.315   0.735
73369W        W41842  13.132   6.900  14.923
73370W        W41843   2.348  35.531  13.419
73371W        W41844  42.312  22.106  11.115
73372W        W41845   4.378   8.870  14.022
73373W        W41846   6.748  34.528  12.875
73374W        W41847   9.278  20.528   3.265
73375W        W41848   4.813  32.130  11.570
73376W        W41849  38.421  31.113  12.932
73377W        W41850  31.581  42.499   3.708
73378W        W41851  40.310   1.737  10.130
73379W        W41852   6.414  40.910   0.364
73380W        W41853   1.810   2.259  14.351
73381W        W41854  25.043  11.834   2.203
73382W        W41855  44.808  17.284   3.847
73383W        W41856  26.518  22.501   4.688
73384W        W41857  39.527  16.762   0.959
73385W        W41858  37.052  14.646  10.458
73386W        W41859  41.945  37.370  12.417
73387W        W41860  42.788  24.697   0.728
73388W        W41861  12.256  44.387   1.234
73389W        W41862  35.013  30.134   3.225
73390W        W41863  28.953  13.344  12.516
73391W        W41864  24.552  41.017  11.436
73392W        W41865   9.152   7.342  10.500
73393W        W41866  24.200   3.420  10.457
73394W        W41867  32.969  37.923   4.342
73395W        W41868  41.850  17.139  10.537
73396W        W41869  37.382   0.417   0.838
73397W        W41870  22.090   3.872  12.039
73398W        W41871  12.671  23.663  11.596
73399W        W41872  21.682  37.980   3.252
73400W        W41873  33.066  39.444  13.797
73401W        W41874  15.126  40.043  13.403
73402W        W41875  44.831   9.202  11.956
73403W        W41876  37.994   8.402   2.671
73404W        W41877  32.414  20.169  12.056
73405W        W41878  20.225  36.912   1.214
73406W        W41879  28.551  44.758   2.739
73407W        W41880  22.618  38.864  12.535
73408W        W41881  27.063  40.008  14.303
73409W        W41882  40.841   2.959   1.753
73410W        W41883  44.388  33.415   4.778
73411W        W41884  27.017  40.969   2.674
73412W        W41885  32.491   7.810  12.922
73413W        W41886   2.293  22.562   1.717
73414W        W41887  14.708  27.967   2.260
73415W        W41888  22.088  19.040  10.642
73416W        W41889  17.097   3.419   0.316
73417W        W41890  29.487  15.787   4.809
73418W        W41891  42.903  19.145   0.893
73419W        W41892  37.933  17.712  12.373
73420W        W41893  20.591  29.131  14.310
73421W        W41894  10.380  26.018  14.455
73422W        W41895  20.225  41.432   3.761
73423W        W41896   9.731  10.306  14.775
73424W        W41897   8.316   5.384  12.461
73425W        W41898  25.986  36.945  10.592
73426W        W41899  28.004  35.049   5.135
73427W        W41900  25.209  35.464  10.545
73428W        W41901  12.289  14.331  14.502
73429W        W41902  32.983  41.871   0.822
73430W        W41903  31.518  12.250   2.836
73431W        W41904  26.079  23.564  13.448
73432W        W41905   0.948   0.332   2.788
73433W        W41906  16.700   1.431  13.471
73434W        W41907   1.924   2.939   4.770
73435W        W41908   9.300  20.623  11.010
73436W        W41909  11.289  34.524  10.991
73437W        W41910  36.501   9.375   2.745
73438W        W41911  27.590  13.161  13.873
73439W        W41912  39.325  33.475  10.522
73440W        W41913  16.091   6.921  12.572
73441W        W41914   6.231  10.736   2.783
73442W        W41915  27.005  19.073  14.911
73443W        W41916  21.681  44.275  12.942
73444W        W41917  11.709  20.590  10.932
73445W        W41918  32.028  16.076   2.337
73446W        W41919   9.234  23.635  13.397
73447W        W41920  21.059  27.452  13.819
73448W        W41921  40.509  26.653   4.625
73449W        W41922  26.476  24.529   0.256
73450W        W41923  43.506  26.568   3.149
73451W        W41924  10.828  44.759   1.415
73452W        W41925   1.773   1.464   0.830
73453W        W41926  43.404   3.811  14.987
73454W        W41927  26.122   7.793   0.770
73455W        W41928  24.017   6.358   2.747
73456W        W41929  23.127  24.190  13.468
73457W        W41930  21.194   6.744   4.232
73458W        W41931  24.059   6.429  14.809
73459W        W41932  11.729  24.000   9.930
73460W        W41933  31.506  35.408  14.340
73461W        W41934  30.481  42.339   4.236
73462W        W41935   8.294  31.468   4.616
73463W        W41936  37.003   1.456   3.733
73464W        W41937   9.874   8.287   3.652
73465W        W41938  22.545  38.821   5.113
73466W        W41939   3.881  31.456  13.863
73467W        W41940  31.070  14.333   3.375
73468W        W41941  18.150   0.903  13.310
73469W        W41942  18.062  28.455   0.840
73470W        W41943  34.877  30.043  10.600
73471W        W41944  25.655  35.389   3.752
73472W        W41945  39.017  20.630   4.693
73473W        W41946   0.848  22.551  13.382
73474W        W41947  21.167   7.707   5.188
73475W        W41948   0.770  34.420   4.319
73476W        W41949  31.404  19.750   0.900
73477W        W41950  30.985  28.619   2.378
73478W        W41951  39.521  16.106  12.827
73479W        W41952  11.336   1.830  12.432
73480W        W41953  32.007  28.674   0.297
73481W        W41954   7.397   1.384  13.831
73482W        W41955   9.168  19.590   2.858
73483W        W41956   9.715  24.987   4.183
73484W        W41957  13.615  44.379   4.727
73485W        W41958   7.211  18.547   0.829
73486W        W41959  14.654  41.969  11.041
73487W        W41960  24.128  26.021   9.925
73488W        W41961  20.591  25.473  11.577
73489W        W41962   5.240  12.659  14.379
73490W        W41963  15.231  33.953   2.225
73491W        W41964  10.700  38.052  14.772
73492W        W41965  17.094   8.255  12.010
73493W        W41966  35.563  38.458  12.083
73494W        W41967   6.235  18.102   1.768
73495W        W41968   8.841  26.536  13.967
73496W        W41969  29.051   1.418   3.755
73497W        W41970   9.728  38.030   3.289
73498W        W41971  34.409  33.444   3.744
73499W        W41972  33.384  17.629  12.076
73500W        W41973  44.475  43.297  10.602
73501W        W41974  29.014  37.957  10.504
73502W        W41975  44.374  44.364   3.843
73503W        W41976  16.178  23.676   2.821
73504W        W41977  21.633  23.581  12.354
73505W        W41978  27.525  10.810   1.728
73506W        W41979  39.011   8.668   4.250
73507W        W41980  30.063  34.500  10.419
73508W        W41981   5.719  31.146   3.693
73509W        W41982  34.027  41.506   0.787
73510W        W41983  27.634  35.990  14.796
73511W        W41984  11.628   0.939  10.489
73512W        W41985  32.091  16.717  13.877
73513W        W41986  26.059  22.721   1.338
73514W        W41987   1.455  29.977  11.906
73515W        W41988  28.981   2.254   4.162
73516W        W41989  23.662   9.298  12.970
73517W        W41990  24.660  16.135  13.919
73518W        W41991  31.097  32.087   4.351
73519W        W41992  44.266   9.865   1.321
73520W        W41993   3.764  18.152  10.468
73521W        W41994   2.277  37.040  12.830
73522W        W41995  17.728  36.438  12.043
73523W        W41996  25.497  38.345   4.687
73524W        W41997  29.572  36.062  12.528
73525W        W41998  28.104  32.114  14.938
73526W        W41999  37.076   3.271  14.838
73527W        W42000  31.092  35.551   3.793
73528W        W42001  37.573  10.828  13.521
73529W        W42002  16.766   5.406  13.402
73530W        W42003  13.166  21.027  10.013
73531W        W42004  36.432  32.947  12.069
73532W        W42005  22.669  38.337   4.824
73533W        W42006  33.055   1.828  13.442
73534W        W42007  28.624  39.892  13.480
73535W        W42008   7.794   8.831   1.898
73536W        W42009  21.683  11.682   4.139
73537W        W42010  21.579  24.484  10.911
73538W        W42011  25.132  21.568   4.772
73539W        W42012  12.139  30.031   3.216
73540W        W42013  34.877  28.453  11.460
73541W        W42014  31.508  37.913   0.912
73542W        W42015  18.241  23.129   4.801
73543W        W42016  40.042  18.068  11.392
73544W        W42017  39.997  15.110   0.900
73545W        W42018   5.374  37.451  12.918
73546W        W42019  40.055  25.019   4.261
73547W        W42020   5.274  28.556  10.610
73548W        W42021  11.218   2.884  12.038
73549W        W42022   3.273  25.614  13.822
73550W        W42023  20.735  34.096   1.907
73551W        W42024  18.201  13.107   3.358
73552W        W42025  27.055  26.686  10.540
73553W        W42026  38.985  44.472  12.879
73554W        W42027   9.706  22.676   0.740
73555W        W42028  14.228  42.022  12.001
73556W        W42029  39.404  28.076   1.890
73557W        W42030  22.613   4.336   1.834
73558W        W42031   1.907  12.659  13.510
73559W        W42032   5.307  24.709  11.439
73560W        W42033   3.719   7.738   1.927
73561W        W42034  37.511  22.099  14.857
73562W        W42035   7.276  19.276   0.391
73563W        W42036  12.225  10.779  14.288
73564W        W42037  14.274  42.828   3.378
73565W        W42038  17.131  42.907   2.880
73566W        W42039   2.430  15.132   3.837
73567W        W42040  14.601  37.520  11.566
73568W        W42041  41.424  10.772   0.779
73569W        W42042  12.182   0.844  11.977
73570W        W42043   7.277   6.225   4.775
73571W        W42044  30.975   4.245   2.730
73572W        W42045  16.705  35.107   2.386
73573W        W42046  18.550  17.761   3.189
73574W        W42047   9.220  12.641   1.728
73575W        W42048  25.494  28.022  12.827
73576W        W42049  35.475   6.760  11.111
73577W        W42050  34.591  22.249  14.435
73578W        W42051  22.138  33.473   2.825
73579W        W42052  43.448  40.544   3.170
73580W        W42053  11.778  39.460   1.808
73581W        W42054  16.808  11.735   0.776
73582W        W42055  41.327  30.520   3.386
73583W        W42056   9.294  25.582   5.154
73584W        W42057  41.486  20.727  14.356
73585W        W42058  24.482  15.810  11.894
73586W        W42059  33.470  15.748   2.217
73587W        W42060  36.418  29.142   4.296
73588W        W42061  41.350  43.962   4.230
73589W        W42062   0.781  24.572  13.468
73590W        W42063   4.273  11.281  12.374
73591W        W42064  35.917   3.787   1.303
73592W        W42065   2.265  37.020   2.191
73593W        W42066  37.503   2.934   0.758
73594W        W42067  28.075  19.537   1.399
73595W        W42068  17.667  42.510  13.037
73596W        W42069  24.223  13.837   3.858
73597W        W42070  22.038   1.444   2.715
73598W        W42071  20.191   0.353  13.477
73599W        W42072  36.883  16.150   3.784
73600W        W42073  12.228  30.075  11.436
73601W        W42074  23.661  30.536  12.528
73602W        W42075  12.167  30.964  14.875
73603W        W42076  40.036  22.100  11.002
73604W        W42077  11.215  23.080   5.603
73605W        W42078  43.879  24.089   0.322
73606W        W42079  32.128   9.366   3.801
73607W        W42080  35.021  25.651   0.933
73608W        W42081  13.788   3.387   0.843
73609W        W42082  41.962  24.048   4.830
73610W        W42083   1.775  10.736   0.417
73611W        W42084   9.788  36.886  13.488
73612W        W42085  19.625  27.999  10.604
73613W        W42086  17.083  34.591   3.777
73614W        W42087  13.321  11.852   2.822
73615W        W42088   9.683  37.560   2.864
73616W        W42089   0.418   4.296  13.922
73617W        W42090  20.194  29.128  11.385
73618W        W42091   4.418  19.227   3.693
73619W        W42092  32.521  31.111   0.329
73620W        W42093   7.864  37.382   1.399
73621W        W42094  29.133   8.338   3.309
73622W        W42095   0.492  24.058  13.398
73623W        W42096  15.668   4.867  11.010
73624W        W42097  39.898  13.814  11.440
73625W        W42098  25.596  42.033   0.473
73626W        W42099  10.177  24.980  12.870
73627W        W42100  17.080  13.175   3.798
73628W        W42101  38.934  28.008   0.866
73629W        W42102  40.422   7.893  14.450
73630W        W42103  43.007  25.139   0.244
73631W        W42104  29.151  31.570  14.420
73632W        W42105  18.233   4.311   1.821
73633W        W42106  20.194  24.681  11.007
73634W        W42107  22.112  12.150  12.828
73635W        W42108  37.025  20.743  12.498
73636W        W42109  26.086  42.333  12.915
73637W        W42110  37.374  40.986   1.405
73638W        W42111  23.192  42.777  12.448
73639W        W42112  41.387  27.143   3.657
73640W        W42113  39.821  30.038  11.495
73641W        W42114  33.549  21.706  10.423
73642W        W42115   0.363  17.656  11.057
73643W        W42116  15.721   1.421  14.815
73644W        W42117  23.070  34.587   4.337
73645W        W42118  36.573  20.550   4.607
73646W        W42119   5.215  39.409   4.300
73647W        W42120   2.864  29.135   4.672
73648W        W42121  14.206  25.605   4.639
73649W        W42122  28.086  34.056  13.436
73650W        W42123  15.206   4.714  13.045
73651W        W42124  37.570   3.351   5.299
73652W        W42125  22.044   1.464   1.795
73653W        W42126  22.568   1.858   3.212
73654W        W42127   1.974   9.836  10.518
73655W        W42128  30.537  39.427   4.166
73656W        W42129  33.513  27.600   0.768
73657W        W42130  41.815  31.906   1.406
73658W        W42131  15.589  19.091  11.870
73659W        W42132   1.908  22.012  11.867
73660W        W42133  36.466  18.639  11.025
73661W        W42134  26.027  21.540   1.811
73662W        W42135  32.513   9.764   1.846
73663W        W42136  32.929  35.493   4.774
73664W        W42137  11.307   8.670   1.445
73665W        W42138  23.232   3.804  14.855
73666W        W42139  17.722  35.548  14.465
73667W        W42140  23.616  24.163  13.442
73668W        W42141  15.751  16.665  13.851
73669W        W42142  10.672  39.348   0.429
73670W        W42143  25.087  13.820  14.922
73671W        W42144  13.217  32.041  14.855
73672W        W42145  18.670  36.420  13.809
73673W        W42146  22.746  18.145  13.337
73674W        W42147   9.663  10.873  12.412
73675W        W42148   0.770  44.335   3.243
73676W        W42149  29.121  41.939  10.959
73677W        W42150  12.674  44.925   0.929
73678W        W42151  11.817  29.007   1.708
73679W        W42152  32.527  24.102   1.808
73680W        W42153   9.311  38.054   3.679
73681W        W42154  38.355   3.717   1.270
73682W        W42155   9.700  38.897   9.968
73683W        W42156  13.245  36.959   1.930
73684W        W42157  28.054  13.188   1.870
73685W        W42158  35.451  30.558   4.147
73686W        W42159  15.592  24.097  11.388
73687W        W42160  34.516  27.526   4.642
73688W        W42161  37.529   1.845  13.370
73689W        W42162  23.141  37.007   3.676
73690W        W42163  24.639   4.770  14.998
73691W        W42164   5.916   4.731   3.799
73692W        W42165  28.546  40.945   1.701
73693W        W42166   5.916  26.541   2.844
73694W        W42167  25.105  18.076   1.889
73695W        W42168  17.091  22.584  12.341
73696W        W42169   9.176  18.277   5.272
73697W        W42170  29.135  31.098  12.849
73698W        W42171  37.369  34.062  11.547
73699W        W42172  39.368   4.264  11.012
73700W        W42173  37.020  32.887  11.125
73701W        W42174  35.532   5.767   1.802
73702W        W42175   7.176   8.373   0.325
73703W        W42176  26.523  42.900   1.354
73704W        W42177  29.151  17.093   3.147
73705W        W42178   1.430  21.198   0.835
73706W        W42179  17.645  13.251  14.948
73707W        W42180   1.758  25.670   2.218
73708W        W42181  13.233  22.192  14.904
73709W        W42182  16.224  27.132  11.417
73710W        W42183   3.774  29.114   0.920
73711W        W42184  33.881   0.767   1.700
73712W        W42185  32.069  22.618  12.858
73713W        W42186  33.014  38.364   1.245
73714W        W42187  44.330   1.467   0.770
73715W        W42188  20.126  28.162   1.380
73716W        W42189  18.545  36.475   4.174
73717W        W42190  39.018   3.359   1.407
73718W        W42191  14.312  26.614   2.269
73719W        W42192  41.905  32.411   1.932
73720W        W42193   8.823  17.212   4.139
73721W        W42194  15.669  13.778  14.496
73722W        W42195  27.521  38.011  13.501
73723W        W42196  16.234  20.256   3.662
73724W        W42197  38.543  30.648  11.382
73725W        W42198  27.473   9.889  11.943
73726W        W42199   6.219   3.377  11.982
73727W        W42200  37.971  44.411   3.692
73728W        W42201  37.893  10.385  13.546
73729W        W42202  21.569  38.939  10.890
73730W        W42203  17.213   3.288   2.702
73731W        W42204  38.533  43.989  11.978
73732W        W42205   2.892  44.842  14.967
73733W        W42206   5.286  33.509   4.117
73734W        W42207   9.255  28.476   3.678
73735W        W42208  25.014   5.425  11.588
73736W        W42209  20.081  10.797   2.753
73737W        W42210  38.566  19.624   3.865
73738W        W42211  28.659  13.749  13.000
73739W        W42212  25.551   2.359   4.671
73740W        W42213  20.171   9.678   1.819
73741W        W42214   3.815  28.652  11.042
73742W        W42215  39.065   2.957  13.909
73743W        W42216  29.467  32.008  13.809
73744W        W42217  13.654  39.331   1.219
73745W        W42218  43.314  32.488   4.277
73746W        W42219  19.576  31.480   1.697
73747W        W42220  37.348   9.375   3.167
73748W        W42221  12.782  35.445   0.868
73749W        W42222  12.731  12.251  14.938
73750W        W42223  18.050   2.310   3.796
73751W        W42224  11.329   0.900  14.760
73752W        W42225  42.878  41.349  13.872
73753W        W42226  37.924  33.443   4.167
73754W        W42227   8.378  19.703  12.505
73755W        W42228   9.155   9.206  11.463
73756W        W42229  42.516  20.097  13.039
73757W        W42230  37.545  26.529   1.334
73758W        W42231  36.407   3.718  10.455
73759W        W42232   2.358  43.860   3.379
73760W        W42233   6.351  36.535   0.914
73761W        W42234  14.284  36.419  14.976
73762W        W42235   6.773  14.770  13.481
73763W        W42236   0.452  41.500   3.387
73764W        W42237  38.866  22.179  12.346
73765W        W42238  11.755   0.336  12.348
73766W        W42239   4.354  37.039   3.212
73767W        W42240   8.382  23.061   2.826
73768W        W42241  14.095  23.628  12.078
73769W        W42242  22.207  37.340  14.349
73770W        W42243  31.942  24.144  11.593
73771W        W42244  33.437  11.207  14.790
73772W        W42245   9.393  34.433   3.776
73773W        W42246  26.582  26.119  12.382
73774W        W42247  43.463  44.893   4.727
73775W        W42248  11.362  38.045   1.876
73776W        W42249  43.841  43.285  10.576
73777W        W42250  37.033  39.349  13.873
73778W        W42251   2.282  23.166  11.425
73779W        W42252  21.027  33.962   3.789
73780W        W42253  23.691  30.503   3.657
73781W        W42254   5.300  19.552   3.369
73782W        W42255  37.373  42.361   1.302
73783W        W42256   0.469   8.397  14.349
73784W        W42257   6.186   3.459   4.324
73785W        W42258  41.942  26.532  12.501
73786W        W42259  15.727   8.837  14.988
73787W        W42260  15.235  31.026  14.383
73788W        W42261  10.329  29.515  13.902
73789W        W42262  24.170  24.117   2.189
73790W        W42263  28.675  42.855  14.779
73791W        W42264  10.668  26.459  13.338
73792W        W42265  37.576  11.624  13.453
73793W        W42266  22.165  13.825   3.298
73794W        W42267  27.601  37.853   1.380
73795W        W42268   7.800  43.834  14.401
73796W        W42269  20.082  14.799  13.959
73797W        W42270  38.562  36.984  11.082
73798W        W42271  31.584   0.392  14.444
73799W        W42272  18.663  39.960   1.778
73800W        W42273  18.619  39.524  13.456
73801W        W42274  12.684  44.400   3.689
73802W        W42275  36.093  39.845  14.025
73803W        W42276  22.212  21.719  13.852
73804W        W42277  18.685  36.393   1.775
73805W        W42278  19.596  31.003  12.856
73806W        W42279  37.581  39.012  14.422
73807W        W42280  41.408  36.906  10.608
73808W        W42281  13.163  39.365   2.212
73809W        W42282   3.932  17.662  12.449
73810W        W42283   8.744  21.125  12.051
73811W        W42284  24.116  39.903   4.281
73812W        W42285  38.504   6.723  12.049
73813W        W42286  38.932  43.008   1.738
73814W        W42287  27.084  12.248  13.026
73815W        W42288  16.118  32.575  12.505
73816W        W42289  27.066  23.110  13.336
73817W        W42290  25.618  44.323  11.572
73818W        W42291  24.555  19.613  13.448
73819W        W42292  24.133  41.456  11.997
73820W        W42293  39.456  30.580   1.215
73821W        W42294  10.272  40.452   4.659
73822W        W42295  21.257  13.770  10.142
73823W        W42296  14.729   7.704   0.456
73824W        W42297  17.562  22.618   3.211
73825W        W42298  36.567  32.618   3.811
73826W        W42299  27.044  29.130  10.989
73827W        W42300   2.240  39.899   2.317
73828W        W42301  42.865   5.349  10.609
73829W        W42302  34.426  12.315  12.917
73830W        W42303  42.322  21.705   4.146
73831W        W42304  43.494  15.101  13.055
73832W        W42305  26.521  41.525   4.236
73833W        W42306  20.694  28.115  12.837
73834W        W42307  42.788   1.240   3.755
73835W        W42308   5.806  16.759  11.555
73836W        W42309   4.334  41.800  11.486
73837W        W42310  12.338  30.020   1.449
73838W        W42311  36.579  14.748   0.830
73839W        W42312  12.265  41.356  11.910
73840W        W42313  23.992  17.213  10.569
73841W        W42314  26.991  38.853  12.838
73842W        W42315   7.854  14.623  13.362
73843W        W42316  23.158  44.818  11.467
73844W        W42317  24.499  38.918   1.395
73845W        W42318  15.808  25.085  10.992
73846W        W42319  11.134   6.737   3.313
73847W        W42320  41.903  39.029  14.941
73848W        W42321  11.727  28.675   3.833
73849W        W42322  43.329  11.712  11.485
73850W        W42323   6.306  23.631   2.731
73851W        W42324  41.859  38.922   4.835
73852W        W42325  43.356  23.179  14.879
73853W        W42326  16.795  32.407  11.538
73854W        W42327   1.808  39.939   2.725
73855W        W42328  26.671  19.747  14.276
73856W        W42329  43.919  41.976   1.355
73857W        W42330  22.066  27.647   2.761
73858W        W42331  41.851  33.944  14.801
73859W        W42332  28.983  26.076  12.533
73860W        W42333  44.366  42.527  13.381
73861W        W42334   5.769   4.399   2.341
73862W        W42335  19.645  19.221   1.909
73863W        W42336  37.511   5.252   3.216
73864W        W42337  13.822  38.436  10.514
73865W        W42338  27.055   4.228  13.812
73866W        W42339  14.665   8.846  12.894
73867W        W42340  26.109  23.671   2.221
73868W        W42341  31.617  37.021  14.922
73869W        W42342  42.414  32.443   2.307
73870W        W42343  14.590  23.140  12.530
73871W        W42344  29.554  28.651   1.334
73872W        W42345  37.342  42.942  12.975
73873W        W42346   6.419   0.834   5.083
73874W        W42347  34.959  41.446   1.287
73875W        W42348  31.920   1.798  10.019
73876W        W42349  16.169   9.329   4.674
73877W        W42350  34.570  27.562  11.596
73878W        W42351  20.596   8.238  13.527
73879W        W42352  41.297   5.877  13.421
73880W        W42353  29.926  16.256   0.266
73881W        W42354  19.190  29.096  13.528
73882W        W42355   6.288   5.909  13.364
73883W        W42356   0.831  27.998   2.811
73884W        W42357   4.355  31.924  12.874
73885W        W42358  21.020  40.377   5.249
73886W        W42359   0.300   4.334   0.410
73887W        W42360  21.676   5.281  13.923
73888W        W42361  35.022  14.683   4.289
73889W        W42362   0.358  31.998  14.420
73890W        W42363  10.638  22.652  12.044
73891W        W42364  14.798  22.542  14.287
73892W        W42365  33.025   2.253  14.450
73893W        W42366  41.511   5.202   3.799
73894W        W42367  21.126  26.011  10.467
73895W        W42368   6.201  32.014   0.762
73896W        W42369  41.823  22.161   1.918
73897W        W42370  27.164   6.207  10.606
73898W        W42371  12.304  35.876   4.634
73899W        W42372   5.902  30.058  13.485
73900W        W42373  42.944   4.243   1.413
73901W        W42374  31.545  42.013   3.763
73902W        W42375  28.519  16.758  14.466
73903W        W42376  14.671   9.739  11.897
73904W        W42377  39.447  18.102  10.519
73905W        W42378  20.537  28.475  11.981
73906W        W42379  24.197   6.909   3.378
73907W        W42380  26.951  20.678   2.285
73908W        W42381  11.700  40.898   2.293
73909W        W42382  22.734  15.683   3.833
73910W        W42383  23.196  44.930  13.516
73911W        W42384  11.685  14.119  13.398
73912W        W42385   1.828   9.202   1.341
73913W        W42386  41.330  26.463  11.007
73914W        W42387  42.921  28.069  10.429
73915W        W42388  17.721   7.823  12.441
73916W        W42389  34.567  12.248   2.862
73917W        W42390  32.043  34.864   1.834
73918W        W42391  13.285   8.730   2.889
73919W        W42392  26.009   8.241   1.784
73920W        W42393  38.382  17.192   2.283
73921W        W42394   1.961  35.964  14.981
73922W        W42395  33.562  29.141  13.391
73923W        W42396   0.482   5.896  11.569
73924W        W42397   4.813  10.808  14.315
73925W        W42398  28.087  26.667   1.906
73926W        W42399  24.490  19.570  11.537
73927W        W42400  18.245  12.338   4.794
73928W        W42401  16.756   9.204  14.358
73929W        W42402  38.511  26.956   4.188
73930W        W42403   6.714  14.323  13.007
73931W        W42404   2.940  12.677  11.428
73932W        W42405  13.617  22.738  11.443
73933W        W42406  36.898  21.155  11.025
73934W        W42407  28.666  12.611   3.192
73935W        W42408  24.073  41.458  10.062
73936W        W42409  27.109  11.306  10.522
73937W        W42410  18.231  35.965   2.346
73938W        W42411   3.935  21.522  12.891
73939W        W42412  40.337  12.308   3.795
73940W        W42413   1.454  14.806   4.283
73941W        W42414   2.423  18.730   0.845
73942W        W42415   5.927  13.672  12.484
73943W        W42416  25.520  20.073  11.383
73944W        W42417  35.431   5.694  10.603
73945W        W42418  18.676  26.545  10.551
73946W        W42419  29.035  38.930  13.971
73947W        W42420  11.842  16.212   1.865
73948W        W42421   6.898   0.894  13.334
73949W        W42422   8.710   2.833   1.845
73950W        W42423   4.739   3.941   2.854
73951W        W42424  38.990  15.236   3.811
73952W        W42425  12.763  42.372   2.331
73953W        W42426  16.140  35.912   0.456
73954W        W42427  36.064  16.140   3.803
73955W        W42428  15.600  17.282   3.238
73956W        W42429   6.789  24.076   0.732
73957W        W42430  34.514  29.990  11.118
73958W        W42431  44.434  17.750  12.942
73959W        W42432  11.764  13.664  10.472
73960W        W42433  18.751   6.914  13.377
73961W        W42434  32.008  31.584  12.932
73962W        W42435  42.391  10.350  10.407
73963W        W42436  17.611   5.308   4.284
73964W        W42437  42.357  35.553   2.749
73965W        W42438  24.007  35.375   4.783
73966W        W42439   5.806   4.300   4.647
73967W        W42440  36.961  22.708   2.230
73968W        W42441  18.730   4.887  13.406
73969W        W42442  36.055  24.211  13.504
73970W        W42443   5.853  25.503   0.911
73971W        W42444  32.591  24.718  12.832
73972W        W42445   9.687  37.973   2.323
73973W        W42446   0.432  41.449   4.151
73974W        W42447  36.479  18.659   3.336
73975W        W42448  22.204  26.992  12.567
73976W        W42449   1.275  38.440  12.077
73977W        W42450  21.749  17.091   0.888
73978W        W42451  44.778  42.877  10.527
73979W        W42452  34.610  14.177   4.273
73980W        W42453  12.758  32.498   4.148
73981W        W42454  11.722  19.694   2.265
73982W        W42455  39.559  11.171  13.946
73983W        W42456  44.350  28.167  12.427
73984W        W42457   6.733  25.611  10.914
73985W        W42458  42.030  13.281   2.696
73986W        W42459  22.025   9.272  13.962
73987W        W42460  27.616   7.849  12.928
73988W        W42461  28.130  24.220   2.835
73989W        W42462  15.612  26.664   4.630
73990W        W42463  14.743   1.865   2.756
73991W        W42464  25.684   7.721   3.728
73992W        W42465   8.667  11.734  14.834
73993W        W42466   0.295  30.948   2.245
73994W        W42467  36.938  31.131  13.990
73995W        W42468   5.224  33.430   0.768
73996W        W42469  16.608  12.787   3.844
73997W        W42470  40.961  20.205  11.102
73998W        W42471  27.058  17.099   2.844
73999W        W42472  29.020  19.632   3.352
74000W        W42473  15.761   6.808  14.849
74001W        W42474  22.221   3.744   2.366
74002W        W42475  21.167   6.283  12.506
74003W        W42476  33.098  11.634  12.518
74004W        W42477  24.165   4.916   0.370
74005W        W42478   3.391  35.096   0.729
74006W        W42479  41.389  13.744  11.056
74007W        W42480  31.566   3.845   2.314
74008W        W42481  15.197  35.021   2.293
74009W        W42482  14.175  20.028  10.953
74010W        W42483   4.427  37.968   2.784
74011W        W42484   8.806  13.750   2.741
74012W        W42485   7.385  27.507   4.807
74013W        W42486  14.768  17.071  14.844
74014W        W42487  13.732  31.519  13.437
74015W        W42488  36.976  33.554  11.534
74016W        W42489   2.790  12.654  13.341
74017W        W42490  30.972  15.711   3.383
74018W        W42491   0.307  14.281  13.062
74019W        W42492   3.752  24.659   0.862
74020W        W42493  23.594   6.791  11.944
74021W        W42494  22.552  28.513   4.719
74022W        W42495   2.785  39.454  11.877
74023W        W42496  41.379  25.611   5.082
74024W        W42497  42.384  42.857  12.374
74025W        W42498  10.704  31.916   2.742
74026W        W42499  21.595  39.838   1.320
74027W        W42500  30.008   6.305   3.289
74028W        W42501  10.676  17.790  11.534
74029W        W42502   2.812  22.021   2.715
74030W        W42503  15.595  22.556   5.153
74031W        W42504  23.165  22.663  11.918
74032W        W42505  39.313  31.435  10.508
74033W        W42506  10.760  11.170  14.288
74034W        W42507  38.906  17.072  10.967
74035W        W42508   5.856   9.822  11.989
74036W        W42509   7.322  32.117   1.770
74037W        W42510  39.460  32.582   4.721
74038W        W42511  29.509   8.666  12.449
74039W        W42512  27.651  35.039   3.660
74040W        W42513  14.833  32.621   0.382
74041W        W42514  38.373   9.721   4.731
74042W        W42515   7.889  40.889   4.274
74043W        W42516  14.267   2.737  11.497
74044W        W42517   5.253  44.343   4.193
74045W        W42518  27.139  24.720   2.749
74046W        W42519  22.078  44.878  14.807
74047W        W42520  20.105  30.970  10.631
74048W        W42521  21.658   7.386  14.278
74049W        W42522  16.792   4.409   3.286
74050W        W42523   2.274  27.570  13.420
74051W        W42524  17.750  22.178   2.371
74052W        W42525  19.140   7.396  11.047
74053W        W42526   8.165  19.067   1.777
74054W        W42527  36.850  44.332   1.695
74055W        W42528  31.051  42.809  11.572
74056W        W42529  16.234  40.531  10.439
74057W        W42530  16.595   3.767   3.203
74058W        W42531   8.773  41.897  14.304
74059W        W42532   4.742  21.069  14.915
74060W        W42533  27.664  37.454  14.837
74061W        W42534  35.444  22.514   4.686
74062W        W42535  31.968  13.737   2.329
74063W        W42536  37.018  25.570  10.513
74064W        W42537  22.057  25.104  10.063
74065W        W42538   9.663  31.103  11.108
74066W        W42539  10.197  11.326  13.314
74067W        W42540  21.615  22.539  12.358
74068W        W42541  24.134  32.626   2.299
74069W        W42542  28.554  30.504  12.392
74070W        W42543  29.152  17.594   1.346
74071W        W42544  28.040  32.067   3.653
74072W        W42545   0.865  37.385   2.346
74073W        W42546   9.767  43.835   4.758
74074W        W42547  41.845  38.862  10.086
74075W        W42548  35.949  34.007  12.392
74076W        W42549   8.789   4.234  14.393
74077W        W42550  31.921  23.690   4.305
74078W        W42551   5.802   8.319   4.131
74079W        W42552  44.453  32.039  14.968
74080W        W42553  29.965   3.298  11.999
74081W        W42554  22.636  17.755   3.739
74082W        W42555  41.377   3.284  11.554
74083W        W42556  18.590   2.843   1.711
74084W        W42557   7.885   9.298   2.407
74085W        W42558  17.273  25.513  13.022
74086W        W42559  37.975  24.169   0.758
74087W        W42560  17.153  30.054   1.777
74088W        W42561  21.158  21.206  11.598
74089W        W42562  44.918   8.359   0.264
74090W        W42563   0.292  17.226  11.088
74091W        W42564  37.011  40.813   2.383
74092W        W42565  24.139  18.196   0.923
74093W        W42566  27.676  44.773   0.251
74094W        W42567  12.676  12.631   3.370
74095W        W42568  22.089   2.286  10.561
74096W        W42569  37.061  36.565   0.384
74097W        W42570  41.349  18.137  14.801
74098W        W42571  17.680  34.560  14.390
74099W        W42572  43.315  18.787   4.126
74100W        W42573  33.964  33.511  13.803
74101W        W42574  42.435  26.202   4.249
74102W        W42575   4.450  42.350   4.188
74103W        W42576  30.045  35.914  14.873
74104W        W42577   2.863  33.962   0.473
74105W        W42578   1.473  35.884   0.909
74106W        W42579   1.789  41.383   0.888
74107W        W42580  22.093  11.738  12.008
74108W        W42581  20.642  15.125   2.401
74109W        W42582  25.966   4.767  10.418
74110W        W42583  24.006   2.345  14.816
74111W        W42584  38.370  38.328   4.343
74112W        W42585   7.775  40.944   0.788
74113W        W42586  15.722  15.218   3.667
74114W        W42587  21.632   0.327   2.372
74115W        W42588   8.772  35.036  12.352
74116W        W42589  44.764  32.945  10.535
74117W        W42590  43.403  22.129  14.857
74118W        W42591  36.952  31.464   0.379
74119W        W42592  15.799   2.818  12.561
74120W        W42593  27.096  31.493  13.457
74121W        W42594  30.608   7.329   0.804
74122W        W42595  26.185   8.299  12.352
74123W        W42596  17.207   3.899   3.297
74124W        W42597  23.617  42.895   3.354
74125W        W42598   7.256   3.392   1.431
74126W        W42599   3.728  38.547   4.779
74127W        W42600  14.702  19.106  13.928
74128W        W42601  44.487   3.841   1.910
74129W        W42602  31.907   4.859  10.970
74130W        W42603  26.535  32.401   2.838
74131W        W42604   7.251  37.472  14.964
74132W        W42605   0.891  39.006   1.216
74133W        W42606  26.064  24.702   4.297
74134W        W42607  24.640  26.544  10.940
74135W        W42608  19.099  29.603  11.396
74136W        W42609  35.868  24.096  12.452
74137W        W42610   0.982  42.350  14.791
74138W        W42611  24.083  37.956  11.426
74139W        W42612  39.964   6.356  12.513
74140W        W42613  32.426  11.147   1.843
74141W        W42614   0.776  44.969  14.482
74142W        W42615   3.772  42.428   0.309
74143W        W42616   7.350  31.008  10.573
74144W        W42617  20.205  36.522  10.553
74145W        W42618  20.236  22.546  14.999
74146W        W42619  44.922  27.132   1.370
74147W        W42620  43.899  41.415  12.978
74148W        W42621  26.544  37.552  14.894
74149W        W42622  28.583  24.104   2.714
74150W        W42623  16.635  30.068  12.875
74151W        W42624  28.097  35.013  14.936
74152W        W42625  22.050  41.946   4.143
74153W        W42626  25.072  17.066   2.890
74154W        W42627  22.537  42.870   3.227
74155W        W42628  43.995  36.050   0.302
74156W        W42629  33.938   9.263  13.371
74157W        W42630  25.652  14.711  12.374
74158W        W42631  18.593   9.828  14.414
74159W        W42632  13.789  14.113  13.012
74160W        W42633  33.615  22.029   4.178
74161W        W42634   2.771   9.375   0.923
74162W        W42635  20.074   2.383  12.505
74163W        W42636   9.202  14.744   2.382
74164W        W42637  19.675  37.871  13.866
74165W        W42638   7.768  38.829  12.514
74166W        W42639  37.490  26.044   4.335
74167W        W42640  44.821  22.179   3.636
74168W        W42641   1.876   7.705  12.371
74169W        W42642  21.042  20.187   1.855
74170W        W42643  35.032  44.377  14.992
74171W        W42644  44.985  25.687   4.674
74172W        W42645  44.448  39.886  13.995
74173W        W42646   4.903  14.308   3.861
74174W        W42647  22.543  19.107  10.486
74175W        W42648  36.853  36.896   0.887
74176W        W42649  23.622   7.733  14.018
74177W        W42650  41.918   8.699   1.906
74178W        W42651   2.742  22.690   0.764
74179W        W42652   0.960  19.659  10.942
74180W        W42653   6.755  17.741  11.419
74181W        W42654  42.894  39.842  11.011
74182W        W42655  12.192  39.055   4.608
74183W        W42656  11.818  40.539  12.834
74184W        W42657  36.970   8.395   3.274
74185W        W42658  19.637   0.387   2.827
74186W        W42659   4.740   2.406   0.457
74187W        W42660   1.777   0.444   3.727
74188W        W42661   8.160  24.212   3.857
74189W        W42662  40.829  31.055   0.242
74190W        W42663  28.938  19.073   3.166
74191W        W42664  34.063  43.020  13.912
74192W        W42665   1.770  35.985   0.357
74193W        W42666   7.244  42.780   4.240
74194W        W42667   1.940  29.469   0.726
74195W        W42668  40.872  32.927  10.567
74196W        W42669  28.671   0.248   0.436
74197W        W42670  36.948  39.969  13.012
74198W        W42671   8.889  11.732  12.951
74199W        W42672  12.794   3.265  11.056
74200W        W42673  14.606  14.735   2.319
74201W        W42674  13.175  44.976  11.129
74202W        W42675  43.020  14.133  14.006
74203W        W42676  30.014   7.791   3.804
74204W        W42677  12.840   7.857   2.671
74205W        W42678   0.792  32.072  10.957
74206W        W42679  27.516  41.459   1.694
74207W        W42680  40.894  42.812  11.379
74208W        W42681  11.222  44.379  14.917
74209W        W42682  43.493  17.147   0.906
74210W        W42683  29.973   8.336  13.429
74211W        W42684  23.539  25.474   0.467
74212W        W42685   1.801  23.622   4.315
74213W        W42686  17.130  23.554   0.909
74214W        W42687  19.281  43.394  11.956
74215W        W42688   3.341  13.308  13.805
74216W        W42689   7.366  22.075   1.785
74217W        W42690  14.732  16.204  14.304
74218W        W42691  36.412  38.035  11.890
74219W        W42692  29.956  20.250  11.568
74220W        W42693  37.978  25.175   5.297
74221W        W42694  10.274  41.440  14.287
74222W        W42695  17.151  25.962   1.927
74223W        W42696   8.725  25.205   1.857
74224W        W42697   8.211  36.433  14.984
74225W        W42698   6.318  33.574   2.847
74226W        W42699  23.626   4.725   1.771
74227W        W42700   9.369  15.593  10.470
74228W        W42701   0.851  23.071  14.496
74229W        W42702  43.336  27.678   4.117
74230W        W42703  27.097  35.985   3.855
74231W        W42704  17.624  28.641  14.005
74232W        W42705  42.830  29.591   0.404
74233W        W42706   9.874   5.731   0.315
74234W        W42707  44.445  20.748  11.479
74235W        W42708  22.074  38.055   0.895
74236W        W42709  43.443  40.493  10.056
74237W        W42710  41.911  37.380   2.680
74238W        W42711   0.825  21.108  12.875
74239W        W42712  40.804  36.946   3.719
74240W        W42713  32.436  35.594  14.432
74241W        W42714   5.774  44.421   1.298
74242W        W42715  24.658   0.921  14.393
74243W        W42716   3.313  20.263  14.394
74244W        W42717  40.852   7.314  10.619
74245W        W42718  20.744  39.831  11.892
74246W        W42719  30.109   6.319  14.779
74247W        W42720   4.260  44.883   2.761
74248W        W42721  35.087  28.936  11.444
74249W        W42722  30.497  18.644  13.491
74250W        W42723  30.487   3.928  12.399
74251W        W42724  18.586   2.394   3.809
74252W        W42725  15.268   0.984  13.421
74253W        W42726  37.018   0.922  13.349
74254W        W42727  26.525  33.475   2.352
74255W        W42728  28.058  43.445   0.339
74256W        W42729  38.464  25.002  10.490
74257W        W42730  24.566  34.557  13.507
74258W        W42731  26.086  43.995   1.739
74259W        W42732  24.541  18.066   4.153
74260W        W42733  16.784  26.137  11.106
74261W        W42734  22.595   0.989   3.716
74262W        W42735  13.642  38.943   4.830
74263W        W42736  28.108  35.434   1.426
74264W        W42737  27.166  43.290   3.847
74265W        W42738  36.070   9.240   0.287
74266W        W42739  22.189  31.971  13.547
74267W        W42740   4.921  19.261   4.693
74268W        W42741  18.089  41.011   3.289
74269W        W42742  24.141  31.111   3.172
74270W        W42743  33.415   9.299  12.415
74271W        W42744   9.871  17.687  10.569
74272W        W42745  19.740  30.036   3.374
74273W        W42746  26.082  10.672  13.902
74274W        W42747   3.325  30.151  12.403
74275W        W42748  22.060  15.195   2.348
74276W        W42749  44.964  19.064   4.725
74277W        W42750   2.801   0.459  11.925
74278W        W42751   9.324  10.728  13.420
74279W        W42752  22.676  22.065   0.336
74280W        W42753  25.478  17.150  13.484
74281W        W42754   0.832  28.133   0.736
74282W        W42755   4.251  23.205   4.253
74283W        W42756  40.549  40.383  13.470
74284W        W42757  25.654  35.006  13.962
74285W        W42758  30.610   6.888  13.441
74286W        W42759  34.958  31.528  11.542
74287W        W42760  28.525   8.671   0.323
74288W        W42761  13.342  18.656   3.176
74289W        W42762  34.514   6.876   2.779
74290W        W42763  42.465  10.682  10.553
74291W        W42764  28.959  41.530   2.757
74292W        W42765   4.407  22.527  14.811
74293W        W42766  23.707  29.464   2.309
74294W        W42767   6.913  19.574   3.323
74295W        W42768   7.216  20.745   1.448
74296W        W42769   9.846   9.755   4.267
74297W        W42770  10.196  38.961  13.377
74298W        W42771   1.745  43.509   4.608
74299W        W42772   8.323   1.279  14.818
74300W        W42773   1.272  38.534  14.765
74301W        W42774  17.130   9.693   4.835
74302W        W42775  14.816  41.991   2.351
74303W        W42776  42.479   9.874   0.367
74304W        W42777  44.368  41.017  12.974
74305W        W42778  31.970  10.184   0.824
74306W        W42779  26.531  44.319   3.683
74307W        W42780  26.021   1.950   3.821
74308W        W42781  37.521   6.420   2.330
74309W        W42782  10.297   2.807   1.408
74310W        W42783  19.634  38.066   0.864
74311W        W42784  35.367   2.768   1.363
74312W        W42785   4.712  42.505  14.774
74313W        W42786  14.285  17.172   2.738
74314W        W42787  17.287  33.417   4.809
74315W        W42788  19.220   1.355  14.763
74316W        W42789   9.747  13.115   2.354
74317W        W42790  41.861  11.173  10.958
74318W        W42791  32.999  39.882   0.480
74319W        W42792  10.184   9.698  10.435
74320W        W42793   1.482   5.750   1.262
74321W        W42794   2.228  31.081   2.232
74322W        W42795   0.356  12.192  14.460
74323W        W42796  38.046   6.194   0.474
74324W        W42797  28.463  27.557   0.255
74325W        W42798  34.389  43.794  14.785
74326W        W42799   8.246  31.486  10.630
74327W        W42800   6.402  27.001   1.342
74328W        W42801  13.627  16.696  12.393
74329W        W42802   2.946  41.534   0.878
74330W        W42803  20.586  23.707  10.566
74331W        W42804  31.926  36.036   1.377
74332W        W42805  20.233  17.714   1.363
74333W        W42806  28.131  38.038   0.754
74334W        W42807  10.365  40.805  10.453
74335W        W42808  24.048  13.167   3.834
74336W        W42809   2.865  24.613   3.739
74337W        W42810  20.050   5.392   4.679
74338W        W42811  17.641   4.252   3.377
74339W        W42812  38.855  31.904  10.994
74340W        W42813  34.592  33.563   4.207
74341W        W42814  40.537   3.428  11.441
74342W        W42815  23.662   1.389  13.389
74343W        W42816   5.312   1.473  13.494
74344W        W42817  30.440  15.704  14.009
74345W        W42818   2.768  20.619   1.910
74346W        W42819  34.389  20.563  10.994
74347W        W42820  15.195  26.956   3.260
74348W        W42821  39.511  24.679  12.364
74349W        W42822   9.695   9.820   3.778
74350W        W42823  33.417  10.288   4.213
74351W        W42824  27.158  12.248  12.351
74352W        W42825   0.406  21.165  13.846
74353W        W42826  23.630   0.975  10.604
74354W        W42827  16.745  28.165   4.734
74355W        W42828   5.932  19.132  11.421
74356W        W42829  30.115   5.348   3.266
74357W        W42830  37.408  16.676  13.823
74358W        W42831  32.905  33.491   3.791
74359W        W42832   4.750  33.523  11.507
74360W        W42833   7.868  11.146   1.299
74361W        W42834  18.185  37.014  12.910
74362W        W42835  22.107  11.762  11.596
74363W        W42836   7.270  25.168   4.266
74364W        W42837   4.941  41.043  11.535
74365W        W42838   6.886   1.242  14.321
74366W        W42839   6.383  21.195  12.889
74367W        W42840  41.833  43.372   4.745
74368W        W42841  20.055  40.003  11.907
74369W        W42842   7.202   2.348   0.364
74370W        W42843  40.801  11.201   2.234
74371W        W42844  19.253  31.931  14.976
74372W        W42845   8.680  14.658  13.395
74373W        W42846  19.685  23.043  10.587
74374W        W42847  27.585  24.592   2.244
74375W        W42848  27.615  41.870   4.680
74376W        W42849  16.083  41.905  11.919
74377W        W42850  18.587  41.836   0.479
74378W        W42851  14.121  11.754  14.760
74379W        W42852  17.611  44.293   2.335
74380W        W42853  40.548  44.363  12.015
74381W        W42854  26.685   1.252   5.595
74382W        W42855  30.038  39.930   3.839
74383W        W42856   8.228  43.838   3.768
74384W        W42857  40.903  16.707   3.718
74385W        W42858  13.275  43.328  10.902
74386W        W42859   7.232  25.067   2.205
74387W        W42860   6.318  13.777  10.454
74388W        W42861  33.904  32.612   1.852
74389W        W42862  33.913   5.210   0.276
74390W        W42863  26.629  44.798  11.116
74391W        W42864  27.611  42.948   4.795
74392W        W42865  16.782  20.689   1.222
74393W        W42866  43.353  18.571  13.946
74394W        W42867  19.097  16.667   1.861
74395W        W42868  39.351  44.919   1.348
74396W        W42869   8.897  16.660   3.354
74397W        W42870  28.009  38.849  10.462
74398W        W42871  35.952   3.295   2.882
74399W        W42872  30.640  20.526  14.787
74400W        W42873  17.282  37.979  13.393
74401W        W42874  19.116  21.033   1.250
74402W        W42875  42.373  38.548   2.238
74403W        W42876  38.394   3.743   1.707
74404W        W42877  17.754  21.689  11.048
74405W        W42878   8.892   2.761  13.477
74406W        W42879   4.832  29.650  14.847
74407W        W42880   4.867   4.931  10.417
74408W        W42881  42.938  40.320  14.909
74409W        W42882  36.975   7.733  10.553
74410W        W42883  30.021  18.219   2.743
74411W        W42884  35.960  33.878   0.837
74412W        W42885  26.461  23.015  13.392
74413W        W42886   1.911  22.109   3.384
74414W        W42887  41.819  41.322   0.275
74415W        W42888   8.683  44.006  12.547
74416W        W42889  43.418  17.073  13.962
74417W        W42890   8.333  19.158   2.292
74418W        W42891  34.489  22.995  11.059
74419W        W42892   7.335  19.086   0.913
74420W        W42893  28.532  43.765   3.649
74421W        W42894  28.104  12.627  10.555
74422W        W42895  15.633  11.337   2.338
74423W        W42896  16.600   1.947  13.022
74424W        W42897  11.705  43.369  14.975
74425W        W42898  35.921  24.099   3.291
74426W        W42899   1.941   4.938   2.678
74427W        W42900   9.879  12.136  14.398
74428W        W42901  40.348   7.890   1.304
74429W        W42902  34.579  10.244  14.006
74430W        W42903  32.425   9.162  12.907
74431W        W42904   9.799   5.389  12.891
74432W        W42905  41.345   5.240   1.336
74433W        W42906  34.515   8.196  13.943
74434W        W42907  13.675  37.027   1.299
74435W        W42908   9.853  36.373  11.386
74436W        W42909  28.476  39.386   0.827
74437W        W42910  23.215  42.940  13.035
74438W        W42911  32.037   6.255  13.011
74439W        W42912  24.203  10.369   5.227
74440W        W42913  10.369   5.322   4.147
74441W        W42914   3.881  25.140  11.920
74442W        W42915  42.946  31.512   0.839
74443W        W42916  15.204  37.966  12.435
74444W        W42917  16.177  23.574  12.857
74445W        W42918  25.529  14.241   3.324
74446W        W42919  44.839  17.189  14.025
74447W        W42920  24.184  36.996   1.696
74448W        W42921  40.308  37.023  13.421
74449W        W42922  41.787  22.076   2.818
74450W        W42923  18.293  29.005   3.771
74451W        W42924  23.499   8.169  11.949
74452W        W42925  25.481  21.581  13.419
74453W        W42926  44.458  25.616  12.429
74454W        W42927  43.496  30.931   3.263
74455W        W42928  11.261  10.208  12.863
74456W        W42929   5.775  32.043  13.828
74457W        W42930  15.112  11.161  11.566
74458W        W42931   1.398   2.932   3.256
74459W        W42932  20.603  37.870  14.436
74460W        W42933  26.100  26.123   1.309
74461W        W42934  44.484  23.221  13.044
74462W        W42935  33.410   8.760   9.956
74463W        W42936  11.630  36.510  11.914
74464W        W42937   6.701  24.606   1.388
74465W        W42938  18.615  23.646   3.692
74466W        W42939   4.338  38.469  12.846
74467W        W42940  14.727   3.771   3.325
74468W        W42941  27.674  33.935  13.383
74469W        W42942  35.419   8.397   2.273
74470W        W42943   0.877  22.610   5.191
74471W        W42944  15.259  22.076  11.562
74472W        W42945  44.378  11.203   2.314
74473W        W42946   2.818  28.068   2.707
74474W        W42947  14.162   0.416   0.846
74475W        W42948   3.737   4.253   1.886
74476W        W42949   8.681  17.706   4.256
74477W        W42950  44.405  33.896   4.756
74478W        W42951   3.894  17.253   1.390
74479W        W42952  33.602  43.942   0.468
74480W        W42953  23.001   1.905  12.049
74481W        W42954  18.097  41.415  11.096
74482W        W42955   0.810  11.240   3.690
74483W        W42956  29.466  22.595  11.863
74484W        W42957  32.437  10.649  11.575
74485W        W42958   0.854  29.479   2.804
74486W        W42959  38.535  13.186   1.231
74487W        W42960  31.021   9.664  14.875
74488W        W42961   1.737  43.360   4.215
74489W        W42962  35.600  28.566   4.302
74490W        W42963  30.617  34.404  13.427
74491W        W42964  18.103  18.737   2.800
74492W        W42965  40.822   9.654   4.622
74493W        W42966  39.533   1.943   0.412
74494W        W42967   9.800  30.499  13.058
74495W        W42968  10.776  11.350  12.030
74496W        W42969   2.842  36.588   4.119
74497W        W42970  20.193   1.827   4.629
74498W        W42971   4.869  25.591   3.671
74499W        W42972  12.648  20.056  10.477
74500W        W42973  42.022  20.209   1.761
74501W        W42974  23.177  20.201  10.554
74502W        W42975  21.098  15.585   9.942
74503W        W42976  25.488  17.074   2.218
74504W        W42977  17.227  18.077   3.847
74505W        W42978   0.287   1.314   1.444
74506W        W42979  32.095  15.717  14.874
74507W        W42980  44.984  33.885  10.503
74508W        W42981  13.119   7.891  14.763
74509W        W42982  38.954  43.398   1.293
74510W        W42983   3.323  26.952   0.260
74511W        W42984  28.013  32.500   1.256
74512W        W42985  19.045   8.298  10.468
74513W        W42986  12.340  43.275   2.886
74514W        W42987   8.369  39.990  13.967
74515W        W42988   4.872  13.139   4.300
74516W        W42989  25.496   2.231  14.865
74517W        W42990  40.032  36.538   0.419
74518W        W42991  38.945   3.925  14.450
74519W        W42992  31.900  31.077  11.537
74520W        W42993  27.967  32.999   3.293
74521W        W42994  27.460  20.715   3.366
74522W        W42995   2.461  34.578   3.159
74523W        W42996  26.091  30.935  14.854
74524W        W42997   6.325  44.001  14.488
74525W        W42998   6.801  41.975   2.251
74526W        W42999  17.762  27.030  10.910
74527W        W43000  19.105  20.551  13.976
74528W        W43001  42.421  19.204  12.357
74529W        W43002   0.935  17.148   9.944
74530W        W43003  10.686  39.875  11.597
74531W        W43004  20.599  31.897   0.935
74532W        W43005  34.966   4.836  12.459
74533W        W43006  33.110  44.282  12.463
74534W        W43007  32.069  20.094   3.200
74535W        W43008  17.676  21.529  14.945
74536W        W43009  38.950  23.604  13.018
74537W        W43010  23.634  34.887   1.742
74538W        W43011  42.389  14.812   3.255
74539W        W43012   4.331  26.152   2.372
74540W        W43013  37.561  27.515  13.914
74541W        W43014  20.704  26.207  12.571
74542W        W43015  44.832  18.619   1.743
74543W        W43016  18.229  40.458  11.932
74544W        W43017   8.670  41.972   5.167
74545W        W43018  32.561  10.765  14.280
74546W        W43019  37.406  12.854   2.322
74547W        W43020   5.321  37.962  11.907
74548W        W43021  30.051  19.643  11.000
74549W        W43022  14.733  40.973   0.351
74550W        W43023  25.646  11.260  11.073
74551W        W43024   6.707   7.405  13.379
74552W        W43025  36.591  23.558  10.470
74553W        W43026  10.322  12.734   4.255
74554W        W43027  22.648  24.225   3.660
74555W        W43028  13.763  34.497   1.418
74556W        W43029  15.156   1.361   2.197
74557W        W43030   2.830  33.934  14.840
74558W        W43031  41.854   3.954   4.695
74559W        W43032  31.026  44.277  13.509
74560W        W43033   0.439  27.662  14.431
74561W        W43034  20.690   8.699  12.061
74562W        W43035  39.323  22.179  10.619
74563W        W43036  43.418  35.872  12.481
74564W        W43037  10.328  13.800  10.993
74565W        W43038  14.107  13.111   0.857
74566W        W43039  30.024  43.279  14.908
74567W        W43040  38.992  30.056   3.778
74568W        W43041  15.122  35.001  11.010
74569W        W43042  34.900  24.012  12.518
74570W        W43043  43.366  28.009   4.695
74571W        W43044  15.710  17.678   4.692
74572W        W43045  36.369  32.501  14.326
74573W        W43046  25.610  26.103  14.431
74574W        W43047  10.659  22.718  11.530
74575W        W43048  12.198  32.430  12.995
74576W        W43049  32.059  42.302   3.268
74577W        W43050   8.360  27.052  12.467
74578W        W43051  22.712  39.436  13.340
74579W        W43052  19.176  33.889   1.338
74580W        W43053  24.994  36.899  12.378
74581W        W43054  38.377  33.962  13.048
74582W        W43055  19.251   5.317   4.299
74583W        W43056   8.382  36.021  12.461
74584W        W43057  30.157   9.374  13.478
74585W        W43058  36.478  34.943  13.042
74586W        W43059  44.295   8.741   4.257
74587W        W43060  19.242   9.818  12.385
74588W        W43061  13.714  38.341   2.827
74589W        W43062  39.868  31.018  12.475
74590W        W43063  26.657  26.512   0.423
74591W        W43064  17.280  39.969  14.922
74592W        W43065  24.112   5.702   3.284
74593W        W43066  34.469  38.928  10.509
74594W        W43067  21.681  31.989  13.831
74595W        W43068  27.043  16.239   1.344
74596W        W43069  43.276  25.472   4.197
74597W        W43070  44.466   1.915  11.498
74598W        W43071  23.549  43.294  10.888
74599W        W43072   4.857   6.859  12.857
74600W        W43073  43.999  29.446   2.362
74601W        W43074  18.147  11.224   1.336
74602W        W43075  27.576  14.792   2.219
74603W        W43076   0.801  42.845  12.943
74604W        W43077  36.052  28.033   0.324
74605W        W43078   8.174   8.698   0.332
74606W        W43079  17.557  22.649  12.534
74607W        W43080  18.150  34.602   3.323
74608W        W43081  37.999  25.041  12.393
74609W        W43082  41.365  21.743  14.885
74610W        W43083  39.063   2.849   0.730
74611W        W43084  12.164  39.418   4.704
74612W        W43085   7.355  23.024   3.711
74613W        W43086   1.297  18.222  13.952
74614W        W43087  35.494  11.719  11.394
74615W        W43088   3.236  44.452   4.828
74616W        W43089  18.764  35.553   2.353
74617W        W43090  42.851   8.744   9.943
74618W        W43091  41.412  40.835   3.261
74619W        W43092   9.280  18.586  13.451
74620W        W43093  20.734  29.974  11.528
74621W        W43094  25.077  33.058  13.959
74622W        W43095   9.834  21.527  10.494
74623W        W43096  26.582   7.394   3.274
74624W        W43097  12.696  18.145   2.365
74625W        W43098  20.153  10.346   4.257
74626W        W43099  31.957  20.718   0.443
74627W        W43100  18.634   2.424   2.700
74628W        W43101  39.550  15.246   1.330
74629W        W43102  35.567  44.757   4.624
74630W        W43103   7.803  23.620   5.135
74631W        W43104  37.382  37.951  14.324
74632W        W43105  24.006  16.221  11.573
74633W        W43106  21.054  30.030   1.276
74634W        W43107  27.660  31.439  13.794
74635W        W43108   5.715  23.093  14.969
74636W        W43109  39.960  37.494  13.395
74637W        W43110  30.515  20.260  11.394
74638W        W43111   2.816  22.714  14.306
74639W        W43112  10.281  37.574   9.990
74640W        W43113   3.736  43.842  10.585
74641W        W43114  41.031  15.089  13.848
74642W        W43115  31.910  27.960  12.489
74643W        W43116  35.524  41.296   1.848
74644W        W43117  36.383  17.155  12.961
74645W        W43118  12.669  39.549   1.300
74646W        W43119  39.353  17.555  12.895
74647W        W43120  41.403  19.189   4.686
74648W        W43121  10.288   0.268  11.539
74649W        W43122   9.366  24.672   2.716
74650W        W43123  12.791  27.021   0.419
74651W        W43124  37.537  31.136   4.729
74652W        W43125   6.196  41.537  11.893
74653W        W43126  21.717   0.978  13.496
74654W        W43127  35.920  17.561  14.825
74655W        W43128  32.913  39.339   4.746
74656W        W43129   0.368  42.975  14.013
74657W        W43130  12.723  37.835  13.330
74658W        W43131  11.271  34.392  12.359
74659W        W43132  18.700   1.829   3.350
74660W        W43133   5.915  31.560  11.902
74661W        W43134  11.822  30.561  10.404
74662W        W43135  20.582  23.690  12.964
74663W        W43136  25.506  22.618  10.004
74664W        W43137  30.565   8.711  12.027
74665W        W43138   3.901  25.643   4.602
74666W        W43139  38.993  17.243  14.843
74667W        W43140  18.209   8.834   3.331
74668W        W43141  16.206  34.111   1.775
74669W        W43142  38.040  29.044   0.245
74670W        W43143  10.670  20.537   2.821
74671W        W43144   7.835  20.723   1.385
74672W        W43145   5.884  35.592  13.912
74673W        W43146  22.732   0.493   4.673
74674W        W43147  37.049  31.048  11.023
74675W        W43148  11.305  11.862  11.430
74676W        W43149  33.601   0.433   1.842
74677W        W43150   5.406  37.516  12.523
74678W        W43151  14.249  43.505   4.702
74679W        W43152  21.234  10.783  12.347
74680W        W43153  42.028  44.805   4.598
74681W        W43154   7.183  19.678   5.175
74682W        W43155   9.162  24.149  11.605
74683W        W43156  39.958  23.013   4.265
74684W        W43157  14.741  42.820  14.301
74685W        W43158  31.902  26.975  10.931
74686W        W43159  16.087  25.013   2.392
74687W        W43160  39.460  31.522   4.327
74688W        W43161  10.848  38.906  12.374
74689W        W43162  11.654  22.140   2.382
74690W        W43163  16.174  16.189   1.909
74691W        W43164  32.117  17.123   4.637
74692W        W43165   4.394  16.584  11.517
74693W        W43166  15.809   8.897   3.283
74694W        W43167  29.548  20.243  12.920
74695W        W43168  15.732   6.378   0.753
74696W        W43169  41.501  33.432   1.289
74697W        W43170  41.398  10.179   4.200
74698W        W43171  29.108  34.379   2.722
74699W        W43172   9.151  38.959   4.179
74700W        W43173  18.730  43.295  13.498
74701W        W43174  23.127  18.285  12.400
74702W        W43175   6.393   6.808  10.047
74703W        W43176  31.438  12.201  14.479
74704W        W43177   0.281   9.685   4.760
74705W        W43178  34.871  37.489  13.867
74706W        W43179  18.124  18.296   1.718
74707W        W43180  11.812   2.396  11.414
74708W        W43181  20.524   6.273  11.115
74709W        W43182  33.132  41.866   1.288
74710W        W43183   7.242  26.511  14.981
74711W        W43184   4.810  42.458   0.771
74712W        W43185   0.278  10.653   3.285
74713W        W43186  33.940   3.795   4.252
74714W        W43187  27.541  30.159  14.469
74715W        W43188  12.178  27.609  10.962
74716W        W43189  35.455  33.445   4.819
74717W        W43190  25.648  28.476  10.455
74718W        W43191  37.899  15.670  12.557
74719W        W43192  12.154  42.457   2.221
74720W        W43193  35.447  10.146  12.567
74721W        W43194  11.263   8.848   0.855
74722W        W43195  34.463   3.854  13.887
74723W        W43196  11.342  37.452   0.791
74724W        W43197  33.408  38.957  11.485
74725W        W43198  44.280  13.134  13.382
74726W        W43199  14.131  34.050   0.917
74727W        W43200  34.988   7.358   2.249
74728W        W43201  19.538   4.264   2.732
74729W        W43202  25.521   3.372   0.408
74730W        W43203  12.639  10.717   4.685
74731W        W43204   7.794  37.423  13.927
74732W        W43205  20.530  26.675   4.711
74733W        W43206  44.908  11.860   4.642
74734W        W43207   9.694  33.397  14.922
74735W        W43208  20.762   2.761  11.403
74736W        W43209   8.284  17.630   0.483
74737W        W43210  42.333   7.209   0.298
74738W        W43211   1.945  15.613  14.883
74739W        W43212   9.393  22.695   4.205
74740W        W43213  41.034  14.649  11.095
74741W        W43214  25.533  22.094  13.889
74742W        W43215  39.011  21.130  11.612
74743W        W43216  44.819  27.970  13.979
74744W        W43217   8.695  39.507  14.292
74745W        W43218  18.199   2.255   0.384
74746W        W43219  12.318   9.208  14.453
74747W        W43220  32.398  15.621   3.788
74748W        W43221  25.095  13.661   3.146
74749W        W43222  19.129  43.868  12.394
74750W        W43223  14.763  29.501   3.269
74751W        W43224   1.298  16.153  13.511
74752W        W43225  12.361  23.494   2.376
74753W        W43226   5.689  23.103  12.894
74754W        W43227  41.975  40.928   0.781
74755W        W43228  34.406  34.369   0.398
74756W        W43229  43.945  32.426  14.453
74757W        W43230  43.781  34.611  13.388
74758W        W43231  23.660  30.625   2.749
74759W        W43232  28.592  39.374  10.969
74760W        W43233  14.632  44.389   0.925
74761W        W43234  22.196  38.387   2.280
74762W        W43235  10.327  37.890  11.438
74763W        W43236  24.558  20.082   0.915
74764W        W43237  13.134  27.146   4.686
74765W        W43238  21.224  38.845   1.280
74766W        W43239   7.221  32.094   5.112
74767W        W43240  36.574  24.505   4.603
74768W        W43241  31.990  22.720  10.640
74769W        W43242  35.025  39.036   1.764
74770W        W43243   8.171  41.859   3.364
74771W        W43244   7.721  43.475   4.314
74772W        W43245   2.337  19.224   2.763
74773W        W43246  25.497   8.876   0.282
74774W        W43247   5.718  43.471  10.529
74775W        W43248  16.263   9.392   2.262
74776W        W43249  18.759  38.058  10.904
74777W        W43250  15.126   1.956   0.319
74778W        W43251  30.487  17.710   4.835
74779W        W43252  21.032  19.575  10.935
74780W        W43253  37.960  15.248  10.911
74781W        W43254   9.704  28.450   1.749
74782W        W43255  23.712  14.633  13.936
74783W        W43256   6.291  43.353  11.965
74784W        W43257  33.595  33.074   9.982
74785W        W43258  33.890  13.236   0.815
74786W        W43259  20.596   3.220   1.722
74787W        W43260  12.694  21.054  10.519
74788W        W43261  34.376  16.135  14.991
74789W        W43262  19.681  39.863  13.533
74790W        W43263   2.723  11.269  11.900
74791W        W43264  37.346  16.309   4.604
74792W        W43265  19.578  32.096  12.091
74793W        W43266  26.989  12.681  12.952
74794W        W43267  20.162  17.187   1.270
74795W        W43268   1.734  13.206   3.768
74796W        W43269  32.923  17.229   2.834
74797W        W43270  35.385  38.030   4.165
74798W        W43271   0.480  38.032  13.888
74799W        W43272  23.629  13.616   0.274
74800W        W43273  41.010   9.721  10.491
74801W        W43274  29.011  33.035   3.806
74802W        W43275  34.400  17.118   1.718
74803W        W43276  38.822  11.151   0.882
74804W        W43277  38.467  44.330  14.329
74805W        W43278  29.645   1.291   4.164
74806W        W43279   4.268  39.523   3.696
74807W        W43280  36.076  27.106   3.728
74808W        W43281  36.477  10.269  14.960
74809W        W43282  25.637  23.142  11.592
74810W        W43283  24.074   2.791  13.903
74811W        W43284  44.371  41.448  10.405
74812W        W43285  29.490  43.491   0.332
74813W        W43286   8.189  37.902   3.195
74814W        W43287  40.455  37.561  14.294
74815W        W43288  42.791   4.932   0.264
74816W        W43289  44.318  31.640  14.285
74817W        W43290  30.945  12.689   4.325
74818W        W43291   6.233  35.586  13.934
74819W        W43292  27.467  32.421   1.439
74820W        W43293  25.202  10.293  13.820
74821W        W43294   7.772  32.524   2.220
74822W        W43295  35.405   4.760   1.782
74823W        W43296   8.800   5.390  14.820
74824W        W43297  35.037  26.969   1.445
74825W        W43298  43.420  33.041   1.339
74826W        W43299  40.415  26.491  10.035
74827W        W43300  20.050   6.349   2.815
74828W        W43301   8.828   1.301   2.338
74829W        W43302  38.999  22.642   0.960
74830W        W43303  31.487   3.768   4.285
74831W        W43304  11.837  19.671   5.236
74832W        W43305  27.469  44.996  13.981
74833W        W43306   9.794  23.634   2.278
74834W        W43307  14.293  35.416   4.671
74835W        W43308   2.258  41.346  11.443
74836W        W43309  38.990  30.124  10.618
74837W        W43310  10.252  35.045  13.534
74838W        W43311   0.819  38.363   0.876
74839W        W43312  17.247  37.045  14.419
74840W        W43313  11.695   7.384  12.017
74841W        W43314  11.372  32.126   4.785
74842W        W43315  33.015  32.410   2.334
74843W        W43316   4.734  19.761  12.370
74844W        W43317  23.523  14.303  10.062
74845W        W43318   7.182  34.570  12.048
74846W        W43319  34.593  19.151   2.798
74847W        W43320  26.657  34.013   0.730
74848W        W43321  18.568  25.476  12.574
74849W        W43322  30.476  22.581  10.549
74850W        W43323   9.333  29.518   3.251
74851W        W43324  32.497  41.430  11.043
74852W        W43325   9.186  38.926  14.002
74853W        W43326  40.863   3.357  12.909
74854W        W43327  19.253   4.402   2.891
74855W        W43328   5.896   7.235   4.648
74856W        W43329  31.407  39.497   1.415
74857W        W43330  40.906   7.870  12.947
74858W        W43331  28.055  11.279   3.322
74859W        W43332  26.614   7.736   4.219
74860W        W43333  26.667   8.239   1.913
74861W        W43334  29.925   0.798   3.241
74862W        W43335  42.523  16.719  10.546
74863W        W43336   4.366  44.265  11.536
74864W        W43337  26.521  43.001  12.368
74865W        W43338  43.499  28.626   2.741
74866W        W43339  27.965  31.453   2.723
74867W        W43340  26.117  26.996   0.864
74868W        W43341  22.142  42.921  11.070
74869W        W43342  24.630  32.039   4.678
74870W        W43343  20.050  17.735   2.268
74871W        W43344  36.441   6.850   0.386
74872W        W43345  32.102  14.595  11.611
74873W        W43346  44.479  22.244   5.197
74874W        W43347   8.825  40.798  12.055
74875W        W43348  39.543  29.449   1.892
74876W        W43349  28.626   4.783   4.660
74877W        W43350  32.483   0.352   3.706
74878W        W43351   6.351  35.394   4.640
74879W        W43352  40.548  36.530  12.497
74880W        W43353  17.190   0.440   3.270
74881W        W43354   3.399  43.921   1.825
74882W        W43355   8.853  22.669   2.233
74883W        W43356   3.432  30.969   4.323
74884W        W43357  44.887   5.739  14.415
74885W        W43358  37.024  40.859  14.906
74886W        W43359  12.633  24.660   4.827
74887W        W43360  13.766  28.483   3.329
74888W        W43361  43.850  36.571  14.988
74889W        W43362  30.528  21.679   4.626
74890W        W43363  24.536  38.035  12.950
74891W        W43364   3.220  31.123  11.887
74892W        W43365  11.743  24.505   3.632
74893W        W43366  38.517  35.458   3.173
74894W        W43367  35.055  11.324   1.446
74895W        W43368  16.183  30.148   1.750
74896W        W43369  31.056  20.118   4.806
74897W        W43370  35.981  15.714  10.564
74898W        W43371   0.922  13.706  12.463
74899W        W43372  43.438  37.014  12.420
74900W        W43373  42.971  15.178   1.713
74901W        W43374  11.703  27.572  13.799
74902W        W43375  19.728  24.190  13.428
74903W        W43376  26.039  13.187   3.683
74904W        W43377  28.011   5.881   3.309
74905W        W43378  19.202  38.402  11.523
74906W        W43379  24.518  16.680  10.899
74907W        W43380  37.908  33.622  12.937
74908W        W43381   9.379  31.575  11.041
74909W        W43382  10.384  33.517  14.817
74910W        W43383  11.214  31.643   0.437
74911W        W43384  38.494  26.203   4.668
74912W        W43385  31.566  29.961   0.964
74913W        W43386  41.440  33.483  13.051
74914W        W43387  13.243  31.127  11.440
74915W        W43388  43.909  32.473   3.171
74916W        W43389  34.603  39.454  12.914
74917W        W43390  15.232  28.675   4.794
74918W        W43391  30.580  22.072   0.742
74919W        W43392  31.940  30.990   3.336
74920W        W43393  41.518  34.499  12.505
74921W        W43394  31.992  27.549   1.451
74922W        W43395  22.137  35.924   3.276
74923W        W43396  43.409  44.954   3.371
74924W        W43397  10.331  27.126  11.926
74925W        W43398   9.765  25.525  13.487
74926W        W43399  43.849  22.519  12.929
74927W        W43400  31.098  29.029   3.183
74928W        W43401  12.325  25.677  11.977
74929W        W43402  20.148  44.329   9.949
74930W        W43403  16.610   0.864   3.762
74931W        W43404   6.717  24.075   2.338
74932W        W43405  44.920   0.344  13.053
74933W        W43406  13.775   8.752   0.932
74934W        W43407  29.635  28.966  10.079
74935W        W43408  14.618  44.946   1.316
74936W        W43409   7.853  18.604  10.931
74937W        W43410  26.020  17.133   2.728
74938W        W43411   0.248  37.036   3.206
74939W        W43412  34.078  18.595  11.385
74940W        W43413  25.494   6.893  12.964
74941W        W43414  26.680  19.561   0.793
74942W        W43415  40.005  37.883  11.885
74943W        W43416   0.984  19.741  12.924
74944W        W43417  24.478  10.795   1.706
74945W        W43418  22.604   2.341  14.906
74946W        W43419  38.002  38.413  12.881
74947W        W43420  27.977  44.396   1.898
74948W        W43421  42.327   2.391  10.578
74949W        W43422  31.046  25.102   2.371
74950W        W43423  44.872   1.959   2.770
74951W        W43424  21.743  37.836  10.429
74952W        W43425  38.539  17.287   3.800
74953W        W43426  38.955  15.148  14.937
74954W        W43427  16.780   2.410  12.945
74955W        W43428  40.906  11.141   1.912
74956W        W43429  21.112  19.680  11.984
74957W        W43430  25.555  20.617   0.396
74958W        W43431  19.121   1.378   4.809
74959W        W43432   5.694  33.075  12.908
74960W        W43433  20.586  15.793   1.916
74961W        W43434  40.427  17.720   4.635
74962W        W43435  14.797  11.335   2.803
74963W        W43436  41.849  32.528  11.520
74964W        W43437  19.046  10.154  11.566
74965W        W43438  13.718  19.573   3.312
74966W        W43439  21.646  37.454  12.967
74967W        W43440   7.334  33.581  11.386
74968W        W43441   8.310  23.126   1.922
74969W        W43442  44.784   6.315   3.268
74970W        W43443  14.759  11.760  14.354
74971W        W43444  34.451   9.269  10.602
74972W        W43445   7.874  17.229  13.934
74973W        W43446  17.230  44.373   2.715
74974W        W43447  31.512  13.172   3.228
74975W        W43448   8.801  35.939   5.131
74976W        W43449  30.981  38.504   0.263
74977W        W43450  18.609  39.056   2.342
74978W        W43451  36.993  12.760   2.709
74979W        W43452  13.613  16.298  13.013
74980W        W43453  43.999  13.648   3.757
74981W        W43454  36.466  28.487   0.941
74982W        W43455   7.690  34.917   4.297
74983W        W43456  32.566  42.335  13.963
74984W        W43457  35.937  38.895  10.642
74985W        W43458  28.511  19.557   3.694
74986W        W43459  39.924  32.580   1.862
74987W        W43460   1.240  30.609   4.659
74988W        W43461  39.993  11.640   4.166
74989W        W43462   8.852  38.892   0.343
74990W        W43463   6.361  38.834   4.184
74991W        W43464  28.057  40.368  13.830
74992W        W43465  13.770  18.179  10.985
74993W        W43466  15.308  25.665  12.392
74994W        W43467  38.022  32.467  13.825
74995W        W43468   7.209  22.691   0.899
74996W        W43469  36.907  43.840   0.428
74997W        W43470   5.882   2.412  11.562
74998W        W43471  15.264  39.372   0.419
74999W        W43472  30.080  41.826  13.517
75000W        W43473  23.040  16.579   2.745
75001W        W43474  21.056  18.649  11.067
75002W        W43475  35.926  13.229  14.308
75003W        W43476  29.111   4.699  11.412
75004W        W43477  13.804  37.421   2.265
75005W        W43478  33.389   9.350   2.751
75006W        W43479   3.280  34.991  11.980
75007W        W43480  25.184  13.285   4.667
75008W        W43481   0.792  32.548   2.243
75009W        W43482  31.546  32.493  11.057
75010W        W43483  31.007  29.152   2.734
75011W        W43484  18.081   3.733   3.179
75012W        W43485  20.033  35.513  11.013
75013W        W43486  25.063  25.983  12.385
75014W        W43487  38.478  26.662  14.327
75015W        W43488   2.806  21.541   4.256
75016W        W43489   6.271  11.136   2.902
75017W        W43490  39.879  23.180  11.589
75018W        W43491  27.118  19.571  12.072
75019W        W43492  23.228  10.762  11.464
75020W        W43493  32.581  24.200   3.664
75021W        W43494  35.023  16.700   2.825
75022W        W43495  18.124  34.087  13.378
75023W        W43496  12.668   2.964  12.402
75024W        W43497  40.882  34.103  12.068
75025W        W43498  38.446   4.320  12.541
75026W        W43499  19.601  39.964   0.335
75027W        W43500  10.847  38.369   0.454
75028W        W43501  16.723  17.112   0.753
75029W        W43502   9.161   9.784   3.267
75030W        W43503  29.606  42.484  10.412
75031W        W43504  26.006  28.639  12.540
75032W        W43505  26.206  35.008  12.924
75033W        W43506   1.840   5.378  12.452
75034W        W43507  19.279  25.097  14.339
75035W        W43508  19.642  32.069  12.352
75036W        W43509  17.582  14.635  12.049
75037W        W43510  10.158   4.921  13.823
75038W        W43511  30.122  18.166   3.684
75039W        W43512  38.511  37.985  10.970
75040W        W43513  18.566  43.970  10.451
75041W        W43514  25.132  37.479   0.383
75042W        W43515  12.129  11.821  14.855
75043W        W43516  16.582  37.531   0.900
75044W        W43517  16.611  27.943   1.848
75045W        W43518  43.957  42.977   2.342
75046W        W43519  29.496  24.591   5.724
75047W        W43520  28.652  29.122  11.405
75048W        W43521  33.880  20.648   3.769
75049W        W43522  18.058   6.761  13.517
75050W        W43523  27.028  33.111  13.043
75051W        W43524   4.864  38.537  12.013
75052W        W43525  40.823  13.152   4.284
75053W        W43526  40.461  13.764   3.688
75054W        W43527  22.117   6.681   2.784
75055W        W43528   2.853  38.829  12.508
75056W        W43529  21.053  34.491  13.002
75057W        W43530  35.041  43.502  13.004
75058W        W43531  15.785   0.494  13.015
75059W        W43532  22.215   2.780   0.954
75060W        W43533  24.613   1.960  10.420
75061W        W43534  39.889   6.278   1.695
75062W        W43535  21.588  11.227   3.283
75063W        W43536  44.298  32.010  12.421
75064W        W43537  44.753  43.343   3.635
75065W        W43538   4.744  40.870  11.090
75066W        W43539  20.637   7.891   1.449
75067W        W43540   2.916  40.355  12.556
75068W        W43541  34.524   2.864   2.276
75069W        W43542  18.098  19.062  11.431
75070W        W43543  30.555  30.937   0.415
75071W        W43544  10.182  12.335   0.865
75072W        W43545  39.388  25.591   2.360
75073W        W43546  29.092  39.908  11.525
75074W        W43547  15.781   8.173  14.807
75075W        W43548  31.083   1.288   0.893
75076W        W43549  11.730  12.278   3.805
75077W        W43550  40.947  22.122   2.220
75078W        W43551   3.906  40.514  11.544
75079W        W43552   2.371  20.258   2.405
75080W        W43553  31.465   2.279   2.309
75081W        W43554  41.925  42.805   5.294
75082W        W43555  39.516  10.168   4.284
75083W        W43556  40.518  19.154   3.166
75084W        W43557  16.698  21.257  11.021
75085W        W43558  37.969   6.389  11.387
75086W        W43559  40.337  19.138  11.001
75087W        W43560  38.379  12.255  12.463
75088W        W43561   1.249  13.708   0.956
75089W        W43562  44.797  27.036   3.672
75090W        W43563  41.903  20.184  13.912
75091W        W43564  36.014   1.736  13.048
75092W        W43565  31.921  22.243  10.441
75093W        W43566  12.785  33.895  14.895
75094W        W43567  10.843  14.248  12.978
75095W        W43568  16.295   6.241   2.793
75096W        W43569  38.332  36.097   0.389
75097W        W43570  44.290   4.831  13.490
75098W        W43571  25.674  10.670  10.588
75099W        W43572  33.992   3.290   1.896
75100W        W43573  37.521  27.447   4.182
75101W        W43574  36.874   4.413  10.545
75102W        W43575  18.097  26.647   2.812
75103W        W43576  26.576  10.275  13.028
75104W        W43577  39.919  19.735  12.898
75105W        W43578  27.099  35.022   3.363
75106W        W43579  33.462  10.283  11.475
75107W        W43580  36.994  27.494  14.311
75108W        W43581   5.336  34.986  13.352
75109W        W43582  12.183  40.951  12.501
75110W        W43583  34.526  30.951   4.671
75111W        W43584   8.378   0.424  12.019
75112W        W43585   4.742  15.178   0.928
75113W        W43586  20.757  15.766  10.149
75114W        W43587  27.954  26.075   4.746
75115W        W43588  40.331   2.266  13.791
75116W        W43589  17.071   3.337  14.378
75117W        W43590  38.516  22.008   0.929
75118W        W43591  36.963  35.945   0.242
75119W        W43592  35.479  16.155   2.342
75120W        W43593  36.035  32.896  10.940
75121W        W43594  43.482  29.595  11.047
75122W        W43595  17.144  12.143   3.680
75123W        W43596   3.438  39.412  14.957
75124W        W43597  41.915  35.503  12.351
75125W        W43598  29.100  23.505  12.835
75126W        W43599  38.011  36.501   1.422
75127W        W43600  35.587  44.892   2.782
75128W        W43601   2.358  29.153   0.872
75129W        W43602  20.647  32.021   4.700
75130W        W43603  33.530  10.855   1.836
75131W        W43604  39.469  35.418  11.590
75132W        W43605  21.529  43.403  14.868
75133W        W43606  15.616  28.935   0.270
75134W        W43607  36.565  24.024  13.876
75135W        W43608  36.364   2.469  10.430
75136W        W43609  16.201  20.180  14.953
75137W        W43610  42.918  30.438  12.377
75138W        W43611  26.117   2.434   2.665
75139W        W43612   0.768   3.371   4.195
75140W        W43613  27.103  28.516  12.975
75141W        W43614  39.412  44.769  13.497
75142W        W43615  24.988  22.645  13.394
75143W        W43616  18.556   9.798   1.289
75144W        W43617   0.933  37.892  14.970
75145W        W43618  27.192  30.033   1.852
75146W        W43619  43.924  34.439  11.858
75147W        W43620  24.028   0.303   0.767
75148W        W43621  15.750   6.745  10.948
75149W        W43622  12.800  23.160  12.924
75150W        W43623  20.077   1.903   4.344
75151W        W43624   8.698  27.504   1.764
75152W        W43625  23.565  39.490  13.499
75153W        W43626  25.166   4.734   0.373
75154W        W43627  35.488  27.155  14.846
75155W        W43628  13.798  25.643   4.248
75156W        W43629  23.734  16.665   4.182
75157W        W43630  43.510  20.115   1.326
75158W        W43631  39.840   0.749  13.014
75159W        W43632   9.345   0.287  11.935
75160W        W43633   6.386  34.535  10.959
75161W        W43634  18.142  24.078   0.313
75162W        W43635  34.456  19.538   2.199
75163W        W43636  29.618  21.603  14.965
75164W        W43637  37.425  42.503  10.571
75165W        W43638  42.441   8.735  12.464
75166W        W43639  20.086  21.717  10.594
75167W        W43640  44.918  26.499   5.307
75168W        W43641  19.131  34.476  13.838
75169W        W43642  12.294   4.861  12.876
75170W        W43643   1.895  38.557   1.400
75171W        W43644  25.654  25.578  14.410
75172W        W43645  44.906  29.039   4.335
75173W        W43646  12.180  25.494  12.549
75174W        W43647  42.853  39.957  12.460
75175W        W43648  33.938   6.291   2.900
75176W        W43649  15.640  21.232   4.219
75177W        W43650   0.338  17.190   4.313
75178W        W43651   4.729  17.151   4.661
75179W        W43652  26.063  41.826   4.288
75180W        W43653  31.953  44.945   2.270
75181W        W43654   7.269  11.748  11.071
75182W        W43655  10.804  21.070   0.255
75183W        W43656  22.647  44.789   4.335
75184W        W43657  29.604  16.581   1.310
75185W        W43658  19.158   4.765   4.676
75186W        W43659   0.381  28.582   1.322
75187W        W43660   0.325  42.400  10.957
75188W        W43661  35.882  44.848   1.866
75189W        W43662  10.729  21.124  10.076
75190W        W43663  22.104  13.671  14.986
75191W        W43664   2.288   5.809  10.947
75192W        W43665  38.925   0.901   1.803
75193W        W43666  43.981  26.554  12.874
75194W        W43667  34.430  38.866   2.312
75195W        W43668   5.719  29.529   1.320
75196W        W43669  18.727  18.729  11.109
75197W        W43670   9.813  43.289   4.147
75198W        W43671  22.113  16.681   1.330
75199W        W43672  31.922  37.978  13.005
75200W        W43673  41.004  19.645   1.442
75201W        W43674   5.312  13.842  14.805
75202W        W43675   0.317  26.205   0.464
75203W        W43676  16.076  41.495   3.190
75204W        W43677  27.475  38.848  14.474
75205W        W43678  28.185  13.251   3.830
75206W        W43679  13.121  26.159   4.124
75207W        W43680  32.064  30.452   3.199
75208W        W43681  42.412  12.216   0.351
75209W        W43682  15.306   5.200   4.128
75210W        W43683  12.197  41.816   2.401
75211W        W43684  35.959   0.832  10.613
75212W        W43685  43.931   7.365   0.880
75213W        W43686   4.368   9.186   3.811
75214W        W43687  22.163  21.725   2.281
75215W        W43688  36.958  16.626   3.723
75216W        W43689  43.436  38.959   0.402
75217W        W43690  31.942  26.047  10.089
75218W        W43691  13.165  39.533   0.746
75219W        W43692  33.410  36.545  10.982
75220W        W43693  12.671   2.357   1.277
75221W        W43694  24.678  35.495   4.137
75222W        W43695   2.868  25.652  14.436
75223W        W43696   8.294  25.037  13.372
75224W        W43697  21.626  21.148  12.073
75225W        W43698  32.075  17.124  12.484
75226W        W43699  42.406   8.238  13.530
75227W        W43700  28.939  23.678   3.776
75228W        W43701  34.994  27.169  11.500
75229W        W43702  18.277  18.058   0.885
75230W        W43703  36.977   0.806   0.846
75231W        W43704  43.784  39.355  12.002
75232W        W43705  12.851  30.519   4.127
75233W        W43706  18.563  26.642   4.340
75234W        W43707   3.823  10.829   0.962
75235W        W43708  20.654  34.905  11.455
75236W        W43709  10.188  24.993   4.269
75237W        W43710   6.907  13.772  10.054
75238W        W43711  31.933  43.441   3.343
75239W        W43712  20.629  25.125  13.386
75240W        W43713  41.517  21.179   2.269
75241W        W43714  37.421  22.998   1.366
75242W        W43715  39.027  29.076  13.370
75243W        W43716  41.517   8.329   3.179
75244W        W43717  14.627  37.994   3.262
75245W        W43718  44.311  14.167  14.852
75246W        W43719  44.872  35.545   1.780
75247W        W43720  28.513  18.136   1.901
75248W        W43721  18.582  40.036  10.639
75249W        W43722  13.166  29.112   2.409
75250W        W43723   0.381  38.863   2.336
75251W        W43724   6.694   6.240   1.251
75252W        W43725  37.523  41.442  12.565
75253W        W43726  31.554  41.442  14.995
75254W        W43727   3.821  18.222   1.741
75255W        W43728  14.249  25.699   0.435
75256W        W43729  16.186  39.858  12.569
75257W        W43730  33.010  40.308  12.844
75258W        W43731  10.209  14.340  13.479
75259W        W43732  40.982  14.638  13.931
75260W        W43733  26.181  13.654   4.185
75261W        W43734   8.681  18.771  11.933
75262W        W43735  41.829   8.402  10.935
75263W        W43736  31.016  38.994   4.143
75264W        W43737  22.715  14.180  11.568
75265W        W43738  41.918  10.807  13.523
75266W        W43739  22.701  25.487   4.147
75267W        W43740  16.299  33.091  14.399
75268W        W43741   7.343  27.950  10.549
75269W        W43742  23.076  35.387   3.290
75270W        W43743  12.705  28.554  11.556
75271W        W43744   5.736  24.522  12.440
75272W        W43745  12.710  41.832  11.381
75273W        W43746   6.909   0.779  11.400
75274W        W43747  20.566   0.259  12.428
75275W        W43748  29.561   6.317   2.696
75276W        W43749  21.132  41.401  14.281
75277W        W43750  20.585  31.560  12.083
75278W        W43751  26.480   8.870  10.036
75279W        W43752   7.185  37.961  14.875
75280W        W43753  32.594  40.508  10.565
75281W        W43754  22.671   0.382   3.352
75282W        W43755  19.710  16.723   3.781
75283W        W43756  44.979   5.435   4.218
75284W        W43757   6.895   5.841  11.034
75285W        W43758   0.847  42.816   2.727
75286W        W43759  28.142  39.321   1.254
75287W        W43760  28.129  33.056   1.913
75288W        W43761  18.715   0.260  12.525
75289W        W43762  33.126   6.905  11.599
75290W        W43763  40.527  34.550  11.569
75291W        W43764  19.180  18.726   4.624
75292W        W43765  13.176   1.960  10.008
75293W        W43766  43.334   6.862   1.725
75294W        W43767  41.936  39.948  11.901
75295W        W43768  18.116  34.096   3.713
75296W        W43769  33.565  41.922   4.720
75297W        W43770  33.538  39.947   2.787
75298W        W43771   5.748   2.793  11.997
75299W        W43772  38.394  23.085  14.464
75300W        W43773  13.607  29.556  12.545
75301W        W43774  30.485  13.242  13.424
75302W        W43775  21.531   1.252   1.923
75303W        W43776  13.745  40.845  11.971
75304W        W43777  33.105  24.560   1.775
75305W        W43778  18.273  32.410   4.719
75306W        W43779  22.218   3.418   0.388
75307W        W43780  39.878  22.235  11.983
75308W        W43781  25.563  36.536   3.211
75309W        W43782  24.483   5.279  11.098
75310W        W43783  11.712  20.088   1.787
75311W        W43784  44.972  32.962   2.330
75312W        W43785   7.779   4.434   0.296
75313W        W43786  11.777  21.253  13.895
75314W        W43787  26.026  27.950  12.339
75315W        W43788  25.537  35.469   2.269
75316W        W43789   9.728  18.146  13.047
75317W        W43790  40.947   9.189  13.483
75318W        W43791   4.439  39.331   4.285
75319W        W43792  16.106  25.129  12.877
75320W        W43793  23.164  42.843   3.795
75321W        W43794  21.684   7.689  11.103
75322W        W43795  20.756  22.619  11.401
75323W        W43796  36.433   3.824   4.725
75324W        W43797   5.232   7.280   0.950
75325W        W43798  19.549   0.273  11.472
75326W        W43799  30.130  37.058   4.233
75327W        W43800  32.412  42.857  11.053
75328W        W43801   8.396  25.567  12.095
75329W        W43802  12.733  18.121  13.020
75330W        W43803  14.312  25.713   0.937
75331W        W43804  30.418  15.300   3.666
75332W        W43805  32.609  38.058   3.814
75333W        W43806  38.550  39.946   0.262
75334W        W43807  29.567   1.316   3.205
75335W        W43808  25.712  43.931   2.747
75336W        W43809   4.850  35.455  14.839
75337W        W43810  42.926  42.358  13.937
75338W        W43811  43.427   7.340  11.880
75339W        W43812  19.153  17.657   3.792
75340W        W43813  20.586  42.801  11.907
75341W        W43814  16.733  40.810  12.850
75342W        W43815  15.613  16.142  13.016
75343W        W43816  35.082   9.247  14.420
75344W        W43817  15.788  10.206   2.897
75345W        W43818  32.408  23.990   9.971
75346W        W43819  11.162  38.463  14.420
75347W        W43820   4.935  36.576   1.345
75348W        W43821  42.024  15.186   1.894
75349W        W43822  33.985   0.848   2.778
75350W        W43823  37.904  12.245   3.676
75351W        W43824   1.251  41.303  12.558
75352W        W43825  39.818  28.144   1.794
75353W        W43826  26.998  29.111   4.287
75354W        W43827  35.595   8.302  14.464
75355W        W43828   6.684  16.656   1.911
75356W        W43829  24.179   4.326  12.368
75357W        W43830   7.317  12.171  13.479
75358W        W43831  30.121  13.114  10.438
75359W        W43832   2.896  32.576  11.045
75360W        W43833  33.905  20.664  13.896
75361W        W43834   5.277   1.345  13.971
75362W        W43835  13.319   5.891  10.953
75363W        W43836  34.105  39.859  11.471
75364W        W43837  31.091   1.249  11.004
75365W        W43838  14.195   1.969   4.294
75366W        W43839  35.954  24.130   0.308
75367W        W43840  39.057   4.865  11.461
75368W        W43841  27.064  20.091   0.427
75369W        W43842  42.836   0.861   5.170
75370W        W43843  11.725  27.134   2.268
75371W        W43844  27.672  30.425   0.390
75372W        W43845  17.559   1.295  12.561
75373W        W43846  36.414  40.011   1.263
75374W        W43847  33.006  24.574  11.877
75375W        W43848  11.681  38.416   1.769
75376W        W43849   9.657  13.326  12.947
75377W        W43850  31.557  32.987  13.881
75378W        W43851  31.991  19.651   1.771
75379W        W43852   9.753   4.375  10.544
75380W        W43853   3.798  43.925   3.183
75381W        W43854  39.004  27.036   2.856
75382W        W43855  30.464  12.345   4.769
75383W        W43856  25.587  38.873   1.250
75384W        W43857   4.920  38.934  10.999
75385W        W43858  30.587  39.036   4.120
75386W        W43859  13.289   0.424  12.878
75387W        W43860  12.183  25.156  13.487
75388W        W43861   0.971  42.341   0.360
75389W        W43862  10.741  31.028  11.398
75390W        W43863  34.472  35.566  11.059
75391W        W43864  35.109  25.099   3.636
75392W        W43865  43.890  30.521  11.991
75393W        W43866  19.568  39.894   0.956
75394W        W43867  12.245  15.777  13.321
75395W        W43868  37.986   5.758   1.830
75396W        W43869  20.047  16.769   0.395
75397W        W43870  33.586  31.438  13.470
75398W        W43871  19.177  16.749  14.830
75399W        W43872   9.325  32.419   1.817
75400W        W43873  29.428  22.022   3.244
75401W        W43874   7.823  25.555   4.260
75402W        W43875  39.891  41.961  14.875
75403W        W43876  34.556  25.511   0.927
75404W        W43877  16.641  30.912  10.567
75405W        W43878  17.121  23.107  14.931
75406W        W43879  25.689  17.263   4.805
75407W        W43880  20.698  13.343   1.935
75408W        W43881   4.375  16.777   0.866
75409W        W43882  10.192  23.558   2.193
75410W        W43883  38.465  39.862   0.805
75411W        W43884  10.311   8.763  10.932
75412W        W43885  17.098  28.623   1.216
75413W        W43886  17.067  29.982   3.353
75414W        W43887  19.757   8.668  11.593
75415W        W43888  23.112  19.212  13.824
75416W        W43889   9.217  24.087  11.867
75417W        W43890   1.410  20.210  12.042
75418W        W43891  24.009  10.177   1.373
75419W        W43892   0.368  28.505  11.596
75420W        W43893  20.275  42.872  11.422
75421W        W43894  30.012  15.611  12.843
75422W        W43895   2.740  25.630   3.662
75423W        W43896   6.700  26.103  10.493
75424W        W43897  40.960  19.129  12.072
75425W        W43898  30.050  43.967   5.218
75426W        W43899  39.001  13.349   4.346
75427W        W43900  41.517   6.777   4.340
75428W        W43901  22.162  28.015   3.665
75429W        W43902   9.667  19.639  13.489
75430W        W43903   0.821  27.678   3.374
75431W        W43904  29.492  30.016  14.496
75432W        W43905  14.252  30.583   3.658
75433W        W43906  29.057  23.130   3.324
75434W        W43907  22.710  17.078   3.230
75435W        W43908  39.928  35.969  11.531
75436W        W43909   3.873  36.842  12.580
75437W        W43910   5.866  24.657  14.332
75438W        W43911   2.785   8.208   0.887
75439W        W43912  44.372  39.464  12.543
75440W        W43913   3.257   3.846  10.454
75441W        W43914  20.177  16.146  13.063
75442W        W43915  34.069  30.613   0.360
75443W        W43916  37.082  20.544  14.988
75444W        W43917  14.180  25.177  12.572
75445W        W43918  16.187  22.135   2.817
75446W        W43919  44.798  34.607  11.993
75447W        W43920  32.418  19.182  13.422
75448W        W43921  33.115  30.048   1.760
75449W        W43922  11.709  21.674   3.299
75450W        W43923   3.435  21.673   2.678
75451W        W43924  33.104   2.281  11.063
75452W        W43925   6.420  16.215   1.428
75453W        W43926  35.565  41.027  13.517
75454W        W43927  37.393  19.732   0.287
75455W        W43928   1.291  36.844   4.788
75456W        W43929  40.991  42.777  10.493
75457W        W43930  14.234  23.213   2.356
75458W        W43931   1.334  44.860  11.431
75459W        W43932  17.558  19.644  13.339
75460W        W43933   2.264  19.234   1.770
75461W        W43934  11.158  12.772  11.473
75462W        W43935  16.799  28.591   3.365
75463W        W43936  26.617  16.088   4.803
75464W        W43937   5.430  21.654   4.249
75465W        W43938   3.905   8.312  11.987
75466W        W43939  41.972  35.984  10.999
75467W        W43940  40.518  25.549  11.044
75468W        W43941   6.370  16.713   1.272
75469W        W43942  19.648  12.639   4.320
75470W        W43943  13.624   9.721   2.743
75471W        W43944   3.840   3.366   5.181
75472W        W43945  36.509  15.624   4.623
75473W        W43946  24.715  14.763  11.478
75474W        W43947  17.578  44.935   0.293
75475W        W43948  35.527  42.336  10.423
75476W        W43949  11.180   2.863  12.426
75477W        W43950   7.840  38.563  11.429
75478W        W43951  39.355  44.990   1.766
75479W        W43952  41.319  21.728  12.551
75480W        W43953  40.938   3.390   3.784
75481W        W43954   1.381  12.830  14.476
75482W        W43955  41.414  43.390  12.389
75483W        W43956  44.269  30.963  11.975
75484W        W43957  35.109  25.036  10.582
75485W        W43958  39.029   3.286  13.383
75486W        W43959  13.154  26.501  12.578
75487W        W43960  35.031  13.780   0.365
75488W        W43961  24.200  23.998   4.714
75489W        W43962  29.464  32.524  12.908
75490W        W43963  10.749  13.112  13.948
75491W        W43964  43.020  41.028   3.813
75492W        W43965  19.194  41.340  14.326
75493W        W43966  34.893   1.311  10.410
75494W        W43967  14.833   8.381  10.928
75495W        W43968  44.983  41.895   3.713
75496W        W43969   5.912  26.170  11.610
75497W        W43970   7.882   5.437   0.378
75498W        W43971   2.472   7.727  13.542
75499W        W43972  36.983  35.977   1.351
75500W        W43973  40.474   5.842   1.410
75501W        W43974  42.513   2.271  12.990
75502W        W43975  35.961   0.744   3.194
75503W        W43976   7.836  11.672   4.314
75504W        W43977  15.579   4.415   0.277
75505W        W43978  44.327  19.617   2.903
75506W        W43979  13.707  10.809   1.823
75507W        W43980  21.110  27.053   0.422
75508W        W43981   5.316  22.158   1.796
75509W        W43982   9.853  41.814   3.844
75510W        W43983  18.620  42.366  12.982
75511W        W43984   7.272  38.920  12.832
75512W        W43985  35.863  43.354   3.161
75513W        W43986  15.276  40.392   2.804
75514W        W43987  25.989  35.368  14.776
75515W        W43988   5.223  14.202  10.119
75516W        W43989  40.979  40.993  14.861
75517W        W43990  33.393  39.864  14.381
75518W        W43991  16.684   7.721  11.876
75519W        W43992  30.969  44.294  12.891
75520W        W43993   2.943  23.521  10.585
75521W        W43994  14.671  42.883  11.075
75522W        W43995   1.433  10.769  12.857
75523W        W43996  19.254  23.514   2.265
75524W        W43997   9.309   8.838  14.316
75525W        W43998  44.847  33.975   4.769
75526W        W43999   1.823   0.311  13.934
75527W        W44000  29.532  10.723  13.517
75528W        W44001  26.031   9.233  10.476
75529W        W44002  42.030   2.937   1.210
75530W        W44003  17.252  44.773   4.780
75531W        W44004   0.802  31.401  12.347
75532W        W44005  34.546  37.876  14.370
75533W        W44006  34.994  41.003  14.313
75534W        W44007  18.155   7.896  14.937
75535W        W44008   4.241  12.683  10.984
75536W        W44009  23.735  19.601   2.278
75537W        W44010  15.245   1.885  13.407
75538W        W44011  14.136  34.993   1.900
75539W        W44012  27.019   3.955  13.422
75540W        W44013  33.905  25.048  11.037
75541W        W44014  21.076   7.799  11.095
75542W        W44015   9.648   3.239  13.021
75543W        W44016  38.398  28.583  11.953
75544W        W44017  43.373  27.153   3.809
75545W        W44018  18.681  32.629  13.409
75546W        W44019  43.892  43.767   0.745
75547W        W44020  39.950  42.374  12.435
75548W        W44021   3.254  17.147  11.463
75549W        W44022  39.892  24.637  11.591
75550W        W44023  13.710  43.872  13.935
75551W        W44024  30.962  33.943  14.384
75552W        W44025   5.376  18.600   3.835
75553W        W44026  39.947  25.561  14.002
75554W        W44027  15.310   5.696  11.441
75555W        W44028   0.926  33.467  12.489
75556W        W44029  10.171  17.209   2.374
75557W        W44030  23.522  18.634   3.167
75558W        W44031  36.992  28.932  14.988
75559W        W44032  33.908   6.346   3.245
75560W        W44033  33.959  40.819   2.807
75561W        W44034  36.429  22.064   9.921
75562W        W44035  10.164   9.341   5.166
75563W        W44036  14.124  19.066   0.416
75564W        W44037  17.677  33.448   4.797
75565W        W44038   8.324   9.155   4.769
75566W        W44039  13.257   2.759   2.802
75567W        W44040  19.177  43.449  13.464
75568W        W44041   9.717  34.571   5.139
75569W        W44042   4.801   6.413   5.717
75570W        W44043  16.766  25.989  12.462
75571W        W44044  37.532  43.320  14.431
75572W        W44045  29.476   6.812   3.734
75573W        W44046  10.707   8.772  14.873
75574W        W44047  37.833  33.080   0.321
75575W        W44048   5.200   0.908  14.301
75576W        W44049  35.567  39.365  12.448
75577W        W44050   5.241  22.557   3.310
75578W        W44051  18.721  17.105  12.012
75579W        W44052  11.224  20.681  13.837
75580W        W44053  16.138  18.728   1.380
75581W        W44054   3.312   8.230   0.814
75582W        W44055  11.823   0.449   4.157
75583W        W44056  41.384   9.253   2.886
75584W        W44057  39.004  37.841  11.927
75585W        W44058   4.288  25.557   2.205
75586W        W44059  34.112   9.698   4.120
75587W        W44060  22.203  29.090  12.411
75588W        W44061  34.432  20.571  13.861
75589W        W44062  35.898  24.504  12.930
75590W        W44063  11.758  44.841   4.609
75591W        W44064  11.133  23.582  10.496
75592W        W44065  12.789   5.816   1.738
75593W        W44066   8.778  20.717  11.543
75594W        W44067   0.772  13.197   9.996
75595W        W44068  44.484  13.156   4.180
75596W        W44069  42.812   8.212  10.948
75597W        W44070  11.169  20.051   2.829
75598W        W44071  22.524  30.412   4.615
75599W        W44072  27.132  38.872   0.432
75600W        W44073  37.967   1.837   1.738
75601W        W44074   5.751  17.255  13.978
75602W        W44075   3.395   8.858  11.882
75603W        W44076   2.325  27.503   0.339
75604W        W44077  21.695  34.541  14.386
75605W        W44078  27.518  43.350  11.389
75606W        W44079  41.316  41.816   1.240
75607W        W44080  42.829  25.984   4.164
75608W        W44081   7.848  44.425   0.370
75609W        W44082  39.885  26.576   2.749
75610W        W44083  13.173  15.186   1.437
75611W        W44084   0.346   0.406   4.649
75612W        W44085  22.012  31.524  14.986
75613W        W44086  36.845  23.568  10.932
75614W        W44087  28.538   5.375   3.332
75615W        W44088   4.877  21.694  13.064
75616W        W44089  36.406  20.260   0.903
75617W        W44090  40.804  44.818   3.665
75618W        W44091  18.580  24.024   3.755
75619W        W44092  28.176   5.765  10.939
75620W        W44093  37.978  32.549   1.231
75621W        W44094  36.497  34.953   3.683
75622W        W44095   5.773  15.600   0.316
75623W        W44096   4.428   0.790  12.979
75624W        W44097  19.073  28.049   0.797
75625W        W44098   6.887   3.450  12.998
75626W        W44099  34.595   4.216   4.247
75627W        W44100   9.765   5.742   4.684
75628W        W44101  37.504  35.581  14.842
75629W        W44102  36.591  37.831  14.947
75630W        W44103  40.361   6.829  14.992
75631W        W44104   8.269  17.683  10.439
75632W        W44105  39.876  17.651  13.822
75633W        W44106  33.989   8.207  13.965
75634W        W44107  17.751  19.149   0.425
75635W        W44108   6.813  24.573   4.192
75636W        W44109   1.278  37.962   2.784
75637W        W44110  14.688  14.206   4.783
75638W        W44111  41.349  38.933  12.551
75639W        W44112   0.286   9.210  11.385
75640W        W44113  19.047  11.794  12.468
75641W        W44114  13.174  40.844  13.505
75642W        W44115   0.757  19.165   3.668
75643W        W44116   4.432   8.275   4.815
75644W        W44117  43.979  19.156   4.213
75645W        W44118  12.195   0.847   2.282
75646W        W44119  43.880  23.227  11.114
75647W        W44120  13.316  19.534   1.914
75648W        W44121   0.937  12.750  12.903
75649W        W44122   4.336   6.764   3.824
75650W        W44123  28.572   7.785  14.807
75651W        W44124  29.433   3.711  13.825
75652W        W44125  34.119   1.735  11.598
75653W        W44126  21.206  34.971   1.879
75654W        W44127  28.554  19.637  13.317
75655W        W44128  33.616  26.578   0.939
75656W        W44129  19.044  26.671  14.297
75657W        W44130  18.770  27.625  12.085
75658W        W44131  31.413  31.982   2.279
75659W        W44132  29.165  23.491  14.769
75660W        W44133  12.301  21.215   2.857
75661W        W44134   7.703  14.782   2.688
75662W        W44135  21.550  16.112   2.880
75663W        W44136  23.585  18.296  12.930
75664W        W44137   8.262  27.087   4.621
75665W        W44138  39.383   1.732   3.224
75666W        W44139  37.067  22.589   1.916
75667W        W44140  22.211  21.623   4.275
75668W        W44141  40.356  33.056  13.994
75669W        W44142  16.707   5.925   1.847
75670W        W44143  19.042   7.875   2.732
75671W        W44144  37.553   5.755   4.277
75672W        W44145  42.781  20.252   1.717
75673W        W44146  43.878  24.626  11.044
75674W        W44147  13.316   1.417   3.798
75675W        W44148   2.780  19.754  11.450
75676W        W44149  44.871  33.475   3.647
75677W        W44150  34.447  21.050  12.453
75678W        W44151  11.789  20.089  10.005
75679W        W44152  27.634   9.831  14.970
75680W        W44153  23.125   2.235  12.579
75681W        W44154   3.857  35.971  14.358
75682W        W44155   7.354  23.062  10.975
75683W        W44156  14.270   7.326   1.445
75684W        W44157  15.684  20.695   3.378
75685W        W44158  38.956   8.226   4.339
75686W        W44159  39.456  31.556   2.863
75687W        W44160  29.930  30.125  14.342
75688W        W44161  13.845   1.308  12.556
75689W        W44162  30.074  10.671  11.475
75690W        W44163  11.827  23.135   1.215
75691W        W44164   8.371  14.323   3.789
75692W        W44165  30.103  20.737  10.528
75693W        W44166  17.247   0.386  13.405
75694W        W44167  27.657  43.812  13.862
75695W        W44168  16.789   3.265  13.978
75696W        W44169  14.245  15.753  10.994
75697W        W44170   1.341  23.992   2.726
75698W        W44171  13.130  44.005  13.449
75699W        W44172  13.199  22.678  14.389
75700W        W44173  24.590  13.334   5.097
75701W        W44174   7.804  20.528   2.232
75702W        W44175   0.873   0.951  10.931
75703W        W44176   4.373   2.852  11.559
75704W        W44177  20.721  41.026  12.414
75705W        W44178   0.472  12.707   2.258
75706W        W44179   2.950  18.569   1.298
75707W        W44180  11.310  34.120   4.338
75708W        W44181  30.162  36.096  14.501
75709W        W44182  40.386  23.191   0.395
75710W        W44183  23.158  33.882   1.418
75711W        W44184   8.217  42.805   1.757
75712W        W44185  39.472  42.807  11.022
75713W        W44186  40.501  41.817  13.470
75714W        W44187   2.389  28.965   2.256
75715W        W44188  16.198  21.073   1.243
75716W        W44189  35.980  10.329  10.621
75717W        W44190   3.953  37.498   4.708
75718W        W44191   2.327  32.992   3.354
75719W        W44192  37.508  14.205  13.977
75720W        W44193  35.045  37.359  11.035
75721W        W44194   4.247  21.069  12.852
75722W        W44195  14.185  39.059   5.601
75723W        W44196  18.106  30.918  13.502
75724W        W44197  20.651  30.423  11.478
75725W        W44198  27.138   7.208   2.231
75726W        W44199  34.984  22.081   0.303
75727W        W44200  42.286  41.920   0.255
75728W        W44201  38.951  11.331   0.461
75729W        W44202   1.975  15.657   1.444
75730W        W44203  18.209  17.187  10.452
75731W        W44204   8.279  23.538   4.156
75732W        W44205   1.954  28.982   1.716
75733W        W44206  32.404  22.231  10.497
75734W        W44207  35.500  23.232  13.050
75735W        W44208  39.873  22.215  14.325
75736W        W44209  11.709  26.061   0.884
75737W        W44210  33.442  13.108   4.163
75738W        W44211  13.277  29.478   4.141
75739W        W44212  37.547  16.795  14.344
75740W        W44213  20.031  18.711   3.803
75741W        W44214  16.310   9.670  14.289
75742W        W44215  19.058   2.854   0.297
75743W        W44216   8.230   0.884   2.901
75744W        W44217   6.220  42.502   4.645
75745W        W44218   9.743  23.576   5.194
75746W        W44219   9.809  33.949   3.280
75747W        W44220  34.935  41.815   3.294
75748W        W44221  34.942  40.364   0.786
75749W        W44222   4.448  26.557  12.997
75750W        W44223  13.609  44.493  14.004
75751W        W44224  19.145  39.464   0.370
75752W        W44225  14.276   9.340  11.521
75753W        W44226  39.333   8.752  13.021
75754W        W44227  13.321  15.325   3.229
75755W        W44228  24.973  11.712  11.445
75756W        W44229  10.357  25.648  14.835
75757W        W44230  25.569  20.064   4.622
75758W        W44231   0.406  20.092  11.979
75759W        W44232  26.546  37.074  10.425
75760W        W44233  23.030   2.244   1.299
75761W        W44234  36.022  18.092   1.210
75762W        W44235  25.600  13.168   1.822
75763W        W44236  16.303  40.975   5.209
75764W        W44237  37.875  37.859   0.343
75765W        W44238  31.421  27.546   3.184
75766W        W44239   3.351  29.069   2.677
75767W        W44240  20.095  28.577   2.307
75768W        W44241  41.425   6.770  14.301
75769W        W44242  13.154  33.011  13.060
75770W        W44243   1.454  44.875   3.767
75771W        W44244  44.009  32.562  13.545
75772W        W44245  15.098   1.765   2.302
75773W        W44246   1.271  28.604   0.289
75774W        W44247  11.682  36.917   9.964
75775W        W44248  18.689  42.872   5.122
75776W        W44249   4.908  37.430  14.896
75777W        W44250  17.272  34.479   1.846
75778W        W44251   7.280  18.211  13.850
75779W        W44252  26.627   1.836   3.209
75780W        W44253  19.569  32.080  13.991
75781W        W44254  39.006   3.948  14.853
75782W        W44255  14.124  38.562   5.231
75783W        W44256  26.148  16.190   2.816
75784W        W44257  28.543  19.261  10.958
75785W        W44258  22.626  41.392   9.943
75786W        W44259  34.593  42.404   0.319
75787W        W44260  13.799  36.951   4.813
75788W        W44261  43.307   5.908   0.356
75789W        W44262  16.761  42.913   1.851
75790W        W44263  27.986  20.559   1.439
75791W        W44264  42.455  28.939   4.184
75792W        W44265  39.341   3.787  13.542
75793W        W44266  11.831  40.020  12.474
75794W        W44267  32.063  38.913  14.920
75795W        W44268  18.119  13.243  10.529
75796W        W44269  15.708  26.529   0.728
75797W        W44270   7.902   7.791  10.629
75798W        W44271  20.716  40.514  12.353
75799W        W44272  17.560   6.902   2.871
75800W        W44273   2.772  35.576  13.813
75801W        W44274  19.719  35.053  10.978
75802W        W44275  12.288  11.688   3.795
75803W        W44276  10.184  42.327  13.471
75804W        W44277  13.676  11.815   4.687
75805W        W44278  34.583   0.981  13.513
75806W        W44279  24.654  10.737   0.945
75807W        W44280  15.632  39.362   1.863
75808W        W44281  23.638  13.807  10.591
75809W        W44282  32.987   2.458   3.279
75810W        W44283   3.356  42.853  13.858
75811W        W44284  16.790  10.339   0.461
75812W        W44285   9.193   2.460  13.798
75813W        W44286   7.297  10.706   2.768
75814W        W44287  39.967  20.572  14.777
75815W        W44288  31.630  26.598   2.825
75816W        W44289   7.234  34.510   0.261
75817W        W44290   5.910  14.326   4.335
75818W        W44291  15.245  29.586  10.429
75819W        W44292  36.016  12.204  13.977
75820W        W44293  23.129  17.204   2.841
75821W        W44294   4.335  16.157   4.639
75822W        W44295   9.191   3.262   5.178
75823W        W44296  38.504  20.253   3.658
75824W        W44297  31.141   3.415   1.413
75825W        W44298  23.490  16.124   4.609
75826W        W44299  14.152  29.626  14.368
75827W        W44300  31.066  15.117   4.730
75828W        W44301  10.733  37.912  13.831
75829W        W44302   8.222  25.713   4.829
75830W        W44303  44.357   2.729   0.306
75831W        W44304   5.900  24.031   0.397
75832W        W44305  27.977  17.272   4.166
75833W        W44306   9.207  21.519   2.721
75834W        W44307  40.866  37.864   1.397
75835W        W44308  32.112  12.319  11.008
75836W        W44309   7.354  30.957  13.327
75837W        W44310  18.139   6.720  11.084
75838W        W44311   0.404  10.234  11.480
75839W        W44312  24.195  24.071  13.406
75840W        W44313  38.910  40.362   5.318
75841W        W44314  21.214  43.367   3.703
75842W        W44315   6.364  22.232   4.700
75843W        W44316  42.378  29.505  13.310
75844W        W44317  18.648  25.041   1.879
75845W        W44318  35.564  31.119  11.902
75846W        W44319  32.391   7.695   2.207
75847W        W44320  17.291  16.623   9.989
75848W        W44321  25.555  10.302  14.344
75849W        W44322  16.638  19.618  11.429
75850W        W44323  25.145  31.590  12.543
75851W        W44324  10.183   5.715   3.313
75852W        W44325  23.709  11.836  11.423
75853W        W44326  32.518  43.406   0.883
75854W        W44327  11.313  20.737   3.160
75855W        W44328  32.472  14.235  12.891
75856W        W44329   8.780  42.876  11.002
75857W        W44330  32.495  30.968   4.680
75858W        W44331  36.036  22.122   2.303
75859W        W44332  21.216  17.741   2.806
75860W        W44333  41.316  40.905   3.647
75861W        W44334  19.535  16.619   2.836
75862W        W44335  30.639  13.667  14.326
75863W        W44336   3.432  27.554  12.489
75864W        W44337  25.989  12.327  11.522
75865W        W44338  19.642  43.421   2.886
75866W        W44339  37.381  11.710   2.831
75867W        W44340   1.353  10.840  13.361
75868W        W44341  36.394  29.010   2.309
75869W        W44342  30.156  36.041  12.544
75870W        W44343  37.365  16.669   1.890
75871W        W44344  41.025  20.243  13.990
75872W        W44345  41.043  28.629   1.783
75873W        W44346  17.665  36.529   0.774
75874W        W44347   5.296  14.139   4.220
75875W        W44348  43.005  38.394   2.874
75876W        W44349  35.522   1.434  13.480
75877W        W44350  12.634  10.227   3.351
75878W        W44351  22.104  33.555  13.353
75879W        W44352  35.424  12.127   1.293
75880W        W44353  30.004  27.539  10.922
75881W        W44354  44.802  24.504   2.319
75882W        W44355  12.333  20.727   3.171
75883W        W44356  13.686  28.024   4.664
75884W        W44357  25.151  29.136  11.399
75885W        W44358  35.523  18.080  12.457
75886W        W44359  20.179  32.956   1.446
75887W        W44360  26.200  34.564   0.265
75888W        W44361  26.488  24.976  13.485
75889W        W44362  42.977  41.920  12.862
75890W        W44363  18.778  44.951   4.158
75891W        W44364   7.851  41.860   0.415
75892W        W44365  36.039  40.891   1.268
75893W        W44366   7.798  42.895  12.455
75894W        W44367  21.018  22.147  10.071
75895W        W44368  26.586  35.503  14.014
75896W        W44369  13.710  20.655  14.418
75897W        W44370  15.602  29.164  10.419
75898W        W44371  17.241  29.462  13.877
75899W        W44372  11.781  19.047  11.943
75900W        W44373   1.836  23.084   4.657
75901W        W44374  22.503   8.763  14.354
75902W        W44375  16.691  42.362   3.632
75903W        W44376   8.878  32.104   3.839
75904W        W44377   8.368  15.116  13.806
75905W        W44378  29.157  39.347   3.319
75906W        W44379  29.080   4.431  14.504
75907W        W44380   8.259  34.389   2.342
75908W        W44381   6.383  41.976   3.369
75909W        W44382  17.627  21.113   2.410
75910W        W44383   7.311  31.430  15.000
75911W        W44384  22.693   1.268  11.036
75912W        W44385   2.769  44.847  10.414
75913W        W44386  27.496  19.176   1.252
75914W        W44387  25.472  30.979  10.952
75915W        W44388  25.683  21.757   2.699
75916W        W44389   3.323  37.476  14.293
75917W        W44390  18.072  17.284  14.493
75918W        W44391  37.362  39.547  11.930
75919W        W44392  23.013  37.867   3.253
75920W        W44393  27.185   6.732  11.080
75921W        W44394  12.303  17.766  14.032
75922W        W44395  44.930  23.699   4.154
75923W        W44396  27.508   0.264  12.561
75924W        W44397   6.198  32.429   0.243
75925W        W44398  41.381  23.122  13.317
75926W        W44399  43.375  34.039  11.490
75927W        W44400   3.306  37.535  14.813
75928W        W44401  11.145  16.218  14.345
75929W        W44402  34.043  36.905  13.541
75930W        W44403  11.760  39.822  13.047
75931W        W44404  27.537  41.010   0.368
75932W        W44405  11.833  33.448   1.282
75933W        W44406   0.759  28.966  11.087
75934W        W44407  40.045   8.747  10.117
75935W        W44408   5.700  28.056   1.724
75936W        W44409   0.395  42.966  13.439
75937W        W44410  39.050  17.132   0.403
75938W        W44411  34.596  18.789   0.466
75939W        W44412  27.179  30.430   4.735
75940W        W44413  19.709  42.897  10.900
75941W        W44414  33.915  26.507  14.984
75942W        W44415  10.783  36.484   4.258
75943W        W44416  14.130  42.464  10.565
75944W        W44417  26.081  44.878  13.482
75945W        W44418  24.494  14.788   3.724
75946W        W44419  29.935  33.423  14.000
75947W        W44420   6.920   8.225  10.605
75948W        W44421  30.494  42.966   0.435
75949W        W44422  23.129   5.380  11.492
75950W        W44423  38.409  10.763   3.176
75951W        W44424  34.582   0.842  12.475
75952W        W44425  39.554   4.428  10.465
75953W        W44426  40.380  36.937   3.368
75954W        W44427  40.871  42.785   4.796
75955W        W44428  10.756  27.188   2.889
75956W        W44429  43.803   2.267   1.249
75957W        W44430   9.812  36.552   5.776
75958W        W44431  34.915  10.789  13.506
75959W        W44432  16.810  36.450   4.298
75960W        W44433  13.128  17.639   3.856
75961W        W44434  42.857  29.119   2.775
75962W        W44435  20.645  40.831   4.836
75963W        W44436  36.032   5.848   0.350
75964W        W44437  13.804   4.922   3.799
75965W        W44438  39.898   0.754  14.434
75966W        W44439  26.544  27.142   3.183
75967W        W44440  13.120  25.705   0.881
75968W        W44441   5.267  36.069  10.433
75969W        W44442  13.237   8.402  12.383
75970W        W44443  27.163  44.771  10.143
75971W        W44444  20.523  17.252  13.984
75972W        W44445  30.956  22.723   1.885
75973W        W44446   2.945   6.856   3.822
75974W        W44447  10.673   7.726   1.241
75975W        W44448  35.934  39.428  11.126
75976W        W44449  30.120   2.780   0.854
75977W        W44450  24.523   9.240   4.125
75978W        W44451  39.451  13.172  11.062
75979W        W44452  23.005   6.777   3.327
75980W        W44453   4.319  35.549   2.234
75981W        W44454  39.987   4.718   4.196
75982W        W44455  14.288  16.314   4.708
75983W        W44456  27.639  12.847  12.360
75984W        W44457   1.378   2.777   1.917
75985W        W44458  30.112   6.738  10.545
75986W        W44459  18.746  31.033   4.240
75987W        W44460  24.483   1.828  12.426
75988W        W44461  42.475  31.530   2.777
75989W        W44462   6.778  29.530   4.805
75990W        W44463  14.792  40.942   1.231
75991W        W44464   6.314  19.189   3.835
75992W        W44465  27.048  38.890   3.150
75993W        W44466  31.429  33.083   4.671
75994W        W44467  39.419  26.180   0.333
75995W        W44468  38.558  17.307  10.636
75996W        W44469  33.484   4.853   1.373
75997W        W44470   0.880   1.763   2.221
75998W        W44471  24.210  19.657   4.252
75999W        W44472  30.542  31.506  11.021
76000W        W44473  19.775  33.087  10.976
76001W        W44474  36.484  30.553  14.507
76002W        W44475  41.980  34.463  12.941
76003W        W44476  44.450  34.116   1.904
76004W        W44477  32.028   3.801   1.263
76005W        W44478  34.036  30.503  10.526
76006W        W44479  23.707  24.184   4.611
76007W        W44480   6.830  10.226  14.903
76008W        W44481  32.983  35.585  14.819
76009W        W44482  22.160  25.976  12.410
76010W        W44483  18.254  18.713   4.675
76011W        W44484  30.979  17.220   1.445
76012W        W44485  42.347   1.438   3.323
76013W        W44486  23.703  34.456  10.449
76014W        W44487  17.663  44.450   4.673
76015W        W44488  14.682  27.539   1.812
76016W        W44489  21.026  43.885   3.227
76017W        W44490  16.145  30.034  14.898
76018W        W44491  27.669  32.949  14.448
76019W        W44492  10.763  14.599  12.507
76020W        W44493   5.756  28.971  14.434
76021W        W44494  20.118  13.752  13.468
76022W        W44495  25.691  25.553  14.828
76023W        W44496  13.759  16.127  13.984
76024W        W44497  44.898  16.100  10.907
76025W        W44498  43.512  30.092   0.963
76026W        W44499  37.481  25.109  11.981
76027W        W44500  29.135  12.671  14.833
76028W        W44501  30.927   4.923   2.760
76029W        W44502  10.182  26.646  11.584
76030W        W44503  27.114   4.872  13.366
76031W        W44504  21.700  30.155  12.455
76032W        W44505   4.863  26.057  14.769
76033W        W44506  29.435  18.766  14.306
76034W        W44507  20.197  32.557  11.416
76035W        W44508  15.259   0.812  12.006
76036W        W44509  44.349  35.936   4.693
76037W        W44510  13.749  17.156   3.279
76038W        W44511  27.481  29.944  13.363
76039W        W44512  20.545   1.251   4.291
76040W        W44513   7.753  27.006  11.123
76041W        W44514  44.760   7.396   2.760
76042W        W44515  22.163  20.538   0.812
76043W        W44516  16.296  44.456   0.779
76044W        W44517   5.804  39.521  13.798
76045W        W44518   9.889  10.156  13.869
76046W        W44519  23.681   9.820  11.871
76047W        W44520  23.605  10.351  13.790
76048W        W44521   8.332  15.169   1.338
76049W        W44522  24.515  10.235   3.290
76050W        W44523  12.349  30.445  12.542
76051W        W44524   1.377   1.238   1.745
76052W        W44525  28.604  42.030  11.595
76053W        W44526  33.409  37.359   1.773
76054W        W44527   9.351  33.416  11.041
76055W        W44528  13.765  24.639   1.218
76056W        W44529   2.934   7.274   0.247
76057W        W44530   5.768  19.715   2.179
76058W        W44531  28.121   1.315  12.476
76059W        W44532   7.385  43.957  11.544
76060W        W44533  19.639  26.164   4.302
76061W        W44534  15.258   1.281   1.821
76062W        W44535  37.929   4.938  12.983
76063W        W44536  42.905  19.583   4.752
76064W        W44537  15.645  14.742  10.988
76065W        W44538   2.942  25.133   1.422
76066W        W44539   2.331   9.260  12.091
76067W        W44540  35.381  31.646  10.436
76068W        W44541  44.967   5.308   1.239
76069W        W44542   7.827  24.078  12.366
76070W        W44543  14.750  40.393   5.313
76071W        W44544  39.364  19.170   3.756
76072W        W44545  25.064  20.654   0.853
76073W        W44546  42.388  24.638   0.754
76074W        W44547  36.524  33.501   3.653
76075W        W44548  43.305  27.616   3.778
76076W        W44549  11.700  22.227   0.951
76077W        W44550   5.820  15.686  11.453
76078W        W44551   4.347   0.361   2.264
76079W        W44552  33.895  16.573  11.500
76080W        W44553  40.377  16.314  12.853
76081W        W44554  31.461  38.917  13.985
76082W        W44555  22.039  42.971   1.753
76083W        W44556   9.862  30.075  13.062
76084W        W44557  38.826   5.711  14.445
76085W        W44558  25.154  12.129   1.262
76086W        W44559  43.768   7.203   0.343
76087W        W44560   8.239  41.868  12.900
76088W        W44561  10.744   8.706  11.125
76089W        W44562  34.034   2.864   0.410
76090W        W44563   2.763  43.444   2.337
76091W        W44564  29.639  26.083  14.328
76092W        W44565  31.995   4.706  13.538
76093W        W44566  23.170  31.490   0.860
76094W        W44567  18.148   0.453   4.644
76095W        W44568  23.578  28.136   1.410
76096W        W44569  40.002   9.371  13.873
76097W        W44570   9.271   1.260  11.481
76098W        W44571  10.282  13.788  11.582
76099W        W44572   0.805  10.246   2.286
76100W        W44573  44.346  40.491   1.902
76101W        W44574   0.871   5.782   2.332
76102W        W44575  36.571   8.167   1.891
76103W        W44576  19.711   9.804   4.265
76104W        W44577  27.673  26.650  13.505
76105W        W44578  29.953  36.895  13.921
76106W        W44579  34.531   9.827   0.759
76107W        W44580  36.577  10.181   5.128
76108W        W44581  39.495  40.426  13.027
76109W        W44582  23.499  30.437  14.893
76110W        W44583  44.337   7.382  14.338
76111W        W44584  37.989  12.127   0.771
76112W        W44585   7.352  21.702   1.756
76113W        W44586  42.523   5.227   2.321
76114W        W44587  19.200   5.282  11.905
76115W        W44588  29.127  14.128  12.383
76116W        W44589  34.513  36.482   3.640
76117W        W44590  37.898  36.038  14.924
76118W        W44591  35.488  43.998   1.217
76119W        W44592  11.789  10.650  11.474
76120W        W44593  28.963  43.796  13.965
76121W        W44594  30.929  12.782  12.547
76122W        W44595   1.250  17.625   2.858
76123W        W44596  26.127  26.138  14.759
76124W        W44597  17.174  17.688   2.233
76125W        W44598  38.023  14.315   2.414
76126W        W44599  23.552  18.091   4.806
76127W        W44600  44.964  15.084   3.827
76128W        W44601  30.934  16.784   4.226
76129W        W44602   3.859  39.332  14.868
76130W        W44603  30.005  38.016  13.509
76131W        W44604  32.993  13.127   1.742
76132W        W44605  28.563  41.812   3.252
76133W        W44606  26.522  37.402   3.722
76134W        W44607   5.816  34.087  13.905
76135W        W44608  43.277  42.323  12.086
76136W        W44609  12.122   9.670  14.935
76137W        W44610   3.357  31.012   4.637
76138W        W44611  42.525   6.427   2.710
76139W        W44612  11.152   3.342  11.517
76140W        W44613   4.318  14.779   2.327
76141W        W44614   8.876  10.855   1.905
76142W        W44615  17.137  40.041  13.473
76143W        W44616  14.818  19.190  12.358
76144W        W44617  30.604   5.729   1.387
76145W        W44618   7.227   3.317  10.639
76146W        W44619  34.943  23.175  12.038
76147W        W44620  41.491  20.221  11.977
76148W        W44621  39.902  14.612  13.845
76149W        W44622   8.302  27.448   0.369
76150W        W44623  33.032  31.097   2.223
76151W        W44624   3.411  34.535  10.414
76152W        W44625   6.868   3.891  12.514
76153W        W44626   8.759  28.676   3.869
76154W        W44627   7.238  30.412  12.383
76155W        W44628   0.274   1.475  14.506
76156W        W44629   2.938  23.580   1.278
76157W        W44630  32.581  26.061  13.930
76158W        W44631  32.565  36.966  10.987
76159W        W44632   3.749  16.264  14.031
76160W        W44633  19.545  39.904   1.246
76161W        W44634   3.712  18.162   0.310
76162W        W44635  36.996  10.828   1.795
76163W        W44636   1.350  17.156   3.316
76164W        W44637  26.634  40.858   5.267
76165W        W44638   9.229   5.843  13.386
76166W        W44639  13.162  33.437  13.907
76167W        W44640   3.752   8.895   3.162
76168W        W44641  34.873  40.040   0.466
76169W        W44642   5.240  19.254   0.845
76170W        W44643  17.262  22.565  13.363
76171W        W44644  24.116   0.753  11.085
76172W        W44645  29.587  44.801  10.426
76173W        W44646  20.584  24.519   3.727
76174W        W44647  44.892   2.848  14.470
76175W        W44648   8.683  31.556  11.511
76176W        W44649  34.006   0.829  13.397
76177W        W44650   2.767  38.856   2.733
76178W        W44651  11.365  25.129  14.954
76179W        W44652  31.923  42.983   4.623
76180W        W44653  40.406  24.093   3.170
76181W        W44654  23.132  23.619   4.207
76182W        W44655  13.309   4.928   1.890
76183W        W44656  13.625  36.562   1.424
76184W        W44657  25.100  43.386  13.959
76185W        W44658  25.633  36.455   3.686
76186W        W44659   0.328   0.251  13.514
76187W        W44660  17.564  36.080   0.364
76188W        W44661  14.334   8.850   0.824
76189W        W44662  22.215   6.880  12.997
76190W        W44663  31.574  12.809   2.203
76191W        W44664  39.498  23.638   1.786
76192W        W44665   5.698   1.399   2.883
76193W        W44666   2.892  29.445  11.978
76194W        W44667   0.250  10.789  10.415
76195W        W44668  14.110   5.343  14.394
76196W        W44669  26.039  32.902   2.762
76197W        W44670  39.430  17.126   2.901
76198W        W44671  39.861   5.851   1.767
76199W        W44672   7.242  38.925  11.097
76200W        W44673  23.584   1.927  12.449
76201W        W44674  17.750  26.202  12.419
76202W        W44675  23.569  22.105  10.481
76203W        W44676   3.722   8.168  12.503
76204W        W44677  43.367  28.130   2.873
76205W        W44678  15.601  38.454  13.459
76206W        W44679  10.172  21.019  14.483
76207W        W44680  36.552  37.555   1.216
76208W        W44681  40.971  16.227   3.669
76209W        W44682   4.779   2.724   0.421
76210W        W44683  40.508  13.696  12.877
76211W        W44684  22.544  28.567   0.906
76212W        W44685  11.347  17.594   3.222
76213W        W44686   1.340  38.957   3.231
76214W        W44687  13.675  21.229   4.293
76215W        W44688   1.811   2.886  13.962
76216W        W44689  27.606  42.955  13.835
76217W        W44690  41.934   6.380   0.762
76218W        W44691  44.365  40.048   4.698
76219W        W44692  15.234  12.303   4.798
76220W        W44693  25.989  42.915   0.372
76221W        W44694  25.673   8.790   4.802
76222W        W44695  18.576  32.512  11.463
76223W        W44696  11.668  27.451   0.279
76224W        W44697   0.271  21.263   2.882
76225W        W44698  11.162   9.356  12.020
76226W        W44699  17.671  21.091   3.839
76227W        W44700  19.158  23.173   3.824
76228W        W44701   1.292  21.131  13.319
76229W        W44702  20.093  33.619   0.966
76230W        W44703   7.679  43.357   0.352
76231W        W44704   3.828   9.299   0.911
76232W        W44705  34.607  11.816  12.878
76233W        W44706  15.269  44.434  12.856
76234W        W44707  27.494  18.623   2.245
76235W        W44708   3.358   3.336  13.916
76236W        W44709  13.322  26.096  14.453
76237W        W44710  27.185  23.044  14.325
76238W        W44711  23.069  32.524  13.308
76239W        W44712   0.762  33.080   2.341
76240W        W44713  35.483  35.497  10.581
76241W        W44714  11.733  20.205  12.453
76242W        W44715  29.497  18.784  11.987
76243W        W44716  30.436  11.323  10.986
76244W        W44717   0.827  29.669  10.933
76245W        W44718  10.838  37.438   1.428
76246W        W44719  29.133   4.867   4.675
76247W        W44720  44.484  10.167  11.457
76248W        W44721  34.869  33.997   3.362
76249W        W44722  39.426  10.360  14.285
76250W        W44723  44.408  20.073   4.227
76251W        W44724  43.295   3.247   3.763
76252W        W44725   4.740  35.964  11.862
76253W        W44726  35.562  32.138   2.314
76254W        W44727  14.834  37.959   5.084
76255W        W44728   4.791  22.252   4.181
76256W        W44729   5.212  36.386  13.800
76257W        W44730  43.479   1.776  10.019
76258W        W44731  18.577  18.070   2.766
76259W        W44732   2.460  34.944  13.997
76260W        W44733  16.581  38.034   2.775
76261W        W44734   1.944  39.523  12.440
76262W        W44735  15.229  16.591   2.393
76263W        W44736  22.044  31.621   0.359
76264W        W44737  24.025   4.263  11.558
76265W        W44738   2.848   8.250  11.911
76266W        W44739   1.785  34.070   1.885
76267W        W44740   8.860  41.016   3.855
76268W        W44741  11.314   0.790   4.343
76269W        W44742   4.385  14.630  13.343
76270W        W44743  12.271  21.078   4.786
76271W        W44744  41.983  16.736  13.348
76272W        W44745  23.687  24.710   1.265
76273W        W44746  43.856  16.659  13.457
76274W        W44747  42.777  24.043  13.524
76275W        W44748   2.806  32.401  11.409
76276W        W44749  20.197  28.023  13.476
76277W        W44750  18.182  38.846   3.225
76278W        W44751   5.693  40.897   0.740
76279W        W44752  43.347  35.595  11.034
76280W        W44753  30.998  33.914  14.890
76281W        W44754  22.104  16.731   0.738
76282W        W44755  23.568  16.781  13.793
76283W        W44756  40.378  31.007   4.808
76284W        W44757  40.343   0.793   4.672
76285W        W44758  13.122  19.042  10.993
76286W        W44759  34.904  33.521   1.413
76287W        W44760  36.966  34.090   1.920
76288W        W44761  42.797  26.020   0.816
76289W        W44762   3.839  40.897   2.392
76290W        W44763  39.363  42.304  13.814
76291W        W44764  31.496   3.350   4.650
76292W        W44765  19.558  20.143   3.366
76293W        W44766  36.846  44.309  14.947
76294W        W44767  39.929   4.342   3.635
76295W        W44768   4.443  28.601   2.178
76296W        W44769  23.587   0.382   5.237
76297W        W44770  42.417  27.091   1.322
76298W        W44771   1.898  40.433   2.369
76299W        W44772  11.234  23.594   3.651
76300W        W44773  36.034  22.724  14.503
76301W        W44774  42.504   0.446   0.420
76302W        W44775  40.314  31.945  13.847
76303W        W44776  17.251   3.937  12.464
76304W        W44777  29.937  40.805  13.333
76305W        W44778  25.138  10.649   0.898
76306W        W44779   2.761  25.599   3.381
76307W        W44780  41.817  31.590  14.358
76308W        W44781  39.874  39.485  12.952
76309W        W44782  43.432  40.955   0.282
76310W        W44783  30.547  28.171   1.299
76311W        W44784  38.519  17.675  13.004
76312W        W44785   3.927  33.465   3.865
76313W        W44786  23.516  11.862  14.286
76314W        W44787   2.393   1.302  12.417
76315W        W44788  14.201  43.384  14.935
76316W        W44789  38.531  15.614   1.213
76317W        W44790  37.899  34.412   0.952
76318W        W44791   6.263  12.129   3.689
76319W        W44792  20.159  39.522  12.836
76320W        W44793   5.849   5.815  14.484
76321W        W44794  33.520   8.342   2.224
76322W        W44795  21.690   7.389   0.482
76323W        W44796  34.899   6.266  10.943
76324W        W44797  15.320  29.952   4.182
76325W        W44798   8.891  33.436   4.801
76326W        W44799  11.305  43.973  10.448
76327W        W44800  12.238  25.675   0.470
76328W        W44801  43.289   0.365   1.232
76329W        W44802  37.946  24.650   0.740
76330W        W44803   9.193   1.953   5.243
76331W        W44804  24.089  23.678  11.002
76332W        W44805  14.302  43.910  11.497
76333W        W44806  34.997  39.490  13.801
76334W        W44807   1.790  44.001   3.831
76335W        W44808  25.034  30.610   2.235
76336W        W44809  24.652  25.085  13.047
76337W        W44810  12.613  14.232  14.479
76338W        W44811  17.679  17.568  14.433
76339W        W44812  24.231   2.402  11.462
76340W        W44813  38.076  36.541  12.502
76341W        W44814  29.144  38.073  14.329
76342W        W44815  22.100  44.794   0.441
76343W        W44816   3.249  22.518   4.678
76344W        W44817  15.173  22.622   3.174
76345W        W44818   7.738  34.059  12.988
76346W        W44819  10.207  30.434  14.918
76347W        W44820  36.007  31.506  14.445
76348W        W44821   0.831  43.512  12.044
76349W        W44822  24.486  34.912   4.794
76350W        W44823  36.526   7.317  11.603
76351W        W44824   9.276  28.578  10.561
76352W        W44825   9.342   3.711  14.305
76353W        W44826  18.607  11.797   0.315
76354W        W44827   6.750  31.988   9.949
76355W        W44828  22.068  15.680   2.413
76356W        W44829  42.874   9.801  14.469
76357W        W44830  25.180  17.702  12.438
76358W        W44831  12.619  44.415  10.997
76359W        W44832  32.567   1.948   0.385
76360W        W44833   8.235  35.440   4.331
76361W        W44834  13.335  26.191   4.704
76362W        W44835  36.958  11.848  13.013
76363W        W44836  44.273   3.447   2.286
76364W        W44837  11.317  42.943   4.137
76365W        W44838  33.441  29.535   1.849
76366W        W44839  28.477  40.881   0.313
76367W        W44840  12.746  34.584  13.879
76368W        W44841   4.282  14.675  11.858
76369W        W44842  10.314  16.679   0.966
76370W        W44843  35.397   4.294   2.727
76371W        W44844  24.035  20.712   4.763
76372W        W44845  42.403  36.486   4.170
76373W        W44846  43.943  32.925  13.420
76374W        W44847  10.664  39.448  13.827
76375W        W44848  20.248  20.030  11.862
76376W        W44849  44.440  28.646  12.572
76377W        W44850  30.465  29.961   1.431
76378W        W44851   1.255  10.681  14.998
76379W        W44852  29.175  11.152   1.256
76380W        W44853   9.833  31.457  12.833
76381W        W44854  44.296   5.799   1.742
76382W        W44855   3.751  12.330   4.629
76383W        W44856  40.929  31.557   3.678
76384W        W44857   5.914  40.947   4.270
76385W        W44858  10.369  37.012  11.602
76386W        W44859   6.421  39.036  10.031
76387W        W44860  22.226  20.082  11.129
76388W        W44861  39.394   9.252   2.851
76389W        W44862   3.336  18.286   4.671
76390W        W44863  13.797  23.019  13.916
76391W        W44864  25.516  31.490   2.780
76392W        W44865  14.320  21.261   5.107
76393W        W44866  22.162  11.827  13.883
76394W        W44867  42.021   7.715   3.809
76395W        W44868  38.380  43.875  10.619
76396W        W44869  24.192  42.287  11.554
76397W        W44870  32.573  39.061   0.873
76398W        W44871   4.836  43.419   1.221
76399W        W44872  40.857  33.494  13.529
76400W        W44873  27.589  29.468  13.883
76401W        W44874   1.927  16.124  11.580
76402W        W44875  30.426  35.987   3.773
76403W        W44876  32.025  39.059  12.879
76404W        W44877  38.485  38.533   4.677
76405W        W44878  12.161  36.566   3.171
76406W        W44879  30.421   6.381   2.354
76407W        W44880   9.264  35.442   0.771
76408W        W44881  37.380  16.316  12.954
76409W        W44882  42.318  42.409  12.033
76410W        W44883  37.080  26.071   2.693
76411W        W44884  16.237   5.706  10.995
76412W        W44885  33.923  14.155   0.873
76413W        W44886  14.666  24.590  14.869
76414W        W44887  40.374  11.731   3.252
76415W        W44888  43.852  24.983   4.332
76416W        W44889  17.214  38.011   4.614
76417W        W44890  27.523   5.232  10.405
76418W        W44891  10.288  24.635  13.509
76419W        W44892   2.390  41.938  13.330
76420W        W44893  32.631   6.340  11.428
76421W        W44894   3.832  16.638   1.366
76422W        W44895  19.220  26.102  11.078
76423W        W44896   7.700  14.310  10.429
76424W        W44897  37.527  27.956  12.835
76425W        W44898   1.845  19.183  11.522
76426W        W44899   1.267  39.877  12.077
76427W        W44900  42.776  12.140   0.922
76428W        W44901  12.313  14.251   2.302
76429W        W44902   3.928  23.138  11.906
76430W        W44903   8.693  32.473  11.449
76431W        W44904  10.269  12.169   4.664
76432W        W44905  12.274   6.722   1.741
76433W        W44906  10.650  29.612  11.997
76434W        W44907  24.987  29.953   3.196
76435W        W44908  12.792  41.900   1.708
76436W        W44909  12.646  34.887   1.228
76437W        W44910  25.167  17.722  11.071
76438W        W44911  29.561  29.524  10.480
76439W        W44912  15.155  24.056  14.905
76440W        W44913  34.036  15.639   3.738
76441W        W44914   7.248  42.463  12.968
76442W        W44915  17.655  19.676  14.871
76443W        W44916  12.776  34.964   4.611
76444W        W44917   6.418  37.959   1.309
76445W        W44918   8.285  19.669   1.819
76446W        W44919  29.155  22.619  12.422
76447W        W44920  38.490  37.011   3.635
76448W        W44921  14.663  11.370  13.954
76449W        W44922  33.464   4.838  12.092
76450W        W44923  36.943   3.335   0.950
76451W        W44924  14.230   7.909   3.770
76452W        W44925  31.932   5.438  10.516
76453W        W44926   4.896  33.465   5.191
76454W        W44927  19.274  20.152   0.466
76455W        W44928   9.351  24.574  13.808
76456W        W44929  10.359  25.053   0.880
76457W        W44930  31.039  19.546   0.833
76458W        W44931  30.468   9.314   4.344
76459W        W44932  44.287  27.071   0.814
76460W        W44933  22.066  17.193  13.989
76461W        W44934  17.632  32.900   4.203
76462W        W44935  12.331  42.956  10.485
76463W        W44936  21.543  43.944   4.174
76464W        W44937  24.999   2.252  12.075
76465W        W44938  33.403  17.564   4.749
76466W        W44939  41.947  40.817  13.447
76467W        W44940  18.284  38.039  12.889
76468W        W44941  17.651  26.532  11.541
76469W        W44942  27.552  20.557   2.837
76470W        W44943  29.578   8.277  14.448
76471W        W44944  40.398  39.906   1.890
76472W        W44945  37.459  17.155  14.937
76473W        W44946  29.122   0.302  11.109
76474W        W44947  25.511  29.149   0.795
76475W        W44948  20.664   9.305   0.362
76476W        W44949  21.093  29.580   2.852
76477W        W44950  39.365  38.465   0.267
76478W        W44951  17.096  31.482  14.767
76479W        W44952  14.134   1.285  11.380
76480W        W44953   7.720  10.726  12.453
76481W        W44954  41.021  36.547   3.825
76482W        W44955   2.764  35.579   2.751
76483W        W44956  17.076  36.048   0.263
76484W        W44957  29.657  24.017   5.236
76485W        W44958  29.654  18.105  11.553
76486W        W44959  15.641  37.933  11.008
76487W        W44960   8.305   6.838   1.885
76488W        W44961  39.984   5.362   1.214
76489W        W44962  33.944  34.427  14.336
76490W        W44963  31.984   1.955   1.404
76491W        W44964  37.378  32.031  10.441
76492W        W44965  42.303   4.773   2.697
76493W        W44966  24.064  28.987   3.347
76494W        W44967  22.040  29.635   3.242
76495W        W44968  20.662   6.677  14.010
76496W        W44969  13.708  34.553  14.450
76497W        W44970  17.684  13.769   0.425
76498W        W44971  41.508  43.852  14.817
76499W        W44972  36.944  21.614  13.391
76500W        W44973  26.629  37.058   0.409
76501W        W44974  10.183   8.176  10.615
76502W        W44975  23.073  12.656  12.003
76503W        W44976  29.161  20.658  10.549
76504W        W44977  40.365   1.457  12.091
76505W        W44978   8.311   2.281  14.373
76506W        W44979  30.495  18.286  14.784
76507W        W44980   3.800  27.995   1.259
76508W        W44981   0.305  38.418  14.815
76509W        W44982  36.436   8.294   2.685
76510W        W44983  14.233  31.598  12.047
76511W        W44984  40.445  27.956   0.788
76512W        W44985   8.672  12.120  10.526
76513W        W44986   9.181  43.867   3.377
76514W        W44987  31.064  31.038  10.571
76515W        W44988  42.866  20.185   0.867
76516W        W44989  32.582  40.335  11.893
76517W        W44990  21.751  43.408  12.988
76518W        W44991  33.032  19.266  11.528
76519W        W44992  38.927  37.392   4.213
76520W        W44993  35.384  36.853  14.437
76521W        W44994  23.665  34.017   0.296
76522W        W44995  32.909   3.834  12.036
76523W        W44996  18.769  22.170   1.914
76524W        W44997  10.261   1.421  14.974
76525W        W44998   6.386  26.633  11.511
76526W        W44999  42.899  11.222   9.986
76527W        W45000  12.780  33.623   3.685
76528W        W45001  43.016  10.842  13.436
76529W        W45002   5.330  40.947   2.214
76530W        W45003  38.021  37.462  13.995
76531W        W45004  15.134  30.082  13.533
76532W        W45005  21.088  41.787  14.964
76533W        W45006  44.869  40.325  14.020
76534W        W45007   4.855  41.402  11.473
76535W        W45008  12.804  30.948   4.307
76536W        W45009   8.187  43.828   1.721
76537W        W45010   0.249  29.641   4.314
76538W        W45011  31.493  21.189   2.388
76539W        W45012   2.823   2.763   1.920
76540W        W45013  33.074   0.480  11.460
76541W        W45014  37.865  14.339   4.290
76542W        W45015  41.355   6.247   4.608
76543W        W45016  28.631   9.736  13.818
76544W        W45017  15.750  34.078  14.459
76545W        W45018  19.051   3.279  13.856
76546W        W45019  22.501  15.118  13.992
76547W        W45020  34.972  36.845  13.868
76548W        W45021  43.857  36.996  14.371
76549W        W45022  28.592  15.167  13.444
76550W        W45023  38.023  26.667   0.445
76551W        W45024  27.174  25.677   2.405
76552W        W45025  31.920  41.017   0.268
76553W        W45026  42.456   0.913   4.724
76554W        W45027  13.157   5.720  14.882
76555W        W45028   5.418  27.583  14.777
76556W        W45029  23.565  23.177  10.592
76557W        W45030  25.638  24.997   3.696
76558W        W45031  22.642  17.172  12.495
76559W        W45032   1.804  35.418   4.782
76560W        W45033   7.806  10.338   4.161
76561W        W45034  41.920  19.647  11.102
76562W        W45035  14.751  17.653  10.417
76563W        W45036  38.530  29.957   3.222
76564W        W45037   3.412  27.964  12.391
76565W        W45038  28.471  38.831  12.423
76566W        W45039   0.933  22.627  13.040
76567W        W45040  36.844  17.202   3.380
76568W        W45041   6.280  14.605   2.207
76569W        W45042  38.524   4.740   1.926
76570W        W45043  16.135   2.455   4.644
76571W        W45044   8.896  18.196  12.927
76572W        W45045   7.758  43.870  12.963
76573W        W45046  12.304  21.644   4.600
76574W        W45047  32.952  32.112  11.060
76575W        W45048  18.097  41.962  11.073
76576W        W45049  14.275  11.757  13.854
76577W        W45050  10.793  31.484   0.852
76578W        W45051  34.062  27.483  11.104
76579W        W45052   5.408   3.387   4.129
76580W        W45053  42.345  21.097   4.762
76581W        W45054  33.982  37.999   4.334
76582W        W45055   0.888  24.676   2.752
76583W        W45056  18.695  13.698   4.715
76584W        W45057  18.724   3.313   0.905
76585W        W45058  26.130  19.122   2.212
76586W        W45059  37.408  43.285   0.416
76587W        W45060   0.416  30.443   2.320
76588W        W45061   7.174  38.001   1.827
76589W        W45062  41.020  37.498   1.777
76590W        W45063  43.008   3.948  13.547
76591W        W45064  22.516  36.347  11.493
76592W        W45065   9.841  33.978   3.868
76593W        W45066  37.460   8.353   1.902
76594W        W45067  34.389  24.122  12.897
76595W        W45068  38.828   4.429  12.527
76596W        W45069  42.365  37.446  10.519
76597W        W45070  11.793  14.317   4.616
76598W        W45071  12.817  26.571  13.844
76599W        W45072  34.433   6.882  11.949
76600W        W45073  22.590  29.974  13.415
76601W        W45074  25.073   9.794   4.135
76602W        W45075  13.818  12.308  11.485
76603W        W45076  18.633  27.665  13.804
76604W        W45077   2.368   5.834  11.443
76605W        W45078   5.436  28.120   4.332
76606W        W45079  39.878   0.445   0.437
76607W        W45080  36.548  23.092  11.385
76608W        W45081   4.725  32.522   1.324
76609W        W45082   2.231   1.290  12.094
76610W        W45083   5.811  27.513   2.764
76611W        W45084  40.850  28.617  11.094
76612W        W45085  26.524  36.409   4.274
76613W        W45086   2.901  40.892  14.399
76614W        W45087  16.697  43.862  13.314
76615W        W45088  26.479  42.301   3.366
76616W        W45089  19.534  19.279   0.747
76617W        W45090   7.818   9.170  11.373
76618W        W45091  39.519  22.232   2.710
76619W        W45092   9.654  33.552  13.796
76620W        W45093  20.095  22.187  14.339
76621W        W45094  43.461  38.051   2.874
76622W        W45095  20.150  28.091  11.117
76623W        W45096  17.079   7.733   3.275
76624W        W45097   5.861  34.445  14.894
76625W        W45098  40.357  25.503   0.359
76626W        W45099  44.755   8.405   1.408
76627W        W45100  43.935  24.668   0.874
76628W        W45101  14.137  15.672  14.434
76629W        W45102  36.567   0.395   0.945
76630W        W45103  10.285   1.958   0.906
76631W        W45104  44.326  42.345   2.853
76632W        W45105  18.195  26.511   1.251
76633W        W45106  26.012  34.998  10.986
76634W        W45107  42.354  10.340   0.957
76635W        W45108  22.066  24.101   1.444
76636W        W45109  23.536  32.040   2.240
76637W        W45110  38.519  25.125   5.295
76638W        W45111  36.040  20.526  14.309
76639W        W45112   8.825  41.505   3.803
76640W        W45113  22.505  36.457   4.819
76641W        W45114   7.762   3.835   0.873
76642W        W45115   5.345  16.577  10.616
76643W        W45116   3.809  14.594   1.436
76644W        W45117  33.110   1.803   0.476
76645W        W45118   0.971  23.074   4.634
76646W        W45119  19.188  23.050   2.362
76647W        W45120   5.722  14.189  13.898
76648W        W45121  43.454  37.966   4.639
76649W        W45122  44.417  11.760  11.613
76650W        W45123  36.386  16.789   1.890
76651W        W45124   4.253  37.409  12.451
76652W        W45125  30.933   1.340   2.300
76653W        W45126  14.822  44.804  12.936
76654W        W45127  43.900  42.296   1.430
76655W        W45128  33.537  15.722   5.117
76656W        W45129   2.400  16.658  13.309
76657W        W45130  20.217  35.517   2.759
76658W        W45131   2.737  42.887   4.352
76659W        W45132  33.619  20.071   1.765
76660W        W45133  19.151  20.114   3.631
76661W        W45134  31.046  22.724  12.887
76662W        W45135  15.619  24.191  13.358
76663W        W45136  39.393  11.811   3.175
76664W        W45137  27.523   1.315   0.259
76665W        W45138  23.685  14.694  13.361
76666W        W45139   7.254   4.299   3.335
76667W        W45140  28.492   5.704  10.914
76668W        W45141  36.517  11.852   2.776
76669W        W45142   4.236  24.667   4.332
76670W        W45143  14.823  35.083   1.917
76671W        W45144  19.552  22.532  11.607
76672W        W45145  33.525  13.639  13.376
76673W        W45146  32.075  26.589  14.027
76674W        W45147  43.011  30.467   3.729
76675W        W45148  34.034  33.397  12.013
76676W        W45149  41.359  24.044   1.266
76677W        W45150  13.282   4.819   0.263
76678W        W45151  29.945   3.933  10.971
76679W        W45152  41.881  24.487   4.796
76680W        W45153   3.758   9.232  14.943
76681W        W45154  38.373  28.153   3.280
76682W        W45155  28.058  41.427   0.271
76683W        W45156  21.612  11.793  11.858
76684W        W45157  43.508  10.195  11.906
76685W        W45158   0.257  38.837  10.607
76686W        W45159   9.855  16.132  13.977
76687W        W45160  36.459  39.543   4.296
76688W        W45161  20.711   7.858  10.540
76689W        W45162  26.600  10.298   4.599
76690W        W45163  28.531  18.701  11.497
76691W        W45164  13.173  32.981  10.602
76692W        W45165  41.887  44.823  14.350
76693W        W45166  17.795  17.800   1.335
76694W        W45167   3.875   4.406   2.324
76695W        W45168  24.217  44.433   2.254
76696W        W45169  40.348   6.894   2.664
76697W        W45170  23.705   9.742  11.050
76698W        W45171   4.289   8.691  13.004
76699W        W45172  30.094  43.991   4.293
76700W        W45173  43.358  27.653  12.467
76701W        W45174  40.366  26.552  13.844
76702W        W45175  40.886  40.419   4.691
76703W        W45176  43.326  25.972  11.419
76704W        W45177  17.101  40.928  12.084
76705W        W45178  17.795  22.674  13.400
76706W        W45179  25.705  39.030  14.983
76707W        W45180  34.945  21.072   2.697
76708W        W45181   1.879  19.704   0.477
76709W        W45182  26.681  14.114   1.796
76710W        W45183  13.808  42.008   0.775
76711W        W45184  31.076  22.105  13.506
76712W        W45185   3.860  36.845  11.108
76713W        W45186  23.025  16.281  10.929
76714W        W45187   7.192  26.011   3.283
76715W        W45188  16.230   1.341  11.497
76716W        W45189   4.924  14.671   4.642
76717W        W45190  19.535  21.031   2.401
76718W        W45191  23.706  23.132   1.403
76719W        W45192  37.992  25.204  12.935
76720W        W45193  22.227  22.537   4.657
76721W        W45194  19.067  19.599  12.900
76722W        W45195  26.067  20.103   1.883
76723W        W45196  21.632  20.038   1.757
76724W        W45197  33.947  39.901   1.886
76725W        W45198   5.211  16.599   5.236
76726W        W45199  27.579  36.097  13.045
76727W        W45200   1.461  38.019  10.631
76728W        W45201   6.753  42.999   3.219
76729W        W45202  15.593  22.659  11.391
76730W        W45203   9.652  35.061   2.395
76731W        W45204  24.163  44.967  10.012
76732W        W45205  32.043  14.653   1.707
76733W        W45206   5.228  31.529   3.221
76734W        W45207   6.395  33.964   4.829
76735W        W45208  20.075  31.039  14.017
76736W        W45209  25.494  40.848   3.191
76737W        W45210  35.488   0.827  12.432
76738W        W45211  30.426  28.049  12.367
76739W        W45212   7.394   6.770  13.999
76740W        W45213   7.219  33.975   3.778
76741W        W45214  11.700   4.704   3.230
76742W        W45215  42.804   3.305  12.921
76743W        W45216   0.357  17.609  13.932
76744W        W45217  10.779  28.976  12.363
76745W        W45218  31.085  23.548  10.003
76746W        W45219  42.397  27.527   1.315
76747W        W45220  36.369  35.994  13.408
76748W        W45221   0.305  32.456   3.784
76749W        W45222   0.408  11.202   0.849
76750W        W45223  37.573   0.935   2.731
76751W        W45224  16.704  20.737  12.988
76752W        W45225  37.463  41.804  10.499
76753W        W45226  13.273  33.921  13.401
76754W        W45227  14.336  27.158  13.518
76755W        W45228  15.232  17.147   3.326
76756W        W45229  20.036  10.834  10.901
76757W        W45230  10.147  23.556   0.416
76758W        W45231  31.553  34.614  10.577
76759W        W45232  33.080   6.205   0.955
76760W        W45233  27.034   1.845  11.006
76761W        W45234  38.558   1.806  13.539
76762W        W45235  30.036   2.234   3.371
76763W        W45236  34.511  43.293  14.975
76764W        W45237  13.154  27.683  13.481
76765W        W45238  33.455  38.037  14.843
76766W        W45239  24.670   7.724  12.560
76767W        W45240  23.164  14.805   2.367
76768W        W45241  27.664  27.507   3.860
76769W        W45242   8.218  31.457   1.889
76770W        W45243  32.980  16.278   1.932
76771W        W45244  34.500  30.918  10.465
76772W        W45245   8.360  19.232  12.910
76773W        W45246   6.219  29.620  12.357
76774W        W45247  40.532  27.047   4.207
76775W        W45248  18.554   4.437   4.682
76776W        W45249  23.575  28.118  11.075
76777W        W45250  44.916   2.797   1.795
76778W        W45251  12.660  12.191   2.774
76779W        W45252  39.996   4.308   4.304
76780W        W45253  21.077   7.740  12.368
76781W        W45254  19.166  28.019  12.833
76782W        W45255  40.005  39.922  13.482
76783W        W45256  28.171  29.566   1.894
76784W        W45257  17.150  43.349   1.430
76785W        W45258   8.284   9.648   2.240
76786W        W45259  11.632   8.263   2.360
76787W        W45260  34.926   1.853   5.137
76788W        W45261  43.878  37.422   4.246
76789W        W45262  32.092  29.494   3.686
76790W        W45263  10.689   2.880   0.334
76791W        W45264  35.445  30.134  13.830
76792W        W45265  10.161  23.045   3.265
76793W        W45266  42.521  44.860  14.011
76794W        W45267  40.516  15.194   2.315
76795W        W45268  36.368  42.898  10.590
76796W        W45269  28.181  31.102   0.892
76797W        W45270  35.555   1.816  12.578
76798W        W45271   0.776  20.740   0.787
76799W        W45272   9.797   1.258   0.831
76800W        W45273  15.588   0.354  12.421
76801W        W45274  40.521  10.230  11.032
76802W        W45275  14.677   1.814   5.104
76803W        W45276  15.822   0.919  10.617
76804W        W45277   9.660  12.744   1.223
76805W        W45278  32.518  12.806  14.912
76806W        W45279  40.426   9.364   2.201
76807W        W45280  29.985   5.810  13.945
76808W        W45281   4.744  29.594  13.801
76809W        W45282   7.693   9.840  12.041
76810W        W45283  32.964  37.433   1.349
76811W        W45284  15.760  37.559  14.323
76812W        W45285  32.481  27.982  10.483
76813W        W45286  39.883  12.283  11.471
76814W        W45287   0.420  33.526   0.360
76815W        W45288  40.449  24.523  11.553
76816W        W45289  14.268  40.968   1.834
76817W        W45290  38.465   9.284  14.499
76818W        W45291  33.606  27.475  13.945
76819W        W45292  33.545  24.124   4.705
76820W        W45293  44.994  20.625   1.898
76821W        W45294  38.036   3.450  13.387
76822W        W45295  11.862   3.298  14.486
76823W        W45296  32.895  16.606  14.490
76824W        W45297  38.003  36.507  12.080
76825W        W45298  25.204  36.884   4.644
76826W        W45299  22.056  44.816  14.489
76827W        W45300   5.739  44.999  11.538
76828W        W45301  12.787  15.267  13.483
76829W        W45302  38.891   3.295  13.851
76830W        W45303   4.451  36.877  13.518
76831W        W45304  18.667  11.664   2.417
76832W        W45305  16.798  40.453  13.529
76833W        W45306   2.385  39.468   1.824
76834W        W45307   7.182  21.615   4.777
76835W        W45308  40.347  39.903   4.138
76836W        W45309   4.291  22.715   2.267
76837W        W45310  26.020  43.291  11.488
76838W        W45311   4.230  11.796  10.524
76839W        W45312  35.539  36.347  10.635
76840W        W45313  35.037  28.057   1.437
76841W        W45314  41.439  12.738  14.819
76842W        W45315  32.532  32.954  14.334
76843W        W45316   0.832   3.427   0.413
76844W        W45317  28.178  10.721   0.392
76845W        W45318  31.105  29.134  14.341
76846W        W45319  40.530  18.237   5.123
76847W        W45320  31.089  28.119  10.568
76848W        W45321   0.874  25.581  11.393
76849W        W45322  28.598  16.590   3.328
76850W        W45323  25.072  42.524   1.873
76851W        W45324   3.359   3.253  12.375
76852W        W45325  34.087  30.558  11.032
76853W        W45326  31.446  20.076   3.311
76854W        W45327  32.130  21.754   2.265
76855W        W45328  27.949   7.272   3.177
76856W        W45329   4.748  39.436   3.680
76857W        W45330   1.475  19.762   4.275
76858W        W45331   3.841  44.502  10.424
76859W        W45332  21.730  40.436  10.464
76860W        W45333  35.369  17.204   1.299
76861W        W45334  31.642  16.643  12.032
76862W        W45335  40.969  13.618   0.759
76863W        W45336  22.126  30.459   2.368
76864W        W45337  14.278  24.999  13.827
76865W        W45338  19.714   1.348  14.291
76866W        W45339   9.359  42.821   1.448
76867W        W45340  26.007  31.117   3.706
76868W        W45341  12.259   9.312   3.841
76869W        W45342  29.053  39.925   4.600
76870W        W45343   5.884  23.185  11.534
76871W        W45344  41.846  26.539  14.400
76872W        W45345   3.383  19.683  11.570
76873W        W45346   1.808  39.905  14.007
76874W        W45347  40.455  14.636  14.410
76875W        W45348   7.846   4.292  13.004
76876W        W45349   0.947  10.761  11.419
76877W        W45350  29.921  24.719  10.076
76878W        W45351  44.416   6.688   3.207
76879W        W45352  44.811   6.685   2.186
76880W        W45353  33.882  35.885  11.404
76881W        W45354  31.634  21.738   4.761
76882W        W45355   7.313  36.903   4.724
76883W        W45356  19.182  10.151   2.789
76884W        W45357  17.127  35.057  10.568
76885W        W45358  19.765  32.980   2.405
76886W        W45359  33.623  19.040   0.960
76887W        W45360  44.829  18.259  12.080
76888W        W45361  26.541  33.481  14.989
76889W        W45362  14.267  10.746  11.397
76890W        W45363  41.482  12.838  10.552
76891W        W45364  41.981  26.056   3.362
76892W        W45365  36.885  35.533   4.196
76893W        W45366   9.719  20.143  14.337
76894W        W45367  26.969   4.261   3.373
76895W        W45368   0.902   7.208   1.763
76896W        W45369  28.079  12.162  10.464
76897W        W45370  34.976  28.517   2.783
76898W        W45371  37.890  30.133   2.857
76899W        W45372  44.284  20.067   0.459
76900W        W45373  35.495  37.482  10.497
76901W        W45374  14.726  18.120   3.759
76902W        W45375  25.586  32.490  11.425
76903W        W45376  29.571  19.129  12.487
76904W        W45377  38.903   8.187  12.887
76905W        W45378  30.501  20.246  10.501
76906W        W45379  33.427  30.625   1.348
76907W        W45380   8.724  11.626   3.246
76908W        W45381   1.923   6.728  10.597
76909W        W45382  38.364  34.560  12.064
76910W        W45383  13.345  34.477   4.182
76911W        W45384  42.333  28.028   2.822
76912W        W45385  16.305  10.845  12.393
76913W        W45386   1.859  14.768   0.443
76914W        W45387  39.326   3.789  11.491
76915W        W45388   3.335  39.355  12.530
76916W        W45389  28.436   8.657  14.938
76917W        W45390  30.129  20.717   2.402
76918W        W45391   1.746  39.420   1.701
76919W        W45392  31.405   3.799   3.192
76920W        W45393  23.113   8.748  13.453
76921W        W45394  14.826  29.574   2.309
76922W        W45395  42.838  30.139   4.682
76923W        W45396  30.938  14.816  14.982
76924W        W45397  18.156  15.817   0.254
76925W        W45398  27.616  41.392   2.411
76926W        W45399   8.763  28.094  14.944
76927W        W45400   6.401  27.033  11.446
76928W        W45401  17.061  10.241  12.986
76929W        W45402   5.347   8.393   4.683
76930W        W45403  26.670   7.899  14.798
76931W        W45404  11.667   6.406   1.230
76932W        W45405  10.710   2.339  12.097
76933W        W45406   3.766  44.815  10.931
76934W        W45407   3.363  31.073   1.848
76935W        W45408  10.260  27.965  11.931
76936W        W45409  20.698  33.047   0.831
76937W        W45410  37.392  34.878  11.020
76938W        W45411  13.660  23.663   3.662
76939W        W45412   4.352  19.248  12.496
76940W        W45413  25.654  32.929  12.521
76941W        W45414  38.325  31.605  10.547
76942W        W45415   7.672  41.013  13.010
76943W        W45416   7.773  43.992   3.827
76944W        W45417  43.455  22.012   3.774
76945W        W45418  35.857  13.607  12.397
76946W        W45419  27.101  43.473   3.152
76947W        W45420  25.690  40.032   1.695
76948W        W45421  15.637   9.733  13.443
76949W        W45422   6.800  40.861   0.314
76950W        W45423   3.379  14.277  14.874
76951W        W45424  29.549  35.512  14.369
76952W        W45425  22.099  38.991   0.790
76953W        W45426   6.249  24.723   3.196
76954W        W45427  24.580  13.828  14.838
76955W        W45428  15.788  23.149   2.789
76956W        W45429  31.079  23.033  13.344
76957W        W45430  29.959  21.222  13.956
76958W        W45431   0.303  18.255  12.836
76959W        W45432  33.522   8.175   0.789
76960W        W45433  33.469  36.967   3.287
76961W        W45434  17.088  44.862  14.326
76962W        W45435  43.509  42.473  10.955
76963W        W45436  31.932   5.830   1.794
76964W        W45437   3.321  19.151   2.774
76965W        W45438   7.671  24.019   0.940
76966W        W45439   6.858   4.213   3.273
76967W        W45440  25.649  28.522   4.631
76968W        W45441   1.751  18.239   3.164
76969W        W45442  44.787  43.826  14.489
76970W        W45443  28.082  33.050  14.916
76971W        W45444  43.789  44.864  12.515
76972W        W45445  33.053   4.808   0.315
76973W        W45446  43.008   0.310  10.084
76974W        W45447  14.665   8.398  10.573
76975W        W45448  40.317  28.639  10.957
76976W        W45449  34.611   6.731  13.321
76977W        W45450  18.241  27.959  11.124
76978W        W45451  29.448   5.213   1.355
76979W        W45452  34.872  35.482   0.776
76980W        W45453   2.362  25.204   1.428
76981W        W45454  22.672  32.575  13.324
76982W        W45455  19.067   0.315   4.829
76983W        W45456  11.228  16.724   1.215
76984W        W45457  14.325   3.853  12.541
76985W        W45458  31.529  28.593   1.851
76986W        W45459   2.431  44.293  14.315
76987W        W45460  23.529  10.241  14.446
76988W        W45461  14.776  44.003   3.729
76989W        W45462  18.626  38.492   0.842
76990W        W45463  20.546  40.469   3.376
76991W        W45464  31.019  15.738  13.985
76992W        W45465  25.167   2.402  10.577
76993W        W45466  28.467  22.216   4.810
76994W        W45467  28.645  19.727   2.186
76995W        W45468  27.673  13.267  14.788
76996W        W45469  40.323  33.019  13.400
76997W        W45470  42.980  35.477   0.751
76998W        W45471   1.478  33.520  11.377
76999W        W45472  22.249  23.113  12.363
77000W        W45473  40.863  16.224   0.945
77001W        W45474  14.228   3.244   1.826
77002W        W45475   8.667   5.872   0.857
77003W        W45476  22.736  31.962  11.860
77004W        W45477   1.770  22.079   4.715
77005W        W45478   6.856  40.422   3.689
77006W        W45479  25.533   0.833   2.274
77007W        W45480  15.727  31.119  13.931
77008W        W45481  36.391  36.847   3.234
77009W        W45482  15.709  12.718   0.903
77010W        W45483   2.851  20.175  14.345
77011W        W45484  21.107  25.603   2.310
77012W        W45485   5.359   1.398   0.352
77013W        W45486  10.702  14.155   1.414
77014W        W45487  26.658  25.696   0.823
77015W        W45488   8.223  12.119   0.828
77016W        W45489  33.882  44.760   4.326
77017W        W45490  10.256   4.249   3.262
77018W        W45491   2.420  44.379   2.338
77019W        W45492  41.381  20.093  13.357
77020W        W45493  33.428  39.405  13.048
77021W        W45494  18.627  32.456  14.811
77022W        W45495  42.945  25.688   4.282
77023W        W45496  44.938  19.705  14.991
77024W        W45497  38.887  16.678   0.754
77025W        W45498  24.055  18.583   0.775
77026W        W45499  32.510   5.302   4.220
77027W        W45500  14.685  27.973  10.157
77028W        W45501  21.052   6.864   0.780
77029W        W45502  17.109  40.052  13.977
77030W        W45503  14.221   3.392   4.746
77031W        W45504  17.272   5.704  13.979
77032W        W45505  27.959  13.304   3.146
77033W        W45506  42.388  16.636   4.200
77034W        W45507  20.215  40.850  14.461
77035W        W45508  30.031  18.647   1.282
77036W        W45509  37.857  32.496  11.069
77037W        W45510  27.949  10.772  11.062
77038W        W45511  42.870   5.427   0.800
77039W        W45512  24.627  23.520   1.703
77040W        W45513   0.928  27.485  14.834
77041W        W45514  42.510  16.665   3.824
77042W        W45515  17.119  27.643   2.846
77043W        W45516  18.140  44.984   1.846
77044W        W45517  42.381  27.676   2.794
77045W        W45518  37.487   9.712  14.012
77046W        W45519  16.313  32.102  12.957
77047W        W45520  10.189  36.486   9.929
77048W        W45521   9.152   1.387   4.626
77049W        W45522  32.494  38.427   4.673
77050W        W45523  21.696   2.454  13.955
77051W        W45524   1.825  35.594   0.963
77052W        W45525  11.263  34.544   0.808
77053W        W45526   0.473  29.972  10.947
77054W        W45527  12.196  21.560  13.493
77055W        W45528   1.472  18.234   3.839
77056W        W45529  21.142  43.437  13.966
77057W        W45530   3.427  38.335  11.587
77058W        W45531   4.405   6.356   0.420
77059W        W45532  36.351  28.593  12.416
77060W        W45533  43.442  12.732  12.413
77061W        W45534   9.868  34.026  13.965
77062W        W45535   6.701  15.090   5.683
77063W        W45536  42.876  12.165   2.831
77064W        W45537  32.037  13.283  12.827
77065W        W45538   9.738  40.512   2.879
77066W        W45539   8.348  36.561   1.262
77067W        W45540  22.700  35.534   3.211
77068W        W45541   2.343   7.701  14.867
77069W        W45542  15.811  19.067  13.463
77070W        W45543   1.883  31.947  14.938
77071W        W45544  20.103   0.880  13.380
77072W        W45545  37.565  16.248  11.445
77073W        W45546  24.515   6.227   3.631
77074W        W45547   9.175  43.479  10.935
77075W        W45548  43.857  34.044  11.385
77076W        W45549  16.237  21.686  10.908
77077W        W45550  34.903  33.470  11.494
77078W        W45551  22.113   9.803  11.914
77079W        W45552  20.104   9.273  14.327
77080W        W45553  36.896   5.217   1.235
77081W        W45554  14.267  13.181   1.755
77082W        W45555  36.557  30.054   2.749
77083W        W45556  11.652  35.077   2.846
77084W        W45557  25.003  32.894   1.338
77085W        W45558  26.121   2.273  11.423
77086W        W45559  16.600   3.768   2.381
77087W        W45560  11.152  40.359   3.785
77088W        W45561   3.284  36.447   2.265
77089W        W45562  40.843  11.155   3.696
77090W        W45563  24.161  12.157  14.983
77091W        W45564  44.462   4.804   3.198
77092W        W45565  27.004  10.700  13.530
77093W        W45566   1.868  44.801  13.019
77094W        W45567  16.804  21.137  13.963
77095W        W45568  44.310  32.413  12.414
77096W        W45569   9.211  44.768   2.758
77097W        W45570  33.531  36.844   0.929
77098W        W45571   9.880  11.192   4.609
77099W        W45572   4.213  41.383  12.430
77100W        W45573  20.046  32.913   1.918
77101W        W45574  31.082  16.315   4.603
77102W        W45575  24.606  36.486   4.291
77103W        W45576  20.726  31.930  13.987
77104W        W45577  28.166  26.033   1.807
77105W        W45578  37.029   2.738  12.853
77106W        W45579  43.828  44.354   1.350
77107W        W45580  42.778   1.277   2.840
77108W        W45581  19.697  27.980   3.191
77109W        W45582  11.652  33.493   2.200
77110W        W45583  18.714  20.615   4.650
77111W        W45584   3.241  35.392  12.496
77112W        W45585  32.903  34.429  10.964
77113W        W45586  12.152  38.501  14.392
77114W        W45587   5.433  20.718   4.652
77115W        W45588  14.637   4.815  10.525
77116W        W45589   6.352  11.149   4.810
77117W        W45590  16.288   2.748   3.264
77118W        W45591   9.234  38.020  11.898
77119W        W45592  32.954  22.125   1.911
77120W        W45593  24.197   1.286  12.058
77121W        W45594  17.155  38.897   2.198
77122W        W45595   6.761   1.842   3.649
77123W        W45596  18.139  24.149  11.920
77124W        W45597  11.351  23.221   3.708
77125W        W45598  43.916  40.043  14.962
77126W        W45599  37.962  29.985  10.473
77127W        W45600  34.906   6.212   4.835
77128W        W45601  16.789   1.423   1.899
77129W        W45602   3.893  40.837  12.033
77130W        W45603  34.996  29.171   0.367
77131W        W45604  32.936   8.841  13.011
77132W        W45605   6.282  38.929   3.666
77133W        W45606  33.066  20.159  12.057
77134W        W45607  29.014  21.691   0.243
77135W        W45608  14.824  21.200  14.005
77136W        W45609  10.700  44.469  12.837
77137W        W45610  41.384  36.429  11.469
77138W        W45611  11.174   0.421  13.329
77139W        W45612  15.104  27.101   4.600
77140W        W45613  20.620  32.436   0.402
77141W        W45614  13.328  18.129  14.786
77142W        W45615  17.775  20.685   0.295
77143W        W45616  25.057   8.658  13.523
77144W        W45617  21.150  43.002  14.793
77145W        W45618  18.264  34.453  10.448
77146W        W45619  26.146   8.360  11.528
77147W        W45620  36.045   5.375  14.364
77148W        W45621  23.135  11.151  13.314
77149W        W45622   2.728  11.175  14.825
77150W        W45623  41.526  17.581  13.380
77151W        W45624  12.812  42.861  10.625
77152W        W45625  26.188  22.741   0.779
77153W        W45626  36.378  44.483   4.143
77154W        W45627  30.158  13.131   1.376
77155W        W45628  26.669  26.030  13.540
77156W        W45629   6.336  37.346   2.377
77157W        W45630  36.920  38.956   1.315
77158W        W45631  19.235   2.438   3.819
77159W        W45632  33.460  24.605   4.185
77160W        W45633   0.461  22.620   4.733
77161W        W45634  43.947  38.556  14.490
77162W        W45635  41.037  38.827  14.877
77163W        W45636  16.202  41.974  13.379
77164W        W45637  36.919  33.515   3.201
77165W        W45638   8.207  39.006   3.680
77166W        W45639  32.892  39.979  14.284
77167W        W45640   2.229   7.708  11.883
77168W        W45641  22.076  13.158  13.896
77169W        W45642  16.601  16.789  12.017
77170W        W45643  43.839  22.080  14.958
77171W        W45644   2.370  36.932   1.368
77172W        W45645  34.885  33.890  14.361
77173W        W45646  23.621   3.301   2.840
77174W        W45647   1.251  44.366   3.845
77175W        W45648  31.152  41.953  12.570
77176W        W45649   7.387  19.221   1.880
77177W        W45650  36.445  27.149  10.485
77178W        W45651   3.741  32.102   5.102
77179W        W45652  41.029  11.178  13.876
77180W        W45653  27.105  24.033  12.535
77181W        W45654  17.635  23.068  14.462
77182W        W45655   2.288  44.950   4.826
77183W        W45656  14.733  22.238  14.364
77184W        W45657  34.602  10.195   3.316
77185W        W45658  42.380  35.528  10.456
77186W        W45659   0.989  42.386  12.339
77187W        W45660   1.250  10.732   2.854
77188W        W45661  19.149  14.610   0.294
77189W        W45662  37.550  35.986   3.193
77190W        W45663  32.114  40.867   2.680
77191W        W45664   4.832  41.472   4.694
77192W        W45665  12.135  37.476  11.030
77193W        W45666  30.994   0.956  11.486
77194W        W45667   0.962  17.794   3.150
77195W        W45668  11.752   7.350  10.137
77196W        W45669  16.728   5.739  11.449
77197W        W45670   6.213  23.713   4.757
77198W        W45671  38.376   8.716  12.919
77199W        W45672  24.144  24.983  12.843
77200W        W45673  36.971  42.933   4.836
77201W        W45674  16.765   1.482  11.529
77202W        W45675  34.874   6.332  14.947
77203W        W45676  34.109  36.075  14.886
77204W        W45677  37.903  23.141  12.894
77205W        W45678  22.240  29.077  11.947
77206W        W45679  11.321   9.734  14.353
77207W        W45680  42.004   5.366   4.743
77208W        W45681   2.324   3.271  12.918
77209W        W45682  32.913  18.267   3.862
77210W        W45683   5.925   3.400  14.952
77211W        W45684   5.384  43.487  14.964
77212W        W45685   3.241  21.112   4.810
77213W        W45686  19.651  20.035  10.920
77214W        W45687  31.963  25.612   3.233
77215W        W45688  29.509  30.475   1.274
77216W        W45689   7.765  30.536   5.213
77217W        W45690   3.881  39.870  11.046
77218W        W45691  44.432  44.900  14.458
77219W        W45692   9.152  25.695  13.340
77220W        W45693  41.405  13.782  11.430
77221W        W45694   7.387  21.129   2.333
77222W        W45695   9.769  28.993   0.347
77223W        W45696  23.611  26.672  14.935
77224W        W45697   0.971  28.060  10.919
77225W        W45698  26.564  29.143  12.400
77226W        W45699  11.806  16.579   1.854
77227W        W45700   6.780  34.018  14.363
77228W        W45701   7.718  27.518  11.076
77229W        W45702   8.835   5.289  10.908
77230W        W45703  40.990   2.844   3.732
77231W        W45704  31.008  24.228  13.992
77232W        W45705  14.286  27.078   2.234
77233W        W45706  22.643  29.479   0.361
77234W        W45707  41.293  27.545  14.284
77235W        W45708  16.283   0.915  12.541
77236W        W45709  16.608  13.745   1.254
77237W        W45710  39.882  16.186  10.432
77238W        W45711  17.135  40.505   4.332
77239W        W45712  39.354   4.835  13.502
77240W        W45713  19.615  37.545   4.122
77241W        W45714  10.204   3.856  11.540
77242W        W45715   7.881  20.084   2.244
77243W        W45716   4.735  13.815  13.473
77244W        W45717  10.323  32.934  12.949
77245W        W45718  42.519  15.782   4.188
77246W        W45719  15.754   1.742  10.005
77247W        W45720   0.368  27.575  12.462
77248W        W45721  31.423  17.692  12.391
77249W        W45722  26.985   0.285  11.489
77250W        W45723  16.710  21.717   0.358
77251W        W45724  20.556   6.772   0.769
77252W        W45725   9.174  36.563   4.682
77253W        W45726  24.097  42.487  12.090
77254W        W45727   6.756   3.460  14.939
77255W        W45728  28.561  31.553   1.212
77256W        W45729  13.312  39.833  13.857
77257W        W45730  14.150  38.964   2.315
77258W        W45731  44.458  35.453   4.757
77259W        W45732   5.271  31.963  13.861
77260W        W45733  31.995   5.884   3.348
77261W        W45734  30.455   0.260  12.393
77262W        W45735  30.444   7.257   2.853
77263W        W45736  39.867  42.392   1.827
77264W        W45737  36.080  32.578   4.204
77265W        W45738  19.680  21.215  14.008
77266W        W45739  13.700  24.642  10.515
77267W        W45740   3.313   1.735  13.340
77268W        W45741  36.583  44.476  12.908
77269W        W45742  30.426  31.492   2.200
77270W        W45743  26.062   9.646  14.474
77271W        W45744  19.660  28.947   4.336
77272W        W45745  17.749  43.837   0.398
77273W        W45746  26.073  19.240  13.394
77274W        W45747   4.354  40.911   3.774
77275W        W45748  17.791  42.873  14.908
77276W        W45749  18.234   2.778  14.928
77277W        W45750  23.593  21.213  14.864
77278W        W45751  22.715  44.434   3.822
77279W        W45752  41.830  41.358  14.918
77280W        W45753  17.613  15.284   0.479
77281W        W45754  34.505  26.168   2.397
77282W        W45755  11.735  11.273   4.136
77283W        W45756   5.931   4.420  10.436
77284W        W45757  14.665  32.006   2.821
77285W        W45758  41.396  21.718   4.193
77286W        W45759  15.095  39.316   1.303
77287W        W45760  37.503  11.628  13.832
77288W        W45761  19.728  31.970  11.017
77289W        W45762  43.814   8.293  13.899
77290W        W45763  25.175  40.025   0.341
77291W        W45764  27.170  42.339  12.950
77292W        W45765   9.840   3.413  13.344
77293W        W45766  32.906  27.530   1.263
77294W        W45767  27.584   0.317  10.085
77295W        W45768   2.849  15.709   0.834
77296W        W45769   9.833  31.559   1.311
77297W        W45770  19.275  27.535  11.376
77298W        W45771  38.907  15.160  13.838
77299W        W45772   9.367  38.341   3.762
77300W        W45773  39.933  36.977  11.506
77301W        W45774  24.127  17.077  13.994
77302W        W45775  28.534  35.919   1.790
77303W        W45776   7.856  26.960  14.393
77304W        W45777  11.626  30.644   0.953
77305W        W45778  40.914  31.574   1.921
77306W        W45779  15.712  29.024  11.436
77307W        W45780  18.233  29.624  12.484
77308W        W45781  36.090  12.183  12.418
77309W        W45782  16.237  29.155   3.669
77310W        W45783  19.160  37.499   0.859
77311W        W45784   5.930  15.176  13.032
77312W        W45785   4.390  14.797   3.786
77313W        W45786   7.336  25.144  13.853
77314W        W45787   6.398   4.747   1.383
77315W        W45788  21.110   8.890   1.368
77316W        W45789   8.867   7.844  10.609
77317W        W45790  13.285  33.480  11.945
77318W        W45791   5.736  20.608   2.890
77319W        W45792  44.417  37.064  13.424
77320W        W45793  14.268   5.787   4.237
77321W        W45794  36.058  25.546   0.464
77322W        W45795  16.289  29.092  11.100
77323W        W45796  43.915  33.095  14.313
77324W        W45797  22.537  21.689   3.335
77325W        W45798   1.308  10.261   2.710
77326W        W45799  23.194  29.957   1.402
77327W        W45800  16.296  21.068  14.009
77328W        W45801  26.686  17.194  14.874
77329W        W45802   5.418  26.629   1.753
77330W        W45803  30.077  25.618   1.238
77331W        W45804   1.879  12.745   2.384
77332W        W45805   2.762   8.199  10.911
77333W        W45806  27.466  34.588  12.006
77334W        W45807   4.792  25.623   1.283
77335W        W45808   2.445  29.942  10.914
77336W        W45809  37.472  33.927   0.425
77337W        W45810   7.790  14.264   3.707
77338W        W45811   8.319  11.764   3.724
77339W        W45812  25.530   2.967   1.430
77340W        W45813  22.635  21.238  11.063
77341W        W45814   3.442  16.590   3.692
77342W        W45815  36.432  28.981  13.967
77343W        W45816  29.549  40.948  10.457
77344W        W45817   5.933  15.593  14.912
77345W        W45818   5.709  16.273   4.122
77346W        W45819  40.929  36.505   4.192
77347W        W45820  31.129  10.332   2.666
77348W        W45821  10.682  30.005   3.669
77349W        W45822   6.702  22.526   0.454
77350W        W45823  37.441  16.812  14.923
77351W        W45824  35.907   7.798  14.032
77352W        W45825   6.916   5.313   4.691
77353W        W45826  30.074  20.208  10.414
77354W        W45827  26.642   6.906  11.021
77355W        W45828   9.818   7.311  14.289
77356W        W45829  22.714  26.005   4.281
77357W        W45830   3.408  36.449   4.609
77358W        W45831  13.153  24.207   3.688
77359W        W45832  36.939  38.453  12.856
77360W        W45833   0.943  30.465   2.674
77361W        W45834  15.724   3.790   4.683
77362W        W45835  25.163  13.232  12.036
77363W        W45836  20.679  41.422   3.259
77364W        W45837   4.917  30.163   1.710
77365W        W45838  18.289  24.490   3.766
77366W        W45839  38.067   1.938   2.366
77367W        W45840  34.117  28.491  12.345
77368W        W45841  13.260  24.554  11.530
77369W        W45842  30.624   2.813   3.838
77370W        W45843  16.587  11.302   4.674
77371W        W45844  42.286  26.667  11.919
77372W        W45845   3.946  25.525  12.836
77373W        W45846  23.211  25.106  11.482
77374W        W45847  38.836  28.445  12.960
77375W        W45848  42.311  17.116   2.406
77376W        W45849  41.419  11.269   0.274
77377W        W45850  26.983  44.335  12.532
77378W        W45851  41.032  18.229   0.866
77379W        W45852  12.620   5.325  12.477
77380W        W45853   7.844   3.849   3.325
77381W        W45854  36.517  34.964  14.290
77382W        W45855  39.506   2.329  11.916
77383W        W45856   9.701  22.138   9.443
77384W        W45857   3.913   0.424   3.149
77385W        W45858  27.066  23.139  12.482
77386W        W45859  15.655   1.480   4.216
77387W        W45860  24.984  29.054  13.791
77388W        W45861  43.792   0.384  12.404
77389W        W45862  28.581  29.438  13.343
77390W        W45863  22.508  33.876  14.942
77391W        W45864   7.389  24.534  10.454
77392W        W45865  33.126   4.942   3.691
77393W        W45866   4.798  16.198   3.835
77394W        W45867  43.853  31.037  12.344
77395W        W45868  30.466  29.453  14.459
77396W        W45869  34.068  42.382   2.840
77397W        W45870  27.974  37.472  10.445
77398W        W45871  35.034   0.428  11.553
77399W        W45872  28.048  23.058  14.936
77400W        W45873   4.848  23.583   4.119
77401W        W45874  41.307  26.966   0.767
77402W        W45875  12.186  18.225   0.267
77403W        W45876  16.736  12.857  14.310
77404W        W45877  37.349  31.550   2.825
77405W        W45878  24.014   4.437  14.879
77406W        W45879  37.428  13.755  12.505
77407W        W45880   0.766  22.186  13.413
77408W        W45881   5.363   3.440  10.624
77409W        W45882   1.352  24.064  13.917
77410W        W45883  16.759  24.139   2.753
77411W        W45884   3.799  40.029  11.397
77412W        W45885  23.699   7.695  11.598
77413W        W45886  41.388   8.674  10.606
77414W        W45887   1.320  14.687  12.923
77415W        W45888  31.626   6.753   4.339
77416W        W45889  15.205   8.262   0.408
77417W        W45890  43.326  20.048  13.044
77418W        W45891  43.958  44.288   3.631
77419W        W45892   9.745  14.152   1.365
77420W        W45893  32.137  17.704   0.297
77421W        W45894   9.778  10.320  12.034
77422W        W45895  36.456  33.527  13.819
77423W        W45896  14.685   8.657  14.870
77424W        W45897  11.213  22.573  14.419
77425W        W45898  41.378   8.321   1.253
77426W        W45899  33.935  13.151   4.250
77427W        W45900  28.029  17.302   3.361
77428W        W45901  28.580  33.063  12.910
77429W        W45902  10.202  37.410  13.871
77430W        W45903   5.857  26.485   0.248
77431W        W45904  26.623  22.674   3.257
77432W        W45905  37.578  43.307   4.167
77433W        W45906  22.714  38.480   0.825
77434W        W45907  15.751  17.703   9.939
77435W        W45908  30.460  26.551   5.280
77436W        W45909  31.052  39.371   1.933
77437W        W45910  14.225  18.586   4.662
77438W        W45911  44.006  29.959   1.762
77439W        W45912   3.335  16.806  11.103
77440W        W45913  40.041  18.547  13.945
77441W        W45914  34.929  38.014  10.921
77442W        W45915  28.937  13.823  10.578
77443W        W45916  10.769  25.032  12.835
77444W        W45917   2.877   7.341  12.415
77445W        W45918  42.508  14.164   1.366
77446W        W45919   8.249  41.925   2.667
77447W        W45920  28.006  27.608  11.389
77448W        W45921   7.910  36.363   4.352
77449W        W45922  20.273  11.826  10.958
77450W        W45923   2.363  35.509   0.927
77451W        W45924  23.132  15.187   9.575
77452W        W45925   7.674  25.115  10.569
77453W        W45926  43.995  16.270  12.051
77454W        W45927   3.426   9.164  11.944
77455W        W45928  26.575   1.258   5.238
77456W        W45929   9.280   7.895  11.488
77457W        W45930  18.203   3.788   1.812
77458W        W45931   2.241  18.791   4.197
77459W        W45932  31.555  39.504  10.443
77460W        W45933  17.692   0.367  14.301
77461W        W45934   0.468  40.049  14.345
77462W        W45935   0.492  26.594  11.868
77463W        W45936  15.785   2.876  14.475
77464W        W45937  25.474  26.639  14.891
77465W        W45938  16.726  41.466  10.466
77466W        W45939  39.825  13.305  14.948
77467W        W45940  17.061  31.926   3.830
77468W        W45941  41.008  37.562   4.247
77469W        W45942   7.201  41.849  11.558
77470W        W45943  27.128   2.421  10.409
77471W        W45944  22.997  30.555   5.121
77472W        W45945  19.082  14.315   3.251
77473W        W45946  41.843  42.992   0.850
77474W        W45947  14.724  23.561  11.510
77475W        W45948  21.608  20.573  14.912
77476W        W45949   3.303  32.408  13.799
77477W        W45950  43.271   8.790   0.388
77478W        W45951   5.242  26.525   2.357
77479W        W45952  18.679   3.845   1.271
77480W        W45953  26.510  31.485   1.787
77481W        W45954  30.412  21.153  10.053
77482W        W45955  25.604  18.688  14.433
77483W        W45956  29.989  38.416   1.382
77484W        W45957   4.792  14.746   3.684
77485W        W45958  35.860  19.267   4.713
77486W        W45959  27.528  22.669   0.940
77487W        W45960  33.051  41.865   5.730
77488W        W45961   7.910   7.382  11.027
77489W        W45962   5.238  36.059   1.218
77490W        W45963   7.193  25.021   1.450
77491W        W45964  10.374   2.917   3.657
77492W        W45965  25.145  15.774  14.457
77493W        W45966  25.537   5.916  11.939
77494W        W45967   4.727  32.938  11.371
77495W        W45968  42.024  32.598   3.768
77496W        W45969  44.317  33.568   1.221
77497W        W45970  25.679  20.035   0.331
77498W        W45971   1.441   5.850  13.510
77499W        W45972  39.445   6.283  13.974
77500W        W45973  21.722   4.746   1.263
77501W        W45974  23.091  17.571   3.305
77502W        W45975   2.312  36.392   3.665
77503W        W45976  18.234  42.511  14.322
77504W        W45977  37.359  32.987  10.893
77505W        W45978  31.147  15.656   3.704
77506W        W45979   2.739  16.178   4.159
77507W        W45980  19.710  14.291   3.716
77508W        W45981  25.016  31.040   1.854
77509W        W45982  27.075   6.196  12.351
77510W        W45983  36.852  28.997  11.879
77511W        W45984  17.207  17.269   3.327
77512W        W45985   3.223  31.107   2.320
77513W        W45986  29.512  44.402   2.253
77514W        W45987  11.349  25.582  11.110
77515W        W45988  39.943  11.740   1.779
77516W        W45989  42.307  41.430   4.825
77517W        W45990  15.722   0.988   2.785
77518W        W45991  34.984  32.528  11.534
77519W        W45992  25.105  13.225  13.797
77520W        W45993  40.047  25.041  11.428
77521W        W45994   1.415   3.789   4.311
77522W        W45995  37.561  43.316  12.988
77523W        W45996  21.691  30.438  13.381
77524W        W45997   9.846  15.239  13.834
77525W        W45998  42.787  11.818  10.464
77526W        W45999  28.504  25.496   2.721
77527W        W46000   0.828  32.021  12.562
77528W        W46001   8.292  20.142   4.713
77529W        W46002  20.244  42.304  12.941
77530W        W46003   0.316  30.015   2.238
77531W        W46004  41.389  16.704   3.718
77532W        W46005   0.891  33.471  13.320
77533W        W46006  44.495   8.798  11.549
77534W        W46007   1.409   7.792  11.034
77535W        W46008  43.967  44.896   0.278
77536W        W46009  16.775  28.658  13.951
77537W        W46010  16.186  20.677   1.348
77538W        W46011  12.675  30.563   2.242
77539W        W46012  32.531  23.504  12.967
77540W        W46013  12.312  37.842   0.891
77541W        W46014  15.670  28.957   1.271
77542W        W46015  38.533  18.679  11.586
77543W        W46016   1.329  39.379  12.043
77544W        W46017  17.246  14.817  14.872
77545W        W46018  41.483  12.150  14.923
77546W        W46019  22.033  24.979  12.973
77547W        W46020   1.417   7.252   1.248
77548W        W46021  42.921   6.320   4.121
77549W        W46022  24.091  28.501   2.702
77550W        W46023  24.090   3.396   2.799
77551W        W46024  23.655   0.921   3.280
77552W        W46025  44.875   0.849   3.246
77553W        W46026  32.445  17.727  14.761
77554W        W46027  28.677  42.327  10.988
77555W        W46028  24.993  20.242  12.069
77556W        W46029  17.255  29.429   4.334
77557W        W46030  19.704  13.710  12.885
77558W        W46031  13.222   7.689  14.431
77559W        W46032  43.855  12.627   3.637
77560W        W46033  17.306  28.644  14.805
77561W        W46034   0.249   0.895  12.052
77562W        W46035  13.613  14.752   4.289
77563W        W46036  22.039  19.608   4.808
77564W        W46037   1.907  39.531  14.335
77565W        W46038  17.264  25.182  13.368
77566W        W46039  21.162  18.584  14.477
77567W        W46040   8.802  30.955   1.769
77568W        W46041  18.174  16.235  10.524
77569W        W46042  26.578  19.606   4.758
77570W        W46043  39.479  35.369  10.446
77571W        W46044   1.734   6.245   4.354
77572W        W46045  34.917   2.818   2.196
77573W        W46046  11.310  40.933   1.850
77574W        W46047   0.939  20.658  12.534
77575W        W46048  35.527  40.932  14.341
77576W        W46049  13.130   3.739  13.528
77577W        W46050   9.776   5.326   2.375
77578W        W46051   7.714  42.003   1.698
77579W        W46052  37.075  21.742  11.431
77580W        W46053  21.685  14.248   9.667
77581W        W46054  25.518  24.221  12.087
77582W        W46055  12.206  23.003  10.489
77583W        W46056  21.660  42.004  14.350
77584W        W46057   6.272  11.737   0.861
77585W        W46058  23.110  22.012   0.353
77586W        W46059  37.856  36.558   4.669
77587W        W46060  40.037  43.788  11.467
77588W        W46061   3.340  35.046   4.605
77589W        W46062  23.134  18.746   0.250
77590W        W46063  23.018  40.834  10.628
77591W        W46064  31.459  38.851   4.825
77592W        W46065  33.526  39.053   1.887
77593W        W46066  10.772  27.478  14.000
77594W        W46067  42.479  11.200   0.335
77595W        W46068  15.209  14.780   3.729
77596W        W46069  12.293  30.967   2.789
77597W        W46070  38.874  37.475   2.697
77598W        W46071  36.075  38.840  13.955
77599W        W46072  33.084  43.314   0.809
77600W        W46073  42.965   0.798  12.873
77601W        W46074   3.221   9.342   0.836
77602W        W46075  17.225   9.784  14.807
77603W        W46076  39.874  29.575  11.383
77604W        W46077   0.845  12.286  11.464
77605W        W46078  41.940   2.781  13.039
77606W        W46079  38.874  24.640   3.372
77607W        W46080   1.286  38.472  11.597
77608W        W46081  33.078   5.772  10.489
77609W        W46082  37.498   9.725  12.978
77610W        W46083  24.990  31.472   1.703
77611W        W46084  16.636  33.026   1.386
77612W        W46085  14.291  42.918  13.451
77613W        W46086   3.221  14.668  13.835
77614W        W46087  17.630   5.413  10.942
77615W        W46088   4.379  31.951  12.521
77616W        W46089  35.428  22.151  12.414
77617W        W46090   2.813  30.923  13.817
77618W        W46091  40.475  14.775  13.415
77619W        W46092  40.410  34.547  11.099
77620W        W46093   4.332   3.928   4.769
77621W        W46094  37.952  40.945   3.190
77622W        W46095  29.049  37.444   2.882
77623W        W46096  39.401  10.285   3.656
77624W        W46097  32.516   8.238   1.746
77625W        W46098  33.482  32.627  10.626
77626W        W46099  44.904  15.700   4.754
77627W        W46100   5.822  38.492   2.800
77628W        W46101  13.713  44.407  12.407
77629W        W46102  17.739  11.792   2.793
77630W        W46103  20.637   1.780  12.973
77631W        W46104  26.658   0.461  14.851
77632W        W46105  12.159  36.447   1.824
77633W        W46106   2.763  31.446  11.487
77634W        W46107  28.632   0.280   1.791
77635W        W46108  15.591  14.759  10.520
77636W        W46109   4.731  28.663  14.865
77637W        W46110  40.897   4.421   0.364
77638W        W46111  15.594  42.292   5.304
77639W        W46112  41.477  20.215   1.863
77640W        W46113  22.680  32.395   3.663
77641W        W46114   2.456   0.880   1.817
77642W        W46115  11.223  44.773   2.370
77643W        W46116  44.804  40.389  10.936
77644W        W46117  13.823  10.811   2.700
77645W        W46118  15.623  14.136  12.011
77646W        W46119  20.036  43.775   3.779
77647W        W46120  29.029  20.757   1.230
77648W        W46121  32.490  35.400   0.854
77649W        W46122   4.293   4.284   2.244
77650W        W46123   6.815  13.313   1.219
77651W        W46124  38.519  27.682   1.254
77652W        W46125  19.106  31.978   2.236
77653W        W46126  28.668  15.686  13.915
77654W        W46127  27.092  31.945  10.993
77655W        W46128  26.110  38.549  11.603
77656W        W46129  25.493  34.065   2.185
77657W        W46130   0.911   0.487  13.455
77658W        W46131  39.462  38.930   4.275
77659W        W46132  18.055  20.583   4.779
77660W        W46133  36.515  30.508   2.267
77661W        W46134  17.674   4.837  10.012
77662W        W46135  42.401  18.593   2.818
77663W        W46136  22.737  34.603   4.690
77664W        W46137  16.715  14.707  13.454
77665W        W46138   5.856  11.788   4.258
77666W        W46139  11.337  28.469  10.917
77667W        W46140   6.239  22.096   1.324
77668W        W46141   6.735  20.763   3.835
77669W        W46142  42.811  18.164  13.799
77670W        W46143  35.973  21.610   0.294
77671W        W46144   6.676  30.089   0.801
77672W        W46145  11.335  21.039  14.514
77673W        W46146  30.649  25.006  11.602
77674W        W46147  17.720  20.188  12.409
77675W        W46148  32.019  43.948  11.500
77676W        W46149  40.013  29.027   2.296
77677W        W46150  41.388  35.926  10.917
77678W        W46151  36.097  21.663  11.484
77679W        W46152  30.510  16.609  14.834
77680W        W46153  10.260   8.202  11.992
77681W        W46154  27.454  25.200  14.445
77682W        W46155  18.150  18.180  11.096
77683W        W46156  42.435  35.901   3.156
77684W        W46157  40.365  37.368  12.547
77685W        W46158  31.626  43.866  12.849
77686W        W46159   2.943  13.222  12.460
77687W        W46160  31.036  16.669  14.981
77688W        W46161  36.494  20.530  11.943
77689W        W46162  23.227  28.512   1.717
77690W        W46163  30.057   6.783  13.016
77691W        W46164  32.987   6.368   2.405
77692W        W46165  41.321   2.913   0.304
77693W        W46166  37.877  17.220  12.021
77694W        W46167  33.589  30.509   9.964
77695W        W46168  33.461  16.634  14.950
77696W        W46169  29.007   5.711   2.803
77697W        W46170  29.460   6.775   0.858
77698W        W46171  36.841  21.671   0.326
77699W        W46172   7.366  27.537  11.951
77700W        W46173  34.444   2.917  12.081
77701W        W46174  35.049  32.905  10.626
77702W        W46175  30.549   0.813  14.331
77703W        W46176  14.242  26.183   4.646
77704W        W46177   8.719  24.549  10.532
77705W        W46178  26.606  29.477  10.538
77706W        W46179  16.297  29.980  11.938
77707W        W46180  33.990  16.216  12.436
77708W        W46181  13.237  44.310  10.955
77709W        W46182  10.654  26.684   1.349
77710W        W46183  24.652   2.881   2.243
77711W        W46184  19.611   9.382   1.900
77712W        W46185  15.193  35.034  12.534
77713W        W46186  10.701  17.226   3.311
77714W        W46187   9.738  17.679   3.689
77715W        W46188  20.199  24.613   3.710
77716W        W46189   4.720  37.009  13.941
77717W        W46190   3.437  23.539  14.290
77718W        W46191  34.453  15.307  10.600
77719W        W46192  18.555  36.900   0.905
77720W        W46193  44.778   8.281   1.801
77721W        W46194  14.107   9.152  14.030
77722W        W46195   1.880   6.887  11.423
77723W        W46196  14.318  31.640  11.115
77724W        W46197  15.692  34.042   1.694
77725W        W46198   0.322  34.478  14.409
77726W        W46199   4.297  23.034  14.861
77727W        W46200   8.837  10.242  13.847
77728W        W46201  10.853  39.474  12.983
77729W        W46202  23.722   6.271  14.311
77730W        W46203  15.682  39.971   2.854
77731W        W46204  34.985  25.019   0.460
77732W        W46205  16.772  10.261  11.101
77733W        W46206  37.011   1.770   4.314
77734W        W46207  37.508  41.793  14.498
77735W        W46208  35.365   3.381  11.894
77736W        W46209  15.643  25.144  11.498
77737W        W46210  19.251  13.315  10.562
77738W        W46211   5.411   6.305   0.440
77739W        W46212  34.395  29.553  14.820
77740W        W46213  18.610   1.469   1.747
77741W        W46214   7.752  18.723  13.400
77742W        W46215   7.329   7.857   2.182
77743W        W46216   8.778  21.603   0.855
77744W        W46217  32.129  37.530   5.245
77745W        W46218   4.882  37.087   4.773
77746W        W46219  33.089   4.383  14.319
77747W        W46220  15.324  19.115   2.868
77748W        W46221   1.878  42.896   5.205
77749W        W46222   9.192  10.205   9.945
77750W        W46223   5.930  14.805   4.235
77751W        W46224  42.959  33.513   1.265
77752W        W46225  16.103  13.203   3.774
77753W        W46226  23.228  10.166   2.371
77754W        W46227  30.575  41.871   4.316
77755W        W46228   9.858  43.883  13.510
77756W        W46229  36.092  25.535   2.735
77757W        W46230  16.692  11.200   3.378
77758W        W46231  44.397   0.306  12.875
77759W        W46232  37.978  20.760  10.998
77760W        W46233  21.106  28.635  10.976
77761W        W46234  25.530  23.164  10.527
77762W        W46235  38.559  35.928  12.873
77763W        W46236  35.586  36.450  13.512
77764W        W46237  42.358  16.752  11.084
77765W        W46238  35.409  39.356  11.902
77766W        W46239  28.047  31.488   4.690
77767W        W46240  35.385  24.176  13.475
77768W        W46241  26.627  11.308  14.853
77769W        W46242  27.462  22.104  12.079
77770W        W46243  30.510  27.187   2.249
77771W        W46244  23.029  25.524  11.515
77772W        W46245  36.880  34.455   3.372
77773W        W46246  13.150  23.636   3.363
77774W        W46247  34.551   7.191  13.834
77775W        W46248   4.764  17.767   0.878
77776W        W46249  13.225  11.129   0.884
77777W        W46250   9.278  14.755  11.983
77778W        W46251  43.980  31.588   4.292
77779W        W46252  17.801  35.494  13.506
77780W        W46253   2.912  22.727   4.200
77781W        W46254  44.485  40.877  14.354
77782W        W46255  28.523  12.262   4.797
77783W        W46256  16.792  37.431  12.523
77784W        W46257  10.236   7.371  14.927
77785W        W46258  43.779  27.490   3.719
77786W        W46259  32.591   3.737   3.837
77787W        W46260   2.921  30.144   4.760
77788W        W46261   4.905  16.111   9.551
77789W        W46262  32.034   5.278   2.291
77790W        W46263  32.013   2.335   5.119
77791W        W46264   2.737  36.899   4.177
77792W        W46265   4.729  43.352  11.403
77793W        W46266  18.278  39.400  12.910
77794W        W46267   7.772   9.360   0.900
77795W        W46268  18.766  22.166  12.886
77796W        W46269  23.994  38.539   1.444
77797W        W46270  11.694  36.055  11.591
77798W        W46271  19.574  32.607   2.897
77799W        W46272  12.797  43.308  11.495
77800W        W46273  17.792  26.581  10.620
77801W        W46274  39.870  37.549  10.037
77802W        W46275  11.669  28.949   0.289
77803W        W46276  41.805   8.893   3.819
77804W        W46277  20.651  25.004  14.514
77805W        W46278  16.679  40.341  10.549
77806W        W46279  23.985  10.809  14.333
77807W        W46280  42.308  37.431  11.989
77808W        W46281  15.752  14.322  10.932
77809W        W46282   9.270  26.127  12.474
77810W        W46283   3.905   2.393  12.996
77811W        W46284  23.514  27.501  14.802
77812W        W46285  43.416  14.828  12.486
77813W        W46286  23.621  19.705   1.695
77814W        W46287  35.362  32.564  14.031
77815W        W46288  13.234   7.233   2.213
77816W        W46289  16.108  15.251   3.362
77817W        W46290  34.028   8.735  10.916
77818W        W46291   1.776  22.557   1.933
77819W        W46292   1.243   1.294   2.257
77820W        W46293  31.523   3.255  10.575
77821W        W46294  41.824  16.300   3.758
77822W        W46295  30.421  12.344   0.325
77823W        W46296  13.183  43.288   2.853
77824W        W46297  33.110  17.657   3.815
77825W        W46298  44.895  35.886   0.377
77826W        W46299   2.944  44.894  13.931
77827W        W46300  32.612  36.509  10.632
77828W        W46301   3.923  21.157   2.230
77829W        W46302  40.317  19.559   0.844
77830W        W46303  10.368  24.002  13.408
77831W        W46304  42.520   3.240  10.554
77832W        W46305  39.496  43.434  13.467
77833W        W46306  11.638  44.496   3.274
77834W        W46307  22.679  33.443  10.453
77835W        W46308  34.972   8.267   4.834
77836W        W46309  40.370  44.953  12.872
77837W        W46310  25.016  40.967   0.300
77838W        W46311  16.173  25.171   5.099
77839W        W46312   2.232  26.548   4.714
77840W        W46313  18.212  19.588  12.847
77841W        W46314  30.021  20.183  10.966
77842W        W46315   2.868  38.356   3.285
77843W        W46316  37.923  11.695  11.463
77844W        W46317  29.960  26.038  11.988
77845W        W46318  29.060  33.879  12.985
77846W        W46319  31.429  33.621  14.358
77847W        W46320  17.250  21.676  13.542
77848W        W46321   6.902  31.081   2.272
77849W        W46322  29.957  14.798   4.281
77850W        W46323  36.521  12.798   1.271
77851W        W46324  14.630  24.706  13.325
77852W        W46325  38.429   0.302  11.060
77853W        W46326  32.006   5.743  12.869
77854W        W46327  30.537  29.424   1.429
77855W        W46328  44.889  40.310   3.737
77856W        W46329   2.800  34.021  14.341
77857W        W46330  11.727  29.537   2.885
77858W        W46331  33.919  30.486   1.379
77859W        W46332   3.216  38.419   9.963
77860W        W46333   1.384  44.435   0.956
77861W        W46334   4.879  31.930  12.418
77862W        W46335   1.783  15.289   4.140
77863W        W46336  23.010  31.478  10.959
77864W        W46337   0.437  18.777   0.918
77865W        W46338   4.287  21.217  14.877
77866W        W46339  21.681  44.759   4.766
77867W        W46340  28.591  17.166   3.829
77868W        W46341  42.857  37.983   3.773
77869W        W46342  18.289  31.943  12.534
77870W        W46343  23.132  34.891   2.699
77871W        W46344  26.486  20.089  14.402
77872W        W46345   3.807  38.846   3.280
77873W        W46346  18.700  18.157  11.062
77874W        W46347  43.372  35.357   3.344
77875W        W46348  17.560   4.255   1.231
77876W        W46349  26.042  42.463   0.900
77877W        W46350   2.897  23.599   2.184
77878W        W46351  14.138  43.397  11.538
77879W        W46352  28.991  27.509   2.193
77880W        W46353   7.908  16.581   1.840
77881W        W46354  17.276  34.875   4.711
77882W        W46355  31.528  19.557   1.908
77883W        W46356  29.454  16.147   0.400
77884W        W46357  43.472  36.915   3.193
77885W        W46358  39.469  28.132   1.272
77886W        W46359  33.624  12.168   0.734
77887W        W46360  23.066  29.125  11.573
77888W        W46361  13.209   7.810  11.047
77889W        W46362  44.963  10.243  13.029
77890W        W46363  42.929  44.796   0.940
77891W        W46364   6.360  18.750  12.049
77892W        W46365   9.777  35.869   5.137
77893W        W46366  26.991  22.735  10.486
77894W        W46367  23.676  19.680   4.606
77895W        W46368  24.575   6.841   3.773
77896W        W46369   7.799  23.049   3.340
77897W        W46370  16.109  32.409  10.920
77898W        W46371  41.793  27.532   1.884
77899W        W46372  34.896  24.529  13.349
77900W        W46373  39.001  41.516  10.551
77901W        W46374  19.665  26.667  11.915
77902W        W46375  23.706  22.555   4.837
77903W        W46376  12.126  29.444  11.536
77904W        W46377   4.266  24.127   3.828
77905W        W46378   1.796  30.470  14.430
77906W        W46379  32.539   0.474  14.886
77907W        W46380  10.763  25.607  11.448
77908W        W46381  17.143  40.852   0.320
77909W        W46382  13.229  22.169  10.894
77910W        W46383  16.232  18.676  12.569
77911W        W46384   4.233   1.796   0.768
77912W        W46385  27.197   9.263   1.700
77913W        W46386  13.600  43.488   1.214
77914W        W46387   6.339  33.519  14.448
77915W        W46388  40.959  37.446   3.734
77916W        W46389  36.893  23.098  13.998
77917W        W46390   8.189   8.331  14.920
77918W        W46391  30.630  31.036   0.964
77919W        W46392  24.222  25.654   3.174
77920W        W46393  35.512  30.119  13.003
77921W        W46394  14.320  37.404  14.842
77922W        W46395  26.522  21.193  11.487
77923W        W46396  14.244  36.926   3.669
77924W        W46397  13.600   8.776   1.389
77925W        W46398  35.083  11.652   5.258
77926W        W46399  21.697  22.692  14.957
77927W        W46400  30.088  18.158   1.264
77928W        W46401  11.801   3.851  14.933
77929W        W46402  16.240  28.069  15.000
77930W        W46403  24.502   7.280   4.836
77931W        W46404   2.333  30.630   1.769
77932W        W46405  37.055   1.323   2.857
77933W        W46406  17.667  22.549  12.987
77934W        W46407   2.728  22.206  14.768
77935W        W46408  28.437   0.338   1.327
77936W        W46409  30.426  34.014  12.922
77937W        W46410   5.775  43.454  12.987
77938W        W46411  40.986   8.832   1.772
77939W        W46412   0.749  42.295  12.900
77940W        W46413  28.536  29.560   4.785
77941W        W46414  28.107  20.079   1.739
77942W        W46415   6.771  27.617  14.407
77943W        W46416   0.771  35.596   2.228
77944W        W46417  24.135   9.327   4.220
77945W        W46418  19.618  36.396   0.948
77946W        W46419  20.154  31.431  10.914
77947W        W46420  33.055  35.032  13.042
77948W        W46421   4.781  34.372   0.367
77949W        W46422  42.931  13.791  11.511
77950W        W46423   2.466  31.511  11.423
77951W        W46424  15.297  41.472   2.324
77952W        W46425  18.216   1.894  12.366
77953W        W46426  23.594  29.973  11.897
77954W        W46427  21.552   1.759   2.841
77955W        W46428   9.357  11.637  14.923
77956W        W46429  16.629   6.742  14.013
77957W        W46430  20.583  21.577   1.703
77958W        W46431  34.599  44.434   4.157
77959W        W46432  35.014  17.674  12.954
77960W        W46433   5.397  15.591  11.473
77961W        W46434  30.162   7.203   1.312
77962W        W46435  21.242   3.319   4.802
77963W        W46436  32.510  43.015  12.988
77964W        W46437   7.415  14.818   1.795
77965W        W46438  43.962  43.443  12.095
77966W        W46439   9.856  27.145  12.468
77967W        W46440  32.929  39.460   3.845
77968W        W46441   0.972  42.997   3.222
77969W        W46442  39.528  33.957  11.479
77970W        W46443  30.423  18.182   2.299
77971W        W46444  32.553  21.227   0.267
77972W        W46445  27.963   8.717   0.320
77973W        W46446  34.487  25.622   4.316
77974W        W46447  35.908  29.060   4.349
77975W        W46448  32.119  24.987   3.761
77976W        W46449  13.731   7.720   0.909
77977W        W46450  32.620  26.994   3.248
77978W        W46451  30.955  26.665  12.484
77979W        W46452  19.716  27.063   3.333
77980W        W46453  16.651  35.971   2.405
77981W        W46454   5.876   7.706  12.342
77982W        W46455  38.929  44.431   1.281
77983W        W46456  35.051  10.703   3.733
77984W        W46457  21.236   6.719   2.665
77985W        W46458  41.306  20.649  13.471
77986W        W46459  34.410   8.349   2.819
77987W        W46460  29.161  33.549   3.180
77988W        W46461  40.882   2.243   0.256
77989W        W46462  37.918  28.944  14.357
77990W        W46463  10.161  44.481   0.941
77991W        W46464  15.159  43.846   3.861
77992W        W46465  34.988  11.369  11.566
77993W        W46466  25.099   1.740   2.278
77994W        W46467  20.751  39.357  14.780
77995W        W46468  30.499  23.986   1.830
77996W        W46469  36.018   0.397   1.233
77997W        W46470  40.515  15.698   2.285
77998W        W46471  34.389  42.899  14.884
77999W        W46472   2.930  43.996  10.630
78000W        W46473   5.921  28.458  10.989
78001W        W46474  33.031  43.974   0.867
78002W        W46475  19.117  20.237   0.801
78003W        W46476   1.399  28.448  13.980
78004W        W46477  10.321   4.226   1.346
78005W        W46478   9.748  33.515   2.379
78006W        W46479  37.917   3.226   2.884
78007W        W46480   7.282  10.346   0.417
78008W        W46481  13.229  26.125  11.044
78009W        W46482  27.994  12.141   1.301
78010W        W46483  43.299  19.602   3.303
78011W        W46484  27.071  41.451   1.712
78012W        W46485  42.954  22.662  14.810
78013W        W46486   3.807   7.876  12.410
78014W        W46487  30.416  39.438   0.774
78015W        W46488   2.786  29.531   2.276
78016W        W46489   0.255  27.581  13.951
78017W        W46490  37.991  17.191   2.752
78018W        W46491  21.624   1.955   0.921
78019W        W46492  10.335  33.622   0.368
78020W        W46493  39.870  30.424  10.520
78021W        W46494  21.579  31.435   0.803
78022W        W46495  27.026  35.021  13.921
78023W        W46496  11.756  21.689  13.987
78024W        W46497  32.614   0.968  12.096
78025W        W46498  35.501  34.995   3.351
78026W        W46499  13.706  19.656  14.305
78027W        W46500  31.636  35.105   1.355
78028W        W46501  14.258  43.479   1.431
78029W        W46502   5.236   7.208  13.457
78030W        W46503  29.471  34.104   1.405
78031W        W46504  12.641  18.062  10.959
78032W        W46505  11.696  20.185  12.000
78033W        W46506  28.949  14.775   2.363
78034W        W46507  23.180  22.671  14.950
78035W        W46508  24.020  31.131   1.746
78036W        W46509  27.602   8.747  11.419
78037W        W46510   7.414  10.249   9.955
78038W        W46511  23.684  43.508  14.431
78039W        W46512  12.281  13.600  10.619
78040W        W46513  34.925   6.843   1.412
78041W        W46514  36.483  42.447   3.803
78042W        W46515   6.190  12.172  11.127
78043W        W46516  23.178  37.004   2.341
78044W        W46517  33.409  43.484   1.291
78045W        W46518  40.045  42.404  12.071
78046W        W46519  21.117   8.728   0.416
78047W        W46520  35.533  42.501  14.992
78048W        W46521  34.376  35.892   0.398
78049W        W46522  35.023  31.467   3.378
78050W        W46523  10.668  28.607  14.022
78051W        W46524  22.108  44.325  10.902
78052W        W46525  30.108   9.238   4.602
78053W        W46526  24.549  30.568  11.381
78054W        W46527   4.756   8.193  13.889
78055W        W46528  16.304  33.989   1.360
78056W        W46529  21.057   1.923   1.405
78057W        W46530  31.090  25.149   0.879
78058W        W46531  36.097  25.500   0.808
78059W        W46532  10.645   3.330   0.409
78060W        W46533  29.621  37.899   0.822
78061W        W46534  24.007  16.181  10.603
78062W        W46535  29.426  31.920  10.631
78063W        W46536  33.440  35.060  12.402
78064W        W46537  28.149  27.115  13.419
78065W        W46538   6.729  25.991   2.254
78066W        W46539  27.153  25.617  14.324
78067W        W46540  38.491   7.765  11.078
78068W        W46541   9.326   4.821   3.756
78069W        W46542   0.345  41.937  14.480
78070W        W46543  27.472  18.568  10.577
78071W        W46544  33.445  19.571   0.333
78072W        W46545   1.917  11.704   0.344
78073W        W46546  30.161  19.747   0.820
78074W        W46547   6.300  38.854   1.448
78075W        W46548  38.869  30.525  10.959
78076W        W46549   5.805   0.838   0.774
78077W        W46550  44.901  25.117   0.393
78078W        W46551   9.767  24.219  14.896
78079W        W46552  24.124  41.472   5.214
78080W        W46553  17.616  23.524   2.221
78081W        W46554  15.090  31.505  13.346
78082W        W46555   7.679   3.897   1.933
78083W        W46556  10.733  18.251   1.746
78084W        W46557  44.992   1.793  12.979
78085W        W46558  17.768  10.352   3.166
78086W        W46559  43.963  17.062   4.298
78087W        W46560   6.707  15.166   0.778
78088W        W46561  22.998  11.163  11.488
78089W        W46562  16.813  25.173  11.607
78090W        W46563   6.237  26.482   2.352
78091W        W46564  31.931   1.915   2.666
78092W        W46565  22.134   2.342  11.951
78093W        W46566  13.777  29.971  10.621
78094W        W46567  10.770  37.392   4.236
78095W        W46568  13.754  43.888   0.244
78096W        W46569  42.336  21.258   3.264
78097W        W46570  26.630   2.887  13.484
78098W        W46571   5.769  33.025  14.496
78099W        W46572  43.948   4.811   1.258
78100W        W46573  30.438  44.402  11.888
78101W        W46574  19.709  43.988  12.984
78102W        W46575  31.923   9.861  14.473
78103W        W46576  28.021  43.850  14.497
78104W        W46577  27.550  10.258   2.269
78105W        W46578  28.960  22.689   3.764
78106W        W46579  33.535  32.073   4.776
78107W        W46580  32.086  40.858   0.922
78108W        W46581   0.926   3.447  10.058
78109W        W46582  14.167  11.190   4.136
78110W        W46583  16.317   9.879   0.444
78111W        W46584   2.843  40.989   1.766
78112W        W46585  28.063  31.647   1.291
78113W        W46586   3.800  24.228  11.382
78114W        W46587  33.130  29.974  14.807
78115W        W46588  26.039  39.848  12.401
78116W        W46589  17.796  16.276   4.633
78117W        W46590  20.248  13.227   2.674
78118W        W46591  28.084  21.686  12.998
78119W        W46592   7.309  21.741  12.341
78120W        W46593  21.100   9.650   0.439
78121W        W46594  39.394  36.981   2.780
78122W        W46595  34.571   6.767   3.378
78123W        W46596  28.172  17.305  13.971
78124W        W46597  25.081  21.582  11.956
78125W        W46598  10.641   0.753  13.989
78126W        W46599  39.881  43.002  13.808
78127W        W46600  39.434  10.865  13.391
78128W        W46601   3.333  25.109   1.448
78129W        W46602  31.105  32.498  10.455
78130W        W46603   4.724  38.877  10.559
78131W        W46604  26.512  30.111  12.923
78132W        W46605  10.671  38.973   4.728
78133W        W46606  33.887  18.235   0.745
78134W        W46607   0.758  29.001  13.852
78135W        W46608  34.013   7.209   1.737
78136W        W46609   5.295  23.105  13.870
78137W        W46610  20.606  15.821  12.407
78138W        W46611  13.307  40.368   5.234
78139W        W46612  41.526  39.479   4.260
78140W        W46613  36.530  20.726  11.088
78141W        W46614  42.828  10.300   3.817
78142W        W46615   6.713  17.067  13.876
78143W        W46616  16.260  30.012   4.339
78144W        W46617  19.192  33.061  13.051
78145W        W46618   3.452   3.956  13.913
78146W        W46619   0.423  44.309   3.853
78147W        W46620   3.336   7.687  14.986
78148W        W46621  30.972  35.884  11.018
78149W        W46622  16.263  33.504   3.162
78150W        W46623   0.361  29.588  11.999
78151W        W46624  19.740   3.954  10.445
78152W        W46625  42.916   9.275   2.713
78153W        W46626   5.209  23.214   2.263
78154W        W46627   4.798   8.793   3.376
78155W        W46628  41.537  35.374   1.318
78156W        W46629  14.126   1.790   0.398
78157W        W46630  36.947  30.499  12.357
78158W        W46631  36.448  42.966   1.285
78159W        W46632  15.245  25.476   1.410
78160W        W46633  23.233   3.763   4.254
78161W        W46634  13.732  23.996  12.425
78162W        W46635   4.447  16.575   1.281
78163W        W46636  28.461  29.958  14.830
78164W        W46637   9.824   2.326   1.450
78165W        W46638  18.577  43.409   0.419
78166W        W46639   3.877  37.971   3.166
78167W        W46640  22.153   5.269  10.624
78168W        W46641  43.807   6.319  12.021
78169W        W46642  26.063   7.673  14.373
78170W        W46643   3.271  44.974   3.823
78171W        W46644  17.621  10.376  12.380
78172W        W46645  37.945  35.866  13.394
78173W        W46646  28.487  12.798  12.434
78174W        W46647  35.989  18.603  11.070
78175W        W46648  26.112  26.498   0.411
78176W        W46649  11.726  12.708   2.271
78177W        W46650  17.590  37.567  13.470
78178W        W46651  39.430   3.793   3.699
78179W        W46652  28.060  44.934  12.400
78180W        W46653  18.268  34.383  12.003
78181W        W46654  29.002   0.972  10.559
78182W        W46655  35.931  43.285  12.870
78183W        W46656  37.445  36.387   1.704
78184W        W46657  22.522   3.290   0.295
78185W        W46658  20.632  43.909   1.281
78186W        W46659  31.494   1.868   3.667
78187W        W46660  41.480  30.421   1.279
78188W        W46661  39.468   2.849   3.650
78189W        W46662  25.608  30.015  12.536
78190W        W46663  26.154  16.260   0.290
78191W        W46664  15.782   1.479  13.499
78192W        W46665  24.494  14.777  10.555
78193W        W46666  40.350   5.884   4.713
78194W        W46667   9.736   8.292   4.831
78195W        W46668  11.709  39.439  10.550
78196W        W46669  38.852  41.336   3.835
78197W        W46670  14.242  37.072   2.383
78198W        W46671   2.436  38.331  10.613
78199W        W46672  32.891  29.476   1.223
78200W        W46673  21.563  27.159   0.314
78201W        W46674  19.238  11.675  14.780
78202W        W46675  11.349  36.096  14.365
78203W        W46676  12.840  39.822  14.349
78204W        W46677  36.046   9.882  14.491
78205W        W46678   9.322  28.581   4.211
78206W        W46679   7.671  35.601   5.138
78207W        W46680  31.481   2.818   4.796
78208W        W46681  34.033  17.138   3.677
78209W        W46682   9.392  32.044   2.387
78210W        W46683  19.138  34.516  14.821
78211W        W46684  19.762  32.944   0.908
78212W        W46685  25.643  14.793   2.236
78213W        W46686  20.657   9.240  14.445
78214W        W46687  38.332   9.802   2.197
78215W        W46688  13.131  30.645   9.977
78216W        W46689  41.464  30.641  12.484
78217W        W46690  28.935  34.108  10.608
78218W        W46691  38.358  43.383   2.213
78219W        W46692  38.926  23.178  11.925
78220W        W46693  23.023  33.112  11.074
78221W        W46694  16.573  24.012   1.387
78222W        W46695  22.681  37.051   2.890
78223W        W46696  26.639  38.824  11.916
78224W        W46697  22.063  44.908   2.342
78225W        W46698  22.020  25.038   0.420
78226W        W46699  14.177  43.927  11.031
78227W        W46700  14.731  44.384  11.547
78228W        W46701  24.584  13.783  10.993
78229W        W46702   3.938  14.167   9.565
78230W        W46703  44.501  27.005   1.396
78231W        W46704  37.407   5.915  14.775
78232W        W46705   1.793  15.176   2.226
78233W        W46706  31.584  16.235   2.395
78234W        W46707   1.793  41.952  11.121
78235W        W46708  38.861  31.647   1.357
78236W        W46709   7.267   4.307  11.392
78237W        W46710  41.035   1.256  10.888
78238W        W46711   9.364   3.428  14.396
78239W        W46712  19.063  33.001   3.383
78240W        W46713  39.864  19.072  10.600
78241W        W46714  11.684   3.386  12.495
78242W        W46715  29.029  42.937  14.983
78243W        W46716  39.955  23.238   1.788
78244W        W46717  17.253   8.298  12.857
78245W        W46718  11.325  10.292   0.760
78246W        W46719  14.106  34.088   2.260
78247W        W46720   0.441   1.746  11.505
78248W        W46721  42.392   3.275  11.932
78249W        W46722  33.904   9.779  13.338
78250W        W46723  12.227  11.694  12.082
78251W        W46724  15.302  41.794   4.726
78252W        W46725  12.285  25.492  11.099
78253W        W46726  43.980  41.426  14.967
78254W        W46727   0.366  31.905   3.755
78255W        W46728  29.989  44.313   0.742
78256W        W46729  17.088   3.248  10.140
78257W        W46730  15.596  37.569   9.437
78258W        W46731  38.874   4.279   4.628
78259W        W46732   2.272  37.958   0.883
78260W        W46733   7.763  23.101  10.605
78261W        W46734  29.592  43.503   0.852
78262W        W46735   8.855   1.323  11.387
78263W        W46736   1.743  34.472  13.523
78264W        W46737  26.677  25.117  10.468
78265W        W46738  38.455  31.494  12.044
78266W        W46739  15.653  41.442   2.404
78267W        W46740   3.351  11.272   1.359
78268W        W46741   1.961  41.402  12.884
78269W        W46742  23.006  34.389   2.711
78270W        W46743  44.003  38.481   4.607
78271W        W46744   4.801  42.883  12.547
78272W        W46745   8.857   1.961  13.871
78273W        W46746   4.273  43.923  13.387
78274W        W46747   1.884  27.618   4.191
78275W        W46748  29.143  23.508  11.959
78276W        W46749   3.813  24.004  12.380
78277W        W46750  16.260  11.841   4.258
78278W        W46751   8.685  24.189   2.666
78279W        W46752  27.691  18.242   1.756
78280W        W46753  31.935  39.342   3.315
78281W        W46754  26.206  33.569   3.265
78282W        W46755  10.874   7.227   1.752
78283W        W46756  44.432  33.512   2.303
78284W        W46757  13.154  38.920  11.099
78285W        W46758  22.582  11.673   5.159
78286W        W46759  32.568  18.547   1.429
78287W        W46760   8.880  22.150  12.825
78288W        W46761  16.785  39.938  14.486
78289W        W46762   5.300  10.164   1.933
78290W        W46763   0.432  18.163  13.884
78291W        W46764  44.941  35.487  13.929
78292W        W46765  29.486  22.692   3.696
78293W        W46766  35.068  39.820  11.069
78294W        W46767  16.623   1.754  13.998
78295W        W46768  39.337  11.341   2.857
78296W        W46769  29.597  38.849   5.227
78297W        W46770  39.558   8.707  13.482
78298W        W46771  23.730   4.301  14.890
78299W        W46772   2.761  38.428  12.038
78300W        W46773  12.202  21.654  11.975
78301W        W46774  31.468  39.050   0.898
78302W        W46775   8.820  29.005  12.954
78303W        W46776  25.647  40.424   1.225
78304W        W46777  42.788  10.799   2.743
78305W        W46778  16.300  11.735   4.700
78306W        W46779   0.798   6.707   1.723
78307W        W46780   2.765  10.764   3.300
78308W        W46781  10.729  29.608  14.949
78309W        W46782  14.262  24.197   4.297
78310W        W46783  23.145  41.898   4.705
78311W        W46784  10.783  13.668  11.915
78312W        W46785   8.221  42.918   4.836
78313W        W46786   5.728  16.773  10.406
78314W        W46787  37.499  29.526  10.548
78315W        W46788  38.433  39.342   1.415
78316W        W46789  25.129  30.507   1.904
78317W        W46790  40.993  32.502   1.315
78318W        W46791  30.076   7.316   4.315
78319W        W46792  16.642  13.731   1.900
78320W        W46793  15.765   8.668   9.964
78321W        W46794  32.120  23.233  11.591
78322W        W46795   9.393  23.550   3.293
78323W        W46796   9.200  14.182  14.990
78324W        W46797   2.955   4.732  14.971
78325W        W46798  13.270  16.155   0.864
78326W        W46799  21.155  41.532  11.422
78327W        W46800  39.961  32.066   2.270
78328W        W46801  36.004  44.317   3.712
78329W        W46802  42.997   3.753   0.254
78330W        W46803   3.235  13.631   4.230
78331W        W46804   1.777  20.149   3.854
78332W        W46805  28.553  38.965   1.698
78333W        W46806  13.106  16.606  11.064
78334W        W46807   3.386  26.097  13.534
78335W        W46808  27.031  20.178  13.027
78336W        W46809  27.680  21.714  14.403
78337W        W46810  30.004  21.215  14.344
78338W        W46811  33.451   9.195  14.930
78339W        W46812   0.474  15.313   3.657
78340W        W46813  20.698  16.603  12.433
78341W        W46814  10.380  42.406   4.210
78342W        W46815   2.864  35.592  12.527
78343W        W46816  10.677  15.304   2.751
78344W        W46817  33.503   0.911   3.763
78345W        W46818   0.282  42.377   3.373
78346W        W46819   1.430  30.553  11.422
78347W        W46820  15.766   2.803   2.226
78348W        W46821  39.861  38.061  13.877
78349W        W46822  12.119  44.287  13.395
78350W        W46823   2.286   2.304   4.652
78351W        W46824   6.894  37.900  11.415
78352W        W46825  32.477   8.734   4.301
78353W        W46826  33.069  38.871   1.841
78354W        W46827  11.850  22.728   1.244
78355W        W46828   0.838  24.563   4.687
78356W        W46829   6.380  26.069   2.847
78357W        W46830  33.899  22.621   1.875
78358W        W46831  10.768  29.954   1.704
78359W        W46832  24.052   3.228   0.254
78360W        W46833  15.762  41.327   0.293
78361W        W46834  30.657  37.343  11.471
78362W        W46835  16.133  22.082   1.781
78363W        W46836  40.396  29.140   2.300
78364W        W46837  41.450   4.415   0.312
78365W        W46838   4.886  19.556  14.007
78366W        W46839  39.413  36.872  14.826
78367W        W46840  11.788  29.626  12.862
78368W        W46841  24.176   0.805   2.291
78369W        W46842  18.681  12.317  14.324
78370W        W46843   8.303   2.374   3.670
78371W        W46844  40.410  29.667  10.966
78372W        W46845  42.784   1.351   0.887
78373W        W46846  23.644  41.322   2.203
78374W        W46847   9.704  26.976  10.978
78375W        W46848   7.285  33.922  13.528
78376W        W46849  24.197  17.115   2.204
78377W        W46850  26.591  16.656   0.740
78378W        W46851  11.367  36.017  14.787
78379W        W46852  18.549  25.207   0.295
78380W        W46853  38.841  41.305   4.734
78381W        W46854  38.567   5.418   2.215
78382W        W46855  36.392   7.278  10.480
78383W        W46856  24.671  20.252   4.124
78384W        W46857  18.675   1.746  10.459
78385W        W46858  38.958  32.130   3.703
78386W        W46859  14.752  24.225  12.371
78387W        W46860  30.574   1.287   4.336
78388W        W46861  30.017  22.711   3.727
78389W        W46862  22.548   2.773   0.341
78390W        W46863  32.909  36.074   1.427
78391W        W46864  21.550   8.229   0.333
78392W        W46865  42.443  24.623   4.679
78393W        W46866  30.575   5.254   2.355
78394W        W46867  19.714  36.527  10.898
78395W        W46868   3.736  43.850   4.222
78396W        W46869   9.863  33.440   2.811
78397W        W46870  29.961  23.028   0.735
78398W        W46871  30.614   0.324   1.901
78399W        W46872  34.873  31.425   2.356
78400W        W46873  40.053  35.393   2.696
78401W        W46874  44.932  14.618   4.210
78402W        W46875  34.949  19.601   5.097
78403W        W46876   6.389  28.105  14.304
78404W        W46877  39.443  10.635   3.726
78405W        W46878   8.751  34.112   5.617
78406W        W46879   1.969  42.780  11.460
78407W        W46880  37.359  11.287   2.885
78408W        W46881  31.575   3.730   1.913
78409W        W46882  13.224  18.212   0.873
78410W        W46883  44.438  38.022   0.806
78411W        W46884  25.043  31.499   2.896
78412W        W46885  23.616  43.283   2.673
78413W        W46886  41.437   7.331   3.717
78414W        W46887  17.684  36.422  14.423
78415W        W46888  20.542  10.331   2.697
78416W        W46889  18.567  32.117   4.828
78417W        W46890  29.081  38.557  12.913
78418W        W46891  44.279   5.763   1.441
78419W        W46892  25.039   7.201   2.706
78420W        W46893   1.790  15.719   3.296
78421W        W46894  20.206   5.279  13.433
78422W        W46895  41.838  24.992   1.728
78423W        W46896   1.856   2.916  14.985
78424W        W46897  38.457  10.771  12.384
78425W        W46898   5.688  22.061   3.753
78426W        W46899  30.930  15.258  14.945
78427W        W46900  24.527  11.853   0.807
78428W        W46901  10.765   0.449   3.649
78429W        W46902   5.933   4.943   0.406
78430W        W46903  18.189  33.559  11.441
78431W        W46904  16.239  38.966  10.493
78432W        W46905   5.722  32.031  11.011
78433W        W46906  11.164  24.021   0.853
78434W        W46907  10.259  22.090   2.263
78435W        W46908   9.355   9.797  13.411
78436W        W46909  40.471  33.521   2.793
78437W        W46910  40.312  41.836   0.881
78438W        W46911  20.210  21.115   1.773
78439W        W46912  25.085  22.052  10.544
78440W        W46913  22.560  42.998   0.755
78441W        W46914  28.064  23.093   4.649
78442W        W46915  32.499  29.007   0.406
78443W        W46916  42.321  27.147  12.578
78444W        W46917   1.250  17.266  10.523
78445W        W46918  38.561  10.323   3.353
78446W        W46919  43.405   0.474   2.737
78447W        W46920  29.048   4.329  13.487
78448W        W46921  33.959  40.046  11.118
78449W        W46922   6.252  38.004  14.827
78450W        W46923  14.191  40.921   3.870
78451W        W46924  42.986  16.102  12.862
78452W        W46925  11.737  27.974  12.047
78453W        W46926  15.807  11.209   9.986
78454W        W46927   0.867  37.520  13.375
78455W        W46928  44.444  34.555  14.804
78456W        W46929  33.922  22.149  12.569
78457W        W46930  21.232  28.123  11.929
78458W        W46931   0.894  29.579   1.761
78459W        W46932  20.613  30.099  10.911
78460W        W46933  29.504  40.871  12.364
78461W        W46934  41.016  15.098  11.485
78462W        W46935   9.774  39.547   2.281
78463W        W46936  21.723   9.782  12.940
78464W        W46937  23.006   0.769   3.748
78465W        W46938  11.232   9.728   4.615
78466W        W46939  24.695  43.367   4.729
78467W        W46940  20.559  14.269  11.926
78468W        W46941  33.444  29.562  11.572
78469W        W46942  29.492  36.915   3.650
78470W        W46943   7.343  41.367  13.035
78471W        W46944  15.802  34.516   1.255
78472W        W46945  30.631   7.389  13.007
78473W        W46946   8.237  14.256  12.408
78474W        W46947  39.508   0.308   0.802
78475W        W46948  19.217  14.320  12.566
78476W        W46949  28.595  28.956  12.346
78477W        W46950  24.514   4.369  11.097
78478W        W46951  19.716  16.605  14.894
78479W        W46952  14.669  29.596   0.887
78480W        W46953  13.112   4.810   0.813
78481W        W46954  10.796   2.740   1.251
78482W        W46955   9.731   1.971   0.849
78483W        W46956   7.754  25.104   2.260
78484W        W46957  14.261  36.481   0.793
78485W        W46958  13.202  24.079  11.871
78486W        W46959  24.562  14.637   3.207
78487W        W46960  41.811  18.588   0.903
78488W        W46961  32.962  10.783  12.451
78489W        W46962  14.312  24.198  10.504
78490W        W46963  19.158  33.075  12.095
78491W        W46964   3.381  40.397   5.281
78492W        W46965   4.346  12.316   2.866
78493W        W46966   3.318   9.298   1.752
78494W        W46967   2.825  36.978  11.484
78495W        W46968  14.159  27.987  10.443
78496W        W46969  19.755  12.759  12.020
78497W        W46970   9.850  25.993   3.869
78498W        W46971   4.390  36.993  10.416
78499W        W46972  13.150  33.883  11.606
78500W        W46973  37.860  27.942  11.029
78501W        W46974  33.506  25.111  14.424
78502W        W46975  17.294  14.301   4.344
78503W        W46976  12.239  34.021   1.805
78504W        W46977  22.093  36.027   0.343
78505W        W46978  11.806  24.084  13.471
78506W        W46979   6.838  33.984  13.457
78507W        W46980  34.470   3.367   0.421
78508W        W46981   4.260  21.602   4.273
78509W        W46982  38.503  18.751   4.775
78510W        W46983  38.901  34.029   1.779
78511W        W46984   5.347  35.554  10.908
78512W        W46985  18.557  18.638  11.902
78513W        W46986   2.769   8.269   3.185
78514W        W46987  23.022  43.429   0.808
78515W        W46988  10.864  29.635  12.866
78516W        W46989  41.504  15.134  11.374
78517W        W46990  11.710  11.353   3.711
78518W        W46991  23.680  26.496   3.775
78519W        W46992  23.036  10.334  12.033
78520W        W46993  25.497   0.872   5.621
78521W        W46994   4.430  21.031  11.095
78522W        W46995  27.052  15.673   4.730
78523W        W46996  23.175  33.998   2.227
78524W        W46997  20.736  36.947   0.771
78525W        W46998   5.403   5.300  14.482
78526W        W46999   1.243  11.731   2.851
78527W        W47000   1.834  13.161  14.388
78528W        W47001  33.070  43.397   1.372
78529W        W47002  32.072   2.281   3.737
78530W        W47003  29.593  22.723  14.292
78531W        W47004  34.535  10.855   3.677
78532W        W47005  22.589  16.307  14.935
78533W        W47006   2.258   4.747   3.287
78534W        W47007   4.252  12.614   2.315
78535W        W47008  15.702   2.772   3.821
78536W        W47009   7.300  32.620  13.889
78537W        W47010  42.497  15.264  14.944
78538W        W47011  34.512  12.320  10.612
78539W        W47012  22.042   5.797  11.568
78540W        W47013   0.752  43.341  12.845
78541W        W47014  30.421  41.796   0.260
78542W        W47015   6.793   5.249  12.450
78543W        W47016  18.195   7.717   3.730
78544W        W47017  33.620  28.614   0.945
78545W        W47018  34.401  17.735  13.930
78546W        W47019  15.626  11.332  13.052
78547W        W47020  39.820   5.924  13.986
78548W        W47021   6.202  37.894  13.977
78549W        W47022   6.875  11.832  11.008
78550W        W47023   8.236   6.225   5.296
78551W        W47024  12.361  41.454  14.959
78552W        W47025  21.719  14.828   1.401
78553W        W47026  16.171   7.382   0.350
78554W        W47027  16.742   9.183   4.142
78555W        W47028  32.443  11.806  12.919
78556W        W47029  37.464  40.367  12.829
78557W        W47030  43.891  34.888  14.986
78558W        W47031  38.362  25.554   0.730
78559W        W47032  42.824   0.293  14.363
78560W        W47033  10.714  17.271   1.394
78561W        W47034   5.392   3.944  11.935
78562W        W47035  19.088  11.370   4.276
78563W        W47036  33.493  40.815  14.941
78564W        W47037  18.570  27.568   1.901
78565W        W47038  33.913  16.621  10.631
78566W        W47039  23.985  26.499   3.286
78567W        W47040  44.926  22.541  13.346
78568W        W47041  17.757  20.549  14.019
78569W        W47042  12.144  26.000  13.542
78570W        W47043   7.822  17.718   3.863
78571W        W47044  21.165   4.225   2.419
78572W        W47045  37.937  36.844   2.670
78573W        W47046  24.184  44.314  13.881
78574W        W47047  11.669  42.343   3.158
78575W        W47048  43.386   4.439   1.263
78576W        W47049  40.980  37.010   4.837
78577W        W47050   2.936  11.318   1.906
78578W        W47051   8.179  16.262  13.393
78579W        W47052  35.091  23.527   4.774
78580W        W47053  43.385  38.889   4.277
78581W        W47054  44.262  38.864  13.935
78582W        W47055   5.325  20.244   0.301
78583W        W47056  32.036  13.292   3.856
78584W        W47057  36.888   5.848   0.734
78585W        W47058   5.825  40.509   2.686
78586W        W47059  35.081  22.677  11.387
78587W        W47060  22.725  32.442   2.808
78588W        W47061  32.935  26.032   1.306
78589W        W47062  10.184  24.507   1.908
78590W        W47063  11.219  18.282  10.917
78591W        W47064  12.228   1.906   1.295
78592W        W47065   0.270  41.528  12.938
78593W        W47066  24.586  28.011   3.805
78594W        W47067   8.850   3.712   2.840
78595W        W47068  28.146   6.269   2.198
78596W        W47069   5.897  41.464  11.075
78597W        W47070  39.489  19.173   0.899
78598W        W47071  25.115  18.634   2.810
78599W        W47072  34.090   8.327   3.816
78600W        W47073  43.367   3.272   1.403
78601W        W47074   8.215  10.341  12.951
78602W        W47075  20.113  42.902  11.894
78603W        W47076  18.256   4.914  11.911
78604W        W47077  35.499  32.578  13.321
78605W        W47078   8.783  33.520   0.259
78606W        W47079  35.090  13.112   1.877
78607W        W47080  32.941  12.295   3.668
78608W        W47081   5.700  42.871   3.306
78609W        W47082  42.930  19.745   1.763
78610W        W47083  15.635  39.935  12.088
78611W        W47084  25.063  32.531  13.027
78612W        W47085   1.935  21.603  12.830
78613W        W47086   8.893   4.416   2.387
78614W        W47087  30.111  35.474  14.302
78615W        W47088  30.918   3.431  13.995
78616W        W47089  14.299  18.052   4.601
78617W        W47090   6.711  26.460   1.222
78618W        W47091  27.121  35.910  14.381
78619W        W47092  14.101  36.915  14.799
78620W        W47093  40.506  44.005  14.872
78621W        W47094  37.454   4.786  13.883
78622W        W47095  32.888   9.379   2.821
78623W        W47096   7.353   1.282  12.373
78624W        W47097  29.921  14.232  13.387
78625W        W47098  23.692  35.400  14.988
78626W        W47099  42.896  24.663  12.092
78627W        W47100   2.309  32.634  12.919
78628W        W47101  21.592  38.925   0.342
78629W        W47102   5.802  30.990  14.928
78630W        W47103   4.743  40.421   0.409
78631W        W47104   2.248  32.056  10.009
78632W        W47105  30.152  14.808  13.496
78633W        W47106  31.151   0.331  11.443
78634W        W47107   2.726  44.976  14.366
78635W        W47108  14.181  41.351  10.448
78636W        W47109   5.272  42.953  10.436
78637W        W47110  33.093  37.853   3.773
78638W        W47111  27.638  29.019   0.885
78639W        W47112   0.783  27.646  12.844
78640W        W47113  40.019  25.596  11.885
78641W        W47114  18.230  31.461   3.240
78642W        W47115  14.596  27.125   4.187
78643W        W47116  40.822   5.299  12.043
78644W        W47117  25.688   9.352  14.364
78645W        W47118   5.294  37.962  11.581
78646W        W47119  42.780  30.456   0.927
78647W        W47120  35.865  16.209  11.978
78648W        W47121   3.906  30.646  11.081
78649W        W47122  25.630  28.492  14.840
78650W        W47123   2.461  36.541   2.288
78651W        W47124  42.434  25.078   1.807
78652W        W47125   7.724  27.968  12.965
78653W        W47126   4.408  38.036   3.180
78654W        W47127   8.283  14.331  12.986
78655W        W47128  17.238   5.407   2.360
78656W        W47129  12.147   7.778   4.324
78657W        W47130  41.296  14.612  14.345
78658W        W47131   9.789  11.787  14.891
78659W        W47132   1.250  11.634   1.358
78660W        W47133  14.670   2.371  14.376
78661W        W47134  27.546  23.106  10.925
78662W        W47135   2.940   8.367  14.935
78663W        W47136   8.749   5.313   4.744
78664W        W47137  30.637  38.332  12.444
78665W        W47138  21.597  21.018  10.531
78666W        W47139   1.748  13.811  11.001
78667W        W47140   4.794  28.073  12.081
78668W        W47141   5.324  26.177  11.503
78669W        W47142   6.313  29.970   1.341
78670W        W47143   0.965  20.268  11.401
78671W        W47144  33.052  38.421  14.513
78672W        W47145  19.712  35.564   3.316
78673W        W47146   9.815  11.210   2.376
78674W        W47147  39.871  42.292   3.810
78675W        W47148  27.521  18.093  10.610
78676W        W47149  15.799   3.881   3.227
78677W        W47150  12.612  24.639  13.442
78678W        W47151  28.938  34.505   4.627
78679W        W47152  29.543  15.302  12.409
78680W        W47153  32.973  10.811   2.671
78681W        W47154  43.933  32.086   4.257
78682W        W47155   2.811  23.507  13.478
78683W        W47156  14.793   7.819   4.628
78684W        W47157  36.014  22.211  10.484
78685W        W47158  22.628  42.287  14.342
78686W        W47159  25.643   4.363   3.767
78687W        W47160  14.740  37.862   9.638
78688W        W47161  34.428  25.985   2.677
78689W        W47162  10.364  16.224   1.224
78690W        W47163  42.513   5.198   3.282
78691W        W47164  10.742  17.592  13.421
78692W        W47165  11.714  14.778  14.482
78693W        W47166   3.461  20.549  13.824
78694W        W47167   8.792   8.840   2.271
78695W        W47168  22.720  41.489   3.296
78696W        W47169   9.872  41.796  12.038
78697W        W47170   2.842   9.350  11.105
78698W        W47171  13.194  43.272  10.605
78699W        W47172   2.342  26.167  14.481
78700W        W47173  22.724  29.650   5.147
78701W        W47174  26.085  13.718   0.348
78702W        W47175  33.084   0.847   0.311
78703W        W47176   0.750  37.062  10.440
78704W        W47177   9.282  38.516   1.315
78705W        W47178  44.796  29.596  11.542
78706W        W47179  39.541   2.803  10.540
78707W        W47180   2.272  28.136  13.801
78708W        W47181  20.663  15.201   4.723
78709W        W47182  29.994  14.591  13.009
78710W        W47183  25.219  10.147   4.117
78711W        W47184  29.552  28.549  13.366
78712W        W47185  39.349  27.495   3.756
78713W        W47186  40.436   6.206  14.860
78714W        W47187   3.398  18.072   1.812
78715W        W47188  40.009   3.752   4.304
78716W        W47189   8.664   1.883   2.256
78717W        W47190   9.769  23.180  11.105
78718W        W47191  41.811  44.996   3.146
78719W        W47192  39.514  23.618  13.015
78720W        W47193  29.534  31.559  14.498
78721W        W47194  31.093  40.974  13.984
78722W        W47195  32.392  33.593  13.500
78723W        W47196  30.964  37.940  10.433
78724W        W47197   6.701  38.899  14.973
78725W        W47198  17.185  41.325  10.905
78726W        W47199  14.234  13.716  12.542
78727W        W47200   4.705  31.572   0.290
78728W        W47201  32.107  25.484   2.865
78729W        W47202   9.276   4.329   4.783
78730W        W47203   7.274  34.028  10.512
78731W        W47204  42.800  32.039  14.324
78732W        W47205  13.203  38.560  14.501
78733W        W47206  26.021  20.260   3.740
78734W        W47207  35.447   1.740  13.851
78735W        W47208   3.272   8.289  11.898
78736W        W47209  12.213  42.888   0.304
78737W        W47210  26.465  21.638   0.296
78738W        W47211   7.322  10.654   3.155
78739W        W47212  29.995  11.629  11.506
78740W        W47213  12.704   3.925  14.478
78741W        W47214  11.623  25.487  14.874
78742W        W47215  26.993  35.009  12.931
78743W        W47216   5.318  39.848  14.295
78744W        W47217   7.695  15.091   3.841
78745W        W47218  42.818  38.391   3.840
78746W        W47219  25.473  38.567  14.428
78747W        W47220  16.595   1.473  11.119
78748W        W47221  14.152   8.335   3.780
78749W        W47222  38.389  13.319   0.929
78750W        W47223  37.875  14.302   3.238
78751W        W47224  43.408   2.413   1.854
78752W        W47225  26.493  34.601   0.750
78753W        W47226  22.637  16.640  14.798
78754W        W47227  33.484   7.237   1.835
78755W        W47228  13.813  22.137  10.538
78756W        W47229  15.653  20.157  11.049
78757W        W47230   9.786   2.229  12.502
78758W        W47231  25.563   1.966   0.735
78759W        W47232  20.718  18.729   2.664
78760W        W47233  41.975  31.624  14.934
78761W        W47234  16.775   5.843  12.395
78762W        W47235  24.503   5.366   2.301
78763W        W47236   9.310   9.644  10.453
78764W        W47237  19.264  17.284   1.262
78765W        W47238   0.486  25.693   1.776
78766W        W47239  10.852  24.126   0.727
78767W        W47240  31.153  24.661   3.318
78768W        W47241   7.362  18.292   1.744
78769W        W47242  43.806  24.708  13.449
78770W        W47243  14.137  41.991  13.471
78771W        W47244  30.501  13.695  10.503
78772W        W47245   3.953   9.666   4.764
78773W        W47246  31.587   7.417   1.696
78774W        W47247  30.468  37.073  14.999
78775W        W47248  23.642  40.435  14.432
78776W        W47249   3.273  44.288  13.364
78777W        W47250  12.319  33.979  11.017
78778W        W47251   3.822  35.096   1.806
78779W        W47252   3.390   4.846   2.712
78780W        W47253   4.293   7.182   3.290
78781W        W47254   7.314   9.770   4.670
78782W        W47255  43.306  20.623  13.969
78783W        W47256  39.431   9.863   2.197
78784W        W47257   5.196   7.804   0.853
78785W        W47258  32.513  44.328   0.760
78786W        W47259  31.640  19.608  10.891
78787W        W47260  11.354  40.369   3.318
78788W        W47261  22.600  20.708  11.021
78789W        W47262  27.681  33.482   0.468
78790W        W47263   8.704   2.786   3.347
78791W        W47264  38.429  26.158  11.882
78792W        W47265  13.798  40.854  13.319
78793W        W47266  39.461  30.931  14.897
78794W        W47267  12.189  43.379   0.252
78795W        W47268  38.547  18.156  10.904
78796W        W47269  44.449   4.420   1.908
78797W        W47270  15.659  23.101   1.749
78798W        W47271  44.883  41.459  10.639
78799W        W47272  26.153  14.274  14.303
78800W        W47273   9.752  16.645   1.305
78801W        W47274  27.982  30.014   1.724
78802W        W47275  26.688  44.760   2.901
78803W        W47276  41.030  14.194  10.604
78804W        W47277   4.797   0.822  14.839
78805W        W47278  12.357  44.442  12.386
78806W        W47279  32.566  26.032   5.311
78807W        W47280  13.320  18.103  11.453
78808W        W47281   8.335   0.983  14.860
78809W        W47282  16.214  26.659  10.153
78810W        W47283  16.792  14.657  13.805
78811W        W47284  33.499   1.298  14.510
78812W        W47285   3.838  16.128   3.154
78813W        W47286  19.657  31.415   4.198
78814W        W47287  21.216   9.151  14.515
78815W        W47288  33.051  14.196  13.892
78816W        W47289  23.027  13.601   3.868
78817W        W47290  35.428  39.490   3.719
78818W        W47291  26.983  27.945   4.636
78819W        W47292  28.144  24.065   0.735
78820W        W47293  31.926  34.957   2.410
78821W        W47294  18.153  41.437   4.159
78822W        W47295   9.164  16.691  12.062
78823W        W47296  39.884  23.172   4.748
78824W        W47297  34.005  32.462   1.275
78825W        W47298  23.599  31.926  12.977
78826W        W47299  14.241  32.502  12.484
78827W        W47300  14.145   5.378  12.824
78828W        W47301  30.040  24.214   2.891
78829W        W47302  15.275  13.610   1.831
78830W        W47303   5.900  25.603   3.326
78831W        W47304  19.710  16.673   0.333
78832W        W47305  30.086  28.632   2.416
78833W        W47306   6.827  21.085  11.581
78834W        W47307   4.858  20.646  12.032
78835W        W47308  43.482   6.760  13.312
78836W        W47309  22.703   3.376  13.446
78837W        W47310  10.719  33.519  12.392
78838W        W47311   5.701  42.776   1.372
78839W        W47312  37.070  23.702  14.927
78840W        W47313   5.212  20.676  14.961
78841W        W47314  26.584  40.523  14.960
78842W        W47315   5.821  33.012  14.906
78843W        W47316   7.816   5.221   1.421
78844W        W47317  31.499  16.308   3.651
78845W        W47318   7.897  23.098   4.136
78846W        W47319   5.204  19.243  10.417
78847W        W47320  26.153  29.130  12.940
78848W        W47321  37.437   6.793  10.913
78849W        W47322   9.874  18.233   3.246
78850W        W47323  34.102  43.338  12.392
78851W        W47324  31.110  27.969  14.783
78852W        W47325  18.231  32.109   5.269
78853W        W47326  36.351  19.748  11.440
78854W        W47327  24.003  36.007  10.513
78855W        W47328  41.038  25.017   2.301
78856W        W47329  13.764   4.352  13.505
78857W        W47330   7.844  30.602   1.444
78858W        W47331  23.003   1.322   0.455
78859W        W47332  30.924  13.707   3.293
78860W        W47333  23.660   2.395  11.006
78861W        W47334  43.317   9.785   1.334
78862W        W47335  38.547  30.977  11.392
78863W        W47336  43.310  42.376  14.807
78864W        W47337  39.908   3.716   2.403
78865W        W47338  44.895  31.520  11.970
78866W        W47339  27.958  29.114   3.718
78867W        W47340   2.869  43.918   0.355
78868W        W47341  13.111  41.329  11.958
78869W        W47342  26.666  25.709  12.833
78870W        W47343  27.505  21.041  14.383
78871W        W47344  21.613  12.842  12.486
78872W        W47345  21.578  42.000   2.805
78873W        W47346  22.030  20.056   3.823
78874W        W47347  13.290  24.597  13.520
78875W        W47348  35.912  30.011   0.283
78876W        W47349  15.115  41.396   4.644
78877W        W47350   2.374  25.688  14.978
78878W        W47351  30.468  32.952   0.746
78879W        W47352  13.761  25.113   1.807
78880W        W47353   8.820  14.688  12.572
78881W        W47354  10.366  36.096   3.286
78882W        W47355   9.367   8.780   9.986
78883W        W47356  10.875  26.159   0.777
78884W        W47357   1.797  34.904  13.791
78885W        W47358  20.558   7.815  12.905
78886W        W47359  43.968  44.299   0.422
78887W        W47360   6.199  20.029  11.991
78888W        W47361  33.413  19.283   1.452
78889W        W47362   5.395  30.051  11.610
78890W        W47363  17.301   7.235  12.505
78891W        W47364  44.317   2.746  14.318
78892W        W47365   0.303  15.127  12.386
78893W        W47366  21.547  20.115   4.606
78894W        W47367  23.150  17.243  12.977
78895W        W47368   5.882  21.070   0.950
78896W        W47369   8.761   8.777  12.464
78897W        W47370  42.445  33.576  13.957
78898W        W47371  20.666  19.221  12.451
78899W        W47372  11.802  33.975  14.948
78900W        W47373  27.039  28.966  10.589
78901W        W47374  19.581  18.127   4.166
78902W        W47375  44.967  42.365   3.815
78903W        W47376  12.813   7.849  12.558
78904W        W47377  38.526  18.089   0.927
78905W        W47378  38.369  43.008  13.031
78906W        W47379  32.920  40.856   1.242
78907W        W47380  11.689  43.457   2.738
78908W        W47381  29.584  31.500  14.787
78909W        W47382  27.051  39.343   0.357
78910W        W47383  16.119   7.185  12.484
78911W        W47384  10.179  29.583   5.247
78912W        W47385   9.746  19.574  10.501
78913W        W47386  40.390  10.354   2.900
78914W        W47387  42.832  26.600   0.865
78915W        W47388  13.286   2.351   0.443
78916W        W47389   3.849   4.840  12.488
78917W        W47390  42.491  38.410  13.380
78918W        W47391  28.665  29.503  11.043
78919W        W47392   9.292  44.297   9.923
78920W        W47393   0.941  29.590  13.429
78921W        W47394  33.506  16.248   0.482
78922W        W47395   8.237   7.805  11.125
78923W        W47396  31.033  29.667   3.212
78924W        W47397  11.769  28.053  10.892
78925W        W47398   4.396  17.763  11.883
78926W        W47399  26.530  23.627   1.340
78927W        W47400  10.858   7.708  14.918
78928W        W47401  43.488  19.745   1.238
78929W        W47402   8.209  44.781  13.393
78930W        W47403  44.830  27.522  14.399
78931W        W47404  27.131  31.922  12.004
78932W        W47405  14.182  14.199  12.953
78933W        W47406  41.817   8.376  14.030
78934W        W47407  18.213   8.761   4.247
78935W        W47408  42.811  37.343   0.786
78936W        W47409  19.082   1.253  12.517
78937W        W47410  33.400  35.568   0.749
78938W        W47411   1.900  29.583   2.691
78939W        W47412  31.104   9.737  10.537
78940W        W47413  13.729  44.296  10.626
78941W        W47414  25.514  27.050   2.382
78942W        W47415  30.081   8.666   2.676
78943W        W47416  29.627  30.039  11.577
78944W        W47417  34.576  11.197  14.918
78945W        W47418   8.269  21.245   0.324
78946W        W47419  32.544   1.787  13.970
78947W        W47420  37.577  15.684   2.832
78948W        W47421  28.508   8.208   0.316
78949W        W47422   9.238  19.613  10.640
78950W        W47423  36.972  39.431   2.893
78951W        W47424  14.233  34.995   0.952
78952W        W47425  26.512   2.397  13.393
78953W        W47426  12.163  42.344   0.774
78954W        W47427  44.789  21.099  10.539
78955W        W47428  15.250  12.763  14.480
78956W        W47429  11.279  43.844   0.859
78957W        W47430  25.026  34.867   2.761
78958W        W47431  38.357  27.151  11.917
78959W        W47432  35.387  20.045  11.442
78960W        W47433  44.495  15.247   1.440
78961W        W47434  40.850  31.112  11.463
78962W        W47435  41.964  28.516   0.941
78963W        W47436  15.231   6.407   0.825
78964W        W47437   2.897   2.725   2.705
78965W        W47438   2.834  10.700  11.376
78966W        W47439  28.452  42.839  12.969
78967W        W47440  14.617  16.635  13.060
78968W        W47441   8.677   3.765   1.416
78969W        W47442  13.193  15.741  13.881
78970W        W47443  12.183  25.659   1.378
78971W        W47444  27.040   5.202  12.432
78972W        W47445  28.577  40.906  14.310
78973W        W47446   4.742  14.234  12.473
78974W        W47447  16.197  33.029  13.488
78975W        W47448  30.455   8.367   3.853
78976W        W47449  11.722  41.443  11.549
78977W        W47450  17.613  23.207   0.333
78978W        W47451  21.530  37.884   0.313
78979W        W47452  41.972   2.722   0.427
78980W        W47453  22.678  44.992   0.270
78981W        W47454  10.702  23.070   9.939
78982W        W47455   8.665  15.609  12.032
78983W        W47456  19.728  23.047   3.296
78984W        W47457  10.716  40.985   0.745
78985W        W47458  17.630  12.716  14.358
78986W        W47459   6.233  28.503  13.873
78987W        W47460  38.072  23.727  14.393
78988W        W47461  36.936   4.701   9.986
78989W        W47462  27.529  26.612   4.215
78990W        W47463  20.711   4.910  12.456
78991W        W47464  25.170   0.799   2.209
78992W        W47465  13.744  43.325   4.810
78993W        W47466  44.470   8.289  11.012
78994W        W47467  19.681  33.481  12.421
78995W        W47468  40.394  41.001  11.051
78996W        W47469  44.811  32.076  12.405
78997W        W47470   9.783  25.097   2.856
78998W        W47471  40.410  10.328   5.166
78999W        W47472  33.918  27.969   4.254
79000W        W47473  31.448  29.525   0.768
79001W        W47474   1.297  31.417   4.837
79002W        W47475  11.753  43.961   2.775
79003W        W47476   5.270  22.028  10.891
79004W        W47477  30.484   1.828  10.986
79005W        W47478   9.703  36.009  14.934
79006W        W47479   6.360  42.941   2.267
79007W        W47480  15.715   9.357   0.411
79008W        W47481  43.948  12.150  12.353
79009W        W47482  32.088  34.464  12.477
79010W        W47483   1.948  15.326   2.791
79011W        W47484  33.600   2.408  14.461
79012W        W47485  21.062  27.636   0.803
79013W        W47486  23.601  18.122  11.123
79014W        W47487  14.591  21.066  14.289
79015W        W47488  40.320  35.921   2.787
79016W        W47489  13.154  22.687   2.407
79017W        W47490  15.743  29.438   4.122
79018W        W47491  43.893  12.687   1.439
79019W        W47492  26.173  20.236  14.330
79020W        W47493  38.956  44.914   1.818
79021W        W47494   4.944  11.312  11.091
79022W        W47495  25.695  30.153  10.552
79023W        W47496  30.097  42.305   0.933
79024W        W47497  37.000  18.172  11.465
79025W        W47498  23.122   4.822  14.396
79026W        W47499  44.331  26.577   3.721
79027W        W47500  22.237  16.644  14.967
79028W        W47501  25.711  18.072   3.330
79029W        W47502  23.656  40.503  11.478
79030W        W47503   6.874  43.956  12.823
79031W        W47504  26.135  28.183  11.126
79032W        W47505  17.303  19.130   4.177
79033W        W47506  32.399   9.817   1.350
79034W        W47507  29.496  31.107   4.257
79035W        W47508  41.924   2.877  13.420
79036W        W47509   4.771  22.549  13.339
79037W        W47510   1.387  33.603   4.747
79038W        W47511  11.266  35.456  10.017
79039W        W47512  29.516  13.831   0.349
79040W        W47513  44.787  15.280   4.291
79041W        W47514  17.617  36.372  11.035
79042W        W47515  19.158  36.358   1.437
79043W        W47516   9.254  34.502  14.384
79044W        W47517  18.154  32.591   1.694
79045W        W47518  34.424  12.646  12.442
79046W        W47519   7.202  16.145   3.752
79047W        W47520  28.074  31.972  13.931
79048W        W47521  12.152  10.310  10.007
79049W        W47522   8.721  21.660  13.391
79050W        W47523   7.255  37.052  13.444
79051W        W47524  28.016  26.643  13.497
79052W        W47525  37.546  15.694   3.285
79053W        W47526   2.254  36.874  14.835
79054W        W47527  25.021  30.995  11.375
79055W        W47528  35.562   6.188   4.118
79056W        W47529  22.169  24.073  11.908
79057W        W47530   5.300  31.151   0.757
79058W        W47531  39.831  13.778   3.773
79059W        W47532  25.520   5.853   0.925
79060W        W47533  40.340   4.380   2.361
79061W        W47534  23.239  34.981   0.847
79062W        W47535  19.057   0.744   1.434
79063W        W47536  44.449   6.334   0.802
79064W        W47537   4.242  44.437  13.496
79065W        W47538   8.795  24.696   1.787
79066W        W47539  41.977  21.125   2.784
79067W        W47540   4.846  10.280  10.409
79068W        W47541  11.688  39.921   2.393
79069W        W47542  36.883  23.501  13.827
79070W        W47543  38.859  29.082  14.466
79071W        W47544  19.272  29.538   1.779
79072W        W47545  37.839  24.527  13.008
79073W        W47546  18.251  24.167   3.370
79074W        W47547  36.847  10.765   2.275
79075W        W47548  39.846   2.426   0.770
79076W        W47549  17.652  13.294  13.855
79077W        W47550  11.317   2.404  13.518
79078W        W47551   2.291  15.737  12.451
79079W        W47552  38.922  35.516   1.370
79080W        W47553  38.849  39.947   3.271
79081W        W47554   3.296   5.255  14.494
79082W        W47555  20.631  43.498  14.007
79083W        W47556  11.350  22.693   1.372
79084W        W47557  12.800  42.323  13.446
79085W        W47558   8.182   0.280  11.578
79086W        W47559   7.728  24.515   2.743
79087W        W47560  21.584  40.008   4.149
79088W        W47561  10.210  13.803  14.999
79089W        W47562  30.133   7.767   4.201
79090W        W47563  22.516  10.284   3.162
79091W        W47564   7.289  14.796   0.786
79092W        W47565   2.357   1.442  10.453
79093W        W47566  18.673   0.384  10.414
79094W        W47567   9.698  12.710  11.439
79095W        W47568   0.478  19.573  13.373
79096W        W47569   4.792  33.905  11.112
79097W        W47570  13.842  16.765   0.815
79098W        W47571  24.622  27.557  10.574
79099W        W47572   3.345  30.497   2.703
79100W        W47573  34.402  40.420   2.242
79101W        W47574  36.956  37.468   2.789
79102W        W47575  14.735   2.846  11.405
79103W        W47576  30.015  27.129  12.036
79104W        W47577  33.510  17.230   1.791
79105W        W47578  40.882  43.346  14.948
79106W        W47579  24.167  42.313  13.463
79107W        W47580  23.165  12.323   3.216
79108W        W47581  44.363  21.179  11.951
79109W        W47582  40.329  28.674  13.853
79110W        W47583   2.243  17.606   4.779
79111W        W47584   0.285  38.965   0.886
79112W        W47585  23.529  39.442  13.793
79113W        W47586   7.347  27.946  11.412
79114W        W47587  24.065  40.840   3.250
79115W        W47588  21.700  37.566  14.358
79116W        W47589  26.638  17.639   2.378
79117W        W47590   7.288  19.108  11.552
79118W        W47591  40.927  29.132   1.354
79119W        W47592   0.914  14.805  11.085
79120W        W47593   6.223  34.540   2.809
79121W        W47594  19.648  23.582  12.862
79122W        W47595  18.200  31.101   0.276
79123W        W47596  20.080  26.118   2.697
79124W        W47597  15.760  24.659  11.553
79125W        W47598  16.307  40.969  13.048
79126W        W47599   6.277  14.820   9.974
79127W        W47600  41.964  29.506   2.302
79128W        W47601   3.282  35.972   4.148
79129W        W47602  43.504   3.362   4.749
79130W        W47603  18.640  40.032  13.007
79131W        W47604  44.300  33.524   3.242
79132W        W47605  22.513  28.485   3.368
79133W        W47606   5.863  42.478  13.929
79134W        W47607  29.603   9.170  14.360
79135W        W47608  34.454  40.975  13.376
79136W        W47609  26.026   4.285   1.222
79137W        W47610  43.457   2.368  10.471
79138W        W47611   1.372  39.014  13.812
79139W        W47612  24.045  24.703  13.027
79140W        W47613  20.067  38.073  14.417
79141W        W47614  28.565  41.901  13.886
79142W        W47615  38.973  40.036  12.052
79143W        W47616  14.652  41.799  12.841
79144W        W47617  17.726  19.664   2.266
79145W        W47618  28.548  14.772  12.974
79146W        W47619  31.441  25.119   0.264
79147W        W47620  15.323  44.371  11.538
79148W        W47621  27.117  12.792   0.423
79149W        W47622   6.734  12.621   0.727
79150W        W47623  33.596  44.474   5.086
79151W        W47624  13.213  27.475   3.284
79152W        W47625  15.628  28.457   3.851
79153W        W47626  19.129  13.313   1.340
79154W        W47627  14.601  42.386  12.447
79155W        W47628  14.218  26.520  10.989
79156W        W47629   3.797  17.767   0.244
79157W        W47630  34.512  32.619   3.688
79158W        W47631  28.151  13.106   0.740
79159W        W47632   5.728  26.570  10.516
79160W        W47633  36.907  44.824   2.197
79161W        W47634  11.705   7.256   0.768
79162W        W47635   2.394  32.926   0.833
79163W        W47636   8.656  34.107  13.537
79164W        W47637  33.942  23.510  13.310
79165W        W47638  22.089  31.490   4.318
79166W        W47639   4.736  17.118   4.273
79167W        W47640  42.930   5.901  12.352
79168W        W47641  31.519  23.146   4.152
79169W        W47642  38.484   8.205  13.368
79170W        W47643  27.452  34.978  12.445
79171W        W47644  21.248   4.359  14.979
79172W        W47645  33.116  23.676   5.117
79173W        W47646  11.335  12.666   3.786
79174W        W47647   0.770  24.513  11.922
79175W        W47648  33.930   8.833  10.604
79176W        W47649  31.971   2.431  11.040
79177W        W47650  26.500  30.919   1.835
79178W        W47651   6.687  18.133   1.308
79179W        W47652  37.040  44.008  14.950
79180W        W47653  11.658  34.983   1.712
79181W        W47654  26.958  17.682   3.752
79182W        W47655  40.869  43.442   2.196
79183W        W47656   8.173  37.513  11.931
79184W        W47657  38.875   9.820  12.367
79185W        W47658  38.056  41.324  13.374
79186W        W47659  26.958  31.029  13.036
79187W        W47660  30.916  41.863  11.477
79188W        W47661  40.389  15.717  13.542
79189W        W47662  15.212  32.033   4.118
79190W        W47663  29.928   0.814  12.053
79191W        W47664  16.587  30.017  11.933
79192W        W47665  29.648   2.757   0.351
79193W        W47666  23.091  41.395  10.545
79194W        W47667   0.757  30.031  10.542
79195W        W47668  36.481  40.024   2.316
79196W        W47669  16.700  32.569   1.748
79197W        W47670  23.069  30.603  14.773
79198W        W47671  41.443  17.180   1.421
79199W        W47672  41.847   5.707   3.298
79200W        W47673   3.458  11.834   1.253
79201W        W47674  24.667  12.247  14.320
79202W        W47675   4.207   3.939   1.220
79203W        W47676  33.066  43.884   4.327
79204W        W47677  43.980  27.661  14.343
79205W        W47678  35.581  17.190   0.821
79206W        W47679  34.053  43.409   2.814
79207W        W47680  15.603   6.355  14.513
79208W        W47681  34.575  28.040   1.364
79209W        W47682  23.163   0.414   2.202
79210W        W47683  40.984  32.549  10.976
79211W        W47684  16.599  19.754   4.162
79212W        W47685  17.095  34.488   2.392
79213W        W47686   2.820  22.694   1.774
79214W        W47687  28.546   8.189  14.424
79215W        W47688  19.160  25.001  12.924
79216W        W47689  29.550  39.936   1.386
79217W        W47690  38.450   6.782  11.026
79218W        W47691  40.483  41.835   4.735
79219W        W47692  18.109   9.345   0.839
79220W        W47693  23.034  32.976  14.013
79221W        W47694  36.561  13.275   4.170
79222W        W47695  40.892  18.250   0.466
79223W        W47696  35.416  11.841  11.076
79224W        W47697   5.293  13.248   9.942
79225W        W47698   4.345  22.611  10.927
79226W        W47699  12.201  42.371  10.593
79227W        W47700  11.263  25.007  13.540
79228W        W47701  24.062   5.224   1.737
79229W        W47702  33.499   5.355   1.922
79230W        W47703  30.502   6.229  14.365
79231W        W47704  16.161   5.217   4.155
79232W        W47705  22.518  22.570   5.243
79233W        W47706  21.065  30.923  12.432
79234W        W47707  43.440  37.887   0.285
79235W        W47708  31.072   8.298   4.155
79236W        W47709  13.730  30.535  12.871
79237W        W47710  12.273   2.934  13.355
79238W        W47711  41.386  37.935  13.893
79239W        W47712  24.637   9.797  13.942
79240W        W47713  16.284  34.569   1.832
79241W        W47714   6.809  19.635   3.764
79242W        W47715  15.231  24.228  14.428
79243W        W47716  21.229  42.449   3.170
79244W        W47717  14.639  13.126  13.933
79245W        W47718  23.186  43.770   4.113
79246W        W47719  20.680  41.009   3.806
79247W        W47720  16.588  43.295  10.917
79248W        W47721   2.847   9.732  13.833
79249W        W47722  11.714  33.537  13.422
79250W        W47723  38.350  42.496  14.766
79251W        W47724   8.789  24.542  11.487
79252W        W47725  29.502  37.478   5.123
79253W        W47726   3.294   1.790   3.745
79254W        W47727  37.442  14.143  14.440
79255W        W47728  15.612  38.538  10.157
79256W        W47729  34.067  38.564  10.582
79257W        W47730   0.447   6.745   2.742
79258W        W47731  34.560  38.001   4.834
79259W        W47732  32.530  34.008  10.602
79260W        W47733   3.319  42.395   1.341
79261W        W47734   2.933  29.160  13.845
79262W        W47735  29.511  24.484  12.925
79263W        W47736  30.056  40.012  12.839
79264W        W47737  29.428  37.905   1.357
79265W        W47738  30.584   8.809   0.956
79266W        W47739  30.941  41.536   3.846
79267W        W47740  15.154  28.019  10.576
79268W        W47741  19.585  19.077  12.469
79269W        W47742   0.405  21.648   3.807
79270W        W47743  33.587  22.034  10.488
79271W        W47744  13.801   8.163  11.585
79272W        W47745  36.055  15.624   2.242
79273W        W47746   3.429   0.817  12.929
79274W        W47747   0.487   3.778   3.860
79275W        W47748  32.104  19.191  14.376
79276W        W47749  42.393  40.375  14.983
79277W        W47750  12.305  28.140   2.223
79278W        W47751  16.230  41.815  10.622
79279W        W47752   6.263  38.076  12.845
79280W        W47753  11.340   1.762   3.633
79281W        W47754   4.212   1.977   1.289
79282W        W47755  43.334  42.951  10.422
79283W        W47756  35.436  11.738   0.783
79284W        W47757  16.178  22.699  10.417
79285W        W47758  25.981   0.836  10.625
79286W        W47759  43.419  17.282  12.485
79287W        W47760  28.109  19.584  10.533
79288W        W47761  33.997   3.229   0.332
79289W        W47762  32.936  44.948  11.923
79290W        W47763   5.240  36.480  12.081
79291W        W47764  23.139  32.988   2.219
79292W        W47765  27.945  20.534   3.679
79293W        W47766  32.475  42.507  10.563
79294W        W47767   6.217  27.568  12.437
79295W        W47768  10.871  17.140  11.907
79296W        W47769  32.046  18.730  14.864
79297W        W47770   3.886   7.254  14.798
79298W        W47771   2.864  29.117   0.733
79299W        W47772  15.100   1.844  12.931
79300W        W47773  22.140  32.554  11.563
79301W        W47774   9.230  17.231   3.766
79302W        W47775   0.944  24.557  14.929
79303W        W47776  19.145   7.250   0.858
79304W        W47777  18.138   3.772   4.271
79305W        W47778  41.911  43.822   3.366
79306W        W47779  34.524   7.370  13.355
79307W        W47780  19.688  23.240  14.341
79308W        W47781   7.891  38.898   1.378
79309W        W47782  36.367  15.708   1.391
79310W        W47783  19.233  15.802   4.779
79311W        W47784  33.982   2.956   4.826
79312W        W47785  32.500   4.399   1.735
79313W        W47786  21.522  31.627   3.834
79314W        W47787  20.255   5.245  10.419
79315W        W47788  21.715  13.609   2.301
79316W        W47789   0.455  12.316   0.762
79317W        W47790  10.333  34.117  14.506
79318W        W47791  42.778  27.955  11.062
79319W        W47792  25.107   7.406   2.210
79320W        W47793  13.151  17.278   0.380
79321W        W47794   2.832  21.683  13.483
79322W        W47795  17.796   7.799   1.814
79323W        W47796  27.195  31.089  11.571
79324W        W47797  12.635   3.835   3.176
79325W        W47798  43.974  26.594  10.132
79326W        W47799  23.628   5.227  11.907
79327W        W47800  26.132  36.983   4.644
79328W        W47801  44.897  34.422   0.289
79329W        W47802  19.265  40.531   2.903
79330W        W47803  44.779  17.176  10.520
79331W        W47804  26.170  25.508  12.888
79332W        W47805  28.659  25.544  14.007
79333W        W47806  16.802   2.377  14.493
79334W        W47807  13.688   5.224  13.015
79335W        W47808   3.286  31.983   3.656
79336W        W47809  17.588   3.955   3.641
79337W        W47810  36.549  16.675   4.804
79338W        W47811  10.772  42.956  11.077
79339W        W47812  37.566  38.862   2.277
79340W        W47813  30.446  27.646  13.449
79341W        W47814  41.956  44.856  11.043
79342W        W47815   3.785  24.180  13.414
79343W        W47816  17.673  31.053   3.664
79344W        W47817  24.580  23.054   4.755
79345W        W47818  10.814  14.625   1.718
79346W        W47819   4.941  21.553  12.485
79347W        W47820   5.227  30.525   4.323
79348W        W47821  37.421  37.469  12.420
79349W        W47822  25.091   2.958  12.945
79350W        W47823  13.115  42.778  10.611
79351W        W47824  39.028   8.349  10.943
79352W        W47825  18.118  15.268   1.789
79353W        W47826  24.658  37.449   4.255
79354W        W47827  37.433  14.303   1.902
79355W        W47828  11.806   7.744   0.799
79356W        W47829  18.779   8.703  10.106
79357W        W47830  30.038   9.317  10.552
79358W        W47831  10.710  27.678   2.326
79359W        W47832  16.654   0.767  14.426
79360W        W47833  20.762  14.725   9.973
79361W        W47834  33.112  25.481  11.982
79362W        W47835  37.017  19.169  11.546
79363W        W47836  40.049  19.650   1.729
79364W        W47837  10.185  30.489   0.953
79365W        W47838   2.955  28.498   0.737
79366W        W47839  37.561  39.451   3.806
79367W        W47840   8.170   7.299  11.466
79368W        W47841   8.762  37.037   4.212
79369W        W47842  33.022   3.373   2.303
79370W        W47843   5.247  38.878   3.657
79371W        W47844   8.670  37.538   5.124
79372W        W47845   0.487  29.508  10.630
79373W        W47846  36.917  34.604   3.707
79374W        W47847  12.642  21.209   9.994
79375W        W47848   1.441  44.303  12.991
79376W        W47849  39.339  36.488  10.570
79377W        W47850   1.260  19.161  12.063
79378W        W47851  27.468  19.247   0.456
79379W        W47852   2.830   8.795   0.396
79380W        W47853  27.452  27.083  10.515
79381W        W47854  10.364  37.362   2.824
79382W        W47855   2.242  22.651  11.073
79383W        W47856   8.786  28.078  10.499
79384W        W47857  20.554  23.081   4.162
79385W        W47858   2.743  38.554   0.838
79386W        W47859  19.677  38.052   0.384
79387W        W47860  37.387  24.146  10.996
79388W        W47861  41.866  30.652   0.756
79389W        W47862  18.745   9.182   3.254
79390W        W47863  17.625  33.499   2.828
79391W        W47864  16.635  36.428   0.793
79392W        W47865   8.759  38.832   4.626
79393W        W47866   3.395  23.549   0.279
79394W        W47867   4.384  40.024  10.446
79395W        W47868  25.080  22.226   2.191
79396W        W47869  33.915  33.623   4.786
79397W        W47870  11.642  12.700   4.273
79398W        W47871  16.724  17.105   0.475
79399W        W47872  28.965  17.683  11.059
79400W        W47873  18.132   1.402  10.534
79401W        W47874  33.131  38.975  10.897
79402W        W47875  44.900   7.731  12.076
79403W        W47876  18.219  18.665   1.725
79404W        W47877  35.952   6.917  13.944
79405W        W47878  38.919  38.463   2.189
79406W        W47879  23.636   3.733   4.742
79407W        W47880  36.959  29.003   0.799
79408W        W47881  19.584  35.903  14.358
79409W        W47882  33.972  18.174  14.914
79410W        W47883  19.767   8.834  14.874
79411W        W47884   5.422  33.993   3.671
79412W        W47885  17.256  21.037   1.262
79413W        W47886  12.285  15.773  14.344
79414W        W47887  25.539  24.529   4.665
79415W        W47888  32.603  37.382  11.453
79416W        W47889  37.045   0.440  12.426
79417W        W47890  21.554  15.609   2.747
79418W        W47891   0.451  25.175   2.876
79419W        W47892  39.447  19.266   2.213
79420W        W47893   7.883  18.139   4.620
79421W        W47894  39.933   8.729   2.851
79422W        W47895  39.908  12.822   3.783
79423W        W47896  14.750  27.591  12.956
79424W        W47897  17.764  18.058  12.892
79425W        W47898  36.374  41.924  14.370
79426W        W47899  14.736  25.999   1.321
79427W        W47900  23.078  13.297   4.737
79428W        W47901  12.616   3.922  14.019
79429W        W47902  36.069  44.389   1.738
79430W        W47903  32.023  17.739  10.950
79431W        W47904  42.381  29.079   3.822
79432W        W47905   0.899  11.829  10.135
79433W        W47906   5.799   9.676   1.418
79434W        W47907  35.027   6.849   3.826
79435W        W47908   0.833   8.199  13.044
79436W        W47909   1.831   2.950  11.055
79437W        W47910  18.603  33.428   0.319
79438W        W47911  42.841  14.673   4.772
79439W        W47912   1.845   7.352   2.783
79440W        W47913  29.473   3.770  12.898
79441W        W47914  31.151  36.896  12.969
79442W        W47915  38.348   6.317  10.607
79443W        W47916  20.684  37.087   3.169
79444W        W47917   0.311  20.593   0.438
79445W        W47918  15.695  29.168  12.077
79446W        W47919   3.361  36.391  14.874
79447W        W47920   8.833   8.761   4.779
79448W        W47921  44.963  43.814   0.812
79449W        W47922  32.621  33.600   1.887
79450W        W47923   1.877  36.889   4.680
79451W        W47924  34.011  30.507   4.657
79452W        W47925  25.649  32.931   2.399
79453W        W47926  30.096  32.452   0.807
79454W        W47927  25.028   8.855   0.838
79455W        W47928   9.182  10.368   1.256
79456W        W47929  19.561   4.699   0.930
79457W        W47930  40.523  36.915   3.776
79458W        W47931  20.231   3.283   0.469
79459W        W47932  16.768  19.558  12.344
79460W        W47933  33.881  28.661   3.376
79461W        W47934  38.041  32.518   0.314
79462W        W47935  44.418  37.010  11.866
79463W        W47936  35.471  22.108  13.485
79464W        W47937   7.183  33.929   2.190
79465W        W47938  33.090  11.316  10.506
79466W        W47939  38.030  12.305  14.771
79467W        W47940  34.501  35.979   1.853
79468W        W47941  17.622  22.212  11.385
79469W        W47942  34.883  19.223  11.600
79470W        W47943  42.522  27.942  13.458
79471W        W47944  12.755  22.608  10.630
79472W        W47945  20.655  20.667   4.703
79473W        W47946  10.671  35.873   4.198
79474W        W47947  27.486   6.237   4.607
79475W        W47948  34.410  28.097  15.000
79476W        W47949  35.066  14.157   4.614
79477W        W47950  14.668  10.254   1.231
79478W        W47951  40.440  15.269  14.776
79479W        W47952  39.365   2.262  14.964
79480W        W47953  17.584  28.003  11.605
79481W        W47954  15.150  19.673  14.934
79482W        W47955  24.031  31.008   2.222
79483W        W47956  17.272  22.064  11.557
79484W        W47957  12.313  21.186   1.710
79485W        W47958  30.444  25.683  11.931
79486W        W47959  10.829  33.411   3.205
79487W        W47960  21.177  41.320   4.172
79488W        W47961  31.635  34.515   0.764
79489W        W47962  17.141  24.582  12.941
79490W        W47963   8.714   5.804   3.234
79491W        W47964   9.861   3.813   2.314
79492W        W47965  30.602  24.565  13.794
79493W        W47966   3.273   9.838  14.321
79494W        W47967   6.719   1.451   0.917
79495W        W47968   6.336  31.598  10.914
79496W        W47969   8.675  25.109   2.185
79497W        W47970  15.189  30.602   3.699
79498W        W47971  32.561   4.810   2.317
79499W        W47972  20.754  25.049   4.263
79500W        W47973  25.190  37.342  12.882
79501W        W47974  27.645  26.665  10.645
79502W        W47975   0.337   4.268   3.797
79503W        W47976  14.638   6.409  13.836
79504W        W47977  12.831  39.422   0.266
79505W        W47978  41.884   1.732  13.923
79506W        W47979  11.628   7.281   4.665
79507W        W47980  21.262   5.254  10.535
79508W        W47981  25.625  32.594   4.599
79509W        W47982   3.431  38.980  12.376
79510W        W47983  10.809  26.580  12.037
79511W        W47984  39.814  10.680  12.921
79512W        W47985  39.510  34.940   3.869
79513W        W47986   5.235  17.731  14.313
79514W        W47987  16.315  34.106  10.997
79515W        W47988   1.921  27.662  14.822
79516W        W47989  16.272   2.944  14.339
79517W        W47990  31.075  19.267  10.995
79518W        W47991  42.406  23.542   4.322
79519W        W47992   3.404  21.546   2.209
79520W        W47993   3.786  36.506  11.573
79521W        W47994  25.650   7.191  14.345
79522W        W47995   0.486  31.602  11.452
79523W        W47996  39.874  38.361  12.062
79524W        W47997   0.900  19.143  10.432
79525W        W47998   1.821  34.893   0.841
79526W        W47999  17.169  11.712   4.827
79527W        W48000  36.928  10.646   2.860
79528W        W48001  18.081  26.059   0.470
79529W        W48002  20.622  23.617   1.891
79530W        W48003  19.745  41.891   1.795
79531W        W48004   7.813  21.643  10.416
79532W        W48005   7.192  34.893   3.832
79533W        W48006   2.804  27.537  12.561
79534W        W48007  43.867  14.305  13.829
79535W        W48008  42.399   4.784  12.879
79536W        W48009  26.641  26.645   0.766
79537W        W48010  24.485   1.289   2.698
79538W        W48011  27.530  27.554  10.910
79539W        W48012   5.818  42.908  14.907
79540W        W48013  10.173   6.369   4.742
79541W        W48014  43.788  39.512   4.276
79542W        W48015   8.832  41.900   3.220
79543W        W48016   1.391  44.445   4.138
79544W        W48017  44.444  18.216   0.810
79545W        W48018   1.453   6.355  12.487
79546W        W48019   7.755   0.986   1.240
79547W        W48020  43.942   3.441   2.879
79548W        W48021   7.366  39.944  12.827
79549W        W48022  17.671   1.820   1.449
79550W        W48023   2.381  23.104  14.784
79551W        W48024  36.932  32.990   1.312
79552W        W48025  17.662  36.938   2.381
79553W        W48026  12.156  13.745  13.415
79554W        W48027  41.816   2.966   4.142
79555W        W48028  24.095  10.685  11.424
79556W        W48029   0.814   9.364  11.961
79557W        W48030  11.180  12.655   4.802
79558W        W48031  32.462  23.505   2.381
79559W        W48032  23.501   0.492  13.430
79560W        W48033  27.183  16.603   0.323
79561W        W48034  36.912  40.543   4.284
79562W        W48035  22.533  43.962  12.956
79563W        W48036   2.302  42.298  14.497
79564W        W48037  42.925   3.280   1.411
79565W        W48038  30.517  21.129   4.747
79566W        W48039  44.420   6.748   2.835
79567W        W48040   4.399   6.373  11.890
79568W        W48041  30.990  14.784   4.700
79569W        W48042   2.410   7.750   1.717
79570W        W48043  39.017  36.409  11.588
79571W        W48044  39.980  34.905  12.556
79572W        W48045  40.541  33.384   1.755
79573W        W48046  18.546   1.369   3.838
79574W        W48047  11.742  23.576   5.102
79575W        W48048  14.308  39.853  11.540
79576W        W48049  11.858  16.297   2.348
79577W        W48050  12.305  21.593   4.261
79578W        W48051  41.518  36.389  12.883
79579W        W48052  33.536   0.361  12.400
79580W        W48053   2.952  30.032  14.274
79581W        W48054  21.255  11.273   2.275
79582W        W48055   9.702  22.601   4.810
79583W        W48056  39.833  35.592   2.356
79584W        W48057   2.785  15.084   2.884
79585W        W48058  19.281  43.498   1.793
79586W        W48059  11.149   1.313   2.779
79587W        W48060  12.846  22.120  11.521
79588W        W48061  22.180   2.246   3.352
79589W        W48062  10.664   0.410  11.114
79590W        W48063  21.569  33.620   9.932
79591W        W48064  23.559  32.559   1.732
79592W        W48065   5.401  24.646  10.523
79593W        W48066  25.598  15.644   1.426
79594W        W48067  27.461  20.253   1.287
79595W        W48068  30.616   0.945  12.443
79596W        W48069  34.408  27.671  12.990
79597W        W48070  41.440  10.836   1.871
79598W        W48071  17.558  22.098  13.386
79599W        W48072  39.368  37.022  12.890
79600W        W48073  31.509  24.661   9.924
79601W        W48074  27.127   5.818  11.468
79602W        W48075  44.399   6.806  14.898
79603W        W48076  32.026  14.304   4.700
79604W        W48077  17.119  10.316  12.340
79605W        W48078   0.360  39.520  12.860
79606W        W48079  14.720  34.050   2.279
79607W        W48080  25.077  28.465   0.247
79608W        W48081   3.802   0.902   3.304
79609W        W48082  14.334  37.433   2.331
79610W        W48083  34.090   6.914  10.962
79611W        W48084  24.722  16.189   3.160
79612W        W48085   1.383  18.656  14.314
79613W        W48086  14.198   6.235  11.110
79614W        W48087  31.939  32.450   1.845
79615W        W48088  33.491  30.477   3.169
79616W        W48089  44.419  15.244  13.949
79617W        W48090  10.210   1.757  14.356
79618W        W48091  13.659  31.995  11.956
79619W        W48092   0.852  16.794  14.927
79620W        W48093   5.365   2.958  14.450
79621W        W48094  19.229  12.739   0.471
79622W        W48095   1.876  34.035  10.590
79623W        W48096  40.339   3.271  12.096
79624W        W48097  26.472  36.465  11.393
79625W        W48098  23.059   9.364  13.461
79626W        W48099  41.416  43.425   2.806
79627W        W48100  38.375  25.198   0.942
79628W        W48101  16.758   7.802   0.263
79629W        W48102  27.195   2.850  10.488
79630W        W48103   8.738  27.556   0.426
79631W        W48104  15.772   8.679  14.028
79632W        W48105  27.154   8.359   3.703
79633W        W48106  28.983  39.044   0.263
79634W        W48107  13.631  10.155   0.781
79635W        W48108  27.075  17.585   2.382
79636W        W48109  28.115   4.701   4.637
79637W        W48110  26.524  11.658  12.060
79638W        W48111  20.700   8.228  10.956
79639W        W48112  42.818  15.649   2.686
79640W        W48113  22.120  25.186   3.310
79641W        W48114   5.823  22.703  11.478
79642W        W48115  32.097  18.634  14.504
79643W        W48116  35.454  11.208   0.826
79644W        W48117   9.248   3.227  13.473
79645W        W48118  27.482  19.685   0.847
79646W        W48119  10.316  16.604  14.846
79647W        W48120   2.779  23.035   1.416
79648W        W48121  37.930   2.432  14.292
79649W        W48122  31.603   4.838  13.353
79650W        W48123  10.834  29.991   2.248
79651W        W48124  29.980   2.420  14.847
79652W        W48125  30.631  12.807  14.914
79653W        W48126  12.264  26.676  14.776
79654W        W48127  24.646   6.868   0.369
79655W        W48128  18.294  41.992   0.430
79656W        W48129   2.767  11.737  14.428
79657W        W48130  31.048  43.341  14.425
79658W        W48131  25.599  42.350   3.792
79659W        W48132  25.207  20.689  12.360
79660W        W48133   3.419  40.312   4.810
79661W        W48134  19.627  44.416  13.025
79662W        W48135  43.473  31.107   4.285
79663W        W48136  17.801  16.648  11.566
79664W        W48137  33.991   8.867  13.467
79665W        W48138  27.493   0.777  12.067
79666W        W48139  33.886   2.365   4.635
79667W        W48140  29.944  23.144  11.390
79668W        W48141   0.350  36.359  10.628
79669W        W48142  42.964  33.582  11.513
79670W        W48143  31.404  22.709   3.848
79671W        W48144  43.896  40.535   4.805
79672W        W48145   5.830   3.951  13.458
79673W        W48146  26.111   8.361   0.824
79674W        W48147  13.659  17.718  14.394
79675W        W48148  21.183  15.171  11.074
79676W        W48149  12.691  44.861   0.397
79677W        W48150  39.464  42.512  11.509
79678W        W48151  11.753  39.998   0.769
79679W        W48152  32.116  15.314   0.799
79680W        W48153   2.895  28.512   3.733
79681W        W48154   1.843  14.711   3.691
79682W        W48155   0.967  20.217   3.707
79683W        W48156   8.345  23.036  11.930
79684W        W48157  30.494   6.223   2.748
79685W        W48158  33.883  16.723   2.798
79686W        W48159   7.333  17.796  14.893
79687W        W48160  17.561  20.101  14.776
79688W        W48161  37.364   4.828  11.045
79689W        W48162  17.784  24.551  13.436
79690W        W48163  38.571  11.225   0.872
79691W        W48164  43.284   8.682   1.750
79692W        W48165  22.122   9.692   4.118
79693W        W48166  18.614   8.163   1.419
79694W        W48167   5.308  21.651   3.852
79695W        W48168  32.521   5.805   4.616
79696W        W48169  30.648   0.742  14.788
79697W        W48170  11.364  32.584  12.021
79698W        W48171  15.638   1.966  12.358
79699W        W48172  41.892  26.171   3.697
79700W        W48173  42.022  19.710  10.115
79701W        W48174  26.650   9.228  14.012
79702W        W48175  35.373  20.079   2.409
79703W        W48176   2.874   4.442   4.329
79704W        W48177  31.121  21.048  10.964
79705W        W48178  17.667  39.054   0.763
79706W        W48179  22.166  28.135  10.535
79707W        W48180  14.239   4.786  14.767
79708W        W48181  22.008   0.346   3.273
79709W        W48182   9.716  35.483  12.011
79710W        W48183  42.797  25.196  11.095
79711W        W48184  22.665  34.529   0.477
79712W        W48185  36.868  25.214   3.736
79713W        W48186  22.051  31.480  13.517
79714W        W48187  29.067  37.367  14.442
79715W        W48188  37.454  11.131   9.976
79716W        W48189  30.581  10.300  11.608
79717W        W48190  30.544  28.173  13.470
79718W        W48191  43.449  43.908  12.878
79719W        W48192   9.677  38.364   4.248
79720W        W48193  24.179  33.883  10.548
79721W        W48194  12.800  13.707  12.394
79722W        W48195  11.727  22.246   1.408
79723W        W48196  29.927  31.063  13.418
79724W        W48197  17.087  20.257   0.767
79725W        W48198  29.488  10.141   0.923
79726W        W48199  11.135   5.337  10.888
79727W        W48200   9.721  31.089   3.264
79728W        W48201  31.938  12.783  12.546
79729W        W48202  43.508   6.869  12.479
79730W        W48203  16.222  36.088  11.864
79731W        W48204   8.314  36.850   2.691
79732W        W48205  37.464   7.364  10.141
79733W        W48206  43.889  35.100  12.903
79734W        W48207  33.446  40.448   5.157
79735W        W48208  35.464   3.920   1.433
79736W        W48209  21.697  20.220  12.566
79737W        W48210   2.918  30.476   1.302
79738W        W48211  33.507  20.191   4.337
79739W        W48212  44.374  18.230  12.414
79740W        W48213  25.679  12.673  14.822
79741W        W48214  40.471  33.454   3.638
79742W        W48215  26.119  27.527   4.256
79743W        W48216  19.209   4.299  10.540
79744W        W48217  27.576   4.326   1.242
79745W        W48218  20.571  11.790  13.896
79746W        W48219  33.974   9.645   2.805
79747W        W48220   7.777  34.517   5.278
79748W        W48221  14.096   1.246   0.773
79749W        W48222   3.347  44.986   4.832
79750W        W48223   2.241  32.116   4.203
79751W        W48224  37.477  28.088   0.364
79752W        W48225  16.304   1.750  14.281
79753W        W48226  16.764  22.202   3.782
79754W        W48227  44.872  13.826  13.944
79755W        W48228  10.818   6.741   4.781
79756W        W48229  17.591  43.353  12.896
79757W        W48230  27.650  16.594   4.695
79758W        W48231   1.894  41.489  12.523
79759W        W48232  15.606  31.639   1.292
79760W        W48233  23.573  24.559  14.784
79761W        W48234   3.382   1.291   3.230
79762W        W48235   0.325  44.422   0.483
79763W        W48236  30.153  23.595  12.055
79764W        W48237  10.242   9.708   3.239
79765W        W48238  18.705  17.723  10.618
79766W        W48239  15.674  43.939  10.889
79767W        W48240  10.751  21.632  12.500
79768W        W48241  17.738  17.176   1.377
79769W        W48242  41.017  22.075  13.507
79770W        W48243  19.094  42.300   4.663
79771W        W48244  24.508  36.030  13.874
79772W        W48245  19.751   3.884  12.370
79773W        W48246  33.603   6.379  13.991
79774W        W48247  28.136  28.643  11.504
79775W        W48248   3.284  16.288   1.231
79776W        W48249  34.007  28.556   0.791
79777W        W48250  12.785  26.611  13.342
79778W        W48251  19.155   0.393  13.334
79779W        W48252   9.816  39.891  13.359
79780W        W48253  32.038  18.575   4.217
79781W        W48254  37.047  17.644  10.563
79782W        W48255   8.675  11.224   2.896
79783W        W48256   4.248  12.705   0.351
79784W        W48257  20.663  27.068  11.095
79785W        W48258  24.617  14.808  11.111
79786W        W48259   9.755   0.460  12.474
79787W        W48260  21.572  13.738  10.100
79788W        W48261   7.894   8.390   2.818
79789W        W48262  44.352  42.404  11.435
79790W        W48263   8.195  15.655   4.755
79791W        W48264  15.178  39.044  11.605
79792W        W48265  27.951  34.455  14.957
79793W        W48266  15.311  32.559   1.908
79794W        W48267  25.713  13.336  13.330
79795W        W48268  31.645  37.081  11.489
79796W        W48269   6.249   8.697  14.390
79797W        W48270   1.934  31.449   1.327
79798W        W48271  41.907  32.518   4.704
79799W        W48272  33.417   8.277   3.781
79800W        W48273  12.735  34.599   2.409
79801W        W48274   1.844  39.468  11.452
79802W        W48275  32.536  29.010   0.963
79803W        W48276  13.173  20.088   2.746
79804W        W48277  36.406  11.628   4.347
79805W        W48278  33.020  23.184   1.778
79806W        W48279  12.650  16.576   0.445
79807W        W48280  16.088   3.870   2.396
79808W        W48281   9.241  22.599  10.939
79809W        W48282   5.325  40.882  11.938
79810W        W48283   0.903  38.383  11.508
79811W        W48284  38.950   5.248  14.445
79812W        W48285  13.228   0.386  11.082
79813W        W48286  32.548   8.352   0.312
79814W        W48287  42.375  15.259  10.585
79815W        W48288  24.551   5.739  13.340
79816W        W48289  44.466   4.842   4.776
79817W        W48290  28.536   0.959   3.871
79818W        W48291  28.066  22.699   4.777
79819W        W48292  34.461  18.171   4.636
79820W        W48293   5.871  35.007  13.059
79821W        W48294  19.703  22.645  11.039
79822W        W48295   1.902  10.209   3.357
79823W        W48296   8.230   2.453  11.083
79824W        W48297   0.774  22.213   0.803
79825W        W48298  11.359  35.916  12.882
79826W        W48299  14.732  43.976   0.411
79827W        W48300  39.021  37.554  13.484
79828W        W48301  16.233  11.797  14.363
79829W        W48302  27.150   7.370  11.535
79830W        W48303  11.296  37.534  12.838
79831W        W48304  34.374  23.603  13.002
79832W        W48305  12.259  25.561   3.869
79833W        W48306  13.311   7.387   9.936
79834W        W48307  13.308  29.096  11.536
79835W        W48308  26.087  37.857   0.826
79836W        W48309  34.114  36.489  11.011
79837W        W48310  20.132  34.608   0.794
79838W        W48311  26.680  32.432  11.489
79839W        W48312  22.134  23.234  12.833
79840W        W48313  29.538  39.394  14.471
79841W        W48314  34.864  16.148  10.598
79842W        W48315  38.488  42.466  11.978
79843W        W48316   0.936   4.890  10.941
79844W        W48317  13.737  44.448   2.840
79845W        W48318  26.648  35.458   2.272
79846W        W48319   0.275  44.001   0.739
79847W        W48320  10.381  32.081  12.452
79848W        W48321   0.837  39.929  10.989
79849W        W48322  12.141  23.015   1.714
79850W        W48323  31.593  15.712   2.295
79851W        W48324  11.178   9.776   3.220
79852W        W48325  33.460  17.114  13.325
79853W        W48326   7.858   8.360  12.537
79854W        W48327   1.973  19.603   1.275
79855W        W48328  20.555  43.302  10.994
79856W        W48329  12.653  35.104  12.375
79857W        W48330  33.931  36.086  12.845
79858W        W48331  38.895  39.836  12.880
79859W        W48332  14.762  44.418  14.481
79860W        W48333  33.941  24.171   3.262
79861W        W48334  23.050  27.051  12.521
79862W        W48335  25.178  12.154   3.285
79863W        W48336  42.387  18.237  11.887
79864W        W48337  36.393  39.875   0.739
79865W        W48338  21.256   7.358   9.971
79866W        W48339  33.005  27.116  13.963
79867W        W48340  33.597  24.985   0.252
79868W        W48341  42.005  31.900   1.770
79869W        W48342  43.808   5.351  12.580
79870W        W48343   2.790  16.769   4.126
79871W        W48344  11.863  25.684   2.701
79872W        W48345  28.660  25.002  12.011
79873W        W48346  16.231  16.608  13.374
79874W        W48347  32.950   8.333  11.540
79875W        W48348  25.970  10.862   2.738
79876W        W48349  14.771  39.856  10.599
79877W        W48350  19.185  23.711  14.500
79878W        W48351  17.605   0.893   4.718
79879W        W48352   1.801  22.232   1.210
79880W        W48353   6.423  13.785  12.870
79881W        W48354  23.238  24.170  13.954
79882W        W48355  15.817   1.975  13.359
79883W        W48356  15.649  27.046   1.826
79884W        W48357  26.549  32.998   4.647
79885W        W48358  35.039  41.440   0.293
79886W        W48359  12.686  12.842  10.919
79887W        W48360  10.803  43.795  14.286
79888W        W48361  34.935  26.112   1.391
79889W        W48362  20.684  12.612   4.817
79890W        W48363  28.086  20.659  11.941
79891W        W48364  10.192  13.157  11.856
79892W        W48365  44.277  38.493   1.859
79893W        W48366  17.791  31.917   0.254
79894W        W48367   2.838  13.614   3.316
79895W        W48368   8.183  23.736   5.241
79896W        W48369  24.552   2.781   4.334
79897W        W48370  43.969  18.082   4.315
79898W        W48371  27.154  19.775   1.448
79899W        W48372   0.757  36.389  12.035
79900W        W48373   4.831   8.233   2.750
79901W        W48374  22.530  39.397   1.305
79902W        W48375   8.729  31.579  12.464
79903W        W48376  22.242  25.493   2.892
79904W        W48377  37.976  22.696  10.445
79905W        W48378  26.996  26.002   0.385
79906W        W48379  42.843  24.498  12.415
79907W        W48380  23.714  29.499  14.464
79908W        W48381  35.536  22.142  10.581
79909W        W48382  18.174  22.658   0.858
79910W        W48383  42.961   2.324   1.703
79911W        W48384  26.649  27.087  10.476
79912W        W48385  33.386  28.536  13.428
79913W        W48386  40.996  34.389  14.428
79914W        W48387  30.158  20.630  14.438
79915W        W48388  42.347  42.959   0.272
79916W        W48389  34.996   6.223  12.889
79917W        W48390  41.969   1.314  12.470
79918W        W48391  18.605  42.297   1.810
79919W        W48392  44.379  25.685  12.977
79920W        W48393  16.183  15.705   3.277
79921W        W48394  25.678   9.657   3.260
79922W        W48395   6.288  31.040   0.430
79923W        W48396  31.410  10.800   1.851
79924W        W48397  41.313  32.465   0.754
79925W        W48398  17.755  29.139  11.927
79926W        W48399   6.731   3.777  12.841
79927W        W48400   7.205  38.449  13.871
79928W        W48401  13.178  16.642  11.518
79929W        W48402   7.374  10.232  10.961
79930W        W48403  19.142  13.751   1.307
79931W        W48404   4.408   5.816  10.586
79932W        W48405  26.102  22.149   1.413
79933W        W48406  31.920  43.927   9.617
79934W        W48407  42.832  19.716   3.716
79935W        W48408  23.047  40.045   1.289
79936W        W48409  22.522  19.177  12.561
79937W        W48410   1.799  31.522   3.652
79938W        W48411  15.114   6.286   4.657
79939W        W48412  38.360  41.355   3.348
79940W        W48413  40.539  22.655  14.946
79941W        W48414  13.714  29.624   3.320
79942W        W48415  21.631  36.375   4.801
79943W        W48416   0.368  33.475   1.215
79944W        W48417   6.247   0.904  11.525
79945W        W48418  13.776  38.952   0.782
79946W        W48419   8.245  16.078  11.475
79947W        W48420  17.267  40.354  12.441
79948W        W48421   6.378  34.096  10.506
79949W        W48422  25.483  11.319  10.504
79950W        W48423  40.484   1.943  14.307
79951W        W48424   8.173  32.939   3.802
79952W        W48425  33.925  34.097   1.440
79953W        W48426  35.907  36.991  11.399
79954W        W48427  41.320  43.016  14.279
79955W        W48428   6.697   6.886   5.186
79956W        W48429  12.197  36.845   1.260
79957W        W48430  24.977  28.678   1.878
79958W        W48431  24.606  25.689  11.964
79959W        W48432   2.317  13.603   1.398
79960W        W48433  30.519   2.415   3.655
79961W        W48434  26.010  21.630   4.285
79962W        W48435  42.008   1.759   4.683
79963W        W48436  38.551  24.651  12.448
79964W        W48437  44.941  28.468   0.855
79965W        W48438  30.624  15.231   4.635
79966W        W48439  19.045  28.509   2.359
79967W        W48440   1.399  32.616  11.117
79968W        W48441  14.143  29.445   5.103
79969W        W48442   8.339  21.110   1.767
79970W        W48443  29.133   5.374  14.963
79971W        W48444  26.527  32.120   0.369
79972W        W48445   1.307  36.414   3.712
79973W        W48446  28.018  28.011  13.039
79974W        W48447  40.999  16.769  12.890
79975W        W48448  34.904  44.476  11.075
79976W        W48449  37.027  38.911  11.458
79977W        W48450  40.932  15.312   0.258
79978W        W48451  17.691  40.390   5.181
79979W        W48452  43.287  12.150   0.751
79980W        W48453   3.946  29.094   1.740
79981W        W48454   2.911  17.111   4.205
79982W        W48455  43.942  28.660   1.405
79983W        W48456  30.997  26.617   3.734
79984W        W48457  37.401  18.212   0.872
79985W        W48458  22.179  15.749  10.536
79986W        W48459  16.766  34.546   3.830
79987W        W48460  29.002  24.145  10.437
79988W        W48461  37.963  42.878  14.030
79989W        W48462   0.783   3.932   2.351
79990W        W48463  32.629  33.046   0.796
79991W        W48464  33.127  16.776   4.171
79992W        W48465  24.576  13.710   1.425
79993W        W48466  16.698  19.241  12.070
79994W        W48467  36.404  32.479   1.743
79995W        W48468  12.249  15.093   4.314
79996W        W48469  42.976   9.714  12.849
79997W        W48470  19.770  25.154   1.708
79998W        W48471  44.995  26.170  12.956
79999W        W48472   1.977   3.259  14.336
80000W        W48473   6.765  13.632  11.054
80001W        W48474  43.892  14.711  11.129
80002W        W48475  29.490  39.352  13.045
80003W        W48476  12.331   6.248  13.922
80004W        W48477  10.766  14.667   4.134
80005W        W48478  37.518  37.855  12.532
80006W        W48479  14.178   2.790  14.834
80007W        W48480  33.955  37.834  14.903
80008W        W48481  22.167   0.489   0.443
80009W        W48482   7.239  19.056  14.515
80010W        W48483  15.587  13.698  12.432
80011W        W48484  10.255   5.266  13.853
80012W        W48485  41.973  11.724  14.917
80013W        W48486  18.622  39.490   4.780
80014W        W48487  38.056   2.385   1.864
80015W        W48488  41.354   2.242   4.123
80016W        W48489  15.308   1.337  10.506
80017W        W48490   4.232  12.253  12.446
80018W        W48491  16.745  42.396   3.204
80019W        W48492   2.235   4.855  12.531
80020W        W48493  14.666   6.798   0.755
80021W        W48494  13.717  40.007  12.377
80022W        W48495  22.153  34.561   0.327
80023W        W48496   7.367   5.837   2.249
80024W        W48497   3.851  10.252   0.949
80025W        W48498  19.149   4.371   3.685
80026W        W48499  21.248  32.536  13.429
80027W        W48500  41.445  37.060  10.972
80028W        W48501  12.722   3.906  14.800
80029W        W48502   5.829   7.887   5.299
80030W        W48503  15.155  32.622   0.764
80031W        W48504  30.450   3.335   1.812
80032W        W48505  31.645   8.355   4.644
80033W        W48506  40.048   6.899   4.662
80034W        W48507  38.522  18.243  14.403
80035W        W48508  17.201  27.186   0.466
80036W        W48509  24.997   3.389   2.713
80037W        W48510  21.091  26.199   9.923
80038W        W48511  43.428  15.775   0.297
80039W        W48512  39.495  39.526   1.210
80040W        W48513  37.964  12.305   4.238
80041W        W48514  40.504  22.092   3.756
80042W        W48515  38.976  12.336   0.467
80043W        W48516  24.974  44.760   2.708
80044W        W48517  16.075  44.382   1.222
80045W        W48518  33.025  36.442   1.828
80046W        W48519  16.290  43.346   1.932
80047W        W48520   0.778   0.805  15.000
80048W        W48521  41.942  28.974  12.550
80049W        W48522   6.776  25.537   0.421
80050W        W48523  27.956  10.709   3.350
80051W        W48524  22.162  44.795   3.282
80052W        W48525  44.966  31.932  11.561
80053W        W48526  35.925  27.562  11.383
80054W        W48527  18.658  38.883  14.470
80055W        W48528  37.569   1.330   3.354
80056W        W48529  32.076  28.601   3.681
80057W        W48530   1.246  32.114  12.346
80058W        W48531  30.049  12.797  12.842
80059W        W48532  23.549  15.726   4.751
80060W        W48533  40.459  20.036  12.843
80061W        W48534  34.015   9.275  12.016
80062W        W48535  20.087  12.635   0.914
80063W        W48536   6.687   0.808  14.367
80064W        W48537  35.416  20.719   4.620
80065W        W48538  11.733   9.234   0.266
80066W        W48539  27.458  36.965  10.481
80067W        W48540  39.491   9.732  11.877
80068W        W48541   6.333  17.766  10.946
80069W        W48542   4.882  38.532  13.420
80070W        W48543  27.134  32.128  12.521
80071W        W48544  11.833  32.938   2.748
80072W        W48545  37.949  38.846   4.636
80073W        W48546  16.681   5.422  13.824
80074W        W48547  33.535  41.892  14.375
80075W        W48548   3.384  17.604   3.781
80076W        W48549  16.168  27.605  12.062
80077W        W48550  27.622  44.448  14.944
80078W        W48551  18.683  32.129  10.086
80079W        W48552  18.632  42.819   0.879
80080W        W48553  21.557  30.561  12.904
80081W        W48554   1.961  13.697   0.326
80082W        W48555   2.399   9.657  11.377
80083W        W48556  29.653  12.257  12.080
80084W        W48557   8.169   8.323  11.528
80085W        W48558  22.656   2.350  11.076
80086W        W48559  42.325   6.212  11.444
80087W        W48560  29.657  15.092   2.848
80088W        W48561  41.301  42.966  13.884
80089W        W48562  27.139  40.441   1.847
80090W        W48563   1.890  40.856   3.351
80091W        W48564   5.266  40.527   2.674
80092W        W48565  11.351  44.901   4.184
80093W        W48566   5.772   0.393  14.405
80094W        W48567  39.854  32.053  10.458
80095W        W48568   8.201  34.084   1.433
80096W        W48569  27.102  37.402   2.244
80097W        W48570   6.251  23.635  14.499
80098W        W48571  21.599  33.086  14.340
80099W        W48572  11.298  11.287   3.713
80100W        W48573   8.279  28.476  13.421
80101W        W48574  34.033  17.101  13.057
80102W        W48575  20.709  35.507   0.966
80103W        W48576  44.819  23.016  13.507
80104W        W48577  43.999  32.903   4.627
80105W        W48578   7.829  35.455   9.927
80106W        W48579  40.545  38.377  14.021
80107W        W48580   1.428   1.864  11.596
80108W        W48581  32.118  41.855   2.329
80109W        W48582  42.477   7.379   1.779
80110W        W48583   0.399  13.622   3.184
80111W        W48584  24.210  22.105  13.006
80112W        W48585   5.830  39.519   4.778
80113W        W48586  10.797  15.673   0.822
80114W        W48587   8.228  34.065   0.877
80115W        W48588  23.492  14.317  12.924
80116W        W48589   3.765  11.307   1.442
80117W        W48590  29.126  37.477  14.915
80118W        W48591  40.401  25.510  14.994
80119W        W48592  31.973  17.567   3.268
80120W        W48593  24.518  22.074  14.824
80121W        W48594   9.264  43.300   4.121
80122W        W48595  13.285  44.398  12.407
80123W        W48596  12.343   3.286  14.325
80124W        W48597  17.260  10.207  14.279
80125W        W48598  15.616  42.414   2.408
80126W        W48599  23.693  14.712   5.156
80127W        W48600  26.080  24.192  12.008
80128W        W48601  30.598  35.923  10.517
80129W        W48602  32.545  19.189   4.203
80130W        W48603   1.783   0.898  13.897
80131W        W48604   5.213  16.783  13.055
80132W        W48605   1.849  21.666  14.854
80133W        W48606  41.362  17.731   2.702
80134W        W48607  32.470  41.480  12.864
80135W        W48608  13.115  21.218  11.990
80136W        W48609  31.974   5.395   4.731
80137W        W48610  19.255  41.958   3.297
80138W        W48611  35.070   9.674  13.043
80139W        W48612  13.258   8.839  13.815
80140W        W48613  34.412  24.639  12.855
80141W        W48614  15.650  34.562   4.134
80142W        W48615  14.740   3.391  13.938
80143W        W48616  28.640   4.942   1.711
80144W        W48617  29.044  44.880  14.000
80145W        W48618  39.029  15.824   1.702
80146W        W48619  29.503  24.672   2.873
80147W        W48620  22.506  41.827  11.052
80148W        W48621   9.864   3.406  11.391
80149W        W48622   2.437  27.964   1.352
80150W        W48623  28.661  12.262  10.947
80151W        W48624  23.610  26.138  12.379
80152W        W48625   1.249   9.712  14.934
80153W        W48626  14.214  12.841  11.480
80154W        W48627   9.780  19.553  11.412
80155W        W48628   0.247   9.738   4.320
80156W        W48629  40.504  11.744  14.361
80157W        W48630  13.172   7.209  11.980
80158W        W48631  27.962   6.315  11.922
80159W        W48632  36.061  22.111   1.320
80160W        W48633  39.363  42.870   0.409
80161W        W48634  28.968  28.519  13.825
80162W        W48635   2.431  40.798  13.797
80163W        W48636  41.978  14.205   4.614
80164W        W48637   9.260  40.384   1.779
80165W        W48638  37.383  27.673   2.884
80166W        W48639  39.351  43.020   0.965
80167W        W48640  40.462  16.145   1.766
80168W        W48641   2.735  15.232  10.596
80169W        W48642  29.971  11.215  12.515
80170W        W48643  43.345  12.741   2.744
80171W        W48644  32.574  37.043  14.963
80172W        W48645   2.774  37.448   2.338
80173W        W48646  11.296  15.588   0.474
80174W        W48647  44.300  19.763  11.868
80175W        W48648  44.939   1.322   4.312
80176W        W48649  12.765  15.618   1.252
80177W        W48650  28.435  29.988   1.440
80178W        W48651  42.494  14.318   3.242
80179W        W48652   3.774  33.592  10.419
80180W        W48653  17.208  33.468   5.193
80181W        W48654  42.913  42.819   1.694
80182W        W48655  35.434  11.272   1.400
80183W        W48656   5.329  24.480   0.420
80184W        W48657  10.367  24.671  13.823
80185W        W48658   8.759   3.729  13.028
80186W        W48659  28.993   1.320   1.785
80187W        W48660  38.467  33.067   4.156
80188W        W48661   0.879  23.184  10.644
80189W        W48662  16.082  17.211  10.887
80190W        W48663  34.403  26.069  11.395
80191W        W48664  17.227  27.975   2.352
80192W        W48665  11.309  38.455   3.147
80193W        W48666  41.011  30.038   0.809
80194W        W48667  36.568   2.922  12.076
80195W        W48668  37.068  21.115  13.332
80196W        W48669  35.021  12.315  12.366
80197W        W48670  30.656  35.889   2.288
80198W        W48671  30.638  30.548  12.038
80199W        W48672  22.996  21.246  10.547
80200W        W48673   9.665  28.001   3.708
80201W        W48674  18.290  36.985   3.161
80202W        W48675  33.425  11.760   2.385
80203W        W48676  13.646  15.635  14.791
80204W        W48677  11.266  22.530  11.971
80205W        W48678  33.941  36.416   1.695
80206W        W48679  24.530  18.105  11.952
80207W        W48680  29.171  37.836   2.693
80208W        W48681  26.622  29.589  13.806
80209W        W48682  29.670  17.096   5.317
80210W        W48683  31.143   7.184  13.008
80211W        W48684   4.319  17.143  10.438
80212W        W48685  18.589  17.764   0.831
80213W        W48686  32.393  15.809   0.321
80214W        W48687  23.558  34.386  12.077
80215W        W48688  37.527  21.523   1.254
80216W        W48689  24.102  38.004   2.199
80217W        W48690  41.880   5.847  12.543
80218W        W48691  41.919  43.858  10.987
80219W        W48692  15.699  18.233  13.861
80220W        W48693  39.968  43.815  14.441
80221W        W48694   9.863  21.233   3.767
80222W        W48695   7.395   2.923  14.975
80223W        W48696  16.664  35.852  12.847
80224W        W48697  21.725  28.113   3.660
80225W        W48698  26.089  35.416   4.219
80226W        W48699  26.027  25.203   4.157
80227W        W48700  37.379  33.604  14.292
80228W        W48701   9.811   8.898  13.456
80229W        W48702  37.022  22.739   3.869
80230W        W48703  43.774  19.759   2.350
80231W        W48704  35.892   2.863   4.278
80232W        W48705  34.446  39.329  11.044
80233W        W48706  13.272  11.699   2.319
80234W        W48707   7.676  12.770   0.287
80235W        W48708  22.105  21.530  14.920
80236W        W48709  35.941   2.393  13.460
80237W        W48710  23.149  26.953  10.580
80238W        W48711  16.270  40.376   4.694
80239W        W48712  24.221   0.803  11.604
80240W        W48713  20.643  10.264   0.354
80241W        W48714  33.987  35.073   4.823
80242W        W48715  40.543   3.256   2.783
80243W        W48716  18.715  44.946   1.797
80244W        W48717  23.069  18.599   3.799
80245W        W48718  21.219   7.417  13.923
80246W        W48719  26.467  24.996   4.134
80247W        W48720  41.392  36.533   2.667
80248W        W48721  21.105  17.204  12.362
80249W        W48722  28.003  11.160   2.324
80250W        W48723  12.856  31.921   0.345
80251W        W48724  26.540  28.680   4.192
80252W        W48725  29.587   1.839   0.810
80253W        W48726  42.403  19.159  10.473
80254W        W48727  21.049  27.196  12.496
80255W        W48728   4.350  29.973  14.831
80256W        W48729  32.002  37.370   3.157
80257W        W48730  38.341  20.124   4.724
80258W        W48731  37.534   8.772  11.541
80259W        W48732  39.976  10.765  10.515
80260W        W48733   2.454  19.255  13.836
80261W        W48734  42.283  11.130  14.877
80262W        W48735  38.543  31.636  12.982
80263W        W48736  20.111  32.481  13.962
80264W        W48737  39.356  35.043   4.138
80265W        W48738   4.257  21.164  11.873
80266W        W48739  13.179   1.973  13.447
80267W        W48740  26.642  22.562   0.952
80268W        W48741  22.517   5.880   3.363
80269W        W48742   5.398  21.032   1.284
80270W        W48743  40.517  36.548  11.058
80271W        W48744  20.035  27.109   4.802
80272W        W48745  19.737   8.797  12.958
80273W        W48746  28.661  18.178   1.305
80274W        W48747  18.599  23.715   2.251
80275W        W48748  29.096  28.967  12.917
80276W        W48749  13.276   7.319   2.874
80277W        W48750  30.958  26.099  11.947
80278W        W48751  14.662   8.765   0.439
80279W        W48752   5.837  10.715  13.515
80280W        W48753  15.751  10.764   2.666
80281W        W48754  32.921  25.536  14.835
80282W        W48755   2.407  42.308  10.960
80283W        W48756  17.802   3.251  11.611
80284W        W48757  32.054   3.878   3.385
80285W        W48758   2.961   2.315  14.997
80286W        W48759   9.171  36.996  13.539
80287W        W48760   8.877  18.660   4.299
80288W        W48761  42.970  12.318   4.776
80289W        W48762   5.250  19.718  14.804
80290W        W48763  17.646  29.547   0.340
80291W        W48764  17.139  15.309   0.379
80292W        W48765  36.023   2.904  10.588
80293W        W48766  29.451  27.449   1.882
80294W        W48767  32.131  40.416   0.426
80295W        W48768  44.463  20.639   3.167
80296W        W48769  31.001  35.556   1.724
80297W        W48770  27.082  31.443  11.088
80298W        W48771  43.325  31.025  10.637
80299W        W48772  17.668  25.144   3.332
80300W        W48773  27.613  14.201  11.878
80301W        W48774  19.173   5.826   4.216
80302W        W48775  19.594   5.329  13.379
80303W        W48776  38.039  12.615  11.933
80304W        W48777  38.890  35.502   4.691
80305W        W48778  24.195  29.573   4.725
80306W        W48779  15.614   3.849   1.429
80307W        W48780  32.423  23.632  11.518
80308W        W48781  20.173  34.391   1.828
80309W        W48782  39.921  27.477   2.403
80310W        W48783  27.664  14.239  14.402
80311W        W48784  18.708  27.493  12.895
80312W        W48785  13.807  15.683   4.708
80313W        W48786  43.019  44.754  11.106
80314W        W48787   8.184   7.851  13.975
80315W        W48788   0.799  21.055  13.429
80316W        W48789  43.435  15.241  11.952
80317W        W48790  44.854  31.925  11.114
80318W        W48791   9.734  16.681   3.262
80319W        W48792   4.239  10.806  14.375
80320W        W48793  27.156   2.913  14.010
80321W        W48794   4.235  33.074   4.634
80322W        W48795  12.192  22.167   3.800
80323W        W48796  25.564  30.123   1.248
80324W        W48797   7.815  24.715   9.628
80325W        W48798  11.300  10.171   3.704
80326W        W48799   0.346  21.556  14.978
80327W        W48800   5.788   0.886  10.551
80328W        W48801  16.183   9.700  12.964
80329W        W48802  33.552   3.869   3.375
80330W        W48803  43.970  31.899   3.847
80331W        W48804  43.876   0.361   2.790
80332W        W48805  31.022  28.125   0.874
80333W        W48806  35.104  35.102   2.812
80334W        W48807  30.590  13.745   3.684
80335W        W48808  18.611   8.853   3.683
80336W        W48809  11.776  10.340   0.462
80337W        W48810   2.874   8.379  14.384
80338W        W48811  12.694  28.469  14.824
80339W        W48812  36.357   5.397  12.023
80340W        W48813  30.055  36.095  11.599
80341W        W48814  24.504  14.186  14.789
80342W        W48815  36.499   7.220   5.139
80343W        W48816  15.148  24.591   0.301
80344W        W48817   1.376  37.040  14.506
80345W        W48818  39.950   9.818   4.131
80346W        W48819   3.780  43.829  14.350
80347W        W48820  10.222  24.146   1.427
80348W        W48821  36.933  43.453   1.759
80349W        W48822  38.872  44.966   4.697
80350W        W48823  29.979  27.188   2.745
80351W        W48824  24.159  30.435  10.988
80352W        W48825  37.535  43.864  12.934
80353W        W48826  10.342  27.690   3.846
80354W        W48827   6.809  40.982  13.400
80355W        W48828  29.519  34.424   5.193
80356W        W48829  21.242   9.201  10.409
80357W        W48830  26.970  39.841  13.405
80358W        W48831  33.994  28.482  13.520
80359W        W48832  27.625  12.745   1.900
80360W        W48833  14.100  19.566   2.358
80361W        W48834  18.202  22.096   3.188
80362W        W48835  16.261  44.890  11.520
80363W        W48836  10.157   6.243   3.335
80364W        W48837   7.885   7.379  11.911
80365W        W48838  44.931  30.121  13.796
80366W        W48839  26.990  35.988  13.926
80367W        W48840  18.690  15.191  14.004
80368W        W48841  38.353  38.962   2.846
80369W        W48842  17.300  27.180  11.490
80370W        W48843  40.914   6.788   0.406
80371W        W48844   3.843  13.646   3.168
80372W        W48845  24.617  26.526  12.404
80373W        W48846   6.415  26.006  10.954
80374W        W48847  14.276  33.574   9.984
80375W        W48848  12.655  18.747  13.406
80376W        W48849  24.602   9.215  12.467
80377W        W48850   5.294  15.734   9.632
80378W        W48851   5.837  28.972  13.862
80379W        W48852   4.774  44.952   0.770
80380W        W48853  20.141  22.062   3.255
80381W        W48854  29.593  17.204   1.213
80382W        W48855  41.936  29.424  12.088
80383W        W48856  42.868  17.574   3.290
80384W        W48857  38.347  20.550   1.883
80385W        W48858  29.162  10.191  13.924
80386W        W48859   9.847  26.100  12.941
80387W        W48860  31.633  11.154  14.965
80388W        W48861   7.886   9.241  13.040
80389W        W48862  31.572  30.049  14.307
80390W        W48863  37.849  37.417   0.946
80391W        W48864  36.044   6.314  11.935
80392W        W48865  37.086   9.663   2.335
80393W        W48866  11.638   0.766  14.511
80394W        W48867  32.498  43.988   0.277
80395W        W48868   5.782  41.472  10.458
80396W        W48869   1.757  13.833  13.832
80397W        W48870   4.386  37.557  14.419
80398W        W48871  44.453  16.625   4.172
80399W        W48872  17.593  39.331  11.030
80400W        W48873  29.935  35.390   1.892
80401W        W48874  23.090  17.270  11.060
80402W        W48875   9.291   0.986  10.415
80403W        W48876  10.683  34.394  10.481
80404W        W48877   2.764  20.185  13.921
80405W        W48878  32.591   8.709   3.271
80406W        W48879  23.118   2.328   0.799
80407W        W48880  27.065  13.267  10.537
80408W        W48881  19.631   6.318  12.831
80409W        W48882  31.076   9.178   0.269
80410W        W48883   9.184  13.297  14.389
80411W        W48884   1.361  30.482  13.974
80412W        W48885  44.504  37.338  11.437
80413W        W48886  28.967  12.329   2.409
80414W        W48887  33.932  17.064   2.212
80415W        W48888  42.855  17.300  10.474
80416W        W48889  36.065  19.133  10.963
80417W        W48890   3.822   0.336   3.739
80418W        W48891  26.653  23.704   2.365
80419W        W48892  42.930  26.508  10.521
80420W        W48893  26.052  16.222  10.425
80421W        W48894  19.593  26.471   5.175
80422W        W48895  41.460  41.955   2.418
80423W        W48896  19.597  37.409   3.699
80424W        W48897   3.897  18.709   1.275
80425W        W48898  27.448  12.735  13.801
80426W        W48899   3.366  36.939   2.847
80427W        W48900  29.044  42.388  11.903
80428W        W48901  16.181   9.379  10.480
80429W        W48902  37.357  23.068  14.021
80430W        W48903  22.518  27.480   5.635
80431W        W48904  41.304  13.707   4.795
80432W        W48905  15.704   6.236  11.007
80433W        W48906  16.236   8.323   1.805
80434W        W48907   4.268  29.506   0.759
80435W        W48908  38.001  15.702  14.496
80436W        W48909  31.989  21.204  14.472
80437W        W48910  31.936  35.397  11.578
80438W        W48911  24.034  26.999   5.295
80439W        W48912  16.793  36.415  12.428
80440W        W48913  39.551  28.123  14.811
80441W        W48914  10.369   0.899  14.954
80442W        W48915  20.274  13.238  14.973
80443W        W48916  42.787  11.347  13.975
80444W        W48917  39.348  40.839   3.159
80445W        W48918   8.212  37.081   4.347
80446W        W48919  17.174  32.452   1.358
80447W        W48920  32.394  11.341  12.826
80448W        W48921  13.128  19.043   1.808
80449W        W48922  21.173  24.067  14.313
80450W        W48923  10.726  15.083  14.368
80451W        W48924  24.684  16.279  12.016
80452W        W48925  13.272   8.372  14.467
80453W        W48926  37.483  37.853  13.822
80454W        W48927  26.673  42.930   3.860
80455W        W48928  26.055   9.226  12.373
80456W        W48929   9.256  44.002   4.785
80457W        W48930  27.661  27.070  12.889
80458W        W48931  29.624  34.061   0.752
80459W        W48932  30.581  21.705  13.308
80460W        W48933  43.337   6.348  12.948
80461W        W48934  21.680   3.335   0.849
80462W        W48935  20.563   2.868   2.341
80463W        W48936   2.472  23.592  11.994
80464W        W48937  14.686  37.568  12.452
80465W        W48938  36.033  15.319   1.805
80466W        W48939   9.780  32.888  14.928
80467W        W48940  23.719   8.369  14.810
80468W        W48941  36.397  25.682  12.517
80469W        W48942  33.022  10.355  10.469
80470W        W48943  24.009  43.903  11.515
80471W        W48944  28.602  13.675   2.360
80472W        W48945  28.527  24.117   1.720
80473W        W48946   5.321  37.912   0.481
80474W        W48947  14.186   1.937   3.648
80475W        W48948  44.937  43.945   2.243
80476W        W48949  38.501  37.835  12.035
80477W        W48950  26.507  20.599  12.952
80478W        W48951  44.810  10.261   0.276
80479W        W48952   8.246  33.112  12.826
80480W        W48953  26.662  25.644   4.199
80481W        W48954  26.569  44.286  12.872
80482W        W48955   2.330   4.932  14.920
80483W        W48956  25.112  15.240  12.408
80484W        W48957   7.296   2.236   2.702
80485W        W48958  32.977   9.231  14.387
80486W        W48959  11.769  44.262  11.935
80487W        W48960  42.333  31.602   1.319
80488W        W48961  29.963  24.211   1.407
80489W        W48962  17.581   0.348   1.397
80490W        W48963  25.093  23.700  14.793
80491W        W48964  38.416  34.566   4.131
80492W        W48965   5.249  11.152  10.472
80493W        W48966  36.022  11.363  10.549
80494W        W48967   4.359  37.893   4.683
80495W        W48968  32.623   3.742   2.902
80496W        W48969  14.272   7.745  14.406
80497W        W48970  15.774  43.966   2.320
80498W        W48971  10.198  27.971   0.303
80499W        W48972  18.557  28.173   0.884
80500W        W48973  34.448  31.475   2.857
80501W        W48974  20.544  11.346  14.337
80502W        W48975   5.374  21.102   3.229
80503W        W48976  37.042  10.367  13.484
80504W        W48977  42.513  20.561  11.099
80505W        W48978  44.956   7.308   1.421
80506W        W48979  33.044  16.198  11.421
80507W        W48980  44.918  17.146   0.316
80508W        W48981   7.800  41.837  14.454
80509W        W48982  19.635  25.577  14.343
80510W        W48983  41.371  15.206   4.834
80511W        W48984  36.541   1.261   2.699
80512W        W48985   1.759  11.357  12.070
80513W        W48986  14.628  28.049  10.486
80514W        W48987   7.354  12.821   0.350
80515W        W48988  39.502  20.128   0.340
80516W        W48989  12.746  29.957   0.747
80517W        W48990  44.497   2.348   1.296
80518W        W48991   2.911  34.499   0.328
80519W        W48992  17.216  29.584   1.254
80520W        W48993  16.768   7.758   0.904
80521W        W48994  36.081  34.507  13.915
80522W        W48995   0.388  33.904  14.819
80523W        W48996  38.997  27.527  10.470
80524W        W48997  34.554  17.706   3.295
80525W        W48998  16.261  21.563   0.873
80526W        W48999   7.412  30.054   1.222
80527W        W49000  25.988  31.608  13.524
80528W        W49001   6.376   6.873  10.407
80529W        W49002  28.638  18.287   0.427
80530W        W49003   5.829  44.789   2.885
80531W        W49004  42.518  16.697  12.961
80532W        W49005  25.158  41.418  11.468
80533W        W49006   3.740  13.735  10.891
80534W        W49007  16.666  16.603   0.935
80535W        W49008  43.869  15.105  12.028
80536W        W49009  32.125  31.619  10.935
80537W        W49010  35.555  26.462   4.781
80538W        W49011   9.807  32.635   2.343
80539W        W49012   8.184   0.371   4.809
80540W        W49013  44.436  15.748  14.455
80541W        W49014   9.662  20.581   0.946
80542W        W49015  25.494  43.407   2.887
80543W        W49016  32.548  35.970   1.276
80544W        W49017  42.853  26.534   2.348
80545W        W49018   2.288  11.802   1.299
80546W        W49019   1.389  22.626   3.291
80547W        W49020  26.668   9.303  10.940
80548W        W49021  40.549  26.027   4.224
80549W        W49022   6.421  19.167   4.616
80550W        W49023  28.651  33.913  14.791
80551W        W49024  41.346  42.334   2.786
80552W        W49025  32.532  44.879   3.807
80553W        W49026  41.417  18.659   3.658
80554W        W49027   3.420  15.229  12.021
80555W        W49028  39.013  24.203  14.499
80556W        W49029  25.063  11.762   3.200
80557W        W49030  17.187  38.450   4.782
80558W        W49031  41.798  22.212  12.447
80559W        W49032  44.489  25.523   3.208
80560W        W49033   6.834   9.712  12.517
80561W        W49034  33.014  25.205   3.330
80562W        W49035  17.677  16.158  11.954
80563W        W49036  20.259  11.776  10.460
80564W        W49037  14.146  35.398   2.836
80565W        W49038  17.092  14.299  14.368
80566W        W49039  17.673  24.029  13.362
80567W        W49040  26.661  33.447   3.355
80568W        W49041  11.831  18.615   0.957
80569W        W49042  16.191  31.004  11.863
80570W        W49043  36.928  18.648   4.622
80571W        W49044  29.005  29.103   0.266
80572W        W49045  24.539  28.499   3.224
80573W        W49046  20.043  15.701   0.265
80574W        W49047  29.158  30.533   3.310
80575W        W49048  26.645  43.911  10.067
80576W        W49049  39.054  43.943  12.967
80577W        W49050  36.893  25.605   2.734
80578W        W49051  33.621  21.049   0.899
80579W        W49052  27.060  40.011   3.160
80580W        W49053  24.709  15.583  13.354
80581W        W49054  38.470  12.639  10.598
80582W        W49055  20.130  28.068   4.345
80583W        W49056  12.706  42.475  13.793
80584W        W49057  39.021  24.513   0.342
80585W        W49058  40.388  44.499  14.805
80586W        W49059  17.141  32.039  12.943
80587W        W49060  21.527  24.584  12.994
80588W        W49061  41.292   8.256  14.322
80589W        W49062  20.119  33.941  10.939
80590W        W49063   4.790  22.141   2.863
80591W        W49064  21.563  22.191  14.358
80592W        W49065  25.053  43.436   4.735
80593W        W49066  43.923  36.044   1.718
80594W        W49067  24.611  10.293   2.223
80595W        W49068  34.971  42.468   2.875
80596W        W49069  16.245  11.361  10.558
80597W        W49070   7.794  28.974   3.858
80598W        W49071  16.171  28.465   4.679
80599W        W49072  33.980  39.915   4.819
80600W        W49073  40.822  11.133  14.329
80601W        W49074  42.399  29.444   1.838
80602W        W49075   0.331  14.833   2.675
80603W        W49076  27.131  26.203   4.266
80604W        W49077   5.270   7.226   4.626
80605W        W49078  17.672   1.311   1.898
80606W        W49079  33.607  37.013   4.713
80607W        W49080  24.629  41.010   2.242
80608W        W49081  15.200   2.908   1.338
80609W        W49082  12.202  20.089   0.406
80610W        W49083   3.737  39.064  12.974
80611W        W49084  28.576   9.689  13.454
80612W        W49085   3.381  33.542   3.657
80613W        W49086  40.432  23.152  11.608
80614W        W49087  40.530  40.359   0.480
80615W        W49088  33.410   2.899  14.900
80616W        W49089  23.153  12.720  11.117
80617W        W49090  42.993   5.879  11.553
80618W        W49091  14.616  12.804   4.621
80619W        W49092   5.389  28.585  12.396
80620W        W49093   7.404  33.907  11.992
80621W        W49094  27.587  37.968   0.804
80622W        W49095  35.886  34.015  10.981
80623W        W49096  43.453  12.650  10.964
80624W        W49097  38.343  19.620   4.214
80625W        W49098   1.307  22.064   1.291
80626W        W49099  34.939  34.590   3.684
80627W        W49100  37.993   7.690   0.828
80628W        W49101   8.831  24.557   0.452
80629W        W49102   0.830  18.649   2.345
80630W        W49103  43.451   5.283   4.266
80631W        W49104   4.399  24.607  11.873
80632W        W49105  25.975  16.591  10.443
80633W        W49106  13.710  28.601  10.502
80634W        W49107  27.180  43.931   2.282
80635W        W49108  22.208  19.677   2.825
80636W        W49109  36.385  38.972   1.350
80637W        W49110  25.094  33.516  14.508
80638W        W49111  10.817  44.963  13.964
80639W        W49112  23.074  20.072   0.909
80640W        W49113   4.734  14.804  12.954
80641W        W49114   6.216  41.319   3.251
80642W        W49115  44.461  29.530  10.581
80643W        W49116  35.429  30.019   4.656
80644W        W49117  11.197  34.052   0.274
80645W        W49118   6.197  39.814  13.337
80646W        W49119   1.913  10.839  12.968
80647W        W49120  21.046  43.370   4.133
80648W        W49121  18.789  31.124  14.492
80649W        W49122   8.839  37.065  14.009
80650W        W49123  36.946   1.401   4.753
80651W        W49124  35.570  29.459   2.184
80652W        W49125  43.398  36.436  11.009
80653W        W49126  30.442   8.364  12.844
80654W        W49127   2.796   6.733  11.373
80655W        W49128  22.159  12.730  14.974
80656W        W49129  26.467   2.418   4.339
80657W        W49130  17.161  12.216  12.897
80658W        W49131  44.811  37.021  11.554
80659W        W49132  29.166  42.496  10.906
80660W        W49133  33.387  18.172  14.972
80661W        W49134   4.354   2.427  11.964
80662W        W49135   2.798  14.100  13.350
80663W        W49136  29.074  25.578  14.427
80664W        W49137  15.769  13.137   1.270
80665W        W49138  43.873  27.645   4.681
80666W        W49139   0.454  22.995  13.043
80667W        W49140   3.794  28.085  10.970
80668W        W49141  21.579  10.195   2.335
80669W        W49142  24.720   5.406  11.518
80670W        W49143  38.013  37.937  14.896
80671W        W49144  19.084  24.667  10.448
80672W        W49145  36.393  25.581   1.329
80673W        W49146  15.682  33.588  11.392
80674W        W49147   6.899  34.560  11.579
80675W        W49148  24.712  38.369  11.489
80676W        W49149  32.942  23.678  13.017
80677W        W49150  40.975  23.550   3.344
80678W        W49151  41.454   3.235   0.919
80679W        W49152  33.524  32.094   0.749
80680W        W49153  22.540  28.673   9.648
80681W        W49154  38.345   9.345   1.769
80682W        W49155  23.121  30.615  14.287
80683W        W49156  40.333  18.591  14.372
80684W        W49157  32.482  33.517   0.280
80685W        W49158  16.318   8.657  12.883
80686W        W49159   3.386  43.847  13.384
80687W        W49160  12.707   9.284  14.476
80688W        W49161  41.825  34.991   2.787
80689W        W49162  15.122  11.770  11.981
80690W        W49163  35.006  44.791   2.748
80691W        W49164   6.422  12.229   1.301
80692W        W49165  43.777   8.342   4.773
80693W        W49166  24.087   4.408   2.760
80694W        W49167  12.637  31.422   4.746
80695W        W49168  32.930  14.753  13.911
80696W        W49169  20.725  37.479  13.986
80697W        W49170  26.572  34.965   2.414
80698W        W49171  26.495  27.670  12.047
80699W        W49172   1.806  40.303  14.310
80700W        W49173  33.093   8.778   4.297
80701W        W49174  42.901  19.068   4.229
80702W        W49175  39.044   8.883  14.913
80703W        W49176   7.366  24.578  12.411
80704W        W49177  44.918  26.550  11.921
80705W        W49178  13.332  10.383   4.712
80706W        W49179  14.311  44.381   4.216
80707W        W49180  39.998  34.468  14.460
80708W        W49181  36.499   4.919   2.670
80709W        W49182   9.301   7.855   0.801
80710W        W49183  27.083  40.492   3.804
80711W        W49184   8.378   5.840   2.829
80712W        W49185   6.680   7.370   4.303
80713W        W49186  42.283  43.854  12.369
80714W        W49187  42.514   9.370   1.260
80715W        W49188   9.819  29.149  11.969
80716W        W49189  23.211   2.333  12.075
80717W        W49190  12.186   2.858   3.673
80718W        W49191  27.682  42.877  11.541
80719W        W49192  13.757  33.078  11.917
80720W        W49193   6.358   3.895  13.835
80721W        W49194  34.011   3.332  10.555
80722W        W49195  24.699  36.551  11.926
80723W        W49196  29.157  14.200   1.713
80724W        W49197   8.205  20.607  12.035
80725W        W49198   0.973  25.983  12.920
80726W        W49199  11.222  32.562  12.953
80727W        W49200  28.067  10.147   3.838
80728W        W49201  24.602  24.660  11.057
80729W        W49202  34.938  19.641   2.294
80730W        W49203  43.485  12.685  13.055
80731W        W49204  15.250  40.813   2.817
80732W        W49205  26.637  36.891  14.017
80733W        W49206  43.336  40.359   0.399
80734W        W49207  41.862  11.270  10.134
80735W        W49208  23.541  41.437   0.316
80736W        W49209  24.089  44.501   4.333
80737W        W49210  37.881  22.594  11.582
80738W        W49211  33.885  42.892  11.422
80739W        W49212   1.254  26.037   3.371
80740W        W49213  37.537  40.987  10.508
80741W        W49214   8.687  24.596   3.764
80742W        W49215  43.810   1.791   0.349
80743W        W49216   3.803   5.856   0.258
80744W        W49217   6.371  13.625   1.769
80745W        W49218  32.396  15.083   0.811
80746W        W49219  12.310  21.072   0.344
80747W        W49220   5.342  35.581   3.698
80748W        W49221  27.153  12.244  14.000
80749W        W49222  27.659   2.839   4.778
80750W        W49223   0.962  17.681   0.909
80751W        W49224  27.681  29.969   0.451
80752W        W49225  16.759  34.924   1.434
80753W        W49226   4.250  27.124   3.149
80754W        W49227   1.871  17.260   1.699
80755W        W49228  22.111   5.230  13.793
80756W        W49229  44.315  42.802   1.224
80757W        W49230  25.025  27.648  12.848
80758W        W49231  38.404   3.428  12.943
80759W        W49232  24.084  39.060  12.854
80760W        W49233  42.790   0.465   1.435
80761W        W49234  18.633  44.333  12.080
80762W        W49235  31.093   8.189  10.453
80763W        W49236  11.305  31.419  14.289
80764W        W49237  39.882  24.135  11.605
80765W        W49238  28.055  28.116  11.447
80766W        W49239  20.527  41.936  12.961
80767W        W49240   5.747  14.231  10.920
80768W        W49241  26.560  20.054   2.304
80769W        W49242  10.267   7.270  10.573
80770W        W49243  19.061   8.267   0.791
80771W        W49244  11.267   2.869  14.376
80772W        W49245   2.844  11.636   3.760
80773W        W49246  17.719  19.535   4.124
80774W        W49247  11.170   5.853   0.448
80775W        W49248  29.144  11.143   3.153
80776W        W49249  30.118   5.231  14.816
80777W        W49250  32.112  27.121   4.761
80778W        W49251  18.089  26.557  13.450
80779W        W49252  15.815  18.175   0.868
80780W        W49253  25.989   2.837  10.419
80781W        W49254   4.442  26.154  13.908
80782W        W49255  34.057   8.166  12.004
80783W        W49256  32.456  25.184   1.238
80784W        W49257  22.009  26.628  14.767
80785W        W49258  27.632  32.506  11.452
80786W        W49259   8.754  32.961   0.919
80787W        W49260   8.868  26.470   4.760
80788W        W49261  16.801  20.564   0.370
80789W        W49262  31.014  32.941   2.371
80790W        W49263  30.950   6.777   0.317
80791W        W49264  44.452  43.396  11.090
80792W        W49265  12.686  41.423  12.388
80793W        W49266  11.139   5.223  11.452
80794W        W49267  24.086  29.939  14.900
80795W        W49268   6.259   0.802   0.439
80796W        W49269  16.200  30.037  14.442
80797W        W49270   4.711   0.442   3.336
80798W        W49271  10.643  31.943   5.094
80799W        W49272  44.882  13.839  14.992
80800W        W49273  34.902  35.989  14.281
80801W        W49274  35.924  39.520   1.835
80802W        W49275  12.713  42.416   3.374
80803W        W49276  30.573   8.791  12.911
80804W        W49277  11.757  27.114  12.467
80805W        W49278  12.128  14.230   1.223
80806W        W49279  30.487   9.701  14.917
80807W        W49280  34.058  17.208   1.313
80808W        W49281   4.927  24.639   3.708
80809W        W49282   9.768   6.209   1.235
80810W        W49283  14.693   2.267   3.784
80811W        W49284  15.657  23.675  13.869
80812W        W49285   1.463  40.018   1.870
80813W        W49286  32.008  22.516  11.595
80814W        W49287  18.132  22.636  11.934
80815W        W49288   6.310  40.430  10.513
80816W        W49289  29.018  38.998  10.502
80817W        W49290  24.527  37.978   1.819
80818W        W49291   7.901  39.387   1.878
80819W        W49292  39.402   6.206  12.490
80820W        W49293  19.676  41.291   3.321
80821W        W49294  28.126  23.040   1.791
80822W        W49295   9.267  34.002   5.691
80823W        W49296  39.393  17.172   0.798
80824W        W49297  15.118  24.187  13.513
80825W        W49298  29.119  19.567  14.344
80826W        W49299  31.503   8.686   0.435
80827W        W49300  21.523   5.831   1.423
80828W        W49301  15.706   5.758   3.309
80829W        W49302  33.032  44.992   4.792
80830W        W49303  19.255  40.411  12.371
80831W        W49304  31.441   5.287  10.640
80832W        W49305  11.839  12.617   2.872
80833W        W49306  12.274  24.713  12.955
80834W        W49307  13.253  28.036  13.984
80835W        W49308  20.751  23.134   0.464
80836W        W49309  41.006  25.067  12.561
80837W        W49310  18.544  30.044   4.199
80838W        W49311  24.131   1.952   2.393
80839W        W49312   7.405  26.635   5.225
80840W        W49313   7.798   3.777   2.375
80841W        W49314  37.408  23.185   2.665
80842W        W49315  36.544  38.418  12.489
80843W        W49316  16.281   7.852  10.567
80844W        W49317  15.716   8.388  13.871
80845W        W49318  31.088   0.902   1.373
80846W        W49319   5.212  38.387  14.376
80847W        W49320  13.826  34.033   2.864
80848W        W49321  10.802  21.527   0.962
80849W        W49322  27.471  22.699   1.767
80850W        W49323  44.424   9.827  11.446
80851W        W49324  24.583  30.977   4.213
80852W        W49325  25.646  32.042   1.398
80853W        W49326  41.521  38.994  13.952
80854W        W49327  25.699  36.482   4.281
80855W        W49328   3.314   0.385   2.247
80856W        W49329  34.400  24.638   2.207
80857W        W49330  37.919   6.702   1.746
80858W        W49331  19.098   9.374  13.948
80859W        W49332  31.573  28.053   0.461
80860W        W49333  40.493  10.325  12.485
80861W        W49334  25.687  11.834   2.724
80862W        W49335  43.937  11.676  13.441
80863W        W49336  13.758  15.214  10.942
80864W        W49337  19.758  39.868  10.483
80865W        W49338  18.058  22.224  12.369
80866W        W49339  44.433  33.542   5.251
80867W        W49340  27.660  11.248  10.966
80868W        W49341  44.762  44.923  11.897
80869W        W49342  38.907  25.679  12.962
80870W        W49343  40.968  38.866   1.351
80871W        W49344   5.755   7.388   1.335
80872W        W49345  37.948  27.110   3.373
80873W        W49346  26.953  34.548  12.857
80874W        W49347  36.844  15.101   3.335
80875W        W49348  18.711  27.619  13.545
80876W        W49349   2.785  34.520  10.586
80877W        W49350   3.221  32.615  14.299
80878W        W49351  24.988  33.885   4.303
80879W        W49352   6.901  36.964   3.361
80880W        W49353  16.145  30.614  14.336
80881W        W49354  19.039  24.686   1.241
80882W        W49355  13.668  12.147   1.818
80883W        W49356  39.868  18.216   1.278
80884W        W49357  16.764   3.292   1.333
80885W        W49358   0.953  16.151   1.407
80886W        W49359  44.393   5.690  13.505
80887W        W49360  19.274   5.901   1.323
80888W        W49361   2.306  25.677  13.849
80889W        W49362  40.335  24.664  14.421
80890W        W49363   4.912  39.937  14.955
80891W        W49364  44.836  27.674   3.257
80892W        W49365  23.593  41.337   3.255
80893W        W49366  34.389  25.013   4.619
80894W        W49367  33.098  10.215   0.913
80895W        W49368  19.118  43.801  13.361
80896W        W49369   3.366   8.160   3.293
80897W        W49370  10.816  14.110   3.843
80898W        W49371  23.148   7.675   4.316
80899W        W49372   5.715  23.706   4.629
80900W        W49373  11.371  10.713   3.250
80901W        W49374  30.119  32.542  11.510
80902W        W49375  20.145  29.624  12.418
80903W        W49376  10.210   9.260  10.981
80904W        W49377  20.572  41.965  12.535
80905W        W49378  20.242  11.174   4.688
80906W        W49379  24.650  43.936   2.230
80907W        W49380  39.376  18.097  13.315
80908W        W49381  28.057  41.954   3.809
80909W        W49382  15.813   7.804   3.380
80910W        W49383  28.047   8.371  14.959
80911W        W49384  44.789  36.008  12.500
80912W        W49385   1.880  10.858   2.776
80913W        W49386  16.228   1.846   3.761
80914W        W49387  38.468  15.299  13.333
80915W        W49388  25.978  20.135   4.311
80916W        W49389  22.592  43.395  10.409
80917W        W49390  22.164  43.408   0.872
80918W        W49391  40.849  43.806   3.686
80919W        W49392   2.758  24.183   0.288
80920W        W49393  38.827  28.681   9.966
80921W        W49394   0.782  41.806  14.927
80922W        W49395  33.938  44.813   2.348
80923W        W49396  10.279  29.941   2.687
80924W        W49397  19.625  39.487   4.600
80925W        W49398  41.024   6.800  12.391
80926W        W49399   1.773  12.744  11.063
80927W        W49400   9.848   8.181  14.289
80928W        W49401  11.244  16.719  11.057
80929W        W49402  40.437   3.237  12.424
80930W        W49403  24.147  36.853   1.425
80931W        W49404  22.231  31.438   2.826
80932W        W49405   8.336  23.492  11.553
80933W        W49406  28.041  24.675   2.843
80934W        W49407  42.023  33.992  11.980
80935W        W49408   0.904  37.925  12.065
80936W        W49409  16.641  35.604  14.769
80937W        W49410   8.684  35.579   1.827
80938W        W49411  24.197  21.214   2.894
80939W        W49412  33.500   8.695   4.693
80940W        W49413   0.931   0.456  12.419
80941W        W49414  20.691  20.746   4.265
80942W        W49415   7.779  18.081  11.078
80943W        W49416  27.515  17.237   4.771
80944W        W49417  24.528   2.358  10.999
80945W        W49418  30.074  29.537   1.445
80946W        W49419  20.620  27.999   3.216
80947W        W49420   7.788  24.164   3.832
80948W        W49421  43.419  34.074   3.351
80949W        W49422   3.823   7.772  13.353
80950W        W49423  23.718  16.168  13.950
80951W        W49424  43.430  44.795  14.378
80952W        W49425  13.276  18.660   2.294
80953W        W49426  22.103  32.603   3.699
80954W        W49427  26.650  11.242  13.936
80955W        W49428  39.835  17.279  12.914
80956W        W49429   9.695  39.809   4.664
80957W        W49430  21.222  39.494  14.817
80958W        W49431  39.954   0.758   0.805
80959W        W49432  43.830  32.506  13.885
80960W        W49433  44.826  25.471   2.885
80961W        W49434  13.783  40.312   2.809
80962W        W49435  43.456  14.136   0.958
80963W        W49436  19.731  23.524  10.418
80964W        W49437  43.458   4.410   3.299
80965W        W49438  13.114  26.520  10.108
80966W        W49439  18.139   7.843   1.868
80967W        W49440  44.346  39.520  14.024
80968W        W49441  37.850  13.830   4.709
80969W        W49442  22.209  36.427  11.949
80970W        W49443   1.800  18.135  14.012
80971W        W49444  14.822   4.388   4.780
80972W        W49445  28.620  20.182   2.325
80973W        W49446  22.596   9.653  13.530
80974W        W49447  30.634  19.691  10.556
80975W        W49448  35.991   3.852   2.386
80976W        W49449  32.574  35.956   0.376
80977W        W49450  36.866  17.686  12.426
80978W        W49451  31.551   5.341  14.882
80979W        W49452  12.776  41.391   0.315
80980W        W49453   4.707  24.502  11.449
80981W        W49454  34.108  41.511  12.991
80982W        W49455  29.527  26.108  11.460
80983W        W49456  28.478  20.704   1.378
80984W        W49457  28.639   1.475   0.871
80985W        W49458  35.502   0.767  10.583
80986W        W49459   9.205  35.948   2.392
80987W        W49460  37.342  17.564  11.580
80988W        W49461   0.885   9.260  14.357
80989W        W49462   5.380  43.291  12.365
80990W        W49463  30.005  14.752  11.995
80991W        W49464  21.106   5.871  11.127
80992W        W49465  18.063  26.548  13.950
80993W        W49466  24.619  44.460  14.432
80994W        W49467  20.110   3.775   1.432
80995W        W49468   0.277   9.735  13.422
80996W        W49469  11.239  35.477  14.923
80997W        W49470   2.442  14.798   1.788
80998W        W49471  35.468  12.610  13.418
80999W        W49472  37.425  42.362   4.610
81000W        W49473  36.028  38.867  11.877
81001W        W49474   2.270  11.773   4.261
81002W        W49475  20.704  34.580   0.255
81003W        W49476  30.417  44.456  14.456
81004W        W49477  24.083  43.331   2.808
81005W        W49478  33.041   1.428   2.376
81006W        W49479  37.537   4.343  14.807
81007W        W49480  41.802  30.082  14.960
81008W        W49481  17.620   7.815   3.673
81009W        W49482  32.042  41.361   4.259
81010W        W49483   1.941  38.000   0.964
81011W        W49484  34.863  30.931   3.866
81012W        W49485   9.753  40.324  13.820
81013W        W49486  33.915  31.959   0.788
81014W        W49487  36.548  10.148  12.024
81015W        W49488  37.542  18.580   1.220
81016W        W49489  26.082  32.074  13.942
81017W        W49490  10.310  18.751   0.904
81018W        W49491  37.424  35.589   1.813
81019W        W49492  36.917  28.673  11.110
81020W        W49493  10.189  12.720  13.042
81021W        W49494   8.820  23.517  11.062
81022W        W49495   7.385  20.050  14.314
81023W        W49496  19.269  20.745  11.048
81024W        W49497   6.816  26.493   0.260
81025W        W49498  34.501  36.846   0.768
81026W        W49499   7.397   3.363   0.480
81027W        W49500  21.110  44.482  13.044
81028W        W49501  29.149  12.164   3.346
81029W        W49502  12.795  32.422   2.797
81030W        W49503   4.790  11.677   1.234
81031W        W49504   1.774  42.432  12.074
81032W        W49505  17.791  28.492  12.978
81033W        W49506  11.239  27.976   1.312
81034W        W49507  40.948  18.084  13.792
81035W        W49508  17.161  11.243  10.527
81036W        W49509  20.748  12.346  12.994
81037W        W49510  15.156  14.325  10.995
81038W        W49511  32.973  37.391  12.342
81039W        W49512  21.054  20.641  14.019
81040W        W49513  17.688   1.921  12.847
81041W        W49514  37.937  36.955  14.963
81042W        W49515  33.393  11.715   1.426
81043W        W49516   3.318  20.187  13.409
81044W        W49517  10.870  29.439   1.714
81045W        W49518   5.258  22.529  10.123
81046W        W49519  35.385  35.097   1.372
81047W        W49520  29.114  37.455   3.311
81048W        W49521  20.223  10.347   3.361
81049W        W49522   8.794  43.466  12.049
81050W        W49523   3.744  13.652  14.811
81051W        W49524  14.767   2.349   1.899
81052W        W49525  11.752  11.161   4.746
81053W        W49526   6.328   1.818  13.938
81054W        W49527  17.293  21.107  10.639
81055W        W49528  10.209  32.976   1.747
81056W        W49529  41.833  29.659  10.533
81057W        W49530  32.121  40.354  12.352
81058W        W49531  14.325  27.991  11.547
81059W        W49532  36.539   5.838   3.756
81060W        W49533  25.555  33.519  10.441
81061W        W49534  14.803  41.399   0.454
81062W        W49535  32.403   7.238   4.771
81063W        W49536  28.174  35.447   0.902
81064W        W49537   4.423  39.905   2.358
81065W        W49538   7.390  11.646   3.148
81066W        W49539   4.929  41.294  10.556
81067W        W49540  39.397  18.239   1.274
81068W        W49541  30.131  29.565  13.536
81069W        W49542  32.579  26.479   0.358
81070W        W49543  43.996  10.290   2.268
81071W        W49544  17.796  23.162  13.526
81072W        W49545   7.351  26.996  10.636
81073W        W49546   4.883  24.001   2.695
81074W        W49547  44.386  13.707  11.573
81075W        W49548  34.427  11.622   2.206
81076W        W49549  34.110   3.325  13.392
81077W        W49550  43.004  39.373   3.687
81078W        W49551  43.002  29.623  13.855
81079W        W49552  26.660  23.088   2.754
81080W        W49553   4.804   0.756  11.970
81081W        W49554  44.950  23.167   3.284
81082W        W49555  30.114  30.516   1.366
81083W        W49556  38.529  13.727   3.261
81084W        W49557  34.918  40.360  11.584
81085W        W49558  19.195  33.104   1.838
81086W        W49559  10.356   8.315   1.229
81087W        W49560  11.226   5.209  13.805
81088W        W49561  36.894  35.039   0.363
81089W        W49562  20.715  22.669  14.334
81090W        W49563  36.586  42.924   4.650
81091W        W49564  30.937  42.004  13.539
81092W        W49565  40.466  37.052  11.966
81093W        W49566  15.263  14.737  13.340
81094W        W49567  30.483  42.835  14.923
81095W        W49568  15.181  13.652   2.222
81096W        W49569  32.523  30.629  14.013
81097W        W49570  45.000   9.325   2.884
81098W        W49571  27.956   7.708  12.518
81099W        W49572  27.182  28.186  12.839
81100W        W49573  28.528   4.296  12.009
81101W        W49574  25.127  31.526   4.723
81102W        W49575  41.440   4.248  13.968
81103W        W49576   5.862  36.535   3.818
81104W        W49577   5.195  22.680  11.565
81105W        W49578  22.046  31.140   2.215
81106W        W49579  32.991  35.388  11.506
81107W        W49580  15.654  23.523  14.914
81108W        W49581  33.481  14.800   4.798
81109W        W49582   4.945  38.945   1.438
81110W        W49583   6.685  28.489  11.398
81111W        W49584  22.724  21.059  11.562
81112W        W49585  29.525   4.861  13.529
81113W        W49586  35.501  23.039  14.878
81114W        W49587  43.487  28.609  11.104
81115W        W49588  19.584  44.460   2.340
81116W        W49589  10.833  11.746   4.234
81117W        W49590   7.288  24.195  12.523
81118W        W49591  33.106  15.683   4.162
81119W        W49592   8.762  19.545  11.864
81120W        W49593   5.922   5.912   0.395
81121W        W49594  17.567  15.283   3.769
81122W        W49595  36.898  14.658  12.844
81123W        W49596  36.437  39.025  12.036
81124W        W49597  38.441  11.707   4.735
81125W        W49598  40.954  17.677  10.453
81126W        W49599  20.130   2.384  11.045
81127W        W49600  39.896  11.835  13.359
81128W        W49601  38.519  12.817   4.352
81129W        W49602  33.561  25.043   3.352
81130W        W49603  44.823  25.699  10.965
81131W        W49604  22.106  15.580   0.396
81132W        W49605  11.345  23.194  14.968
81133W        W49606   0.416  16.186   4.332
81134W        W49607  44.820   2.302   4.198
81135W        W49608  31.456   9.276  13.514
81136W        W49609  17.069   7.863  11.480
81137W        W49610   0.905   4.415  14.986
81138W        W49611  34.511  34.887  11.092
81139W        W49612  25.545  19.653  12.562
81140W        W49613  28.143   4.929  14.461
81141W        W49614  42.964   0.259   0.473
81142W        W49615   2.867   6.207   4.114
81143W        W49616   0.974  38.037   3.827
81144W        W49617  28.036  42.974   2.400
81145W        W49618  38.910  23.520  12.037
81146W        W49619   1.250   9.850   4.324
81147W        W49620  18.649  11.808  10.971
81148W        W49621  43.340  12.255   4.284
81149W        W49622  30.559  26.201  13.017
81150W        W49623  43.912  24.667   1.397
81151W        W49624  33.109   4.846  12.486
81152W        W49625   2.415  21.712   1.797
81153W        W49626  23.515  12.186  10.893
81154W        W49627   1.914  16.634   3.371
81155W        W49628  23.527  18.240   3.265
81156W        W49629  39.491  42.775   1.250
81157W        W49630  17.129  22.644   0.898
81158W        W49631  17.719  37.425   2.398
81159W        W49632  15.179  20.694   0.337
81160W        W49633   3.721  28.622   2.666
81161W        W49634  14.628  41.293   1.763
81162W        W49635  37.966  14.296  13.903
81163W        W49636   3.232  38.016   4.816
81164W        W49637  30.091  27.987   4.772
81165W        W49638  40.979  16.200   1.379
81166W        W49639   6.777  38.908  10.641
81167W        W49640  13.264  18.725   0.279
81168W        W49641  38.836  36.562  13.393
81169W        W49642  30.142   3.868  13.895
81170W        W49643  14.313  32.554  14.403
81171W        W49644  24.495  16.273   4.280
81172W        W49645  23.713  11.780   4.139
81173W        W49646  41.938  44.317   2.667
81174W        W49647  16.640  33.021  10.534
81175W        W49648  25.567   0.849   2.851
81176W        W49649   0.404  14.296  14.763
81177W        W49650  31.014  32.475  12.869
81178W        W49651  43.424  29.477  10.536
81179W        W49652   3.851  14.292   2.874
81180W        W49653  14.683   8.698   0.820
81181W        W49654  20.120   4.356   0.943
81182W        W49655  20.673  12.718  11.045
81183W        W49656   3.781  43.476   3.189
81184W        W49657   3.214  44.980   4.190
81185W        W49658   3.811  30.150  13.900
81186W        W49659  15.251  10.679  11.383
81187W        W49660  17.781   1.483  10.447
81188W        W49661  12.118  34.964   1.290
81189W        W49662   6.723  41.951  13.466
81190W        W49663  24.017  19.538   5.181
81191W        W49664  36.413  39.360  12.866
81192W        W49665  22.685  34.120  10.576
81193W        W49666   7.403  33.058   4.222
81194W        W49667  10.262  29.667   0.733
81195W        W49668  13.722  41.297   4.656
81196W        W49669  32.140  13.716  12.067
81197W        W49670  22.505  44.424   3.163
81198W        W49671  44.368  27.582   2.323
81199W        W49672  39.865  33.075  12.505
81200W        W49673  37.562   4.941   4.667
81201W        W49674  44.434   6.397   5.114
81202W        W49675   8.348  34.107  13.044
81203W        W49676  13.647  19.609   1.422
81204W        W49677  20.230  19.735  12.490
81205W        W49678  37.927  18.709   1.701
81206W        W49679   1.793  22.529  10.493
81207W        W49680  33.463  21.137  11.061
81208W        W49681  28.549  18.568  13.868
81209W        W49682  17.729  11.276  11.560
81210W        W49683  41.369  16.235   2.300
81211W        W49684  25.585  38.417  11.908
81212W        W49685   8.671  18.230   0.782
81213W        W49686  43.334  26.644   1.350
81214W        W49687  27.473   9.214  13.037
81215W        W49688   3.781  18.715   2.824
81216W        W49689  24.064  21.541   4.687
81217W        W49690  38.364   3.455  10.418
81218W        W49691  24.568  34.886  13.023
81219W        W49692  17.566  23.693   4.836
81220W        W49693  43.975  19.663  12.453
81221W        W49694  44.772  17.601   1.718
81222W        W49695  29.066  34.609  12.990
81223W        W49696  28.098  28.479  14.422
81224W        W49697  12.611  41.932   1.351
81225W        W49698  20.637  42.790  13.377
81226W        W49699   2.338  13.782  12.941
81227W        W49700  11.297  18.722  13.491
81228W        W49701  23.689   9.887  14.418
81229W        W49702   8.210  32.499   0.345
81230W        W49703  39.894  25.167   2.717
81231W        W49704  21.556  32.529  10.628
81232W        W49705  40.991  15.673   1.386
81233W        W49706  25.070   5.772   4.247
81234W        W49707   7.351   9.782   0.261
81235W        W49708  15.781  27.554  11.006
81236W        W49709  43.847   9.864  11.448
81237W        W49710  15.774  33.384  10.431
81238W        W49711  34.378  33.076  12.475
81239W        W49712   7.888  26.619   0.313
81240W        W49713  32.616  19.044   0.299
81241W        W49714  42.013  40.933  11.451
81242W        W49715  28.481  44.335   3.827
81243W        W49716  16.807   5.207   2.772
81244W        W49717  26.037  26.088   3.654
81245W        W49718  41.896  16.750   1.904
81246W        W49719  19.584  36.483  10.574
81247W        W49720  13.792  19.703  12.898
81248W        W49721  28.182  35.060  12.349
81249W        W49722  41.904  23.597  12.935
81250W        W49723  16.182  33.438   2.253
81251W        W49724  23.090  20.642   0.390
81252W        W49725  19.254  15.726  14.829
81253W        W49726  10.846   5.206  12.463
81254W        W49727  33.416  21.664   0.265
81255W        W49728  10.213  12.231  13.876
81256W        W49729  43.413  38.424  10.552
81257W        W49730   0.947  33.542   3.738
81258W        W49731   1.926  12.650   0.935
81259W        W49732  17.593  32.605   4.606
81260W        W49733  12.756  32.432  10.985
81261W        W49734   9.693  34.994   3.181
81262W        W49735  13.786  30.908  10.437
81263W        W49736   0.279  15.142   0.360
81264W        W49737   9.685  28.102   2.767
81265W        W49738  33.597  22.724  10.961
81266W        W49739   8.394   0.417  11.081
81267W        W49740  13.683  32.439  11.925
81268W        W49741   8.838   6.915   2.225
81269W        W49742   5.379  10.235  11.034
81270W        W49743  27.085  16.673   0.924
81271W        W49744  12.325  16.583   3.331
81272W        W49745  14.663  41.983   3.196
81273W        W49746   3.264  38.866   3.198
81274W        W49747  18.076   9.762   4.633
81275W        W49748  11.644   1.429   2.815
81276W        W49749   4.859  21.127  10.980
81277W        W49750   4.935  19.065   2.829
81278W        W49751  28.932  20.645  12.903
81279W        W49752  14.303   6.350  12.380
81280W        W49753  24.981  25.560   1.933
81281W        W49754  11.702  11.781  11.049
81282W        W49755  42.794  44.456  13.936
81283W        W49756  20.221  27.180  12.888
81284W        W49757   6.884  23.223   3.656
81285W        W49758  28.612  31.073   4.265
81286W        W49759  38.937  28.672   1.910
81287W        W49760  28.644   1.294  12.002
81288W        W49761  36.558  41.314  12.565
81289W        W49762  22.125   3.431  13.831
81290W        W49763  34.531   9.662   1.820
81291W        W49764   8.214  32.622   4.171
81292W        W49765  28.574  22.041   3.712
81293W        W49766  14.684   3.431  10.418
81294W        W49767   9.274  33.016   3.226
81295W        W49768  16.671  11.767  13.034
81296W        W49769  23.720  17.753  12.459
81297W        W49770  38.396  44.920  10.443
81298W        W49771   1.927  33.009   2.272
81299W        W49772  17.569   5.774   0.817
81300W        W49773   1.409   4.206  10.591
81301W        W49774  28.515   5.309  11.081
81302W        W49775  12.252  33.523  10.606
81303W        W49776  23.508  22.139   0.455
81304W        W49777  33.934  21.687   2.335
81305W        W49778  29.606  32.069   9.950
81306W        W49779  15.163   0.914   3.752
81307W        W49780  43.507  10.654   2.310
81308W        W49781  23.168  29.094   1.739
81309W        W49782  22.739  27.688  10.012
81310W        W49783  31.961  42.321   0.425
81311W        W49784   7.878  14.207  11.531
81312W        W49785  30.611  27.018   3.702
81313W        W49786  33.518  11.239   2.874
81314W        W49787  31.408   1.460   3.631
81315W        W49788  23.156  12.186   4.232
81316W        W49789  40.316   1.413  14.462
81317W        W49790  10.269  38.352   2.282
81318W        W49791  27.519  40.828   0.932
81319W        W49792   6.265  39.339   1.800
81320W        W49793  35.103  24.533   1.815
81321W        W49794  13.298  15.756   3.798
81322W        W49795  39.374   8.363  13.952
81323W        W49796  40.043  11.204   1.835
81324W        W49797  23.137   2.303  11.080
81325W        W49798   9.687   7.305   3.221
81326W        W49799  37.388  28.110   5.134
81327W        W49800  29.548  38.007  12.953
81328W        W49801  24.618  20.582   2.689
81329W        W49802  19.180  39.957  12.473
81330W        W49803  11.829   4.369  13.996
81331W        W49804   1.284  40.511   0.414
81332W        W49805  27.521  29.957  10.407
81333W        W49806  44.489  24.587   3.762
81334W        W49807   6.766  39.971  10.638
81335W        W49808  20.091  38.356   3.295
81336W        W49809  42.007  20.725   3.643
81337W        W49810  39.382  19.640   1.438
81338W        W49811  20.607  14.680   5.752
81339W        W49812  29.033  35.514   4.706
81340W        W49813  41.507  17.695  11.403
81341W        W49814  26.553   4.754   5.297
81342W        W49815  32.425  37.011  12.921
81343W        W49816  41.844  32.410  13.857
81344W        W49817  12.803   8.352  11.942
81345W        W49818  28.162   7.872   4.825
81346W        W49819  22.167  30.114   4.681
81347W        W49820  43.473  16.275   4.147
81348W        W49821   7.819  13.635   3.632
81349W        W49822  43.765  19.695   2.765
81350W        W49823  27.561   6.417   2.881
81351W        W49824  35.071  32.080  11.415
81352W        W49825  24.990  22.044   2.880
81353W        W49826  43.509  39.039   4.628
81354W        W49827  26.051  33.032  13.451
81355W        W49828  29.123   8.355  12.417
81356W        W49829  42.951  32.481  14.770
81357W        W49830  27.060   5.829   2.401
81358W        W49831   5.907  41.790   2.677
81359W        W49832  44.808  27.642  11.090
81360W        W49833  15.727  38.860   2.689
81361W        W49834  44.435   0.382  10.920
81362W        W49835   6.231  32.477  14.333
81363W        W49836  33.918  39.497   1.701
81364W        W49837  25.545  36.489  13.534
81365W        W49838   9.187  42.826   3.162
81366W        W49839  21.137   6.811  12.994
81367W        W49840  29.038  42.349   3.149
81368W        W49841  14.292  12.808  13.999
81369W        W49842   6.353   0.351  11.010
81370W        W49843  17.202  34.109   2.801
81371W        W49844   4.271  33.465  12.989
81372W        W49845  31.149  37.850  13.805
81373W        W49846   0.873  19.063   0.425
81374W        W49847  28.584  22.034  14.461
81375W        W49848   9.734   9.190  11.545
81376W        W49849  42.370  22.662  11.920
81377W        W49850   9.357  20.047  11.571
81378W        W49851  25.204  36.389  13.966
81379W        W49852   3.357  14.094  11.484
81380W        W49853  32.448  27.977   4.700
81381W        W49854  38.001  11.127   4.688
81382W        W49855  16.645  37.041   2.889
81383W        W49856  43.422  34.401  12.523
81384W        W49857  21.671  20.159   0.286
81385W        W49858  24.003   2.795  12.469
81386W        W49859  20.745   8.680   2.402
81387W        W49860  18.584  23.168  11.093
81388W        W49861  44.421  14.625   0.864
81389W        W49862  18.258   1.759  11.557
81390W        W49863  16.205   7.198  10.976
81391W        W49864  25.109  24.682  14.342
81392W        W49865  18.577  34.398   4.676
81393W        W49866   8.362  26.515   4.799
81394W        W49867  29.557  44.908  11.396
81395W        W49868  38.007  18.066  11.997
81396W        W49869  16.608  25.596   2.663
81397W        W49870  24.510   0.744  13.992
81398W        W49871  34.051  29.533   1.830
81399W        W49872  24.520  40.366  11.409
81400W        W49873  19.761  28.114  14.417
81401W        W49874  12.231   0.961  14.880
81402W        W49875  28.623  12.280  12.471
81403W        W49876   9.722   7.814   3.226
81404W        W49877  41.331  28.966  10.627
81405W        W49878  15.682   4.820  13.457
81406W        W49879  11.817  21.537   2.813
81407W        W49880   9.336  41.292  14.890
81408W        W49881  16.607  18.660   3.827
81409W        W49882  20.593  43.432   4.711
81410W        W49883  12.213  44.290   4.802
81411W        W49884   1.357  41.396   4.720
81412W        W49885  33.415   2.821  11.499
81413W        W49886   1.854  32.996   3.775
81414W        W49887  41.496  28.124  13.307
81415W        W49888  33.399  31.470  10.550
81416W        W49889  38.855  28.953   1.773
81417W        W49890  36.949  42.418   4.691
81418W        W49891  33.120  38.950  10.488
81419W        W49892  15.802   2.243   2.200
81420W        W49893  27.120   8.397  12.086
81421W        W49894  12.719  23.019  12.525
81422W        W49895  37.087   7.271  11.484
81423W        W49896  37.408   6.183   5.092
81424W        W49897  17.151   0.386  10.588
81425W        W49898  24.229  42.439   0.317
81426W        W49899  33.087  23.714  13.497
81427W        W49900   4.383  38.350  11.453
81428W        W49901  20.130  36.433   0.439
81429W        W49902  28.170  13.252   2.834
81430W        W49903  11.155   0.314  14.929
81431W        W49904  26.964  14.774  13.950
81432W        W49905  22.690  15.816   0.298
81433W        W49906  36.381  30.084  12.409
81434W        W49907  36.849   4.855   1.766
81435W        W49908  22.040  41.812   2.308
81436W        W49909  24.603  26.486   3.232
81437W        W49910  43.906  20.149  14.907
81438W        W49911   4.436  24.500   2.730
81439W        W49912   7.259  43.511  14.874
81440W        W49913   7.873  41.862   3.272
81441W        W49914  35.404   9.227   3.212
81442W        W49915  27.180  29.929  12.995
81443W        W49916  26.499   5.382  13.351
81444W        W49917  41.505  26.506  12.057
81445W        W49918  27.092  25.090  13.436
81446W        W49919  27.648  17.195  14.319
81447W        W49920  31.487  14.731   4.836
81448W        W49921  22.057   1.941  13.443
81449W        W49922  33.494  26.465   9.963
81450W        W49923  44.767  25.510   3.800
81451W        W49924  27.962  26.050  13.498
81452W        W49925   3.927   0.947  14.506
81453W        W49926  31.638  42.812  12.567
81454W        W49927  27.586  35.565  11.397
81455W        W49928  36.400   0.273   3.649
81456W        W49929  11.825  25.559   4.139
81457W        W49930   2.897  24.185   3.251
81458W        W49931  18.588  15.104   1.350
81459W        W49932  41.862  29.664   2.883
81460W        W49933  21.700  18.066  14.932
81461W        W49934  27.462  32.513   4.198
81462W        W49935  30.585   6.782   3.325
81463W        W49936  44.478  11.680   0.824
81464W        W49937  36.351  12.296   1.266
81465W        W49938  12.775  29.611   3.295
81466W        W49939  28.680  27.092  11.128
81467W        W49940  36.446   4.755  11.085
81468W        W49941  28.544  44.816   0.470
81469W        W49942  10.658  43.909   0.840
81470W        W49943  25.191  19.045   3.331
81471W        W49944  27.082  11.170   2.401
81472W        W49945  24.680  13.220   3.371
81473W        W49946  19.713  25.188   5.283
81474W        W49947  15.708  43.429  11.503
81475W        W49948  15.185   8.811   2.293
81476W        W49949  39.898  33.568   1.343
81477W        W49950  33.452   7.791   1.885
81478W        W49951  35.998  15.284   1.248
81479W        W49952  36.433   3.779  12.913
81480W        W49953   8.189  36.894  11.975
81481W        W49954   4.913  25.212   0.738
81482W        W49955  34.890  33.419  10.057
81483W        W49956   7.238  34.092  12.493
81484W        W49957  11.371  26.591   1.372
81485W        W49958   4.812  24.122  12.524
81486W        W49959  17.170  10.856   1.819
81487W        W49960  14.246   3.742   4.322
81488W        W49961  37.841  38.856   1.332
81489W        W49962  21.525  21.151   2.847
81490W        W49963   4.888   5.323   3.779
81491W        W49964  44.858  44.427  11.548
81492W        W49965  41.308  18.605  12.858
81493W        W49966   4.301  16.123   0.765
81494W        W49967  17.089  33.384  14.850
81495W        W49968  36.409   7.297   2.700
81496W        W49969  31.075  14.607   0.368
81497W        W49970   1.735  17.695   2.367
81498W        W49971  29.500   6.807  13.914
81499W        W49972  34.602  36.029  12.015
81500W        W49973  35.987  16.289  11.471
81501W        W49974  14.658  37.466   1.249
81502W        W49975  26.671  11.643   2.310
81503W        W49976  35.046  36.859   2.845
81504W        W49977  29.039  43.401   2.246
81505W        W49978  11.826  32.418  13.457
81506W        W49979   2.324  28.109  11.105
81507W        W49980   1.886   7.299  12.049
81508W        W49981  36.431  10.679  11.547
81509W        W49982  15.160  41.505   1.384
81510W        W49983  38.008   5.697   3.282
81511W        W49984  16.719  16.811  14.905
81512W        W49985   3.907  31.521  12.952
81513W        W49986  24.521  13.729   1.849
81514W        W49987  34.881  44.370   0.919
81515W        W49988  34.061   6.921  12.555
81516W        W49989   5.894  18.203  13.542
81517W        W49990  30.133  14.241  11.588
81518W        W49991  24.600  31.017  14.883
81519W        W49992  18.763  37.437   5.201
81520W        W49993  28.561   2.967  11.388
81521W        W49994  43.876   3.288  11.526
81522W        W49995  29.643  12.823   5.259
81523W        W49996  42.890  13.699   3.260
81524W        W49997  28.604  42.508   3.701
81525W        W49998  14.266  31.023   4.180
81526W        W49999   9.831  34.454  10.933
81527W        W50000   9.804   1.792  12.019
81528W        W50001  16.805  17.767  12.027
81529W        W50002  17.561  40.908  10.512
81530W        W50003   3.265  15.673  11.897
81531W        W50004  44.848   1.789  14.978
81532W        W50005  35.970  37.898  12.067
81533W        W50006  13.746  17.208  14.319
81534W        W50007  34.490   0.364   3.804
81535W        W50008  17.190  12.125   0.948
81536W        W50009  35.551   6.912  13.834
81537W        W50010  35.480  17.255  12.576
81538W        W50011  37.392  28.458  13.956
81539W        W50012  17.761  24.164   1.382
81540W        W50013   0.750  10.277  10.592
81541W        W50014   3.387  18.641  10.585
81542W        W50015  42.000  17.150   3.850
81543W        W50016  26.100  25.494   3.252
81544W        W50017   0.393  29.048  14.973
81545W        W50018  28.521  43.986   1.761
81546W        W50019  19.123   6.837   2.362
81547W        W50020  41.366   7.805   5.114
81548W        W50021   3.389  14.281   3.208
81549W        W50022  32.476  29.016  14.024
81550W        W50023  12.747  30.478   1.769
81551W        W50024  38.015  32.419   1.821
81552W        W50025  44.877  27.503   2.337
81553W        W50026  33.515  31.634   1.727
81554W        W50027  16.685  15.186   4.740
81555W        W50028  24.687  42.404  11.554
81556W        W50029  39.339  17.632   4.690
81557W        W50030   4.206  38.358  10.889
81558W        W50031  17.765  38.479   9.451
81559W        W50032  25.141   6.749   2.244
81560W        W50033  23.003   6.235  13.322
81561W        W50034  27.589  12.848  11.604
81562W        W50035  30.568  41.898   2.853
81563W        W50036  40.821  39.469   4.151
81564W        W50037  23.164  22.618   0.459
81565W        W50038  27.557  13.733   4.810
81566W        W50039  30.991  32.006  12.545
81567W        W50040   3.265  32.921  10.611
81568W        W50041   9.734   7.879   1.428
81569W        W50042  25.584  28.630   0.767
81570W        W50043  16.208  32.621  14.908
81571W        W50044  30.483  35.034  11.972
81572W        W50045   2.730   5.358   0.881
81573W        W50046  38.058  28.614  11.942
81574W        W50047  17.763   5.278   1.214
81575W        W50048  22.679  31.519  13.894
81576W        W50049  39.064  20.617  11.592
81577W        W50050   1.828  18.273  13.014
81578W        W50051  14.147  14.590  12.460
81579W        W50052  42.970   5.852   0.421
81580W        W50053  38.326  28.145  11.989
81581W        W50054  40.919  34.091  13.042
81582W        W50055  13.160  29.073   2.698
81583W        W50056   5.228  38.400  13.534
81584W        W50057   7.784  35.045   9.534
81585W        W50058  15.669  43.807  13.939
81586W        W50059  12.653  33.552  11.452
81587W        W50060  16.300  37.073  14.418
81588W        W50061  21.736   3.877   2.304
81589W        W50062  15.614  10.293  11.866
81590W        W50063  36.023   2.762  13.847
81591W        W50064   0.937  24.230  13.315
81592W        W50065   8.832  11.156  14.327
81593W        W50066  28.680  22.703  13.975
81594W        W50067  11.352  34.103  11.382
81595W        W50068   2.464   8.389   1.722
81596W        W50069  24.689  17.757   0.312
81597W        W50070  10.163  44.364   2.748
81598W        W50071  36.469  44.932  11.078
81599W        W50072  32.120  40.942  10.519
81600W        W50073  17.250  37.347  11.383
81601W        W50074  22.703  27.132   3.299
81602W        W50075   8.227   2.357   0.912
81603W        W50076  40.432  31.152  14.809
81604W        W50077   5.720  24.223  10.950
81605W        W50078  17.285   4.749  14.785
81606W        W50079  18.253  29.075  12.828
81607W        W50080  35.003  25.504   4.272
81608W        W50081  40.391  31.126  11.419
81609W        W50082  14.737  31.056   1.335
81610W        W50083  12.219  22.632  14.901
81611W        W50084  31.910  18.216  12.830
81612W        W50085   3.285  27.182  13.344
81613W        W50086  22.571  19.599   4.351
81614W        W50087   2.437  38.357   2.728
81615W        W50088   5.928  37.485  11.436
81616W        W50089  11.274   2.413  14.027
81617W        W50090   6.719  35.018   1.259
81618W        W50091  33.988   8.712  14.835
81619W        W50092   2.227  30.494   4.288
81620W        W50093  37.042   2.366   0.273
81621W        W50094  35.895   1.360   3.754
81622W        W50095  39.448  15.124  10.926
81623W        W50096  38.014  14.228   2.765
81624W        W50097  33.547   4.348  12.464
81625W        W50098  44.414  32.564  10.053
81626W        W50099   7.276  35.527  10.976
81627W        W50100  16.701  12.258   1.789
81628W        W50101  22.663  23.138   1.353
81629W        W50102  37.460  41.873   0.867
81630W        W50103   2.436  16.696  13.974
81631W        W50104  43.450  35.370   2.863
81632W        W50105  35.460  13.119  12.963
81633W        W50106   2.239  31.635  11.078
81634W        W50107  23.054  36.505  11.462
81635W        W50108   2.838  31.633  10.535
81636W        W50109  11.810  13.613  13.970
81637W        W50110   4.709  24.111   3.861
81638W        W50111  28.004  27.957  14.998
81639W        W50112  25.014  36.500  14.290
81640W        W50113   4.879  32.932   2.720
81641W        W50114  38.935  16.705   0.313
81642W        W50115  20.162  42.887   2.893
81643W        W50116  12.355  16.659   4.193
81644W        W50117   1.873   6.853  13.506
81645W        W50118  41.415   3.314  11.098
81646W        W50119   6.355  15.269   5.216
81647W        W50120  14.332   6.847  12.966
81648W        W50121   4.229  29.500  10.434
81649W        W50122  15.659  11.193   4.643
81650W        W50123   2.810   9.263   0.469
81651W        W50124  27.160  12.152   4.706
81652W        W50125  27.073  10.142  13.415
81653W        W50126  44.445  37.537   1.403
81654W        W50127  23.022  22.252   3.348
81655W        W50128  40.417  15.647   4.789
81656W        W50129   3.892   2.227  13.375
81657W        W50130   7.313  11.181   0.430
81658W        W50131   0.747   0.931   3.250
81659W        W50132  13.197   9.249  12.521
81660W        W50133  34.447  34.436  12.826
81661W        W50134   2.833  12.634   4.156
81662W        W50135  33.086  28.540   0.882
81663W        W50136   5.720  36.916   4.772
81664W        W50137  16.773  35.107  10.423
81665W        W50138  13.189  23.627   4.230
81666W        W50139  10.264  39.877   9.975
81667W        W50140  11.175   2.963  13.948
81668W        W50141  21.227  27.069  11.943
81669W        W50142  33.431  27.037   0.258
81670W        W50143  25.623   9.394   2.823
81671W        W50144  23.565  15.720   2.668
81672W        W50145   0.382  13.640   1.855
81673W        W50146  42.461  32.439   1.435
81674W        W50147   3.321   5.400   1.896
81675W        W50148  24.512  30.501  12.577
81676W        W50149  10.863   0.327   1.872
81677W        W50150  35.040  31.607  14.325
81678W        W50151  41.297   4.337   4.695
81679W        W50152  27.004   4.254  14.411
81680W        W50153   7.338  44.335   1.244
81681W        W50154  10.844  23.081   3.756
81682W        W50155  29.937  23.664   2.896
81683W        W50156  30.533   3.277   2.180
81684W        W50157  36.025  20.056   1.393
81685W        W50158  31.953  25.642   2.307
81686W        W50159  29.520  13.707  12.878
81687W        W50160  32.474  17.790   2.902
81688W        W50161  36.518  30.532   3.231
81689W        W50162   7.794  38.853  14.829
81690W        W50163   5.762  13.342  14.416
81691W        W50164  28.535   3.438  13.318
81692W        W50165  37.373   7.885  10.957
81693W        W50166  16.653  41.909  14.327
81694W        W50167  12.642  44.494   0.376
81695W        W50168  43.801  34.007   3.685
81696W        W50169  29.504  14.225   5.322
81697W        W50170  19.693  16.580   2.296
81698W        W50171  12.725   6.784   0.316
81699W        W50172   6.362  22.651   0.811
81700W        W50173   4.742  23.047   1.288
81701W        W50174   5.230   7.326   3.167
81702W        W50175  28.956  33.459  13.427
81703W        W50176  38.329  28.601   4.720
81704W        W50177  10.251  24.653  12.082
81705W        W50178  28.614  18.705   1.374
81706W        W50179  33.537   5.790  12.537
81707W        W50180  29.145  10.235   3.387
81708W        W50181  23.215  33.906   3.807
81709W        W50182  24.183  40.333  11.087
81710W        W50183  36.353  29.953  10.498
81711W        W50184  11.203  30.093   1.777
81712W        W50185   2.860  37.338   4.640
81713W        W50186  29.518   8.877  13.792
81714W        W50187   6.917  15.221  14.779
81715W        W50188   1.868  10.344   1.370
81716W        W50189  44.898  44.433  12.491
81717W        W50190  11.642  37.468   2.804
81718W        W50191   6.329  42.375  11.518
81719W        W50192  23.115  18.667   4.352
81720W        W50193   6.880  18.589  13.928
81721W        W50194  30.501  33.395   0.319
81722W        W50195  25.186   0.410   0.291
81723W        W50196  16.196  23.732  10.520
81724W        W50197   8.228  14.315  13.486
81725W        W50198  44.426  30.482   9.926
81726W        W50199  29.604  32.072   4.597
81727W        W50200  15.581  30.018   0.445
81728W        W50201  16.686   3.453  10.428
81729W        W50202  10.199  25.643  13.987
81730W        W50203  26.134   5.356   0.962
81731W        W50204   6.282  21.522   2.739
81732W        W50205  18.153  28.654  12.035
81733W        W50206  26.010  26.528   2.351
81734W        W50207  30.464   2.819  11.467
81735W        W50208   2.397  13.647   2.889
81736W        W50209  17.714  18.136  11.035
81737W        W50210  32.922   3.910  12.341
81738W        W50211  10.692  12.197   4.276
81739W        W50212  40.533  36.013  13.535
81740W        W50213  43.982  13.143   0.859
81741W        W50214  29.509  17.586  13.502
81742W        W50215  17.802   4.221  14.476
81743W        W50216  43.804  30.659   3.244
81744W        W50217  37.985   9.156   0.894
81745W        W50218  32.395   4.910   4.832
81746W        W50219  34.498  40.482   0.805
81747W        W50220   3.317  33.016  13.814
81748W        W50221  18.720   0.937  12.979
81749W        W50222  36.434   2.283   1.429
81750W        W50223  20.172  20.049   2.400
81751W        W50224  34.864  44.954   4.792
81752W        W50225  37.883  15.582   3.793
81753W        W50226  35.867  15.662   0.906
81754W        W50227  11.667   9.302   4.821
81755W        W50228  15.667  12.686  11.972
81756W        W50229  22.088  10.230   1.786
81757W        W50230   3.297  29.594   2.195
81758W        W50231  18.737  39.512   2.376
81759W        W50232  23.635  31.595   1.908
81760W        W50233  23.544  38.409  12.557
81761W        W50234  41.499  31.974   9.973
81762W        W50235   1.433   1.781   0.927
81763W        W50236  24.152  41.522  12.979
81764W        W50237  25.071  19.153  12.350
81765W        W50238  38.486  25.003   1.375
81766W        W50239  43.463  11.712   1.861
81767W        W50240  39.526  35.970   4.261
81768W        W50241  44.354  12.645  13.047
81769W        W50242  27.990   6.689   1.813
81770W        W50243  30.620  24.701  14.987
81771W        W50244  43.468   7.790  11.382
81772W        W50245   7.768   6.763   1.315
81773W        W50246  16.182  18.240  10.522
81774W        W50247  23.163  23.028   1.729
81775W        W50248  26.636  37.547  12.547
81776W        W50249  26.981  31.932   0.447
81777W        W50250   3.889  29.929  12.457
81778W        W50251   7.276   9.295   1.859
81779W        W50252   7.713  35.105  10.983
81780W        W50253  18.577  34.881  10.458
81781W        W50254  39.337  33.936   2.246
81782W        W50255  11.847  28.621  10.940
81783W        W50256   5.695  18.290  11.374
81784W        W50257  41.384  16.227  13.435
81785W        W50258  19.202  26.504  13.515
81786W        W50259  15.670  44.934  13.950
81787W        W50260  18.163  31.548  12.913
81788W        W50261  19.621  43.920   4.740
81789W        W50262  33.051  33.452  10.573
81790W        W50263  31.590   1.825  13.426
81791W        W50264  40.364   5.841   1.804
81792W        W50265   8.286   0.944   1.315
81793W        W50266   7.321   8.678   4.691
81794W        W50267  30.523  31.099  13.010
81795W        W50268  42.456  36.443  10.490
81796W        W50269   1.745   1.847   1.712
81797W        W50270   0.396  40.984  13.917
81798W        W50271  35.861  11.128  14.775
81799W        W50272   7.720  36.062   2.415
81800W        W50273  25.216   9.713   4.678
81801W        W50274  31.473  16.170  11.585
81802W        W50275  19.161  36.484   4.345
81803W        W50276  35.508  25.566   3.313
81804W        W50277  13.750  35.084   4.301
81805W        W50278  15.694  30.631   4.610
81806W        W50279  35.496  13.192  14.841
81807W        W50280   6.421  42.791   3.860
81808W        W50281  12.747  41.990  10.497
81809W        W50282  18.764  12.302   3.737
81810W        W50283   4.813  23.642  13.475
81811W        W50284   3.930  43.330   4.793
81812W        W50285  11.165  32.957   0.949
81813W        W50286  10.719  23.639   1.293
81814W        W50287   5.715  31.145   3.270
81815W        W50288  21.747  25.618   0.372
81816W        W50289  26.519   6.705   2.835
81817W        W50290  22.687  10.376   0.334
81818W        W50291  26.500  41.396   2.372
81819W        W50292  35.001  35.952  11.925
81820W        W50293  36.371  44.929  14.811
81821W        W50294  13.657  30.438  14.009
81822W        W50295  44.883  17.265   2.762
81823W        W50296   6.335  37.041   1.883
81824W        W50297  40.403  15.799  12.566
81825W        W50298  37.985   3.284   4.348
81826W        W50299   3.323  43.477   3.858
81827W        W50300  25.692  16.650  14.453
81828W        W50301  35.005  10.755   3.249
81829W        W50302  18.655  35.482   4.247
81830W        W50303   8.270   8.377  13.835
81831W        W50304  17.748  30.159  13.014
81832W        W50305   1.768  12.217  12.395
81833W        W50306  40.852   7.771  14.958
81834W        W50307  27.025  11.359   1.351
81835W        W50308  32.429  43.790  11.075
81836W        W50309   0.922  38.326  13.460
81837W        W50310  41.874  38.034  13.898
81838W        W50311  18.228  40.486   1.790
81839W        W50312  42.353  23.139  11.485
81840W        W50313  33.080  39.934   2.415
81841W        W50314  21.644  39.887   0.252
81842W        W50315   4.731   4.722  12.882
81843W        W50316  40.535  12.233   0.317
81844W        W50317  39.855  20.180   2.390
81845W        W50318   2.945  22.562   3.867
81846W        W50319  16.632  39.513   0.752
81847W        W50320  32.509  18.213  13.973
81848W        W50321  30.540  24.162  12.881
81849W        W50322   3.331  36.003  11.990
81850W        W50323  38.001   4.867  10.930
81851W        W50324  43.340  17.224   3.755
81852W        W50325  35.902  28.496   1.827
81853W        W50326  11.677  36.859  12.349
81854W        W50327  14.338  22.135   2.361
81855W        W50328   9.848   8.849  14.839
81856W        W50329  13.700  14.201   4.833
81857W        W50330  19.624  20.571  13.021
81858W        W50331  17.651   4.911  11.575
81859W        W50332  44.279  35.859  13.053
81860W        W50333  43.832  31.481   2.253
81861W        W50334  44.001  17.227  14.286
81862W        W50335  24.003   9.846  11.122
81863W        W50336  16.666   6.411  10.538
81864W        W50337   0.400  22.192   3.844
81865W        W50338  14.303  39.003  13.901
81866W        W50339  29.652  40.450  12.965
81867W        W50340  22.562  40.391  13.461
81868W        W50341  38.541   8.258   0.788
81869W        W50342  36.476  10.871   3.702
81870W        W50343   0.400   2.851   3.764
81871W        W50344   8.852  32.129  12.967
81872W        W50345  23.668  14.621   1.883
81873W        W50346   6.384  28.158   1.313
81874W        W50347   9.246  19.063   0.376
81875W        W50348  14.637  37.492   2.275
81876W        W50349  14.780  18.147   2.356
81877W        W50350   4.301  19.069  11.011
81878W        W50351   9.367  24.123  13.353
81879W        W50352  40.411  13.336  12.374
81880W        W50353  36.941  10.707   0.453
81881W        W50354  18.731   4.814   3.345
81882W        W50355   0.395  38.504  13.922
81883W        W50356  30.987   5.691  14.012
81884W        W50357  13.804  43.989  13.001
81885W        W50358  19.244   8.359   1.253
81886W        W50359  38.843   6.787  13.025
81887W        W50360  28.626  35.863  12.048
81888W        W50361  33.603  17.787  12.990
81889W        W50362  12.212  26.686   2.731
81890W        W50363   5.776  35.880   2.856
81891W        W50364   9.226   7.734   4.660
81892W        W50365  37.948  16.701  10.974
81893W        W50366  13.319  39.345   3.828
81894W        W50367   5.208  14.098   2.294
81895W        W50368  43.359  24.218  12.016
81896W        W50369  21.568   3.745   3.699
81897W        W50370  24.531  32.422  10.434
81898W        W50371  31.003  24.040   2.274
81899W        W50372  29.596  28.157  14.460
81900W        W50373   3.228  15.681   1.373
81901W        W50374   5.692  22.618   0.368
81902W        W50375  11.681  10.224  10.585
81903W        W50376  19.595  13.822   3.383
81904W        W50377   8.753  26.481  11.937
81905W        W50378  12.142  22.510   4.258
81906W        W50379  12.165  33.066  13.461
81907W        W50380  20.702  17.739   4.287
81908W        W50381  38.521  27.573  14.286
81909W        W50382  27.986  33.385   1.789
81910W        W50383  27.523  16.271   4.698
81911W        W50384   6.257   0.978  10.600
81912W        W50385  20.151  24.657   2.743
81913W        W50386   2.266  21.066  11.879
81914W        W50387  12.812   4.274   0.807
81915W        W50388  16.797  14.637  10.417
81916W        W50389   8.314  24.013   2.294
81917W        W50390  10.859  26.650  13.884
81918W        W50391  29.651   1.371  13.516
81919W        W50392  31.092   0.827  12.924
81920W        W50393  32.901  12.710  11.468
81921W        W50394  10.153  14.686  12.056
81922W        W50395  37.873  17.295   3.855
81923W        W50396   5.863  13.111   5.643
81924W        W50397  16.710  12.771   3.211
81925W        W50398  12.161  44.820   4.817
81926W        W50399  12.791  17.741  13.019
81927W        W50400  10.689  17.623   0.265
81928W        W50401  39.016  39.408  10.519
81929W        W50402  22.156  24.084   0.935
81930W        W50403  10.197  40.877   0.370
81931W        W50404  21.132  18.080   2.257
81932W        W50405   5.730  21.132   3.345
81933W        W50406  16.176  25.663  13.039
81934W        W50407   5.695  22.633   2.367
81935W        W50408  29.964  18.252  10.987
81936W        W50409  22.716  31.093  13.853
81937W        W50410  36.936  41.906   0.881
81938W        W50411  11.809   1.400   1.255
81939W        W50412  34.015   3.851   3.748
81940W        W50413  15.689  24.615   4.712
81941W        W50414   7.262  13.693   4.723
81942W        W50415  20.153   9.810  13.469
81943W        W50416  41.957  28.590   3.171
81944W        W50417  31.603   8.792  10.553
81945W        W50418  10.713  28.474   0.888
81946W        W50419  41.894  18.768  12.066
81947W        W50420  21.619   4.701  14.799
81948W        W50421  42.304  37.851   4.749
81949W        W50422  22.635  35.973   1.818
81950W        W50423  17.171  43.467  12.377
81951W        W50424  18.277  44.988  14.990
81952W        W50425   4.449   4.401  12.914
81953W        W50426  11.868  21.667   1.805
81954W        W50427  41.021  13.222   2.706
81955W        W50428  37.924  22.720  11.009
81956W        W50429  21.601  24.530   1.857
81957W        W50430  16.804  26.967  12.457
81958W        W50431  37.558  22.133   3.864
81959W        W50432  35.583  11.334   0.356
81960W        W50433  42.361  42.980  14.505
81961W        W50434  13.249   1.831  10.431
81962W        W50435  16.673  35.402  14.428
81963W        W50436  15.156  29.623   2.708
81964W        W50437   8.244  37.833   2.212
81965W        W50438  16.281  29.928  10.433
81966W        W50439  23.596  30.652  14.363
81967W        W50440  30.026  19.085  14.016
81968W        W50441  42.461  36.534   0.276
81969W        W50442   8.330  30.908  14.919
81970W        W50443  25.999  23.041  13.498
81971W        W50444  11.825  36.472   3.673
81972W        W50445  24.639  13.665   0.834
81973W        W50446   7.675   9.676   1.915
81974W        W50447  44.003  27.131   1.410
81975W        W50448  24.572  21.036  14.812
81976W        W50449  31.090   4.860   2.388
81977W        W50450  22.082  31.448  11.587
81978W        W50451  16.129  29.588  14.864
81979W        W50452   9.722  19.239  14.798
81980W        W50453  33.991  41.790  13.391
81981W        W50454  13.147  33.893   0.325
81982W        W50455  40.458   4.215  12.369
81983W        W50456  36.467   6.720   1.796
81984W        W50457  32.089  40.909  11.547
81985W        W50458  20.228  17.305   3.665
81986W        W50459   3.340  43.997  10.911
81987W        W50460  28.086  43.774  11.046
81988W        W50461  18.217  29.115   0.827
81989W        W50462  17.112  29.473  14.500
81990W        W50463   1.378  26.979   3.322
81991W        W50464   8.243  27.612  11.890
81992W        W50465  13.776   9.298   0.861
81993W        W50466  40.823   1.804   3.717
81994W        W50467  22.569  33.560   5.237
81995W        W50468  38.011  27.678  10.481
81996W        W50469   0.810  11.653  11.524
81997W        W50470   8.291  39.809   1.869
81998W        W50471  10.753   5.759   3.162
81999W        W50472  44.782  17.113  10.018
82000W        W50473  22.093  34.045   4.310
82001W        W50474  29.005  28.003   3.752
82002W        W50475  32.435  38.851   0.364
82003W        W50476  29.439   2.779  14.822
82004W        W50477  23.521   0.788  11.895
82005W        W50478  17.156  19.599   1.719
82006W        W50479  11.296  26.105  14.008
82007W        W50480   9.299  13.332   3.375
82008W        W50481  30.079  12.355  13.013
82009W        W50482  30.138  18.784  10.984
82010W        W50483  13.637  32.941   4.185
82011W        W50484  20.731  25.508  14.930
82012W        W50485   5.419  13.113   4.611
82013W        W50486   4.830  32.906   3.782
82014W        W50487  16.230  33.532  12.372
82015W        W50488   3.330  26.996   2.249
82016W        W50489   2.765  33.597   3.276
82017W        W50490  39.508  41.469   4.164
82018W        W50491   5.311  25.588  10.430
82019W        W50492   9.685  28.985  10.465
82020W        W50493  30.472  40.814   1.256
82021W        W50494  38.349  37.463  14.327
82022W        W50495  29.983  22.038   2.379
82023W        W50496  11.729  42.957  14.818
82024W        W50497  28.535  39.039   1.231
82025W        W50498   5.330  32.960  11.547
82026W        W50499   2.730  44.405   0.290
82027W        W50500  10.801  42.365  12.471
82028W        W50501  37.389  25.710  10.946
82029W        W50502  23.207   7.763  11.962
82030W        W50503  16.799  38.890  14.339
82031W        W50504  18.094  36.022  10.964
82032W        W50505  24.156   0.761   1.344
82033W        W50506  16.735  21.094  11.537
82034W        W50507  14.760  35.918  14.370
82035W        W50508  12.611   7.224   4.225
82036W        W50509   8.685  40.407   1.925
82037W        W50510   7.259  36.881   1.385
82038W        W50511  36.528  37.876  10.586
82039W        W50512   3.809  27.677  12.968
82040W        W50513  18.087  35.938  14.818
82041W        W50514   9.176  31.059  11.574
82042W        W50515  17.751  20.124   2.399
82043W        W50516  34.369  16.631  11.417
82044W        W50517  39.029  28.186  11.552
82045W        W50518   3.356  28.040  12.027
82046W        W50519   7.353  41.340   4.307
82047W        W50520  36.006  11.232   1.833
82048W        W50521  31.556  21.578   1.916
82049W        W50522  17.801  29.428  12.972
82050W        W50523  20.583   6.342   1.379
82051W        W50524   6.676  35.553   0.913
82052W        W50525  11.684   8.822   4.140
82053W        W50526  38.948   7.377  12.931
82054W        W50527  39.328  41.524  14.942
82055W        W50528  31.404  23.730  13.799
82056W        W50529  24.010  26.194   2.819
82057W        W50530  44.419   9.236  13.958
82058W        W50531  37.443  18.238   2.317
82059W        W50532  13.752  16.725   4.141
82060W        W50533  34.907  34.419   1.358
82061W        W50534  43.374   2.392  10.919
82062W        W50535  11.259  14.207   4.607
82063W        W50536  36.068  40.821   3.647
82064W        W50537  27.197  13.698   4.660
82065W        W50538  15.234  39.039   4.657
82066W        W50539  25.019  20.108   0.848
82067W        W50540  23.197  12.134   9.649
82068W        W50541  17.699  34.919  13.441
82069W        W50542  36.497  11.724  10.940
82070W        W50543  34.006  25.688   4.801
82071W        W50544   2.963  19.620  12.539
82072W        W50545  44.312  27.547   0.790
82073W        W50546  28.092  36.960   3.254
82074W        W50547  36.420   4.704   1.696
82075W        W50548   1.949  37.936  10.531
82076W        W50549  30.536  17.138  10.565
82077W        W50550  22.644  33.022   2.262
82078W        W50551   3.814  38.529   1.283
82079W        W50552   0.481  16.800  12.886
82080W        W50553  12.740  22.246  13.948
82081W        W50554  14.738  39.901   0.280
82082W        W50555  33.128  24.553  13.823
82083W        W50556   1.967   5.891   4.155
82084W        W50557   5.809  19.644  13.003
82085W        W50558   9.743  20.594  11.498
82086W        W50559   7.769  23.658  14.309
82087W        W50560  19.543  13.629  12.363
82088W        W50561  41.420  28.631  10.587
82089W        W50562  35.406  32.435   0.828
82090W        W50563  23.577  14.595  11.915
82091W        W50564  23.500  38.482   2.332
82092W        W50565  29.937   3.948   4.140
82093W        W50566  20.636  22.050  10.974
82094W        W50567   0.813  33.930  13.435
82095W        W50568  12.150  36.521  13.526
82096W        W50569  10.700  32.493   2.851
82097W        W50570  44.850  14.259  10.989
82098W        W50571   1.787  19.045  10.607
82099W        W50572  41.928   3.916   3.185
82100W        W50573   1.833   7.685   0.402
82101W        W50574  15.709  29.997  12.532
82102W        W50575  29.506  24.086  11.371
82103W        W50576  36.487  15.701  12.020
82104W        W50577   4.241   4.773  14.276
82105W        W50578  16.660  17.287  12.405
82106W        W50579   1.910  16.785   3.699
82107W        W50580  29.497  36.859  11.069
82108W        W50581  36.890  29.542   0.731
82109W        W50582   0.859   6.314  14.759
82110W        W50583  10.634  41.856  14.371
82111W        W50584  28.065  21.713  10.451
82112W        W50585  35.003   3.729   4.623
82113W        W50586  16.664  29.443  10.927
82114W        W50587   7.874  29.919   4.217
82115W        W50588  25.193  42.423  13.511
82116W        W50589  40.889  26.041   4.162
82117W        W50590  12.231  38.360  10.560
82118W        W50591  23.650  37.415  14.864
82119W        W50592  39.990  44.342   0.815
82120W        W50593  17.655  24.222   3.866
82121W        W50594  12.622  40.324  11.910
82122W        W50595  17.584  35.389  11.901
82123W        W50596  42.879   2.343  12.033
82124W        W50597  39.051  38.004  14.869
82125W        W50598  37.031   8.280   1.702
82126W        W50599  37.396  15.148   4.734
82127W        W50600  28.669   3.751   0.884
82128W        W50601  18.663  28.031   3.200
82129W        W50602  12.167  28.962  13.437
82130W        W50603  20.212  39.317   0.820
82131W        W50604   0.760  27.016  12.521
82132W        W50605  15.641   4.927   3.792
82133W        W50606  29.624  29.034  11.548
82134W        W50607  30.024  20.099   3.759
82135W        W50608   3.758  27.589   1.694
82136W        W50609  16.157  24.641  10.569
82137W        W50610   7.218  37.368   0.358
82138W        W50611  37.341  20.142   4.767
82139W        W50612  43.400  13.687  13.334
82140W        W50613   3.218  44.872  12.362
82141W        W50614  22.672  30.031  12.900
82142W        W50615  30.029  13.269   2.850
82143W        W50616  28.013  34.422   9.974
82144W        W50617  41.407  40.879   1.730
82145W        W50618  37.008  26.035  14.475
82146W        W50619  33.490   0.479   1.240
82147W        W50620   9.643  13.105  14.960
82148W        W50621  15.604   0.454   3.678
82149W        W50622   3.230  28.959  11.447
82150W        W50623   6.381  35.070  13.528
82151W        W50624  25.482  28.469  12.020
82152W        W50625   5.308  26.124   2.824
82153W        W50626  25.556   3.269  10.066
82154W        W50627  13.341  24.050   0.768
82155W        W50628  41.906  18.678   4.174
82156W        W50629   3.413   3.767   0.858
82157W        W50630  21.095  15.153  10.043
82158W        W50631  40.456   4.915   1.791
82159W        W50632  39.493  14.136   1.769
82160W        W50633  20.655  42.824   1.722
82161W        W50634  18.727  31.028  10.601
82162W        W50635   4.246   4.889  11.563
82163W        W50636  37.032  10.230  10.619
82164W        W50637  37.406  29.469   3.651
82165W        W50638  25.679  26.504   0.324
82166W        W50639  29.599  22.159  11.081
82167W        W50640  15.202   8.338   2.728
82168W        W50641  18.060  15.175  14.301
82169W        W50642  43.898  43.493  14.849
82170W        W50643  35.497  29.638  14.003
82171W        W50644  21.225  13.602  12.001
82172W        W50645  13.664  44.298  14.366
82173W        W50646  42.291  20.617  12.862
82174W        W50647  15.807  14.814   0.308
82175W        W50648   2.363  28.575  13.402
82176W        W50649   9.708  42.858   4.195
82177W        W50650  24.152  28.579  14.455
82178W        W50651  39.843  39.956  11.906
82179W        W50652  21.262  18.062  14.485
82180W        W50653   7.687  32.002  10.455
82181W        W50654  41.306   5.409   4.700
82182W        W50655  18.161  20.587   0.964
82183W        W50656  15.655  30.457   3.829
82184W        W50657  32.090  33.400  10.891
82185W        W50658  29.468  44.870   2.800
82186W        W50659   0.461  41.349  14.952
82187W        W50660  40.420  36.934   0.267
82188W        W50661  39.851   3.356   4.642
82189W        W50662  24.023  37.413   4.200
82190W        W50663  22.615  30.593  14.962
82191W        W50664  24.219  29.928   1.766
82192W        W50665  15.222  19.606  11.530
82193W        W50666  41.895  31.139  14.785
82194W        W50667  24.681  43.487  12.374
82195W        W50668  15.710   7.329  10.965
82196W        W50669  31.468  11.239   0.953
82197W        W50670  29.129   9.749   1.935
82198W        W50671   0.451   8.844   3.356
82199W        W50672   0.890   8.684   1.704
82200W        W50673  34.573  28.021   0.388
82201W        W50674  39.053  11.794  13.329
82202W        W50675  14.670   4.356   3.821
82203W        W50676  33.526  26.994  12.496
82204W        W50677  37.503  26.102  14.341
82205W        W50678  24.108   7.224  10.484
82206W        W50679   3.732  29.056   2.249
82207W        W50680  15.600  14.794  12.085
82208W        W50681  22.719  44.996  12.060
82209W        W50682   2.362  43.389  11.110
82210W        W50683  29.011  17.193  11.961
82211W        W50684  37.884  41.972  13.333
82212W        W50685  10.836  28.664  14.456
82213W        W50686  11.807  22.731  13.397
82214W        W50687  12.127  30.912   1.787
82215W        W50688  15.646  11.265   2.859
82216W        W50689   2.390  27.113  12.572
82217W        W50690  26.494  12.619   0.307
82218W        W50691  44.291  33.402  14.447
82219W        W50692  43.470  10.307   2.875
82220W        W50693  38.894  13.670  14.884
82221W        W50694   0.882  38.932   0.828
82222W        W50695  24.208  29.048  12.003
82223W        W50696  28.045   4.212   4.728
82224W        W50697  11.640   0.282  10.944
82225W        W50698  43.375  17.112   2.710
82226W        W50699  14.338  28.633   2.859
82227W        W50700   6.240  17.295   2.672
82228W        W50701  22.680  25.657  13.897
82229W        W50702  42.829  20.192   1.217
82230W        W50703  41.944   0.923  14.923
82231W        W50704  13.267  43.333  13.452
82232W        W50705  36.090  11.841   5.294
82233W        W50706  34.945  37.065   3.344
82234W        W50707   1.281  22.020   2.772
82235W        W50708  10.769  23.612  14.771
82236W        W50709  42.895  20.238  13.054
82237W        W50710  43.900  24.198   1.315
82238W        W50711  36.949  39.516   4.216
82239W        W50712  34.535  24.160   1.365
82240W        W50713   4.836  19.592   1.807
82241W        W50714   1.817  24.680   1.771
82242W        W50715   6.756  12.318   1.337
82243W        W50716   8.833  36.878  13.388
82244W        W50717  38.856  38.410  14.497
82245W        W50718   8.197   9.282  14.367
82246W        W50719  33.089  32.521   4.678
82247W        W50720   3.883  26.065   0.426
82248W        W50721  17.764  14.591   4.654
82249W        W50722  33.969  28.023  14.472
82250W        W50723   6.214  34.505  12.352
82251W        W50724  40.447   4.267  14.858
82252W        W50725   0.771   5.916   4.354
82253W        W50726  18.649  43.437  14.963
82254W        W50727  31.909  23.696  14.299
82255W        W50728  29.988  31.960  12.533
82256W        W50729  19.766  29.582   1.756
82257W        W50730  29.919   7.710  10.553
82258W        W50731  33.038   5.223  10.455
82259W        W50732  18.160  20.672  11.952
82260W        W50733  20.060  40.896   3.374
82261W        W50734  23.123  25.506   5.206
82262W        W50735  31.461  43.776   4.769
82263W        W50736  11.256  36.469   2.261
82264W        W50737  11.149  28.522  10.426
82265W        W50738  39.902   8.712   0.315
82266W        W50739   1.908  28.111   2.271
82267W        W50740   2.316  41.338   3.337
82268W        W50741   8.839  38.432   4.726
82269W        W50742   5.401  39.021   2.794
82270W        W50743  29.575  29.090  10.889
82271W        W50744  27.617  14.650   3.703
82272W        W50745  24.069   8.260   3.770
82273W        W50746  19.230  15.155  12.505
82274W        W50747  24.980  21.073   3.234
82275W        W50748  21.549   0.423  14.910
82276W        W50749  24.145   9.849  14.399
82277W        W50750  41.829  44.798   3.695
82278W        W50751   7.224  42.464   2.214
82279W        W50752  14.330  20.631   2.382
82280W        W50753  29.156  40.547  12.404
82281W        W50754   9.390  20.220   3.697
82282W        W50755   4.290  32.986   1.279
82283W        W50756  12.307  39.343  12.419
82284W        W50757  28.990   9.262   0.967
82285W        W50758  26.173   9.816  12.050
82286W        W50759  33.929   4.307   1.430
82287W        W50760   1.402  33.953  14.410
82288W        W50761  40.543  31.022  12.089
82289W        W50762  32.632   7.223  10.057
82290W        W50763  28.515  18.099  13.883
82291W        W50764  10.671  41.010   2.311
82292W        W50765   5.227   8.402   2.901
82293W        W50766  34.867  11.835  11.028
82294W        W50767  18.228  37.978   0.926
82295W        W50768   7.833   2.883   2.386
82296W        W50769  40.948  25.480   1.252
82297W        W50770  37.022  10.868  12.365
82298W        W50771  19.699  29.597   2.861
82299W        W50772  19.046  26.608   4.669
82300W        W50773   0.859  28.554   4.136
82301W        W50774   5.254  32.521  12.850
82302W        W50775  16.774  20.059  14.451
82303W        W50776  35.991   0.300   3.663
82304W        W50777  19.621  12.298  11.064
82305W        W50778  27.950  32.414   0.434
82306W        W50779  35.965  16.090   0.726
82307W        W50780  39.039  16.103   3.809
82308W        W50781  40.935  11.745   3.641
82309W        W50782  32.632  40.881   4.651
82310W        W50783  26.550   8.172   1.343
82311W        W50784  44.470  22.709  11.043
82312W        W50785  12.264   1.826   1.904
82313W        W50786  32.028   2.786   2.763
82314W        W50787  21.751  41.513   4.301
82315W        W50788  21.239  11.860  11.444
82316W        W50789  24.653   0.835   3.291
82317W        W50790  19.083   7.754  10.905
82318W        W50791  38.872  28.933   2.865
82319W        W50792  16.182  13.750   4.702
82320W        W50793  29.537  13.642  11.979
82321W        W50794   8.829   2.921   3.645
82322W        W50795  11.757  44.833  11.560
82323W        W50796   3.800  31.464  10.422
82324W        W50797  27.001  11.278  13.041
82325W        W50798   7.671  13.836  14.283
82326W        W50799  16.094   3.226   1.220
82327W        W50800  17.613  16.082   0.288
82328W        W50801  30.153   4.714  11.568
82329W        W50802  43.767  38.475  13.911
82330W        W50803  43.389   8.781  13.940
82331W        W50804  20.105  11.199  12.066
82332W        W50805  25.104  10.196   1.840
82333W        W50806  19.226  17.184  10.510
82334W        W50807  44.899   3.912  11.015
82335W        W50808  27.569  12.645  14.868
82336W        W50809   5.722  31.632   1.371
82337W        W50810  27.128  10.277   1.392
82338W        W50811  26.648   7.870  13.332
82339W        W50812  32.897   3.347   4.207
82340W        W50813  39.333  32.460   1.305
82341W        W50814  42.498  42.017   2.271
82342W        W50815   7.227   3.714  10.983
82343W        W50816  44.970   5.366   2.737
82344W        W50817  36.443   3.300  14.991
82345W        W50818  31.053  19.590  14.790
82346W        W50819  19.168  26.062   1.224
82347W        W50820   7.688  12.817  14.875
82348W        W50821  18.143  23.120   2.705
82349W        W50822  25.138  34.436  11.425
82350W        W50823  41.829  18.114  13.325
82351W        W50824  43.514  36.068   2.826
82352W        W50825   2.334   4.245   1.882
82353W        W50826  10.345  10.878  11.389
82354W        W50827  14.287  12.281   4.270
82355W        W50828  33.424  13.679  11.529
82356W        W50829  29.170  16.671  13.440
82357W        W50830  30.049  10.317  12.470
82358W        W50831  44.846   6.363   1.422
82359W        W50832   0.891  34.111  11.883
82360W        W50833  28.451  20.059   0.341
82361W        W50834  20.168  42.469  12.468
82362W        W50835  42.877  29.024  11.996
82363W        W50836  41.446   5.366  12.833
82364W        W50837  22.124   5.830  13.375
82365W        W50838  40.029  44.407  14.868
82366W        W50839  32.933  36.880  13.978
82367W        W50840   4.253   0.790  10.483
82368W        W50841   7.819  17.729   0.883
82369W        W50842  44.946  38.883   4.707
82370W        W50843  41.969  18.052   2.777
82371W        W50844   0.784  35.032   3.186
82372W        W50845  32.912   6.289  12.833
82373W        W50846  22.591   1.748  14.949
82374W        W50847  15.628   9.232   0.958
82375W        W50848  22.506  25.981  11.010
82376W        W50849  30.099  30.908  12.998
82377W        W50850  18.267   0.395   0.922
82378W        W50851   5.740  44.289   2.301
82379W        W50852   6.347  19.277  11.865
82380W        W50853  22.624   9.173  10.556
82381W        W50854  44.376   5.321   5.133
82382W        W50855  41.806  15.716   4.135
82383W        W50856  31.625  31.898   1.292
82384W        W50857  22.051  23.166  14.930
82385W        W50858  21.257  26.507   0.780
82386W        W50859  40.900  34.571  12.384
82387W        W50860  18.641   2.235   4.146
82388W        W50861  12.287  33.608  12.519
82389W        W50862  37.861  33.959   0.249
82390W        W50863  28.649   7.865  11.863
82391W        W50864  36.030  10.768  12.414
82392W        W50865  37.472  44.999  10.557
82393W        W50866  43.925  38.976   4.300
82394W        W50867  34.532  11.186   2.896
82395W        W50868  25.698  18.270   3.771
82396W        W50869  14.765  14.322  11.065
82397W        W50870  24.060  30.036  13.365
82398W        W50871  19.664  19.194  14.460
82399W        W50872  14.303  13.119  14.420
82400W        W50873   6.318  13.119   2.773
82401W        W50874  31.982  36.010   4.667
82402W        W50875   4.783  19.544  13.039
82403W        W50876  43.982  31.416   0.410
82404W        W50877   8.356  26.009  13.359
82405W        W50878  43.771   3.265  14.771
82406W        W50879  37.878  25.186  11.505
82407W        W50880  14.723   0.930  10.595
82408W        W50881   2.231   0.346   2.189
82409W        W50882   2.846  19.044  14.355
82410W        W50883  29.622  17.131   9.998
82411W        W50884  42.850  20.647   2.897
82412W        W50885  41.907  13.275   4.630
82413W        W50886  40.418   4.233   4.703
82414W        W50887  35.399  12.655  12.996
82415W        W50888  24.630  10.147  10.409
82416W        W50889  32.006  31.565  12.367
82417W        W50890  29.935   9.775  11.532
82418W        W50891  21.235  28.001  12.880
82419W        W50892  28.143  34.395   3.346
82420W        W50893  27.653  21.090  11.040
82421W        W50894  27.963   9.851   3.332
82422W        W50895   4.426   6.199   1.799
82423W        W50896  42.299  16.634   0.324
82424W        W50897  22.048  40.430   1.215
82425W        W50898  24.206  38.566  12.477
82426W        W50899  23.071  19.775  10.536
82427W        W50900  12.329   8.355  10.895
82428W        W50901  24.184  41.972  11.087
82429W        W50902   5.206   0.456  12.861
82430W        W50903   6.306  24.483  11.461
82431W        W50904  44.394  23.132  13.438
82432W        W50905  41.840  16.248  10.641
82433W        W50906  23.152  28.482   3.200
82434W        W50907  43.512  40.318   3.835
82435W        W50908   0.918  10.217  11.072
82436W        W50909   9.865  31.645  10.613
82437W        W50910  23.667  39.337   0.408
82438W        W50911   3.831  25.523  10.940
82439W        W50912  33.974  23.217   2.738
82440W        W50913  13.284  42.397   0.483
82441W        W50914  36.918  13.608   0.353
82442W        W50915   1.389  31.599   4.184
82443W        W50916  17.578  20.659   0.850
82444W        W50917  32.572   0.936  10.604
82445W        W50918  26.616  17.584  14.458
82446W        W50919  22.664  10.781   3.193
82447W        W50920  42.813  23.656   9.988
82448W        W50921  18.205  42.875  11.943
82449W        W50922  28.086  23.158   4.183
82450W        W50923  25.656  19.164   0.898
82451W        W50924  27.616   7.694   1.794
82452W        W50925  39.401  35.414   1.389
82453W        W50926  43.797  10.731   2.363
82454W        W50927  34.409  44.325  11.861
82455W        W50928  14.261   3.345  13.475
82456W        W50929  28.489   2.914   2.181
82457W        W50930  23.724  37.348   1.714
82458W        W50931   4.723  44.008  11.892
82459W        W50932  22.113  22.659  12.053
82460W        W50933  44.343  44.881  12.075
82461W        W50934   3.432  36.960   1.842
82462W        W50935  37.034  38.990   3.748
82463W        W50936  23.494  40.500   4.126
82464W        W50937   1.382  27.987  14.446
82465W        W50938   2.783  37.440   2.743
82466W        W50939  11.681   5.341  10.469
82467W        W50940  39.350  19.244  14.891
82468W        W50941  10.820   1.482  12.041
82469W        W50942  34.051  36.363  13.333
82470W        W50943   3.405  37.858  12.557
82471W        W50944  21.678  18.230  12.506
82472W        W50945  11.860  25.001  13.372
82473W        W50946  25.132   5.811  13.322
82474W        W50947  12.821  20.231  11.046
82475W        W50948  29.935  14.793   4.831
82476W        W50949  14.783  34.096  11.088
82477W        W50950   2.363  35.060   2.673
82478W        W50951  13.683  39.881   0.914
82479W        W50952  27.054   5.402   3.741
82480W        W50953  28.510   4.417  13.506
82481W        W50954  15.320  42.808   0.318
82482W        W50955  27.121   2.325  14.512
82483W        W50956  17.148  11.629   1.238
82484W        W50957  22.184  37.926   3.829
82485W        W50958  43.426  17.135   4.125
82486W        W50959  41.794  35.545  11.862
82487W        W50960  28.646   0.917   2.226
82488W        W50961  14.689  32.115   1.405
82489W        W50962  21.026  35.071  14.374
82490W        W50963  26.527   4.889   1.880
82491W        W50964  18.748   3.251  10.997
82492W        W50965  27.976  31.567   3.328
82493W        W50966  35.948  16.214  10.527
82494W        W50967  13.675   3.739  12.536
82495W        W50968  14.189  19.102   4.716
82496W        W50969  40.303   3.802  12.510
82497W        W50970  41.294  15.285  13.025
82498W        W50971  40.390  23.025   1.798
82499W        W50972   3.786  43.384   2.307
82500W        W50973  18.145  38.552   2.302
82501W        W50974  41.991  25.697   3.684
82502W        W50975   9.777  24.719   2.403
82503W        W50976   1.274  12.245  14.381
82504W        W50977  43.786  30.599   1.754
82505W        W50978  25.053  35.978   0.916
82506W        W50979  10.794  23.584  10.038
82507W        W50980  12.220  27.974   0.879
82508W        W50981  13.780  44.764   0.797
82509W        W50982  30.972  43.809  14.365
82510W        W50983  15.706  13.234  10.580
82511W        W50984  43.398  36.545   2.351
82512W        W50985   6.725  10.714   1.240
82513W        W50986  30.155  20.758  13.869
82514W        W50987  30.462  23.593  10.419
82515W        W50988  28.930  24.689   2.403
82516W        W50989  40.829   6.268   1.396
82517W        W50990  40.825   3.256   0.951
82518W        W50991  11.798  40.429  10.956
82519W        W50992   4.284  10.232  11.541
82520W        W50993  11.216  32.554   2.819
82521W        W50994   0.255  43.432   0.797
82522W        W50995  43.423  20.248   1.899
82523W        W50996  20.566  40.994  13.927
82524W        W50997  33.960  33.418  14.831
82525W        W50998  19.665  14.151  12.015
82526W        W50999  17.298  25.100  11.584
82527W        W51000  33.479  14.155  10.062
82528W        W51001  28.079  35.082   3.792
82529W        W51002  25.655  27.151  10.505
82530W        W51003  26.617  33.599  13.929
82531W        W51004  41.878  24.203   1.219
82532W        W51005  40.419  31.405  10.588
82533W        W51006   7.195  44.836   0.748
82534W        W51007  19.207  17.237  13.022
82535W        W51008  27.610  14.187   0.917
82536W        W51009  28.184  28.522   1.321
82537W        W51010  30.107  38.463   1.768
82538W        W51011   9.391  39.881   4.805
82539W        W51012   0.916  33.948   0.469
82540W        W51013   1.357  21.687   3.799
82541W        W51014   0.816   3.935  13.934
82542W        W51015  36.350  43.413   0.791
82543W        W51016  35.581  23.000   4.651
82544W        W51017  12.617  27.978  14.392
82545W        W51018  23.645  27.125   5.762
82546W        W51019  20.660  26.081  14.927
82547W        W51020   0.274  24.981  13.051
82548W        W51021  25.040  32.452   0.937
82549W        W51022  16.789  27.587  13.374
82550W        W51023  30.917  43.929  14.889
82551W        W51024   2.940  16.775  12.886
82552W        W51025  28.960  32.913   2.884
82553W        W51026  24.571  24.539  13.796
82554W        W51027   8.803  44.856  10.552
82555W        W51028  38.455  26.668   2.208
82556W        W51029  32.586  32.996  13.862
82557W        W51030   9.738  40.910   0.790
82558W        W51031   4.740   3.457   3.381
82559W        W51032  28.477  31.914   2.267
82560W        W51033  41.320   6.237   0.942
82561W        W51034  22.141  13.152   5.127
82562W        W51035  23.122  10.340   4.839
82563W        W51036   9.824  36.586  10.515
82564W        W51037   9.648  22.247   3.226
82565W        W51038   2.753  44.416  14.285
82566W        W51039  36.001  13.340  10.616
82567W        W51040  13.729  26.596   0.266
82568W        W51041  32.030  23.550   5.627
82569W        W51042  23.524  12.670  14.307
82570W        W51043  28.574   6.306  12.532
82571W        W51044   5.805  19.615  12.580
82572W        W51045  25.069  22.545   1.242
82573W        W51046  10.267  38.533   4.657
82574W        W51047  15.173   6.832  14.496
82575W        W51048   0.262  13.133  14.416
82576W        W51049  24.593  35.366   1.760
82577W        W51050  40.481   6.204  13.052
82578W        W51051  19.545  30.580  11.463
82579W        W51052  36.942  41.310   1.827
82580W        W51053  27.161  29.476   4.212
82581W        W51054  44.759  12.283   2.817
82582W        W51055  29.149   2.401  14.845
82583W        W51056  25.511  30.522   0.479
82584W        W51057  18.778  21.727  13.989
82585W        W51058  27.000  19.592  12.941
82586W        W51059  27.484   2.270   4.323
82587W        W51060  26.143  37.380   3.761
82588W        W51061   1.878   1.839   3.833
82589W        W51062   3.784  37.907  13.992
82590W        W51063  16.711  18.167  12.024
82591W        W51064  24.638   1.898   0.390
82592W        W51065  33.079  21.706   1.316
82593W        W51066   9.381   4.889  13.508
82594W        W51067  43.444  15.283   0.285
82595W        W51068  11.723   8.783  13.473
82596W        W51069  39.915  14.625  12.081
82597W        W51070  12.691  10.369  14.867
82598W        W51071  14.715  40.950   3.192
82599W        W51072  42.356   2.450  13.387
82600W        W51073  26.000   9.826   1.828
82601W        W51074  31.586  37.994   2.389
82602W        W51075  21.160  34.453  10.938
82603W        W51076  15.691  41.327  11.864
82604W        W51077  20.634  23.023  11.898
82605W        W51078  14.231  39.907   0.937
82606W        W51079  23.585   2.891   4.175
82607W        W51080  27.596  11.719   3.318
82608W        W51081  18.242  30.647   3.243
82609W        W51082   1.790  10.160  13.363
82610W        W51083  27.547  26.067   0.447
82611W        W51084  13.267  42.460  14.981
82612W        W51085  43.933  13.335  10.947
82613W        W51086  17.169   6.308   4.734
82614W        W51087  11.240  27.990   1.821
82615W        W51088  31.545  18.268  10.426
82616W        W51089  14.830  18.247  14.509
82617W        W51090  29.097  38.389  14.832
82618W        W51091  37.417  36.565   0.885
82619W        W51092  44.913  29.547  11.981
82620W        W51093  20.654  40.013   3.215
82621W        W51094  15.324  40.489   2.286
82622W        W51095   5.776  33.888  11.454
82623W        W51096  20.729  30.536   1.736
82624W        W51097  18.273  10.801  11.952
82625W        W51098  16.721  15.089  13.395
82626W        W51099   1.731  25.059  13.024
82627W        W51100  11.797   7.383   1.385
82628W        W51101  17.715  44.771  11.466
82629W        W51102  24.711   4.846   1.737
82630W        W51103  23.609  39.964   2.296
82631W        W51104  18.245  43.513  10.631
82632W        W51105   9.260  43.454   2.844
82633W        W51106   6.815  24.997  11.563
82634W        W51107  26.203  44.263   2.295
82635W        W51108  37.991  36.078   4.646
82636W        W51109  15.276  20.113   4.822
82637W        W51110   8.821  26.172   0.452
82638W        W51111  43.923   0.401  13.524
82639W        W51112  29.985  35.473  11.859
82640W        W51113  20.174   8.208  11.590
82641W        W51114  23.714   0.889  10.959
82642W        W51115  39.003  34.866   1.435
82643W        W51116  10.735  30.605  14.448
82644W        W51117  40.370   3.228   4.607
82645W        W51118  20.544  24.526  13.894
82646W        W51119  31.467   1.818  11.948
82647W        W51120  19.553  26.168  12.575
82648W        W51121  37.571   5.275   2.252
82649W        W51122  16.630  31.446  10.924
82650W        W51123  37.843  31.907   3.807
82651W        W51124  21.517  42.945  13.385
82652W        W51125  37.886  20.705   4.203
82653W        W51126   7.361  31.108  12.877
82654W        W51127  23.176  39.458   0.417
82655W        W51128  20.724   6.825  14.342
82656W        W51129   4.380  42.328   4.658
82657W        W51130  36.930  31.486   3.689
82658W        W51131  16.255  15.639  12.560
82659W        W51132  15.670  27.486  12.874
82660W        W51133   2.324  33.971  12.006
82661W        W51134   9.322  24.181  13.810
82662W        W51135  17.697  41.436   2.858
82663W        W51136   9.195  24.716   3.724
82664W        W51137  33.918   3.456   3.747
82665W        W51138  10.877  32.596   3.145
82666W        W51139  43.977   9.771   3.282
82667W        W51140  11.142  35.586   9.648
82668W        W51141   6.391  42.332  13.477
82669W        W51142   5.196   3.279  12.916
82670W        W51143  35.899  37.493   3.753
82671W        W51144  13.713  10.846  13.471
82672W        W51145  44.277   1.856   3.283
82673W        W51146  36.555   1.732   5.308
82674W        W51147  32.626   5.243   4.605
82675W        W51148  28.177  14.257   5.102
82676W        W51149  24.104   3.955  14.288
82677W        W51150  39.522  27.573   4.837
82678W        W51151  35.551  18.672   2.207
82679W        W51152  21.530  24.059   4.624
82680W        W51153  42.881   1.280   4.701
82681W        W51154  19.592  37.451   2.687
82682W        W51155  25.002  37.495   4.708
82683W        W51156  12.132  11.644  13.923
82684W        W51157  37.523  24.222   2.760
82685W        W51158   2.813   7.275   2.784
82686W        W51159   7.271  42.414  13.335
82687W        W51160  30.068  23.150  13.504
82688W        W51161  36.441  16.291   2.846
82689W        W51162  25.000  34.402   3.649
82690W        W51163  40.904  43.962  12.459
82691W        W51164  22.620  32.944  11.610
82692W        W51165  44.897  37.451  13.458
82693W        W51166  24.697  18.196   4.602
82694W        W51167  33.021  27.649   2.322
82695W        W51168  34.506  29.957   4.192
82696W        W51169  29.509  28.049  11.025
82697W        W51170  42.890  24.543   3.662
82698W        W51171   4.356  30.491  14.907
82699W        W51172   5.706  30.441   3.347
82700W        W51173  24.582  26.694   4.281
82701W        W51174  44.324   0.918   1.765
82702W        W51175   3.291  39.899  10.896
82703W        W51176  32.955   5.383   3.785
82704W        W51177  18.558   4.387   2.734
82705W        W51178  13.763   6.391  11.989
82706W        W51179  24.557  19.688   3.287
82707W        W51180  35.581  11.707  10.496
82708W        W51181   9.782  14.796   3.156
82709W        W51182   5.857   5.292   3.196
82710W        W51183  38.513   4.355   3.338
82711W        W51184  29.091  16.721  11.874
82712W        W51185  33.574   0.824  14.992
82713W        W51186  11.743  38.987  11.532
82714W        W51187  26.559  29.427   4.192
82715W        W51188  41.507  30.984   0.786
82716W        W51189  40.480  38.820   3.360
82717W        W51190  43.011   2.861   4.801
82718W        W51191  25.535  43.868   1.228
82719W        W51192  29.657  43.999   4.675
82720W        W51193   7.870  27.015   4.815
82721W        W51194   9.862  25.656   0.337
82722W        W51195   1.900  29.562  14.897
82723W        W51196  10.254  29.109  12.042
82724W        W51197  44.784   8.701   4.652
82725W        W51198   2.948  44.346  14.977
82726W        W51199  11.677  29.449   1.278
82727W        W51200  39.500  14.103   3.671
82728W        W51201  29.542   0.901  12.085
82729W        W51202  18.142  22.169  12.079
82730W        W51203   8.372  43.483   4.281
82731W        W51204  34.488  41.851   0.808
82732W        W51205  37.387  33.615   0.961
82733W        W51206  43.961  11.221   2.412
82734W        W51207  28.489  40.466  12.502
82735W        W51208  30.445  32.523  14.497
82736W        W51209  41.529  33.511  12.520
82737W        W51210  14.191  27.020   4.803
82738W        W51211  11.646   9.233  12.875
82739W        W51212   5.343   1.842  10.975
82740W        W51213  11.207  28.004   4.229
82741W        W51214   8.732  27.606   2.325
82742W        W51215   7.229  27.015  14.902
82743W        W51216  27.511   1.858   2.322
82744W        W51217  16.677  21.592  12.937
82745W        W51218  34.932  40.469   4.784
82746W        W51219  35.894  26.128  11.857
82747W        W51220  30.093   3.847   0.359
82748W        W51221   7.400  36.046  11.469
82749W        W51222  44.923   2.291  11.869
82750W        W51223  29.661  40.952  13.361
82751W        W51224   1.860  43.344   1.761
82752W        W51225  37.908  32.982  13.468
82753W        W51226  23.701  12.264  14.493
82754W        W51227  17.565   8.253  10.989
82755W        W51228  37.492  28.079  11.448
82756W        W51229  27.113  19.100   1.415
82757W        W51230   8.248  13.657   0.370
82758W        W51231   9.196  23.057   5.650
82759W        W51232   2.774  39.041   4.615
82760W        W51233  25.673  15.136   1.221
82761W        W51234   5.753  36.871  13.880
82762W        W51235  20.162  26.175  11.505
82763W        W51236  42.394  18.764  12.901
82764W        W51237   3.439   6.206   0.282
82765W        W51238   8.727  26.493   2.368
82766W        W51239  42.457  31.601  10.524
82767W        W51240  25.029  23.138  14.955
82768W        W51241  37.570  11.670  12.849
82769W        W51242   4.245   7.409   2.362
82770W        W51243  26.603  34.867  11.036
82771W        W51244   4.852  27.692  12.860
82772W        W51245  17.094  15.821  13.412
82773W        W51246  31.453  16.300   4.732
82774W        W51247  41.922  33.996   1.733
82775W        W51248  42.959   7.348  14.322
82776W        W51249  27.114  28.068   2.729
82777W        W51250  40.549  36.841  11.020
82778W        W51251  30.623   3.375   0.960
82779W        W51252  13.273  26.545  11.010
82780W        W51253  13.106   6.911  10.987
82781W        W51254  40.457  14.153  12.445
82782W        W51255  36.067  40.443  14.905
82783W        W51256   8.885  19.223  12.077
82784W        W51257  19.051  38.828  13.373
82785W        W51258  39.030  18.609   2.209
82786W        W51259   4.870  12.358  11.535
82787W        W51260  33.000  37.497   0.857
82788W        W51261  30.936   4.847  12.014
82789W        W51262  26.517  39.993  10.119
82790W        W51263  30.045  26.623   9.927
82791W        W51264  35.474   6.736   4.157
82792W        W51265  25.607  10.335   2.325
82793W        W51266  24.587  30.117  10.888
82794W        W51267  18.715   9.230  14.352
82795W        W51268  44.409  42.426  12.402
82796W        W51269  33.618  44.935   1.829
82797W        W51270  10.730   7.720   0.269
82798W        W51271  30.917  22.195  14.286
82799W        W51272  39.546  41.312   1.885
82800W        W51273  13.277  43.902   1.716
82801W        W51274  19.115  33.881  11.026
82802W        W51275   2.912  11.831   1.259
82803W        W51276   8.196  33.519  11.056
82804W        W51277  44.409   2.317  14.969
82805W        W51278  21.525  15.646  10.049
82806W        W51279  44.767  29.087  14.029
82807W        W51280  24.141  28.146   2.392
82808W        W51281  20.589  30.530  10.551
82809W        W51282  26.169  18.119   4.205
82810W        W51283  14.128  19.565  14.490
82811W        W51284  37.035  11.150  14.953
82812W        W51285  31.012   6.722   0.866
82813W        W51286   2.246  37.925  14.347
82814W        W51287  40.319   5.365  10.530
82815W        W51288   3.432   8.834   4.611
82816W        W51289  18.547  15.585  10.410
82817W        W51290  34.420  22.682  11.939
82818W        W51291  13.257  13.338   5.303
82819W        W51292  31.119  33.426  12.066
82820W        W51293   5.713  14.597  14.965
82821W        W51294  33.445  16.290  10.606
82822W        W51295  32.390  42.294  11.044
82823W        W51296  33.119  41.974  11.876
82824W        W51297  10.731  17.748   4.636
82825W        W51298  15.163  41.840  14.430
82826W        W51299  37.993  10.689  13.989
82827W        W51300  26.142  43.850   5.309
82828W        W51301  39.838   9.280   2.681
82829W        W51302  28.123  19.153  14.374
82830W        W51303  28.978  16.723   4.820
82831W        W51304   3.281  24.534  14.466
82832W        W51305   6.239  40.831  11.041
82833W        W51306   6.250   6.318   3.666
82834W        W51307  13.840   9.830  12.039
82835W        W51308   8.197  32.003   5.170
82836W        W51309  20.674  30.023  14.018
82837W        W51310  23.182   2.282  13.468
82838W        W51311  13.182  16.616  11.904
82839W        W51312  25.989  11.288   4.803
82840W        W51313  23.713  27.006  11.547
82841W        W51314  15.691  40.315   3.675
82842W        W51315   8.885   9.315   1.703
82843W        W51316  24.623   5.687   4.352
82844W        W51317  22.646   8.327  10.468
82845W        W51318   4.245  18.235  13.328
82846W        W51319  24.124  16.111   2.216
82847W        W51320  18.562  43.322   2.318
82848W        W51321  29.660   2.895   0.752
82849W        W51322  16.649   1.443  10.581
82850W        W51323   0.264  21.193   5.248
82851W        W51324  31.063  32.432  11.472
82852W        W51325  19.166  27.114  11.918
82853W        W51326  40.413  12.319   4.711
82854W        W51327  17.088  22.204  14.437
82855W        W51328  34.996  32.483   0.742
82856W        W51329  20.726   1.758  13.501
82857W        W51330   6.747  36.530  14.490
82858W        W51331  11.759   1.398  12.001
82859W        W51332   5.355   0.900  13.878
82860W        W51333  34.894  18.247  10.527
82861W        W51334  12.317  28.170   2.802
82862W        W51335  21.548  40.970   3.836
82863W        W51336  41.977  28.152  11.529
82864W        W51337  29.469  22.203   0.280
82865W        W51338  17.103  36.877  14.947
82866W        W51339  44.354  29.666   1.352
82867W        W51340  33.977   7.414   0.907
82868W        W51341  24.520   6.415  11.938
82869W        W51342  23.097  30.151  14.365
82870W        W51343  19.180   3.924   4.197
82871W        W51344   7.300   6.752  10.559
82872W        W51345  16.160   8.670  12.354
82873W        W51346   1.796  34.054   0.483
82874W        W51347  17.141  36.468  11.086
82875W        W51348   5.389  24.141  11.074
82876W        W51349   4.438  13.808   3.359
82877W        W51350  41.526   5.204   0.873
82878W        W51351  27.482  16.689  14.430
82879W        W51352  34.059   4.920  14.482
82880W        W51353  38.427  35.472  13.919
82881W        W51354  39.853  17.086   3.791
82882W        W51355   6.886   6.834   1.228
82883W        W51356  34.419   0.902   3.803
82884W        W51357  17.749  11.293   0.428
82885W        W51358  42.807  14.597   0.893
82886W        W51359  31.630  25.714  14.376
82887W        W51360  31.143  18.780  14.908
82888W        W51361   6.328  36.384  14.394
82889W        W51362  15.802  41.956  12.485
82890W        W51363  41.535  42.457   4.342
82891W        W51364  15.801  43.314   3.674
82892W        W51365  31.056  25.090   4.323
82893W        W51366  16.729  18.630  10.603
82894W        W51367  37.882  10.807  12.976
82895W        W51368  30.581  29.110  10.510
82896W        W51369  31.904  30.917   5.284
82897W        W51370  10.175  11.238   1.810
82898W        W51371  14.775  12.295   1.290
82899W        W51372  29.603  21.116   1.329
82900W        W51373  34.090  21.231  12.961
82901W        W51374  11.760   1.323  14.458
82902W        W51375   1.965  17.226  12.924
82903W        W51376  10.338  26.006  10.079
82904W        W51377  23.114  30.046  13.451
82905W        W51378  29.991  15.166   1.278
82906W        W51379  21.600   6.310  11.878
82907W        W51380  34.009  13.166  11.397
82908W        W51381  12.327  24.150   4.795
82909W        W51382  22.628  22.009  10.468
82910W        W51383  14.177  35.410  14.363
82911W        W51384  25.169   3.872   4.652
82912W        W51385   4.765  14.645   0.816
82913W        W51386  32.447  25.170   4.241
82914W        W51387  43.939  38.944   1.349
82915W        W51388  28.160  21.614   1.797
82916W        W51389  11.266  27.575  11.876
82917W        W51390  42.886   8.685  11.958
82918W        W51391  29.608   5.875  12.517
82919W        W51392  33.607  20.548  13.973
82920W        W51393   8.687  40.357  10.572
82921W        W51394  27.526   5.860   0.798
82922W        W51395   9.694  27.149   3.840
82923W        W51396   0.815  43.300   2.383
82924W        W51397  16.230  35.540  10.423
82925W        W51398   1.847   5.211  13.408
82926W        W51399  19.588   1.451   4.625
82927W        W51400  41.983   1.277   2.845
82928W        W51401  25.590   2.938  13.431
82929W        W51402  39.505   0.404   3.302
82930W        W51403  27.636  34.067  11.601
82931W        W51404   3.275  14.295   5.190
82932W        W51405  24.092  12.311   0.341
82933W        W51406  25.561   2.318  14.480
82934W        W51407  36.364  35.468  11.938
82935W        W51408  40.464  31.054   0.771
82936W        W51409  39.030  13.329  10.468
82937W        W51410  24.135  24.140   2.825
82938W        W51411  38.848  31.060   4.310
82939W        W51412  17.260  15.686  14.868
82940W        W51413  30.975  44.798   3.153
82941W        W51414   7.398  35.535   3.384
82942W        W51415   7.237  43.406  13.997
82943W        W51416   0.325   8.896  11.030
82944W        W51417  35.944  26.623  14.504
82945W        W51418  16.109   8.275   4.835
82946W        W51419  30.441   9.243  11.879
82947W        W51420  14.251  35.443  10.956
82948W        W51421   1.272  37.926  14.028
82949W        W51422  22.238  15.231   9.936
82950W        W51423   1.906  21.076   2.742
82951W        W51424  42.903  22.734   3.707
82952W        W51425   9.706   8.742  11.597
82953W        W51426  24.668  42.819   0.963
82954W        W51427  17.662   0.759  10.496
82955W        W51428   8.748  14.192  10.598
82956W        W51429   5.331  25.105   4.308
82957W        W51430  22.106  16.629  14.390
82958W        W51431  36.516   1.251  11.547
82959W        W51432  42.348  43.430   4.189
82960W        W51433  28.998  14.204   0.922
82961W        W51434  36.489  16.090   4.662
82962W        W51435  28.966  29.075  10.642
82963W        W51436  38.498  39.819   1.884
82964W        W51437  14.300   1.884  11.493
82965W        W51438  36.503  28.019  12.085
82966W        W51439  37.339  39.826  14.300
82967W        W51440  22.098  15.674  14.962
82968W        W51441  29.126   5.297   2.673
82969W        W51442   2.355   2.345  12.377
82970W        W51443  14.758  19.140  13.528
82971W        W51444  22.698  38.430  12.422
82972W        W51445  24.005  17.623  14.341
82973W        W51446   4.364  18.203   1.308
82974W        W51447   7.832   3.944  13.925
82975W        W51448  44.404  23.232  11.999
82976W        W51449   4.309  25.541   3.679
82977W        W51450   8.760  41.966   0.862
82978W        W51451  19.243  10.872   0.411
82979W        W51452   1.888  12.765  14.908
82980W        W51453  31.488  37.409  12.939
82981W        W51454  21.711  39.021   4.672
82982W        W51455  34.015  16.611   4.634
82983W        W51456  43.976   9.343   1.445
82984W        W51457   9.702   0.839   4.195
82985W        W51458  29.607  14.751   0.351
82986W        W51459   5.396  39.491   1.384
82987W        W51460   8.678  36.074   2.348
82988W        W51461  34.489  29.616   0.849
82989W        W51462  36.010  43.908  10.940
82990W        W51463   2.765  12.765   3.790
82991W        W51464  29.955  16.222  14.460
82992W        W51465  14.652   1.341  14.020
82993W        W51466  22.651  12.697   5.138
82994W        W51467  31.643  27.007  14.489
82995W        W51468  20.248  37.929  13.064
82996W        W51469  18.550  22.243  13.451
82997W        W51470  13.828  39.467   2.823
82998W        W51471  39.440   7.671  11.533
82999W        W51472   0.803  37.470   3.801
83000W        W51473  35.533  14.652  12.917
83001W        W51474   4.708  23.735  14.008
83002W        W51475   6.408  31.031  13.484
83003W        W51476  16.687  29.438  12.463
83004W        W51477  31.510  20.726   4.310
83005W        W51478   9.200   3.826  10.443
83006W        W51479  11.195  37.504  14.391
83007W        W51480  25.672   8.839  11.386
83008W        W51481  19.252  18.145   0.908
83009W        W51482  11.137  28.532   1.377
83010W        W51483  43.015   1.935   3.219
83011W        W51484  29.084  18.200  13.842
83012W        W51485  42.880   5.691   1.857
83013W        W51486  31.118  43.448   5.699
83014W        W51487  39.320  10.355   4.787
83015W        W51488  44.386   5.317   3.633
83016W        W51489  43.966  42.435   3.214
83017W        W51490  30.044  32.009  10.891
83018W        W51491  38.338  14.670   1.806
83019W        W51492   9.318  38.542   0.264
83020W        W51493  17.277  40.450   1.800
83021W        W51494  39.031   1.881  12.364
83022W        W51495   0.378  22.179   3.196
83023W        W51496   7.204  36.005   2.838
83024W        W51497  16.714  34.928  11.029
83025W        W51498  11.694  30.046   3.759
83026W        W51499  20.118  44.916  13.980
83027W        W51500   3.263  22.236  11.873
83028W        W51501  14.694  38.014  12.534
83029W        W51502   9.644  14.191   0.465
83030W        W51503  26.162  42.829  13.807
83031W        W51504  24.153   4.920  13.020
83032W        W51505  28.932  21.218   3.641
83033W        W51506  41.028  23.605  14.913
83034W        W51507  28.660  13.802  12.569
83035W        W51508   7.356   7.200  10.508
83036W        W51509   3.943  38.421  12.981
83037W        W51510  29.060  40.400   0.805
83038W        W51511   7.300  30.438  11.027
83039W        W51512  40.509  24.138   5.119
83040W        W51513   2.745   1.448   4.717
83041W        W51514  16.100  37.556   0.272
83042W        W51515  28.979   7.783   4.191
83043W        W51516  32.446  41.849   4.698
83044W        W51517  23.107   7.742   3.728
83045W        W51518  27.154  31.033   4.615
83046W        W51519  38.819  28.990  11.051
83047W        W51520  33.942  20.685   4.818
83048W        W51521   0.750  39.373   3.217
83049W        W51522  17.661   4.363  11.006
83050W        W51523  24.180  34.913  14.370
83051W        W51524   6.422   9.292  14.013
83052W        W51525   7.730  39.816  11.504
83053W        W51526  44.993   3.360   1.264
83054W        W51527  35.031  16.244  11.900
83055W        W51528  24.069   4.770  11.406
83056W        W51529  19.183  30.984  13.483
83057W        W51530  18.692  39.881   4.631
83058W        W51531  42.897  23.080  11.473
83059W        W51532  12.704  36.957   1.728
83060W        W51533  41.016  13.163   0.805
83061W        W51534  31.451  20.050   4.827
83062W        W51535  38.998  37.971   0.965
83063W        W51536  20.648  38.519   4.213
83064W        W51537   2.942  32.461   3.367
83065W        W51538  42.032   8.278   4.730
83066W        W51539  35.403  42.371   4.772
83067W        W51540   3.309  43.907   0.827
83068W        W51541  44.351   6.806  10.931
83069W        W51542   9.299  25.164  11.012
83070W        W51543  10.796  17.557   2.182
83071W        W51544   6.183   2.440  10.551
83072W        W51545   9.234  13.620  12.528
83073W        W51546   5.358  19.631   1.909
83074W        W51547  40.919  24.609   0.921
83075W        W51548  18.148  43.491  13.876
83076W        W51549  23.009   5.804  13.889
83077W        W51550  14.813  36.523   2.331
83078W        W51551  44.450  24.492  14.783
83079W        W51552  31.514   7.787  12.979
83080W        W51553  23.570  38.330   4.244
83081W        W51554  34.078  30.612   0.871
83082W        W51555  39.008  35.921  13.455
83083W        W51556  17.701   9.375   2.802
83084W        W51557  30.125   2.312  13.455
83085W        W51558  14.714  26.187   4.351
83086W        W51559  18.142  27.989   2.832
83087W        W51560  10.149  37.836  14.929
83088W        W51561  27.063  22.132  13.313
83089W        W51562  25.522  11.818  14.983
83090W        W51563  16.303  43.479  12.912
83091W        W51564  15.744  20.249   0.448
83092W        W51565  27.080  43.483  10.479
83093W        W51566   8.393   1.845   4.718
83094W        W51567  26.526  24.490  12.923
83095W        W51568  38.533  42.494   2.251
83096W        W51569  39.849  34.389  11.977
83097W        W51570  38.865  29.146   1.423
83098W        W51571  16.769  29.452  13.350
83099W        W51572  36.954  26.112  12.093
83100W        W51573  29.046  37.035   0.802
83101W        W51574  26.610  14.172   3.724
83102W        W51575  12.215  31.580  13.902
83103W        W51576  14.260  39.446  12.433
83104W        W51577  18.711  12.700  11.512
83105W        W51578  14.768  34.052  10.560
83106W        W51579  17.646  26.096   1.749
83107W        W51580  39.472  31.936   1.771
83108W        W51581   7.381  24.593   4.807
83109W        W51582  28.654  11.799   1.797
83110W        W51583  20.123   7.225  13.451
83111W        W51584  27.656  30.617  13.473
83112W        W51585  32.397  17.220   9.960
83113W        W51586  44.335  29.456  13.517
83114W        W51587  26.671  34.581  11.949
83115W        W51588   2.922  24.070   4.303
83116W        W51589  28.568   5.418  12.043
83117W        W51590  24.574  36.465   1.890
83118W        W51591   8.337  14.831   4.649
83119W        W51592  20.538  30.584  14.278
83120W        W51593  38.966  21.555   0.424
83121W        W51594   8.386   3.835   3.799
83122W        W51595  25.490  34.401  14.374
83123W        W51596  39.948   5.783   4.120
83124W        W51597  16.701   3.303  12.873
83125W        W51598  30.945   8.784  14.341
83126W        W51599  35.937   3.372  11.562
83127W        W51600  24.485  42.807   2.866
83128W        W51601  32.121   7.352   1.875
83129W        W51602  25.577  41.973  10.995
83130W        W51603  28.974   3.737   4.763
83131W        W51604   4.295   4.731   0.351
83132W        W51605  24.721  38.928   2.802
83133W        W51606  14.287  37.472   3.769
83134W        W51607   6.746  27.574   0.447
83135W        W51608  20.584  39.918   4.196
83136W        W51609  36.474  44.809   0.917
83137W        W51610  30.916  32.567  12.521
83138W        W51611  41.360  12.805   1.714
83139W        W51612  34.596   3.371   3.764
83140W        W51613   7.302  20.150   4.755
83141W        W51614  42.863   6.239   0.392
83142W        W51615  38.837  27.119   4.707
83143W        W51616  16.144  14.742  13.932
83144W        W51617  13.816   1.963   0.921
83145W        W51618   3.413  40.816  13.341
83146W        W51619  33.444  37.971   2.337
83147W        W51620   2.345  40.050  11.401
83148W        W51621   5.352  39.315  11.431
83149W        W51622  30.061  15.804   4.254
83150W        W51623  17.619  32.612   0.441
83151W        W51624  38.926  32.628  11.381
83152W        W51625  38.880   0.786   3.146
83153W        W51626  31.960  31.548   2.705
83154W        W51627  28.577  37.085  13.518
83155W        W51628   8.406  42.298  14.871
83156W        W51629   4.269  11.819   1.435
83157W        W51630  23.660   9.695   3.758
83158W        W51631  12.845  25.698  10.500
83159W        W51632  29.425  30.526  12.973
83160W        W51633  43.000  10.752  14.329
83161W        W51634  21.145  28.000  10.535
83162W        W51635  18.202  38.521  12.867
83163W        W51636  11.180   6.873  14.901
83164W        W51637  17.592  44.395  11.086
83165W        W51638  24.583  10.362  12.863
83166W        W51639  14.136   2.296   4.609
83167W        W51640  22.125  41.317   3.148
83168W        W51641   2.940  41.483  14.503
83169W        W51642  35.555  35.554   0.930
83170W        W51643   5.381  23.172   3.729
83171W        W51644  25.607  29.635  12.032
83172W        W51645   9.217  27.043  11.433
83173W        W51646  36.965  30.629   4.241
83174W        W51647  22.713   1.442  11.473
83175W        W51648  20.038   8.840  12.449
83176W        W51649   3.932  38.344   2.372
83177W        W51650  20.755  24.997  10.949
83178W        W51651  21.585  42.524  13.949
83179W        W51652  28.172  33.431  10.129
83180W        W51653  36.096  22.166  14.813
83181W        W51654   1.477   6.799   3.344
83182W        W51655  29.139  32.131  11.905
83183W        W51656  10.210  28.677  11.436
83184W        W51657   3.875  15.622  10.054
83185W        W51658  17.725  15.595  11.435
83186W        W51659   1.781  24.114   1.762
83187W        W51660  40.465   5.328   3.837
83188W        W51661   8.257  44.798  10.962
83189W        W51662  28.959  16.807  12.558
83190W        W51663  38.338  27.132   4.747
83191W        W51664  26.518  34.424   1.359
83192W        W51665  37.549  16.190  14.777
83193W        W51666  34.524  43.815  13.314
83194W        W51667  32.050  24.716   1.396
83195W        W51668  20.122   5.393   2.902
83196W        W51669   2.270  31.016   1.402
83197W        W51670   2.234  34.596  12.482
83198W        W51671  27.682  34.921   3.360
83199W        W51672  35.594  12.683   3.808
83200W        W51673   3.721  34.116   2.863
83201W        W51674  18.586  12.836   3.720
83202W        W51675   5.374  37.530  11.944
83203W        W51676   7.239  16.130   2.733
83204W        W51677  22.102  21.038   1.803
83205W        W51678   6.775   3.861   3.231
83206W        W51679  22.089  34.539   0.763
83207W        W51680  30.111  23.581   5.648
83208W        W51681  38.921   9.172   0.419
83209W        W51682  27.041  43.325  12.402
83210W        W51683  21.515  39.454  14.306
83211W        W51684  28.988   4.748   0.409
83212W        W51685  34.570  38.041   0.841
83213W        W51686   5.369  10.848  14.403
83214W        W51687  17.271  15.696   4.197
83215W        W51688  31.099  36.453  12.551
83216W        W51689  27.480  32.122  14.311
83217W        W51690   7.888  40.829  13.872
83218W        W51691   1.443  15.721   4.213
83219W        W51692  43.503   4.406  12.880
83220W        W51693  18.771   7.173  12.466
83221W        W51694  19.561   8.391   3.223
83222W        W51695  16.741  42.779   0.890
83223W        W51696  33.586   4.227  12.999
83224W        W51697  43.966  23.241   0.906
83225W        W51698  32.554  23.523   4.295
83226W        W51699  29.002  30.464   4.623
83227W        W51700   4.205  24.146  12.929
83228W        W51701   6.705  13.220  12.368
83229W        W51702   3.941   0.915  12.499
83230W        W51703  30.614  16.114   1.253
83231W        W51704  20.075  15.772  10.941
83232W        W51705  37.547   9.217  13.855
83233W        W51706  12.275  22.607  12.351
83234W        W51707  35.472  24.087   1.268
83235W        W51708   2.370  39.535   4.822
83236W        W51709  35.099  37.375  13.043
83237W        W51710  36.092  43.819   3.697
83238W        W51711   8.758  41.926   3.712
83239W        W51712  34.024   3.290  11.426
83240W        W51713  42.371  35.462  11.498
83241W        W51714  36.944  37.965  14.383
83242W        W51715  44.904   7.861   1.441
83243W        W51716  41.455   5.373  11.090
83244W        W51717  39.864  21.621   4.654
83245W        W51718   6.898   6.422   3.856
83246W        W51719  33.007  16.723  12.360
83247W        W51720  13.202  39.050   3.268
83248W        W51721  13.173  15.795  12.391
83249W        W51722   7.694  39.850  14.990
83250W        W51723  27.039  41.838  11.926
83251W        W51724  38.513  41.389  10.595
83252W        W51725  44.896  29.590  13.387
83253W        W51726  30.090  21.064   3.645
83254W        W51727  37.423  25.647   0.850
83255W        W51728  33.513  44.884  12.449
83256W        W51729  22.209   3.761   2.692
83257W        W51730   8.897  10.852   1.291
83258W        W51731  36.553  26.064   3.383
83259W        W51732   4.917  36.961   3.847
83260W        W51733  21.598   5.716   4.694
83261W        W51734  28.075  23.510   3.826
83262W        W51735  16.247   3.851  13.327
83263W        W51736  33.115   5.220   2.728
83264W        W51737  13.675  44.386  14.778
83265W        W51738  18.546  26.102  13.927
83266W        W51739  41.823  33.120   0.743
83267W        W51740   3.741  27.549   0.828
83268W        W51741  10.632  34.117  13.338
83269W        W51742  31.485  18.731  12.065
83270W        W51743  16.285  14.328  13.017
83271W        W51744  31.445  10.248  12.058
83272W        W51745  33.126  21.702  14.381
83273W        W51746  41.819  39.339  10.969
83274W        W51747   4.842   5.867  11.894
83275W        W51748  25.969  34.387  12.836
83276W        W51749  30.532  38.461  12.840
83277W        W51750  43.974  17.245  10.945
83278W        W51751  17.605  20.706  13.535
83279W        W51752  14.666  10.813   4.783
83280W        W51753   3.928  32.113   4.716
83281W        W51754  37.412   5.778   0.944
83282W        W51755  30.535  23.706  12.074
83283W        W51756  21.570   4.249   3.174
83284W        W51757  26.145  22.667   4.816
83285W        W51758  21.682  11.826   0.258
83286W        W51759  17.801  39.507   3.327
83287W        W51760  44.777  17.582   1.406
83288W        W51761  40.369  10.827   0.802
83289W        W51762  11.693   3.905  13.478
83290W        W51763   1.325   3.835   1.911
83291W        W51764   9.212  39.994  10.944
83292W        W51765  40.941  11.259   0.483
83293W        W51766  38.918   7.282   9.983
83294W        W51767  11.159  27.100  14.926
83295W        W51768  34.895  21.726   2.734
83296W        W51769   1.747  40.961  10.894
83297W        W51770  32.991   2.767   1.891
83298W        W51771  31.071   1.888   1.899
83299W        W51772  31.916   0.888   0.888
83300W        W51773  36.950  36.518   0.814
83301W        W51774  17.689  36.016  11.915
83302W        W51775  11.750  38.827   0.957
83303W        W51776  33.053  15.084  11.062
83304W        W51777   2.877  27.558   3.230
83305W        W51778  15.590  39.833  14.795
83306W        W51779  40.511  18.788   2.407
83307W        W51780  11.187  31.551   2.384
83308W        W51781  28.112  22.653   1.888
83309W        W51782  34.932  36.942  11.505
83310W        W51783  16.614  10.835   1.300
83311W        W51784   9.757   4.385  11.038
83312W        W51785  25.681  30.655   4.204
83313W        W51786  26.481  42.526   1.868
83314W        W51787  19.647   1.298   0.312
83315W        W51788   4.406  11.852   3.827
83316W        W51789   2.308  38.915   9.973
83317W        W51790   5.833  22.747   4.159
83318W        W51791  21.072   0.437   2.291
83319W        W51792  28.523   0.290   4.234
83320W        W51793  13.238  23.016  13.877
83321W        W51794  38.841  40.971   0.856
83322W        W51795  10.695  20.058  14.763
83323W        W51796  39.950   3.820  10.482
83324W        W51797   8.873  39.378   1.734
83325W        W51798  26.121  14.277  11.975
83326W        W51799   4.837  37.994  13.411
83327W        W51800  20.199  24.575   1.705
83328W        W51801  28.543  25.546   2.282
83329W        W51802  38.429  12.309   3.843
83330W        W51803  17.587  15.705   2.825
83331W        W51804  29.663   6.370   4.138
83332W        W51805  23.514  18.245   1.377
83333W        W51806  12.334   3.225   2.191
83334W        W51807   2.322   8.864   3.744
83335W        W51808  10.643  37.457  13.459
83336W        W51809  12.223   8.818   0.783
83337W        W51810  41.375  30.020  14.450
83338W        W51811   2.394  37.353   2.702
83339W        W51812  19.270  42.369  11.052
83340W        W51813  43.771  38.541  10.556
83341W        W51814  10.661   4.812   0.858
83342W        W51815  32.481  40.417  12.562
83343W        W51816  38.868  41.983  10.616
83344W        W51817  14.828   4.756  11.522
83345W        W51818   1.412  13.293   0.929
83346W        W51819  10.772  31.084   4.798
83347W        W51820   2.750   9.300  12.374
83348W        W51821   2.436  12.664  13.996
83349W        W51822  42.335   3.300   1.815
83350W        W51823  36.479  26.551   4.726
83351W        W51824  38.432  27.023   1.337
83352W        W51825  13.186   5.788   4.274
83353W        W51826   8.348  23.630  12.432
83354W        W51827  40.899  29.001  11.903
83355W        W51828  15.157  28.461  14.379
83356W        W51829  44.452  44.311  11.556
83357W        W51830  42.802  15.328  10.467
83358W        W51831  24.605  13.111   0.874
83359W        W51832  13.204  39.430  12.906
83360W        W51833  34.552  39.037  11.403
83361W        W51834   2.295  17.096   1.345
83362W        W51835  19.191  27.006  11.409
83363W        W51836   8.336  25.196   4.338
83364W        W51837  24.103  26.646  11.986
83365W        W51838  10.878  30.081  13.974
83366W        W51839  42.899  22.634  10.999
83367W        W51840  40.462  20.260   2.701
83368W        W51841   7.210   5.414   3.847
83369W        W51842  41.847  17.289  13.046
83370W        W51843  41.868  37.379   0.935
83371W        W51844   6.823  14.774  12.078
83372W        W51845  35.909   2.233  14.373
83373W        W51846  44.957  14.273  10.430
83374W        W51847   0.290  28.011  11.598
83375W        W51848  34.517  29.037   0.833
83376W        W51849  28.987  21.165   0.432
83377W        W51850   0.344   7.182   2.723
83378W        W51851  35.881  38.850   3.636
83379W        W51852  10.810   7.286   0.339
83380W        W51853   6.887   7.737   3.353
83381W        W51854  36.856  14.232  14.959
83382W        W51855   0.791  29.966  14.346
83383W        W51856  23.188  33.902  13.825
83384W        W51857  34.416  36.921  11.520
83385W        W51858  33.009  14.619  10.431
83386W        W51859  33.422   5.691  11.577
83387W        W51860  15.127  31.924   1.870
83388W        W51861  20.549   6.804  10.569
83389W        W51862  44.424  41.821   3.649
83390W        W51863  15.225  36.457  14.280
83391W        W51864  29.523  15.147  14.368
83392W        W51865  39.429  23.098  14.907
83393W        W51866   1.264   7.317   3.818
83394W        W51867  28.533  29.160   1.285
83395W        W51868  44.420  28.604  13.507
83396W        W51869  28.942   9.769  14.339
83397W        W51870  21.086  12.785   2.374
83398W        W51871  23.146  25.114  13.383
83399W        W51872  21.185   6.219  14.801
83400W        W51873  31.103  15.239  10.899
83401W        W51874  25.219  16.308   1.223
83402W        W51875  21.260  29.539   0.795
83403W        W51876  13.168  27.184  14.963
83404W        W51877  39.463  18.561  13.491
83405W        W51878  38.979  11.746   3.805
83406W        W51879  21.181   1.753   2.888
83407W        W51880   5.236  21.131   2.835
83408W        W51881  26.187  20.588  14.966
83409W        W51882  31.615  10.647   4.306
83410W        W51883   6.795  25.972   4.806
83411W        W51884  43.361  38.991  14.839
83412W        W51885  30.042  37.499   1.412
83413W        W51886  37.954  18.151  13.953
83414W        W51887  41.449   8.306   3.766
83415W        W51888   8.270  44.477   1.353
83416W        W51889  15.782  43.320   5.119
83417W        W51890  33.973  13.278   3.871
83418W        W51891  43.813  25.623   4.799
83419W        W51892  10.162   6.845  13.532
83420W        W51893   0.879  18.221  11.101
83421W        W51894  26.548   0.945   1.245
83422W        W51895   7.362  24.074   1.283
83423W        W51896   4.881  43.860   3.355
83424W        W51897  43.409   9.260  13.969
83425W        W51898  19.174  17.706  10.633
83426W        W51899  25.593  40.415  14.449
83427W        W51900  44.905   4.253   4.654
83428W        W51901  23.122  26.667   3.820
83429W        W51902  27.149  38.991  14.948
83430W        W51903  34.971  27.525   2.199
83431W        W51904  19.648   4.775   3.812
83432W        W51905  24.704  26.079  14.758
83433W        W51906  24.606  31.039   0.420
83434W        W51907  35.502  20.048   1.288
83435W        W51908  17.276  35.972  14.930
83436W        W51909  10.829  44.397   3.221
83437W        W51910  25.689  30.424  14.774
83438W        W51911  32.400  43.351  11.583
83439W        W51912   5.339  44.757   3.713
83440W        W51913  27.970  25.695  13.974
83441W        W51914  10.233  32.023  10.604
83442W        W51915  33.440  22.746  14.422
83443W        W51916  24.014  43.340   0.362
83444W        W51917  29.058   9.189   2.274
83445W        W51918  27.023   5.904  13.425
83446W        W51919  13.695  18.258  10.419
83447W        W51920  14.664  16.616   4.313
83448W        W51921  34.415  37.049   4.350
83449W        W51922  43.273  26.029  13.464
83450W        W51923  43.370   9.240   1.412
83451W        W51924  22.017  34.103  13.992
83452W        W51925  10.205  38.929   2.278
83453W        W51926  14.648  33.892  11.913
83454W        W51927  22.134  12.691  14.470
83455W        W51928  40.826  34.538   3.815
83456W        W51929   3.841  28.041   3.250
83457W        W51930  33.558  17.114   0.834
83458W        W51931  35.413  35.935   0.843
83459W        W51932   3.447  26.585   5.145
83460W        W51933  39.420   0.295  13.015
83461W        W51934  21.094  41.927   1.213
83462W        W51935  44.890  19.101   3.645
83463W        W51936  41.988  29.142   9.991
83464W        W51937  32.629  44.464  13.434
83465W        W51938   9.739  21.122  12.018
83466W        W51939  10.849  32.047   0.870
83467W        W51940  12.778  41.008   2.740
83468W        W51941  22.710  40.388   3.770
83469W        W51942  32.453  12.748  14.283
83470W        W51943  14.789   8.732   2.233
83471W        W51944  18.680   9.238  12.067
83472W        W51945  43.819  37.965  11.998
83473W        W51946  23.543  36.405  14.461
83474W        W51947   3.757  19.276   2.869
83475W        W51948  31.103   6.828  14.456
83476W        W51949  19.570  33.533   4.223
83477W        W51950  14.162  15.752   1.341
83478W        W51951  36.924  14.765  14.411
83479W        W51952  37.375   1.808  11.495
83480W        W51953  36.432   7.775  11.108
83481W        W51954  32.558  13.777  13.546
83482W        W51955   4.312  22.667  10.497
83483W        W51956  33.507  34.564  14.283
83484W        W51957   9.693   4.358   2.275
83485W        W51958   0.978  19.606  10.423
83486W        W51959   3.807  44.895   0.747
83487W        W51960  39.490  20.751  13.328
83488W        W51961  33.477   9.771   2.389
83489W        W51962   3.224  21.249   0.947
83490W        W51963  38.946  29.971   0.856
83491W        W51964  19.234   8.355   4.201
83492W        W51965   1.326  17.660  11.547
83493W        W51966   3.840  20.199  10.639
83494W        W51967  35.517  34.071   0.272
83495W        W51968  39.409  23.674   4.810
83496W        W51969  33.454  43.496   4.282
83497W        W51970  18.692   3.756  13.512
83498W        W51971  41.389  20.560  11.574
83499W        W51972   1.858   5.209   1.352
83500W        W51973  37.851  17.585   3.204
83501W        W51974  29.544  18.755  11.372
83502W        W51975  34.975  36.565  10.473
83503W        W51976  43.800  10.318   0.797
83504W        W51977  29.036  41.019   3.211
83505W        W51978  17.785   9.683  11.558
83506W        W51979  29.582   5.291   2.203
83507W        W51980   0.334  12.194  13.928
83508W        W51981  11.184  35.971   1.217
83509W        W51982   5.880   6.725   0.743
83510W        W51983  25.598  17.276   0.336
83511W        W51984  13.727  18.751  10.560
83512W        W51985  11.143  40.934  11.576
83513W        W51986   1.828  36.967  11.567
83514W        W51987   9.695  26.127   4.745
83515W        W51988  10.141  33.042  10.534
83516W        W51989  32.630  16.652  10.927
83517W        W51990  28.095  24.642  10.995
83518W        W51991  29.060  10.781   2.246
83519W        W51992  15.666  40.476   2.212
83520W        W51993  39.809  16.581  14.280
83521W        W51994   3.287  31.914   2.769
83522W        W51995  38.851  13.317   0.791
83523W        W51996  30.580  40.967   2.837
83524W        W51997  17.690   5.924   2.789
83525W        W51998  24.498  26.002   3.832
83526W        W51999  15.158  28.653  13.485
83527W        W52000   4.354  20.652  12.941
83528W        W52001  38.826  22.176  13.886
83529W        W52002  20.523  17.062  12.553
83530W        W52003  32.455  23.220  13.791
83531W        W52004  44.418   7.249  13.921
83532W        W52005  17.108  21.620   1.917
83533W        W52006  17.251  44.806  12.968
83534W        W52007  13.749  42.874  11.044
83535W        W52008  25.590  21.695   3.301
83536W        W52009   1.246  15.147  12.010
83537W        W52010  44.920  43.764  12.907
83538W        W52011   3.850  42.398   4.640
83539W        W52012  32.958  42.392   0.847
83540W        W52013   1.299  11.792  10.645
83541W        W52014  13.155  38.516  13.908
83542W        W52015  18.187  34.477   2.828
83543W        W52016  15.750  21.053  10.923
83544W        W52017  30.026   7.706   3.204
83545W        W52018  44.431   7.860   2.773
83546W        W52019  27.961  19.605  11.932
83547W        W52020   9.279  41.410   3.317
83548W        W52021  39.535  29.016  12.867
83549W        W52022   2.750  12.215   2.755
83550W        W52023  28.096  20.070  14.489
83551W        W52024  30.429  21.710   2.226
83552W        W52025   8.210  32.553  12.037
83553W        W52026  32.937  30.607   0.459
83554W        W52027  27.146  15.187   1.319
83555W        W52028  42.464   2.779   0.824
83556W        W52029  16.116   1.465   1.426
83557W        W52030  43.974  25.537  13.953
83558W        W52031  24.037  12.643   4.187
83559W        W52032  31.140  27.502  11.429
83560W        W52033  43.319  11.303  11.949
83561W        W52034  25.104  18.241  14.943
83562W        W52035  40.910  13.783   1.726
83563W        W52036   7.751  44.884   3.358
83564W        W52037  27.506  15.756  13.454
83565W        W52038  42.864  41.424  14.358
83566W        W52039  33.472  42.775   0.909
83567W        W52040  31.899   6.219  12.467
83568W        W52041  16.789   4.770   1.921
83569W        W52042  17.217  41.969  11.026
83570W        W52043  15.671  13.342  14.849
83571W        W52044   9.703  27.641   4.808
83572W        W52045  21.115  36.967  11.120
83573W        W52046  39.395   4.361   3.298
83574W        W52047  41.017  25.982   1.268
83575W        W52048   8.780   1.767  14.870
83576W        W52049  31.447   1.344   1.703
83577W        W52050  27.059  28.947  12.418
83578W        W52051   6.260  36.402  11.508
83579W        W52052  16.165  26.642   0.760
83580W        W52053  42.377  34.593  14.838
83581W        W52054   6.677  39.045  12.951
83582W        W52055  24.061  19.573   3.183
83583W        W52056   8.833  26.594   1.753
83584W        W52057  31.580  22.609  13.499
83585W        W52058  14.203  32.980  14.947
83586W        W52059   9.759   9.856   1.876
83587W        W52060  18.721  33.618  12.422
83588W        W52061  19.638  29.066  14.290
83589W        W52062  32.931  17.164   2.270
83590W        W52063  43.918  24.211  10.492
83591W        W52064  39.861   3.765   1.806
83592W        W52065  37.066  16.807  12.947
83593W        W52066  28.595   1.368   3.292
83594W        W52067  28.640  19.063   1.272
83595W        W52068  44.342  30.127  14.899
83596W        W52069  37.450  33.562  10.450
83597W        W52070  18.662  23.165  12.933
83598W        W52071  29.425   4.732   2.396
83599W        W52072  20.584   5.858   3.193
83600W        W52073   7.815  11.162  13.390
83601W        W52074  12.330   0.273   1.757
83602W        W52075  17.280  30.031   2.253
83603W        W52076  20.618   7.841  12.548
83604W        W52077  16.142  44.889   3.673
83605W        W52078   8.305  24.660  13.021
83606W        W52079  28.101  15.322   9.999
83607W        W52080  40.370  33.007   3.668
83608W        W52081  40.358   8.834  10.488
83609W        W52082  28.956  37.374   1.706
83610W        W52083  21.725  17.703  13.042
83611W        W52084  15.650  11.159   0.308
83612W        W52085  28.969  35.564  12.004
83613W        W52086  34.923  44.484  13.844
83614W        W52087  25.048  25.162   4.804
83615W        W52088  16.108  24.123   1.837
83616W        W52089   9.172  40.874  14.312
83617W        W52090  16.705  12.247  13.537
83618W        W52091  11.373  41.464   4.132
83619W        W52092   5.232  11.366   2.786
83620W        W52093  37.397  15.290  14.469
83621W        W52094   3.831  30.460  11.417
83622W        W52095  26.532  28.963   4.819
83623W        W52096  31.509  31.493  13.914
83624W        W52097  42.017  10.151   4.263
83625W        W52098  15.139   6.186   2.233
83626W        W52099  21.654  26.513  11.090
83627W        W52100  28.557   5.419   0.342
83628W        W52101  32.537  43.331   3.740
83629W        W52102  44.341  37.076  14.942
83630W        W52103  12.229  43.820   3.711
83631W        W52104  28.942  29.979   3.321
83632W        W52105  37.985  17.215   0.261
83633W        W52106  13.268  34.966   2.253
83634W        W52107   1.863  38.507  14.760
83635W        W52108   7.303  17.664   3.357
83636W        W52109  35.978  41.948  12.086
83637W        W52110  29.075   3.300   4.675
83638W        W52111  14.268   1.307   4.731
83639W        W52112  29.552  24.679   9.662
83640W        W52113  41.983  26.492   3.765
83641W        W52114  37.856  20.703  11.610
83642W        W52115  44.923  31.149   0.870
83643W        W52116   1.267  32.424   4.836
83644W        W52117   5.863   1.789   2.764
83645W        W52118   7.288   0.387  10.963
83646W        W52119  15.623  15.715  13.852
83647W        W52120  33.437   3.947  11.970
83648W        W52121  18.286  30.599  12.834
83649W        W52122   7.853  44.458  11.519
83650W        W52123  31.403   2.949   4.354
83651W        W52124  14.603  44.299  12.958
83652W        W52125   2.945  23.147   0.907
83653W        W52126  42.848  28.524   1.444
83654W        W52127  11.785  14.270   3.695
83655W        W52128   3.812  25.972  14.418
83656W        W52129  13.623  42.436  10.926
83657W        W52130  41.501  22.043   2.382
83658W        W52131  36.903  33.060  14.299
83659W        W52132  20.600  12.716  14.512
83660W        W52133  38.845  18.564   9.940
83661W        W52134   0.975   4.941  14.497
83662W        W52135  26.593   2.731   0.800
83663W        W52136   4.448  29.105  13.889
83664W        W52137  19.770  22.730  12.848
83665W        W52138   6.882  16.236   3.150
83666W        W52139  23.565  19.168  13.794
83667W        W52140  34.445  43.507   2.761
83668W        W52141   9.828  33.938   4.712
83669W        W52142   0.984  39.506  14.421
83670W        W52143  16.220   0.410   1.801
83671W        W52144   6.764   5.410  14.920
83672W        W52145  32.478  24.209   9.471
83673W        W52146   5.279  26.543  10.405
83674W        W52147   2.377  19.209   4.728
83675W        W52148   6.311  33.916  13.987
83676W        W52149   9.722  15.301  10.999
83677W        W52150  28.149  19.701  13.546
83678W        W52151  34.531   4.700   3.179
83679W        W52152  13.293  39.900  11.987
83680W        W52153  26.522   8.728  13.361
83681W        W52154  13.132  11.199  13.911
83682W        W52155  28.477  12.790  13.847
83683W        W52156   6.253   3.782  14.455
83684W        W52157  37.520  18.707   1.895
83685W        W52158  24.083  26.171   2.268
83686W        W52159  19.758  28.002  12.972
83687W        W52160  19.633  40.353   2.676
83688W        W52161   6.676  27.687   2.853
83689W        W52162   1.796  27.679   4.651
83690W        W52163  38.054  14.308  11.046
83691W        W52164  13.293  13.787   0.357
83692W        W52165  16.094  31.021  11.013
83693W        W52166  32.629  26.160  14.766
83694W        W52167   4.409  31.617  14.284
83695W        W52168  15.214  20.761   4.801
83696W        W52169  21.137   9.306   2.750
83697W        W52170   1.971  44.402  12.085
83698W        W52171  34.076  12.323   4.743
83699W        W52172  12.831  19.642  12.539
83700W        W52173  37.437   5.692   3.307
83701W        W52174  28.971   6.730   1.259
83702W        W52175  27.683   4.833   9.947
83703W        W52176   7.787   6.271  10.069
83704W        W52177  38.505  19.605  10.504
83705W        W52178  42.471  22.629  14.913
83706W        W52179  30.006  14.137   2.833
83707W        W52180  27.577   2.805   0.780
83708W        W52181  40.353  25.165   2.333
83709W        W52182  10.310  18.731   3.191
83710W        W52183  15.133  30.658   0.432
83711W        W52184  15.705   5.835   1.785
83712W        W52185  11.860  24.617  13.809
83713W        W52186  34.398  29.072   2.333
83714W        W52187  19.114  36.060  13.809
83715W        W52188  36.897  36.015  10.968
83716W        W52189   0.803  31.576   0.745
83717W        W52190  43.486  14.145  11.612
83718W        W52191  26.618  13.324   3.332
83719W        W52192  34.864  44.762  12.897
83720W        W52193   7.881   3.804   4.188
83721W        W52194  28.491  38.407   2.841
83722W        W52195   1.896  35.931   1.914
83723W        W52196  42.456  25.124  11.377
83724W        W52197  17.619  23.227   2.362
83725W        W52198  15.085  25.972   1.245
83726W        W52199  17.157   8.395   1.326
83727W        W52200  19.760  26.635   1.741
83728W        W52201  43.875   0.879   3.650
83729W        W52202  22.677   7.856  12.572
83730W        W52203  28.179   7.260   0.248
83731W        W52204  12.704   1.390  11.891
83732W        W52205  17.590   3.368   0.890
83733W        W52206  42.976  14.129   0.864
83734W        W52207  18.587  13.765  14.342
83735W        W52208  11.279   1.926   4.250
83736W        W52209  38.458   5.828  13.968
83737W        W52210  22.519   9.649  12.889
83738W        W52211  14.653  13.237  11.376
83739W        W52212  34.389  24.654  14.902
83740W        W52213  33.405  42.356   3.206
83741W        W52214  10.664  15.270  13.361
83742W        W52215  27.008  15.617  13.796
83743W        W52216  43.385   8.286   1.807
83744W        W52217   6.732  44.427   2.409
83745W        W52218   5.312  35.444  14.803
83746W        W52219   9.666  43.948  11.564
83747W        W52220  15.235   7.355  10.506
83748W        W52221   0.771  31.459   3.725
83749W        W52222  27.006   8.703  10.907
83750W        W52223  21.228   9.389  11.466
83751W        W52224  37.872  39.026  11.391
83752W        W52225   4.323  33.917   3.854
83753W        W52226  44.294  41.373   0.756
83754W        W52227  27.518  40.373   0.326
83755W        W52228   1.279   2.392  12.557
83756W        W52229  21.018  21.555  13.893
83757W        W52230  40.376  22.553   4.209
83758W        W52231  41.824   4.319   3.848
83759W        W52232  11.731   4.713   2.281
83760W        W52233  14.635  17.701  10.944
83761W        W52234  21.563  20.206  13.024
83762W        W52235   9.644  18.560   2.841
83763W        W52236   2.388  20.722   3.819
83764W        W52237  44.869  44.005  11.394
83765W        W52238  36.007  11.741   0.299
83766W        W52239  35.456  12.636  13.978
83767W        W52240  43.432  11.692  14.013
83768W        W52241  24.050  27.533   3.187
83769W        W52242  40.484  10.295  10.160
83770W        W52243  31.424  15.125  12.521
83771W        W52244   9.310  17.587   1.218
83772W        W52245  24.658  21.557  12.542
83773W        W52246  18.601  27.981   2.294
83774W        W52247  36.487   1.829  10.555
83775W        W52248   8.841  25.047  11.114
83776W        W52249  44.501  26.506  12.453
83777W        W52250   8.683  41.970   0.335
83778W        W52251  24.116  11.670   1.733
83779W        W52252  36.393  14.670  13.867
83780W        W52253   3.756   8.678  11.862
83781W        W52254  21.731  33.470   2.200
83782W        W52255  13.776   2.832   1.830
83783W        W52256  13.226   1.407  13.058
83784W        W52257   2.742  28.671  13.977
83785W        W52258   7.804   4.823  14.282
83786W        W52259  26.181  20.065   1.289
83787W        W52260  16.235  44.486  11.097
83788W        W52261  19.620   9.884   3.750
83789W        W52262   5.345  23.529  12.580
83790W        W52263  37.463  35.011   1.825
83791W        W52264  27.539  28.649  13.020
83792W        W52265  25.017  36.441  11.943
83793W        W52266  11.239   8.889  10.490
83794W        W52267  10.175  35.480   4.655
83795W        W52268   7.257  39.947   3.381
83796W        W52269  28.142   6.884   3.698
83797W        W52270  22.154  37.030   4.300
83798W        W52271   8.374  15.703  10.941
83799W        W52272  35.432  22.637  12.893
83800W        W52273  41.970  42.842   4.715
83801W        W52274   1.387  44.952  11.122
83802W        W52275  30.647  37.573   4.613
83803W        W52276  20.568  31.938   1.791
83804W        W52277   7.702  12.180  12.440
83805W        W52278   9.156  41.856   2.212
83806W        W52279  35.533   3.865   1.709
83807W        W52280  42.334   7.237   3.632
83808W        W52281   7.823   2.469   3.320
83809W        W52282  31.947  18.078  12.550
83810W        W52283  10.316  37.952  14.295
83811W        W52284  13.677  38.937   1.307
83812W        W52285  12.779  21.705  13.949
83813W        W52286  31.608  34.979  13.437
83814W        W52287   8.366  15.215   0.936
83815W        W52288  32.479  17.680  12.521
83816W        W52289  37.381  25.183   4.328
83817W        W52290   9.759   5.709  14.004
83818W        W52291  10.159  44.844  10.636
83819W        W52292   4.400  11.239  13.026
83820W        W52293  37.382   0.842   2.319
83821W        W52294   9.831   3.437  10.960
83822W        W52295  32.432  26.581   2.418
83823W        W52296   6.219  44.794  12.507
83824W        W52297  26.563  16.741  11.567
83825W        W52298  12.800  32.006   1.695
83826W        W52299  14.211   3.767  13.851
83827W        W52300  25.188  11.369   0.268
83828W        W52301   6.271   4.404  14.907
83829W        W52302   4.374  28.666  11.389
83830W        W52303  22.562  36.916   2.255
83831W        W52304  37.470  41.394   0.302
83832W        W52305  37.530  14.639  11.052
83833W        W52306   4.860  27.605  14.401
83834W        W52307  34.614   7.817  14.995
83835W        W52308  37.417  36.915   3.159
83836W        W52309  20.700  37.428   2.316
83837W        W52310  40.541  43.464  13.794
83838W        W52311  14.216  28.677  13.869
83839W        W52312  36.936  11.708  10.417
83840W        W52313  43.999   8.279   3.277
83841W        W52314  13.736   5.912   1.440
83842W        W52315  12.814  17.769   1.445
83843W        W52316   7.329  15.172  10.128
83844W        W52317  24.177  31.991   3.316
83845W        W52318   3.384  24.055   3.793
83846W        W52319  23.048  38.851   0.344
83847W        W52320   4.787  42.876   1.447
83848W        W52321  19.662  24.180  10.988
83849W        W52322  36.445   5.408   4.744
83850W        W52323  23.723  36.983   1.380
83851W        W52324  43.893   4.406   2.343
83852W        W52325  24.116  20.263   3.780
83853W        W52326   6.800   8.744  14.004
83854W        W52327  15.143  20.226   3.674
83855W        W52328  25.985   9.303  11.494
83856W        W52329  12.838  41.466  13.023
83857W        W52330  29.035  32.397   3.709
83858W        W52331  28.127   5.371  12.852
83859W        W52332   1.308   3.756  10.975
83860W        W52333   9.727  26.056   9.964
83861W        W52334  25.009  30.463  11.445
83862W        W52335  34.553  11.187  13.324
83863W        W52336  12.332   8.668  14.344
83864W        W52337  40.832   0.378  13.868
83865W        W52338   7.243  24.723   1.851
83866W        W52339  23.208  25.531  12.475
83867W        W52340  27.968  35.453   2.275
83868W        W52341  28.632  22.514   2.855
83869W        W52342  35.590  21.711  12.864
83870W        W52343   6.426   9.766  12.499
83871W        W52344  13.269  14.760   1.272
83872W        W52345  40.346  19.625   3.635
83873W        W52346  40.524  37.565   1.817
83874W        W52347  44.753  28.542  14.895
83875W        W52348  28.530  11.649   4.621
83876W        W52349  34.600  30.435  12.392
83877W        W52350  30.510  25.546   5.317
83878W        W52351  41.300  31.530  12.969
83879W        W52352   2.324  36.405  10.445
83880W        W52353   5.240  27.089  14.836
83881W        W52354  18.726   2.848   1.250
83882W        W52355  15.696   8.348  11.554
83883W        W52356  15.083   2.351   2.779
83884W        W52357  36.374  27.001   3.835
83885W        W52358   9.699  44.351  11.943
83886W        W52359  33.955   6.700   2.665
83887W        W52360  25.667  39.059  13.540
83888W        W52361  28.663   8.166   4.196
83889W        W52362  26.977  36.377  12.365
83890W        W52363  22.158   1.736  13.020
83891W        W52364  12.723  25.612   2.229
83892W        W52365  18.754  13.152   3.802
83893W        W52366  13.317  32.028  12.450
83894W        W52367  38.875   0.289   4.242
83895W        W52368   6.732  10.724   4.327
83896W        W52369   8.187  33.029  14.866
83897W        W52370  24.080  29.504  10.634
83898W        W52371  42.411  39.024  11.984
83899W        W52372  14.670  30.067   0.312
83900W        W52373  18.720  39.399  12.400
83901W        W52374  24.607  22.573   0.888
83902W        W52375  33.917  34.897  12.085
83903W        W52376  31.987  32.491  13.900
83904W        W52377  27.631  18.064  11.925
83905W        W52378  30.478  34.049   4.803
83906W        W52379  17.254  19.740  13.849
83907W        W52380  10.223  26.124  13.842
83908W        W52381  21.625  18.549  14.351
83909W        W52382  14.644  35.370   4.215
83910W        W52383  35.899   4.408  11.980
83911W        W52384  10.751  23.117  10.525
83912W        W52385   2.880  32.628  13.945
83913W        W52386  18.689  27.486   0.405
83914W        W52387   2.323  30.017  13.316
83915W        W52388  40.003   2.830  12.508
83916W        W52389  44.286  15.106   0.960
83917W        W52390   3.709  32.633   0.356
83918W        W52391  44.856  29.036   0.840
83919W        W52392  31.140  10.362  10.120
83920W        W52393  30.537   9.314   3.203
83921W        W52394  23.187  32.014   1.386
83922W        W52395   8.655  20.096   3.210
83923W        W52396  33.907  39.024  10.052
83924W        W52397  35.497  40.879   2.230
83925W        W52398  44.893  16.169   4.822
83926W        W52399  10.656  19.143  13.809
83927W        W52400  31.581  42.911  12.898
83928W        W52401   1.761   6.217  11.989
83929W        W52402  10.828   2.777  11.407
83930W        W52403  10.876   8.387   0.468
83931W        W52404  13.817  43.784   1.279
83932W        W52405   7.884  23.659   5.775
83933W        W52406  18.219  30.040  12.540
83934W        W52407  10.382  33.426   4.213
83935W        W52408  13.825  27.623  12.518
83936W        W52409  26.080   5.362  14.982
83937W        W52410  12.767  35.473  14.014
83938W        W52411   2.322  35.471  12.883
83939W        W52412  18.066  25.575  11.424
83940W        W52413   7.244   7.260  13.873
83941W        W52414  40.547   2.247   1.449
83942W        W52415  30.575  29.639   3.331
83943W        W52416   9.673   1.917  13.957
83944W        W52417  21.118  12.700   4.812
83945W        W52418  32.410   4.741   3.698
83946W        W52419   2.266  13.161   1.897
83947W        W52420  28.074   6.368  13.363
83948W        W52421  21.069  21.020   5.136
83949W        W52422  16.122  15.728  14.987
83950W        W52423  24.614  36.407  14.843
83951W        W52424  44.331  18.567  12.856
83952W        W52425  36.056  15.673   3.724
83953W        W52426  42.986  30.537  13.800
83954W        W52427   5.909  28.116  11.991
83955W        W52428  42.438  28.562  13.886
83956W        W52429  11.161  25.624  11.916
83957W        W52430  33.977  38.416   1.428
83958W        W52431   4.816  39.494  14.834
83959W        W52432  32.001  28.609   3.240
83960W        W52433  19.574  26.643  10.520
83961W        W52434  30.417   0.398   0.265
83962W        W52435  24.084  25.564  13.904
83963W        W52436  33.888  22.195   4.608
83964W        W52437  18.629  26.117  10.562
83965W        W52438  33.575   7.788  10.047
83966W        W52439   1.367  12.201  12.075
83967W        W52440  36.947  32.466  12.839
83968W        W52441  40.549  27.176   3.862
83969W        W52442  31.601   4.718  14.389
83970W        W52443  42.495   5.775   2.672
83971W        W52444  24.544  13.198   1.759
83972W        W52445  41.044  18.069   4.697
83973W        W52446   7.224   6.731   1.932
83974W        W52447   0.375  20.247  12.410
83975W        W52448  13.705  31.950   2.240
83976W        W52449  22.126  17.573  12.879
83977W        W52450  17.616   4.723  13.061
83978W        W52451   9.866  31.571   4.199
83979W        W52452  17.271  24.695   3.696
83980W        W52453  32.405  42.844  13.982
83981W        W52454  10.664  11.720  12.354
83982W        W52455   2.357   1.737   1.784
83983W        W52456  42.921  21.562  12.978
83984W        W52457   3.810  23.502  14.513
83985W        W52458  39.418   9.300  10.551
83986W        W52459  40.543  39.984  10.613
83987W        W52460  31.964   8.656  13.995
83988W        W52461   3.840   5.717  14.983
83989W        W52462  44.268  22.746   3.763
83990W        W52463   6.699  13.624   5.749
83991W        W52464   0.982   7.861   1.861
83992W        W52465  22.208  18.252  14.385
83993W        W52466   7.847  12.276  10.956
83994W        W52467  20.182  40.020  13.008
83995W        W52468  16.283  38.886  11.403
83996W        W52469  32.033  33.406   5.200
83997W        W52470  38.560   3.328  11.499
83998W        W52471  24.692  28.015   2.814
83999W        W52472  36.409   1.321   4.721
84000W        W52473  22.505   9.768   4.697
84001W        W52474  32.589  44.764   0.871
84002W        W52475  13.334  18.207  12.049
84003W        W52476  40.926  29.941  12.838
84004W        W52477   4.787   4.881  13.863
84005W        W52478  16.751  27.620  12.017
84006W        W52479  33.979   9.187  11.024
84007W        W52480  34.587  22.037  12.080
84008W        W52481  20.089   2.352   2.332
84009W        W52482  29.567   9.341   1.375
84010W        W52483  28.571  40.043  10.613
84011W        W52484  35.077  36.559   4.818
84012W        W52485  29.477  32.049   1.842
84013W        W52486   7.191  36.588   0.302
84014W        W52487  32.087   7.690  12.859
84015W        W52488  28.510  27.194  12.890
84016W        W52489   4.778  26.015   2.698
84017W        W52490  19.650  32.435  12.471
84018W        W52491  27.684  36.024   1.822
84019W        W52492  16.239  32.428  13.914
84020W        W52493  23.998  14.736   1.720
84021W        W52494  36.099  40.852   2.856
84022W        W52495  33.512  39.910   4.611
84023W        W52496  10.823  21.205   1.694
84024W        W52497   3.728  36.509  14.344
84025W        W52498  16.717  17.668   3.660
84026W        W52499   6.226  17.641   0.262
84027W        W52500  16.271  19.712  13.528
84028W        W52501   7.417   3.388   2.296
84029W        W52502  25.583   0.933   1.374
84030W        W52503  15.313  37.512   2.397
84031W        W52504  16.811  41.975   3.795
84032W        W52505   7.675  35.100  10.053
84033W        W52506   7.293  38.909   2.402
84034W        W52507  36.994  29.921   4.661
84035W        W52508  17.187   7.206  11.572
84036W        W52509  17.097  32.419   4.804
84037W        W52510   9.667  42.311   4.343
84038W        W52511   0.917  16.614  10.915
84039W        W52512  29.460  22.618  13.514
84040W        W52513   7.799  32.605  14.009
84041W        W52514  16.800  40.515   1.293
84042W        W52515  16.579  43.299   1.278
84043W        W52516   6.852  42.393  11.512
84044W        W52517  17.571  41.416  10.523
84045W        W52518  26.560  39.503  10.907
84046W        W52519  37.088  10.739   4.734
84047W        W52520   9.229   2.961   0.874
84048W        W52521  23.158  33.018  12.496
84049W        W52522  37.928  34.452   3.297
84050W        W52523  43.893  37.372   0.793
84051W        W52524  34.586   2.313  10.417
84052W        W52525  13.320  42.491   3.662
84053W        W52526  37.405  29.498   2.755
84054W        W52527  44.008  11.312   3.380
84055W        W52528   0.421  13.659  12.069
84056W        W52529   3.321   6.702   2.859
84057W        W52530  19.751  43.461  12.563
84058W        W52531  28.105   8.705  13.460
84059W        W52532  32.973  10.291  13.845
84060W        W52533  40.882  19.071  10.445
84061W        W52534  34.021  25.127  12.377
84062W        W52535   9.818   4.761  14.915
84063W        W52536  34.964  14.770  13.361
84064W        W52537  27.076   6.239   2.229
84065W        W52538   3.851  37.018  11.449
84066W        W52539   9.660  34.542   0.399
84067W        W52540  36.987  14.275   0.470
84068W        W52541  36.048  37.922   4.818
84069W        W52542  36.954  42.349   2.307
84070W        W52543   9.312  27.135  13.791
84071W        W52544   0.952  36.427  13.326
84072W        W52545  12.691  38.519  14.431
84073W        W52546  27.979   6.356   5.310
84074W        W52547  40.981  35.397   0.762
84075W        W52548  26.171  14.129   1.238
84076W        W52549  33.505  30.003   0.961
84077W        W52550  17.655  30.521   3.152
84078W        W52551  28.658  11.729  12.094
84079W        W52552  19.144  29.084   0.745
84080W        W52553  27.584   1.789  12.397
84081W        W52554  31.087   5.430  13.328
84082W        W52555   7.318  34.538   1.717
84083W        W52556   2.395  41.504   1.704
84084W        W52557  42.469  42.369   1.429
84085W        W52558  25.113  18.074  13.896
84086W        W52559  23.232  18.227  10.484
84087W        W52560  10.719  34.032  12.394
84088W        W52561   5.876  14.808   1.252
84089W        W52562   1.897   1.455   2.885
84090W        W52563  12.637  22.555   2.677
84091W        W52564   0.748  34.023  12.909
84092W        W52565  29.962  20.228  14.793
84093W        W52566  20.565  11.638  12.367
84094W        W52567  22.538   6.379  11.864
84095W        W52568  38.382  33.504   1.240
84096W        W52569   8.704   6.839  13.451
84097W        W52570  23.569  41.928  10.628
84098W        W52571  39.360   2.927   4.242
84099W        W52572  13.178  25.033  11.433
84100W        W52573  15.111  41.509   1.856
84101W        W52574  16.183  24.625   1.836
84102W        W52575   0.451  43.835  11.578
84103W        W52576   7.278  23.132   1.779
84104W        W52577  17.069  34.995  12.566
84105W        W52578  17.800  40.354   4.742
84106W        W52579  25.201  38.364  12.543
84107W        W52580  44.798  38.866   2.856
84108W        W52581  26.575  22.721  14.026
84109W        W52582  35.986   6.706   4.607
84110W        W52583  27.010  14.699  13.355
84111W        W52584  23.516  28.989   2.330
84112W        W52585  20.122  32.027  12.510
84113W        W52586  44.446  41.787   1.366
84114W        W52587  26.128  21.157   2.254
84115W        W52588  20.210  39.013   9.964
84116W        W52589   8.782   2.472   1.784
84117W        W52590   3.844  18.676   3.759
84118W        W52591  36.395   9.654   2.362
84119W        W52592  12.149  16.084   4.203
84120W        W52593   4.795  33.966  12.474
84121W        W52594  26.532  26.108   2.789
84122W        W52595  23.642  41.943   0.968
84123W        W52596  25.219  38.383   0.292
84124W        W52597   5.423   1.944  12.961
84125W        W52598  42.829  14.109  13.387
84126W        W52599  38.877  19.186   4.624
84127W        W52600  14.301   8.265  11.912
84128W        W52601  17.263  21.138   0.470
84129W        W52602  16.649   6.408   2.348
84130W        W52603  43.489  42.980   4.262
84131W        W52604   2.283  12.304  11.962
84132W        W52605  40.836   9.353   0.847
84133W        W52606  26.084   2.957   4.679
84134W        W52607  14.623  17.628   0.289
84135W        W52608  14.828  36.096   4.294
84136W        W52609  14.098  19.753   4.254
84137W        W52610  14.690   3.458  13.533
84138W        W52611  25.577  32.949  11.526
84139W        W52612  38.385  42.957   3.785
84140W        W52613  11.857  35.903   4.328
84141W        W52614  16.254  25.701   4.691
84142W        W52615  30.129  10.320   0.789
84143W        W52616  28.036   7.861  14.950
84144W        W52617  37.974  31.914  10.911
84145W        W52618  28.148  36.932  14.847
84146W        W52619  27.991  34.391   1.451
84147W        W52620  34.388  14.733   2.341
84148W        W52621  44.923   5.197   2.216
84149W        W52622  23.696   0.363  15.000
84150W        W52623  15.264  19.649   0.310
84151W        W52624   8.287  11.129   2.677
84152W        W52625   4.835  31.497  11.554
84153W        W52626  33.932  41.920  14.988
84154W        W52627  19.248  15.263   4.312
84155W        W52628  44.868  19.137   0.309
84156W        W52629  29.038  40.461  10.465
84157W        W52630   1.862  30.448   0.298
84158W        W52631  26.204  14.791  10.471
84159W        W52632   1.289  10.382  11.025
84160W        W52633  27.526  26.167   4.156
84161W        W52634  19.181   0.451   3.266
84162W        W52635   1.475   6.920  13.985
84163W        W52636  34.078  14.700  13.328
84164W        W52637  24.135   0.453   3.147
84165W        W52638   8.278  19.140  13.440
84166W        W52639  27.192   4.437   0.808
84167W        W52640  25.217  31.973   3.240
84168W        W52641  41.973  18.738   2.320
84169W        W52642   4.734  43.338   0.402
84170W        W52643  19.726  37.850  13.448
84171W        W52644   4.825  31.970  12.048
84172W        W52645  34.868  12.121  13.337
84173W        W52646  10.348  16.756  12.538
84174W        W52647  13.843   3.447  11.428
84175W        W52648  11.638   5.894  14.893
84176W        W52649  28.077  16.096   1.925
84177W        W52650   3.335  18.634  12.833
84178W        W52651   3.441  39.813  14.438
84179W        W52652  26.164  30.561  10.474
84180W        W52653  41.838   2.454   0.321
84181W        W52654  40.820  15.698  14.489
84182W        W52655  10.200   2.385   5.096
84183W        W52656   0.436  12.764  12.040
84184W        W52657  26.960  39.446  13.421
84185W        W52658  41.800   5.692  14.804
84186W        W52659   1.463  14.820   3.775
84187W        W52660  26.008  22.661   2.805
84188W        W52661  17.747   0.254  12.522
84189W        W52662  34.428   3.271  12.374
84190W        W52663  26.601  40.354  10.534
84191W        W52664  23.108  28.982   2.196
84192W        W52665  30.146  15.242   0.882
84193W        W52666  21.205   7.270  12.000
84194W        W52667  34.420  42.001  14.489
84195W        W52668  28.958   4.395   0.856
84196W        W52669  29.169   4.737  10.436
84197W        W52670   8.275  31.612  12.536
84198W        W52671   2.364  33.391  12.902
84199W        W52672  37.900  44.328   0.315
84200W        W52673  30.480   9.830   0.729
84201W        W52674  12.751  29.120  11.589
84202W        W52675   0.256  34.574   2.668
84203W        W52676  34.455  34.091  10.940
84204W        W52677  37.054  21.140  11.869
84205W        W52678   0.324  18.146  10.493
84206W        W52679  21.542  10.695   4.598
84207W        W52680   5.433  26.966  13.816
84208W        W52681  19.723  41.881  10.915
84209W        W52682  32.481   3.270   3.754
84210W        W52683  24.046   9.739   3.231
84211W        W52684   7.285  14.238   0.338
84212W        W52685   4.738  28.532   2.397
84213W        W52686   2.764  34.970   4.181
84214W        W52687  21.054  43.964  12.916
84215W        W52688  38.528  20.122  13.909
84216W        W52689  18.783  17.564  13.842
84217W        W52690  20.549  31.904  14.862
84218W        W52691   8.824  44.346  14.986
84219W        W52692   2.842  31.541   1.872
84220W        W52693  32.888  36.883  11.870
84221W        W52694  43.869   4.217   0.792
84222W        W52695  41.862   5.785  10.925
84223W        W52696  12.679   4.217   0.346
84224W        W52697   7.670  27.015   0.950
84225W        W52698   9.256  31.933  13.856
84226W        W52699  41.827  18.109   3.671
84227W        W52700  36.011  26.025  13.506
84228W        W52701  23.704  31.616  13.410
84229W        W52702  35.071  38.517  11.054
84230W        W52703  25.104   8.755   4.805
84231W        W52704  26.592  18.568  12.470
84232W        W52705  17.191   8.226   4.322
84233W        W52706  24.011  44.411  10.058
84234W        W52707  30.103  27.511  14.838
84235W        W52708   9.361  24.113  10.925
84236W        W52709  30.934  21.223   0.965
84237W        W52710  30.642  17.082  12.841
84238W        W52711   9.332  14.153   1.293
84239W        W52712  29.087   0.353  12.086
84240W        W52713  26.651  26.462   1.721
84241W        W52714   7.800   0.750  11.385
84242W        W52715  12.801  43.884  10.897
84243W        W52716  22.700  25.145  13.929
84244W        W52717  31.146  13.618  10.944
84245W        W52718  36.908  34.373   1.713
84246W        W52719  17.742  37.506   0.913
84247W        W52720  34.015  34.881   2.191
84248W        W52721  17.767  33.001   2.246
84249W        W52722  24.194  16.194   2.670
84250W        W52723  40.341  41.034   3.765
84251W        W52724  44.354  10.300  10.590
84252W        W52725   9.274  12.123   2.258
84253W        W52726  35.909   7.910   2.769
84254W        W52727   0.744  28.643  11.460
84255W        W52728  27.951  37.478   3.232
84256W        W52729   5.842  18.567   1.735
84257W        W52730  28.620  39.975  10.889
84258W        W52731  39.375  26.954   0.764
84259W        W52732  21.632  36.589   0.435
84260W        W52733  13.245  19.676  14.295
84261W        W52734   8.853  30.069   1.225
84262W        W52735  43.430  42.460   4.286
84263W        W52736  17.561  39.348   5.216
84264W        W52737  25.079  15.587  13.903
84265W        W52738   8.884  25.613   0.781
84266W        W52739  32.904  21.077  13.064
84267W        W52740  37.921   3.717   4.663
84268W        W52741   8.340  25.580   3.329
84269W        W52742  36.931  43.924   0.857
84270W        W52743  22.571   5.778   2.740
84271W        W52744  15.110  13.741  12.440
84272W        W52745  22.022  30.950  10.451
84273W        W52746  41.332   9.292   1.905
84274W        W52747  17.652  39.032   1.399
84275W        W52748  42.369  31.531  12.057
84276W        W52749   0.355   3.332  12.580
84277W        W52750  44.361  19.637   2.342
84278W        W52751  16.762  10.230   3.695
84279W        W52752  23.683  10.760  12.340
84280W        W52753   5.282  24.646   3.717
84281W        W52754  42.833   9.342  11.541
84282W        W52755  23.641  13.615  14.482
84283W        W52756  30.653  36.920   1.228
84284W        W52757  40.038  40.865   3.366
84285W        W52758  19.697  10.203   3.715
84286W        W52759  35.907  30.607   3.789
84287W        W52760  24.483  29.056  12.956
84288W        W52761   8.881  13.200   0.477
84289W        W52762  10.171  32.047  12.085
84290W        W52763  22.152   8.758  14.977
84291W        W52764   6.811   7.225   0.939
84292W        W52765  23.497   2.310   1.286
84293W        W52766   2.228  10.784   1.771
84294W        W52767   6.783  30.079   4.251
84295W        W52768  27.183  22.605  12.084
84296W        W52769  16.107   3.368  13.406
84297W        W52770  27.072  30.509  14.810
84298W        W52771   3.943  23.499   4.250
84299W        W52772  10.181  29.960  11.041
84300W        W52773   2.317  15.322  12.512
84301W        W52774  31.475   7.356   0.931
84302W        W52775  40.487  13.212  11.538
84303W        W52776  35.100  25.566  12.959
84304W        W52777  36.584  11.300  14.799
84305W        W52778  21.233  16.074   3.207
84306W        W52779   8.263  36.481   5.720
84307W        W52780  31.079  19.102   4.817
84308W        W52781  38.324  10.280  10.456
84309W        W52782  36.968  24.510   3.824
84310W        W52783  28.562  36.532   1.265
84311W        W52784  29.479  29.116   3.332
84312W        W52785  20.525   7.371   1.449
84313W        W52786   4.365  13.685   4.786
84314W        W52787  17.120  40.490  13.026
84315W        W52788   1.386   5.906  10.963
84316W        W52789   3.324   4.405   4.818
84317W        W52790  15.088  42.435   0.296
84318W        W52791  42.298   9.211  11.912
84319W        W52792  36.458  13.708  11.986
84320W        W52793  32.469  11.825   2.400
84321W        W52794   8.893  13.618  11.518
84322W        W52795   1.915  38.508  10.957
84323W        W52796  38.843  38.951  13.379
84324W        W52797  38.076  20.601   1.427
84325W        W52798  10.309  28.461   1.220
84326W        W52799  19.053  16.701  11.494
84327W        W52800  35.953  16.746  12.950
84328W        W52801   7.911  27.071  11.440
84329W        W52802  17.558  20.727  12.540
84330W        W52803  24.504  31.416  13.447
84331W        W52804   6.352  37.006   4.734
84332W        W52805  15.095  21.652   1.733
84333W        W52806  15.201  10.737   4.168
84334W        W52807   8.340  15.696  10.096
84335W        W52808  13.217  18.787  12.993
84336W        W52809  23.511   1.758   2.208
84337W        W52810  12.777  28.584  12.533
84338W        W52811  40.458   2.927   0.919
84339W        W52812  35.014  14.251   4.351
84340W        W52813  22.046  20.766   1.912
84341W        W52814  31.631  32.959   1.796
84342W        W52815  16.197  10.704  14.872
84343W        W52816  17.575   8.330  11.978
84344W        W52817  28.991  18.768   0.940
84345W        W52818  10.785  13.632   1.292
84346W        W52819  41.871  36.865  11.520
84347W        W52820  12.690  34.429  11.858
84348W        W52821  38.999  31.012  14.452
84349W        W52822  41.468   8.385  13.507
84350W        W52823  20.763  21.747   1.437
84351W        W52824  14.225  39.437   1.329
84352W        W52825  35.046  31.087  12.518
84353W        W52826  24.105  41.867   1.776
84354W        W52827   7.229  10.279  12.502
84355W        W52828   9.649  32.105  12.425
84356W        W52829  41.379   5.358  11.962
84357W        W52830   7.218  17.662   4.253
84358W        W52831  20.555  13.685  10.458
84359W        W52832  34.001   2.857   1.322
84360W        W52833  30.608  15.795   1.402
84361W        W52834   1.412  17.669  13.917
84362W        W52835  10.700  18.089  13.494
84363W        W52836  36.495  35.552   3.153
84364W        W52837  14.689  18.196   0.848
84365W        W52838  39.390  16.760  12.346
84366W        W52839   6.256  16.265   2.683
84367W        W52840  26.961  15.625  14.939
84368W        W52841  21.614  27.988  10.440
84369W        W52842  15.178   3.375   3.763
84370W        W52843   2.448  38.842  12.859
84371W        W52844  15.681  25.604  13.924
84372W        W52845   6.212  41.932   0.285
84373W        W52846  18.276  38.352   1.215
84374W        W52847  19.177  44.796  13.543
84375W        W52848   0.351   9.211   2.200
84376W        W52849  13.625  38.009  11.534
84377W        W52850   0.933  24.198   3.804
84378W        W52851  26.974  38.388  14.008
84379W        W52852  28.611  19.089  13.938
84380W        W52853  11.621  35.545  12.576
84381W        W52854  20.070  12.316   1.380
84382W        W52855  11.637  10.641   0.728
84383W        W52856  35.025  12.749  10.102
84384W        W52857  24.673  39.480  12.049
84385W        W52858  41.485  16.647   3.318
84386W        W52859   3.251  24.506   4.691
84387W        W52860  10.878  33.408  10.435
84388W        W52861  44.355  43.464   4.205
84389W        W52862  44.394  22.169  10.119
84390W        W52863  32.488  29.127   2.873
84391W        W52864  23.240  36.880   3.193
84392W        W52865  11.243  43.336  11.422
84393W        W52866   7.224   4.450   5.621
84394W        W52867   7.735  34.373   0.417
84395W        W52868  29.658  26.147  10.549
84396W        W52869  37.471  29.167   3.191
84397W        W52870  12.850   5.253   2.370
84398W        W52871  25.546  27.075   3.305
84399W        W52872   5.234   3.391  11.596
84400W        W52873  32.908  14.239  14.288
84401W        W52874   9.267  17.139   2.897
84402W        W52875  26.971  40.006   0.962
84403W        W52876   3.816  39.483   2.696
84404W        W52877  20.171   4.226   4.691
84405W        W52878  35.558   6.739   4.690
84406W        W52879  24.655  31.075  12.452
84407W        W52880  27.686  28.441  11.596
84408W        W52881  19.656  12.641   3.265
84409W        W52882  21.563  14.823  10.032
84410W        W52883  25.964  40.836  12.904
84411W        W52884  15.135  10.360  14.763
84412W        W52885  42.361  39.892  13.544
84413W        W52886  30.466   9.769   0.295
84414W        W52887   9.685  30.468   4.330
84415W        W52888  11.355   2.859  10.491
84416W        W52889  28.631  43.773  14.402
84417W        W52890   8.337  22.067  11.869
84418W        W52891  17.140  16.655   4.162
84419W        W52892   2.436  33.599   2.382
84420W        W52893   6.397  25.043  10.076
84421W        W52894  28.557  19.602  14.020
84422W        W52895  26.459  19.694  13.977
84423W        W52896   0.307   0.380  14.805
84424W        W52897   3.295   3.458   3.386
84425W        W52898  18.685   8.847   4.227
84426W        W52899  30.000   4.303   4.682
84427W        W52900  40.416   0.857  12.494
84428W        W52901  20.154  11.854  12.558
84429W        W52902  32.965  10.174  11.974
84430W        W52903   7.283  10.241  11.957
84431W        W52904  20.049  14.125   0.834
84432W        W52905  26.154  15.606   4.151
84433W        W52906   4.393  31.620  10.499
84434W        W52907   6.846  16.797  11.462
84435W        W52908   7.296  14.738  12.060
84436W        W52909   2.936  10.260   0.243
84437W        W52910   4.749  11.224   3.847
84438W        W52911   1.836  21.097   0.910
84439W        W52912  27.162  22.522   4.692
84440W        W52913  35.380  30.144  12.082
84441W        W52914  19.276  44.298   3.629
84442W        W52915  33.431  22.021  11.023
84443W        W52916   8.795  33.058   1.316
84444W        W52917  33.396   6.182   1.727
84445W        W52918  20.138  40.356   0.851
84446W        W52919  36.579  23.648  11.953
84447W        W52920  17.572  30.447  10.919
84448W        W52921  38.544   9.699  10.640
84449W        W52922  35.907  26.203   4.226
84450W        W52923   8.876   9.771   0.444
84451W        W52924  15.704  15.269  12.096
84452W        W52925  24.194  29.464   2.871
84453W        W52926  34.521   4.864  12.539
84454W        W52927  18.253  21.577  13.436
84455W        W52928  25.632  16.208   3.258
84456W        W52929  14.264  16.662   4.151
84457W        W52930  37.852  32.479  10.522
84458W        W52931  12.716   9.665   3.193
84459W        W52932   1.320   0.357  13.503
84460W        W52933  17.636  25.585  12.416
84461W        W52934   3.917  18.778   1.839
84462W        W52935   1.868  44.968   2.226
84463W        W52936  30.452  30.155  12.425
84464W        W52937  30.963  38.494  13.922
84465W        W52938  22.631  31.913  11.413
84466W        W52939  27.969  12.650  13.890
84467W        W52940   1.863   6.907  14.764
84468W        W52941   6.212  12.747   5.271
84469W        W52942  41.977  35.922  12.457
84470W        W52943   2.895  15.684   2.877
84471W        W52944  19.599  13.630  13.938
84472W        W52945  29.665  33.904   3.364
84473W        W52946  26.481   3.262  10.052
84474W        W52947  40.813  39.021  13.972
84475W        W52948  44.855   0.464  12.570
84476W        W52949  29.069  34.466   1.234
84477W        W52950  41.427  39.892  10.454
84478W        W52951  38.895  25.969  13.535
84479W        W52952  10.875   4.780  14.939
84480W        W52953  17.644  32.104   4.821
84481W        W52954  32.597  16.595   2.795
84482W        W52955  23.706  25.586   4.312
84483W        W52956  30.600  14.235   1.837
84484W        W52957  34.998  17.678   0.845
84485W        W52958  37.380  28.176   2.185
84486W        W52959  10.765  40.378  11.500
84487W        W52960  10.282  16.119   2.803
84488W        W52961   2.337  14.328   1.448
84489W        W52962  21.724  36.954  14.968
84490W        W52963   3.260  44.485   0.429
84491W        W52964  14.633  25.049   4.261
84492W        W52965   7.687  25.062  12.475
84493W        W52966  31.638  10.818  14.012
84494W        W52967  14.761   4.331  13.360
84495W        W52968   9.243  16.768  14.514
84496W        W52969  35.988   4.797  10.972
84497W        W52970  21.091   9.242  12.468
84498W        W52971  43.888   9.311   2.801
84499W        W52972  12.360  19.172  10.555
84500W        W52973  32.116   7.241  13.977
84501W        W52974  36.414  33.946   3.246
84502W        W52975  44.839   0.777   4.297
84503W        W52976   0.326  32.957   3.809
84504W        W52977   7.249  18.174  14.283
84505W        W52978  16.128  30.501  13.501
84506W        W52979  34.393  35.470   2.331
84507W        W52980  15.162  38.960   4.349
84508W        W52981  21.511  28.953  14.338
84509W        W52982   0.484   6.805   4.599
84510W        W52983  44.330   3.893  11.063
84511W        W52984  21.119  12.143   1.701
84512W        W52985  24.217  15.585  12.833
84513W        W52986  18.732  43.967  13.021
84514W        W52987  21.637  27.005   1.833
84515W        W52988  31.140  19.251   3.181
84516W        W52989  38.396  31.995  14.009
84517W        W52990  32.986  31.410   0.900
84518W        W52991  20.061  24.093   2.342
84519W        W52992   0.896  35.939  14.383
84520W        W52993  37.561  11.842   4.715
84521W        W52994  21.548  11.851   4.598
84522W        W52995  25.019  36.558  10.502
84523W        W52996  21.716   8.180  14.305
84524W        W52997  31.515  17.740   1.342
84525W        W52998  29.030  44.983   2.188
84526W        W52999  43.358  13.270  12.964
84527W        W53000  35.936  33.482  11.502
84528W        W53001  33.400  25.201  14.876
84529W        W53002  26.580  40.434  13.822
84530W        W53003   4.811  18.135   2.862
84531W        W53004  35.529  44.498  11.387
84532W        W53005  33.469  30.420  11.525
84533W        W53006   1.406   7.708  14.846
84534W        W53007  15.799  37.404  13.523
84535W        W53008  41.347  32.544  12.518
84536W        W53009  33.984   8.737   2.713
84537W        W53010  36.464  14.255   3.842
84538W        W53011   7.682  16.089  10.422
84539W        W53012  43.829  12.218  11.383
84540W        W53013  44.888  17.575  13.860
84541W        W53014   6.340  13.840  11.106
84542W        W53015  22.559  29.567   3.373
84543W        W53016  38.826  12.189  13.441
84544W        W53017   8.206   9.798   3.731
84545W        W53018  23.084  20.534   1.859
84546W        W53019  23.596  12.854   2.698
84547W        W53020  23.024  14.315   3.652
84548W        W53021  28.092  29.475  13.544
84549W        W53022  23.201  23.150   0.965
84550W        W53023   5.325  37.494   2.839
84551W        W53024  30.118  21.521   0.831
84552W        W53025  43.872  28.673   1.721
84553W        W53026   9.270  35.059  12.573
84554W        W53027  24.993   2.288  12.427
84555W        W53028  38.054  16.657   3.857
84556W        W53029  19.169  29.044   4.628
84557W        W53030  22.106  36.039  14.845
84558W        W53031  29.027  26.458   4.783
84559W        W53032  14.220   9.360  10.890
84560W        W53033  14.794  24.616   4.676
84561W        W53034   4.393   8.190  11.892
84562W        W53035   9.321  39.539  12.082
84563W        W53036  19.764  25.670   3.158
84564W        W53037  38.962  14.337  13.925
84565W        W53038  11.193  43.861   3.370
84566W        W53039  39.420  33.403  11.915
84567W        W53040  33.056  34.518  10.508
84568W        W53041  21.518  31.898  10.419
84569W        W53042  33.086  32.524  10.523
84570W        W53043  40.851  30.016  12.540
84571W        W53044   3.346  27.176   1.889
84572W        W53045  44.335  37.393  10.118
84573W        W53046  44.476  28.508   4.726
84574W        W53047  42.389  43.462   2.387
84575W        W53048  19.548  18.640   2.370
84576W        W53049  41.027  43.855   4.274
84577W        W53050  44.295  36.003  14.891
84578W        W53051   0.404   6.409  14.856
84579W        W53052   7.351   6.719   2.846
84580W        W53053   5.319  34.562  13.051
84581W        W53054   2.752  35.079   1.885
84582W        W53055  44.363  12.118  11.125
84583W        W53056  29.921   8.818   2.349
84584W        W53057  36.410  10.384   0.962
84585W        W53058  23.573  42.387   2.836
84586W        W53059  33.544  23.201  12.450
84587W        W53060  31.005  23.510   9.601
84588W        W53061  44.269  32.497   2.328
84589W        W53062   5.199  14.805   2.415
84590W        W53063  39.836  19.134   2.250
84591W        W53064  20.707  14.200   1.841
84592W        W53065  17.281   0.988  14.813
84593W        W53066  20.628  29.016   2.683
84594W        W53067  27.009  20.742   4.616
84595W        W53068  43.810   9.155  14.954
84596W        W53069  10.268  20.097   4.252
84597W        W53070  26.958   8.169  12.488
84598W        W53071  15.650  30.489  14.840
84599W        W53072  24.160  20.697  11.911
84600W        W53073  10.707   0.365   4.732
84601W        W53074  10.212  38.059  10.446
84602W        W53075   1.920   0.371  12.870
84603W        W53076  11.723   3.805   3.334
84604W        W53077  32.631  18.179  12.372
84605W        W53078  44.771   0.429   4.176
84606W        W53079  43.943  19.745   4.151
84607W        W53080  24.595  39.340  14.007
84608W        W53081  40.497  26.995   0.845
84609W        W53082  35.472  18.254  14.976
84610W        W53083  23.085   8.671  11.533
84611W        W53084  26.134  30.090  13.954
84612W        W53085  36.573  12.688  13.467
84613W        W53086  20.738  19.096   0.348
84614W        W53087   8.671  23.233  14.423
84615W        W53088  37.968  31.058  11.001
84616W        W53089  29.050  35.869   0.421
84617W        W53090  22.015  29.425  11.922
84618W        W53091   5.215  43.314   3.188
84619W        W53092  34.485  16.101  14.413
84620W        W53093  37.425  19.550  10.006
84621W        W53094   4.832  28.625  12.389
84622W        W53095  27.484  32.493   1.883
84623W        W53096  43.401  40.375   4.178
84624W        W53097   8.856  12.273   2.330
84625W        W53098  29.022  17.787   3.324
84626W        W53099  28.493  33.473   1.297
84627W        W53100  25.209  41.853  14.289
84628W        W53101  17.302   9.882   4.142
84629W        W53102  31.499   0.787   2.755
84630W        W53103  25.195  10.790   4.264
84631W        W53104  15.310  39.920   0.839
84632W        W53105   1.846  31.648   0.406
84633W        W53106  18.616  16.103   2.263
84634W        W53107  28.996  14.125   1.250
84635W        W53108  39.913  30.103   1.395
84636W        W53109  13.833   8.181  10.544
84637W        W53110  37.927  27.626  13.882
84638W        W53111  33.932   5.345   4.793
84639W        W53112  37.466  42.507   4.148
84640W        W53113   0.300   6.413  13.897
84641W        W53114  11.720  16.108  14.997
84642W        W53115   2.366  11.258  10.933
84643W        W53116  28.973  37.520   5.178
84644W        W53117  36.001   5.720  12.045
84645W        W53118   1.268   1.939   1.278
84646W        W53119  18.106  26.007  14.845
84647W        W53120  17.614   2.945   1.903
84648W        W53121   5.352  40.992  11.035
84649W        W53122  13.243  24.091  14.024
84650W        W53123  15.163  19.542   4.348
84651W        W53124  40.512  34.407  14.375
84652W        W53125  25.480  44.969   0.771
84653W        W53126  30.989  43.477   3.364
84654W        W53127  17.120  32.637  10.976
84655W        W53128   5.816  10.238  10.955
84656W        W53129  12.612  20.144  14.816
84657W        W53130  12.237  27.014   3.743
84658W        W53131   4.879  19.109   0.272
84659W        W53132  18.247  27.487  13.831
84660W        W53133  33.458  33.452   5.238
84661W        W53134  10.162  23.603  12.975
84662W        W53135   4.360  21.187  14.376
84663W        W53136   8.719  21.658  12.001
84664W        W53137  21.730  24.572   0.373
84665W        W53138   1.359  29.944   0.811
84666W        W53139  26.668   3.788  11.940
84667W        W53140  44.387  14.707  12.395
84668W        W53141  17.111   5.920  14.951
84669W        W53142  29.175  39.008  14.950
84670W        W53143  10.852   1.822  14.389
84671W        W53144   2.269  26.474  13.003
84672W        W53145  32.574  44.466   4.244
84673W        W53146   3.822  13.739   4.605
84674W        W53147  30.117  31.146  13.981
84675W        W53148  29.072   2.866  12.830
84676W        W53149  19.536  18.659   1.815
84677W        W53150   9.663  14.125  13.955
84678W        W53151  31.597  44.852   4.149
84679W        W53152  26.031  19.611  11.430
84680W        W53153  24.016  38.073   1.397
84681W        W53154  19.058  28.958   1.286
84682W        W53155  35.415  41.359  10.958
84683W        W53156  39.557   6.768  12.023
84684W        W53157  39.503  31.606   4.696
84685W        W53158  22.553  21.117  13.464
84686W        W53159  42.852   5.869  14.507
84687W        W53160  18.559  40.488  12.095
84688W        W53161  33.940  11.166  12.042
84689W        W53162  36.070  38.414   1.408
84690W        W53163  33.109  13.331  13.847
84691W        W53164  20.121  23.687  12.475
84692W        W53165   1.349  44.764  12.526
84693W        W53166  30.657  17.245   1.244
84694W        W53167   8.169  38.551   3.766
84695W        W53168   8.800   6.834  12.905
84696W        W53169  35.875  20.639  11.472
84697W        W53170  37.496  44.806   0.774
84698W        W53171   9.390  19.239  12.971
84699W        W53172  41.453  29.050   2.900
84700W        W53173  34.957  11.150   4.317
84701W        W53174   5.829  26.580  12.433
84702W        W53175  28.502   3.931   3.312
84703W        W53176   5.236  35.017  10.536
84704W        W53177  30.148  37.950   4.328
84705W        W53178  26.525   2.876  11.891
84706W        W53179  19.086   8.735  10.946
84707W        W53180  40.927  16.317   3.387
84708W        W53181  28.036  40.042  11.576
84709W        W53182  10.682  43.354   0.400
84710W        W53183   8.721  27.541   4.308
84711W        W53184  17.216   1.861  11.550
84712W        W53185   6.243  43.490  14.783
84713W        W53186  35.448  11.638  13.465
84714W        W53187   6.788  44.419  12.094
84715W        W53188  18.277  27.941  14.487
84716W        W53189  36.084  36.372   0.743
84717W        W53190  38.976  32.923  10.035
84718W        W53191  30.016  41.462  12.963
84719W        W53192  37.951  22.056   0.781
84720W        W53193  24.033  16.157  13.863
84721W        W53194   7.308  34.996  11.990
84722W        W53195  32.901  25.507   9.642
84723W        W53196  14.322  13.238  14.891
84724W        W53197   9.817  37.992  14.865
84725W        W53198  25.648  14.297   1.340
84726W        W53199   0.267   6.727  11.857
84727W        W53200  16.189  43.394   3.305
84728W        W53201  19.706  44.496  11.085
84729W        W53202   8.313  20.172   1.888
84730W        W53203  32.479  38.428  14.974
84731W        W53204  44.484  36.968  12.564
84732W        W53205  29.510  12.754  12.007
84733W        W53206  32.038  14.221   2.708
84734W        W53207   7.360  33.457   0.850
84735W        W53208  19.668  22.219  10.543
84736W        W53209  32.085   4.813   4.347
84737W        W53210  11.176   2.304  11.431
84738W        W53211  33.996   9.787   1.911
84739W        W53212  12.165  11.864   4.691
84740W        W53213   3.728  41.346  11.586
84741W        W53214  15.673  33.941   1.275
84742W        W53215   9.734  23.023  11.966
84743W        W53216   6.780  39.350  12.930
84744W        W53217   9.709  37.862  14.314
84745W        W53218  19.039  14.645   1.726
84746W        W53219  19.041  10.816   4.687
84747W        W53220  12.185  39.058  11.051
84748W        W53221   9.304  40.398  12.341
84749W        W53222  23.097   9.193  10.496
84750W        W53223   8.354  17.179   2.690
84751W        W53224  18.240  32.951  13.916
84752W        W53225  28.615  28.677  13.005
84753W        W53226   6.287  43.364  11.090
84754W        W53227  23.685  36.072  11.445
84755W        W53228  28.126  12.158   0.407
84756W        W53229   9.356  21.242  12.860
84757W        W53230  31.599   8.317   1.782
84758W        W53231  40.336  39.342   0.768
84759W        W53232  38.460   4.907   4.615
84760W        W53233   5.282  34.438   1.287
84761W        W53234  15.214   0.959   1.359
84762W        W53235   0.396   8.398  14.953
84763W        W53236  14.684  40.930   3.845
84764W        W53237  24.624  21.720  10.589
84765W        W53238  18.113   7.309  11.523
84766W        W53239  42.859  20.032  13.816
84767W        W53240  42.523   6.408   0.830
84768W        W53241  35.565  18.789  14.788
84769W        W53242   8.755  34.005   9.636
84770W        W53243  14.742  40.002  13.356
84771W        W53244   2.424  12.665  10.595
84772W        W53245  39.975   2.884  14.390
84773W        W53246  33.584   9.773  13.935
84774W        W53247  15.708  37.360   2.722
84775W        W53248  15.681  18.589   0.472
84776W        W53249   2.909  29.476   0.481
84777W        W53250  18.571  22.615   5.297
84778W        W53251  16.739  43.766   0.768
84779W        W53252  32.518  34.534  13.803
84780W        W53253  31.475   2.868   2.337
84781W        W53254   7.174  29.120   1.406
84782W        W53255  12.761  41.999   4.836
84783W        W53256  20.049  31.018   1.779
84784W        W53257   1.739  12.165   2.358
84785W        W53258  30.026  28.070  11.499
84786W        W53259  29.074  28.549  11.999
84787W        W53260  32.568   1.930  11.120
84788W        W53261  16.226  34.587   4.187
84789W        W53262  32.980   1.406   1.790
84790W        W53263   9.333   9.860   4.768
84791W        W53264  10.714  32.059   1.238
84792W        W53265  10.292   3.832   3.332
84793W        W53266  10.360  27.151   4.829
84794W        W53267  26.044   1.318   4.708
84795W        W53268  21.583  31.494  10.465
84796W        W53269   3.432  28.671  14.459
84797W        W53270  22.741  42.405  13.019
84798W        W53271  15.818   2.810  13.521
84799W        W53272  16.195  29.044  10.517
84800W        W53273  22.665  15.169   5.214
84801W        W53274  40.844  30.960   1.884
84802W        W53275  13.343  12.118   4.625
84803W        W53276  41.306  19.256   0.933
84804W        W53277  37.345   5.823   2.293
84805W        W53278  22.052  29.670  13.816
84806W        W53279  44.005  36.017   3.650
84807W        W53280  22.716  27.598  10.901
84808W        W53281  40.884  39.501  14.999
84809W        W53282  37.554  43.844   4.159
84810W        W53283  32.607  14.817  10.901
84811W        W53284  17.781  30.001  13.410
84812W        W53285  27.446  37.066   2.683
84813W        W53286  14.802  19.597   4.760
84814W        W53287  14.231  41.474  14.430
84815W        W53288  40.033   5.204   0.344
84816W        W53289   4.922  18.546  11.860
84817W        W53290   6.724   8.159   3.351
84818W        W53291   6.923   8.853   4.674
84819W        W53292  31.518  31.952   2.850
84820W        W53293  36.080   0.919   4.616
84821W        W53294  22.617  41.944   3.386
84822W        W53295  30.509   8.685  13.408
84823W        W53296  13.720  15.313   3.845
84824W        W53297  43.955  43.386   3.228
84825W        W53298  32.511  34.915   0.436
84826W        W53299  15.660  28.979  13.427
84827W        W53300  21.681   5.285   1.397
84828W        W53301  32.089  21.727  11.591
84829W        W53302  41.317  16.780  12.467
84830W        W53303  29.500  36.521   3.772
84831W        W53304  31.897  21.028   0.728
84832W        W53305  43.338  13.796   0.844
84833W        W53306  16.705  10.869  11.864
84834W        W53307  26.571  44.775  12.981
84835W        W53308  19.555  40.547   5.259
84836W        W53309   7.387  29.939  12.919
84837W        W53310  10.768  28.593   3.653
84838W        W53311  32.084   3.381   2.765
84839W        W53312   5.224  21.145  14.963
84840W        W53313  27.128  30.135   0.957
84841W        W53314  23.016  16.683   3.333
84842W        W53315   1.315   2.862  13.482
84843W        W53316  33.434  22.028   4.733
84844W        W53317  37.079   8.826  12.019
84845W        W53318   7.181  15.288   5.620
84846W        W53319   9.376  19.219   1.253
84847W        W53320  35.375  42.866   0.280
84848W        W53321  42.373  31.106  11.948
84849W        W53322  14.098   4.864  14.405
84850W        W53323  10.689   8.875   3.712
84851W        W53324   7.327   2.821  13.930
84852W        W53325  19.585  44.833  14.884
84853W        W53326   5.381  14.177   5.229
84854W        W53327  19.235  31.491   0.960
84855W        W53328  24.665  37.072   2.839
84856W        W53329   0.379   8.891  12.078
84857W        W53330  11.310  42.502   4.267
84858W        W53331  38.543  20.713  14.975
84859W        W53332  29.173  17.290  14.855
84860W        W53333   8.262  38.407   0.835
84861W        W53334  37.368  40.998  13.487
84862W        W53335  26.959  21.035  10.615
84863W        W53336  32.482  22.588   0.763
84864W        W53337  35.475  17.140  14.469
84865W        W53338   4.938  35.069   2.324
84866W        W53339  40.403  19.209   2.663
84867W        W53340  12.752  18.167  13.457
84868W        W53341  27.681  36.029   0.734
84869W        W53342  12.269  19.608  11.435
84870W        W53343  26.694  32.959  11.498
84871W        W53344  13.839  43.278   4.334
84872W        W53345  36.854  15.580  13.064
84873W        W53346  30.948  15.726   0.330
84874W        W53347  29.075  17.637   3.743
84875W        W53348  35.852  32.024  10.477
84876W        W53349  34.986  19.245   3.206
84877W        W53350   3.795  27.591   3.183
84878W        W53351  22.668  31.978  13.884
84879W        W53352  40.046  37.031  11.892
84880W        W53353  36.880  16.310  13.832
84881W        W53354  42.970  11.261  11.390
84882W        W53355  30.434  30.424   4.143
84883W        W53356   6.759  34.600  14.994
84884W        W53357  11.271   9.845  10.554
84885W        W53358  34.033  25.474  14.995
84886W        W53359  11.754  36.005   0.821
84887W        W53360  42.848  36.025  12.422
84888W        W53361  24.715  34.867   3.342
84889W        W53362  30.499  18.277  12.054
84890W        W53363  16.093  36.959   1.738
84891W        W53364  32.052  39.499  13.396
84892W        W53365  37.517  34.022  13.918
84893W        W53366   7.881  35.538   0.752
84894W        W53367   8.326  27.140  13.414
84895W        W53368  17.626   2.931  13.828
84896W        W53369  32.413  32.013  14.388
84897W        W53370  25.146  24.182   4.354
84898W        W53371  25.982  38.832   1.296
84899W        W53372  12.615   2.805   4.300
84900W        W53373  16.629  10.173   4.300
84901W        W53374  10.671  25.605  14.791
84902W        W53375  12.637  42.432   4.682
84903W        W53376   9.153  37.504   1.274
84904W        W53377  26.540  10.284  11.442
84905W        W53378  42.398  14.283  13.540
84906W        W53379   1.785  19.601  12.073
84907W        W53380  28.037  38.857  11.067
84908W        W53381  41.944  31.123  10.476
84909W        W53382  25.037  32.056  14.503
84910W        W53383  34.450  28.463   4.670
84911W        W53384   3.771  24.578  13.430
84912W        W53385  41.469  34.568  11.522
84913W        W53386  27.168  33.577   9.967
84914W        W53387  25.165  40.357   0.745
84915W        W53388  40.928  31.135   3.267
84916W        W53389  24.702   8.346   1.866
84917W        W53390   4.944   4.822   2.377
84918W        W53391  19.663  38.347   1.814
84919W        W53392  35.105  35.558  12.575
84920W        W53393  28.672  42.002   1.787
84921W        W53394  44.266  11.273   3.703
84922W        W53395  34.886   8.172   2.849
84923W        W53396  22.590  14.734  14.863
84924W        W53397  29.092  24.632   1.930
84925W        W53398  43.287   5.390  13.378
84926W        W53399  14.833  21.080  12.026
84927W        W53400  24.080  31.020  13.536
84928W        W53401  28.535  37.020  11.460
84929W        W53402  35.418  42.368   1.340
84930W        W53403  16.662  17.715   4.648
84931W        W53404  37.433   2.253  14.291
84932W        W53405  17.238  15.279  13.850
84933W        W53406  17.608  21.673  14.363
84934W        W53407  21.691   0.822  12.405
84935W        W53408   9.824   6.920   0.821
84936W        W53409  31.908  27.613   5.285
84937W        W53410  37.951  13.243  10.635
84938W        W53411  38.430  31.979  11.425
84939W        W53412  24.576  23.690  12.576
84940W        W53413  37.907  32.895   4.808
84941W        W53414  40.453  13.173  11.069
84942W        W53415  31.965  12.690  11.560
84943W        W53416  18.266  27.483   2.829
84944W        W53417  37.492  34.118   2.322
84945W        W53418  38.935   0.469   1.858
84946W        W53419  27.495  39.314   3.765
84947W        W53420  43.307  33.954  14.774
84948W        W53421   4.315  10.248  14.502
84949W        W53422   1.814  43.511  10.482
84950W        W53423  18.718  38.868  12.033
84951W        W53424   7.249   6.745   0.402
84952W        W53425  41.013   6.224  14.366
84953W        W53426   2.721  20.241  12.535
84954W        W53427  19.658  43.777   3.276
84955W        W53428  37.495   0.249  11.961
84956W        W53429  13.721   5.252  11.424
84957W        W53430  25.054  33.894   0.905
84958W        W53431  40.022  41.487   3.203
84959W        W53432  23.708   7.309   1.422
84960W        W53433  38.866   4.716   2.215
84961W        W53434  23.189  44.286   4.139
84962W        W53435  41.798  38.376   3.833
84963W        W53436  32.431  43.822   2.777
84964W        W53437  24.158  14.293   1.439
84965W        W53438  24.690  29.066  12.357
84966W        W53439   8.727  29.437   4.623
84967W        W53440   6.315   4.329  13.960
84968W        W53441   7.880  24.670  11.375
84969W        W53442  29.535  42.886  13.028
84970W        W53443   5.342   9.808   4.264
84971W        W53444  16.643  29.507  11.897
84972W        W53445  25.672  13.177   0.291
84973W        W53446  35.565  23.610  11.975
84974W        W53447  22.699  37.480  13.848
84975W        W53448   1.831  29.636   1.875
84976W        W53449   9.857  35.519   3.720
84977W        W53450   4.710   4.860  13.483
84978W        W53451  36.485  34.928   0.797
84979W        W53452  21.721  16.650  13.496
84980W        W53453  10.260  40.882   1.858
84981W        W53454  13.818  14.337  10.558
84982W        W53455  31.073  23.549   2.817
84983W        W53456  37.899  31.983  10.473
84984W        W53457   5.363  26.545  11.578
84985W        W53458  33.915  38.829  11.917
84986W        W53459  44.790  40.904  13.022
84987W        W53460   7.712  19.073   1.791
84988W        W53461  38.029  18.241   1.862
84989W        W53462  14.736  22.553   2.760
84990W        W53463  24.602  28.128  11.025
84991W        W53464  37.916  13.621  10.964
84992W        W53465  41.786  23.729   4.657
84993W        W53466  44.827  12.232  13.439
84994W        W53467  40.878  22.711  12.566
84995W        W53468  14.641  15.248   4.687
84996W        W53469   8.810  16.800   0.762
84997W        W53470  35.021  22.105  14.789
84998W        W53471   8.377   1.937   1.433
84999W        W53472  44.905  37.432   3.284
85000W        W53473  42.801  30.421   4.286
85001W        W53474  16.707   5.802  12.897
85002W        W53475   5.754  34.117  14.923
85003W        W53476  38.553   1.833  11.470
85004W        W53477  41.300  44.399  12.992
85005W        W53478  38.837  33.469  12.351
85006W        W53479   8.736  39.986  10.922
85007W        W53480  32.496  29.515  10.426
85008W        W53481  14.171  30.958   4.776
85009W        W53482  38.004  16.138  11.094
85010W        W53483  18.657  17.788   0.267
85011W        W53484  12.250  27.573   3.151
85012W        W53485  34.106  18.759  13.966
85013W        W53486  15.617  27.670  14.869
85014W        W53487  31.529  10.257   2.721
85015W        W53488   1.794   1.793  12.465
85016W        W53489   6.413  38.545   1.712
85017W        W53490  26.522  39.997  10.531
85018W        W53491  37.547  18.706   0.257
85019W        W53492  11.739  22.581  13.897
85020W        W53493  19.747  44.469   3.247
85021W        W53494  40.512   3.828   1.822
85022W        W53495  30.476  21.184   1.765
85023W        W53496  20.150  38.431   1.782
85024W        W53497  42.341  16.168   1.392
85025W        W53498   6.711  27.632   1.371
85026W        W53499  44.004  40.457  10.524
85027W        W53500  23.195  14.742   4.661
85028W        W53501   5.838  17.136   4.172
85029W        W53502  20.549  21.693   2.724
85030W        W53503  32.921   8.394   0.443
85031W        W53504   5.230  12.186  13.040
85032W        W53505   5.775  38.352  14.873
85033W        W53506  37.537   8.227   2.361
85034W        W53507  31.153  41.963   1.244
85035W        W53508  18.549  21.647   2.216
85036W        W53509   0.791  28.607   1.856
85037W        W53510  38.516   2.870   4.795
85038W        W53511  20.091  17.713  11.934
85039W        W53512  14.640  10.189  11.429
85040W        W53513  25.210  41.396   0.956
85041W        W53514  27.173  18.150   1.273
85042W        W53515  35.983  40.507  11.901
85043W        W53516   3.723  16.106  11.092
85044W        W53517  22.646  21.619   1.768
85045W        W53518  40.372  44.347   3.862
85046W        W53519  24.199  17.718   3.690
85047W        W53520  20.152  26.072  13.382
85048W        W53521   5.708   7.716  10.462
85049W        W53522  14.612  16.218  12.458
85050W        W53523   9.879  44.781  12.926
85051W        W53524   7.863  21.205   5.202
85052W        W53525  41.333  21.064   2.732
85053W        W53526  29.976   1.851   3.267
85054W        W53527  13.835   2.770  14.984
85055W        W53528   5.734  16.778  14.355
85056W        W53529  10.292  17.674   1.269
85057W        W53530   4.307  14.595   4.787
85058W        W53531  22.695   9.264   2.222
85059W        W53532  34.076   4.405  14.372
85060W        W53533  14.652  14.820  11.558
85061W        W53534   8.879  20.631   4.172
85062W        W53535  20.628  21.225   1.924
85063W        W53536   4.817  25.577   1.882
85064W        W53537  27.491  44.002  11.928
85065W        W53538  34.564  23.696   4.168
85066W        W53539  12.153  35.992  14.814
85067W        W53540  18.096  13.225  12.987
85068W        W53541  25.655  21.601   0.854
85069W        W53542  28.084  42.923  14.886
85070W        W53543  44.460  17.102  11.461
85071W        W53544  20.537   7.803  11.428
85072W        W53545   6.292  32.995   4.656
85073W        W53546  22.671  25.963   5.315
85074W        W53547  43.455  30.631   0.262
85075W        W53548  38.945  42.952  10.154
85076W        W53549   9.192  37.071   2.880
85077W        W53550   4.380  29.628   4.825
85078W        W53551  41.537  19.549   1.235
85079W        W53552  10.174   3.764   2.371
85080W        W53553  13.172  30.010   4.214
85081W        W53554  33.586   3.457   4.743
85082W        W53555  37.487  11.149  10.891
85083W        W53556  29.443  38.355   0.803
85084W        W53557  33.460   6.256   0.746
85085W        W53558  24.629  43.442  10.532
85086W        W53559  30.967  26.622   9.620
85087W        W53560  15.323  36.932   4.714
85088W        W53561  10.322   0.755  13.003
85089W        W53562  19.777   6.825   4.269
85090W        W53563   5.904  37.984   4.291
85091W        W53564  26.012  31.009   1.216
85092W        W53565   7.863  35.470   2.837
85093W        W53566   5.840  13.274   0.854
85094W        W53567  12.818  21.058   4.155
85095W        W53568  30.413  41.788  13.366
85096W        W53569   4.394  42.505  10.910
85097W        W53570  14.734   0.811   1.321
85098W        W53571  33.528  24.718  14.791
85099W        W53572  30.473  26.020  13.860
85100W        W53573  35.544  21.196   3.339
85101W        W53574  39.487  23.212   1.326
85102W        W53575  38.957  26.041   4.680
85103W        W53576  25.980  29.554   1.297
85104W        W53577   2.810  29.923  12.051
85105W        W53578  21.030  17.233   2.357
85106W        W53579   2.807   3.364   0.374
85107W        W53580  37.947  21.660   3.765
85108W        W53581  39.372  22.726   1.917
85109W        W53582  28.473  28.638   4.630
85110W        W53583   5.817  10.710   2.900
85111W        W53584  20.215   0.986   1.716
85112W        W53585  21.154   0.839   4.781
85113W        W53586  43.484  44.302   4.304
85114W        W53587  23.072  11.631   4.228
85115W        W53588  23.656  35.065  14.798
85116W        W53589  22.743   8.269   0.327
85117W        W53590  35.481   0.898   1.888
85118W        W53591  41.793  26.567  14.880
85119W        W53592  41.830  32.604  10.924
85120W        W53593  16.655  30.636   0.419
85121W        W53594  22.545  12.849   3.156
85122W        W53595  18.273  44.391  10.909
85123W        W53596   9.843  28.013   4.199
85124W        W53597  44.467  15.699   1.417
85125W        W53598  32.084  30.018   4.689
85126W        W53599  27.994   4.867  11.377
85127W        W53600  14.271  18.757   0.457
85128W        W53601   9.296  36.553   1.381
85129W        W53602  33.997  28.458   4.639
85130W        W53603   8.841  25.568   4.698
85131W        W53604  17.156  38.879   1.313
85132W        W53605  36.379  29.083   0.314
85133W        W53606   9.849  26.497  12.925
85134W        W53607  10.191  27.149  11.454
85135W        W53608  13.289   1.788  11.414
85136W        W53609  29.507   8.348   4.749
85137W        W53610  22.714  20.130  10.899
85138W        W53611  39.485  38.326   4.811
85139W        W53612   6.341  12.613   1.857
85140W        W53613  12.686  35.410   2.333
85141W        W53614  15.287  10.777   1.401
85142W        W53615  29.960  26.540   4.718
85143W        W53616  21.118  25.059  14.007
85144W        W53617   8.223   8.869  14.418
85145W        W53618  16.237  32.490  14.318
85146W        W53619  40.963  11.284  13.467
85147W        W53620  21.214  38.565   2.767
85148W        W53621  18.611   4.416  13.307
85149W        W53622  32.120  23.040  10.950
85150W        W53623  31.616   3.783  13.362
85151W        W53624   1.323  21.172  12.083
85152W        W53625  43.346  43.839   3.775
85153W        W53626  17.671  37.048  13.470
85154W        W53627  18.789  31.470  11.595
85155W        W53628   7.894   7.316   5.295
85156W        W53629   5.760  42.846   3.636
85157W        W53630  36.399  12.778  10.588
85158W        W53631  22.659  22.170  10.915
85159W        W53632  27.482  25.199   3.801
85160W        W53633   5.836   4.417  11.579
85161W        W53634   5.706   3.799   1.322
85162W        W53635  32.460  39.946  10.645
85163W        W53636  20.668  42.954  13.857
85164W        W53637  36.057  14.701  13.820
85165W        W53638  28.038   8.401   2.832
85166W        W53639  27.690  28.118  11.598
85167W        W53640  19.147  10.805  11.384
85168W        W53641  37.842  13.331  12.955
85169W        W53642  19.256  27.005   3.271
85170W        W53643  41.472  44.998   4.794
85171W        W53644  10.148  38.445   1.287
85172W        W53645  24.138   5.763   4.120
85173W        W53646  22.160  21.256   2.373
85174W        W53647   1.869  22.088  10.994
85175W        W53648  44.392  34.527  11.912
85176W        W53649  14.301   2.847   4.181
85177W        W53650  25.200  24.001  14.856
85178W        W53651   5.234  32.636  11.060
85179W        W53652  22.582  20.201   2.855
85180W        W53653  24.602  14.661  12.072
85181W        W53654  42.301  27.042  14.784
85182W        W53655  40.546  11.361   2.768
85183W        W53656  33.448  43.922   3.216
85184W        W53657  28.554  24.206  11.023
85185W        W53658  28.647  43.902  11.907
85186W        W53659  18.597  21.064   0.813
85187W        W53660  33.946   5.771  12.927
85188W        W53661   3.293   4.240   1.750
85189W        W53662  44.404  27.550  11.527
85190W        W53663  30.135  36.949  14.892
85191W        W53664  12.851  20.079   4.347
85192W        W53665  13.207  23.551   0.361
85193W        W53666  23.609   9.780   4.666
85194W        W53667  17.585  16.630   3.213
85195W        W53668  34.937  26.169  10.604
85196W        W53669  27.032  21.089  14.996
85197W        W53670   2.739  24.632   1.892
85198W        W53671   6.845  25.212   2.399
85199W        W53672  44.796  38.547   2.316
85200W        W53673   0.928  23.698  12.033
85201W        W53674  24.993  23.650   2.237
85202W        W53675   3.444   2.836   1.231
85203W        W53676  27.535  19.621  12.048
85204W        W53677  42.289  19.634  11.019
85205W        W53678  11.228  35.987  13.942
85206W        W53679  42.956  34.503  13.452
85207W        W53680  29.163  12.799   1.830
85208W        W53681  34.612  31.074   3.820
85209W        W53682  41.448  18.219  13.987
85210W        W53683  16.583  24.614   3.335
85211W        W53684   6.841  41.357  13.797
85212W        W53685  25.606  16.250  12.079
85213W        W53686  13.639  18.270  14.863
85214W        W53687  29.592  32.605   2.694
85215W        W53688   5.785  29.645  12.041
85216W        W53689  27.998  21.028   0.731
85217W        W53690   9.178  11.344  13.492
85218W        W53691   1.808   9.840  12.967
85219W        W53692  30.498  30.475   2.415
85220W        W53693  37.389   9.864  11.600
85221W        W53694   9.184  36.421   2.282
85222W        W53695  21.173  30.475   1.280
85223W        W53696  37.844   7.208   3.766
85224W        W53697  18.598  18.141   1.928
85225W        W53698  16.118  34.555  11.550
85226W        W53699   0.442  39.345   4.134
85227W        W53700  10.156  33.577  14.391
85228W        W53701   8.754  18.731  10.941
85229W        W53702  19.262  33.900   2.212
85230W        W53703  16.641   6.857   2.718
85231W        W53704  14.294  34.425   4.125
85232W        W53705  23.161  21.642   3.649
85233W        W53706  33.109  34.012   2.666
85234W        W53707  39.359  22.131  13.807
85235W        W53708   4.207  40.451  11.471
85236W        W53709  18.267   5.330  11.610
85237W        W53710  34.575  29.462  11.410
85238W        W53711  38.014  42.988   1.722
85239W        W53712  36.563  28.536  13.365
85240W        W53713  30.133   6.344  11.383
85241W        W53714   3.754  17.088  12.352
85242W        W53715  31.630  44.334   9.933
85243W        W53716  42.948  43.981  14.352
85244W        W53717  41.786  26.095  14.293
85245W        W53718  31.618  13.621   0.392
85246W        W53719  14.191  28.984   0.293
85247W        W53720  23.724   0.251   2.840
85248W        W53721  10.213   3.268   0.282
85249W        W53722  36.414  18.236   5.123
85250W        W53723  35.970  37.988   0.302
85251W        W53724  40.889  36.561   3.207
85252W        W53725   4.784  28.532   0.800
85253W        W53726  33.933  18.218   2.211
85254W        W53727  28.116  43.902   4.797
85255W        W53728   6.351   1.483   2.878
85256W        W53729  42.401   8.743   2.192
85257W        W53730   9.761  26.478   2.711
85258W        W53731  40.842  15.273  12.568
85259W        W53732   9.726   6.799  12.037
85260W        W53733  36.477  26.200  13.360
85261W        W53734  29.075  36.524   0.306
85262W        W53735  38.025  12.143  14.003
85263W        W53736  21.661  30.582   4.300
85264W        W53737  39.325   2.772  12.873
85265W        W53738  29.028  30.443  14.331
85266W        W53739  33.382  28.968   1.857
85267W        W53740  31.046  40.445  12.968
85268W        W53741   5.764  22.103   2.264
85269W        W53742  18.121   2.780   0.934
85270W        W53743   3.428  10.235  14.297
85271W        W53744  13.174  17.067  10.617
85272W        W53745  35.902  33.885  13.899
85273W        W53746  13.660  34.060  14.294
85274W        W53747   9.175   2.298   2.399
85275W        W53748  17.265  15.288  14.403
85276W        W53749   4.428  27.658  11.417
85277W        W53750  35.906  14.238   4.204
85278W        W53751  13.791  25.178  14.856
85279W        W53752  28.461  34.566  10.626
85280W        W53753  34.418  10.290  12.500
85281W        W53754  32.070   7.749   2.266
85282W        W53755  39.405   1.812   1.782
85283W        W53756  28.100  22.697  10.993
85284W        W53757  26.975  30.572  11.406
85285W        W53758   3.891  32.550   3.366
85286W        W53759  29.931  38.435  14.449
85287W        W53760  40.375  44.816  13.936
85288W        W53761  26.615  21.054   0.251
85289W        W53762  34.942  42.826  13.991
85290W        W53763  33.914  14.738  11.424
85291W        W53764  21.081   0.763  11.003
85292W        W53765   3.357  29.140   1.928
85293W        W53766  21.526  21.018  12.504
85294W        W53767   3.249  39.993  12.352
85295W        W53768  26.461  28.054  12.859
85296W        W53769  16.779  28.933  13.919
85297W        W53770   4.364  41.349  11.571
85298W        W53771  37.896   4.915  11.478
85299W        W53772  17.754  27.956   0.276
85300W        W53773  12.796  42.925  14.857
85301W        W53774  16.147  32.920  11.935
85302W        W53775  18.105   7.415  13.906
85303W        W53776  29.457  15.585  14.928
85304W        W53777  32.888   5.244   0.844
85305W        W53778  14.119   0.327  13.546
85306W        W53779  24.497  39.855  11.988
85307W        W53780  17.560  36.023   1.748
85308W        W53781   4.384  30.038   1.450
85309W        W53782  38.457  12.765   1.824
85310W        W53783  26.075  33.597   4.329
85311W        W53784  43.434  33.882  12.084
85312W        W53785  15.188  25.160  12.064
85313W        W53786  25.060  43.015  11.991
85314W        W53787  17.190  22.573  14.933
85315W        W53788  19.041  36.089   1.734
85316W        W53789  18.709   5.909   1.790
85317W        W53790  33.022  21.690  11.125
85318W        W53791  17.627   6.404   4.120
85319W        W53792  32.019  23.635   4.723
85320W        W53793  21.663  11.333   0.741
85321W        W53794  32.598  33.903  13.489
85322W        W53795  18.102   6.210   4.346
85323W        W53796  39.023  37.574  14.428
85324W        W53797  21.249  10.868  12.021
85325W        W53798  23.030  27.614   9.947
85326W        W53799  42.804  39.536   3.262
85327W        W53800  37.536  30.450   3.710
85328W        W53801  11.648  40.892  13.874
85329W        W53802  25.697  18.582   4.155
85330W        W53803  11.791  32.008   2.780
85331W        W53804  22.097   9.204   2.894
85332W        W53805  21.195  15.651   3.164
85333W        W53806  24.540  37.945  14.385
85334W        W53807  29.670  16.702   3.170
85335W        W53808  43.440   8.693   0.883
85336W        W53809  10.279  34.464  12.013
85337W        W53810  17.173  10.314  14.990
85338W        W53811  28.614  43.885  13.445
85339W        W53812  17.241  34.591  12.883
85340W        W53813  10.685  37.345   4.745
85341W        W53814  30.920  18.272  13.401
85342W        W53815  29.005   3.305  14.369
85343W        W53816  15.728  26.991  14.324
85344W        W53817   8.819  29.069   0.745
85345W        W53818   5.227  30.483  12.368
85346W        W53819  38.493   7.708   3.181
85347W        W53820  36.480  31.503  11.521
85348W        W53821  28.535  10.244  12.965
85349W        W53822   1.774  17.261   0.745
85350W        W53823  32.612  23.040  12.895
85351W        W53824   8.817  23.492  14.792
85352W        W53825   2.754  33.532  13.050
85353W        W53826  22.119   8.406  14.323
85354W        W53827   4.289  33.029  10.535
85355W        W53828  33.902  24.981  11.575
85356W        W53829  43.868   8.333   4.263
85357W        W53830   1.332  33.918   3.829
85358W        W53831  17.207  16.801  13.000
85359W        W53832  15.182  20.128   1.246
85360W        W53833   8.855  30.071   3.375
85361W        W53834   7.255  39.326   0.765
85362W        W53835   3.746  26.027  12.846
85363W        W53836  39.026  24.117   5.151
85364W        W53837  18.131  28.582  14.975
85365W        W53838  43.870  19.228   3.188
85366W        W53839  11.669  36.354  12.535
85367W        W53840  11.833  14.793   3.190
85368W        W53841  27.691   7.851   3.842
85369W        W53842  25.081  13.150  12.946
85370W        W53843  22.180  26.981   2.722
85371W        W53844  37.899   8.696   3.836
85372W        W53845  41.421  14.592   4.263
85373W        W53846  27.677  16.202   1.910
85374W        W53847  25.608  16.730   1.383
85375W        W53848   4.382  32.997  14.779
85376W        W53849  15.260  42.449  13.796
85377W        W53850  27.559   7.386   3.312
85378W        W53851  35.921  11.778   1.287
85379W        W53852  44.407  32.094  11.074
85380W        W53853  41.341  38.545  11.894
85381W        W53854  20.568  26.551   1.245
85382W        W53855  29.552  16.783  11.568
85383W        W53856  14.649  29.599  12.362
85384W        W53857  35.086  19.672   3.233
85385W        W53858  27.522  39.448  11.901
85386W        W53859  11.247  30.593   3.275
85387W        W53860  24.513   3.429   1.695
85388W        W53861  42.294  41.414   3.214
85389W        W53862  43.017  35.406  10.527
85390W        W53863  44.279  13.225  11.609
85391W        W53864  36.086  25.087   2.889
85392W        W53865   3.375  18.266   2.246
85393W        W53866  13.130  16.299  11.899
85394W        W53867  21.516  12.197  14.967
85395W        W53868  17.200  18.601   1.871
85396W        W53869  20.129  18.053   0.735
85397W        W53870  38.043   7.357  10.587
85398W        W53871  28.680  23.164   4.218
85399W        W53872  26.078  23.024  14.418
85400W        W53873   8.247   7.782   3.149
85401W        W53874  28.023  33.967  11.546
85402W        W53875  43.457  22.195   4.252
85403W        W53876   1.873  36.851   0.466
85404W        W53877  31.103  31.563   4.690
85405W        W53878  18.672  26.176   0.468
85406W        W53879  43.921  40.328   4.298
85407W        W53880  13.155  15.803  11.565
85408W        W53881  37.995  35.021  14.457
85409W        W53882  36.421  37.509  10.427
85410W        W53883  12.311   2.335   0.786
85411W        W53884  17.741  21.185   1.713
85412W        W53885   7.320  43.806  12.842
85413W        W53886  43.373   0.771   3.168
85414W        W53887  28.143  10.842   1.720
85415W        W53888   9.888  12.267  13.384
85416W        W53889   6.872  27.172  13.526
85417W        W53890  22.055   5.239   1.255
85418W        W53891  27.545  32.515   2.745
85419W        W53892   2.919  30.617   3.387
85420W        W53893  24.127  13.606  14.885
85421W        W53894  34.116   3.248   0.937
85422W        W53895  14.228  13.149   0.320
85423W        W53896  43.827   8.314  14.910
85424W        W53897   4.419   8.381  12.505
85425W        W53898  22.663  28.459  13.524
85426W        W53899  40.009  13.322   2.255
85427W        W53900  27.077  11.807  13.335
85428W        W53901   3.942  32.120  12.572
85429W        W53902  24.138   0.917   0.887
85430W        W53903  34.462   1.471  13.421
85431W        W53904  35.517  39.886   1.767
85432W        W53905   9.644  25.527   4.704
85433W        W53906  20.675   3.340  14.985
85434W        W53907  13.331  37.880   0.912
85435W        W53908  35.419  12.219  10.460
85436W        W53909  14.620   1.331   0.955
85437W        W53910  27.608   2.926  13.475
85438W        W53911   3.281  36.016  11.495
85439W        W53912  35.993  42.388  12.506
85440W        W53913  19.542  41.797   0.782
85441W        W53914  22.575   6.374   0.248
85442W        W53915  20.213  36.982  14.964
85443W        W53916  23.551  15.774   3.667
85444W        W53917   5.392  15.758   1.447
85445W        W53918  16.167  26.643  11.415
85446W        W53919  16.791  21.716   2.281
85447W        W53920   4.701  36.847  12.462
85448W        W53921  18.257  38.333   0.727
85449W        W53922  44.919  10.195  12.372
85450W        W53923   5.295   5.876   1.239
85451W        W53924  44.440  19.775   1.319
85452W        W53925  18.574  31.057  11.483
85453W        W53926  31.520  12.702   3.374
85454W        W53927  27.004  36.369   4.257
85455W        W53928   8.353   6.794   3.666
85456W        W53929  29.038  32.565  12.023
85457W        W53930  35.376  39.500   4.640
85458W        W53931  34.042   9.327   1.227
85459W        W53932  32.619  38.873  14.286
85460W        W53933  25.012  42.324  11.917
85461W        W53934  11.138   4.269   0.334
85462W        W53935  43.903  41.964   4.739
85463W        W53936   7.177  24.071   4.705
85464W        W53937   0.832   3.734   2.751
85465W        W53938  33.072  24.542   4.148
85466W        W53939  33.084  11.358  12.392
85467W        W53940  14.226   2.370  14.426
85468W        W53941  41.891  40.315   3.360
85469W        W53942   1.482   4.282   4.766
85470W        W53943  44.449  24.642  13.033
85471W        W53944  27.516   6.297  13.430
85472W        W53945  40.323   0.431  14.351
85473W        W53946  25.182  11.738   3.799
85474W        W53947  23.604  15.167  13.449
85475W        W53948  25.012  44.855  13.903
85476W        W53949  35.467  16.309   4.687
85477W        W53950  14.150  12.763   4.234
85478W        W53951  39.500  23.629   0.370
85479W        W53952  19.673   5.774  11.983
85480W        W53953  35.027  28.652   3.319
85481W        W53954  44.790  41.967   1.719
85482W        W53955  27.494   0.866   5.100
85483W        W53956  23.062  21.728   3.280
85484W        W53957   9.781  37.058   9.921
85485W        W53958  36.997  16.276   3.323
85486W        W53959  23.594  34.059  13.824
85487W        W53960  10.231  44.350  13.371
85488W        W53961   2.231  12.833  11.010
85489W        W53962  11.185  34.568  13.964
85490W        W53963   3.900  19.241  13.338
85491W        W53964  37.002  39.971   1.406
85492W        W53965   1.823  25.603  14.017
85493W        W53966  27.068   7.189   1.917
85494W        W53967  25.977  27.600   3.263
85495W        W53968  32.609  14.704  11.549
85496W        W53969   9.274  10.823  14.826
85497W        W53970  26.971  33.973   1.451
85498W        W53971  23.640  10.802   4.652
85499W        W53972  14.691   1.465   4.207
85500W        W53973  31.450   8.820   5.162
85501W        W53974  44.760  42.448  14.860
85502W        W53975  35.577  39.530  11.554
85503W        W53976  13.743  15.328  12.469
85504W        W53977  26.008  20.667  14.347
85505W        W53978   3.743   1.343   4.620
85506W        W53979  40.462  18.142   2.885
85507W        W53980  17.671  23.173  11.517
85508W        W53981  21.532  13.187  14.509
85509W        W53982   8.258   8.898   0.964
85510W        W53983  41.326   3.839  11.376
85511W        W53984  40.362  23.616   2.287
85512W        W53985  40.467  35.958  13.819
85513W        W53986  16.772  22.520  12.003
85514W        W53987  26.541  27.513  13.819
85515W        W53988  14.632  17.659  14.915
85516W        W53989  24.705  43.803   1.265
85517W        W53990  23.014  26.182  12.543
85518W        W53991   9.383   6.372  12.916
85519W        W53992  16.127  34.954  10.587
85520W        W53993  30.997  26.566   2.803
85521W        W53994  17.671  38.827   4.831
85522W        W53995  10.871  41.425   1.338
85523W        W53996  22.997  27.656  12.006
85524W        W53997  11.656  20.624  14.024
85525W        W53998  44.475   6.226  12.949
85526W        W53999  23.169  37.990  11.599
85527W        W54000  42.329   0.354  13.461
85528W        W54001  26.682  11.756  12.885
85529W        W54002  42.320  23.705  11.877
85530W        W54003  10.755   8.897  12.379
85531W        W54004  34.389  44.922  11.479
85532W        W54005  15.138  19.043  13.362
85533W        W54006  29.943   0.250   1.796
85534W        W54007  10.765  22.658   4.745
85535W        W54008  31.525  24.073   4.307
85536W        W54009  18.742  25.987   0.892
85537W        W54010  44.979  10.233  11.460
85538W        W54011  38.499  28.587  13.399
85539W        W54012  29.440  14.596   2.793
85540W        W54013  17.736  20.181  10.890
85541W        W54014   6.891   5.223  13.982
85542W        W54015   4.898   2.891  11.586
85543W        W54016   2.362  43.280  11.991
85544W        W54017  37.405  35.579   0.326
85545W        W54018  13.635  32.093   2.811
85546W        W54019  22.180  22.240   2.208
85547W        W54020   1.803  28.154   5.289
85548W        W54021  31.464  17.583  11.406
85549W        W54022  31.916  28.611   1.219
85550W        W54023  39.346  34.873  11.527
85551W        W54024  32.499   1.976   3.309
85552W        W54025  30.642  37.070   4.237
85553W        W54026  38.896  36.367   0.352
85554W        W54027  23.540  12.146  13.450
85555W        W54028  24.117  41.421  13.877
85556W        W54029  34.088  40.832   0.935
85557W        W54030  32.620   4.296   4.298
85558W        W54031  24.615  40.859   3.762
85559W        W54032  15.283  11.774  11.413
85560W        W54033  35.076  19.744  10.050
85561W        W54034  33.969  15.794  10.897
85562W        W54035  43.488  28.643   3.809
85563W        W54036   8.766  19.715  14.410
85564W        W54037  19.132   1.932   0.289
85565W        W54038  35.056  13.751  12.088
85566W        W54039   1.797  30.653   1.757
85567W        W54040   6.891  15.221   5.220
85568W        W54041  35.868  25.144  13.800
85569W        W54042  42.308  18.256  12.832
85570W        W54043  28.679  14.242   3.798
85571W        W54044  42.810  15.784   5.255
85572W        W54045  26.611  18.180  13.045
85573W        W54046  31.563  19.208   1.387
85574W        W54047  29.052  12.804  14.372
85575W        W54048   5.753   5.297   2.364
85576W        W54049  11.728  32.949   0.424
85577W        W54050  10.196  21.652  12.474
85578W        W54051  22.571  13.147   4.599
85579W        W54052  18.206  20.163   2.362
85580W        W54053  23.152  23.143  11.992
85581W        W54054  22.229  22.714   1.309
85582W        W54055   6.897  20.273   3.362
85583W        W54056   6.692   0.419   2.868
85584W        W54057  23.499  27.091   0.844
85585W        W54058  36.861  17.698  11.863
85586W        W54059  30.560  43.476   2.863
85587W        W54060  31.418  16.268  14.998
85588W        W54061   9.192  44.272   0.953
85589W        W54062   2.874  39.364  10.493
85590W        W54063  17.626  25.644   2.199
85591W        W54064  34.904  35.861  12.404
85592W        W54065  16.183  20.250   3.374
85593W        W54066  15.809  34.542  14.413
85594W        W54067  25.122   0.326   1.414
85595W        W54068   6.807  17.729  12.094
85596W        W54069  26.477   5.820  11.879
85597W        W54070  44.438  41.421   0.259
85598W        W54071  17.588  16.100   0.899
85599W        W54072  16.809  32.414  11.978
85600W        W54073  22.615  36.434   0.256
85601W        W54074   0.350   8.275   4.779
85602W        W54075  32.523  34.087  11.496
85603W        W54076  33.391   3.327  12.867
85604W        W54077  44.766   3.856  13.364
85605W        W54078  34.922  13.612  11.589
85606W        W54079  20.605  29.023  10.429
85607W        W54080  36.875  24.985  13.401
85608W        W54081   9.333  23.181  13.009
85609W        W54082  33.547  37.464  11.081
85610W        W54083  42.865  28.531  14.960
85611W        W54084  32.999  26.207   4.159
85612W        W54085   5.326  20.764  10.977
85613W        W54086   0.316   8.692   2.391
85614W        W54087  17.689  33.440   0.401
85615W        W54088  42.878  12.815  14.833
85616W        W54089  38.885  28.476   0.951
85617W        W54090  32.898  20.683  14.396
85618W        W54091  43.430  42.992  14.956
85619W        W54092   5.364  31.593   1.344
85620W        W54093  17.623   8.900   0.836
85621W        W54094  20.736   9.753  14.377
85622W        W54095  16.172  26.581  10.941
85623W        W54096   0.403  28.018   2.883
85624W        W54097  40.451  43.489  11.003
85625W        W54098  26.629  22.082  10.148
85626W        W54099  14.820  34.413   1.332
85627W        W54100  11.154  20.731  11.929
85628W        W54101  29.655  18.788   1.868
85629W        W54102   6.254  13.124  14.314
85630W        W54103  21.720  40.371  11.476
85631W        W54104  36.433   1.298   0.820
85632W        W54105   7.381  42.918   4.772
85633W        W54106  42.304  25.625   0.456
85634W        W54107  27.147  28.562   1.754
85635W        W54108   8.352  29.985   3.295
85636W        W54109  31.957  12.201  11.882
85637W        W54110  14.208  26.604   9.920
85638W        W54111  43.495  18.188   5.125
85639W        W54112  14.132  23.056  10.890
85640W        W54113  11.243  24.991  12.069
85641W        W54114  21.588   9.275   1.744
85642W        W54115  13.725  24.651  13.378
85643W        W54116   8.195  32.108  13.841
85644W        W54117  41.504   8.206  11.868
85645W        W54118  35.853   5.716  10.603
85646W        W54119  38.468  18.051   1.379
85647W        W54120  39.419  32.991  10.621
85648W        W54121  31.612  33.521  12.407
85649W        W54122  34.419  40.485   4.796
85650W        W54123  13.697  20.697   3.326
85651W        W54124  22.201  19.589  12.562
85652W        W54125  20.230  10.215  13.321
85653W        W54126  44.299   7.372  14.814
85654W        W54127  34.093  27.559   4.237
85655W        W54128  12.745  15.602   2.379
85656W        W54129  20.581  13.670   1.367
85657W        W54130  44.499  35.030   2.248
85658W        W54131  15.726  35.537  13.509
85659W        W54132  10.221  30.966   2.280
85660W        W54133   9.388  25.670  11.509
85661W        W54134  25.650  22.727  11.103
85662W        W54135  19.671  35.539   4.224
85663W        W54136   2.746  40.318  14.982
85664W        W54137  26.097  24.006  10.914
85665W        W54138   2.939  35.415  14.842
85666W        W54139  32.414  10.218  14.293
85667W        W54140   3.281  27.982  14.492
85668W        W54141   6.215  14.217   2.827
85669W        W54142  42.508  11.273   4.736
85670W        W54143   7.777  10.822   1.904
85671W        W54144  42.438   4.410  11.014
85672W        W54145  22.579  39.008  11.059
85673W        W54146  14.656  42.939   4.281
85674W        W54147  31.907  28.115  14.327
85675W        W54148  34.015  19.639   4.804
85676W        W54149  28.459  15.801  11.129
85677W        W54150   3.886   4.713  14.963
85678W        W54151  14.129  19.625   0.478
85679W        W54152  26.658  19.173   3.334
85680W        W54153  41.431  43.378   0.401
85681W        W54154   3.270  14.649  12.064
85682W        W54155   6.230  22.717  14.408
85683W        W54156   9.302   0.801  13.945
85684W        W54157  14.330  14.775   2.397
85685W        W54158   1.874   8.240   4.699
85686W        W54159  40.942   9.879  12.419
85687W        W54160  35.902  21.550   4.755
85688W        W54161  12.315   2.768   2.669
85689W        W54162  34.453  18.144  12.975
85690W        W54163  20.062   2.472   4.838
85691W        W54164  37.054  30.910  13.009
85692W        W54165  42.414  21.544  11.588
85693W        W54166  37.839   2.339   3.277
85694W        W54167  14.589   9.324  14.944
85695W        W54168  18.549  23.674   4.280
85696W        W54169  44.354  24.530  13.461
85697W        W54170   0.840  10.642   2.298
85698W        W54171  41.396  19.217  14.451
85699W        W54172  25.472   1.441  11.104
85700W        W54173  33.055  15.803   0.392
85701W        W54174   5.267  15.203   3.786
85702W        W54175   7.199  35.491   3.848
85703W        W54176  16.695  13.674  10.516
85704W        W54177  30.981  15.679  12.837
85705W        W54178  44.899  19.081   1.706
85706W        W54179  19.602  18.240   0.460
85707W        W54180  18.278  33.902  10.891
85708W        W54181  38.407  38.437  14.906
85709W        W54182  18.659   1.803   4.319
85710W        W54183   5.389  40.484   4.210
85711W        W54184  25.967  28.553   0.848
85712W        W54185  13.804  17.677  11.938
85713W        W54186  23.663  12.661  14.766
85714W        W54187   0.935   6.788   3.813
85715W        W54188  40.518   8.355   4.804
85716W        W54189   4.864  11.240   4.740
85717W        W54190  36.571  43.986  12.077
85718W        W54191  40.393  21.590  13.442
85719W        W54192  40.515  36.433  13.013
85720W        W54193  10.875   3.748   3.201
85721W        W54194  27.165  24.607   2.246
85722W        W54195   1.375  33.384  10.551
85723W        W54196  43.798  17.158   1.910
85724W        W54197  10.262  15.200  14.514
85725W        W54198  24.693   9.667  12.546
85726W        W54199  22.562   7.759  11.114
85727W        W54200   8.284  32.116  12.039
85728W        W54201  37.875   5.841  13.059
85729W        W54202   2.382   3.268  13.485
85730W        W54203   0.270  44.908   2.891
85731W        W54204  32.521  17.217   4.323
85732W        W54205  16.662  44.865  13.342
85733W        W54206  35.429  44.783  14.353
85734W        W54207  41.521  24.009   4.216
85735W        W54208  18.084  44.766   3.716
85736W        W54209  18.789  22.209   0.868
85737W        W54210  24.127  22.606  10.439
85738W        W54211  18.667  35.584   3.214
85739W        W54212  31.572  12.220  12.557
85740W        W54213  29.079  16.691   2.700
85741W        W54214  14.734  33.593  14.012
85742W        W54215  17.635  14.142  12.547
85743W        W54216  28.083  22.228  10.600
85744W        W54217  27.982  23.232  10.545
85745W        W54218  32.033  18.172   3.797
85746W        W54219  16.731  36.923  13.462
85747W        W54220  32.577   6.772   1.434
85748W        W54221  36.973  38.937   4.126
85749W        W54222  29.063  22.093   0.330
85750W        W54223   0.381  16.752  14.990
85751W        W54224  40.343  42.812  13.940
85752W        W54225  31.910  16.266  10.406
85753W        W54226   5.873   7.405  14.798
85754W        W54227   9.714  43.900   3.216
85755W        W54228  40.902  35.856   3.261
85756W        W54229  44.467  39.425   4.662
85757W        W54230  40.520  39.014  14.872
85758W        W54231   2.352   8.700  10.440
85759W        W54232  40.363   2.331   4.186
85760W        W54233  32.568  31.436  11.080
85761W        W54234  19.110  39.971   4.600
85762W        W54235  22.631  23.611   2.890
85763W        W54236  24.214  22.616  14.462
85764W        W54237  21.752   1.323   0.963
85765W        W54238  31.928  32.481  11.958
85766W        W54239   6.723  20.723  11.921
85767W        W54240  23.541   9.764   3.315
85768W        W54241  21.727   7.697   0.862
85769W        W54242  42.507  25.965  12.930
85770W        W54243  24.129  26.093  13.426
85771W        W54244  38.534  25.056  12.053
85772W        W54245  10.162  20.030   2.806
85773W        W54246   0.351  34.481  12.068
85774W        W54247   7.350  15.137  10.467
85775W        W54248   0.972   5.865   4.803
85776W        W54249  18.644   5.759   0.340
85777W        W54250  14.287  12.181   1.745
85778W        W54251   4.271   9.745  12.958
85779W        W54252  30.054  42.983   0.441
85780W        W54253  24.535  29.165  13.343
85781W        W54254   6.247  15.320   2.409
85782W        W54255   9.328  41.904   2.739
85783W        W54256  12.638  25.658   0.291
85784W        W54257  14.794  23.633  13.450
85785W        W54258  12.727  27.455   4.193
85786W        W54259  13.182   7.704   4.265
85787W        W54260  25.156   9.728  12.562
85788W        W54261  23.589  28.973   1.711
85789W        W54262   9.835   1.803  14.279
85790W        W54263   8.394   3.818  11.535
85791W        W54264  43.281  19.577  14.282
85792W        W54265  42.490  44.367   3.817
85793W        W54266   4.712  24.982   5.217
85794W        W54267  40.314  38.505   2.342
85795W        W54268  22.555  21.683  10.502
85796W        W54269  41.013  23.544  11.981
85797W        W54270  31.566   5.899   2.397
85798W        W54271   6.776  39.980  11.456
85799W        W54272  30.453  13.648  13.854
85800W        W54273  12.291   6.779   3.813
85801W        W54274  40.908  16.190  11.948
85802W        W54275  11.252  33.484  10.921
85803W        W54276  40.466  21.645   0.325
85804W        W54277  34.952  38.510  12.456
85805W        W54278  22.667  36.471   0.814
85806W        W54279   6.683  26.649   4.695
85807W        W54280  22.656  18.624  11.466
85808W        W54281  21.730   8.269  11.045
85809W        W54282   3.254  15.808   5.178
85810W        W54283  44.784  36.993   3.277
85811W        W54284  22.167   9.832  13.356
85812W        W54285   5.744  33.065   1.840
85813W        W54286  13.735  14.671  14.401
85814W        W54287  24.682  27.630  11.075
85815W        W54288  34.565  42.017   2.718
85816W        W54289  17.677   2.373  14.507
85817W        W54290  37.556  30.023  14.503
85818W        W54291  43.884  44.952  10.447
85819W        W54292   1.914  12.753  13.995
85820W        W54293   6.731  24.648  14.910
85821W        W54294  23.031  30.584  12.855
85822W        W54295   7.280  30.437   3.154
85823W        W54296   5.748  28.443  13.431
85824W        W54297  28.549  35.386   2.364
85825W        W54298  12.799  12.830  12.441
85826W        W54299  23.125   4.430  12.908
85827W        W54300  31.908  19.713   4.786
85828W        W54301  35.500  29.026  14.838
85829W        W54302  41.793  21.229   1.715
85830W        W54303  32.933  10.187   3.152
85831W        W54304  16.580  11.184  14.914
85832W        W54305  11.214  37.502   3.788
85833W        W54306  26.164   0.982  13.353
85834W        W54307  27.066  20.162  12.523
85835W        W54308  11.864  14.113  12.973
85836W        W54309   9.877  37.366  12.010
85837W        W54310  41.037  28.073  14.291
85838W        W54311  19.695  12.738   1.215
85839W        W54312  10.876  22.157   2.180
85840W        W54313  12.819  15.759  13.847
85841W        W54314  44.779  40.466   1.241
85842W        W54315  21.549   7.343  12.031
85843W        W54316  12.148  18.728  14.366
85844W        W54317  13.290  16.687   4.632
85845W        W54318   4.837  29.156   4.251
85846W        W54319   1.425   5.932   4.707
85847W        W54320  14.187  22.203   3.195
85848W        W54321  35.387  38.440   3.209
85849W        W54322  28.993  37.490  12.431
85850W        W54323   9.210  23.062   4.689
85851W        W54324  36.468   0.944  11.105
85852W        W54325  34.527  14.623   1.794
85853W        W54326  21.145  26.087  14.432
85854W        W54327  27.675  38.362  14.839
85855W        W54328  19.118  32.512   4.309
85856W        W54329   7.706  10.735   0.389
85857W        W54330  31.613  11.204   1.446
85858W        W54331  17.162  22.676   1.251
85859W        W54332  24.099   8.256   2.215
85860W        W54333   5.695  31.047   4.707
85861W        W54334  33.976  33.404  10.893
85862W        W54335  29.024   3.880  12.475
85863W        W54336  11.707   4.410   0.364
85864W        W54337  27.035  16.695  11.512
85865W        W54338  17.741  13.821  13.473
85866W        W54339   3.422  42.464  11.101
85867W        W54340  11.629  32.100  10.577
85868W        W54341  27.977   1.898   1.903
85869W        W54342  23.076  14.719   2.813
85870W        W54343   6.373   9.348   1.704
85871W        W54344  34.114   5.385   0.768
85872W        W54345   5.353  36.561   3.653
85873W        W54346  27.996  12.306  10.016
85874W        W54347   9.258   8.369  14.374
85875W        W54348  33.544  39.350   4.639
85876W        W54349  39.361  37.443   0.346
85877W        W54350   1.303  43.894   1.388
85878W        W54351  44.951  22.658   1.724
85879W        W54352  24.550  20.088  14.817
85880W        W54353  34.538  39.910   3.208
85881W        W54354  16.658  40.487   0.285
85882W        W54355  22.149  40.905   0.835
85883W        W54356  11.824  15.129  13.318
85884W        W54357  23.168   0.888   0.753
85885W        W54358  28.051  24.709  13.958
85886W        W54359  41.530   5.717  14.453
85887W        W54360  11.270   3.847  12.853
85888W        W54361  30.470  25.570   2.779
85889W        W54362  16.279   3.366   0.451
85890W        W54363  29.648   0.762   4.124
85891W        W54364   3.832   3.269  10.909
85892W        W54365  30.522   3.839   1.346
85893W        W54366   3.822  22.136   2.752
85894W        W54367  19.225  38.926  10.923
85895W        W54368  30.415  28.155   3.648
85896W        W54369  17.671  11.816   3.224
85897W        W54370  44.950  31.594   4.641
85898W        W54371  15.269  20.573  11.092
85899W        W54372  40.466   6.288   2.396
85900W        W54373  16.248  33.526  11.975
85901W        W54374  33.554  20.063   2.893
85902W        W54375  24.541  16.117   1.285
85903W        W54376  26.136  33.016   4.606
85904W        W54377  36.462  38.066   1.749
85905W        W54378  36.933  14.729   0.436
85906W        W54379  12.338  34.014   1.351
85907W        W54380   5.728  28.991   2.856
85908W        W54381  26.200  13.724  10.977
85909W        W54382  34.057  12.142  10.528
85910W        W54383  19.221  16.098   0.418
85911W        W54384  25.534  22.188   2.203
85912W        W54385  22.131  40.532  10.922
85913W        W54386   8.196  34.116   4.303
85914W        W54387  30.159  12.159   4.281
85915W        W54388  12.220  15.669  14.864
85916W        W54389  42.379  44.354  11.098
85917W        W54390  41.839   2.330  11.482
85918W        W54391  17.098   6.800   2.324
85919W        W54392  34.867   3.715   1.342
85920W        W54393  34.876  10.208   2.902
85921W        W54394  34.371  36.062   3.284
85922W        W54395  31.116   7.776  11.435
85923W        W54396  21.045   5.699   0.809
85924W        W54397  42.445  37.051   4.128
85925W        W54398   6.738  35.856  13.906
85926W        W54399  21.252   4.372   0.880
85927W        W54400  38.829  18.115  10.057
85928W        W54401   6.325  12.849   3.650
85929W        W54402  42.454  13.796   3.175
85930W        W54403  37.838  30.463   1.338
85931W        W54404   8.843  17.072   2.874
85932W        W54405  32.618  13.656   2.364
85933W        W54406  22.716  29.985   3.763
85934W        W54407  41.420  31.629   4.238
85935W        W54408  24.167  35.093   5.268
85936W        W54409   7.258  25.049   2.863
85937W        W54410   6.888  28.118  14.337
85938W        W54411  21.583   9.248   3.811
85939W        W54412  36.520  12.792   0.325
85940W        W54413  21.244  30.917  13.356
85941W        W54414   2.404  35.862  13.453
85942W        W54415  25.089  28.117  11.509
85943W        W54416  13.226  25.511  12.390
85944W        W54417   0.399  28.052  12.988
85945W        W54418  34.941  41.026  13.049
85946W        W54419  39.950  41.507  11.521
85947W        W54420  29.012  12.154  11.037
85948W        W54421  12.127   2.801   0.259
85949W        W54422   8.721   1.239   3.789
85950W        W54423  26.661  15.740   1.778
85951W        W54424  29.610  43.465   2.682
85952W        W54425  34.523   1.869   4.289
85953W        W54426  19.227  34.954  14.843
85954W        W54427  39.459  34.443  11.929
85955W        W54428  37.579  27.060   1.400
85956W        W54429   1.297  10.714   3.636
85957W        W54430  29.451  44.954  14.963
85958W        W54431  32.599  12.749   3.209
85959W        W54432   4.880  36.463  11.471
85960W        W54433  24.137   1.237  14.824
85961W        W54434  44.399   5.934  10.433
85962W        W54435  13.669  14.211   4.294
85963W        W54436   4.871   4.832  11.942
85964W        W54437  16.097  13.258   4.321
85965W        W54438  14.825  40.532  12.990
85966W        W54439  26.613  21.173  11.862
85967W        W54440  22.241  13.126   2.686
85968W        W54441   0.876   7.341  13.425
85969W        W54442  29.461   8.762   2.664
85970W        W54443  31.498  26.688  12.826
85971W        W54444  16.150  23.565   0.747
85972W        W54445  18.184  29.052  14.896
85973W        W54446  14.201  37.565  11.007
85974W        W54447  20.082  14.242  14.335
85975W        W54448  21.634  36.084  10.894
85976W        W54449  23.548  33.921   2.368
85977W        W54450  29.026  22.234  11.930
85978W        W54451  27.137  23.210  10.424
85979W        W54452  22.603   7.252   1.391
85980W        W54453  29.555  31.976   5.270
85981W        W54454  18.296  40.033   0.733
85982W        W54455  43.484  31.466   4.789
85983W        W54456  14.830  24.100  14.027
85984W        W54457  10.769   3.429  10.116
85985W        W54458  27.617  23.571   2.233
85986W        W54459  29.122  33.905   0.921
85987W        W54460  23.690  37.014  14.960
85988W        W54461  21.513  42.366  14.450
85989W        W54462  11.348  11.635   1.279
85990W        W54463  42.908  22.655   4.179
85991W        W54464  28.510  21.114  12.096
85992W        W54465  42.447  44.401   0.467
85993W        W54466  25.166   6.200  13.379
85994W        W54467   0.256  34.035  10.632
85995W        W54468  21.719  40.009   1.801
85996W        W54469   1.953   9.850   3.163
85997W        W54470   3.408  35.000   4.242
85998W        W54471  32.532  24.654   0.266
85999W        W54472  37.933  42.511   0.755
86000W        W54473   5.713  17.110  13.502
86001W        W54474  30.159  24.671   2.783
86002W        W54475  16.119  44.928   2.743
86003W        W54476   2.748   5.398  12.972
86004W        W54477  12.626  38.039  14.419
86005W        W54478  22.205  12.132   0.847
86006W        W54479  29.000  32.941   1.316
86007W        W54480  26.004  36.002   2.333
86008W        W54481  30.947  34.887  11.902
86009W        W54482  42.501  20.627   0.286
86010W        W54483  30.955  18.194   3.669
86011W        W54484  42.779  29.539  14.984
86012W        W54485  39.524  31.404   0.313
86013W        W54486   8.216  41.339  12.013
86014W        W54487  38.544  16.657   4.312
86015W        W54488  37.385  24.139   1.812
86016W        W54489   0.388  13.751   3.753
86017W        W54490  10.821  41.969  13.020
86018W        W54491  28.628   9.676   4.752
86019W        W54492  29.429  30.933  12.040
86020W        W54493   6.277   1.810   2.356
86021W        W54494  29.515   4.717  12.533
86022W        W54495  37.380  12.301   1.805
86023W        W54496  36.562   9.381   1.303
86024W        W54497   5.826  31.553  14.911
86025W        W54498   3.810  12.164   2.837
86026W        W54499  30.460  38.549  10.595
86027W        W54500  21.136  24.023  11.424
86028W        W54501  18.566   6.835   3.292
86029W        W54502  40.901  34.394   0.404
86030W        W54503  13.125  31.079   2.675
86031W        W54504  27.151  39.931   2.367
86032W        W54505   2.311  41.464   4.172
86033W        W54506  38.001   5.693   0.373
86034W        W54507  27.039  25.479  13.830
86035W        W54508  33.878   2.893  13.444
86036W        W54509  15.807  17.752  13.544
86037W        W54510  12.257  41.852   3.863
86038W        W54511   5.279  36.936  10.437
86039W        W54512  16.784  28.102  11.509
86040W        W54513  32.087  41.989  12.475
86041W        W54514  28.112  20.130   2.892
86042W        W54515   2.810  18.724  14.336
86043W        W54516  22.596  44.399   4.204
86044W        W54517  40.915  18.274  12.393
86045W        W54518  10.713  24.520  13.941
86046W        W54519  40.358  21.076  12.405
86047W        W54520   4.849  32.913   4.777
86048W        W54521  40.020  29.932   3.742
86049W        W54522  23.241   0.421   4.784
86050W        W54523  39.402   6.349   0.269
86051W        W54524  23.548  40.955   2.730
86052W        W54525  17.615  26.151   2.279
86053W        W54526  41.410  29.474   2.350
86054W        W54527  32.629  41.456  13.544
86055W        W54528  13.145  20.216  11.459
86056W        W54529  38.936  12.276  14.305
86057W        W54530   3.356  21.184  12.470
86058W        W54531  22.716  34.523  13.354
86059W        W54532  44.832  38.449   3.177
86060W        W54533  30.450   3.860   4.354
86061W        W54534  18.707  40.309   1.927
86062W        W54535  30.611  12.234   2.218
86063W        W54536  40.340   7.795   3.723
86064W        W54537  29.651   2.801   3.726
86065W        W54538  10.238  19.660   0.342
86066W        W54539  16.129  24.678  12.829
86067W        W54540   4.917  10.197   0.320
86068W        W54541  23.671  33.437  11.930
86069W        W54542  35.443   8.166  12.047
86070W        W54543   8.381  35.545  12.028
86071W        W54544   3.313  39.460   4.172
86072W        W54545   3.917  43.480  14.360
86073W        W54546   5.857  13.163   0.481
86074W        W54547  14.655  12.794  11.919
86075W        W54548  24.212   2.432   1.705
86076W        W54549  39.929  39.314   4.829
86077W        W54550  12.722  27.959  10.603
86078W        W54551   0.291  14.620  14.402
86079W        W54552  16.723  43.384  12.056
86080W        W54553  18.151  16.708  12.929
86081W        W54554  29.076   2.411  11.373
86082W        W54555  28.964   5.736   3.212
86083W        W54556   1.943  42.952  12.379
86084W        W54557  20.749  26.529   2.375
86085W        W54558   4.922  32.542   4.653
86086W        W54559   7.818  17.557  10.528
86087W        W54560  22.528  14.308   2.802
86088W        W54561  31.104   1.867   0.946
86089W        W54562  13.818  31.447   2.762
86090W        W54563  18.164   3.718   2.366
86091W        W54564  33.532  40.809  10.890
86092W        W54565  34.032  39.880   4.212
86093W        W54566  40.460  16.074  12.485
86094W        W54567  30.967  10.790  14.907
86095W        W54568   4.391   4.770   5.604
86096W        W54569   7.390  12.269  13.796
86097W        W54570  12.275  17.139   2.855
86098W        W54571  20.149  29.978   1.812
86099W        W54572  31.522  29.978  12.972
86100W        W54573  21.234  10.159  13.539
86101W        W54574  17.798  28.998  12.380
86102W        W54575  12.218   9.343  10.989
86103W        W54576  44.754  44.477   3.696
86104W        W54577  25.970  40.996  14.451
86105W        W54578  38.550  36.476  11.473
86106W        W54579   6.334  14.813  13.944
86107W        W54580  30.647   8.397  12.539
86108W        W54581  38.519  38.851  11.057
86109W        W54582   4.431   1.900  10.613
86110W        W54583  36.414   5.747   0.280
86111W        W54584  12.684  18.203  12.010
86112W        W54585  11.677  18.583  11.606
86113W        W54586  13.771  25.654  12.562
86114W        W54587  36.015  15.770   0.343
86115W        W54588   2.830  26.591  12.521
86116W        W54589  16.180  11.777   3.869
86117W        W54590  19.153  35.075  12.438
86118W        W54591  37.353  17.225   0.422
86119W        W54592  24.695  27.089   4.246
86120W        W54593  14.644   6.425  14.404
86121W        W54594   3.799  34.531  11.018
86122W        W54595  23.044  30.090  12.853
86123W        W54596  23.212  18.746   3.333
86124W        W54597  43.889  11.671   4.627
86125W        W54598   0.884  38.981   5.282
86126W        W54599  41.503  17.686   4.641
86127W        W54600  11.302  16.693  13.036
86128W        W54601  11.366  22.598  10.437
86129W        W54602   5.372  11.168  13.511
86130W        W54603  32.403  39.455  10.597
86131W        W54604   9.655  27.098   3.257
86132W        W54605  20.694  24.667  12.357
86133W        W54606  18.567   1.241  11.418
86134W        W54607  16.809  20.270  10.558
86135W        W54608  38.885  23.090   4.229
86136W        W54609  27.490  12.194  13.023
86137W        W54610  29.006   5.427  13.791
86138W        W54611  44.868  33.101   1.281
86139W        W54612  42.365  26.630   2.770
86140W        W54613  27.551  16.629   3.310
86141W        W54614  22.727  13.832   4.820
86142W        W54615  43.884  29.936  13.378
86143W        W54616   4.312  36.460  13.445
86144W        W54617   3.402   0.835  12.424
86145W        W54618  22.106  20.219   2.213
86146W        W54619  40.906  30.057  13.822
86147W        W54620   9.382  24.594   0.468
86148W        W54621  33.393  25.014  10.479
86149W        W54622  12.799   1.316   4.639
86150W        W54623  43.361  10.303  13.371
86151W        W54624  35.519  27.560  11.613
86152W        W54625  10.635  18.146   4.146
86153W        W54626  16.577   1.932  13.512
86154W        W54627  18.238   1.895   1.735
86155W        W54628  22.219  29.920  13.041
86156W        W54629  14.277  30.923  11.128
86157W        W54630   4.934   0.926   5.127
86158W        W54631   6.781  32.982   3.680
86159W        W54632   9.184  39.056   2.207
86160W        W54633   1.870  26.496  12.838
86161W        W54634  42.855  30.946   0.910
86162W        W54635  16.081  19.138   4.219
86163W        W54636  27.618  33.590  11.867
86164W        W54637  18.226  27.455  10.530
86165W        W54638  21.627  12.163  13.495
86166W        W54639  19.536   1.965   1.315
86167W        W54640  29.548   8.764   1.928
86168W        W54641  16.726  26.619  10.970
86169W        W54642  26.040  28.653  10.609
86170W        W54643   9.232   1.763  13.541
86171W        W54644  26.614  27.012   3.713
86172W        W54645  21.740   0.924  13.860
86173W        W54646   4.900   1.793  12.433
86174W        W54647   3.930  20.741   4.114
86175W        W54648  42.866  42.342   4.179
86176W        W54649  12.357  30.577   3.239
86177W        W54650  38.540  26.690  10.521
86178W        W54651   8.684  34.076   4.121
86179W        W54652   2.401  42.010   0.399
86180W        W54653  27.470  28.125   0.911
86181W        W54654  32.101  44.000   4.145
86182W        W54655  29.128   5.690   2.296
86183W        W54656  17.280  24.582   4.691
86184W        W54657  11.163  29.054   2.395
86185W        W54658  29.131  15.637   1.281
86186W        W54659  36.434  13.270  14.303
86187W        W54660  35.028   6.858  14.463
86188W        W54661  33.439   9.684   4.270
86189W        W54662  37.535  36.887  10.581
86190W        W54663  10.850  35.365   4.707
86191W        W54664   2.885  42.958  11.559
86192W        W54665  14.752  37.976   5.700
86193W        W54666  30.114   7.903  14.321
86194W        W54667  13.193   8.657  11.054
86195W        W54668   1.355  14.808  13.923
86196W        W54669  20.219   7.864  13.511
86197W        W54670   3.361  30.623  10.089
86198W        W54671  44.321  19.229   1.719
86199W        W54672  37.442  19.056  10.493
86200W        W54673  43.968  37.928  14.464
86201W        W54674  13.175  13.222  12.521
86202W        W54675  13.837   5.289  11.897
86203W        W54676  16.706  37.083   4.731
86204W        W54677  10.821   2.319  10.635
86205W        W54678  14.209   6.314  14.499
86206W        W54679  31.150  10.841  14.293
86207W        W54680   5.809  27.544  14.845
86208W        W54681  36.502  11.782  13.992
86209W        W54682   0.255  31.455   3.727
86210W        W54683   0.819  37.433   4.123
86211W        W54684   4.432  13.819  11.412
86212W        W54685  34.614  39.481  13.851
86213W        W54686  30.929  42.822   3.856
86214W        W54687  43.456  39.954   3.204
86215W        W54688  18.098  25.600   0.747
86216W        W54689   7.263  37.045  12.505
86217W        W54690  13.799  18.112  14.275
86218W        W54691  29.585  36.888   2.235
86219W        W54692   1.966  29.533   2.288
86220W        W54693  37.520  24.089   4.217
86221W        W54694   5.259  44.859   3.275
86222W        W54695   0.337  34.614   1.817
86223W        W54696  24.129   1.440   1.809
86224W        W54697  30.918  33.059   4.151
86225W        W54698   8.800  27.129   2.898
86226W        W54699  18.548  23.038   1.727
86227W        W54700  30.040   0.787   0.794
86228W        W54701  35.000  18.265   5.187
86229W        W54702  22.737  33.977  11.567
86230W        W54703  37.881   9.715   3.636
86231W        W54704  20.052  28.553  14.939
86232W        W54705  18.076   4.237   3.697
86233W        W54706  12.167   6.799  12.958
86234W        W54707   3.398  34.016   1.902
86235W        W54708  18.645   1.311   4.317
86236W        W54709  27.523   4.944   4.804
86237W        W54710  33.477  16.677  11.053
86238W        W54711  16.161   9.225  10.957
86239W        W54712  35.461  36.587  10.898
86240W        W54713  36.060  26.163  12.836
86241W        W54714  31.636  29.607  14.327
86242W        W54715   6.777  32.585  13.828
86243W        W54716  29.495  24.654  14.909
86244W        W54717  11.738  15.661  10.490
86245W        W54718  22.522   0.768  14.418
86246W        W54719  35.358  37.410   1.922
86247W        W54720  38.431   2.383  10.914
86248W        W54721  42.004  39.991   4.157
86249W        W54722   9.371   9.199   1.245
86250W        W54723  38.544  41.896   2.390
86251W        W54724   7.339   5.868   1.394
86252W        W54725  34.560  20.099   3.224
86253W        W54726  25.027  18.600  14.505
86254W        W54727   7.184  22.087  12.835
86255W        W54728  25.619   0.357   1.882
86256W        W54729  42.347  43.465   3.200
86257W        W54730  35.990  43.458   1.919
86258W        W54731  31.531  39.890  11.604
86259W        W54732  28.491  23.633   3.720
86260W        W54733   5.377  41.983   0.399
86261W        W54734  14.613  40.940   2.900
86262W        W54735  26.051  34.059  14.330
86263W        W54736   0.288  14.799   3.657
86264W        W54737  10.217  11.701  14.312
86265W        W54738  43.283  33.993  10.423
86266W        W54739   1.898  33.045   1.273
86267W        W54740  38.378  22.682  12.415
86268W        W54741  42.886  29.092   3.358
86269W        W54742   1.753   8.668   2.359
86270W        W54743   3.433  22.691  11.541
86271W        W54744  21.103  33.506  14.918
86272W        W54745  14.634  21.750  13.011
86273W        W54746  22.593  30.986   0.765
86274W        W54747  25.013  11.223  10.960
86275W        W54748   9.270  41.804  14.353
86276W        W54749  23.536  42.521   0.745
86277W        W54750  13.340  14.589   4.639
86278W        W54751  35.439  24.157   0.363
86279W        W54752  12.266  39.059   2.273
86280W        W54753   4.299  24.708   1.802
86281W        W54754  22.129  24.015   0.407
86282W        W54755  20.674  18.766   1.427
86283W        W54756   1.278  29.039   0.892
86284W        W54757  28.084  32.885   0.771
86285W        W54758  25.966  35.981   0.966
86286W        W54759  16.244  19.180   3.796
86287W        W54760   5.261  41.792   2.407
86288W        W54761   6.812  44.937   2.299
86289W        W54762  12.270  29.155  11.580
86290W        W54763  21.071  13.638  13.845
86291W        W54764  26.159  26.514  12.048
86292W        W54765  16.316  39.537   0.945
86293W        W54766  30.097  29.099   2.277
86294W        W54767  23.999  35.853   1.442
86295W        W54768  16.800  35.423  11.374
86296W        W54769  31.099   4.710   4.149
86297W        W54770  30.632  18.210  10.503
86298W        W54771   1.797   1.363  10.452
86299W        W54772  22.733  19.707  11.077
86300W        W54773  26.573  15.210  11.433
86301W        W54774   5.902  16.598   4.833
86302W        W54775  25.173  19.636  11.613
86303W        W54776  23.985  23.025  11.078
86304W        W54777  39.909   3.768   2.736
86305W        W54778  38.395  24.079   0.459
86306W        W54779   7.204   3.731   0.966
86307W        W54780  33.552   0.273  13.345
86308W        W54781  22.181  42.899   1.286
86309W        W54782   8.861  43.325  14.955
86310W        W54783  20.646   6.776  11.573
86311W        W54784  19.261  12.162  12.345
86312W        W54785  43.774   0.826   1.334
86313W        W54786  15.803  43.469  10.942
86314W        W54787  23.588  29.610   3.845
86315W        W54788  18.094   7.185  12.432
86316W        W54789  42.922  33.594   0.359
86317W        W54790  16.165  39.901  14.300
86318W        W54791   2.417  16.102  13.012
86319W        W54792   6.332  24.511  14.859
86320W        W54793  15.760   8.213   2.253
86321W        W54794  25.009  34.067   1.794
86322W        W54795   3.934   1.826  14.005
86323W        W54796  32.410  35.873   3.768
86324W        W54797   4.767   6.263   4.127
86325W        W54798   8.768  10.737  10.976
86326W        W54799  23.668  38.436  10.512
86327W        W54800  41.789  40.480  11.432
86328W        W54801   1.923   9.317  10.642
86329W        W54802  37.982  29.434  11.118
86330W        W54803  21.686   7.205  11.414
86331W        W54804  11.851  23.135  11.109
86332W        W54805  32.477  21.518   1.784
86333W        W54806   1.276   9.679  11.027
86334W        W54807  39.409  43.977   3.189
86335W        W54808  19.256  25.174   2.194
86336W        W54809  20.257  29.994  13.972
86337W        W54810  35.002  36.089   1.437
86338W        W54811  19.188  40.872   3.259
86339W        W54812  24.198  24.208   0.332
86340W        W54813  34.439  36.500  13.333
86341W        W54814  29.626   2.827   4.159
86342W        W54815  16.647   6.392  11.523
86343W        W54816   0.430   6.908   3.674
86344W        W54817  14.590  35.967   5.214
86345W        W54818  32.418  39.337   2.276
86346W        W54819  26.016  16.157  13.407
86347W        W54820  36.963  35.471   2.807
86348W        W54821  37.555  31.463   1.318
86349W        W54822   6.203  15.716   1.733
86350W        W54823  21.188  27.030  13.462
86351W        W54824  22.137  28.445  11.855
86352W        W54825   9.887  42.019  12.382
86353W        W54826  29.998  33.081  13.824
86354W        W54827   2.310   5.423   0.428
86355W        W54828  29.932  27.611  13.842
86356W        W54829   7.848   4.855   5.766
86357W        W54830  40.436   9.223   4.268
86358W        W54831  41.039  41.379  11.542
86359W        W54832  24.979  12.642   1.276
86360W        W54833  40.005  36.996   0.473
86361W        W54834  17.222  40.966   1.722
86362W        W54835  21.519  10.728   2.250
86363W        W54836  39.450  43.017  11.551
86364W        W54837  16.269  13.697  14.770
86365W        W54838  23.689  17.680   1.442
86366W        W54839  16.811  12.238   0.869
86367W        W54840  32.112   2.305  14.949
86368W        W54841  27.516  27.526   4.720
86369W        W54842  40.455  34.097   1.257
86370W        W54843  40.942   5.349  11.507
86371W        W54844  37.864  36.877   4.339
86372W        W54845   8.711  26.993  13.509
86373W        W54846  10.635  26.093   3.377
86374W        W54847  10.313  35.964  11.891
86375W        W54848  34.889  39.890   2.890
86376W        W54849  36.531  26.648   4.132
86377W        W54850  15.310  12.131  12.065
86378W        W54851  15.754  12.339  13.997
86379W        W54852   2.901  31.954   3.223
86380W        W54853  29.153  25.632   0.376
86381W        W54854   4.699  19.068  14.975
86382W        W54855  24.543  29.634  13.941
86383W        W54856  18.622  23.567  13.015
86384W        W54857   0.348  44.444  11.405
86385W        W54858  30.989  31.624  11.093
86386W        W54859  13.303  20.611  13.322
86387W        W54860  17.663   8.201   2.190
86388W        W54861  14.203  23.627   4.723
86389W        W54862  39.320   2.404   2.273
86390W        W54863  26.118  40.906   1.292
86391W        W54864  28.123  24.137  11.877
86392W        W54865  12.121  31.613  12.979
86393W        W54866  17.667   4.733  14.882
86394W        W54867  27.127  37.846   0.349
86395W        W54868  12.293  11.321  12.488
86396W        W54869  18.742  24.718  12.477
86397W        W54870  32.954  25.565  14.515
86398W        W54871  35.884  24.168  10.956
86399W        W54872  17.573   3.884  13.458
86400W        W54873  31.508  37.979  12.491
86401W        W54874  41.330  40.374   3.848
86402W        W54875  16.281  22.195  12.541
86403W        W54876  11.267  23.993   5.713
86404W        W54877   3.308  24.184  14.328
86405W        W54878  10.263  26.500  12.468
86406W        W54879  19.108   5.929   0.273
86407W        W54880   7.246  12.257  12.904
86408W        W54881  33.055   0.794  13.339
86409W        W54882   4.707   6.831   5.715
86410W        W54883  41.803  27.629  12.033
86411W        W54884  14.610  31.478  13.995
86412W        W54885  26.658  26.482  13.006
86413W        W54886  32.496  13.304   4.208
86414W        W54887   7.717  24.041   9.491
86415W        W54888   6.265  37.843   2.874
86416W        W54889  40.423  23.576  13.905
86417W        W54890  16.122  40.544  14.346
86418W        W54891  27.040  33.498   0.918
86419W        W54892  39.491  37.560   3.654
86420W        W54893  41.300   5.262   3.373
86421W        W54894  16.120  38.384   2.191
86422W        W54895   5.266  23.030   4.227
86423W        W54896  30.488  42.951  11.927
86424W        W54897  25.964  28.020   3.154
86425W        W54898  30.433  10.158  14.794
86426W        W54899   3.737   6.391  13.916
86427W        W54900  13.611  36.504  12.898
86428W        W54901  14.678  43.416  12.510
86429W        W54902  15.237  34.055  10.635
86430W        W54903  24.487  20.223  12.563
86431W        W54904  37.463  44.492  11.863
86432W        W54905  32.055  36.089  10.116
86433W        W54906  43.834   4.898  10.904
86434W        W54907  32.989  10.820  11.524
86435W        W54908  42.283  11.866   0.807
86436W        W54909  11.243  40.391  14.412
86437W        W54910  37.579  29.450   5.255
86438W        W54911  33.038  34.540   0.371
86439W        W54912  43.859  11.326  14.759
86440W        W54913  26.667  35.532  13.494
86441W        W54914   9.872  42.963   2.700
86442W        W54915  19.728  26.672  12.413
86443W        W54916  26.677  27.504  11.466
86444W        W54917  21.720  27.179   1.428
86445W        W54918  23.216  35.905   4.287
86446W        W54919   1.445   3.335   4.648
86447W        W54920  14.164  42.006  11.035
86448W        W54921  22.107   9.290   2.184
86449W        W54922  33.994  17.616   3.788
86450W        W54923  43.415  29.604  12.476
86451W        W54924   6.716  30.540   1.410
86452W        W54925  17.269  11.652  12.906
86453W        W54926  44.447  22.226  12.495
86454W        W54927  32.635  44.274   5.322
86455W        W54928  44.389  27.594  11.125
86456W        W54929  19.616   6.723   2.283
86457W        W54930  11.264  15.817  14.825
86458W        W54931  17.625  25.596   0.439
86459W        W54932  31.139  38.330   1.242
86460W        W54933  14.278  29.922  10.611
86461W        W54934   3.435  31.438  12.383
86462W        W54935   9.836   7.208   3.726
86463W        W54936  36.885  27.659   0.904
86464W        W54937  43.302  16.259  13.470
86465W        W54938  17.674   7.345   3.863
86466W        W54939  40.429  12.828  12.039
86467W        W54940  35.030  27.629   0.790
86468W        W54941  30.067  42.480  14.912
86469W        W54942  26.204  28.600  13.800
86470W        W54943  23.185  26.520   2.285
86471W        W54944  36.374  18.087   1.264
86472W        W54945  42.957  18.587  11.570
86473W        W54946  25.478   2.811   2.815
86474W        W54947   2.849  28.128  11.117
86475W        W54948  41.850   1.267  11.457
86476W        W54949  13.124  19.566   3.666
86477W        W54950  38.440  27.498  10.985
86478W        W54951   7.178   1.243   4.246
86479W        W54952  13.122  33.464  11.424
86480W        W54953   7.417   6.410   2.878
86481W        W54954   6.824  36.982  14.492
86482W        W54955  26.981  23.160   1.723
86483W        W54956  36.936  12.296   1.702
86484W        W54957  10.195  20.156   1.768
86485W        W54958  42.914  30.549  14.777
86486W        W54959  10.266  44.992  12.462
86487W        W54960   0.865  44.420   4.665
86488W        W54961  34.438   1.399  11.424
86489W        W54962   0.926  21.604  14.275
86490W        W54963  11.669   1.267  14.020
86491W        W54964   6.870  19.613  13.313
86492W        W54965  10.340  21.754   1.924
86493W        W54966  10.364  34.916   3.281
86494W        W54967  16.646  43.441   1.872
86495W        W54968   9.743  15.121   4.603
86496W        W54969  32.056  41.315   0.885
86497W        W54970  20.258   3.273   3.654
86498W        W54971  15.264  24.646   3.264
86499W        W54972  36.516  22.720  11.050
86500W        W54973  19.633  17.630  14.868
86501W        W54974  12.234  20.540   2.376
86502W        W54975  40.542  11.677   1.343
86503W        W54976  43.977  44.924   3.337
86504W        W54977   3.860  30.628  12.965
86505W        W54978  26.187  35.874   0.290
86506W        W54979  33.383  29.561   4.806
86507W        W54980  16.579   7.707  11.496
86508W        W54981   4.276  26.972  14.422
86509W        W54982  31.553   2.963  11.990
86510W        W54983   8.347  12.132  14.860
86511W        W54984  34.899  16.686  14.903
86512W        W54985  26.643  21.555   4.785
86513W        W54986  21.621   4.798   2.384
86514W        W54987  24.569  25.624   1.418
86515W        W54988   6.897  11.671  12.034
86516W        W54989  26.505  13.242   0.768
86517W        W54990   0.437  18.656   3.166
86518W        W54991  36.875  32.552   2.709
86519W        W54992   9.719  34.067   4.184
86520W        W54993  34.471   9.295   1.316
86521W        W54994  42.525   6.681   2.331
86522W        W54995  22.238  12.740   2.710
86523W        W54996  41.940  17.295  10.125
86524W        W54997  35.104  37.532   2.252
86525W        W54998  25.671  25.177  10.082
86526W        W54999  35.489  12.353  14.798
86527W        W55000  21.033  25.050   0.479
86528W        W55001  31.004  34.034  12.931
86529W        W55002  21.252  13.114  14.955
86530W        W55003  39.999  21.098   4.741
86531W        W55004  32.943   5.280   1.438
86532W        W55005   8.885  16.179   2.242
86533W        W55006   6.381  10.751  13.013
86534W        W55007  23.142  40.013  11.923
86535W        W55008  23.669   4.311  13.043
86536W        W55009  44.008   5.881   0.263
86537W        W55010  34.970  27.471  13.397
86538W        W55011   0.333  34.953  14.370
86539W        W55012  29.087  38.861   3.709
86540W        W55013  40.359  20.109   1.423
86541W        W55014  19.659  24.195  12.884
86542W        W55015  42.415   5.313  10.977
86543W        W55016   0.435  30.108   3.191
86544W        W55017  35.589  11.232  11.101
86545W        W55018  34.612   7.286   4.314
86546W        W55019  17.674  27.621   0.817
86547W        W55020   1.370  20.033  14.802
86548W        W55021  21.733  25.473   9.537
86549W        W55022  44.290   5.706   4.620
86550W        W55023  19.724  28.167   1.407
86551W        W55024  19.091   6.274   0.464
86552W        W55025  24.016  44.350   2.782
86553W        W55026  14.276  31.958  14.875
86554W        W55027  27.975  24.493  13.534
86555W        W55028  37.899  36.513  14.879
86556W        W55029  25.573  44.905  11.906
86557W        W55030  43.431  43.898   0.817
86558W        W55031  37.845  37.576  12.517
86559W        W55032   6.397  25.176  13.514
86560W        W55033  21.534  10.689   0.460
86561W        W55034  40.890  39.876  12.002
86562W        W55035  43.277   9.663   2.768
86563W        W55036  17.634  30.102  12.039
86564W        W55037   4.331   8.785  14.467
86565W        W55038  26.188  35.400  12.964
86566W        W55039  24.641  40.925   3.245
86567W        W55040  16.746   9.151  10.532
86568W        W55041  38.932  28.004  12.391
86569W        W55042   0.450  21.615   3.353
86570W        W55043  26.488   9.267   3.208
86571W        W55044   9.748  27.034  11.908
86572W        W55045  16.121   8.240   2.386
86573W        W55046  17.677   8.873  12.948
86574W        W55047  24.155  42.837   1.312
86575W        W55048  27.959  23.523  11.944
86576W        W55049  24.091  23.078  13.975
86577W        W55050  41.809  28.110  13.045
86578W        W55051  11.832  24.533  11.592
86579W        W55052  42.450  37.413  12.969
86580W        W55053  14.686  21.185  11.041
86581W        W55054  34.540  22.185  11.079
86582W        W55055  38.558  32.607   0.764
86583W        W55056  17.572  21.245   3.340
86584W        W55057  39.960  26.648  14.976
86585W        W55058  30.581   5.834  11.575
86586W        W55059  32.554   6.678   2.747
86587W        W55060  24.691  11.754  11.591
86588W        W55061  11.822  30.011   2.245
86589W        W55062  26.537   4.417  13.424
86590W        W55063  22.710  18.658  13.865
86591W        W55064  41.016  23.509   4.610
86592W        W55065  25.498  34.068  10.595
86593W        W55066  25.083   6.760  12.834
86594W        W55067   9.748  25.093  10.964
86595W        W55068   9.368  34.431   0.477
86596W        W55069  27.631   5.228   4.185
86597W        W55070   0.428  25.083   0.257
86598W        W55071  33.498  43.448  10.132
86599W        W55072   6.414  23.146   4.296
86600W        W55073  15.796   2.722   2.667
86601W        W55074  35.493  24.063   2.890
86602W        W55075   2.284  36.568  14.323
86603W        W55076   3.241  13.122   3.219
86604W        W55077  34.954  36.867  13.395
86605W        W55078   5.427  30.063  14.969
86606W        W55079  32.920   5.729   3.332
86607W        W55080  19.204  17.633  13.397
86608W        W55081  10.244  41.475  10.635
86609W        W55082  29.664  37.889   2.789
86610W        W55083   0.761  42.506   4.654
86611W        W55084  28.638  19.261   2.218
86612W        W55085  24.030  37.974  14.768
86613W        W55086  31.939  17.608  12.360
86614W        W55087  23.657  44.859  13.385
86615W        W55088   6.906  43.973   3.808
86616W        W55089   2.449  32.629  14.828
86617W        W55090   5.225  21.528   0.781
86618W        W55091  44.858  35.449   0.290
86619W        W55092  36.508  25.058  13.974
86620W        W55093  36.905   3.734   2.350
86621W        W55094  32.576   0.316  12.557
86622W        W55095  38.989  17.193   3.160
86623W        W55096   2.953  15.148   4.660
86624W        W55097  15.278  17.063  10.547
86625W        W55098  27.114  23.537   0.760
86626W        W55099  38.884   2.232  14.447
86627W        W55100  22.634  37.381   4.720
86628W        W55101  38.476  26.016  14.914
86629W        W55102  41.877  14.317   3.668
86630W        W55103   1.458  27.568  12.346
86631W        W55104  10.367   9.274   1.445
86632W        W55105  39.314  39.041  12.460
86633W        W55106   3.239  10.225  14.861
86634W        W55107  31.967  29.555  13.497
86635W        W55108  25.026  35.084   3.178
86636W        W55109  24.570  32.899   1.320
86637W        W55110  32.601  10.723  10.916
86638W        W55111  17.578  32.034  14.874
86639W        W55112   5.384  27.516   0.428
86640W        W55113  15.722  17.623  12.408
86641W        W55114  30.119  44.349   1.236
86642W        W55115  13.669   7.772   1.330
86643W        W55116  35.404  12.755  11.443
86644W        W55117   7.769  29.110  12.893
86645W        W55118   3.219   0.812   0.951
86646W        W55119  32.023  24.495  13.521
86647W        W55120   6.183  25.127  12.915
86648W        W55121  30.127  34.016   4.141
86649W        W55122   2.389  40.895   1.231
86650W        W55123  37.045  38.896  14.440
86651W        W55124   7.295   7.827   2.816
86652W        W55125  32.456  13.649   0.799
86653W        W55126  19.098  36.527   3.675
86654W        W55127  22.602   4.928  14.994
86655W        W55128  26.155  15.245   2.344
86656W        W55129  41.464   7.395   1.730
86657W        W55130  33.937  15.736   0.242
86658W        W55131  29.951  25.192   5.195
86659W        W55132  30.020   5.318   2.705
86660W        W55133  27.103  40.935  12.349
86661W        W55134  25.549   6.898   4.257
86662W        W55135   9.877  40.944   3.178
86663W        W55136  39.888   2.739   2.270
86664W        W55137  16.729  35.045  12.084
86665W        W55138  21.662   3.813  10.889
86666W        W55139   0.930   1.253  10.604
86667W        W55140  32.045  26.092  14.022
86668W        W55141  44.390  20.207  11.494
86669W        W55142  37.484  32.040  13.794
86670W        W55143  42.406  18.548   0.369
86671W        W55144  24.541  12.221   4.782
86672W        W55145  28.150   8.231   3.151
86673W        W55146   3.880  40.427  12.954
86674W        W55147  35.465  12.219  12.866
86675W        W55148  11.152   6.235   1.315
86676W        W55149  21.653  35.039   1.773
86677W        W55150  34.997   1.937   2.834
86678W        W55151  38.979  11.230  12.889
86679W        W55152  11.189   1.429   2.412
86680W        W55153  20.526  31.990  11.128
86681W        W55154  22.142  28.975   1.436
86682W        W55155   2.402  34.090   3.155
86683W        W55156   0.963  44.974   0.768
86684W        W55157   9.194  29.031   2.862
86685W        W55158  14.783  18.774   2.361
86686W        W55159  41.842  29.926  11.533
86687W        W55160   9.276   1.358  14.414
86688W        W55161  37.086  11.748   4.671
86689W        W55162  13.234  12.616  14.981
86690W        W55163  41.842  37.929  12.014
86691W        W55164  20.232   5.891  11.058
86692W        W55165  10.824   1.405   2.349
86693W        W55166   4.931  24.030  11.501
86694W        W55167  36.580  17.263  10.495
86695W        W55168  10.175  22.603   0.766
86696W        W55169  19.239  14.674  14.007
86697W        W55170  21.673  23.593   0.912
86698W        W55171  14.303  26.640  14.937
86699W        W55172  39.440  43.775   4.797
86700W        W55173  26.624  29.947  13.962
86701W        W55174  43.857  36.427   2.858
86702W        W55175  12.656  43.467  12.963
86703W        W55176  17.577  34.394  14.916
86704W        W55177  17.283  30.952  10.094
86705W        W55178  14.798  37.349   3.696
86706W        W55179  24.707  43.387   0.747
86707W        W55180  14.144  16.211  10.596
86708W        W55181  14.252   1.811   1.718
86709W        W55182   5.768  25.504   4.801
86710W        W55183  10.765  20.596  11.058
86711W        W55184   9.338   2.318   1.860
86712W        W55185  34.396  38.844  14.916
86713W        W55186  21.022  16.574   2.901
86714W        W55187  34.881  34.021   4.305
86715W        W55188  13.806  28.513   4.754
86716W        W55189  22.204   4.927  14.861
86717W        W55190  30.036  10.655   1.365
86718W        W55191  11.679   4.370  11.565
86719W        W55192   0.760  42.499   3.642
86720W        W55193  42.862  42.813  13.398
86721W        W55194   8.822  21.696  13.033
86722W        W55195  27.586  41.849  10.486
86723W        W55196   1.267  34.380   2.731
86724W        W55197  37.913  17.089  13.471
86725W        W55198  42.511  19.753  14.935
86726W        W55199  19.216  25.504  12.851
86727W        W55200  31.548  15.161   2.665
86728W        W55201  37.430  25.206   2.797
86729W        W55202  19.646  43.893  13.950
86730W        W55203  28.553  20.259   4.333
86731W        W55204  43.364   1.425  11.864
86732W        W55205  17.639  37.339  12.017
86733W        W55206   0.900  26.971  10.039
86734W        W55207   5.435  30.053  11.991
86735W        W55208  11.640  24.157   4.778
86736W        W55209  12.738   7.853   4.252
86737W        W55210  44.954  38.067   3.158
86738W        W55211   2.389  37.950  11.491
86739W        W55212  29.573   9.890  10.519
86740W        W55213  36.871  30.522   2.798
86741W        W55214  17.758  34.989   2.394
86742W        W55215  40.885  18.579   3.808
86743W        W55216   6.420   0.844  12.491
86744W        W55217  20.703   5.316   0.303
86745W        W55218   1.360  35.500   0.943
86746W        W55219  10.207  33.121  13.510
86747W        W55220  21.680  43.929   1.364
86748W        W55221  22.698  24.037   4.777
86749W        W55222  39.528  17.760  12.456
86750W        W55223  14.810  11.238  13.434
86751W        W55224  22.121  31.076  14.011
86752W        W55225  15.234  24.018   0.290
86753W        W55226   4.904  32.114  11.035
86754W        W55227  15.096  32.460  10.487
86755W        W55228  37.481  26.975   3.246
86756W        W55229  24.055  36.577  10.939
86757W        W55230   8.693  20.617  12.886
86758W        W55231  29.564   0.445   2.850
86759W        W55232  34.412  16.082  10.426
86760W        W55233  10.836  20.122   1.383
86761W        W55234  36.496   1.894   0.900
86762W        W55235  13.794  17.790   3.832
86763W        W55236  13.648  15.688  13.376
86764W        W55237  24.719  19.071   0.946
86765W        W55238  25.125  19.225  13.494
86766W        W55239   2.802  19.055  11.499
86767W        W55240  23.092  38.549  12.080
86768W        W55241  12.360  41.513   2.279
86769W        W55242  36.548  22.081   0.932
86770W        W55243  24.663  19.110  12.981
86771W        W55244  26.987  29.668   0.328
86772W        W55245   7.366  19.097   3.748
86773W        W55246  23.995   1.960   3.249
86774W        W55247   5.403  42.280  13.334
86775W        W55248  44.901  38.855  10.073
86776W        W55249  43.842  27.564  12.914
86777W        W55250  37.531  11.721  10.639
86778W        W55251  34.016  37.975   2.324
86779W        W55252  38.548   5.284   0.349
86780W        W55253  20.711   9.154   4.765
86781W        W55254   8.897  12.295  11.407
86782W        W55255  16.313  38.394   4.327
86783W        W55256  10.833   3.285   4.675
86784W        W55257  30.072  23.566  14.311
86785W        W55258  26.019  18.596   3.762
86786W        W55259  39.345  16.191  11.417
86787W        W55260  12.720   3.446   4.201
86788W        W55261   6.314   4.780  11.409
86789W        W55262   4.447  36.362  12.380
86790W        W55263   3.757  31.100  10.618
86791W        W55264  25.127  32.445  14.451
86792W        W55265  30.075  32.507   4.672
86793W        W55266  18.756  31.539  13.003
86794W        W55267   6.776  21.586  12.360
86795W        W55268  22.646  21.095   4.339
86796W        W55269  16.773  39.019  13.832
86797W        W55270   2.455  18.168  14.011
86798W        W55271  29.550   8.740   4.725
86799W        W55272  38.869  30.115  12.348
86800W        W55273  13.130  12.655   4.764
86801W        W55274  43.968  30.924  13.945
86802W        W55275  36.492   3.451   3.383
86803W        W55276  28.986  15.302  11.408
86804W        W55277   9.662  41.310  10.633
86805W        W55278  34.007  38.379  13.949
86806W        W55279   8.787  24.026  10.913
86807W        W55280  43.973   0.769   2.379
86808W        W55281  25.975  33.604  13.357
86809W        W55282  29.070  13.241  10.912
86810W        W55283  41.470  29.115   3.635
86811W        W55284  36.876  25.522  12.968
86812W        W55285  42.006  33.546  11.105
86813W        W55286   3.726  23.647  13.016
86814W        W55287  30.040  11.360   3.781
86815W        W55288  42.497   8.876  11.435
86816W        W55289  28.129  23.122   1.332
86817W        W55290  14.684  10.876   1.282
86818W        W55291   8.234  31.609   1.216
86819W        W55292  27.633   1.374   1.795
86820W        W55293   4.386  39.928   3.254
86821W        W55294  23.072  25.616   2.384
86822W        W55295  27.527  33.914   4.211
86823W        W55296   1.311  36.418   0.397
86824W        W55297  35.521   7.710  10.962
86825W        W55298  13.141   9.838  11.982
86826W        W55299  30.418  13.768   4.722
86827W        W55300  25.130  10.675   0.255
86828W        W55301  34.083   7.689  10.640
86829W        W55302  22.583  33.545  12.076
86830W        W55303  31.539  39.842  13.450
86831W        W55304  44.378   2.744  11.080
86832W        W55305   1.382  36.086   4.698
86833W        W55306  12.207   4.337  11.383
86834W        W55307  11.766  40.416  12.082
86835W        W55308  29.571  13.320   1.867
86836W        W55309  24.673  37.943   3.278
86837W        W55310  40.849   6.820  14.016
86838W        W55311  12.811  14.314  14.891
86839W        W55312  22.148   4.319   4.711
86840W        W55313   9.340  39.994   0.941
86841W        W55314  20.145  43.978   0.813
86842W        W55315  36.441  23.661  12.916
86843W        W55316  14.183  32.473   2.249
86844W        W55317  24.616  21.157   2.714
86845W        W55318   7.741  41.303  13.418
86846W        W55319   2.402  31.415   4.670
86847W        W55320   8.697   0.341  12.448
86848W        W55321  19.163  25.106  10.529
86849W        W55322   2.945  27.517  10.623
86850W        W55323   1.961  32.107   1.932
86851W        W55324   5.328   5.820   2.757
86852W        W55325  22.547  43.961  14.351
86853W        W55326  42.788  30.584   0.450
86854W        W55327   9.333  42.959   0.749
86855W        W55328   8.355  18.265  10.445
86856W        W55329   9.735   6.361  14.456
86857W        W55330  43.805  11.280  14.386
86858W        W55331  25.564  24.127   3.187
86859W        W55332  26.516  12.852  12.432
86860W        W55333  19.221  10.364  12.580
86861W        W55334  27.624  10.842   4.334
86862W        W55335  42.408  21.520   3.162
86863W        W55336  20.596  35.040  10.602
86864W        W55337  15.615  35.588  14.803
86865W        W55338  40.039   2.803   0.360
86866W        W55339  16.762  15.131   0.957
86867W        W55340  40.831  43.779   3.152
86868W        W55341  28.058  36.528  14.961
86869W        W55342  13.107  44.277  10.532
86870W        W55343  13.747  23.612   2.260
86871W        W55344  36.569  36.039  14.460
86872W        W55345   0.773   8.330   0.307
86873W        W55346  30.070  31.642   2.395
86874W        W55347  43.284  10.813  14.795
86875W        W55348   4.378  38.530  13.493
86876W        W55349   7.239  24.626   5.242
86877W        W55350  16.101   8.895   2.277
86878W        W55351  33.470  22.203  11.480
86879W        W55352  14.689  10.160   0.754
86880W        W55353  32.418  18.287   4.199
86881W        W55354  13.192  43.295   0.747
86882W        W55355  20.689   1.324   2.331
86883W        W55356  26.586  36.915   3.243
86884W        W55357  30.070  22.534  13.500
86885W        W55358  29.002  16.588  14.843
86886W        W55359  31.141   2.360  11.516
86887W        W55360   9.203  42.911   2.372
86888W        W55361  37.515  23.696   2.758
86889W        W55362  31.103   8.848  11.872
86890W        W55363   2.820   7.293   2.400
86891W        W55364   5.747   1.272   0.921
86892W        W55365  15.700  33.493   2.248
86893W        W55366   0.773  11.183  12.340
86894W        W55367  12.713  36.913  13.403
86895W        W55368  14.323  27.603   3.821
86896W        W55369  26.503   9.817   1.711
86897W        W55370  18.688  38.932  13.974
86898W        W55371   9.219  42.913  13.968
86899W        W55372  28.537  10.741  13.422
86900W        W55373  31.470  37.372   0.400
86901W        W55374  42.800  38.551   1.260
86902W        W55375  16.109  43.400  11.449
86903W        W55376  28.007  34.600   2.318
86904W        W55377  18.091  13.830  13.049
86905W        W55378  37.946  12.647   4.249
86906W        W55379  17.624  13.642  14.400
86907W        W55380   7.779  16.125   1.878
86908W        W55381  17.204   8.343  11.051
86909W        W55382  38.848  36.460   2.830
86910W        W55383   2.294  11.267  14.900
86911W        W55384   3.814  30.073  13.485
86912W        W55385  31.953  26.161  14.852
86913W        W55386  11.291  34.559   9.966
86914W        W55387  41.538  11.352   3.269
86915W        W55388  23.115  29.599  10.539
86916W        W55389  37.393  40.934  11.091
86917W        W55390  44.307  39.937   0.379
86918W        W55391  31.097   2.303  12.033
86919W        W55392  13.756   2.876   1.438
86920W        W55393  40.449  43.503  11.494
86921W        W55394  25.648  24.531  12.078
86922W        W55395   1.429  19.129   0.431
86923W        W55396  11.309   7.185   0.313
86924W        W55397  14.278  35.933   3.274
86925W        W55398   3.409  37.571  12.362
86926W        W55399  26.518  16.233  14.954
86927W        W55400   2.410   3.441   3.210
86928W        W55401  37.853  41.828   1.417
86929W        W55402  11.861  28.659  13.893
86930W        W55403  38.824  22.593   0.373
86931W        W55404   4.905  16.719   9.920
86932W        W55405  31.105  11.792   5.308
86933W        W55406   6.312  37.013   3.719
86934W        W55407  30.568  31.136   5.190
86935W        W55408  22.053  15.650  11.591
86936W        W55409  32.964  40.502  14.912
86937W        W55410  31.498  30.513  13.378
86938W        W55411  26.607  20.088  11.917
86939W        W55412  20.141  19.753   1.745
86940W        W55413  30.481  11.624  11.869
86941W        W55414   3.822  27.473   4.715
86942W        W55415  20.628  14.609  11.902
86943W        W55416   1.770  17.122  10.987
86944W        W55417  28.143   1.425  13.448
86945W        W55418   7.247  14.261  12.095
86946W        W55419  40.424   6.421   2.898
86947W        W55420  41.946  11.673  12.407
86948W        W55421   4.360   5.299   9.552
86949W        W55422  14.614  27.095   2.402
86950W        W55423  32.101  14.259  11.550
86951W        W55424  21.649  39.844  12.884
86952W        W55425   4.419  15.134  10.965
86953W        W55426  38.409  37.901   3.332
86954W        W55427   8.260   9.150  11.102
86955W        W55428  26.977  16.100   2.872
86956W        W55429   9.793   5.873   2.741
86957W        W55430   5.841  25.988   0.953
86958W        W55431   6.334   1.743  14.846
86959W        W55432  33.018  42.506   1.244
86960W        W55433  42.389  17.598   4.725
86961W        W55434  37.580   8.351  12.096
86962W        W55435  14.621  20.032   0.248
86963W        W55436  22.582  30.555  14.288
86964W        W55437  43.336  44.979  12.029
86965W        W55438  27.943  30.439  14.929
86966W        W55439   9.801  26.024   0.839
86967W        W55440  18.634  30.584  14.960
86968W        W55441  30.132  18.216  12.043
86969W        W55442   7.404  43.953   4.291
86970W        W55443  34.985   0.450   3.384
86971W        W55444  33.887  23.573  12.031
86972W        W55445  36.954  36.953   2.298
86973W        W55446   7.282  14.599  14.930
86974W        W55447  16.111  32.489  12.033
86975W        W55448  30.440  21.211   3.249
86976W        W55449  44.905  24.656   1.875
86977W        W55450  14.625   2.750   3.795
86978W        W55451   0.350   4.423   4.656
86979W        W55452  43.896  37.568   0.317
86980W        W55453   9.346   4.701   1.833
86981W        W55454  44.803  24.125   1.759
86982W        W55455  17.101  31.999  13.943
86983W        W55456  28.941   7.194  12.471
86984W        W55457  27.448   3.346  11.408
86985W        W55458  30.574  17.648  11.582
86986W        W55459   7.234   4.873  13.414
86987W        W55460  42.353  33.518   1.394
86988W        W55461  20.223  15.610  12.076
86989W        W55462   2.851  23.651   4.348
86990W        W55463   8.337  29.012   0.279
86991W        W55464  12.764  39.810   2.391
86992W        W55465  35.372  23.525   4.788
86993W        W55466  16.652  37.561  10.116
86994W        W55467  34.877   9.155  10.502
86995W        W55468  25.113  42.935  12.942
86996W        W55469   5.733  31.582  13.334
86997W        W55470  16.317  36.486   1.848
86998W        W55471  36.902  36.924   0.274
86999W        W55472  13.176  20.207  12.443
87000W        W55473  11.860  35.376   4.134
87001W        W55474  34.978  41.884   4.287
87002W        W55475   5.347  14.217  12.436
87003W        W55476  20.046  19.680  11.455
87004W        W55477  32.061  30.509  13.999
87005W        W55478  13.168  43.851  11.430
87006W        W55479  28.945  31.630   3.790
87007W        W55480  30.656   1.935  11.977
87008W        W55481  42.353  26.104   2.706
87009W        W55482  23.103  44.395  11.610
87010W        W55483   7.682  32.624   4.333
87011W        W55484  10.664  19.709   1.336
87012W        W55485  19.732  32.626  14.973
87013W        W55486  20.080   8.686  11.989
87014W        W55487  32.006  26.098   9.534
87015W        W55488  15.776  25.031   1.383
87016W        W55489  43.854   9.823  13.056
87017W        W55490   4.403  40.917  14.308
87018W        W55491  28.489   4.404  11.002
87019W        W55492  26.657   5.930   4.820
87020W        W55493  30.987   3.892  14.491
87021W        W55494  23.727  33.892  12.954
87022W        W55495   3.781   1.932   0.312
87023W        W55496  44.947  10.669   4.728
87024W        W55497   1.832  34.593   1.714
87025W        W55498  39.324  13.603   4.718
87026W        W55499  12.722  42.805  14.341
87027W        W55500  15.699  13.671  11.371
87028W        W55501  17.138   2.898   0.792
87029W        W55502  27.500  41.955  13.409
87030W        W55503  31.584   2.786   0.756
87031W        W55504  26.579  20.580   2.668
87032W        W55505  37.889  37.377  11.590
87033W        W55506   4.785  21.082  12.571
87034W        W55507  15.663  16.785   2.415
87035W        W55508  16.301  34.493   2.844
87036W        W55509  17.694  38.558  11.896
87037W        W55510   6.783   7.352   3.363
87038W        W55511  31.921   3.735   1.739
87039W        W55512  21.050  12.707  13.829
87040W        W55513  22.194  14.143  10.437
87041W        W55514  35.524  33.111   4.177
87042W        W55515   9.177  17.249   0.858
87043W        W55516  20.593  24.985   2.375
87044W        W55517  25.492  34.947  13.035
87045W        W55518  33.907  40.943  11.569
87046W        W55519  21.757   7.176   1.738
87047W        W55520  20.157  30.617   2.319
87048W        W55521  27.634  33.101   0.852
87049W        W55522  12.739  18.083   4.815
87050W        W55523  30.575  42.890   3.718
87051W        W55524  26.059  26.667  11.097
87052W        W55525  44.451  20.538  10.452
87053W        W55526  12.336  27.485   1.231
87054W        W55527   3.895  34.961  11.469
87055W        W55528  24.056  23.658   3.368
87056W        W55529   4.925   7.665   2.717
87057W        W55530  14.727  14.639  10.479
87058W        W55531  43.821   0.789   2.721
87059W        W55532  31.926   2.462  11.599
87060W        W55533  10.844   3.837  12.342
87061W        W55534  10.645  35.993  12.487
87062W        W55535  30.497  31.466  13.871
87063W        W55536  42.411  39.475   1.301
87064W        W55537   9.261   4.276   1.292
87065W        W55538   9.365  12.828   0.839
87066W        W55539  33.609   5.909  13.058
87067W        W55540   5.295  17.253   4.811
87068W        W55541  16.216  19.701  14.801
87069W        W55542  39.505  44.392  10.576
87070W        W55543  42.501  26.636   3.376
87071W        W55544  18.563  12.290   1.770
87072W        W55545  41.340  30.982  11.091
87073W        W55546  38.482  32.422  10.411
87074W        W55547  37.085   1.296   1.794
87075W        W55548   9.849  14.171  11.121
87076W        W55549  25.081   1.268   9.621
87077W        W55550  19.702   7.695  12.949
87078W        W55551  20.082  30.565   5.158
87079W        W55552  15.638  28.023  11.393
87080W        W55553  19.776  42.288   3.641
87081W        W55554   9.186  34.592  14.900
87082W        W55555   4.422  20.070  14.509
87083W        W55556  29.632  44.782  12.990
87084W        W55557   8.756  40.029   3.659
87085W        W55558  17.259   2.403   4.828
87086W        W55559   1.818  14.622  14.380
87087W        W55560  42.872  40.853   0.326
87088W        W55561   4.275  40.907   2.781
87089W        W55562  34.920   5.690  11.965
87090W        W55563  26.184  43.453   0.842
87091W        W55564  35.368  33.917  14.340
87092W        W55565  21.669  23.134  12.455
87093W        W55566   0.769  34.573   0.431
87094W        W55567  39.001  28.958   0.733
87095W        W55568  22.629   9.870   3.737
87096W        W55569  36.050  27.672   4.708
87097W        W55570   2.817  27.099   3.681
87098W        W55571   3.736  13.320   4.765
87099W        W55572  44.819  16.631   2.760
87100W        W55573  11.294  36.092  11.426
87101W        W55574  36.864   2.758  13.312
87102W        W55575  40.809  38.464  14.775
87103W        W55576  17.617  33.985  12.036
87104W        W55577   5.904  27.061   1.333
87105W        W55578  12.272  18.584  12.062
87106W        W55579  21.104  31.640   0.760
87107W        W55580  33.958  36.592   0.323
87108W        W55581   8.734   0.787   2.813
87109W        W55582  15.782  37.071  12.064
87110W        W55583  27.634  27.611   3.241
87111W        W55584  36.581  44.485   1.698
87112W        W55585  38.370  27.489  12.068
87113W        W55586   2.358   7.314  10.908
87114W        W55587   6.301  23.026   4.714
87115W        W55588  25.711   5.916   0.273
87116W        W55589  28.466   2.398   2.312
87117W        W55590  11.785  14.789   2.334
87118W        W55591  26.525  13.752  13.966
87119W        W55592  30.499  37.970   1.448
87120W        W55593  37.009   4.864  11.490
87121W        W55594  13.795   2.272   3.237
87122W        W55595   4.711  31.954   0.346
87123W        W55596   6.273  27.570   4.146
87124W        W55597  11.651  21.738   4.823
87125W        W55598  16.577   5.697   2.792
87126W        W55599  10.720   7.762  11.973
87127W        W55600  29.130  38.470  10.478
87128W        W55601  37.074  36.536  10.893
87129W        W55602  15.255  18.052   1.783
87130W        W55603  43.943  24.540  14.838
87131W        W55604   5.299  44.990   2.235
87132W        W55605  20.108  29.596  10.991
87133W        W55606  31.921   5.741   9.955
87134W        W55607  30.592   1.927   0.446
87135W        W55608   5.214  12.715   5.113
87136W        W55609  20.166  13.291   1.926
87137W        W55610  36.921  28.494   2.843
87138W        W55611  27.142  43.831  14.990
87139W        W55612  40.974  19.672   2.377
87140W        W55613   1.946  14.105  11.003
87141W        W55614   0.835  41.522   1.266
87142W        W55615  28.148  17.160  14.357
87143W        W55616  42.325  22.547  13.890
87144W        W55617  20.531  26.137  11.013
87145W        W55618  23.992  41.038  12.406
87146W        W55619  41.294  29.624  14.968
87147W        W55620   3.390  24.203  10.541
87148W        W55621  23.154   5.348   2.321
87149W        W55622  41.914  44.956   2.401
87150W        W55623   5.894  26.515   0.812
87151W        W55624   0.886   7.403  14.025
87152W        W55625   1.923  19.095  11.117
87153W        W55626  33.026   7.785  14.323
87154W        W55627   4.266  34.983  13.936
87155W        W55628   3.832  39.825   1.720
87156W        W55629  37.875   8.797   1.827
87157W        W55630  17.569  38.848  12.557
87158W        W55631  21.743   1.274  14.901
87159W        W55632  26.506  30.522  11.097
87160W        W55633  24.652  37.578  14.278
87161W        W55634  32.602  22.632   2.804
87162W        W55635  13.795  36.566   3.257
87163W        W55636  41.329   0.378   2.287
87164W        W55637  41.403  29.498   0.768
87165W        W55638  13.781   0.825  14.365
87166W        W55639  30.109  33.991   3.655
87167W        W55640   0.444  16.140   2.847
87168W        W55641  36.955  21.654   0.797
87169W        W55642  27.639  33.130   2.688
87170W        W55643  20.052   8.851   4.668
87171W        W55644  10.857   4.317   2.707
87172W        W55645  33.935  26.695   1.314
87173W        W55646  23.517  21.750  11.461
87174W        W55647  40.341  10.869  11.903
87175W        W55648  20.572  39.995   0.908
87176W        W55649  22.174   5.924   3.292
87177W        W55650  27.644  33.552   3.731
87178W        W55651  22.153   3.935   4.316
87179W        W55652   7.908  10.332   1.391
87180W        W55653  37.458  17.569   2.768
87181W        W55654   3.722  11.231   4.636
87182W        W55655  41.478   9.656   1.904
87183W        W55656   1.290  28.548  11.599
87184W        W55657  32.615  42.017  14.489
87185W        W55658  37.834   0.745   1.296
87186W        W55659  17.585  27.482   2.664
87187W        W55660  25.973  44.834  11.528
87188W        W55661  14.331  33.390   2.787
87189W        W55662   7.393  20.250   2.181
87190W        W55663  15.599   8.392  11.067
87191W        W55664  16.634  24.043  10.902
87192W        W55665  15.766  24.079   1.708
87193W        W55666   8.168  12.631  12.837
87194W        W55667   9.349  38.973   2.738
87195W        W55668  12.754   1.733  11.425
87196W        W55669  21.166  43.295  12.851
87197W        W55670  11.224   7.236   1.383
87198W        W55671  36.428  35.405  12.988
87199W        W55672  16.090  19.662   2.871
87200W        W55673  44.326  19.202  14.389
87201W        W55674  12.285  35.900   2.338
87202W        W55675  20.758  32.046   0.275
87203W        W55676  11.672  22.204  14.802
87204W        W55677  31.617  11.256  10.547
87205W        W55678   4.254  35.050   2.823
87206W        W55679   0.381  28.464   0.479
87207W        W55680   1.273   1.957   4.668
87208W        W55681  34.483  21.640  14.316
87209W        W55682  37.915   5.416  14.409
87210W        W55683   6.868  30.549   0.403
87211W        W55684  27.125   1.290  14.878
87212W        W55685  22.242  19.778   4.267
87213W        W55686  24.204  23.213   3.290
87214W        W55687   5.734  13.308   1.765
87215W        W55688  24.706  40.409   1.443
87216W        W55689  26.523  31.567   2.736
87217W        W55690  26.675   6.325  12.914
87218W        W55691  34.865  15.293   4.251
87219W        W55692  19.169  21.087   4.118
87220W        W55693   0.785  39.956   4.344
87221W        W55694  17.715  11.639  11.034
87222W        W55695  15.702  13.634  12.028
87223W        W55696   7.812  22.061   1.233
87224W        W55697  31.899  41.938  14.895
87225W        W55698  41.040  39.888  12.979
87226W        W55699  23.992   8.712   2.411
87227W        W55700   7.205   3.940  14.313
87228W        W55701  25.128  11.210   2.297
87229W        W55702   1.277  29.927   0.301
87230W        W55703   6.878  28.472   0.790
87231W        W55704  39.491   1.911  11.975
87232W        W55705  33.584  19.717  14.870
87233W        W55706   6.775  20.631   1.372
87234W        W55707  20.197  27.650  14.025
87235W        W55708  10.309  28.562  11.116
87236W        W55709  25.665  10.686   2.278
87237W        W55710  12.263   3.832   2.744
87238W        W55711  24.078  19.088   2.261
87239W        W55712  33.595  33.412   1.921
87240W        W55713   9.652  32.134  13.021
87241W        W55714  38.481   2.744  13.405
87242W        W55715  10.649  21.209  12.477
87243W        W55716  38.987  11.737   5.212
87244W        W55717   2.936  42.458   2.350
87245W        W55718  18.757  43.456  11.902
87246W        W55719  18.266  31.961  13.872
87247W        W55720  34.410  15.729  14.410
87248W        W55721   4.432  27.567   1.927
87249W        W55722   3.353  17.685  13.812
87250W        W55723  30.970  24.976  13.801
87251W        W55724  11.857  36.956   4.162
87252W        W55725  21.700  18.730   3.318
87253W        W55726  25.623   5.923   2.294
87254W        W55727  31.465  19.739   0.392
87255W        W55728  23.200  26.162  12.915
87256W        W55729  26.960  37.520   0.793
87257W        W55730   3.821  34.582   0.946
87258W        W55731  40.345   7.200  11.489
87259W        W55732  32.495  19.560  12.384
87260W        W55733   4.734   9.308   2.804
87261W        W55734  27.941  21.082   1.759
87262W        W55735   9.373   6.712  11.525
87263W        W55736  42.945  24.135   1.312
87264W        W55737  19.105  44.326   4.259
87265W        W55738   4.258  18.682  14.435
87266W        W55739  30.967  35.557  13.431
87267W        W55740  43.802   7.682   0.395
87268W        W55741  23.545  35.883   3.159
87269W        W55742  23.601  41.805   4.791
87270W        W55743  29.616  20.698   4.168
87271W        W55744  40.450   1.385  12.896
87272W        W55745  16.762  35.879  13.897
87273W        W55746  14.764   8.274  12.507
87274W        W55747  11.278   7.780   3.764
87275W        W55748  21.106  14.179  14.758
87276W        W55749   6.828  10.707   2.207
87277W        W55750   9.844  16.726   2.256
87278W        W55751  20.259  44.818   3.331
87279W        W55752  22.611  40.799   4.273
87280W        W55753   4.315  26.514  13.980
87281W        W55754  37.877  32.462  12.071
87282W        W55755  33.483  34.013  14.338
87283W        W55756   7.864  40.380  10.975
87284W        W55757   1.434  27.667  11.590
87285W        W55758  43.341  20.698   4.645
87286W        W55759   2.943   8.853   2.211
87287W        W55760  21.187  29.609  13.346
87288W        W55761  40.353  11.690   5.254
87289W        W55762  43.309   7.181  14.865
87290W        W55763   0.968  22.674   3.661
87291W        W55764  16.596  23.639  10.483
87292W        W55765  23.111  42.422  11.944
87293W        W55766   7.722  22.654   4.144
87294W        W55767  36.851   6.207  14.920
87295W        W55768  18.165   5.876  11.093
87296W        W55769  41.872   3.771   0.750
87297W        W55770  25.514  13.719   3.729
87298W        W55771  29.583  29.620  11.092
87299W        W55772  15.658  37.996  14.396
87300W        W55773  38.387   9.803  10.932
87301W        W55774  11.361   5.331  13.004
87302W        W55775  35.061  16.153  11.116
87303W        W55776  30.014  10.267   3.305
87304W        W55777  22.217   5.392   2.327
87305W        W55778  42.500  25.604  10.630
87306W        W55779   9.298  30.052   2.698
87307W        W55780  14.762  20.230  11.003
87308W        W55781  21.625  29.928  14.905
87309W        W55782  41.429  32.908  11.602
87310W        W55783  17.277   9.670   1.390
87311W        W55784  26.007  27.083  11.505
87312W        W55785  35.541  21.580  11.521
87313W        W55786  26.170   2.835  14.909
87314W        W55787  40.969   3.828  14.008
87315W        W55788  24.088  19.584  10.990
87316W        W55789   4.871  14.291  11.101
87317W        W55790  32.087  35.572   3.820
87318W        W55791  37.574  22.678   1.879
87319W        W55792   0.389  10.190  14.423
87320W        W55793  20.556  44.297  14.504
87321W        W55794   4.440  19.252   0.416
87322W        W55795  29.557  13.284   1.265
87323W        W55796  21.686  31.055  11.518
87324W        W55797  38.370  36.868  13.834
87325W        W55798  32.080  24.975   4.269
87326W        W55799  29.555  35.096   3.715
87327W        W55800  24.996   9.365   0.911
87328W        W55801  12.258   3.382   4.271
87329W        W55802  26.980  14.608   3.757
87330W        W55803  43.820  29.498  10.575
87331W        W55804  33.418  22.110   1.436
87332W        W55805   9.376  35.472  14.433
87333W        W55806  36.008  42.002   1.311
87334W        W55807  14.593  14.233   5.104
87335W        W55808  19.224   6.887  11.552
87336W        W55809   8.756   7.856   5.184
87337W        W55810  12.172  41.304  10.932
87338W        W55811  13.819  15.184   0.316
87339W        W55812  33.927  26.476   0.955
87340W        W55813  33.097  35.041  11.040
87341W        W55814  42.506  26.683  11.408
87342W        W55815  29.955   3.853  10.405
87343W        W55816  30.598  37.035  13.877
87344W        W55817  29.016  29.052  11.081
87345W        W55818   4.233  35.487   3.657
87346W        W55819  36.405  12.361   4.683
87347W        W55820  20.103  24.713   0.432
87348W        W55821  12.132  16.214  14.485
87349W        W55822  20.547  33.527  11.903
87350W        W55823   0.260   6.918  11.493
87351W        W55824  29.135   2.361   2.271
87352W        W55825  17.625  11.720  12.522
87353W        W55826   6.255  16.571   3.786
87354W        W55827   0.755   6.846   4.619
87355W        W55828  18.755   0.861   2.788
87356W        W55829   9.230  41.398   0.472
87357W        W55830  24.692   5.752   3.636
87358W        W55831  14.595   4.822  14.021
87359W        W55832  10.234  34.442   0.797
87360W        W55833  25.203  25.074  14.993
87361W        W55834  39.837  21.723   0.911
87362W        W55835   3.896   6.831  13.002
87363W        W55836   8.748  38.893   3.282
87364W        W55837  36.094  27.674  14.991
87365W        W55838  13.772  32.444   2.201
87366W        W55839   6.346  24.146  11.391
87367W        W55840  10.166  43.442   0.422
87368W        W55841   3.781   1.771  14.795
87369W        W55842  14.603  14.193  12.974
87370W        W55843  41.454  31.487  11.512
87371W        W55844   6.218  42.836   0.375
87372W        W55845  12.621  36.437  12.904
87373W        W55846   4.729  36.533   2.845
87374W        W55847   5.834  35.880  13.902
87375W        W55848   8.734   3.855  12.430
87376W        W55849  19.576  10.272   3.318
87377W        W55850  17.740  12.773   3.197
87378W        W55851  37.554  31.528   0.805
87379W        W55852   0.767   1.971  11.949
87380W        W55853   4.423  19.538   0.958
87381W        W55854   0.348   6.887   3.224
87382W        W55855  18.715  21.260   2.670
87383W        W55856  22.234  10.648  14.325
87384W        W55857  42.860  26.650  13.540
87385W        W55858   8.366  17.148   1.920
87386W        W55859   5.273  43.399   2.699
87387W        W55860  39.865  21.671   2.860
87388W        W55861  14.605  26.135  12.070
87389W        W55862  32.962  39.353   3.236
87390W        W55863   2.760  22.517  13.062
87391W        W55864  11.159   8.883  13.510
87392W        W55865  29.428  21.572  13.499
87393W        W55866   0.408   0.281   1.844
87394W        W55867  23.733  23.631  14.419
87395W        W55868  36.092  28.487  11.574
87396W        W55869  23.239  21.662   1.338
87397W        W55870  21.064  36.075  13.019
87398W        W55871  26.564  21.245  13.796
87399W        W55872   6.778  25.647  14.775
87400W        W55873  24.564  20.763   0.322
87401W        W55874  16.758  17.245  11.387
87402W        W55875  14.744  13.153  13.422
87403W        W55876  22.514  38.555  14.805
87404W        W55877  33.478   4.303  13.525
87405W        W55878   0.790  27.563   4.231
87406W        W55879  31.921  29.570  10.600
87407W        W55880  24.061  20.545   1.761
87408W        W55881  29.547  12.257  12.963
87409W        W55882   9.877  17.243   4.219
87410W        W55883  28.985  35.365   1.310
87411W        W55884  10.792  29.586  12.402
87412W        W55885  31.577  28.152  12.893
87413W        W55886  26.600   7.407  12.424
87414W        W55887  39.891   4.902  14.928
87415W        W55888   2.790   9.789   2.348
87416W        W55889  11.158  21.168   4.786
87417W        W55890  39.443  26.613  14.782
87418W        W55891  41.857  18.655   3.640
87419W        W55892   6.268   4.822  10.943
87420W        W55893   5.785  44.916  14.862
87421W        W55894  26.120  24.479  12.041
87422W        W55895   4.883  34.446  13.527
87423W        W55896  13.330  40.849   4.126
87424W        W55897  40.831   9.317  14.012
87425W        W55898  33.502  28.945  12.399
87426W        W55899  44.281  40.865   0.399
87427W        W55900   1.760  42.874  12.935
87428W        W55901  20.646  38.353  13.046
87429W        W55902   8.239  21.727   0.740
87430W        W55903  36.076  24.073  14.295
87431W        W55904  11.739  14.804  12.486
87432W        W55905  24.009   2.854  11.528
87433W        W55906  34.040  31.125   2.774
87434W        W55907   3.913  12.280  10.987
87435W        W55908  42.351  24.702  13.546
87436W        W55909   8.812   3.413  12.853
87437W        W55910  16.256  38.052  11.455
87438W        W55911  42.509   1.329  14.858
87439W        W55912  30.496  39.549  10.570
87440W        W55913  26.205  19.097  11.976
87441W        W55914  32.440  26.604  13.902
87442W        W55915  28.516  34.926  14.005
87443W        W55916   0.323  44.454  12.444
87444W        W55917  18.127  10.676   1.865
87445W        W55918  44.266  37.502   1.800
87446W        W55919  30.643  14.788  11.933
87447W        W55920  20.569  43.844  14.496
87448W        W55921  42.452  32.396  13.414
87449W        W55922  26.957  37.930  10.439
87450W        W55923  42.980  43.298  10.473
87451W        W55924   2.435  43.339   3.318
87452W        W55925  18.210  34.035  11.912
87453W        W55926  38.527  42.011  13.865
87454W        W55927  29.030  31.951   3.259
87455W        W55928  26.674  16.240  11.036
87456W        W55929  30.121   1.395  13.469
87457W        W55930   5.699  36.393  10.567
87458W        W55931  16.716  11.759  11.399
87459W        W55932  43.488  43.493  14.372
87460W        W55933   3.864  26.021  10.497
87461W        W55934  26.606  34.496  13.334
87462W        W55935   5.813  38.925  11.072
87463W        W55936   3.241  16.680  12.967
87464W        W55937  37.981   5.301   0.307
87465W        W55938  31.419  30.641  12.826
87466W        W55939   4.755  31.007   3.798
87467W        W55940  38.020  11.129  12.499
87468W        W55941  33.594  14.655   0.314
87469W        W55942  13.732  13.143   0.862
87470W        W55943  44.809  26.551  13.482
87471W        W55944  10.278  34.884  11.469
87472W        W55945  16.133  41.960   1.440
87473W        W55946   3.354  22.587  13.452
87474W        W55947  43.895  18.270  11.869
87475W        W55948  13.174  18.200   2.902
87476W        W55949  17.157  37.847   5.264
87477W        W55950   8.888  34.879   0.911
87478W        W55951   2.384   5.434   2.665
87479W        W55952  19.626  24.672   0.447
87480W        W55953   3.388  25.682   2.894
87481W        W55954  28.121   7.829   3.298
87482W        W55955  34.537  24.055   2.732
87483W        W55956   1.334   1.482  13.416
87484W        W55957  36.432  34.499  12.447
87485W        W55958  35.374   1.264  10.408
87486W        W55959  42.457   7.798  12.056
87487W        W55960  32.456  28.986  11.923
87488W        W55961  10.301  28.186   2.842
87489W        W55962   8.390   2.390   2.795
87490W        W55963   5.330  32.590   1.783
87491W        W55964  23.134   2.896  10.566
87492W        W55965  28.451  18.262   2.802
87493W        W55966   9.392  30.584   2.705
87494W        W55967  17.701   9.306  14.486
87495W        W55968   6.789   8.849   0.303
87496W        W55969   5.250  41.912  12.047
87497W        W55970  24.126   8.265   1.841
87498W        W55971  44.318  33.600  11.522
87499W        W55972   1.796  20.091   2.824
87500W        W55973  29.435  15.099   4.209
87501W        W55974  16.202  23.642   0.458
87502W        W55975   8.849   4.220   3.670
87503W        W55976  44.907  42.319  11.061
87504W        W55977  39.878  19.114  12.962
87505W        W55978  27.611  22.085   3.738
87506W        W55979  33.941  39.513  14.027
87507W        W55980  42.502  28.590   1.299
87508W        W55981  31.044  44.487   4.320
87509W        W55982  42.839  10.826   4.642
87510W        W55983  20.561   4.220   2.690
87511W        W55984  23.216  24.042   2.188
87512W        W55985  34.016  36.860  11.011
87513W        W55986  31.052  42.316  12.998
87514W        W55987  14.640  23.630  14.291
87515W        W55988  39.066  44.400   2.392
87516W        W55989  34.451  38.497   2.402
87517W        W55990   2.329  17.105   3.183
87518W        W55991  34.104   1.782   2.835
87519W        W55992  33.979  31.017  11.949
87520W        W55993  22.503  15.099  14.298
87521W        W55994  11.684  14.203   2.324
87522W        W55995  23.996  26.096  11.500
87523W        W55996  32.976   1.277   1.452
87524W        W55997  14.672  28.072   0.437
87525W        W55998  23.500   2.909   3.740
87526W        W55999  15.181  25.650  12.934
87527W        W56000   7.197  42.419  14.863
87528W        W56001  34.459   5.839   3.368
87529W        W56002  31.945   1.904  13.319
87530W        W56003  42.825  31.069   5.292
87531W        W56004   7.206   5.734   5.280
87532W        W56005  43.002  31.028  12.832
87533W        W56006  39.881  30.110  12.896
87534W        W56007  39.020   3.422   0.902
87535W        W56008  13.146  28.107   0.790
87536W        W56009  30.924  31.491  10.502
87537W        W56010  42.392  27.085   3.637
87538W        W56011  19.098  35.557   2.819
87539W        W56012  38.882  25.153   3.176
87540W        W56013  39.509  35.942  12.430
87541W        W56014  29.977  20.681   4.650
87542W        W56015  15.135  34.963   4.316
87543W        W56016  42.801  30.460  14.342
87544W        W56017   9.855  28.937  14.287
87545W        W56018   8.890  25.541   0.332
87546W        W56019   8.276  31.140   3.266
87547W        W56020  16.147   4.377  11.575
87548W        W56021  35.394   7.725   0.894
87549W        W56022  14.669  11.148   0.867
87550W        W56023  16.567  21.697  12.356
87551W        W56024  15.173  16.763   1.357
87552W        W56025  19.110   9.213   0.431
87553W        W56026  37.539  20.127   0.351
87554W        W56027  22.512   7.251   3.702
87555W        W56028  31.002  31.912   0.448
87556W        W56029  21.590  10.285   1.866
87557W        W56030   8.323  43.298   3.162
87558W        W56031  20.185  25.534  11.476
87559W        W56032  20.086  32.043  14.958
87560W        W56033  12.124  10.147  11.395
87561W        W56034   2.741  30.592   0.316
87562W        W56035  43.382  20.690  12.019
87563W        W56036  42.926  13.130  12.460
87564W        W56037  16.137  36.587  14.903
87565W        W56038   5.747  23.643  14.021
87566W        W56039  41.477   8.215   4.196
87567W        W56040  36.928  33.051   3.759
87568W        W56041  44.772  34.374  12.380
87569W        W56042   9.797  14.791  11.905
87570W        W56043  10.829  26.130  13.999
87571W        W56044   9.687   1.469  12.845
87572W        W56045   0.813  20.187  11.010
87573W        W56046   7.763  33.928   3.209
87574W        W56047  19.759  18.696  11.449
87575W        W56048  12.621  36.882   3.689
87576W        W56049  22.176  33.031  11.493
87577W        W56050  40.478  24.986  12.061
87578W        W56051  33.578  28.962   2.754
87579W        W56052  31.526  27.492   4.322
87580W        W56053   8.758  17.161  11.028
87581W        W56054  16.708  10.825  13.320
87582W        W56055   2.373  12.329  13.536
87583W        W56056   4.295  15.188  13.463
87584W        W56057   5.905  20.057  14.507
87585W        W56058  13.289  34.413  14.800
87586W        W56059  14.619  15.176   2.401
87587W        W56060   9.379  43.902  11.972
87588W        W56061  38.436  32.043  12.546
87589W        W56062  28.610   4.291  14.890
87590W        W56063   6.866  42.018   1.836
87591W        W56064  40.515  17.266   9.969
87592W        W56065   2.847  39.331   1.856
87593W        W56066  35.425  14.203   2.731
87594W        W56067  29.166  13.733   2.333
87595W        W56068   0.464  44.779   1.430
87596W        W56069  12.635  30.497  12.954
87597W        W56070  28.964  41.013   1.765
87598W        W56071  34.109  22.177   1.827
87599W        W56072  42.388  33.992  12.906
87600W        W56073  17.272   2.267   4.286
87601W        W56074  11.273  44.348  10.959
87602W        W56075  44.299  35.883   1.347
87603W        W56076  29.441  21.687   1.263
87604W        W56077  38.421  14.808  11.477
87605W        W56078  12.260  11.263   4.705
87606W        W56079   2.456  12.648   3.871
87607W        W56080   9.224  26.458   3.678
87608W        W56081  37.921  24.651  11.024
87609W        W56082  33.407   9.825  12.091
87610W        W56083  23.195   4.380   3.267
87611W        W56084   9.332  14.319  10.084
87612W        W56085  39.485  35.048  10.160
87613W        W56086   2.341  35.033   1.372
87614W        W56087  41.382   6.231   3.366
87615W        W56088  24.558  43.453  14.760
87616W        W56089  22.664  17.683   2.415
87617W        W56090  29.041   0.259   2.775
87618W        W56091  36.852   9.863  12.092
87619W        W56092   3.816  22.715  12.374
87620W        W56093  20.220  28.029  14.006
87621W        W56094  21.211  31.550   2.770
87622W        W56095  29.461  37.412  11.447
87623W        W56096  37.881  35.557   0.328
87624W        W56097  41.526  21.122   3.666
87625W        W56098  44.781  11.326  13.955
87626W        W56099  43.772   4.410  10.912
87627W        W56100  14.243  25.549   3.655
87628W        W56101  10.812  14.264  12.576
87629W        W56102  43.909  30.497  10.501
87630W        W56103  19.151   9.750  11.572
87631W        W56104  30.449  26.113   4.732
87632W        W56105  43.349  29.082  11.513
87633W        W56106  28.677  35.534  13.467
87634W        W56107  14.134   6.271   3.641
87635W        W56108   4.814  17.136  13.895
87636W        W56109  14.803  40.865  11.988
87637W        W56110   5.803  44.340   4.722
87638W        W56111   6.354  11.688  11.599
87639W        W56112   6.381   3.296   0.928
87640W        W56113  27.188  26.038   3.176
87641W        W56114  42.806  32.940   4.263
87642W        W56115  31.026  27.002   2.676
87643W        W56116  21.687  42.948   3.640
87644W        W56117  17.582  17.123  12.523
87645W        W56118  42.505   1.360  12.532
87646W        W56119  34.498  27.165  14.011
87647W        W56120  14.177   8.863   4.712
87648W        W56121  35.438  41.327   4.324
87649W        W56122  31.106   9.305  14.840
87650W        W56123  15.112  29.107  10.989
87651W        W56124  19.270   9.843  12.071
87652W        W56125   8.176  13.603  12.485
87653W        W56126  32.441  23.612   2.757
87654W        W56127  15.286  37.905   9.474
87655W        W56128  24.101  23.212   4.697
87656W        W56129  29.450  10.196  14.426
87657W        W56130  31.494  30.961   0.330
87658W        W56131  32.522  24.150   5.576
87659W        W56132   4.379  42.992   0.786
87660W        W56133  41.415  28.179  13.916
87661W        W56134  41.355  41.794  12.570
87662W        W56135  35.030  42.406  10.522
87663W        W56136  33.489  24.087   1.925
87664W        W56137  32.530  21.164  12.435
87665W        W56138  32.046  24.714   4.704
87666W        W56139  18.787  28.497  10.908
87667W        W56140  36.863   6.883  12.930
87668W        W56141  26.047   5.896  10.936
87669W        W56142  35.018  33.109   3.839
87670W        W56143  15.590   1.407  12.081
87671W        W56144  26.500  15.218   2.728
87672W        W56145   7.307  11.714  14.930
87673W        W56146  29.599  30.554  13.370
87674W        W56147  24.589  11.782   3.755
87675W        W56148  41.525  22.652   0.823
87676W        W56149   8.725  18.569  10.460
87677W        W56150  27.085  32.628   2.778
87678W        W56151  41.492  21.720  11.589
87679W        W56152  36.048  40.815  13.057
87680W        W56153  22.023  12.801  12.553
87681W        W56154  11.240   3.733  10.486
87682W        W56155  20.554  27.545  14.399
87683W        W56156   1.747  24.670   3.769
87684W        W56157  38.952   8.314  12.556
87685W        W56158  22.697  29.111   3.333
87686W        W56159  34.403   2.316  13.376
87687W        W56160  21.248  29.982   2.401
87688W        W56161  40.901  33.050   1.285
87689W        W56162  38.055  35.370  10.521
87690W        W56163  39.408  39.386  13.530
87691W        W56164   9.291   8.736  11.381
87692W        W56165  36.351  37.946   0.326
87693W        W56166  11.788  16.160   0.440
87694W        W56167  37.376  23.736  11.529
87695W        W56168  25.477  20.671   4.625
87696W        W56169  18.692  42.830  12.030
87697W        W56170   7.274  31.932  11.958
87698W        W56171  42.326  39.933  13.927
87699W        W56172  10.666  41.527  11.567
87700W        W56173  11.302  42.889   3.667
87701W        W56174  26.509   0.459   2.726
87702W        W56175  21.022  37.915   4.700
87703W        W56176  15.178  42.302  10.435
87704W        W56177  28.628  43.789   2.860
87705W        W56178  23.517  27.519  11.457
87706W        W56179  13.268  19.690  10.072
87707W        W56180  20.191  14.227   3.229
87708W        W56181  33.964  22.503   2.734
87709W        W56182  31.608  31.621  13.313
87710W        W56183   2.465  39.810   0.836
87711W        W56184  28.534  41.430   1.219
87712W        W56185  23.020  17.225  14.855
87713W        W56186  39.489  19.192   3.357
87714W        W56187   7.262  38.974   3.385
87715W        W56188   1.463  44.325   1.830
87716W        W56189  29.922  42.519   2.804
87717W        W56190  11.285  38.005  11.984
87718W        W56191  41.344  21.158  11.868
87719W        W56192  43.482  33.532  10.073
87720W        W56193   9.270  18.087  12.035
87721W        W56194   0.772  42.832   4.629
87722W        W56195  33.488   9.180   1.425
87723W        W56196   9.189  18.294   1.864
87724W        W56197  10.292  24.003  10.918
87725W        W56198  18.255  41.320  10.586
87726W        W56199  18.116  21.619  10.566
87727W        W56200  34.973   2.784   0.815
87728W        W56201  35.104   2.383  14.514
87729W        W56202  42.860  29.564  12.947
87730W        W56203  12.793  15.150   0.810
87731W        W56204   1.266   1.836  12.910
87732W        W56205  36.484  42.810   2.380
87733W        W56206  39.065   5.431  12.536
87734W        W56207   9.699   3.747   4.661
87735W        W56208  26.484  24.114  11.001
87736W        W56209  36.897  37.475   1.708
87737W        W56210  23.112   5.330   1.361
87738W        W56211  14.769  15.162  13.875
87739W        W56212  41.014  29.091   4.752
87740W        W56213  26.038  33.501   0.758
87741W        W56214  12.335  22.668   3.818
87742W        W56215   9.856  26.535   4.349
87743W        W56216  28.015  44.998   4.728
87744W        W56217   0.466   4.312  11.869
87745W        W56218  15.781  18.618  10.469
87746W        W56219  32.971  36.877  13.487
87747W        W56220  20.735  27.042   4.296
87748W        W56221  31.112  36.358   1.313
87749W        W56222   3.260  29.536  14.958
87750W        W56223  33.062   3.888   2.752
87751W        W56224   5.310  19.167  14.321
87752W        W56225  36.588   7.173   4.786
87753W        W56226  38.058  15.818   3.277
87754W        W56227  39.871  40.484   4.774
87755W        W56228   3.712  18.050  14.491
87756W        W56229  36.360   9.848   0.411
87757W        W56230  14.102  44.876  10.560
87758W        W56231  15.221  36.460   1.436
87759W        W56232  32.095  39.382  11.425
87760W        W56233  29.555  24.097   5.720
87761W        W56234   1.420  43.495   3.642
87762W        W56235  20.062  16.091  13.926
87763W        W56236  39.895  32.438  14.946
87764W        W56237  29.100  20.686  12.037
87765W        W56238  23.103  17.556  14.883
87766W        W56239  33.009  20.765   0.424
87767W        W56240   8.668   1.346   1.252
87768W        W56241   3.246  26.545   1.447
87769W        W56242   8.237  30.453   4.305
87770W        W56243  40.873  36.945  12.904
87771W        W56244  25.002  39.403  13.364
87772W        W56245   5.903  34.515  11.051
87773W        W56246  37.875  39.331   0.765
87774W        W56247  14.117  29.483   4.205
87775W        W56248  32.558  12.818  11.057
87776W        W56249  15.650  42.498  14.794
87777W        W56250  10.241  30.516  12.950
87778W        W56251   5.338   6.310   2.384
87779W        W56252  16.223  30.654  14.890
87780W        W56253  31.019   3.894   2.734
87781W        W56254   3.220   3.304  11.868
87782W        W56255  27.139  43.987   3.180
87783W        W56256  14.753  18.688  13.526
87784W        W56257  29.558  14.138  11.864
87785W        W56258  28.655   6.774  11.060
87786W        W56259  41.400  26.086  11.595
87787W        W56260  39.557  24.990  14.402
87788W        W56261  16.740   9.215  11.502
87789W        W56262  40.492  10.329   1.419
87790W        W56263  14.333   4.838   0.870
87791W        W56264  22.500  30.419  12.354
87792W        W56265  31.064   0.393   2.208
87793W        W56266  28.668   2.392  12.480
87794W        W56267   3.849  29.476   0.280
87795W        W56268  10.156   9.859   4.325
87796W        W56269   5.902   7.832   2.896
87797W        W56270   8.389  10.727   4.818
87798W        W56271   0.369  16.273  14.439
87799W        W56272  27.525  22.008   2.842
87800W        W56273  14.121   7.171   3.199
87801W        W56274  12.153  27.547   0.759
87802W        W56275  12.129  39.822  11.078
87803W        W56276   1.448  21.083   2.835
87804W        W56277  30.575   1.329  13.950
87805W        W56278  14.245  31.111  12.854
87806W        W56279   3.822  33.088  12.049
87807W        W56280  44.291   2.379   1.755
87808W        W56281   0.278  15.711   2.286
87809W        W56282   1.368   2.889   2.771
87810W        W56283  19.594  40.431   0.335
87811W        W56284  19.572  24.999  10.623
87812W        W56285  21.026   8.359   0.755
87813W        W56286  21.219  23.014  11.004
87814W        W56287  31.403   9.689  10.413
87815W        W56288  29.495   4.714  11.107
87816W        W56289   9.349   0.976   4.243
87817W        W56290   4.233  39.976  13.384
87818W        W56291  30.913  13.320   3.634
87819W        W56292   2.758  28.088  10.429
87820W        W56293  31.464  25.585   3.645
87821W        W56294   4.211   7.415   2.663
87822W        W56295   0.326  32.438  14.031
87823W        W56296  19.136  23.510  11.427
87824W        W56297  43.375   9.654   2.342
87825W        W56298  20.092   5.365   2.390
87826W        W56299   5.388  25.001   3.296
87827W        W56300  10.367  42.457   2.702
87828W        W56301   8.376  24.148   1.738
87829W        W56302  29.929  27.138   0.862
87830W        W56303  36.052  36.510  12.364
87831W        W56304  24.534  25.703   1.865
87832W        W56305  37.498  27.513  10.088
87833W        W56306   8.210   0.436  13.952
87834W        W56307   0.414  30.656   3.845
87835W        W56308  16.803  35.571   4.612
87836W        W56309   4.761  19.157   1.325
87837W        W56310  21.539  37.456   4.750
87838W        W56311  44.861  10.656   2.709
87839W        W56312  34.115  26.497   2.785
87840W        W56313  28.473  31.000  12.879
87841W        W56314  35.467   1.323  14.015
87842W        W56315  37.958  20.536   0.397
87843W        W56316  19.202  30.977   0.929
87844W        W56317  20.610   1.388   1.694
87845W        W56318   8.686  31.511   1.377
87846W        W56319  25.527  44.902   3.231
87847W        W56320  30.640  30.084   4.117
87848W        W56321  11.185   0.465  11.595
87849W        W56322  18.586   6.707   0.827
87850W        W56323   1.840   1.332   1.423
87851W        W56324   9.810  21.163  12.834
87852W        W56325  18.094  39.557   2.789
87853W        W56326  33.127  44.284   9.940
87854W        W56327  44.879  39.413   4.643
87855W        W56328  13.831  30.086   1.322
87856W        W56329  23.205  21.718   0.433
87857W        W56330  17.711   5.262   3.369
87858W        W56331  24.519  32.472   2.358
87859W        W56332   2.261  19.674  12.533
87860W        W56333   9.720  42.819   1.719
87861W        W56334  20.264  17.210  14.868
87862W        W56335   2.434   2.913  14.878
87863W        W56336  38.353  33.052  12.973
87864W        W56337  32.591  17.593   4.606
87865W        W56338  43.462  37.840  12.949
87866W        W56339   4.896  12.351   0.896
87867W        W56340  26.536   1.766  11.383
87868W        W56341  26.464  31.150   4.265
87869W        W56342  20.699  21.743  12.969
87870W        W56343  44.967  23.620  13.456
87871W        W56344  25.608  43.797   3.271
87872W        W56345  29.523  21.144  10.070
87873W        W56346  19.695  15.762   1.910
87874W        W56347   7.681  12.224  12.867
87875W        W56348   2.725  39.461   1.357
87876W        W56349  15.786  29.015  14.468
87877W        W56350  12.683   3.873  13.502
87878W        W56351   5.302  21.227  11.985
87879W        W56352  40.934  19.538  12.902
87880W        W56353  39.322   8.173   1.846
87881W        W56354   6.186  14.695   1.888
87882W        W56355  14.230  33.591   1.420
87883W        W56356  14.334  12.190   2.687
87884W        W56357   7.361  18.670  11.419
87885W        W56358  37.340  42.919   5.137
87886W        W56359   5.416  17.126   0.250
87887W        W56360  24.656  34.955   0.732
87888W        W56361   0.944  31.102   2.279
87889W        W56362  29.118  35.956   3.355
87890W        W56363   1.481   1.442  12.376
87891W        W56364  41.829  29.474  13.944
87892W        W56365  10.748  17.609  10.981
87893W        W56366  21.631  15.687   3.307
87894W        W56367  33.949  44.407   2.402
87895W        W56368  20.076  26.200   4.165
87896W        W56369  44.274   1.907  10.617
87897W        W56370  30.576  43.990  10.962
87898W        W56371   8.401  36.874   2.296
87899W        W56372  37.458   3.844  13.805
87900W        W56373   9.863  34.418  10.567
87901W        W56374  29.619   3.850   1.834
87902W        W56375  28.508  25.599  11.539
87903W        W56376  13.745  30.650   0.796
87904W        W56377   3.949   1.313   1.362
87905W        W56378   3.333  28.997   0.308
87906W        W56379   3.307  42.489  11.994
87907W        W56380  24.058  41.038  13.916
87908W        W56381  23.539  27.092   3.662
87909W        W56382  33.120  18.188   2.817
87910W        W56383  39.354  15.204   2.765
87911W        W56384  26.157  20.095   2.345
87912W        W56385  21.724  16.767   0.278
87913W        W56386   7.265   4.707   3.830
87914W        W56387  38.860  27.136   1.268
87915W        W56388  44.446  43.820   4.748
87916W        W56389  33.406  13.197  12.903
87917W        W56390   3.926  21.204   4.833
87918W        W56391  37.902  20.627  13.404
87919W        W56392  36.497  37.029  10.966
87920W        W56393   3.407  19.607  10.507
87921W        W56394  40.941   6.317   2.762
87922W        W56395   6.706  34.084  10.528
87923W        W56396  24.485   3.412  13.540
87924W        W56397   1.905  44.485  14.858
87925W        W56398  14.764   1.257   3.161
87926W        W56399  43.810  28.621   4.325
87927W        W56400  21.035  37.865   0.921
87928W        W56401   4.295  16.270  10.552
87929W        W56402  25.096  10.268  11.862
87930W        W56403  29.937   3.876  12.929
87931W        W56404  13.263   3.711  11.469
87932W        W56405  29.955  42.994  11.954
87933W        W56406  39.962  44.275  13.923
87934W        W56407  13.631  18.581   3.849
87935W        W56408  30.137  19.101  10.593
87936W        W56409   5.749   6.884   0.328
87937W        W56410   9.656  38.937   3.712
87938W        W56411  32.046   4.891  13.005
87939W        W56412  37.079  19.664   4.262
87940W        W56413  20.053  19.597   5.092
87941W        W56414   1.974  35.936  12.970
87942W        W56415  31.509  21.534   2.818
87943W        W56416  14.619  32.438   3.745
87944W        W56417  15.719  17.296   0.911
87945W        W56418   5.412  21.231   0.476
87946W        W56419  32.064   1.275   1.299
87947W        W56420  13.672  37.547  13.019
87948W        W56421   2.922  44.260   1.894
87949W        W56422   3.873   6.802   0.356
87950W        W56423  18.721   5.294  14.415
87951W        W56424   3.799  42.870   3.866
87952W        W56425  39.509   5.910  12.890
87953W        W56426   0.817  37.582  10.946
87954W        W56427  15.814  22.595  13.522
87955W        W56428  40.311   3.404  13.817
87956W        W56429  21.143  41.924   1.764
87957W        W56430  41.476  41.467  10.636
87958W        W56431  29.515  15.588  13.970
87959W        W56432  20.172  42.943  10.564
87960W        W56433   3.897  24.724  11.048
87961W        W56434  30.625  12.315  12.444
87962W        W56435  32.621  22.219   1.746
87963W        W56436  16.570  25.672   4.302
87964W        W56437  12.203  25.139   3.358
87965W        W56438  35.963  17.069   4.668
87966W        W56439   1.266  34.019   1.215
87967W        W56440  40.840  30.486   0.870
87968W        W56441  22.071   8.797  10.965
87969W        W56442  44.482  31.971  12.076
87970W        W56443  44.309  33.084   2.867
87971W        W56444  11.703  27.047  14.430
87972W        W56445  44.320  44.400  12.908
87973W        W56446  31.599  41.854   0.902
87974W        W56447  14.176  16.159  12.561
87975W        W56448   2.417  38.533   1.273
87976W        W56449  17.570  44.903  11.956
87977W        W56450  26.177  22.189   3.850
87978W        W56451  38.043  32.070  11.593
87979W        W56452  44.441   9.740   5.155
87980W        W56453  44.449  37.033   0.370
87981W        W56454  16.660  10.810  12.569
87982W        W56455  41.397  32.134  10.545
87983W        W56456  44.290  11.306  12.980
87984W        W56457  13.805  39.523  12.066
87985W        W56458   5.436  37.381  11.114
87986W        W56459  17.638  17.159   2.289
87987W        W56460  32.505  19.118   1.919
87988W        W56461  14.687  15.805  13.956
87989W        W56462  14.222   5.199   3.242
87990W        W56463   1.311  35.868  13.535
87991W        W56464  40.472  44.393   4.641
87992W        W56465   3.927  30.608   0.300
87993W        W56466  41.975  19.696  13.442
87994W        W56467  23.097   7.221  12.090
87995W        W56468   7.259   2.956  14.395
87996W        W56469  23.128  19.207   0.737
87997W        W56470  13.612  14.304  11.889
87998W        W56471  23.492  40.447  12.025
87999W        W56472  19.607  38.467  14.934
88000W        W56473  39.931  15.120   1.253
88001W        W56474  40.324   5.425   2.247
88002W        W56475   2.906  44.397  12.927
88003W        W56476   1.323  24.486   1.336
88004W        W56477   8.722   2.293  12.007
88005W        W56478  25.477   5.306  12.854
88006W        W56479   1.252  39.552   4.282
88007W        W56480  26.487  11.778   1.719
88008W        W56481   0.284  43.837   1.316
88009W        W56482   7.756   3.775  10.529
88010W        W56483  18.196  44.372  12.467
88011W        W56484  42.823  27.555  12.899
88012W        W56485  21.079   3.759  14.942
88013W        W56486   8.700  34.868   1.713
88014W        W56487  13.272  14.704  11.910
88015W        W56488  20.119   6.847  13.838
88016W        W56489  21.085  28.036   3.844
88017W        W56490   2.807  26.015   1.268
88018W        W56491  25.604  23.008  11.924
88019W        W56492   1.307  29.066  13.310
88020W        W56493  43.954   2.225  11.029
88021W        W56494  22.228  20.763  12.848
88022W        W56495  37.083   3.340   1.834
88023W        W56496  10.856  37.032   0.299
88024W        W56497  39.421  32.055  12.979
88025W        W56498   0.468   3.355  13.928
88026W        W56499  40.396  12.360  12.532
88027W        W56500  34.019  32.484   0.787
88028W        W56501   1.782  42.313  12.362
88029W        W56502  37.496  25.499  13.854
88030W        W56503  25.049  44.923   3.780
88031W        W56504  30.466  24.004   4.272
88032W        W56505  23.080   7.809   1.394
88033W        W56506   8.871  37.571   4.647
88034W        W56507   0.775  36.999  12.574
88035W        W56508  20.045  26.152   1.366
88036W        W56509  42.848  27.535  14.314
88037W        W56510  31.634  15.779  14.909
88038W        W56511  31.554  23.559   0.822
88039W        W56512   8.201  33.119  13.457
88040W        W56513  33.587  37.413   1.391
88041W        W56514  22.588  44.444  10.946
88042W        W56515  10.832  14.099  14.387
88043W        W56516  31.412  39.983   4.245
88044W        W56517   5.705  25.504  12.897
88045W        W56518   5.824  16.139  13.355
88046W        W56519  28.460  33.984   2.667
88047W        W56520  40.829  34.591   2.367
88048W        W56521  25.200  28.008  14.803
88049W        W56522  18.280  30.569   1.339
88050W        W56523   0.340  28.944   4.293
88051W        W56524  17.241   2.421   2.694
88052W        W56525  24.591   5.779  11.401
88053W        W56526  33.941  11.778  11.910
88054W        W56527  37.508  24.126   2.344
88055W        W56528  35.465   8.328  13.928
88056W        W56529  17.128  43.285  13.401
88057W        W56530  15.672  18.636  13.911
88058W        W56531  44.338  33.060  11.986
88059W        W56532  41.332  31.567  11.919
88060W        W56533  33.999   0.457  13.517
88061W        W56534  15.158   1.338  10.995
88062W        W56535  13.332  17.768   3.193
88063W        W56536  37.459  13.117   1.390
88064W        W56537  35.100  38.473  14.383
88065W        W56538  37.422  27.539   2.179
88066W        W56539   2.255  24.222  11.862
88067W        W56540  32.409   3.429   4.654
88068W        W56541  19.696  17.246   1.818
88069W        W56542  11.776   0.303  14.001
88070W        W56543  21.538  29.536  14.366
88071W        W56544  26.064  37.959  10.571
88072W        W56545  10.860  16.707  11.537
88073W        W56546  44.928   3.944  10.611
88074W        W56547   6.875  19.656  10.908
88075W        W56548  11.634  19.551  13.883
88076W        W56549  18.144  24.637  13.844
88077W        W56550   4.409  42.314   3.861
88078W        W56551  41.885  19.210  12.052
88079W        W56552  32.557   5.796  13.043
88080W        W56553  32.541  22.690  10.550
88081W        W56554   1.359  25.575  10.905
88082W        W56555  17.641  41.955   2.703
88083W        W56556  24.002   3.324   3.719
88084W        W56557  40.910   6.321  12.523
88085W        W56558  32.555  26.981   2.850
88086W        W56559   6.861  30.927  13.509
88087W        W56560  25.700  27.514  11.579
88088W        W56561  24.518  38.473  13.038
88089W        W56562  16.716  19.182  10.536
88090W        W56563  38.990  31.138   3.822
88091W        W56564  27.974  11.755   1.217
88092W        W56565  11.363   1.842  11.609
88093W        W56566   1.835  32.470   4.280
88094W        W56567  20.193  12.266  12.408
88095W        W56568  23.011  25.685  10.460
88096W        W56569  43.791   2.796   4.609
88097W        W56570  25.211   1.829   0.888
88098W        W56571  38.451  13.844   2.711
88099W        W56572  23.013  14.800  14.886
88100W        W56573  33.101   2.433   2.241
88101W        W56574  23.527  39.512  11.947
88102W        W56575  28.033  12.223  14.970
88103W        W56576  20.079  32.460   1.316
88104W        W56577  10.266   3.732   1.264
88105W        W56578  18.637  10.858   4.746
88106W        W56579  27.028  44.268   9.969
88107W        W56580  30.156  17.634   4.253
88108W        W56581  23.558   0.851  13.463
88109W        W56582  20.748  33.991  11.408
88110W        W56583  44.983  38.511  11.448
88111W        W56584  31.612   9.322   4.678
88112W        W56585   8.703  29.604  14.498
88113W        W56586   1.434  19.630   1.933
88114W        W56587   6.241  18.562   3.271
88115W        W56588   7.181  11.168  12.974
88116W        W56589  11.314   7.377  11.001
88117W        W56590   0.899  26.682   1.728
88118W        W56591  35.402  12.652   2.667
88119W        W56592  41.414  35.925   2.839
88120W        W56593   2.889  42.921   0.966
88121W        W56594   4.909  31.015  14.027
88122W        W56595  42.362   8.722   3.789
88123W        W56596  35.994  39.826   0.380
88124W        W56597   6.755  28.133   2.321
88125W        W56598  41.961   2.250  14.285
88126W        W56599  22.100  18.631   3.273
88127W        W56600  16.685   1.821   0.469
88128W        W56601  22.616  22.737   2.305
88129W        W56602  10.713  43.955   3.649
88130W        W56603  40.861  16.256   1.827
88131W        W56604   1.819  23.120  13.817
88132W        W56605  32.583   4.885  13.865
88133W        W56606  39.368   1.892  11.374
88134W        W56607  12.119  37.455   1.316
88135W        W56608  31.097   4.208   2.317
88136W        W56609  27.639  41.025   2.224
88137W        W56610  30.945   2.730   3.750
88138W        W56611  16.595  30.463   4.698
88139W        W56612  14.313  26.207   1.364
88140W        W56613  41.311  22.067  13.034
88141W        W56614  13.657  22.140   0.420
88142W        W56615  16.720  23.651   1.893
88143W        W56616  41.848  17.240   0.369
88144W        W56617   8.296   7.282  11.864
88145W        W56618   9.806  30.624  13.973
88146W        W56619   3.821  25.984   1.270
88147W        W56620  31.615  21.162  12.013
88148W        W56621  28.991  18.251  12.072
88149W        W56622  22.113   0.450   0.899
88150W        W56623  23.216  43.322  11.527
88151W        W56624  33.454   5.239   3.752
88152W        W56625  32.421  33.387  11.062
88153W        W56626  38.827  19.097  12.899
88154W        W56627  15.654  35.474   3.327
88155W        W56628  39.409   7.873   2.779
88156W        W56629  17.298  37.919   2.700
88157W        W56630  28.950   1.437  11.586
88158W        W56631  41.956  31.927   0.774
88159W        W56632  26.494  16.674   1.224
88160W        W56633   9.708  11.794   1.890
88161W        W56634   7.860   8.241   4.251
88162W        W56635   4.886   9.700  13.935
88163W        W56636   1.337  25.534  13.407
88164W        W56637  39.808  20.739  14.307
88165W        W56638  34.962  43.859   1.754
88166W        W56639  28.529   5.730  14.465
88167W        W56640   3.416  40.445   2.773
88168W        W56641  33.911   8.341   2.274
88169W        W56642  30.497  18.635  13.993
88170W        W56643  42.375  10.270   4.334
88171W        W56644  44.823  23.165   4.182
88172W        W56645  41.479  39.869   3.166
88173W        W56646  22.246  32.981   4.155
88174W        W56647   7.406  28.134   0.452
88175W        W56648  20.678  18.143  14.887
88176W        W56649  25.210  32.491  11.880
88177W        W56650  22.720  41.966  14.387
88178W        W56651   4.361   4.349   1.809
88179W        W56652  23.609  16.139  11.568
88180W        W56653   0.279  13.784   4.337
88181W        W56654  25.592  33.390   3.708
88182W        W56655  10.645  38.976   1.311
88183W        W56656  26.199   2.440   4.690
88184W        W56657  36.087  23.515  11.024
88185W        W56658  14.158  11.320   0.915
88186W        W56659   0.467  22.576   4.353
88187W        W56660  41.840  24.704   0.359
88188W        W56661  40.415  29.972   3.640
88189W        W56662  32.510   0.409  13.495
88190W        W56663  28.158  27.088   3.300
88191W        W56664  18.728  23.168   4.728
88192W        W56665  22.693  11.136  10.102
88193W        W56666   5.800  32.129  11.978
88194W        W56667  17.563  13.727   4.259
88195W        W56668   3.814  34.516   0.282
88196W        W56669  20.668  22.740   4.136
88197W        W56670  44.888  40.473  11.544
88198W        W56671  44.419  37.877   2.832
88199W        W56672  40.437  33.615  11.987
88200W        W56673   4.740   2.957  11.978
88201W        W56674  10.314   2.966   2.337
88202W        W56675  21.041  20.190   4.641
88203W        W56676  35.905   8.385  12.864
88204W        W56677  31.639  20.084   3.694
88205W        W56678  30.091  44.358  12.977
88206W        W56679  35.074  10.642   1.893
88207W        W56680  35.528  25.184   1.405
88208W        W56681  13.273  35.434   4.207
88209W        W56682  33.615  35.048   3.766
88210W        W56683  14.835   2.916   1.406
88211W        W56684   8.890  31.569   2.388
88212W        W56685  37.962  20.678  12.505
88213W        W56686  43.302  33.415   2.830
88214W        W56687  22.710  24.226  14.304
88215W        W56688  16.634  39.816   2.301
88216W        W56689   5.439  23.073   1.858
88217W        W56690   3.767  41.469   4.225
88218W        W56691  12.202  29.155  14.885
88219W        W56692  17.601  38.331  11.508
88220W        W56693  25.204  27.664  11.957
88221W        W56694   6.763  25.689  11.938
88222W        W56695  25.479   8.736  12.565
88223W        W56696  26.163   0.413   3.318
88224W        W56697  42.385  40.988   3.363
88225W        W56698  41.437  44.406   2.692
88226W        W56699  17.565  17.579  14.775
88227W        W56700  32.118  20.664  14.436
88228W        W56701  18.222  23.049   3.767
88229W        W56702   7.706  33.531   0.350
88230W        W56703  16.601  11.805   4.186
88231W        W56704   6.221  12.268   1.856
88232W        W56705  43.276   2.407  11.446
88233W        W56706  15.303   6.703  13.960
88234W        W56707  29.117  36.401   3.835
88235W        W56708   6.393  26.629  14.491
88236W        W56709   0.445  34.555  14.972
88237W        W56710   7.827  29.466   0.479
88238W        W56711  33.876  41.309  13.471
88239W        W56712  28.118   2.443  12.534
88240W        W56713  36.404  29.053   3.278
88241W        W56714   2.456  29.919   4.200
88242W        W56715  41.449   6.244   0.453
88243W        W56716  39.428  13.319   2.894
88244W        W56717  18.713  10.189  14.029
88245W        W56718  21.639   1.772   3.734
88246W        W56719  14.118  43.514   3.705
88247W        W56720  36.482  38.516   4.597
88248W        W56721  21.185  38.345  11.968
88249W        W56722  40.001  41.831  13.866
88250W        W56723   6.778  38.849   3.685
88251W        W56724  29.427   0.475  13.414
88252W        W56725  27.148  20.532  13.325
88253W        W56726  23.986  35.068  12.050
88254W        W56727  18.628   1.862   2.683
88255W        W56728  38.857  34.108   1.411
88256W        W56729  40.307  43.400   2.402
88257W        W56730   0.249  19.127  10.976
88258W        W56731  32.890  33.553  14.816
88259W        W56732  23.083  19.592  12.999
88260W        W56733   8.278  31.546  13.377
88261W        W56734   6.823  31.611  11.461
88262W        W56735  20.255  44.796   0.820
88263W        W56736  12.763  26.181  13.455
88264W        W56737   9.689  26.189   1.907
88265W        W56738  10.792  26.478  14.401
88266W        W56739   0.312  43.451   3.194
88267W        W56740  21.222  39.555  11.455
88268W        W56741  16.101  40.449  11.536
88269W        W56742  33.063   1.783   0.926
88270W        W56743  21.179  35.963   5.207
88271W        W56744  33.018  41.805  14.888
88272W        W56745  33.944  16.142   3.312
88273W        W56746  40.363  21.187  10.499
88274W        W56747  16.151  39.877   4.646
88275W        W56748  41.819  30.417  12.475
88276W        W56749  36.033  42.929   4.600
88277W        W56750  30.995  26.099  13.529
88278W        W56751   6.291  16.081  11.872
88279W        W56752  21.104  19.264  11.999
88280W        W56753  42.903   3.439   0.453
88281W        W56754  10.830  43.427   4.789
88282W        W56755  33.059  23.552  12.067
88283W        W56756  34.578  34.565   3.352
88284W        W56757  37.476  35.410  12.552
88285W        W56758  29.123   6.264   4.272
88286W        W56759  23.543  34.963   3.316
88287W        W56760  11.866  12.303   0.316
88288W        W56761  43.908  40.510  12.868
88289W        W56762  29.527   6.412   0.466
88290W        W56763  10.245   8.803   3.326
88291W        W56764   8.762  11.177  13.380
88292W        W56765   1.909  37.017   3.796
88293W        W56766  43.888  11.262   4.197
88294W        W56767  24.139  10.877   0.927
88295W        W56768  24.076  44.894   1.875
88296W        W56769   1.970  24.582  12.863
88297W        W56770  24.974  35.086  14.384
88298W        W56771  30.149  30.158  10.926
88299W        W56772  24.690  17.675   1.741
88300W        W56773  43.948  34.938   1.747
88301W        W56774  34.109  26.136   0.257
88302W        W56775  15.140  38.371   1.281
88303W        W56776  38.939  11.198  11.008
88304W        W56777  19.603  30.073  13.465
88305W        W56778   1.827  23.532  14.882
88306W        W56779  43.785  19.220   1.711
88307W        W56780  35.424   0.376   3.377
88308W        W56781  13.712  32.499  12.394
88309W        W56782   0.353  43.959  12.855
88310W        W56783  19.097  41.333   2.713
88311W        W56784  36.075  24.124   0.837
88312W        W56785  30.944  34.068  13.313
88313W        W56786   1.935  20.696   4.736
88314W        W56787  18.595  28.087   4.678
88315W        W56788  29.576  28.533  12.389
88316W        W56789  19.740  19.631   4.612
88317W        W56790  40.543  25.531   4.749
88318W        W56791  35.511   9.775   2.674
88319W        W56792  13.327  27.692  10.909
88320W        W56793  34.422  41.499   0.445
88321W        W56794  30.049   4.427  12.917
88322W        W56795  22.228  15.595  14.335
88323W        W56796  33.542  34.024   0.947
88324W        W56797  32.125  34.085  12.088
88325W        W56798   8.183  25.597  12.946
88326W        W56799  43.394  35.537   0.270
88327W        W56800  26.532  24.981  13.856
88328W        W56801  12.356  26.495  10.465
88329W        W56802  30.018  11.812  12.973
88330W        W56803   5.407   4.923   1.919
88331W        W56804  29.530  34.063  11.957
88332W        W56805  26.653  18.693  13.520
88333W        W56806  36.432  30.599  14.818
88334W        W56807   8.253   4.288  10.446
88335W        W56808  43.925  39.401   0.906
88336W        W56809  35.064  14.304  14.779
88337W        W56810  13.839  39.494  10.503
88338W        W56811  35.461  39.960   3.679
88339W        W56812  23.639   3.867  14.882
88340W        W56813  16.306  33.383   1.892
88341W        W56814   9.757  42.284  13.039
88342W        W56815  40.879  17.113  14.925
88343W        W56816  10.656   5.264   0.809
88344W        W56817  12.804   9.391  11.373
88345W        W56818  15.100   2.270   2.333
88346W        W56819   4.266  20.704  11.089
88347W        W56820  40.050  35.938  11.902
88348W        W56821  38.529  22.695   4.751
88349W        W56822  31.543  29.440  12.957
88350W        W56823  40.913  27.990   2.850
88351W        W56824   9.370  23.593   1.862
88352W        W56825  37.930  25.048  11.971
88353W        W56826  21.241  11.175   4.762
88354W        W56827   1.926  35.459   4.194
88355W        W56828   2.877  39.065   3.813
88356W        W56829   5.735  15.672   5.571
88357W        W56830  38.934  21.752   4.675
88358W        W56831   7.177  10.645  14.784
88359W        W56832  25.612  26.551  11.446
88360W        W56833   7.686  21.521   0.947
88361W        W56834  36.454  38.889  11.451
88362W        W56835  44.265  39.846   5.263
88363W        W56836  14.229   1.931  13.455
88364W        W56837  36.040   5.358   0.425
88365W        W56838  23.012  33.935  14.960
88366W        W56839  40.807   1.472   0.824
88367W        W56840  20.655  35.872   1.337
88368W        W56841  26.175  30.448   1.741
88369W        W56842  14.313  18.598  13.897
88370W        W56843  12.794  30.985   3.825
88371W        W56844  18.280  24.516   0.922
88372W        W56845  29.979  34.958  11.882
88373W        W56846   4.808  25.163  14.762
88374W        W56847   1.343  26.500  11.995
88375W        W56848  24.171  42.312   3.850
88376W        W56849   1.895  37.894   0.413
88377W        W56850  23.531  30.008   4.725
88378W        W56851  32.104   5.714  12.038
88379W        W56852  30.962  20.722  11.944
88380W        W56853  39.918  13.281   0.401
88381W        W56854  42.776  25.020  14.463
88382W        W56855  11.299   3.232  14.771
88383W        W56856   0.319  30.004   0.754
88384W        W56857  29.542  28.949   0.764
88385W        W56858  23.555   5.232   0.423
88386W        W56859  38.921  44.395  13.896
88387W        W56860   3.303  11.328   0.959
88388W        W56861  43.478  23.134   1.414
88389W        W56862  14.776   4.444  10.954
88390W        W56863  13.707  24.652   0.956
88391W        W56864  30.482  24.640  11.047
88392W        W56865  21.664  27.508   3.828
88393W        W56866  24.192  18.653  12.575
88394W        W56867  18.576  21.670  10.621
88395W        W56868   3.436  32.025   3.295
88396W        W56869  35.862  33.522  12.348
88397W        W56870   0.488  19.074  14.856
88398W        W56871  23.058   5.305  12.436
88399W        W56872  43.999  37.079   1.828
88400W        W56873  34.892  38.485   0.412
88401W        W56874  34.935  17.639   3.757
88402W        W56875  21.036  11.695   4.165
88403W        W56876  11.194   9.756  11.946
88404W        W56877  26.500  20.750  10.416
88405W        W56878  25.516  40.840  13.018
88406W        W56879   2.821  17.703   2.380
88407W        W56880  33.546   2.935  10.541
88408W        W56881   8.401  12.169   3.697
88409W        W56882  26.202  18.682  14.933
88410W        W56883   5.358  40.404  14.472
88411W        W56884  14.821  27.112  10.937
88412W        W56885  22.713  14.151  10.954
88413W        W56886  29.135   3.945   3.689
88414W        W56887  25.001  32.072   4.823
88415W        W56888  25.165   4.775   5.224
88416W        W56889  37.967  20.061   2.704
88417W        W56890  23.540  20.199  11.382
88418W        W56891   8.306  40.848  14.427
88419W        W56892  30.929  12.730   2.418
88420W        W56893  13.619   4.342   2.257
88421W        W56894  14.304  40.404   0.309
88422W        W56895  27.657  39.915  13.042
88423W        W56896  32.450  34.446   0.798
88424W        W56897  39.535  27.119   3.743
88425W        W56898  29.651  18.137  10.562
88426W        W56899  27.651  19.283  11.977
88427W        W56900  13.627  25.688   0.759
88428W        W56901  32.083  33.456   4.176
88429W        W56902   4.204  13.157   0.255
88430W        W56903  27.129  43.974   0.833
88431W        W56904  36.068  34.560  12.049
88432W        W56905   3.426  19.271   1.909
88433W        W56906  30.509  42.474   2.350
88434W        W56907  13.729  29.011   3.806
88435W        W56908   6.732  43.352   0.916
88436W        W56909   1.337   6.852   4.282
88437W        W56910  35.907  40.499   2.378
88438W        W56911   7.726  44.455   2.673
88439W        W56912  33.058  17.189   1.894
88440W        W56913  41.303   0.964  10.455
88441W        W56914  42.478  39.537  10.422
88442W        W56915  11.275  26.664   2.375
88443W        W56916  22.533   7.257   1.808
88444W        W56917  38.038  15.242  13.336
88445W        W56918  25.693  14.323  13.312
88446W        W56919  18.180  33.603  14.973
88447W        W56920  42.437   4.716   0.454
88448W        W56921  13.752  19.096   3.817
88449W        W56922   8.793  29.143   1.898
88450W        W56923  29.623  13.608  14.009
88451W        W56924  21.525  24.218  11.595
88452W        W56925  41.365   4.709   3.730
88453W        W56926  43.018  27.522   0.478
88454W        W56927   7.891  18.257  10.495
88455W        W56928  11.849  10.812  13.046
88456W        W56929   2.775  23.497  12.432
88457W        W56930  30.432  14.340  13.443
88458W        W56931   3.765  25.216  12.358
88459W        W56932  44.395  39.493  14.813
88460W        W56933  15.712  41.332   4.616
88461W        W56934  37.955  35.453  11.892
88462W        W56935  24.589  15.184  13.309
88463W        W56936  15.715  16.132   5.106
88464W        W56937  44.797  17.700  11.123
88465W        W56938  13.683  40.423  11.866
88466W        W56939  41.532  10.783  10.622
88467W        W56940  40.458  40.838   1.723
88468W        W56941  28.064  26.583   2.825
88469W        W56942  19.694  28.974   3.316
88470W        W56943  32.059  16.745  11.548
88471W        W56944  42.332  26.974  14.500
88472W        W56945  39.946  30.561  13.890
88473W        W56946  13.264  22.236  13.034
88474W        W56947  20.621   1.462  13.881
88475W        W56948  40.041  37.858   4.217
88476W        W56949  36.004  44.373  14.808
88477W        W56950   5.859   1.960  13.405
88478W        W56951  17.800  41.516   0.803
88479W        W56952  41.334   8.393  12.933
88480W        W56953  20.628  10.712  13.954
88481W        W56954  26.196   7.242   1.253
88482W        W56955   3.345  19.219   4.672
88483W        W56956  35.397  18.097   4.618
88484W        W56957  42.386  28.615   0.834
88485W        W56958  42.352  13.120   1.356
88486W        W56959   1.419  36.990  13.413
88487W        W56960  10.326   1.424  11.982
88488W        W56961  31.435  12.768  14.310
88489W        W56962  42.797  27.658  13.830
88490W        W56963   0.283  15.284   4.653
88491W        W56964  31.899  42.467   5.206
88492W        W56965  32.885  18.287   4.718
88493W        W56966  10.742   9.270   2.332
88494W        W56967   9.258  27.643  11.997
88495W        W56968  17.744   1.299  11.480
88496W        W56969  22.651   0.261  13.532
88497W        W56970  26.615  11.702  14.474
88498W        W56971   1.404  17.116   0.797
88499W        W56972  25.212  27.191  10.970
88500W        W56973  11.351  38.425  12.898
88501W        W56974  19.083  38.343   1.924
88502W        W56975   9.199  34.018   4.253
88503W        W56976  23.705  36.861   3.794
88504W        W56977   6.429  21.218  11.100
88505W        W56978  22.132   7.248   3.378
88506W        W56979  37.896  33.586  11.481
88507W        W56980  11.857  41.961   4.342
88508W        W56981  18.547   2.865   4.825
88509W        W56982  21.536   5.300  12.852
88510W        W56983  12.277  30.511   1.903
88511W        W56984   4.700  27.511   2.253
88512W        W56985  10.208   4.419  14.922
88513W        W56986  21.028  30.603   0.394
88514W        W56987  39.056   7.413   3.169
88515W        W56988  22.643  12.207  13.013
88516W        W56989   4.314  12.630  14.328
88517W        W56990  33.403   4.910   1.914
88518W        W56991  36.922   2.227  11.445
88519W        W56992  42.888  39.812  13.869
88520W        W56993  40.392  26.153   0.774
88521W        W56994   2.282  39.013  11.979
88522W        W56995   1.949  11.333   3.682
88523W        W56996  19.174   7.882   0.954
88524W        W56997  13.726  33.899  14.893
88525W        W56998  34.876  10.834   2.717
88526W        W56999  35.413  38.555  13.872
88527W        W57000  27.115  17.640   0.773
88528W        W57001  12.843   5.323   3.343
88529W        W57002  35.860  29.095  13.940
88530W        W57003   4.404   0.304   4.290
88531W        W57004  24.686   6.771   4.128
88532W        W57005  33.124   3.395  12.077
88533W        W57006   8.311  41.400   3.244
88534W        W57007   8.258  29.995   1.286
88535W        W57008  17.179  20.523  13.378
88536W        W57009   4.751  37.074  11.110
88537W        W57010  31.560  19.773   4.342
88538W        W57011  11.129   8.402   0.827
88539W        W57012  37.974   6.758  14.482
88540W        W57013   4.316  24.055   1.712
88541W        W57014  43.324  35.477  13.813
88542W        W57015   7.805  36.437  12.413
88543W        W57016   6.286  41.871  13.021
88544W        W57017   3.386  34.904  10.557
88545W        W57018  40.317  17.283  10.418
88546W        W57019  25.213  14.097   5.216
88547W        W57020  14.637  43.790  12.440
88548W        W57021   7.176  18.764   4.635
88549W        W57022   6.321  43.899   2.206
88550W        W57023  37.843  23.106  13.878
88551W        W57024  22.129  42.448  14.380
88552W        W57025  24.513  40.894   1.220
88553W        W57026  41.450  38.435   4.217
88554W        W57027  13.757   2.279   0.904
88555W        W57028  35.914  17.240   4.122
88556W        W57029  24.078  38.067   0.921
88557W        W57030   7.403  25.155  12.451
88558W        W57031  18.601   7.823   3.345
88559W        W57032   7.799  15.680  12.874
88560W        W57033  37.433  37.023   0.747
88561W        W57034  28.076  15.675  11.100
88562W        W57035  14.747  28.954  14.978
88563W        W57036  27.078  35.558   2.894
88564W        W57037  25.599  28.132   0.292
88565W        W57038   9.337  13.168   2.358
88566W        W57039  35.528  38.879  13.519
88567W        W57040  44.466  21.257   0.880
88568W        W57041  22.019  40.848   3.838
88569W        W57042  34.110   7.712  11.083
88570W        W57043  33.042  28.491  14.799
88571W        W57044  19.134   7.203   2.689
88572W        W57045  34.479  13.690  13.842
88573W        W57046   5.314  16.181   4.324
88574W        W57047  31.121  16.137   3.203
88575W        W57048  35.044  16.099   4.653
88576W        W57049  16.798  29.579   4.728
88577W        W57050  11.700  12.276   1.353
88578W        W57051  12.120  16.740  10.959
88579W        W57052  38.819  18.178  11.069
88580W        W57053  30.150  11.287  10.968
88581W        W57054  33.880  27.535  11.574
88582W        W57055  13.312  25.698   1.915
88583W        W57056  15.690  38.948   3.154
88584W        W57057  14.269  36.490   0.451
88585W        W57058   1.466   3.226  14.328
88586W        W57059  13.199  18.265   1.769
88587W        W57060  36.393  42.283  11.404
88588W        W57061  20.574  37.842   2.823
88589W        W57062  42.435  38.493  13.953
88590W        W57063  21.538  28.966  13.971
88591W        W57064  25.998  18.574   3.252
88592W        W57065  24.480  29.127  11.051
88593W        W57066  31.603  19.620  12.062
88594W        W57067   0.360   9.688   1.335
88595W        W57068  26.106  17.602   3.309
88596W        W57069  24.564  10.297   1.337
88597W        W57070  29.565  30.462  13.895
88598W        W57071  27.192  21.023   4.162
88599W        W57072  37.957  39.430  12.446
88600W        W57073   2.830  26.014   4.222
88601W        W57074  22.233  10.360   3.228
88602W        W57075  11.172   7.405  10.408
88603W        W57076  23.199  37.406  10.468
88604W        W57077  17.708  10.212  10.595
88605W        W57078  20.228  21.732  11.432
88606W        W57079   7.682  11.664   2.896
88607W        W57080  36.021   3.265  14.316
88608W        W57081   0.881   8.252  13.412
88609W        W57082  25.181   9.320  11.910
88610W        W57083  42.827  18.051   3.738
88611W        W57084  42.354  23.228  13.844
88612W        W57085  25.491  34.438   3.674
88613W        W57086  12.805  12.123   4.624
88614W        W57087  41.425  13.728  14.950
88615W        W57088  15.746  20.683  10.455
88616W        W57089  30.467  19.632   1.800
88617W        W57090  14.692  35.539   2.673
88618W        W57091  39.416  17.764  12.096
88619W        W57092   1.253  29.501  12.565
88620W        W57093  23.666  11.829   2.317
88621W        W57094  21.668  36.941  14.319
88622W        W57095  38.895  31.461  11.861
88623W        W57096  28.666  15.291   2.744
88624W        W57097  18.223  36.593   2.739
88625W        W57098  44.391   9.365  14.376
88626W        W57099  14.835   4.317   4.258
88627W        W57100  35.394  18.135  10.980
88628W        W57101  35.069  18.062   0.329
88629W        W57102  25.076  11.194   2.763
88630W        W57103  11.665  27.139  12.835
88631W        W57104  21.607   0.312  14.335
88632W        W57105  36.891  10.337  12.552
88633W        W57106  19.229  40.372  11.862
88634W        W57107   1.974  33.875   0.886
88635W        W57108  43.309  36.968   1.864
88636W        W57109  15.684  13.670  13.001
88637W        W57110  11.722  35.063  11.952
88638W        W57111  37.427  14.806  14.915
88639W        W57112  23.605   7.233   1.927
88640W        W57113  28.484  36.913   0.281
88641W        W57114  40.398  43.481  13.311
88642W        W57115   9.170  17.572   2.689
88643W        W57116  39.811   3.741  14.026
88644W        W57117  14.802   0.336   4.260
88645W        W57118  35.549  12.695  14.788
88646W        W57119   1.808  36.388   1.304
88647W        W57120  43.969  29.471   4.242
88648W        W57121  40.802  42.927   2.892
88649W        W57122  27.013   3.332  14.813
88650W        W57123   2.873  12.852   2.897
88651W        W57124  23.571  29.025   2.738
88652W        W57125   5.425  36.482   4.161
88653W        W57126  18.561   8.168   0.960
88654W        W57127  24.090  28.176  11.382
88655W        W57128   6.414  28.533  12.835
88656W        W57129  31.595   6.752  13.339
88657W        W57130   2.370   2.296   1.705
88658W        W57131   2.929  27.102   4.128
88659W        W57132  15.214   7.683  14.425
88660W        W57133  26.534  12.731  13.978
88661W        W57134  25.146  13.342  14.844
88662W        W57135  41.804  43.007   2.825
88663W        W57136  30.019  42.967   2.199
88664W        W57137  21.751  12.805  11.025
88665W        W57138  43.481  10.139   0.333
88666W        W57139  24.106  38.496  13.483
88667W        W57140  26.638  22.096   0.318
88668W        W57141  22.577  30.015  11.020
88669W        W57142  38.980  36.850   0.417
88670W        W57143  16.670  33.959  10.580
88671W        W57144  35.565  33.967  11.926
88672W        W57145   1.892  43.796  10.502
88673W        W57146  39.837   5.870   2.693
88674W        W57147  36.921  40.816   3.857
88675W        W57148   4.310  30.420   3.702
88676W        W57149  28.090   3.728  13.545
88677W        W57150   6.836   8.773  14.988
88678W        W57151  12.194  27.582  12.011
88679W        W57152  15.112   3.770  10.501
88680W        W57153  24.974  15.329  14.928
88681W        W57154   1.799  24.075  13.018
88682W        W57155   3.738   9.724   2.882
88683W        W57156  31.983  21.719   3.741
88684W        W57157  10.190  18.232  14.437
88685W        W57158  13.301   1.404   2.321
88686W        W57159  14.180  32.071  13.818
88687W        W57160  42.324   9.665  11.054
88688W        W57161  34.117  43.334   1.289
88689W        W57162  44.964  31.971  13.934
88690W        W57163   3.718  29.594  14.886
88691W        W57164  28.103  10.708  13.954
88692W        W57165  23.035  13.193  10.518
88693W        W57166  21.233  44.403  11.081
88694W        W57167   2.314   1.314   1.322
88695W        W57168   7.275  19.771   1.331
88696W        W57169  21.050   8.344  12.930
88697W        W57170   5.854  10.760   3.272
88698W        W57171  29.977   9.845   1.389
88699W        W57172  25.548  12.148  14.959
88700W        W57173  10.371   7.797  10.545
88701W        W57174  38.011   1.968  13.475
88702W        W57175  24.216  21.758  14.418
88703W        W57176  28.558  27.183   2.687
88704W        W57177  28.952  23.655  11.548
88705W        W57178   0.894  10.248  13.425
88706W        W57179  19.268   4.865   0.857
88707W        W57180  29.066  11.328  14.313
88708W        W57181  41.324   0.272   3.326
88709W        W57182  36.559   3.310   2.270
88710W        W57183  22.574  12.806   5.779
88711W        W57184   2.897  16.139   1.774
88712W        W57185  32.408   2.332   0.864
88713W        W57186  40.346  30.920  14.360
88714W        W57187  25.688  39.373   4.148
88715W        W57188  22.556  43.299  14.282
88716W        W57189  30.008   2.273  11.101
88717W        W57190  12.157  23.640  14.870
88718W        W57191  25.605   9.847   3.664
88719W        W57192  10.814   5.338   3.838
88720W        W57193  11.182  16.651   0.729
88721W        W57194  10.741   1.273   1.225
88722W        W57195   5.857   4.377   0.933
88723W        W57196  34.388  19.677  10.569
88724W        W57197  38.454  18.759  10.477
88725W        W57198  23.688  35.891   2.261
88726W        W57199   9.238  25.132   2.349
88727W        W57200  43.341  33.617   0.440
88728W        W57201  20.746  39.357  13.807
88729W        W57202  24.168   4.820  12.365
88730W        W57203  43.472  44.265  11.450
88731W        W57204  17.697  13.227  13.009
88732W        W57205  20.746   0.380   1.289
88733W        W57206  25.195  27.156   1.912
88734W        W57207  19.696  39.036  12.834
88735W        W57208  23.004  11.272   0.942
88736W        W57209  41.819  11.278  13.823
88737W        W57210  40.860   5.913  12.531
88738W        W57211  15.773  22.167   9.982
88739W        W57212  23.026  11.689   1.734
88740W        W57213  34.896   4.324  11.586
88741W        W57214  15.617  40.485   3.203
88742W        W57215  34.994  27.070  14.953
88743W        W57216  12.661   5.425  11.863
88744W        W57217  37.439  33.978   4.147
88745W        W57218  16.748  37.905  10.600
88746W        W57219  32.626  41.362   1.726
88747W        W57220  13.831  14.220  14.474
88748W        W57221  31.049  33.476   2.788
88749W        W57222  35.417  12.325  10.891
88750W        W57223   7.750  32.449   0.741
88751W        W57224  24.648   5.400  13.519
88752W        W57225  31.411  35.541   3.688
88753W        W57226  21.689  25.623   0.847
88754W        W57227  35.046  33.493  14.410
88755W        W57228  32.120  29.607  11.566
88756W        W57229  32.001  12.265  14.798
88757W        W57230  34.871  36.958   4.178
88758W        W57231  15.263  13.271  10.624
88759W        W57232  20.691  26.203  14.300
88760W        W57233   8.379  36.882  12.553
88761W        W57234   9.189  23.490   2.189
88762W        W57235   5.880  37.387  14.512
88763W        W57236  40.325   7.295  13.314
88764W        W57237   3.871  21.148   3.727
88765W        W57238   8.797  44.960  11.456
88766W        W57239  10.150  16.657   3.182
88767W        W57240  40.857  38.327  13.005
88768W        W57241  40.009  39.474  10.588
88769W        W57242  22.702   1.312  13.429
88770W        W57243  25.022  39.012  14.007
88771W        W57244   6.783  26.203  10.945
88772W        W57245   4.891  26.700  14.479
88773W        W57246   2.238  41.482   0.739
88774W        W57247   9.883  34.396  12.020
88775W        W57248  36.855   7.741   0.884
88776W        W57249  30.519  21.223   1.395
88777W        W57250  21.025   8.837  11.024
88778W        W57251  25.070  11.156   4.813
88779W        W57252  44.761  44.774  10.626
88780W        W57253   4.833  19.762  14.900
88781W        W57254   5.271  40.018  13.027
88782W        W57255  10.706   3.876   1.287
88783W        W57256  23.653  17.106   4.125
88784W        W57257  39.973   8.205  12.481
88785W        W57258   6.786  35.407   4.729
88786W        W57259  10.668  34.964   2.825
88787W        W57260  35.597  10.634  14.935
88788W        W57261  30.633  24.002   1.337
88789W        W57262  19.236   1.451  13.458
88790W        W57263  30.018  28.093  11.914
88791W        W57264  43.437  28.946  11.962
88792W        W57265   4.359   3.317  11.949
88793W        W57266   1.855  23.989   4.309
88794W        W57267  22.636  32.996  14.388
88795W        W57268  27.947   7.303  10.418
88796W        W57269  12.178   6.754  14.898
88797W        W57270  40.477  17.557   0.920
88798W        W57271   2.321  36.918   2.856
88799W        W57272  20.753  36.550   4.625
88800W        W57273  40.903  35.977   3.842
88801W        W57274  15.815   0.418   0.265
88802W        W57275  39.443  26.559  11.460
88803W        W57276  34.984   5.817  13.429
88804W        W57277   0.921   1.890   5.136
88805W        W57278  30.638   4.245   0.254
88806W        W57279   9.315   5.922   1.408
88807W        W57280  26.653  11.854   5.242
88808W        W57281  19.279  34.917   1.928
88809W        W57282   3.319  10.810  12.084
88810W        W57283  29.118  37.388   3.780
88811W        W57284  42.945  18.591  12.385
88812W        W57285  14.666   8.695  12.480
88813W        W57286  37.347  35.099   5.226
88814W        W57287   4.849  36.898   1.710
88815W        W57288   1.942  24.637   1.318
88816W        W57289  27.197   4.909  10.464
88817W        W57290  42.954  15.661  10.979
88818W        W57291  40.326  21.530  11.583
88819W        W57292   5.752  25.696   4.317
88820W        W57293  22.155  11.751  13.384
88821W        W57294  27.488  44.500   1.919
88822W        W57295  22.241  17.122  11.978
88823W        W57296  42.290  39.922  11.574
88824W        W57297   6.366  40.342   4.732
88825W        W57298  17.726  42.853  11.861
88826W        W57299  32.893  13.632   4.628
88827W        W57300  14.332   5.772  12.575
88828W        W57301   1.283  15.111  10.510
88829W        W57302  38.361  12.750  12.535
88830W        W57303   3.397  10.295   4.259
88831W        W57304  41.384  44.770  12.439
88832W        W57305   1.826  21.206  12.510
88833W        W57306  18.088  26.608   2.399
88834W        W57307   4.787  21.633   5.106
88835W        W57308  25.571  43.367   2.308
88836W        W57309  41.979   9.148  12.571
88837W        W57310   6.379  38.986  14.441
88838W        W57311  16.720  31.449   1.293
88839W        W57312  28.089  40.523   1.225
88840W        W57313   9.743   0.294  10.513
88841W        W57314   6.299  42.926  13.438
88842W        W57315  20.654  22.090  13.033
88843W        W57316  25.555  12.659  13.008
88844W        W57317  22.673   8.302   2.780
88845W        W57318  18.630  30.601   3.665
88846W        W57319  29.464  20.614  13.872
88847W        W57320  10.293   1.367  11.115
88848W        W57321  38.851  15.581   4.813
88849W        W57322  38.974  31.504   3.281
88850W        W57323  41.836  44.326  12.549
88851W        W57324  13.320  20.695   3.275
88852W        W57325  30.016  26.504  12.904
88853W        W57326  17.624  33.069  10.522
88854W        W57327  21.113   9.223   4.827
88855W        W57328  42.004  12.216   1.406
88856W        W57329   0.805  37.542  10.524
88857W        W57330  28.650  39.373   3.159
88858W        W57331  34.921  39.916  12.351
88859W        W57332  21.757   9.643   3.329
88860W        W57333   0.754   4.698  10.520
88861W        W57334  18.616  15.646   0.392
88862W        W57335   2.453  33.979   1.930
88863W        W57336  37.864  30.936   0.919
88864W        W57337   6.251  16.260   0.778
88865W        W57338  38.330  41.319  13.802
88866W        W57339  12.130   5.210  13.846
88867W        W57340  13.621  43.513  14.414
88868W        W57341  25.206  23.623   1.700
88869W        W57342   6.897  42.787   0.789
88870W        W57343  22.133  44.907  10.978
88871W        W57344   7.215  16.075  12.573
88872W        W57345   0.453   1.977  10.911
88873W        W57346  28.457  14.673  11.008
88874W        W57347  39.418  24.988  12.923
88875W        W57348  10.796  28.625   1.223
88876W        W57349  12.629  37.482  14.012
88877W        W57350  43.764  23.625   3.261
88878W        W57351  32.402   7.386  13.512
88879W        W57352  39.864  37.501   4.301
88880W        W57353  14.336  32.497  14.821
88881W        W57354  40.013   3.779  11.124
88882W        W57355  43.933  30.585  14.909
88883W        W57356  10.642  11.680   3.250
88884W        W57357  34.941   7.176   0.283
88885W        W57358   4.336  29.489   2.881
88886W        W57359  30.428  24.632  12.478
88887W        W57360   4.829   7.232   2.226
88888W        W57361  27.615  19.070   0.905
88889W        W57362  30.973  43.849   9.476
88890W        W57363  11.788  39.907   0.310
88891W        W57364  24.109  19.130   1.764
88892W        W57365  16.594  35.888   1.412
88893W        W57366   5.845   5.834  12.849
88894W        W57367   0.975  32.000   1.322
88895W        W57368  11.642  35.911  14.817
88896W        W57369  29.471  24.692  11.396
88897W        W57370  10.707  41.382  13.394
88898W        W57371  36.358  37.909   3.381
88899W        W57372   8.869  11.370  12.394
88900W        W57373  36.933  23.106  11.541
88901W        W57374   8.166  34.067   9.648
88902W        W57375  13.257  15.578   2.199
88903W        W57376  29.117   0.851  11.064
88904W        W57377  28.537  16.693  10.895
88905W        W57378  35.998  32.483  14.988
88906W        W57379  35.039  11.673  13.034
88907W        W57380  26.600  37.021   3.823
88908W        W57381  13.819   2.779  11.906
88909W        W57382  32.396  33.386   3.756
88910W        W57383  40.922  41.821  11.915
88911W        W57384  21.246  32.447   4.702
88912W        W57385  37.580  10.820  11.547
88913W        W57386   5.294  17.124   4.232
88914W        W57387  40.398  39.425   0.355
88915W        W57388  19.211  39.524  10.983
88916W        W57389  25.997  22.585  10.414
88917W        W57390  28.495  42.957   1.796
88918W        W57391  38.949  33.044   3.174
88919W        W57392  17.785  38.834  13.321
88920W        W57393   2.276   5.820   2.307
88921W        W57394  35.014   7.366  14.980
88922W        W57395   9.889  34.493   4.708
88923W        W57396   7.282   0.828  13.518
88924W        W57397  17.073  33.554  13.540
88925W        W57398   8.275  25.972   2.738
88926W        W57399  30.604  40.482   2.273
88927W        W57400  34.498   2.434   4.743
88928W        W57401  10.306  26.010   3.316
88929W        W57402  21.552  43.929  10.502
88930W        W57403  14.783  18.770  12.988
88931W        W57404  21.098  16.777  13.439
88932W        W57405  36.846  12.698   2.327
88933W        W57406  14.131  40.874  13.417
88934W        W57407   5.749   4.847   0.771
88935W        W57408  29.024   6.916   4.235
88936W        W57409   9.736  32.925  13.806
88937W        W57410  14.753  32.547   2.373
88938W        W57411   8.682  38.542  12.388
88939W        W57412  20.238   8.656   2.288
88940W        W57413  25.699  32.984  13.445
88941W        W57414   1.930  40.013   3.203
88942W        W57415   7.318   8.740   0.317
88943W        W57416  35.501  14.619  11.580
88944W        W57417  42.485  26.208  10.898
88945W        W57418  30.575  34.994   4.692
88946W        W57419  14.100  43.981   0.779
88947W        W57420   0.909   1.855   3.246
88948W        W57421  37.351   7.375  13.920
88949W        W57422  36.525  10.258   4.234
88950W        W57423  40.365  18.185  14.927
88951W        W57424  25.095  17.619   4.748
88952W        W57425  20.111   1.321  10.631
88953W        W57426   5.433   6.321   4.786
88954W        W57427   8.687  18.676   2.407
88955W        W57428  26.044   0.742  11.543
88956W        W57429  19.550  36.483   3.253
88957W        W57430  19.051  34.395  11.518
88958W        W57431   6.323  40.877   1.366
88959W        W57432  38.857  25.025   3.866
88960W        W57433  14.138  21.617   3.157
88961W        W57434   2.722  14.185   4.808
88962W        W57435  23.644  23.106  14.469
88963W        W57436   9.310  24.101   2.372
88964W        W57437  23.988  23.712  12.559
88965W        W57438  42.435  35.880  13.328
88966W        W57439  39.953   5.244   0.948
88967W        W57440  20.103  40.957  11.870
88968W        W57441   2.446   5.231  11.029
88969W        W57442  30.135   8.835   4.669
88970W        W57443  41.380  41.027  14.449
88971W        W57444   4.797  13.626   1.420
88972W        W57445  20.750  19.070  13.477
88973W        W57446  11.832  22.048   4.201
88974W        W57447   0.384   2.390  14.986
88975W        W57448  38.035  15.293  11.911
88976W        W57449  25.217  25.128   0.876
88977W        W57450  38.830  31.646   2.328
88978W        W57451  22.531  25.052  12.405
88979W        W57452  33.041  25.157  11.925
88980W        W57453  19.759  19.759  12.390
88981W        W57454   6.394   1.955  13.450
88982W        W57455  30.014  35.399  14.974
88983W        W57456  37.838  29.955   2.306
88984W        W57457  28.437  27.636  13.976
88985W        W57458  40.465   6.333  12.435
88986W        W57459  40.361  30.040   4.174
88987W        W57460   4.358  29.500   1.765
88988W        W57461  24.995  43.857  10.037
88989W        W57462  38.482  24.210   2.221
88990W        W57463   0.918  13.719  13.990
88991W        W57464  43.910  16.137  11.539
88992W        W57465  17.104  16.119  12.084
88993W        W57466   2.965  14.627   2.751
88994W        W57467  26.574  16.643   4.259
88995W        W57468  11.298   4.224  10.453
88996W        W57469   8.841  22.536   2.870
88997W        W57470  35.958  40.984  12.026
88998W        W57471  24.583  37.855   2.714
88999W        W57472  31.490   4.348  11.122
89000W        W57473  24.597  18.677   2.377
89001W        W57474  23.054  36.381  13.406
89002W        W57475  20.227  17.732   3.169
89003W        W57476   9.769   9.869  11.908
89004W        W57477  24.224  27.662   1.810
89005W        W57478  27.550   6.721   3.750
89006W        W57479  17.300  11.853   3.149
89007W        W57480  21.536  23.185   4.686
89008W        W57481  13.780  12.118   4.200
89009W        W57482  21.065  39.441  13.042
89010W        W57483  37.033  12.200   1.428
89011W        W57484  34.101  13.675  12.344
89012W        W57485  29.486  40.438  10.513
89013W        W57486   3.336   8.273  10.901
89014W        W57487  31.625  17.164   2.751
89015W        W57488  17.225  18.639  14.956
89016W        W57489  16.099   0.794   3.286
89017W        W57490  19.142  22.536   2.418
89018W        W57491  41.872  14.596  14.789
89019W        W57492  11.210   1.297  13.452
89020W        W57493  27.102   4.325   1.730
89021W        W57494  43.858  39.850  12.992
89022W        W57495   4.207  28.051   1.367
89023W        W57496  16.192  34.948  14.836
89024W        W57497  24.658   8.270  11.975
89025W        W57498  34.987  29.935   0.748
89026W        W57499  40.421   8.396  11.857
89027W        W57500  37.856  12.827   3.756
89028W        W57501  29.073  13.217   1.817
89029W        W57502  36.916  21.097   1.720
89030W        W57503  34.562  35.011   0.459
89031W        W57504  14.601  36.366  13.473
89032W        W57505  38.483  10.717  11.419
89033W        W57506  24.201   3.454   3.316
89034W        W57507  33.569  33.977   0.283
89035W        W57508  24.610   7.176   1.448
89036W        W57509   4.794   0.775   4.235
89037W        W57510   6.867  12.831   3.173
89038W        W57511   0.953   2.792   3.206
89039W        W57512   5.780  23.072   4.703
89040W        W57513  39.540  14.125  14.884
89041W        W57514   8.776  26.085  10.621
89042W        W57515  34.565   1.312  10.453
89043W        W57516   2.437  30.028   0.434
89044W        W57517  19.123   5.843   2.797
89045W        W57518   8.194   4.914  13.532
89046W        W57519  18.782  27.019  14.942
89047W        W57520  33.085  37.550   1.918
89048W        W57521  35.925   5.434  13.463
89049W        W57522  42.929  40.527  10.600
89050W        W57523   9.200  19.272   3.768
89051W        W57524  10.710  28.641  13.366
89052W        W57525  28.963  44.947   1.831
89053W        W57526  17.281   8.779   1.799
89054W        W57527  44.874   6.339  13.342
89055W        W57528  35.884  44.929  11.991
89056W        W57529  26.110   9.187   1.413
89057W        W57530  35.599  31.123   0.395
89058W        W57531  20.701  43.305   1.446
89059W        W57532  28.119  43.509  12.434
89060W        W57533  23.548   0.261  14.463
89061W        W57534  38.017  16.104   1.258
89062W        W57535  43.313  10.672  11.910
89063W        W57536  44.459  28.110  10.045
89064W        W57537  27.532  11.331   3.788
89065W        W57538  40.386   4.356   1.420
89066W        W57539  17.140  19.753   3.722
89067W        W57540  29.019  31.904   4.320
89068W        W57541   3.851   7.357   9.956
89069W        W57542  42.001  33.912   4.749
89070W        W57543  39.898  41.021  13.421
89071W        W57544  27.038   4.351  11.886
89072W        W57545  39.942   0.841  13.454
89073W        W57546  11.697  34.958   3.740
89074W        W57547  37.345   1.912   4.695
89075W        W57548  11.338  23.055   2.894
89076W        W57549  43.295  39.944   2.708
89077W        W57550  12.325  16.290   0.776
89078W        W57551  24.554  12.660   2.783
89079W        W57552  22.107  25.984  14.984
89080W        W57553  12.720  33.512   2.823
89081W        W57554   8.178  11.344   2.400
89082W        W57555   9.848  26.559   1.371
89083W        W57556   4.265  43.842  13.058
89084W        W57557   0.417   3.215  12.931
89085W        W57558   6.720  39.528  11.128
89086W        W57559  15.627  33.626  10.907
89087W        W57560  42.008  20.160   3.729
89088W        W57561   1.896  20.188  13.796
89089W        W57562  21.067  42.379   2.763
89090W        W57563   8.708  31.530  13.830
89091W        W57564   4.802  42.928  13.910
89092W        W57565  33.969  29.488   1.400
89093W        W57566  44.287   9.192  14.849
89094W        W57567  35.567  40.002  10.461
89095W        W57568  37.375  20.729  11.590
89096W        W57569   5.283  14.277  11.992
89097W        W57570  33.515  29.627  12.578
89098W        W57571  37.945  37.927  10.554
89099W        W57572  38.872  14.166   2.219
89100W        W57573  37.885  20.093  10.475
89101W        W57574  12.612  29.972   1.324
89102W        W57575  39.471  36.012  13.892
89103W        W57576  43.801  28.600   2.667
89104W        W57577  42.436  20.117   0.882
89105W        W57578   0.435  37.338  11.018
89106W        W57579  31.529  13.668  13.473
89107W        W57580  40.038  37.038  14.471
89108W        W57581  34.564   3.320  11.075
89109W        W57582  37.484  13.348   4.137
89110W        W57583  12.284  13.756   4.223
89111W        W57584  28.656  41.924  10.465
89112W        W57585   2.336  26.470  13.444
89113W        W57586  42.328  19.059  12.835
89114W        W57587  43.363  23.572   1.932
89115W        W57588  27.016   5.841  11.894
89116W        W57589  15.612  16.115  14.002
89117W        W57590   7.689  17.175  14.878
89118W        W57591   9.246  15.240  14.895
89119W        W57592  24.169  27.979   0.845
89120W        W57593  23.654  11.845  14.999
89121W        W57594  34.458   8.867  13.829
89122W        W57595  16.646  44.769  12.511
89123W        W57596  14.739  32.422  10.585
89124W        W57597  36.029   9.781   4.754
89125W        W57598  38.948  13.172  12.459
89126W        W57599   2.438   2.748  11.927
89127W        W57600  39.980  22.563   1.920
89128W        W57601  39.349  44.304  11.503
89129W        W57602  23.555  25.124   1.717
89130W        W57603  36.992  27.009   4.116
89131W        W57604  38.509  28.498  10.952
89132W        W57605  33.941  22.523   4.646
89133W        W57606  10.792  40.488  12.360
89134W        W57607  33.032  30.085  12.840
89135W        W57608  23.621  43.808  14.364
89136W        W57609  24.122  40.372   1.844
89137W        W57610  28.672  31.102  11.033
89138W        W57611   4.412  18.070   2.262
89139W        W57612  14.829  34.933   0.791
89140W        W57613  17.795  41.805  13.318
89141W        W57614  12.273  20.123   4.283
89142W        W57615  40.303  42.383   3.743
89143W        W57616   4.259  40.477  13.934
89144W        W57617  10.273  43.323   1.776
89145W        W57618  29.669  22.596   2.689
89146W        W57619  39.328  27.177  10.530
89147W        W57620  32.636  40.404   4.796
89148W        W57621   9.264  43.378   1.378
89149W        W57622  30.938  22.013  14.816
89150W        W57623  15.151   7.758   0.726
89151W        W57624  14.756   0.301   2.395
89152W        W57625  11.854  24.048  13.988
89153W        W57626  27.562  22.084   4.620
89154W        W57627  26.465   1.320   2.255
89155W        W57628  41.994  19.606  11.377
89156W        W57629  12.323  12.147  13.332
89157W        W57630   3.953  37.082  12.054
89158W        W57631   5.733  44.931   4.305
89159W        W57632  26.522  17.745  11.928
89160W        W57633  22.023  22.148   3.774
89161W        W57634  17.722  10.236  14.297
89162W        W57635  29.536  38.383   0.378
89163W        W57636  16.736  43.819  11.546
89164W        W57637  36.489  29.154  10.956
89165W        W57638  28.081   8.404  11.886
89166W        W57639  22.573   5.728  12.998
89167W        W57640  37.539  42.327   0.941
89168W        W57641   6.362  23.194   1.734
89169W        W57642  36.433  15.094  12.476
89170W        W57643  33.618   2.955   0.940
89171W        W57644  17.212   3.437   4.128
89172W        W57645  37.546  26.611  11.429
89173W        W57646  41.953  33.594   2.799
89174W        W57647  28.443   9.801   1.842
89175W        W57648   4.345  42.469   2.842
89176W        W57649   8.900  28.065   2.213
89177W        W57650   9.767  38.506  13.044
89178W        W57651  35.871  26.604  13.530
89179W        W57652  30.493  27.529  13.914
89180W        W57653  40.430  18.791   3.260
89181W        W57654  32.508  26.170  11.065
89182W        W57655  43.006  10.737   1.917
89183W        W57656  22.216  14.210  12.393
89184W        W57657  43.792  19.599   0.741
89185W        W57658  24.204  12.134   3.834
89186W        W57659  41.321  29.441  13.966
89187W        W57660  44.832  21.146   4.754
89188W        W57661  43.420  17.585  10.917
89189W        W57662  18.172   9.309  11.535
89190W        W57663  39.468   1.847  10.543
89191W        W57664   2.302  32.549  10.406
89192W        W57665  15.788   2.461   1.364
89193W        W57666   3.231  22.133   4.268
89194W        W57667  40.363  29.005   4.668
89195W        W57668  10.865  33.922   9.626
89196W        W57669  41.865  26.196  12.378
89197W        W57670   8.863  20.644  10.461
89198W        W57671  10.808  24.144   1.229
89199W        W57672  32.588  33.935  13.903
89200W        W57673  22.061   6.220   3.745
89201W        W57674  27.100  36.086  11.903
89202W        W57675  17.290  17.163   2.789
89203W        W57676   5.706  14.273   2.894
89204W        W57677  35.457  37.986   2.200
89205W        W57678  33.623  34.556  15.000
89206W        W57679  38.420  19.087   4.613
89207W        W57680  13.252  39.548  10.490
89208W        W57681  41.498  25.503  12.572
89209W        W57682  44.492  29.534  14.003
89210W        W57683  34.442  16.721  12.077
89211W        W57684  39.870  35.562  13.918
89212W        W57685   6.230  29.568   0.366
89213W        W57686   2.276  34.096   3.711
89214W        W57687   1.764  23.037   1.327
89215W        W57688  32.597  19.759   2.728
89216W        W57689  16.093  15.198   4.153
89217W        W57690  16.155  19.735  12.553
89218W        W57691  16.698  12.671  13.387
89219W        W57692  16.079  21.632  12.937
89220W        W57693  41.308  17.700   0.958
89221W        W57694  29.936  42.510  12.054
89222W        W57695   3.419   8.900  12.504
89223W        W57696  44.335   1.284   4.230
89224W        W57697  31.116  38.477   4.678
89225W        W57698  40.890   5.767  11.892
89226W        W57699  12.790  22.612  13.981
89227W        W57700  13.843  29.152   4.320
89228W        W57701   4.349   6.356  11.393
89229W        W57702  37.925  33.068  12.441
89230W        W57703  16.759  15.660   3.351
89231W        W57704  29.052   5.753  14.926
89232W        W57705   7.186   0.815  10.565
89233W        W57706  35.447  13.801  13.469
89234W        W57707  20.191  10.232   2.782
89235W        W57708  16.224  29.109  12.526
89236W        W57709  32.916   5.917   1.826
89237W        W57710  35.987   7.210   3.702
89238W        W57711  19.193   5.704   3.258
89239W        W57712  27.672  28.998  13.015
89240W        W57713  13.812  24.182  10.514
89241W        W57714  44.888  25.589   3.227
89242W        W57715  20.182   7.686   3.846
89243W        W57716  20.059   9.163  10.502
89244W        W57717  28.109   4.740   1.868
89245W        W57718  41.011   3.798  10.608
89246W        W57719  36.531  41.009   1.243
89247W        W57720  30.591  26.607  12.014
89248W        W57721  31.638  43.497   3.664
89249W        W57722  19.711  14.128  14.785
89250W        W57723  14.657  30.092  14.841
89251W        W57724   9.295  44.479   5.153
89252W        W57725  24.539  23.128   3.808
89253W        W57726  18.731  28.520  11.435
89254W        W57727  33.118  14.127  11.386
89255W        W57728  20.129  18.205  11.510
89256W        W57729   7.181  29.918  13.996
89257W        W57730  44.411  23.622   4.826
89258W        W57731  26.549  39.925   4.265
89259W        W57732  44.465  15.762  10.468
89260W        W57733  21.224  11.351   3.657
89261W        W57734  29.503  11.771   4.825
89262W        W57735  37.848  26.206  14.943
89263W        W57736  26.010  16.698   2.179
89264W        W57737  30.647  33.004   3.808
89265W        W57738  23.169  20.700  12.904
89266W        W57739  27.573  31.997   3.871
89267W        W57740  10.828  32.607   2.317
89268W        W57741  28.982  38.554   0.350
89269W        W57742  10.757   6.218   4.187
89270W        W57743  39.445  31.032  11.472
89271W        W57744  11.664  33.401  12.531
89272W        W57745  27.080  17.167   2.417
89273W        W57746   0.955   8.209  12.507
89274W        W57747  25.637  18.225   4.291
89275W        W57748  44.869  15.145   2.331
89276W        W57749  39.485   5.401  13.322
89277W        W57750   3.411  17.786  12.095
89278W        W57751   8.769  44.424  12.910
89279W        W57752   0.399  20.214   3.789
89280W        W57753   7.892  20.698  10.914
89281W        W57754  33.000  10.777  11.946
89282W        W57755   6.740   1.432   1.727
89283W        W57756  22.625  41.350   4.271
89284W        W57757  18.227  11.209  10.977
89285W        W57758  12.618  39.884   0.837
89286W        W57759  24.036  31.503  14.350
89287W        W57760   3.894  14.740  14.776
89288W        W57761  12.312  21.227  10.621
89289W        W57762  27.106   6.206   0.829
89290W        W57763   9.868   8.672   1.421
89291W        W57764  22.209   2.749   3.362
89292W        W57765  14.608  41.014  12.362
89293W        W57766  15.643   7.899  13.815
89294W        W57767  20.700  11.658  10.640
89295W        W57768   0.338   3.724   1.779
89296W        W57769  28.572  15.160  12.579
89297W        W57770   1.369  34.903   0.797
89298W        W57771  26.110  29.096   1.767
89299W        W57772  30.515  24.483   3.344
89300W        W57773  15.109  30.924  14.904
89301W        W57774  17.276  24.507   9.953
89302W        W57775  30.492  37.871   4.723
89303W        W57776  31.000   5.360  11.911
89304W        W57777  26.515  24.659  10.473
89305W        W57778   1.802  12.215  13.439
89306W        W57779   9.237  36.377  13.519
89307W        W57780  13.305  38.361  13.053
89308W        W57781  29.618  30.128  12.940
89309W        W57782  18.666  40.462  12.843
89310W        W57783  24.988  11.854   4.266
89311W        W57784  19.165  15.692   3.259
89312W        W57785  43.481  19.564   2.793
89313W        W57786  20.601   4.728   4.183
89314W        W57787  25.115   4.732   1.249
89315W        W57788  29.171  44.842   3.150
89316W        W57789  12.711   5.256  13.841
89317W        W57790  24.530   4.891  11.440
89318W        W57791  35.869  29.459   1.703
89319W        W57792  14.107  22.732   2.769
89320W        W57793  27.961  25.999   2.749
89321W        W57794   5.285  15.667   5.226
89322W        W57795   0.761  12.671   4.758
89323W        W57796  30.558  30.920   3.680
89324W        W57797  30.013  44.916   4.598
89325W        W57798   3.323   8.825   0.410
89326W        W57799  10.240  38.911   2.900
89327W        W57800  34.883  32.587   1.740
89328W        W57801   2.852  32.632   2.702
89329W        W57802  20.680  43.021   4.228
89330W        W57803   7.392  37.350   0.864
89331W        W57804  28.140  34.380   0.448
89332W        W57805  30.510  21.756  11.943
89333W        W57806   4.734  35.875   3.203
89334W        W57807  10.139   5.318   1.324
89335W        W57808  43.465  15.689  14.877
89336W        W57809  27.508  26.198  14.947
89337W        W57810   5.718  36.919  10.981
89338W        W57811  12.118  13.840   2.321
89339W        W57812  27.944  18.169  13.038
89340W        W57813  16.744  35.361   0.284
89341W        W57814  43.991  26.615  12.530
89342W        W57815  11.299  11.674  14.775
89343W        W57816  11.686  34.433  14.877
89344W        W57817  28.520   8.318   3.191
89345W        W57818  39.374   4.938  13.004
89346W        W57819   5.786  26.611  12.093
89347W        W57820   4.883   9.153   0.477
89348W        W57821  43.446   9.818  12.339
89349W        W57822   4.303  23.186   0.247
89350W        W57823  37.381  31.600   4.810
89351W        W57824  19.658  44.879   2.695
89352W        W57825  14.289  17.684  13.938
89353W        W57826  42.910  37.452  10.979
89354W        W57827  22.526  21.574   0.942
89355W        W57828   5.844  20.081  14.760
89356W        W57829  18.761  16.634   1.372
89357W        W57830  10.164   2.302  13.496
89358W        W57831  14.765  35.092   1.443
89359W        W57832  40.988  26.574   1.921
89360W        W57833  40.950  28.008   1.408
89361W        W57834  44.433  39.509   1.845
89362W        W57835  36.998  19.638  10.898
89363W        W57836  41.474  33.584  11.529
89364W        W57837  37.913  24.036   2.378
89365W        W57838  33.446  34.963  14.356
89366W        W57839  20.760  31.111  14.902
89367W        W57840  24.713  44.952   3.274
89368W        W57841  22.063   9.825  10.976
89369W        W57842  43.976  18.222  12.548
89370W        W57843  11.346  18.703  11.117
89371W        W57844  32.011  41.800   3.303
89372W        W57845  24.645   7.856  11.373
89373W        W57846  39.459  36.431   2.242
89374W        W57847  19.268  14.222  12.955
89375W        W57848  24.655  27.992   1.361
89376W        W57849  24.641  24.210   3.809
89377W        W57850  20.615   4.239  11.021
89378W        W57851  36.038  16.643  13.927
89379W        W57852  18.709  38.047  14.295
89380W        W57853   4.748  24.612   4.613
89381W        W57854  41.294  28.625   3.637
89382W        W57855  43.008  32.995  10.481
89383W        W57856   8.183  36.973   0.355
89384W        W57857   2.762   9.838   1.398
89385W        W57858   1.753  40.400  11.431
89386W        W57859  32.581  15.596  13.362
89387W        W57860  41.888  44.470   1.850
89388W        W57861  18.753  26.487   0.930
89389W        W57862  20.728  18.623  12.504
89390W        W57863  21.256  12.306   0.302
89391W        W57864  16.091  16.663   0.858
89392W        W57865  30.657  37.085  13.462
89393W        W57866  30.138   2.458   3.736
89394W        W57867  44.001  34.964  12.551
89395W        W57868   7.283  22.613  12.995
89396W        W57869  19.601   2.938   1.697
89397W        W57870  25.079  14.186   4.342
89398W        W57871  31.511  26.532  13.475
89399W        W57872  35.409  13.789  11.502
89400W        W57873  38.886  37.835   3.750
89401W        W57874  29.976  38.415   0.903
89402W        W57875  20.130  10.299  13.842
89403W        W57876   0.455   5.869   1.754
89404W        W57877  22.171  14.295   4.601
89405W        W57878  41.334  33.077  10.941
89406W        W57879  13.211  30.136   3.152
89407W        W57880  14.776  32.090  10.616
89408W        W57881  21.527  36.883   3.285
89409W        W57882  31.487  30.511   3.357
89410W        W57883  35.572   3.328   1.327
89411W        W57884  42.317  41.953  13.847
89412W        W57885  31.584  19.223   0.469
89413W        W57886  36.069  22.100  13.991
89414W        W57887  18.704  31.148   1.728
89415W        W57888  18.188  19.647  10.587
89416W        W57889  28.960  44.424   4.646
89417W        W57890   0.871  38.933   4.598
89418W        W57891   0.784   4.366   3.157
89419W        W57892  13.601  34.559  13.487
89420W        W57893  26.641  34.097  10.588
89421W        W57894  44.366  31.051   2.202
89422W        W57895  38.837  42.779  14.827
89423W        W57896  19.224  17.751  11.413
89424W        W57897  44.420  12.275   1.330
89425W        W57898  32.479  30.547   0.780
89426W        W57899  22.581   4.340  11.925
89427W        W57900  12.259  16.763  13.394
89428W        W57901  24.719  24.599   4.235
89429W        W57902  15.244   0.353  14.479
89430W        W57903   0.835  42.835  10.589
89431W        W57904  27.018  33.018  13.396
89432W        W57905  35.489  20.574   0.415
89433W        W57906  38.389   1.359  13.979
89434W        W57907  15.093  10.139   1.719
89435W        W57908  37.081  19.186  14.328
89436W        W57909   9.862  38.964   1.357
89437W        W57910  18.151   4.428  14.950
89438W        W57911  27.681   5.420  14.986
89439W        W57912   6.297   0.783   2.398
89440W        W57913   7.894  24.570  13.961
89441W        W57914  28.135  30.491   4.743
89442W        W57915  20.605   2.824  11.977
89443W        W57916   9.247  38.892  14.802
89444W        W57917  11.238  38.337   4.327
89445W        W57918  14.797   7.691  12.832
89446W        W57919  25.596  21.208   4.345
89447W        W57920   5.809  19.683  14.859
89448W        W57921  26.971  15.283   0.268
89449W        W57922  34.537  39.844   1.397
89450W        W57923  31.046  40.935   2.713
89451W        W57924  44.821  32.549  11.940
89452W        W57925  13.791  42.809  12.374
89453W        W57926  34.529  23.075  12.004
89454W        W57927  31.444  11.242   2.229
89455W        W57928   5.897   8.791  14.785
89456W        W57929  22.622  29.114  12.534
89457W        W57930  40.398   7.310   3.707
89458W        W57931  44.350  27.456  10.642
89459W        W57932   3.341  15.800  12.579
89460W        W57933  38.462  41.965   0.429
89461W        W57934  11.190  38.377   0.422
89462W        W57935  35.388  14.686  11.975
89463W        W57936  12.752   3.780   1.819
89464W        W57937  24.057  25.632   1.787
89465W        W57938  44.872  18.244  13.534
89466W        W57939  42.350  31.149  12.563
89467W        W57940  43.907  27.595  11.555
89468W        W57941  33.037  15.804  14.331
89469W        W57942  27.477  39.895   4.763
89470W        W57943  36.846  34.870  14.765
89471W        W57944  24.202  29.169  14.455
89472W        W57945  25.006  34.011  10.468
89473W        W57946   0.253  28.597   4.677
89474W        W57947  25.489  10.749   2.702
89475W        W57948  21.063  27.559  12.342
89476W        W57949  13.697   1.953   4.636
89477W        W57950  21.695  28.140  10.084
89478W        W57951  31.409  29.045   1.296
89479W        W57952  24.719   0.831   0.416
89480W        W57953  26.478  17.270   0.418
89481W        W57954  35.019   9.819  14.432
89482W        W57955  15.652  42.355  11.902
89483W        W57956  38.894  42.852  10.468
89484W        W57957  22.602  13.195   2.693
89485W        W57958  23.710  23.554  13.345
89486W        W57959  26.644  44.986   4.290
89487W        W57960  41.977   3.309  11.040
89488W        W57961  25.965  28.186   4.653
89489W        W57962   7.193  25.646   4.721
89490W        W57963  39.826  13.312  12.506
89491W        W57964   6.347  40.444  10.126
89492W        W57965   4.243   6.790  12.458
89493W        W57966  23.242  12.128   2.219
89494W        W57967  30.656  19.630  14.294
89495W        W57968  18.669   6.835   1.797
89496W        W57969  17.305   6.301  10.547
89497W        W57970   4.855   2.365  10.476
89498W        W57971  13.823  27.482   0.435
89499W        W57972  26.600  26.109  11.102
89500W        W57973   6.800   2.788   4.691
89501W        W57974   3.832  15.760  11.895
89502W        W57975  42.405   9.876   1.735
89503W        W57976  27.972  18.160   1.760
89504W        W57977   9.749  27.041  11.526
89505W        W57978  16.122  17.194   4.154
89506W        W57979  13.211  42.860  12.419
89507W        W57980   4.716  25.220  11.932
89508W        W57981  12.808   1.322  10.957
89509W        W57982  43.409   9.284   4.115
89510W        W57983  23.654  22.639   4.306
89511W        W57984  27.073  31.930   4.816
89512W        W57985  37.459  28.503   4.828
89513W        W57986  44.755  25.555   4.195
89514W        W57987   8.740  29.919   2.278
89515W        W57988  36.583   0.783  10.411
89516W        W57989  28.503  12.611   0.423
89517W        W57990  32.514  37.050   1.272
89518W        W57991   4.730  31.037  14.281
89519W        W57992  19.764  11.302  12.988
89520W        W57993  21.516   1.441  11.872
89521W        W57994  30.472   6.907  12.568
89522W        W57995  28.101   3.720  10.418
89523W        W57996   9.669  43.370  14.357
89524W        W57997  21.707  25.018  14.284
89525W        W57998   0.249   2.262  13.462
89526W        W57999  38.885  32.894  10.471
89527W        W58000  22.644  30.598   0.737
89528W        W58001  17.639  22.637  10.987
89529W        W58002  38.068  34.504  11.444
89530W        W58003  27.545  12.682  12.976
89531W        W58004  17.157  28.626  11.078
89532W        W58005  14.591  26.468   2.234
89533W        W58006   4.218  36.411  14.031
89534W        W58007  42.402   6.297   2.338
89535W        W58008   2.232  16.301   1.850
89536W        W58009  10.169  21.203   2.876
89537W        W58010  37.361   7.841  10.619
89538W        W58011   9.244   7.685   0.399
89539W        W58012  11.778   5.318   3.763
89540W        W58013  22.050  31.925   4.131
89541W        W58014   0.850  20.723  12.082
89542W        W58015   1.827  12.247   1.837
89543W        W58016  13.727  11.284   4.628
89544W        W58017  22.625  25.114  11.607
89545W        W58018  14.272  20.683   4.270
89546W        W58019  25.173   2.385  13.504
89547W        W58020  35.525   8.204   3.742
89548W        W58021   4.267  18.571  10.470
89549W        W58022  16.289  33.518  14.425
89550W        W58023   3.234  39.820  13.989
89551W        W58024  11.224  22.170   2.873
89552W        W58025   1.296  28.675   4.229
89553W        W58026  32.123   3.904  12.533
89554W        W58027  34.016  43.782   4.610
89555W        W58028  10.254  22.569   4.205
89556W        W58029  20.576   9.834  11.035
89557W        W58030  37.073  42.898  14.345
89558W        W58031  33.052  36.070   2.798
89559W        W58032  38.493  41.805  14.396
89560W        W58033  35.012  15.765   0.390
89561W        W58034  23.652  17.780  10.436
89562W        W58035  34.103  27.583   0.917
89563W        W58036  21.700   9.350  14.463
89564W        W58037   1.747  30.634  13.539
89565W        W58038  15.809  38.968  13.426
89566W        W58039  32.906  27.122  13.458
89567W        W58040   6.325  12.818  13.848
89568W        W58041  19.258  38.336  11.065
89569W        W58042  42.993   0.986  14.798
89570W        W58043  36.362  14.706  12.968
89571W        W58044   0.938  22.601   1.739
89572W        W58045  35.109  25.503  14.395
89573W        W58046  30.542   4.825   0.478
89574W        W58047  34.892   7.360  11.891
89575W        W58048  33.523  38.997   4.297
89576W        W58049  44.357  12.731  12.013
89577W        W58050  14.157  39.434  13.976
89578W        W58051  28.968  25.147  10.143
89579W        W58052   8.194  10.148  11.954
89580W        W58053  19.769  35.854   4.602
89581W        W58054  15.116  33.092  11.371
89582W        W58055  35.870  35.384  14.291
89583W        W58056   5.407  11.833  10.912
89584W        W58057   7.704   7.184  12.912
89585W        W58058  19.258  28.951   3.769
89586W        W58059  11.182  11.842   2.742
89587W        W58060  36.513  25.109  12.974
89588W        W58061  17.714  18.548  11.413
89589W        W58062   5.266  11.193  14.997
89590W        W58063  35.896   6.902  12.034
89591W        W58064   0.791  42.492   2.266
89592W        W58065   1.394  11.173   0.962
89593W        W58066  42.455  35.958   1.910
89594W        W58067  19.758  13.173  11.967
89595W        W58068  10.244  43.786  11.395
89596W        W58069   2.371  29.498   1.338
89597W        W58070  30.950  41.305   0.426
89598W        W58071  34.049  34.405  10.925
89599W        W58072  37.895  31.491   1.847
89600W        W58073  26.989  19.630  10.627
89601W        W58074  17.303  43.974   4.115
89602W        W58075  18.138  15.595   3.327
89603W        W58076  19.253   9.857  14.838
89604W        W58077  22.732   7.672  13.461
89605W        W58078  23.715   1.463  14.307
89606W        W58079  40.894  23.080   0.788
89607W        W58080  44.785   6.793   1.314
89608W        W58081  35.569  23.052  13.848
89609W        W58082  10.289  10.664   2.383
89610W        W58083  24.639   3.713   2.799
89611W        W58084  40.021  32.519   2.694
89612W        W58085  29.086  13.736  11.459
89613W        W58086  40.963  28.116   3.186
89614W        W58087  18.770  32.966  12.876
89615W        W58088  26.093  23.240  10.637
89616W        W58089  39.468  41.400   4.787
89617W        W58090  38.570  35.441  12.493
89618W        W58091  35.949  42.952  10.587
89619W        W58092  14.168  31.441  14.931
89620W        W58093  23.538   7.730   2.275
89621W        W58094  27.111  26.053  10.637
89622W        W58095  31.968  10.645  10.544
89623W        W58096   5.808  14.150  13.471
89624W        W58097  22.081  24.005  11.559
89625W        W58098  27.127  32.975  11.490
89626W        W58099  37.492  30.604   2.333
89627W        W58100   5.909  33.932   2.895
89628W        W58101  28.097  39.864   2.828
89629W        W58102  36.048   4.855   1.445
89630W        W58103   9.177  41.866   3.642
89631W        W58104   5.288   6.392  14.334
89632W        W58105   1.269  24.057  12.826
89633W        W58106  22.007   5.703   0.850
89634W        W58107  34.969  35.085  12.079
89635W        W58108  15.252  18.546  14.914
89636W        W58109  12.762   5.353   0.369
89637W        W58110  15.781   7.241  12.512
89638W        W58111   3.394   2.842  14.830
89639W        W58112   7.711  30.101   0.308
89640W        W58113   4.217   0.348  11.398
89641W        W58114  22.051  25.548  11.100
89642W        W58115  40.462  44.986   3.191
89643W        W58116  29.528  23.640   1.866
89644W        W58117  13.843  40.016  10.899
89645W        W58118  38.519   3.377  14.466
89646W        W58119  41.526  25.671  10.417
89647W        W58120  37.479  29.088   3.737
89648W        W58121  11.308  24.078   9.488
89649W        W58122  40.329  18.054   1.860
89650W        W58123  26.192  11.686   4.247
89651W        W58124  32.124  32.039   3.770
89652W        W58125   4.230   8.273  10.971
89653W        W58126  32.488  27.599  11.987
89654W        W58127   0.801  20.231   4.739
89655W        W58128  16.571  27.194  13.874
89656W        W58129  41.395  36.431   0.379
89657W        W58130  17.204  40.326   3.174
89658W        W58131   5.421  15.664   0.262
89659W        W58132  40.504  36.388   0.801
89660W        W58133   9.785   5.846  10.594
89661W        W58134  23.706  23.606  11.103
89662W        W58135   2.297  11.278  13.954
89663W        W58136  39.899   0.436   2.269
89664W        W58137  11.698  40.337  12.535
89665W        W58138  36.507  38.900  12.383
89666W        W58139  26.648   5.312   1.928
89667W        W58140   4.761   9.664   4.334
89668W        W58141  21.570  25.712  13.499
89669W        W58142   1.831  31.597  13.059
89670W        W58143   4.908  27.465   1.744
89671W        W58144  28.951  22.542  12.936
89672W        W58145  11.351  34.065   4.723
89673W        W58146   0.887  10.706  12.978
89674W        W58147  23.203   1.370  11.497
89675W        W58148  19.116   1.799  12.009
89676W        W58149  19.606  35.887   1.406
89677W        W58150  13.777  25.653  14.321
89678W        W58151  25.161   9.754   0.953
89679W        W58152  37.860   2.330  12.554
89680W        W58153  11.769  23.531  11.049
89681W        W58154  35.459   9.277  10.568
89682W        W58155  43.358  36.532  10.429
89683W        W58156  18.781  32.950   4.226
89684W        W58157   4.829  25.197   4.332
89685W        W58158  19.218  21.713   0.781
89686W        W58159  15.156  16.694   2.889
89687W        W58160   7.187   7.377  11.446
89688W        W58161  15.192  19.109  11.608
89689W        W58162   7.724  13.233   4.618
89690W        W58163   8.231  27.030   3.846
89691W        W58164   4.713   2.864   0.785
89692W        W58165  43.374  28.182   0.928
89693W        W58166  26.047  10.192  13.911
89694W        W58167  11.314  13.284  13.502
89695W        W58168  25.042  44.844   0.386
89696W        W58169  40.824  41.373  14.391
89697W        W58170  42.010  40.510   0.888
89698W        W58171  26.075  17.126   4.205
89699W        W58172   6.327  14.126   1.821
89700W        W58173  14.759  35.105   4.288
89701W        W58174  11.224  38.828   3.148
89702W        W58175  41.018  10.140  10.586
89703W        W58176   5.850   6.710   4.746
89704W        W58177  13.180   6.328   2.350
89705W        W58178  21.678  27.652  12.459
89706W        W58179   4.392  20.667   1.706
89707W        W58180   1.314  24.139   3.813
89708W        W58181   2.444  27.458  13.920
89709W        W58182  35.497  38.562  12.529
89710W        W58183  37.000  17.221   2.402
89711W        W58184   7.343  16.769   0.431
89712W        W58185  16.263  25.666   3.674
89713W        W58186  32.458  42.364   0.337
89714W        W58187  44.483  33.079  13.947
89715W        W58188  12.694  40.307  14.916
89716W        W58189  44.348  14.113   2.728
89717W        W58190  29.155  39.017   2.876
89718W        W58191  24.983  12.838   0.959
89719W        W58192  37.567  34.583  11.434
89720W        W58193  20.174  44.454  11.569
89721W        W58194  28.580  27.555   0.808
89722W        W58195   2.835  40.049   0.274
89723W        W58196   6.742  24.085   1.380
89724W        W58197  36.394  24.110   1.891
89725W        W58198   1.465  40.037   3.260
89726W        W58199  37.457  14.796   4.743
89727W        W58200  20.071  19.095  14.812
89728W        W58201  13.278   0.894  10.417
89729W        W58202  12.667  20.058   1.252
89730W        W58203   3.862  42.825   1.245
89731W        W58204  18.243  43.477   0.916
89732W        W58205  11.662   6.258  13.827
89733W        W58206  16.772   6.821   3.812
89734W        W58207  29.047   5.814  14.442
89735W        W58208  29.436   8.332  10.570
89736W        W58209  19.272  22.580  10.959
89737W        W58210  34.068  32.438  13.423
89738W        W58211   9.644  27.592   2.277
89739W        W58212  27.585  36.536   2.348
89740W        W58213  22.207  15.157   3.718
89741W        W58214  42.823   4.309   3.149
89742W        W58215  18.175  15.685  10.617
89743W        W58216  39.437  12.172   1.811
89744W        W58217  32.466  34.065   1.713
89745W        W58218  14.153  34.929  12.479
89746W        W58219   4.917  44.302  13.843
89747W        W58220  35.556   6.408   1.367
89748W        W58221  28.938  27.976   1.385
89749W        W58222  40.927  18.545  12.894
89750W        W58223  43.464  26.642   4.137
89751W        W58224   3.893  34.911  14.778
89752W        W58225  24.222  37.459   1.871
89753W        W58226  16.166  28.455   0.814
89754W        W58227  36.076  10.241  14.984
89755W        W58228  41.472  41.990   1.792
89756W        W58229   6.344  44.422   2.732
89757W        W58230  17.226  22.116   1.837
89758W        W58231   2.367  10.866  14.446
89759W        W58232   4.737  12.201   2.311
89760W        W58233   9.379  31.609  14.436
89761W        W58234  32.914  41.017   1.785
89762W        W58235  33.519  29.535  13.472
89763W        W58236  23.516  30.083  12.425
89764W        W58237   7.709  21.624   4.668
89765W        W58238  23.518  19.732   3.726
89766W        W58239   1.435  27.961   2.824
89767W        W58240  29.634   3.866   2.827
89768W        W58241  31.003   0.257   3.146
89769W        W58242   0.983  18.174   5.109
89770W        W58243   2.270  18.589   2.798
89771W        W58244  42.400  25.147  14.404
89772W        W58245  36.053   2.823  10.951
89773W        W58246   8.354  26.041  14.313
89774W        W58247  39.927  44.845  13.817
89775W        W58248  43.285  28.564  14.329
89776W        W58249  23.665  27.542  11.122
89777W        W58250  16.282  43.835   0.442
89778W        W58251  23.607  28.501  13.049
89779W        W58252  23.136  41.866  12.442
89780W        W58253  33.105   7.278   4.693
89781W        W58254  11.247  20.622   1.773
89782W        W58255  37.467  40.518  11.985
89783W        W58256   8.886  32.632   3.317
89784W        W58257  10.706   6.680   0.839
89785W        W58258  22.233  15.258   3.313
89786W        W58259  40.005  22.066   3.233
89787W        W58260  31.105   0.318   1.898
89788W        W58261  10.848  29.541   0.737
89789W        W58262  27.457  22.633  13.440
89790W        W58263   4.863   8.777  14.466
89791W        W58264   0.472  27.053   4.314
89792W        W58265  44.912  32.451  10.906
89793W        W58266  40.890  23.526   0.879
89794W        W58267  13.314  33.007  11.556
89795W        W58268   3.737  13.658   2.382
89796W        W58269  11.838  17.098   2.254
89797W        W58270   1.824  14.658   2.691
89798W        W58271  33.429  36.905  10.992
89799W        W58272  40.053  33.969   1.742
89800W        W58273   5.319  23.702  14.414
89801W        W58274  14.241  16.251  12.083
89802W        W58275  13.789  33.537  12.093
89803W        W58276   6.801  41.350  14.975
89804W        W58277   4.768  14.689   0.376
89805W        W58278  24.622  17.288  13.464
89806W        W58279  29.565   7.871   4.173
89807W        W58280  28.038  34.038  11.098
89808W        W58281  20.599  23.151   1.299
89809W        W58282  33.505  16.221  12.344
89810W        W58283  34.442   0.494  14.411
89811W        W58284  25.659  28.142   1.807
89812W        W58285  13.790  41.895  14.879
89813W        W58286  14.780  44.815  11.576
89814W        W58287   3.249  11.309  14.351
89815W        W58288  22.591  32.059  14.334
89816W        W58289  39.412  29.521   0.899
89817W        W58290  10.689  43.935  12.866
89818W        W58291  18.065  35.533  11.492
89819W        W58292   1.334  40.801   2.731
89820W        W58293  27.533  11.843  14.865
89821W        W58294  11.630  34.547  11.372
89822W        W58295  22.546   3.935  11.102
89823W        W58296  10.643   7.795  14.337
89824W        W58297  43.507  19.045   0.258
89825W        W58298   3.448  28.971  13.342
89826W        W58299  40.882  42.333  12.961
89827W        W58300  12.295  28.113   4.710
89828W        W58301  26.959  44.484   5.310
89829W        W58302  16.194  39.913   0.767
89830W        W58303  11.213  41.477  11.023
89831W        W58304  44.258  14.693   3.212
89832W        W58305   8.674   8.688  12.888
89833W        W58306  20.573  16.765  10.489
89834W        W58307   5.747  43.502   3.369
89835W        W58308  31.476  26.600   1.426
89836W        W58309  28.528  40.868   1.368
89837W        W58310  22.134  24.576  11.887
89838W        W58311  19.142  23.662  13.039
89839W        W58312   0.351  31.613  13.879
89840W        W58313  12.153  35.595   2.188
89841W        W58314  23.587  40.973   4.134
89842W        W58315  41.879  36.064  14.343
89843W        W58316  28.950   8.822   1.776
89844W        W58317  33.033  25.683  11.580
89845W        W58318  38.931   2.457   3.284
89846W        W58319  12.854  16.639  11.862
89847W        W58320  25.062   0.465   4.291
89848W        W58321  13.245  44.922  11.392
89849W        W58322   6.359  11.733  13.903
89850W        W58323  10.849  44.781  13.451
89851W        W58324  22.517  43.495  12.473
89852W        W58325  23.027  32.022   3.696
89853W        W58326  13.145  15.644  10.114
89854W        W58327  44.992  15.237  12.931
89855W        W58328  28.040  15.631  11.434
89856W        W58329  21.054  41.941  12.866
89857W        W58330  30.474  42.867  13.516
89858W        W58331   2.894  17.254   3.721
89859W        W58332  42.502   9.325  10.463
89860W        W58333  44.968   7.866  14.330
89861W        W58334  13.342   9.248  10.565
89862W        W58335   3.340   7.261  11.946
89863W        W58336  17.771  13.267  12.378
89864W        W58337  15.622  35.902  10.530
89865W        W58338  33.937  34.456   1.911
89866W        W58339  30.572  24.011  11.900
89867W        W58340   8.373  27.468   1.375
89868W        W58341   4.848  34.430  13.835
89869W        W58342  23.710  14.775   2.220
89870W        W58343  35.447  14.612  12.531
89871W        W58344  28.131  36.880  13.509
89872W        W58345  27.158  40.961   4.790
89873W        W58346  37.937  37.041  12.452
89874W        W58347  40.044  10.284   4.353
89875W        W58348  39.392  36.375   4.231
89876W        W58349  23.199  17.679   2.318
89877W        W58350  21.690  39.541  13.002
89878W        W58351   2.328  18.771  11.062
89879W        W58352  20.589  40.967  14.470
89880W        W58353  30.005   7.887   1.279
89881W        W58354   0.473  28.140  11.017
89882W        W58355  19.132   7.285   4.209
89883W        W58356  20.599  30.568   4.134
89884W        W58357  14.787   0.963   3.326
89885W        W58358  14.266  42.793   2.295
89886W        W58359   4.214  33.463   3.813
89887W        W58360  34.960  22.581  14.004
89888W        W58361   3.952  22.039   3.272
89889W        W58362  35.889  35.497   0.728
89890W        W58363  27.546  33.917  13.852
89891W        W58364  11.169  27.115  12.058
89892W        W58365  25.552   2.848  12.403
89893W        W58366  35.091  16.115   0.285
89894W        W58367   8.363  19.099  14.414
89895W        W58368  28.006  32.006   0.404
89896W        W58369  16.603  16.285   1.438
89897W        W58370  19.585  15.693   0.392
89898W        W58371  14.199   0.475  14.031
89899W        W58372  12.269  34.115  12.916
89900W        W58373  27.988  41.864   2.310
89901W        W58374  37.950  15.701  13.928
89902W        W58375  12.626   6.245   0.783
89903W        W58376  33.079  20.596  14.916
89904W        W58377  42.879  32.946   4.700
89905W        W58378  41.476  30.913  14.960
89906W        W58379  27.007  14.276   0.410
89907W        W58380  15.689  44.833   4.130
89908W        W58381   4.868  15.242  12.928
89909W        W58382  36.509  16.201   1.293
89910W        W58383   6.361  21.518  10.569
89911W        W58384  32.915  30.162  11.072
89912W        W58385   0.434  32.547   4.694
89913W        W58386   4.445  37.550  10.551
89914W        W58387   3.248  34.947  11.012
89915W        W58388   2.468  36.408   2.771
89916W        W58389  23.231   2.720  13.363
89917W        W58390   8.215  30.911  10.504
89918W        W58391  31.475   2.237   4.785
89919W        W58392  41.535  42.517   3.248
89920W        W58393  30.986  40.348   2.771
89921W        W58394   1.962  10.715  12.551
89922W        W58395  43.965  16.665   4.674
89923W        W58396  42.454  12.778   3.341
89924W        W58397   9.704  20.232  12.096
89925W        W58398  42.457  19.086   1.860
89926W        W58399  31.517  20.198   0.775
89927W        W58400  25.197   8.755  11.505
89928W        W58401  42.406  43.875  13.880
89929W        W58402  40.913  21.117   3.358
89930W        W58403  16.632  28.958  12.922
89931W        W58404  36.356  27.193   1.381
89932W        W58405  28.636  40.039  12.364
89933W        W58406  42.525  35.014  14.347
89934W        W58407  23.569  23.722   2.869
89935W        W58408  14.647  15.714  12.488
89936W        W58409  20.620   8.224   4.758
89937W        W58410   1.894   4.728  12.853
89938W        W58411  41.376  29.560   2.841
89939W        W58412  27.966  22.085  12.997
89940W        W58413   0.440   1.356  11.425
89941W        W58414  35.565  34.879  10.576
89942W        W58415  18.660  31.122  14.960
89943W        W58416  25.654  10.848   4.232
89944W        W58417  18.207  19.136  12.379
89945W        W58418   9.803  30.019  13.980
89946W        W58419   2.439   0.926   0.753
89947W        W58420  28.943  29.617  12.342
89948W        W58421  32.124  42.977   1.289
89949W        W58422  29.425  34.464   3.676
89950W        W58423   6.288  37.966  14.380
89951W        W58424  13.609  21.186  10.618
89952W        W58425  31.980  37.029   1.842
89953W        W58426  26.505  23.528   0.267
89954W        W58427   2.228  40.927  14.383
89955W        W58428   2.911  29.598   1.705
89956W        W58429   8.775  41.894  10.905
89957W        W58430   4.317   7.237  11.428
89958W        W58431  24.994  25.072  13.975
89959W        W58432  12.697  44.963   1.348
89960W        W58433  29.022  38.823   3.253
89961W        W58434  10.868  10.871  12.510
89962W        W58435  43.281  14.298   1.762
89963W        W58436  26.560  37.526   4.655
89964W        W58437  38.392  16.673   3.194
89965W        W58438   5.829   6.800   1.412
89966W        W58439  13.168   0.484  13.953
89967W        W58440   9.347   5.328  13.046
89968W        W58441  18.192  17.784  13.853
89969W        W58442  23.001  12.204  13.915
89970W        W58443  30.925   0.333  14.020
89971W        W58444   4.261  41.925   4.803
89972W        W58445  12.223  27.068   3.298
89973W        W58446  41.865   9.395  13.865
89974W        W58447  14.172   6.211   5.269
89975W        W58448  41.812  22.510  13.395
89976W        W58449  40.428  16.139   0.788
89977W        W58450  12.136  40.303   2.862
89978W        W58451  12.809   0.312   1.821
89979W        W58452  12.152   8.661   3.812
89980W        W58453  12.744  43.516   1.876
89981W        W58454  30.478   2.370   2.856
89982W        W58455  14.338   2.377  12.391
89983W        W58456   0.324  41.360  14.460
89984W        W58457   8.654  32.953   3.639
89985W        W58458  39.455  29.512  13.396
89986W        W58459   9.888  21.078   2.902
89987W        W58460  36.888   5.763   4.803
89988W        W58461   4.337  16.599  14.987
89989W        W58462   6.312  32.636   4.756
89990W        W58463  13.142  37.523  12.441
89991W        W58464   0.802  39.052  14.018
89992W        W58465   9.233  10.703  11.041
89993W        W58466  20.536  35.936  11.100
89994W        W58467  12.263   9.862  12.565
89995W        W58468   6.363  34.991   1.732
89996W        W58469  15.653   9.765  12.087
89997W        W58470  39.900  28.479   2.193
89998W        W58471  38.954  26.680   5.158
89999W        W58472  21.221  14.650   5.729
90000W        W58473  25.070  32.564   4.651
90001W        W58474  40.963  15.624   0.340
90002W        W58475  43.958  42.462   2.360
90003W        W58476  36.891  11.650   4.159
90004W        W58477  28.139   7.269  13.417
90005W        W58478  22.074  12.821   3.227
90006W        W58479   2.965  10.866  12.557
90007W        W58480  41.038  26.605   2.306
90008W        W58481  22.230  16.737  10.444
90009W        W58482  19.677  12.209   2.804
90010W        W58483   2.924  34.507   2.777
90011W        W58484  24.478  43.303  11.447
90012W        W58485  33.521  29.133   4.192
90013W        W58486   8.886  22.212   0.449
90014W        W58487  36.402  38.484   1.915
90015W        W58488  40.982  28.528  13.013
90016W        W58489  14.654  11.282  12.079
90017W        W58490  42.989  14.264   1.272
90018W        W58491  15.686  22.630  14.974
90019W        W58492  34.451   5.249   2.729
90020W        W58493  12.640  39.548   2.417
90021W        W58494  22.598   7.677  13.874
90022W        W58495  22.742   7.208  11.442
90023W        W58496  31.575  27.982   3.660
90024W        W58497  43.955  19.712  12.096
90025W        W58498  28.462  37.971   2.229
90026W        W58499  19.177  21.134  10.938
90027W        W58500  39.834  12.642  14.888
90028W        W58501  37.057  24.529   1.259
90029W        W58502  24.126   1.848   0.378
90030W        W58503  30.560   2.336   0.882
90031W        W58504   6.336  42.314   4.266
90032W        W58505   4.837   6.917  13.859
90033W        W58506   7.244  18.723   4.127
90034W        W58507  37.371  18.657   2.314
90035W        W58508  26.193  35.473  13.316
90036W        W58509  14.682  22.515   5.240
90037W        W58510   8.676  27.564  13.833
90038W        W58511  36.943   6.854   0.898
90039W        W58512  27.514  23.575   1.888
90040W        W58513  25.701   0.389  12.510
90041W        W58514  11.688  17.250   1.405
90042W        W58515  40.955  28.042   4.226
90043W        W58516  13.771  22.705  14.402
90044W        W58517  42.027  37.871  10.619
90045W        W58518  31.111  17.087   3.710
90046W        W58519  44.304  30.946   3.795
90047W        W58520  30.510  32.974   4.308
90048W        W58521  13.273   1.477  14.509
90049W        W58522   8.322  27.578   2.329
90050W        W58523   9.889  30.517  11.555
90051W        W58524   5.880  18.733   3.236
90052W        W58525  37.487  31.051   4.213
90053W        W58526   4.205  26.019   4.350
90054W        W58527  14.288  26.976   4.278
90055W        W58528   2.913   5.327  12.547
90056W        W58529  12.829   9.264   0.844
90057W        W58530  40.022  39.054   4.303
90058W        W58531  40.017  21.601   3.683
90059W        W58532  23.107  13.743  13.338
90060W        W58533   9.651  38.987  13.887
90061W        W58534  31.917   9.790  10.505
90062W        W58535  19.630  33.537   0.754
90063W        W58536  31.631   4.308  12.346
90064W        W58537  16.125  38.860   2.379
90065W        W58538  13.211  11.182  10.496
90066W        W58539  42.329  41.933   0.811
90067W        W58540   9.306  14.235   4.333
90068W        W58541   1.334   0.266  12.916
90069W        W58542  25.705   5.861  11.091
90070W        W58543   7.668  15.195  11.424
90071W        W58544   5.848  36.400   2.762
90072W        W58545  18.099   1.354   0.268
90073W        W58546  20.257  22.165  10.984
90074W        W58547  27.598   0.391   4.139
90075W        W58548  42.493  35.091   4.642
90076W        W58549  29.999  29.646   0.967
90077W        W58550   7.241  17.696   4.612
90078W        W58551   0.841  32.018  14.458
90079W        W58552   2.803  14.211   0.910
90080W        W58553  12.686  44.956  12.878
90081W        W58554  13.173  30.126  14.799
90082W        W58555  34.604  13.160  12.092
90083W        W58556   9.785  41.832   0.774
90084W        W58557  22.602  15.794   4.121
90085W        W58558  23.089   5.357   4.337
90086W        W58559  29.022  38.443   4.205
90087W        W58560  33.131   9.390   3.314
90088W        W58561  19.165   0.811   3.156
90089W        W58562  29.582  34.966   4.302
90090W        W58563  15.681  36.896   0.799
90091W        W58564   3.231  33.589  11.493
90092W        W58565  39.488  13.703   2.805
90093W        W58566  37.990  20.032   3.779
90094W        W58567  35.460   7.238   0.384
90095W        W58568  44.769  28.468   1.345
90096W        W58569  14.607   7.284   4.699
90097W        W58570  44.320  36.509   4.628
90098W        W58571  15.618  30.158   1.805
90099W        W58572  15.704  36.371  12.361
90100W        W58573  40.803  27.462  10.485
90101W        W58574  31.502  42.359   3.370
90102W        W58575  20.235  40.354  11.593
90103W        W58576   0.791  25.674   2.227
90104W        W58577   5.196   2.453  14.289
90105W        W58578  26.014  15.321  11.103
90106W        W58579  43.812  23.655   3.716
90107W        W58580  43.902  43.941  11.122
90108W        W58581   8.698  34.508   2.195
90109W        W58582  22.085  10.322   1.264
90110W        W58583  32.079  44.970   5.183
90111W        W58584  21.076   6.707  11.570
90112W        W58585   6.804  31.404   2.363
90113W        W58586  14.110   8.192   2.345
90114W        W58587  12.238   0.825   3.217
90115W        W58588   5.892   9.885  10.621
90116W        W58589  35.432  31.427   2.283
90117W        W58590  19.705   3.327  12.911
90118W        W58591  30.145  38.967  11.054
90119W        W58592  30.049  30.017  11.612
90120W        W58593  17.681  37.922  12.911
90121W        W58594  31.557   4.403   3.856
90122W        W58595  44.896   0.772   2.250
90123W        W58596  20.625  39.341   3.245
90124W        W58597  18.258   8.212  10.458
90125W        W58598  10.341   1.392  13.346
90126W        W58599   6.393  36.496   3.241
90127W        W58600  26.526  27.992   4.127
90128W        W58601  23.240  24.571  12.960
90129W        W58602  25.064  25.168   2.273
90130W        W58603  23.084  15.308   2.873
90131W        W58604  29.096  19.122   1.312
90132W        W58605  33.875  10.262  13.988
90133W        W58606   8.702  25.492   2.298
90134W        W58607  25.625  38.868   4.732
90135W        W58608  40.864   4.770   2.195
90136W        W58609  21.581  44.926   3.347
90137W        W58610  16.648  28.002  12.001
90138W        W58611   2.404  19.257   0.285
90139W        W58612  38.950  23.118   1.822
90140W        W58613  41.517   0.772  13.330
90141W        W58614  16.810   5.409   4.782
90142W        W58615   7.758  15.666  12.577
90143W        W58616  17.796   5.418   3.861
90144W        W58617  37.907  23.541   3.348
90145W        W58618  16.776  39.840  10.047
90146W        W58619   0.906  33.982   0.959
90147W        W58620  19.259  39.381   3.245
90148W        W58621  44.338  25.663   0.414
90149W        W58622  19.115  16.145  12.016
90150W        W58623  31.081  41.898  12.846
90151W        W58624   1.288  24.530  11.062
90152W        W58625  28.000  16.595   0.766
90153W        W58626  27.460  31.151  10.600
90154W        W58627  18.111  19.200   4.243
90155W        W58628  31.949   7.263  12.340
90156W        W58629  44.798   2.387   2.195
90157W        W58630  12.304   0.914  10.974
90158W        W58631  42.341  32.046  12.529
90159W        W58632  31.537  32.537   3.747
90160W        W58633  19.672  19.578   2.208
90161W        W58634  14.639   5.921  14.347
90162W        W58635  37.889  41.957   4.253
90163W        W58636  43.327   5.256  10.959
90164W        W58637  30.055  17.642  10.971
90165W        W58638  41.856  43.491  12.494
90166W        W58639  28.121  12.733   3.685
90167W        W58640   8.873   3.358   0.252
90168W        W58641   2.754  33.417   1.224
90169W        W58642  20.706   7.798  14.868
90170W        W58643  32.488  24.650   1.870
90171W        W58644  43.495  33.112   4.772
90172W        W58645  29.481   4.905  10.530
90173W        W58646  22.607   9.160   4.795
90174W        W58647  34.438  25.080   4.320
90175W        W58648  39.439   5.406  12.966
90176W        W58649  17.556  17.066  12.038
90177W        W58650  33.880  34.992   4.255
90178W        W58651  26.606  41.951  10.598
90179W        W58652   9.297  22.695  11.421
90180W        W58653  39.315  40.986   0.961
90181W        W58654   6.724  18.132   3.786
90182W        W58655  22.503   1.300  13.957
90183W        W58656  28.077  40.358   0.244
90184W        W58657   9.195  44.372   3.239
90185W        W58658  35.933   3.282   2.326
90186W        W58659  43.497  26.624  14.443
90187W        W58660  40.360  15.646  10.505
90188W        W58661  40.977   3.815   1.899
90189W        W58662  38.550  23.192  13.547
90190W        W58663  11.312  36.491   5.573
90191W        W58664  25.610  38.379  13.901
90192W        W58665   2.256   4.720  11.380
90193W        W58666  22.170  14.196  14.495
90194W        W58667  15.628  11.794   2.267
90195W        W58668  23.211  33.073   1.353
90196W        W58669  32.634  39.964  14.953
90197W        W58670  30.965  42.309   2.343
90198W        W58671  39.817  24.166   3.727
90199W        W58672  15.124  17.248  12.053
90200W        W58673  30.646  37.383   5.210
90201W        W58674  24.028  12.856   3.367
90202W        W58675   7.177  43.000   2.216
90203W        W58676   7.248  26.666  12.485
90204W        W58677  42.293  15.271  12.831
90205W        W58678  22.138   9.302  12.005
90206W        W58679  34.397  42.467  14.913
90207W        W58680  28.034   1.786   4.155
90208W        W58681  44.379   5.858  12.362
90209W        W58682   2.856  38.478   4.316
90210W        W58683   1.462  38.950   2.239
90211W        W58684  17.776  41.008   0.910
90212W        W58685  11.847  29.553  13.847
90213W        W58686  20.097   8.304   3.765
90214W        W58687  19.161  29.460  13.823
90215W        W58688   6.325   6.275   9.928
90216W        W58689  22.189  39.992   3.826
90217W        W58690  28.594  13.350  12.385
90218W        W58691  14.199  38.042   3.701
90219W        W58692   7.292  13.706  14.964
90220W        W58693  16.723   4.236   0.838
90221W        W58694  40.327  44.388   1.829
90222W        W58695  22.710  33.920   3.173
90223W        W58696  11.768  14.105  10.955
90224W        W58697  33.960  31.633   3.806
90225W        W58698  23.167  39.438   2.755
90226W        W58699  40.015   6.373  11.552
90227W        W58700  32.926  16.746   0.936
90228W        W58701   5.247   8.320  12.088
90229W        W58702  23.701  18.751  14.838
90230W        W58703  25.626  16.318   0.392
90231W        W58704   8.781  38.963  10.614
90232W        W58705  30.653  41.407  11.372
90233W        W58706   6.288   6.718  12.891
90234W        W58707  14.242  13.713   3.747
90235W        W58708  36.518  29.668   0.893
90236W        W58709   7.683  25.521  11.597
90237W        W58710   9.312  20.647   4.826
90238W        W58711  13.758  16.072  13.494
90239W        W58712   4.429  15.735   0.784
90240W        W58713  32.614  20.177   4.172
90241W        W58714  32.066  27.619  11.125
90242W        W58715   7.774   4.701   1.409
90243W        W58716  33.448  25.534  13.931
90244W        W58717   8.826  18.165  10.574
90245W        W58718  28.132  25.201   9.924
90246W        W58719  37.862   3.298  10.544
90247W        W58720  30.451   5.786  13.400
90248W        W58721  21.518   4.811  11.091
90249W        W58722  24.007  15.787   4.223
90250W        W58723   3.940  10.302   3.299
90251W        W58724  21.053  44.339   4.254
90252W        W58725   7.310  10.672   2.210
90253W        W58726  18.731  40.357   0.875
90254W        W58727  24.554   3.782  14.390
90255W        W58728   0.820  34.473   0.921
90256W        W58729   5.401  32.524  12.358
90257W        W58730  37.435  44.995   0.319
90258W        W58731  39.952  10.861   0.761
90259W        W58732  42.375  12.654  12.013
90260W        W58733  42.921  14.099   4.354
90261W        W58734  13.254  23.119   2.321
90262W        W58735  28.075  21.210  14.819
90263W        W58736  35.542  31.928   4.211
90264W        W58737  21.568  29.075   0.439
90265W        W58738  28.030  41.012   1.283
90266W        W58739  11.335   3.333  13.917
90267W        W58740   0.777   6.281  13.891
90268W        W58741   2.341  20.252  11.395
90269W        W58742  25.674  30.051   1.765
90270W        W58743   0.282  26.106   2.317
90271W        W58744  15.620  33.096   2.298
90272W        W58745  21.553  17.160   4.229
90273W        W58746   8.344  22.636   2.220
90274W        W58747  18.167  14.189  13.062
90275W        W58748  20.173  21.562   0.745
90276W        W58749   9.250   6.325   4.227
90277W        W58750  42.480  22.175   3.834
90278W        W58751  15.104  40.809  14.303
90279W        W58752  42.785   3.364  12.538
90280W        W58753   5.713  44.939   2.248
90281W        W58754  40.970  12.673  14.507
90282W        W58755   8.754  17.725   2.322
90283W        W58756  29.665  10.163  14.829
90284W        W58757  35.482  42.503   3.692
90285W        W58758  14.692  39.000  11.023
90286W        W58759  10.646   5.739  11.535
90287W        W58760   9.833  25.103  11.942
90288W        W58761  37.911  14.117   4.656
90289W        W58762   5.836   0.278  11.037
90290W        W58763  31.082  35.084   0.439
90291W        W58764  22.085   1.920   3.265
90292W        W58765  37.366  28.935   1.870
90293W        W58766  43.393  21.654   0.359
90294W        W58767   0.372  26.691  13.524
90295W        W58768  21.155   2.441  12.000
90296W        W58769  25.167  15.126  11.554
90297W        W58770  44.271  31.479   1.876
90298W        W58771   8.688  15.109   0.809
90299W        W58772  20.034  28.028  10.067
90300W        W58773   5.313  19.176   3.692
90301W        W58774  15.615  27.479  10.477
90302W        W58775  27.541  29.534  12.487
90303W        W58776  25.217  24.488   3.210
90304W        W58777  17.285  33.578   4.318
90305W        W58778  31.148  27.678   4.246
90306W        W58779  17.211   2.895   1.818
90307W        W58780  29.525   8.282  14.895
90308W        W58781  34.082  19.729   3.309
90309W        W58782  42.824  37.576  12.369
90310W        W58783  21.137  30.145  12.554
90311W        W58784   6.188   2.399   4.784
90312W        W58785  23.553   8.280  13.462
90313W        W58786   7.885  10.879   2.374
90314W        W58787  21.732   7.396  14.031
90315W        W58788  20.190  10.741  13.887
90316W        W58789  21.585  43.925  13.910
90317W        W58790  30.943  17.580  14.408
90318W        W58791  26.487  19.552   2.229
90319W        W58792  31.106  20.263   3.733
90320W        W58793   2.415   5.900  14.882
90321W        W58794  44.772  15.744  13.863
90322W        W58795  38.505   0.928  13.322
90323W        W58796  37.554  32.565  11.019
90324W        W58797  18.126  30.058   2.183
90325W        W58798  23.155  16.575   0.361
90326W        W58799   9.299  17.722   2.412
90327W        W58800  31.060   6.425   2.899
90328W        W58801  18.071  32.992   0.374
90329W        W58802  33.603   6.731   1.366
90330W        W58803  13.262  31.926  12.866
90331W        W58804   4.440  37.376  12.909
90332W        W58805  19.186  30.533   4.820
90333W        W58806  14.326  11.767  12.087
90334W        W58807   1.914  24.589  14.792
90335W        W58808  18.140  11.778  10.480
90336W        W58809  32.100  28.185   2.705
90337W        W58810  30.487  37.907  14.459
90338W        W58811   1.415  38.354  10.919
90339W        W58812  23.052  18.175   3.253
90340W        W58813  41.952  26.573  12.066
90341W        W58814  34.044  42.854  14.493
90342W        W58815  34.395  38.493  11.959
90343W        W58816  39.437   9.665  13.975
90344W        W58817   6.423  44.341   4.833
90345W        W58818   3.336  34.580  13.985
90346W        W58819   3.416   2.379   1.912
90347W        W58820  36.564  31.008  14.852
90348W        W58821  19.663  16.175  13.313
90349W        W58822  40.316  36.462   2.874
90350W        W58823  16.595  30.959  14.889
90351W        W58824  16.596  20.105   2.828
90352W        W58825   1.850  44.973  13.419
90353W        W58826  37.832   4.448   1.758
90354W        W58827   9.382  17.084  10.600
90355W        W58828  17.705  41.422  14.465
90356W        W58829  42.915  36.976   0.391
90357W        W58830  20.543   3.785   4.311
90358W        W58831  13.630  41.304  14.793
90359W        W58832  30.018  13.810   4.608
90360W        W58833   9.357   8.724   0.451
90361W        W58834  42.945  15.316  13.937
90362W        W58835  44.961  32.920   3.801
90363W        W58836   4.272   3.812   4.260
90364W        W58837  40.013  44.503  10.498
90365W        W58838  23.494  26.570   0.814
90366W        W58839  16.189  20.220  10.415
90367W        W58840  13.194  42.987   3.661
90368W        W58841  24.641  19.605  11.044
90369W        W58842  30.005  23.706   5.081
90370W        W58843   3.871  18.210   4.171
90371W        W58844  44.778  23.238  11.909
90372W        W58845  40.344  43.383   1.916
90373W        W58846  18.632  33.384  11.861
90374W        W58847  39.970   3.854   1.214
90375W        W58848  36.432   8.698   2.269
90376W        W58849  24.607  37.846   0.926
90377W        W58850  31.021  18.056  11.905
90378W        W58851  12.298  27.969   4.251
90379W        W58852   0.315  36.587   4.639
90380W        W58853  40.799   6.766  11.590
90381W        W58854  27.121   7.841  13.537
90382W        W58855  37.342  37.386   0.252
90383W        W58856  11.305  17.232   2.242
90384W        W58857  30.942  27.635  10.940
90385W        W58858  16.256  13.766  13.342
90386W        W58859  23.148   7.750  11.591
90387W        W58860   5.716  12.178   3.685
90388W        W58861  13.324  23.237   0.311
90389W        W58862  33.876  34.491  10.587
90390W        W58863  28.529  36.481   2.237
90391W        W58864  30.570  13.730  12.040
90392W        W58865  19.619  41.398  11.506
90393W        W58866  27.959  16.721   1.249
90394W        W58867  37.556  22.251   4.314
90395W        W58868  38.043  36.963   0.471
90396W        W58869  27.971  42.934  11.486
90397W        W58870  36.486  28.473   2.785
90398W        W58871  40.541  22.181   2.779
90399W        W58872  23.722  31.530  11.020
90400W        W58873  33.030  25.178   0.289
90401W        W58874  33.097   6.695   3.258
90402W        W58875  33.058  24.026   0.390
90403W        W58876  41.509   0.334   2.667
90404W        W58877  14.829  23.575   0.910
90405W        W58878  30.076  43.878   9.570
90406W        W58879  27.473  18.550  14.477
90407W        W58880   5.719  23.172   4.135
90408W        W58881   5.786  32.503   0.329
90409W        W58882  24.655  33.883   2.307
90410W        W58883  40.529  39.016  12.847
90411W        W58884  17.078  19.101   2.319
90412W        W58885  42.407   1.862   2.386
90413W        W58886   9.869  25.174  14.777
90414W        W58887  23.625  21.733   2.871
90415W        W58888  13.639  44.493  11.385
90416W        W58889  36.086  24.489  14.895
90417W        W58890   2.782   4.750  13.968
90418W        W58891  24.694   4.273   3.836
90419W        W58892  23.139  36.923  13.030
90420W        W58893  12.657   1.423   1.261
90421W        W58894   0.356  24.640   1.891
90422W        W58895  20.627  40.991   3.323
90423W        W58896  34.918  11.211  14.898
90424W        W58897  15.316  39.550   0.842
90425W        W58898   4.231  28.509  10.629
90426W        W58899   6.679  25.972   3.718
90427W        W58900  40.046  30.508   3.274
90428W        W58901  39.029  41.938  13.936
90429W        W58902  20.098  35.032   3.232
90430W        W58903  35.481  37.575  11.460
90431W        W58904  40.549  19.774  12.020
90432W        W58905  33.392  13.698   2.701
90433W        W58906   3.388  11.234  11.386
90434W        W58907  29.520   7.181  13.963
90435W        W58908  28.510  38.048  13.315
90436W        W58909  27.942   3.269  14.950
90437W        W58910  25.108   8.394  13.447
90438W        W58911  18.652  29.159  14.492
90439W        W58912  13.192  25.668  12.837
90440W        W58913  32.065  30.558  11.540
90441W        W58914  44.818  14.698  12.521
90442W        W58915  36.350  42.962   2.685
90443W        W58916   1.426  14.668   0.915
90444W        W58917  40.039   1.789   3.217
90445W        W58918  14.333  27.470  12.066
90446W        W58919  12.153  21.161  11.024
90447W        W58920  20.099  25.177  11.534
90448W        W58921   0.810   4.772  14.951
90449W        W58922  29.934  17.263  13.471
90450W        W58923  29.547  37.868  14.806
90451W        W58924  44.006  27.581   1.225
90452W        W58925  28.657  26.033  14.939
90453W        W58926  28.474   8.246   2.858
90454W        W58927  16.677  26.975   1.361
90455W        W58928  44.399  26.644   5.274
90456W        W58929   9.160   1.252   0.769
90457W        W58930   5.321  35.931   4.145
90458W        W58931  40.013  15.609  10.418
90459W        W58932  19.250   1.354  12.051
90460W        W58933  12.702   5.761  11.865
90461W        W58934  29.987  24.105  11.967
90462W        W58935  34.374  14.809   4.139
90463W        W58936  19.176  27.187  13.449
90464W        W58937  27.525  34.534   1.377
90465W        W58938  10.226  23.031  13.823
90466W        W58939   9.197  44.944  14.955
90467W        W58940   9.746  36.954  12.366
90468W        W58941  44.429  32.127  13.923
90469W        W58942  22.527  25.670  11.073
90470W        W58943  21.115  29.989   4.169
90471W        W58944  20.240  37.342  13.408
90472W        W58945  31.054  41.321   1.933
90473W        W58946  35.008  39.934  10.630
90474W        W58947  18.567  42.451   3.149
90475W        W58948  21.054  22.249  10.629
90476W        W58949  28.654   8.284  14.902
90477W        W58950  34.972  35.081   5.173
90478W        W58951  25.657  36.013  12.347
90479W        W58952  40.799  25.671   2.350
90480W        W58953   2.720  11.261  11.576
90481W        W58954   7.726   6.853  10.097
90482W        W58955   0.457   7.769   3.170
90483W        W58956  40.962  17.693  14.314
90484W        W58957   4.271  27.002   2.730
90485W        W58958  32.564  40.044  12.427
90486W        W58959  37.350  22.672   1.233
90487W        W58960   1.806   9.291   0.957
90488W        W58961  43.908  31.102  12.004
90489W        W58962  22.709  11.844  11.504
90490W        W58963   0.972  39.408   0.743
90491W        W58964  13.143  36.080  14.298
90492W        W58965   5.873  14.722  13.438
90493W        W58966  24.592   6.362   1.429
90494W        W58967  41.960   2.378   3.679
90495W        W58968  39.389  25.212   2.706
90496W        W58969  32.458  39.831   3.291
90497W        W58970  26.097  35.454  10.412
90498W        W58971  41.913  15.234  10.534
90499W        W58972  43.382  44.316  10.619
90500W        W58973  11.683   9.652  14.389
90501W        W58974  11.321  36.516   5.215
90502W        W58975  34.062   4.382  12.578
90503W        W58976   1.237   1.278  10.916
90504W        W58977  32.511  14.246  14.818
90505W        W58978  39.415  28.508   2.755
90506W        W58979  11.318  26.103  13.415
90507W        W58980  22.121  22.200   0.954
90508W        W58981  17.234   5.212  12.938
90509W        W58982  11.747  43.772   4.278
90510W        W58983  39.811  39.933  12.898
90511W        W58984  27.480  12.127  11.557
90512W        W58985  31.409   1.797   2.772
90513W        W58986  11.793  11.174   3.168
90514W        W58987  44.924   8.734   1.821
90515W        W58988   2.801  33.880   0.737
90516W        W58989  40.864  22.651   1.433
90517W        W58990  20.646  15.138   1.732
90518W        W58991  29.549  13.221  13.989
90519W        W58992  10.648  37.535  11.024
90520W        W58993  27.959   9.254  13.387
90521W        W58994  27.495  12.673   2.402
90522W        W58995  23.985  41.797  11.917
90523W        W58996  16.758  27.465  12.534
90524W        W58997  21.111   8.262  11.071
90525W        W58998  41.981  13.135   3.194
90526W        W58999  19.651  16.591  13.330
90527W        W59000  40.518  20.213  12.446
90528W        W59001  14.323   7.740  12.870
90529W        W59002   9.806  36.363  11.002
90530W        W59003   0.462  30.150  14.927
90531W        W59004  27.951  29.994   1.228
90532W        W59005  42.493   5.392   4.692
90533W        W59006   1.451  27.583   1.815
90534W        W59007  31.028   3.817   3.794
90535W        W59008  36.048  30.967   0.435
90536W        W59009  28.654  30.054  11.110
90537W        W59010  18.779   2.265  10.560
90538W        W59011  10.322   5.431  13.389
90539W        W59012  38.017   7.351   0.802
90540W        W59013  26.019  12.160  12.429
90541W        W59014  35.868  28.634   2.690
90542W        W59015   5.703  13.201   2.364
90543W        W59016  35.995  37.957  13.537
90544W        W59017   8.282   2.455  12.989
90545W        W59018  19.647  43.317  11.391
90546W        W59019  10.758  13.730   1.808
90547W        W59020  34.596   0.324  12.043
90548W        W59021  23.604  38.021   3.714
90549W        W59022  42.459   9.293  12.884
90550W        W59023  26.053  36.549   3.194
90551W        W59024  32.121  40.504   2.401
90552W        W59025  28.611  24.219   4.688
90553W        W59026  31.438  43.490  13.052
90554W        W59027  44.992  16.642  14.367
90555W        W59028   5.896  44.816   0.900
90556W        W59029  12.277  26.980  13.922
90557W        W59030  18.644  18.263  12.899
90558W        W59031  33.903  35.107  10.008
90559W        W59032  28.641  28.657   4.236
90560W        W59033  28.535   9.374   3.720
90561W        W59034   2.957  28.048  13.325
90562W        W59035  26.121  30.137   2.226
90563W        W59036   3.852  12.619  12.558
90564W        W59037   6.792   8.344  10.920
90565W        W59038  12.210  34.507   3.867
90566W        W59039   9.245  15.259  10.639
90567W        W59040  39.876  39.957   0.763
90568W        W59041  10.272  19.691   4.296
90569W        W59042  29.498  19.192  11.033
90570W        W59043   3.379  16.113   5.140
90571W        W59044  32.083  19.239  13.982
90572W        W59045  41.935   3.948   1.364
90573W        W59046  36.361  34.503   4.316
90574W        W59047  18.667  35.932   5.228
90575W        W59048   2.743  15.714  13.419
90576W        W59049  34.038  36.066   1.358
90577W        W59050   2.412   0.364  12.923
90578W        W59051   7.287   0.483   2.396
90579W        W59052  15.670  10.836   3.331
90580W        W59053  23.044   8.165   1.875
90581W        W59054  20.209  41.455  12.396
90582W        W59055   2.809  14.639   4.709
90583W        W59056  13.332  21.612  12.970
90584W        W59057  36.934  17.746  11.570
90585W        W59058   0.953  23.660  13.872
90586W        W59059  30.435  29.011   3.683
90587W        W59060   3.869  33.602   3.185
90588W        W59061  23.038   4.879  11.064
90589W        W59062  13.762  36.461  13.853
90590W        W59063   0.876   8.779   4.645
90591W        W59064  35.571  42.374  12.064
90592W        W59065  40.803  37.452   0.929
90593W        W59066  39.531  17.643  13.911
90594W        W59067  43.858  12.257   0.966
90595W        W59068  30.006  28.183   2.271
90596W        W59069  35.942  42.987   2.787
90597W        W59070  39.315  17.623   2.901
90598W        W59071  27.993  33.516  13.488
90599W        W59072  38.835  34.031  10.964
90600W        W59073  16.755  33.523  13.406
90601W        W59074  28.456  22.133  12.353
90602W        W59075  38.052  28.639   2.686
90603W        W59076  37.539   4.270  13.967
90604W        W59077   8.273   8.669   3.348
90605W        W59078  29.122  19.195  13.431
90606W        W59079  17.220   2.739   1.239
90607W        W59080  28.997  18.570  13.845
90608W        W59081   3.828  23.582   3.166
90609W        W59082  19.183  25.050  10.954
90610W        W59083  33.987  17.193   4.170
90611W        W59084  38.338  22.518   3.205
90612W        W59085  13.141  36.576   2.740
90613W        W59086  42.281  25.578  12.542
90614W        W59087  29.632  10.750  11.915
90615W        W59088  26.124   6.424   1.932
90616W        W59089  16.573  33.394   1.396
90617W        W59090  14.184  32.000   0.773
90618W        W59091  39.533  42.830   4.270
90619W        W59092  14.311  24.648  14.012
90620W        W59093  17.274  18.109   1.226
90621W        W59094  35.994  29.635  14.830
90622W        W59095  43.426  35.937   5.201
90623W        W59096  27.552  44.316  10.978
90624W        W59097   0.287  41.997   4.763
90625W        W59098  32.395  10.841  10.512
90626W        W59099  24.627  24.139  13.921
90627W        W59100  12.345  12.345  12.905
90628W        W59101  14.107  17.247   1.872
90629W        W59102  15.155  44.825  13.982
90630W        W59103   5.873   7.861  14.287
90631W        W59104  28.082  43.483   1.754
90632W        W59105   2.744  14.133  14.886
90633W        W59106  24.195  23.548  12.901
90634W        W59107  30.154  18.158  12.889
90635W        W59108  40.407   0.985  14.913
90636W        W59109  39.389   3.802  11.100
90637W        W59110  28.527   4.882   4.201
90638W        W59111  42.925  44.940   1.765
90639W        W59112  11.746  44.320   4.282
90640W        W59113  26.104  29.502  14.494
90641W        W59114   1.281  33.567  12.446
90642W        W59115  18.062  14.752   4.820
90643W        W59116   1.483  24.631   3.721
90644W        W59117   8.794   7.376   1.283
90645W        W59118  12.292  39.905  12.403
90646W        W59119  40.438  29.930  14.895
90647W        W59120  33.988   3.877   2.783
90648W        W59121  13.820   7.377   4.184
90649W        W59122  15.318   7.891   1.724
90650W        W59123  43.416  33.111  11.977
90651W        W59124  13.668   9.263   0.448
90652W        W59125  27.691   7.192  12.373
90653W        W59126  31.410  15.773   4.142
90654W        W59127  44.343  43.822  12.428
90655W        W59128   0.860  23.152   0.854
90656W        W59129  42.443  42.822  11.466
90657W        W59130  24.014  40.960   0.790
90658W        W59131   7.874  12.800   0.933
90659W        W59132  20.527  20.255   1.891
90660W        W59133   7.282  38.020   1.385
90661W        W59134  38.392  23.216  11.955
90662W        W59135  33.556   7.783  14.839
90663W        W59136  22.241  14.709  10.448
90664W        W59137   8.180  22.063   2.732
90665W        W59138   0.874  10.667  11.079
90666W        W59139  16.148  29.050  13.434
90667W        W59140  21.019  10.787  11.426
90668W        W59141  29.503  27.984  10.626
90669W        W59142   9.843   4.422   2.894
90670W        W59143  15.210  39.517  13.876
90671W        W59144  38.347  23.186  12.578
90672W        W59145   2.329   4.234  14.372
90673W        W59146   3.352   2.762   3.184
90674W        W59147  17.679  36.990  14.870
90675W        W59148   9.171  32.454  14.276
90676W        W59149  37.425  38.004   3.286
90677W        W59150  16.734  24.999   2.229
90678W        W59151  32.920  20.640   0.783
90679W        W59152   4.841  23.721   2.777
90680W        W59153  37.366  21.135   3.214
90681W        W59154  39.507  11.671  11.578
90682W        W59155  38.907  11.858   4.791
90683W        W59156  16.615  29.010  12.570
90684W        W59157  16.296  22.559  14.836
90685W        W59158  26.147  12.650   2.179
90686W        W59159  24.024  12.666  12.045
90687W        W59160  20.711  35.455  12.974
90688W        W59161  24.678  22.225  11.865
90689W        W59162  30.536   9.210  12.369
90690W        W59163  30.422  25.981   2.727
90691W        W59164  15.255  29.118  14.426
90692W        W59165   0.880  44.464  13.923
90693W        W59166  27.104  36.381  11.873
90694W        W59167  35.598  35.568  13.313
90695W        W59168  24.061  43.792  14.368
90696W        W59169  20.217  15.792  11.411
90697W        W59170  40.847  19.091   3.857
90698W        W59171  10.353  26.621   1.414
90699W        W59172  34.506  10.354   1.865
90700W        W59173  39.558  38.852   3.787
90701W        W59174  42.466   9.185  14.020
90702W        W59175  15.194  22.097   1.362
90703W        W59176  34.502   9.874  14.474
90704W        W59177  15.616   1.364  12.913
90705W        W59178  28.674   8.799   2.761
90706W        W59179   2.889  10.633   0.842
90707W        W59180   4.431   0.299   0.809
90708W        W59181   7.188   5.701  14.831
90709W        W59182  40.506   5.367  12.488
90710W        W59183  20.601   7.323   1.851
90711W        W59184  23.167  38.865   3.791
90712W        W59185  20.151  25.542  13.976
90713W        W59186  37.475   3.439  12.962
90714W        W59187  18.279   7.801   4.638
90715W        W59188  34.034  10.850  12.961
90716W        W59189   2.314   6.871   1.885
90717W        W59190  25.703  43.320   5.161
90718W        W59191  42.946  41.504  13.320
90719W        W59192  17.291   0.926   2.179
90720W        W59193  19.757  36.029  10.060
90721W        W59194  36.349  23.585   3.715
90722W        W59195  29.626  13.122  11.007
90723W        W59196  24.182   1.340  14.439
90724W        W59197   5.859  44.891  13.486
90725W        W59198   4.299  19.092  14.368
90726W        W59199  20.113  11.153   2.736
90727W        W59200  44.265  24.204   0.746
90728W        W59201  15.626  26.527  14.918
90729W        W59202  23.039  43.817   1.293
90730W        W59203   4.349  13.677  12.879
90731W        W59204  24.722  41.946  12.072
90732W        W59205  39.407  22.151   4.609
90733W        W59206  20.546   9.689  13.997
90734W        W59207  41.513  26.699   4.293
90735W        W59208  42.290  40.424  10.475
90736W        W59209  11.830   0.412   4.615
90737W        W59210  43.327  11.282   2.249
90738W        W59211  19.586   1.891  13.038
90739W        W59212  41.340  11.333   4.769
90740W        W59213  12.328  21.751   1.307
90741W        W59214  13.344  31.480   2.714
90742W        W59215  25.968   4.274   4.332
90743W        W59216  12.698  34.543  13.060
90744W        W59217  32.945  32.977   2.334
90745W        W59218  20.248  28.041  14.936
90746W        W59219  37.420  31.906   1.444
90747W        W59220  33.546  26.582   5.319
90748W        W59221   8.681  32.497   4.324
90749W        W59222  36.373   4.445   4.207
90750W        W59223  12.252  20.221  14.501
90751W        W59224   2.881  20.574  12.914
90752W        W59225  20.725  14.663  13.912
90753W        W59226   7.748   0.874  11.915
90754W        W59227   0.836  26.602  14.483
90755W        W59228  36.409  17.639   2.794
90756W        W59229  13.676  34.576  12.522
90757W        W59230   8.263  13.232  11.890
90758W        W59231   3.323  32.050   4.710
90759W        W59232  13.798  42.456  14.372
90760W        W59233  20.549  25.528  11.981
90761W        W59234  28.475  42.404  10.630
90762W        W59235  12.641  42.884   4.338
90763W        W59236  43.349  38.848  12.959
90764W        W59237  40.518   9.187  12.438
90765W        W59238  29.500   9.367  13.401
90766W        W59239  24.214  14.726   2.349
90767W        W59240  20.239  11.197  10.601
90768W        W59241  36.990   7.332   2.723
90769W        W59242   6.791  34.980   4.167
90770W        W59243   6.410  15.177   9.926
90771W        W59244  12.264  33.500   4.812
90772W        W59245  36.955  31.931  11.959
90773W        W59246  39.487  39.977   1.745
90774W        W59247  42.450  14.764  13.371
90775W        W59248  28.489  17.617  14.298
90776W        W59249  23.021  19.134  13.024
90777W        W59250  27.599   2.903   2.244
90778W        W59251  18.112  24.979   1.756
90779W        W59252   8.326  12.682  11.437
90780W        W59253  44.346  27.644   1.259
90781W        W59254  11.192  43.459   0.829
90782W        W59255  17.564  39.349  12.096
90783W        W59256  13.835   9.195  12.829
90784W        W59257   8.351  40.514   1.774
90785W        W59258  40.986  33.406  12.096
90786W        W59259  18.255  19.204  10.622
90787W        W59260  33.088  24.574  12.868
90788W        W59261   7.259  43.445   1.217
90789W        W59262  18.076   0.979   1.830
90790W        W59263  20.727  27.039   1.372
90791W        W59264  35.595  32.919  12.404
90792W        W59265   1.767  42.448  11.560
90793W        W59266  20.172   1.431  12.409
90794W        W59267   9.650  44.377   3.774
90795W        W59268  42.507  22.183  13.368
90796W        W59269  32.587  24.507   0.735
90797W        W59270  24.180  34.429   3.795
90798W        W59271  26.524  31.617   2.321
90799W        W59272   1.903  19.677   1.695
90800W        W59273   0.780  21.550   3.692
90801W        W59274  31.118  19.176  13.806
90802W        W59275  39.377  41.830  13.813
90803W        W59276   3.757   5.348  11.106
90804W        W59277   8.848  13.203  10.459
90805W        W59278  19.188   2.757   4.716
90806W        W59279  42.284  15.321  12.487
90807W        W59280  31.115  27.082  11.487
90808W        W59281  35.091  25.034  11.378
90809W        W59282  16.238  13.168   3.182
90810W        W59283   1.943   4.207   2.340
90811W        W59284  10.734  31.066   0.432
90812W        W59285  24.549  35.463   3.211
90813W        W59286   9.360  14.286   1.892
90814W        W59287  38.495   1.419  12.555
90815W        W59288   8.350  23.016  13.323
90816W        W59289   4.926  27.616  10.589
90817W        W59290  29.017  14.218   4.625
90818W        W59291  35.094  31.538   1.263
90819W        W59292   8.343  43.330  12.552
90820W        W59293  13.742   3.858   2.867
90821W        W59294   9.215  37.054  11.960
90822W        W59295  16.759   0.973   1.903
90823W        W59296  31.090  31.913   2.286
90824W        W59297  30.633  33.063  10.439
90825W        W59298   9.199   5.433  10.441
90826W        W59299  37.059  26.461  14.395
90827W        W59300  32.619  14.336   2.788
90828W        W59301   2.443  16.720   0.411
90829W        W59302  42.426   3.245  12.553
90830W        W59303  36.004  40.529  11.027
90831W        W59304  11.127   9.312  12.530
90832W        W59305  16.268   8.878   4.823
90833W        W59306  41.393   4.811   2.851
90834W        W59307  17.663  28.106  12.947
90835W        W59308  14.321  24.685   1.218
90836W        W59309  25.105  24.530  13.868
90837W        W59310  36.927   7.684  13.368
90838W        W59311  15.676  24.600  13.944
90839W        W59312  12.130  12.219   2.847
90840W        W59313  36.983  27.005   1.759
90841W        W59314  39.388  27.449   3.251
90842W        W59315  10.865  33.612   1.823
90843W        W59316   4.284  14.760  12.562
90844W        W59317   9.653  39.986  11.116
90845W        W59318  43.840   6.717   1.795
90846W        W59319  40.978   4.423   1.308
90847W        W59320  35.981   8.726  13.435
90848W        W59321  33.493  42.409   1.308
90849W        W59322  20.615  24.219   1.928
90850W        W59323  31.130  12.685   0.444
90851W        W59324   6.723  25.577   1.721
90852W        W59325   7.294  15.247  13.817
90853W        W59326   1.458  20.687  12.353
90854W        W59327  39.002  44.389   3.780
90855W        W59328  36.963  29.538   1.822
90856W        W59329  29.936  31.488  12.478
90857W        W59330   3.915  27.137   1.855
90858W        W59331  37.974  44.295   2.345
90859W        W59332  18.678  26.590   5.292
90860W        W59333  36.511  25.989  10.488
90861W        W59334   5.899  25.474   1.346
90862W        W59335  11.146  34.399   3.757
90863W        W59336  11.849  29.531  11.486
90864W        W59337   9.313  23.046   1.913
90865W        W59338  10.335  16.804   2.179
90866W        W59339   4.789  29.651   0.854
90867W        W59340  18.703  24.227   0.871
90868W        W59341  29.932  19.716  12.901
90869W        W59342  34.960  18.752   2.263
90870W        W59343   1.953   1.445   1.733
90871W        W59344  26.691   1.750   2.178
90872W        W59345  31.499  19.244  14.448
90873W        W59346  14.681   6.219  10.559
90874W        W59347  35.008   1.337   3.324
90875W        W59348  29.993  24.538  12.565
90876W        W59349  32.414  28.168  11.043
90877W        W59350  30.978  10.731   4.741
90878W        W59351   7.182  16.586   4.317
90879W        W59352  27.162   0.348   1.923
90880W        W59353  22.628   5.392   3.271
90881W        W59354   5.713  36.870   3.302
90882W        W59355  14.624   3.924  13.532
90883W        W59356  30.917  44.887  10.141
90884W        W59357  32.465  29.983   1.226
90885W        W59358   3.311  12.766   4.786
90886W        W59359  37.336  33.033   1.224
90887W        W59360  32.987  21.082   1.933
90888W        W59361  24.191   9.393   3.193
90889W        W59362   8.194   3.354  11.888
90890W        W59363  15.292  33.598   3.821
90891W        W59364  42.907  26.498   4.669
90892W        W59365  28.143  35.103  13.445
90893W        W59366  15.763  31.054  14.812
90894W        W59367  17.088  25.476   2.260
90895W        W59368  42.481   7.746   0.455
90896W        W59369  12.848  36.968   4.304
90897W        W59370   3.904   7.350  11.030
90898W        W59371   7.700  23.229   0.806
90899W        W59372   5.318  26.575   3.799
90900W        W59373  34.906  32.105  12.986
90901W        W59374  25.486  13.752  11.114
90902W        W59375  20.048   4.719   2.252
90903W        W59376   1.873  41.417   1.321
90904W        W59377   4.731   7.312  10.139
90905W        W59378  24.145   3.341   1.824
90906W        W59379  39.943  30.514  12.489
90907W        W59380  35.406   5.242  14.908
90908W        W59381  36.440  17.656  12.561
90909W        W59382  33.585  39.505   4.289
90910W        W59383   0.902   9.339  10.620
90911W        W59384   5.828  28.584  13.960
90912W        W59385  36.091   2.849  13.493
90913W        W59386  40.974  20.113   4.175
90914W        W59387  39.487  44.935  12.849
90915W        W59388  38.863  44.858  11.879
90916W        W59389  10.347   7.803   3.648
90917W        W59390  44.781   4.378  10.449
90918W        W59391  12.857  17.240  10.953
90919W        W59392  35.361  33.931   3.271
90920W        W59393  26.010   2.364  10.404
90921W        W59394  38.570  36.894  10.565
90922W        W59395  18.183  13.225   1.305
90923W        W59396  25.505  39.348  11.574
90924W        W59397  19.572  38.905  14.896
90925W        W59398  27.446  44.324  10.503
90926W        W59399  11.242  24.566  14.895
90927W        W59400   4.863  32.547   1.824
90928W        W59401   7.282  22.117   4.814
90929W        W59402  14.263  21.689   0.838
90930W        W59403   9.776  22.218  10.526
90931W        W59404  33.981  15.220   2.746
90932W        W59405  38.416  30.562   2.670
90933W        W59406  34.455  16.588  13.376
90934W        W59407  19.773  43.449  14.395
90935W        W59408   6.851   7.219   5.171
90936W        W59409  24.647   3.220  14.882
90937W        W59410  40.012  30.505   1.829
90938W        W59411  25.518  15.687   0.789
90939W        W59412  33.477  18.247  10.460
90940W        W59413  16.700   2.393  10.482
90941W        W59414  12.361  20.035  12.379
90942W        W59415   4.931  27.480   0.820
90943W        W59416  43.508  26.975  10.982
90944W        W59417  22.512  15.720   1.329
90945W        W59418   1.330  20.700   3.784
90946W        W59419   5.891   7.389   1.788
90947W        W59420  28.528  31.018  13.970
90948W        W59421  23.172  20.256  11.105
90949W        W59422  24.599  14.706  14.938
90950W        W59423  36.049   8.240   0.466
90951W        W59424  32.100   2.822   4.270
90952W        W59425   9.790   3.891  14.815
90953W        W59426  38.456  40.324   1.280
90954W        W59427  17.609  43.861   2.208
90955W        W59428  27.940  25.177   0.481
90956W        W59429  16.215  15.697   2.775
90957W        W59430  17.220  10.644  14.013
90958W        W59431  10.192  29.636  13.420
90959W        W59432  18.578  40.413  13.878
90960W        W59433  28.672  39.921   4.817
90961W        W59434   3.399   6.348   3.818
90962W        W59435  26.646  31.091  12.966
90963W        W59436  44.989  21.723  14.997
90964W        W59437   2.775  29.608   4.723
90965W        W59438  25.167  16.257  10.609
90966W        W59439  31.414  20.069  13.864
90967W        W59440  38.913  12.362   0.940
90968W        W59441  17.203  36.562  12.825
90969W        W59442  17.220  17.300  12.857
90970W        W59443  20.189   6.320   1.289
90971W        W59444  28.490  28.492  11.071
90972W        W59445  42.431  15.085   1.929
90973W        W59446  28.120  11.759  10.020
90974W        W59447   3.243  33.071   0.404
90975W        W59448  43.445  15.706   3.205
90976W        W59449  40.841  39.549   0.456
90977W        W59450  30.585  13.144   0.932
90978W        W59451  18.133  10.858  13.906
90979W        W59452  44.958  22.740  12.574
90980W        W59453  22.607  34.408  10.437
90981W        W59454  25.197  36.466  13.015
90982W        W59455  21.212   1.255  12.072
90983W        W59456  43.983  31.439  12.465
90984W        W59457  12.753  24.500   3.379
90985W        W59458  26.141  16.185  13.062
90986W        W59459   8.762  38.352   3.744
90987W        W59460  13.249  41.796  14.336
90988W        W59461   4.809  15.597   3.633
90989W        W59462  29.469  30.618  14.818
90990W        W59463  32.910  13.229   2.712
90991W        W59464  14.094  36.977  11.958
90992W        W59465  37.506  38.910   4.737
90993W        W59466  32.511   5.734  12.447
90994W        W59467  20.530  44.864  13.046
90995W        W59468  21.256  37.390   5.203
90996W        W59469  26.200  28.578  12.918
90997W        W59470  13.663  20.687   2.901
90998W        W59471   7.763  20.238  11.942
90999W        W59472  31.571  20.214   2.840
91000W        W59473  20.109   1.415  13.354
91001W        W59474   2.385  42.324  14.837
91002W        W59475  44.965  43.272   0.817
91003W        W59476  37.429  36.392   2.854
91004W        W59477  30.115  31.579   4.617
91005W        W59478   1.811   4.289  11.486
91006W        W59479   9.758  21.654   2.389
91007W        W59480   3.347  17.206  14.874
91008W        W59481  28.069  43.790   5.288
91009W        W59482   2.793  23.059  13.433
91010W        W59483  31.153  35.964   2.384
91011W        W59484  38.562  21.754   2.677
91012W        W59485  21.557   9.846  10.548
91013W        W59486  29.149  20.594   3.237
91014W        W59487  44.779  23.996   0.881
91015W        W59488  42.979  36.489  12.456
91016W        W59489  19.074  25.199   4.809
91017W        W59490  37.020   8.342   3.713
91018W        W59491  40.889  37.453  13.916
91019W        W59492  42.503  23.995  10.633
91020W        W59493  19.099  18.658   2.258
91021W        W59494  11.363  10.792   2.821
91022W        W59495  30.960  32.632   0.814
91023W        W59496   3.363  29.645  13.546
91024W        W59497  34.470   7.416  12.974
91025W        W59498  13.176   8.820  10.127
91026W        W59499  12.707  41.473  10.895
91027W        W59500  42.311  11.811   1.894
91028W        W59501   2.768  17.228   1.255
91029W        W59502  40.339  19.600   0.260
91030W        W59503  37.977  42.401   3.752
91031W        W59504  21.149  36.429  14.488
91032W        W59505  28.661  37.029   1.736
91033W        W59506  10.359   3.280  11.036
91034W        W59507  11.766  30.582  13.341
91035W        W59508  42.407   5.838   0.861
91036W        W59509  40.354   1.959   1.923
91037W        W59510  37.346  23.707   3.207
91038W        W59511  33.053  44.763   1.211
91039W        W59512  38.957  25.134  12.465
91040W        W59513  27.546   7.864   0.937
91041W        W59514  42.514  39.451  10.945
91042W        W59515   9.365  39.550  12.980
91043W        W59516  38.386  22.623   4.174
91044W        W59517  20.763   4.802   2.691
91045W        W59518  39.519  34.052  10.933
91046W        W59519  13.701  15.279  11.911
91047W        W59520  44.933  41.821   3.157
91048W        W59521  40.821  36.856  14.953
91049W        W59522   1.784  36.385   3.632
91050W        W59523   9.373  11.775  14.471
91051W        W59524  16.212  43.815  13.452
91052W        W59525  17.563  31.132   1.792
91053W        W59526   9.304  27.634  13.975
91054W        W59527  37.526  43.419   2.857
91055W        W59528  12.330  26.701  13.325
91056W        W59529  19.720  18.264  12.062
91057W        W59530  33.097   3.303  11.446
91058W        W59531  22.655  25.536   5.751
91059W        W59532  30.483  42.854  11.423
91060W        W59533  42.934  17.102  14.354
91061W        W59534  25.010  36.898   2.898
91062W        W59535  43.965  41.390  13.418
91063W        W59536  44.764  40.371  10.025
91064W        W59537  11.850   3.760   4.661
91065W        W59538  10.141  11.205  12.003
91066W        W59539  39.877  18.060  12.460
91067W        W59540  14.164  18.275  11.491
91068W        W59541  32.143  40.303  11.103
91069W        W59542  38.464  34.064   2.341
91070W        W59543  25.694  36.076   1.368
91071W        W59544  27.653  42.437   1.719
91072W        W59545  10.239  39.516   4.216
91073W        W59546  22.152  28.143   9.515
91074W        W59547  33.891  24.167  11.857
91075W        W59548   2.961   9.374   3.726
91076W        W59549  14.795  39.845   9.486
91077W        W59550  37.512  35.518   3.826
91078W        W59551  27.182  29.450   3.154
91079W        W59552  33.936  23.514   1.216
91080W        W59553  29.161  19.191   2.670
91081W        W59554  26.595   2.286   0.928
91082W        W59555   8.225  30.451   2.679
91083W        W59556   3.419  43.276   2.225
91084W        W59557  30.069  25.971  10.919
91085W        W59558  26.999  36.388  11.566
91086W        W59559  44.951   1.328   0.875
91087W        W59560  33.020  10.246   4.755
91088W        W59561  16.675  26.684   2.188
91089W        W59562  34.057  29.142  14.911
91090W        W59563   4.742  17.591   0.468
91091W        W59564  32.599  26.184  14.430
91092W        W59565  38.842   6.409  12.489
91093W        W59566  18.737   9.697  11.430
91094W        W59567  18.549  34.397   4.223
91095W        W59568  24.091  43.373  10.417
91096W        W59569  11.803   6.306   4.342
91097W        W59570  16.571  16.094   3.795
91098W        W59571  35.044   6.838  10.565
91099W        W59572  28.446   4.935  14.324
91100W        W59573  37.475  18.079   4.649
91101W        W59574  29.432  13.682  13.525
91102W        W59575  18.148  38.822  12.831
91103W        W59576  42.792   8.217   0.478
91104W        W59577   1.966  31.581   2.336
91105W        W59578  39.468  40.352  12.565
91106W        W59579  24.606  16.305  11.074
91107W        W59580  11.207  21.663   1.743
91108W        W59581  18.177  43.849   1.782
91109W        W59582  33.429  43.970  10.580
91110W        W59583  10.191  17.154  14.290
91111W        W59584  34.069  28.660  12.926
91112W        W59585  24.181  19.151  14.304
91113W        W59586  27.050  42.841  10.541
91114W        W59587  37.433  13.749  11.458
91115W        W59588  31.611  39.969  13.047
91116W        W59589  23.553  40.451  11.000
91117W        W59590  20.238   2.244   1.853
91118W        W59591  32.917   9.205  12.489
91119W        W59592  16.109  17.788   3.785
91120W        W59593   3.436   4.918   2.349
91121W        W59594  39.925  31.909  13.922
91122W        W59595  34.097  15.302  13.845
91123W        W59596  29.980  14.731   1.390
91124W        W59597  38.057  44.872   3.171
91125W        W59598   4.716  43.901  10.509
91126W        W59599  24.671  33.418  14.476
91127W        W59600  32.004  14.762  14.342
91128W        W59601  11.728   3.426   4.619
91129W        W59602   2.314  34.930   3.215
91130W        W59603  10.286  35.591   4.200
91131W        W59604  38.550   2.834  11.483
91132W        W59605  44.469  29.460  12.527
91133W        W59606   3.327   4.898  14.792
91134W        W59607  38.479  19.278   0.801
91135W        W59608  19.607   3.383  14.382
91136W        W59609   4.829  11.322   9.982
91137W        W59610   7.407  20.086   1.778
91138W        W59611  36.517  43.978   4.194
91139W        W59612  42.363  10.142  13.001
91140W        W59613  18.077   5.368   0.796
91141W        W59614  32.025  21.178  10.987
91142W        W59615  23.659  34.411   4.809
91143W        W59616   9.158  12.770  11.127
91144W        W59617  40.841   7.896   1.730
91145W        W59618  26.509  42.406  11.596
91146W        W59619  44.460  11.207  10.983
91147W        W59620   3.371  18.710   0.770
91148W        W59621  43.788   3.220   4.146
91149W        W59622  30.531  17.692   2.695
91150W        W59623  40.519   7.284   1.828
91151W        W59624  28.976   4.844  13.467
91152W        W59625  17.260  21.628  12.532
91153W        W59626  15.732  17.618  13.850
91154W        W59627  40.023  31.550  11.377
91155W        W59628  15.774  36.558   4.837
91156W        W59629  34.579   3.777  11.986
91157W        W59630  32.469  19.041   3.801
91158W        W59631  23.164   3.416  12.557
91159W        W59632  37.020  14.297   0.856
91160W        W59633  35.407   3.743  10.447
91161W        W59634  11.194   4.800   1.744
91162W        W59635  11.186  14.681   2.385
91163W        W59636  39.333  37.878  12.528
91164W        W59637   1.914  43.491   2.725
91165W        W59638  36.077  18.209   0.912
91166W        W59639  20.579  11.859   4.789
91167W        W59640  23.176  13.296   0.463
91168W        W59641  10.861  25.546  13.363
91169W        W59642  39.465  28.467   0.885
91170W        W59643  20.228  19.610  13.980
91171W        W59644  24.659  34.489   0.266
91172W        W59645   7.219   3.812   2.855
91173W        W59646  23.020  44.476  14.778
91174W        W59647  40.957  40.988   4.749
91175W        W59648   0.277  10.155  13.908
91176W        W59649   7.235  33.011  11.011
91177W        W59650   8.860  37.346   2.811
91178W        W59651  16.274  43.789   1.918
91179W        W59652  35.881  19.172  10.456
91180W        W59653   6.754  35.056   3.824
91181W        W59654  39.045  22.622   5.306
91182W        W59655   1.447  34.012   2.853
91183W        W59656  16.096   2.409   4.354
91184W        W59657   6.234  25.090   3.663
91185W        W59658  43.955  36.017   4.613
91186W        W59659  18.590  22.596  11.945
91187W        W59660   9.228  43.330  12.575
91188W        W59661  17.636  34.039  13.440
91189W        W59662  31.011  40.388   9.974
91190W        W59663  16.569   3.436   5.223
91191W        W59664  21.729  22.733  10.487
91192W        W59665  10.748  30.129   0.350
91193W        W59666  22.743  27.184   4.170
91194W        W59667  12.251  10.316  13.947
91195W        W59668  33.415  40.050   4.169
91196W        W59669  36.410   8.765  14.359
91197W        W59670  11.745   6.404  10.428
91198W        W59671   8.312  20.648  11.549
91199W        W59672  33.875  15.280   1.285
91200W        W59673  12.804  10.327   4.787
91201W        W59674   7.846   8.344  11.863
91202W        W59675  13.600  44.391  13.453
91203W        W59676  16.775  29.972   1.357
91204W        W59677  37.341  15.123  11.434
91205W        W59678   8.672  34.112  10.984
91206W        W59679  41.030  41.037   3.194
91207W        W59680   5.330  24.557   4.326
91208W        W59681   8.199   7.383   0.286
91209W        W59682  17.596  32.026   2.402
91210W        W59683  43.853  44.838  11.508
91211W        W59684  40.947   7.730  11.939
91212W        W59685  17.593  35.428   2.375
91213W        W59686  18.177   4.304  10.418
91214W        W59687   4.441  40.028  11.954
91215W        W59688   6.199  14.786  10.425
91216W        W59689  15.322  26.541  14.361
91217W        W59690   4.888  28.543   3.276
91218W        W59691  31.913  14.759   0.788
91219W        W59692   7.242  30.031   0.440
91220W        W59693   8.876  26.178   4.790
91221W        W59694   5.828  11.656   0.434
91222W        W59695  31.056  38.561  12.462
91223W        W59696  43.771   5.909  12.022
91224W        W59697  32.567  39.816   2.736
91225W        W59698  44.358  19.695   4.183
91226W        W59699  36.079  34.565  14.940
91227W        W59700  10.141  32.529   2.355
91228W        W59701  44.461  10.848  14.832
91229W        W59702  15.788  31.612   4.663
91230W        W59703   6.839  38.515   0.909
91231W        W59704  23.180  27.511   0.449
91232W        W59705  43.906  27.956   1.344
91233W        W59706  37.990  44.490  12.376
91234W        W59707  21.519   5.266   2.750
91235W        W59708  43.990  18.224  14.997
91236W        W59709  20.667  36.591  14.362
91237W        W59710  33.470  40.798   3.665
91238W        W59711  16.272  16.233  13.423
91239W        W59712  27.480   1.416  13.881
91240W        W59713   8.746  23.070   4.735
91241W        W59714  29.089  13.309  14.332
91242W        W59715  13.248  43.957   2.394
91243W        W59716  14.242  15.756  10.596
91244W        W59717  36.008  30.061   0.895
91245W        W59718  26.039  37.417  12.948
91246W        W59719   5.327  33.890  11.958
91247W        W59720  39.336  15.153  14.825
91248W        W59721  40.907  22.728  10.632
91249W        W59722  43.503  30.915   1.396
91250W        W59723  35.365  43.925  12.518
91251W        W59724  18.188  37.484   1.449
91252W        W59725  32.432  21.205   2.343
91253W        W59726  27.141  29.649  14.481
91254W        W59727  41.466  21.694   3.376
91255W        W59728  26.015   5.380   2.671
91256W        W59729   7.312  27.531  12.986
91257W        W59730  42.505  32.107   0.833
91258W        W59731  23.096  15.767   0.460
91259W        W59732  14.674  41.005   0.897
91260W        W59733   4.902  39.354   4.661
91261W        W59734  26.463   3.780   0.861
91262W        W59735  44.861   7.181   3.739
91263W        W59736   3.950   4.896   1.277
91264W        W59737  24.523  15.599   3.826
91265W        W59738   3.291   2.854   4.824
91266W        W59739  38.392  18.731  14.776
91267W        W59740  43.446  41.844  13.824
91268W        W59741  12.642  33.891  10.639
91269W        W59742  16.625  42.993   3.229
91270W        W59743   2.442  42.961   4.619
91271W        W59744  22.590  39.961  13.463
91272W        W59745  13.828  16.715  11.116
91273W        W59746  15.215  19.259   0.432
91274W        W59747  29.012  24.539   1.307
91275W        W59748  16.270  20.063   1.279
91276W        W59749  17.239   4.421   4.140
91277W        W59750  22.559  35.963   0.962
91278W        W59751  10.283  18.053   4.344
91279W        W59752  36.472   5.377   2.817
91280W        W59753  44.501  23.059  11.547
91281W        W59754   3.235  21.057  10.015
91282W        W59755  44.008  25.088   3.232
91283W        W59756  43.005   5.411  14.455
91284W        W59757  21.564  32.969   3.240
91285W        W59758  30.996  20.768  11.491
91286W        W59759  34.513  40.483  14.509
91287W        W59760  14.140  42.458  14.340
91288W        W59761  31.488  21.746  13.512
91289W        W59762  43.497  24.002   0.266
91290W        W59763   4.384  32.603  10.520
91291W        W59764  43.410  14.165   4.302
91292W        W59765  11.168  32.061  10.594
91293W        W59766  40.520   6.327  11.111
91294W        W59767  25.083  27.148   3.811
91295W        W59768  43.809  16.597  13.926
91296W        W59769  21.567  39.859  10.912
91297W        W59770  44.331  43.289   0.348
91298W        W59771  39.503  28.055  14.022
91299W        W59772  23.583   4.916   4.763
91300W        W59773   6.907   5.227   3.641
91301W        W59774   9.260   7.699  10.985
91302W        W59775  27.530  22.686  12.993
91303W        W59776  20.537   1.379   4.621
91304W        W59777  33.112  27.554  13.028
91305W        W59778  34.994   3.245   2.672
91306W        W59779  43.864  28.186   2.808
91307W        W59780  31.639  21.214  11.477
91308W        W59781  20.085  27.463   1.694
91309W        W59782  29.655  17.633  13.880
91310W        W59783  44.435  27.520  12.439
91311W        W59784  37.872   7.315  10.938
91312W        W59785  42.496   6.852   4.135
91313W        W59786  29.502  41.842  14.283
91314W        W59787  36.361  24.180  11.946
91315W        W59788  40.513   2.788  14.454
91316W        W59789   3.874  11.810   3.847
91317W        W59790   8.755  23.092  13.404
91318W        W59791  12.748  33.545   0.272
91319W        W59792  20.126  17.281  13.467
91320W        W59793  17.302  30.575   9.930
91321W        W59794  42.470  27.012   0.955
91322W        W59795  25.193  25.573  11.042
91323W        W59796  28.116  43.836  10.080
91324W        W59797  43.411  20.183   2.727
91325W        W59798  25.184  18.235   2.298
91326W        W59799   0.369  42.334  12.911
91327W        W59800   3.869  30.099   4.768
91328W        W59801  11.815  21.167  12.551
91329W        W59802  44.273  34.503   3.643
91330W        W59803  30.654   5.355  10.448
91331W        W59804  26.659  43.952  14.494
91332W        W59805  32.453  28.446   3.154
91333W        W59806  11.128  33.601   1.419
91334W        W59807  41.300  29.174   4.149
91335W        W59808  13.334  23.089   3.809
91336W        W59809  43.275   6.304  12.392
91337W        W59810   6.857   0.841  14.011
91338W        W59811   0.810  21.131   0.947
91339W        W59812  29.642  32.412  14.845
91340W        W59813   1.286  35.898   2.854
91341W        W59814  12.344  15.675   3.344
91342W        W59815  37.454  19.064   0.389
91343W        W59816  29.540   8.285  10.929
91344W        W59817  31.143  36.461  13.938
91345W        W59818   3.904  37.990   2.676
91346W        W59819   1.298  12.827  13.518
91347W        W59820  27.571  29.605   1.784
91348W        W59821  35.858   3.725  12.341
91349W        W59822  24.502  16.293   1.791
91350W        W59823  26.052  12.744  10.558
91351W        W59824  40.928  11.807   3.173
91352W        W59825  29.524  37.489  10.952
91353W        W59826   1.911  12.841   4.614
91354W        W59827  16.189  40.328  13.506
91355W        W59828  43.272  18.732   0.746
91356W        W59829  27.984  26.641  12.965
91357W        W59830  20.049  34.965  10.425
91358W        W59831  21.730   3.393  14.485
91359W        W59832  10.747   7.346  12.899
91360W        W59833  37.869   3.231  14.766
91361W        W59834   6.810  39.342   1.748
91362W        W59835  26.067   6.874   0.820
91363W        W59836  15.762   6.890   3.774
91364W        W59837  29.021  19.283  11.606
91365W        W59838  43.922   7.861  12.388
91366W        W59839  12.799  23.984   1.318
91367W        W59840  38.035  22.091   4.132
91368W        W59841  43.849   7.198   4.622
91369W        W59842  30.550  15.620   4.305
91370W        W59843   9.822  10.840   3.664
91371W        W59844  34.110  28.494  14.427
91372W        W59845   9.864  22.008   1.914
91373W        W59846  30.993  18.730  14.515
91374W        W59847  29.601  28.015  11.501
91375W        W59848  42.363  25.593   4.297
91376W        W59849  40.395  12.321   4.142
91377W        W59850  21.047  23.731  10.076
91378W        W59851  11.183  11.692   4.643
91379W        W59852  37.878   0.947   2.228
91380W        W59853  43.309   6.798   1.313
91381W        W59854  36.950  25.588  14.479
91382W        W59855  38.563  21.185  14.969
91383W        W59856  30.416  20.548  13.872
91384W        W59857  40.535  16.717  13.331
91385W        W59858  38.558  17.697   4.834
91386W        W59859  38.028  22.072   1.789
91387W        W59860  28.600  23.121  11.858
91388W        W59861  44.770   4.779   2.717
91389W        W59862   5.724  16.123   2.182
91390W        W59863  41.921  36.471  14.405
91391W        W59864  19.631  37.035  11.029
91392W        W59865  15.251   6.715  14.851
91393W        W59866  38.491  36.389   1.740
91394W        W59867  26.627  19.184   0.434
91395W        W59868  10.803  18.791   4.714
91396W        W59869  17.064  39.519  12.559
91397W        W59870   2.428  13.766   1.800
91398W        W59871   0.446   7.331   1.879
91399W        W59872   6.918  15.804   0.730
91400W        W59873   3.744  41.033  12.957
91401W        W59874   6.259   0.273   3.639
91402W        W59875  18.726  17.625  13.056
91403W        W59876   8.785  20.718  14.774
91404W        W59877  24.587  36.059  14.476
91405W        W59878  21.680  28.496   0.927
91406W        W59879   1.788  36.482   1.889
91407W        W59880  25.493  27.679   3.151
91408W        W59881  28.079  25.081   5.251
91409W        W59882  38.825  42.790   3.755
91410W        W59883  12.612  14.628   3.381
91411W        W59884  13.174   7.864  13.934
91412W        W59885   4.293  27.984   2.692
91413W        W59886  41.332  10.749  11.478
91414W        W59887  31.634  40.853   5.088
91415W        W59888  28.126  44.984  14.424
91416W        W59889  16.174   4.285  14.900
91417W        W59890   6.771   2.439  14.860
91418W        W59891  11.300  44.834   0.879
91419W        W59892  40.899  40.461   0.958
91420W        W59893   0.341  20.593  13.046
91421W        W59894   5.814  10.671   2.365
91422W        W59895   3.459  30.515  14.291
91423W        W59896  24.702   8.307   4.793
91424W        W59897  11.718  21.511   3.805
91425W        W59898   6.356  26.200  12.984
91426W        W59899   7.209   6.895   3.165
91427W        W59900  41.867  35.531  13.472
91428W        W59901  41.506  14.772   3.210
91429W        W59902   5.720  26.186   0.306
91430W        W59903   4.738  32.042   4.815
91431W        W59904  26.081  36.858   1.712
91432W        W59905  21.708  22.638   1.757
91433W        W59906  14.783   4.933   2.406
91434W        W59907  31.496  11.856   4.598
91435W        W59908  25.660  38.350   3.253
91436W        W59909  15.708   7.778   0.450
91437W        W59910  37.050  15.580  11.461
91438W        W59911  22.698  39.509  12.408
91439W        W59912  17.086  14.633   0.954
91440W        W59913  34.997   3.363  13.460
91441W        W59914  43.318  37.992  13.997
91442W        W59915  37.425   0.833  12.483
91443W        W59916   2.325  17.138  13.516
91444W        W59917  36.349  16.091   2.390
91445W        W59918   3.301  10.773   2.824
91446W        W59919  11.327  33.549   4.195
91447W        W59920  22.548  40.448  12.559
91448W        W59921  42.836  10.676  11.955
91449W        W59922  19.611  38.874   2.216
91450W        W59923  16.206  30.951   4.732
91451W        W59924  13.146  21.536   0.952
91452W        W59925  23.095  36.881   2.883
91453W        W59926  32.126  40.967  12.854
91454W        W59927   5.369  38.900   0.741
91455W        W59928   4.355  38.494   2.672
91456W        W59929  41.504  40.540  11.088
91457W        W59930  43.499  10.801   4.728
91458W        W59931  20.769  12.709  13.490
91459W        W59932  26.539  30.486  14.486
91460W        W59933   9.177  15.769  12.431
91461W        W59934  39.040  35.473  12.534
91462W        W59935  30.086  22.243  13.896
91463W        W59936   1.864  19.137   1.422
91464W        W59937  28.165  26.135  11.941
91465W        W59938   8.193  10.340  13.363
91466W        W59939  13.342  23.156  13.411
91467W        W59940  37.467  25.058  13.467
91468W        W59941   0.293  24.164   3.776
91469W        W59942  43.308  14.242   2.798
91470W        W59943  34.055   8.227   1.358
91471W        W59944  32.552  22.243   3.699
91472W        W59945  40.393  27.558  11.911
91473W        W59946  21.656  19.659   0.347
91474W        W59947  25.163  44.475   4.246
91475W        W59948   9.322  29.131   0.303
91476W        W59949  34.887  39.058   2.317
91477W        W59950  13.260   3.886   3.829
91478W        W59951  24.688  32.626   0.359
91479W        W59952  42.505  29.016   1.361
91480W        W59953  31.643  29.111  13.920
91481W        W59954  21.679  33.008   4.238
91482W        W59955  33.936   1.449  11.610
91483W        W59956  32.408  32.073  13.956
91484W        W59957  17.203  29.971   0.341
91485W        W59958  43.896  13.795   4.333
91486W        W59959   7.875   0.862   3.208
91487W        W59960  40.405  30.542  13.373
91488W        W59961  37.959  34.530   1.413
91489W        W59962  26.017  32.618  12.093
91490W        W59963  29.945  33.539  14.897
91491W        W59964  36.353  15.786   0.438
91492W        W59965  31.072  42.981   1.909
91493W        W59966  32.004  17.168   2.705
91494W        W59967   4.371   9.872   4.682
91495W        W59968  41.913  35.581  10.924
91496W        W59969  41.934  41.324  10.944
91497W        W59970  34.600   6.704   4.832
91498W        W59971  19.691  34.431  14.907
91499W        W59972  39.034   1.922  14.387
91500W        W59973  13.319   7.371   3.364
91501W        W59974  37.053  37.068   1.764
91502W        W59975   7.787  30.939   3.255
91503W        W59976  13.730  10.165   3.296
91504W        W59977  34.974  13.308   5.235
91505W        W59978  18.156  17.600  13.452
91506W        W59979   8.884  26.000   2.389
91507W        W59980  34.428  20.565  12.465
91508W        W59981  17.214  17.696  11.512
91509W        W59982  33.127  23.049   0.730
91510W        W59983  13.243  11.822  11.950
91511W        W59984   3.721  43.340   1.777
91512W        W59985  27.999  23.222   0.273
91513W        W59986  12.194  43.823   1.800
91514W        W59987   6.727  20.076  12.570
91515W        W59988   8.879  12.770  13.526
91516W        W59989   3.226  31.910   0.326
91517W        W59990  15.243   7.896  12.040
91518W        W59991  33.437   1.350   0.968
91519W        W59992  44.920  36.852  10.473
91520W        W59993   8.865  29.595   5.292
91521W        W59994   1.436   8.172   0.731
91522W        W59995  18.279  18.234   0.445
91523W        W59996  12.824  27.592  12.977
91524W        W59997  16.707   9.338  13.923
91525W        W59998  36.087   8.843  10.972
91526W        W59999  17.758  26.986  11.408
91527W        W60000  29.578  12.309   2.713
91528W        W60001  34.557  28.537  13.328
91529W        W60002   4.231  10.170  13.345
91530W        W60003   2.447   6.765  13.989
91531W        W60004  17.181  25.477  12.433
91532W        W60005  42.874  12.336   1.748
91533W        W60006  16.172  19.202   3.163
91534W        W60007   8.786  11.182  11.431
91535W        W60008  32.582  30.557  12.381
91536W        W60009  40.006   5.724   3.753
91537W        W60010   7.730  22.572  14.346
91538W        W60011  20.233   2.392   3.678
91539W        W60012  28.973   6.879   0.308
91540W        W60013   3.910  35.482  14.836
91541W        W60014  13.292  24.550  14.327
91542W        W60015  36.941  14.740   3.822
91543W        W60016   2.796  41.518   3.187
91544W        W60017  39.523  28.630  10.477
91545W        W60018   4.872  34.606  10.917
91546W        W60019  20.638  18.707  12.921
91547W        W60020  11.264  34.935  11.967
91548W        W60021  44.343   1.807   4.648
91549W        W60022  27.187  30.005   2.223
91550W        W60023   9.195  24.194  14.807
91551W        W60024  12.708  32.129   3.643
91552W        W60025  33.973   2.313  14.023
91553W        W60026  24.571  17.725  11.106
91554W        W60027  37.942  14.643  12.432
91555W        W60028  17.179   6.683  12.960
91556W        W60029   2.809  28.989   1.238
91557W        W60030  14.718  25.573   3.259
91558W        W60031  30.524  23.525   3.183
91559W        W60032  26.651  22.712  14.312
91560W        W60033  31.636   1.309   4.206
91561W        W60034   3.743  33.107  11.400
91562W        W60035  26.699   1.870   2.779
91563W        W60036  19.279  19.658   3.220
91564W        W60037  40.538  39.394   2.735
91565W        W60038  16.775  39.386   2.895
91566W        W60039  41.847  41.441  13.315
91567W        W60040  36.019  34.585  13.011
91568W        W60041  17.573   8.240  14.938
91569W        W60042  16.738  18.606   4.130
91570W        W60043   1.241  37.853   4.792
91571W        W60044  19.733  16.740  11.564
91572W        W60045  36.533   1.939  11.412
91573W        W60046  12.141  41.345   0.834
91574W        W60047  25.671  37.038  12.097
91575W        W60048   7.759   5.713   1.750
91576W        W60049   4.920  34.981   1.888
91577W        W60050  23.499  39.944  12.459
91578W        W60051  28.117  30.158   3.303
91579W        W60052  20.526   9.311   3.383
91580W        W60053  10.365  34.058   1.406
91581W        W60054   2.281  31.960   3.372
91582W        W60055  41.497   2.792   4.347
91583W        W60056  13.136   4.841   2.230
91584W        W60057   2.771  16.619   0.443
91585W        W60058  27.061  40.968   3.797
91586W        W60059  42.785  16.756  12.047
91587W        W60060  21.582  24.595  13.961
91588W        W60061  27.942  38.510  14.352
91589W        W60062  21.077   5.331   2.744
91590W        W60063  35.878  16.195  12.866
91591W        W60064  12.138   7.790  14.815
91592W        W60065   3.741   8.834   1.915
91593W        W60066  28.937   7.261   4.720
91594W        W60067  43.285   4.366   2.689
91595W        W60068  16.279  31.098   1.888
91596W        W60069  38.959  25.687   1.342
91597W        W60070  44.375   8.279  12.501
91598W        W60071  13.246  30.489  13.444
91599W        W60072  19.177  37.364  12.454
91600W        W60073  12.801  15.211  10.899
91601W        W60074  27.519  23.104  12.838
91602W        W60075   7.411  11.822   2.785
91603W        W60076  32.015  23.038  12.365
91604W        W60077  35.962  28.502   3.365
91605W        W60078  43.012  32.006  13.319
91606W        W60079  44.462  18.184   4.701
91607W        W60080  22.162  43.918   3.222
91608W        W60081  36.401   5.268   4.242
91609W        W60082  23.725  41.861  12.369
91610W        W60083  10.189  11.766   2.767
91611W        W60084  32.490  27.548  14.892
91612W        W60085  13.639  19.181  11.478
91613W        W60086  22.013  19.710   0.742
91614W        W60087  38.047  25.970  14.355
91615W        W60088  30.549  43.992  14.872
91616W        W60089  21.518  17.670   2.341
91617W        W60090  27.561  40.334  10.467
91618W        W60091  34.572  16.728  12.954
91619W        W60092  28.047  29.427   1.444
91620W        W60093  19.729  26.031   0.870
91621W        W60094  31.131   7.336   9.995
91622W        W60095   7.292  30.483   1.910
91623W        W60096  15.717  17.155   5.255
91624W        W60097  26.970   8.886  12.856
91625W        W60098  33.874  44.393  13.853
91626W        W60099   2.742  29.061  12.994
91627W        W60100  44.854  14.768   0.922
91628W        W60101  23.528  18.598  13.960
91629W        W60102   1.870  15.583   4.670
91630W        W60103  33.532  23.679   3.732
91631W        W60104  29.622  41.491   0.836
91632W        W60105   1.433  28.626  13.342
91633W        W60106   4.818   3.255  11.994
91634W        W60107  22.719  41.796   0.471
91635W        W60108  10.706   4.258  13.958
91636W        W60109  38.950   6.722  10.068
91637W        W60110  13.652   0.900  12.888
91638W        W60111  18.062  35.020  13.026
91639W        W60112  34.097   3.716   4.720
91640W        W60113  25.635  12.697  12.466
91641W        W60114  25.060  28.027   1.270
91642W        W60115  16.757  44.470   3.201
91643W        W60116  37.995  33.562   2.704
91644W        W60117   4.879  19.069   3.262
91645W        W60118   9.818  10.182  11.008
91646W        W60119   7.278  42.844  12.002
91647W        W60120   5.331  31.097   3.749
91648W        W60121  40.844   9.317  12.962
91649W        W60122  42.932  25.184   4.647
91650W        W60123   8.173  28.624   0.358
91651W        W60124   6.321  14.692  13.426
91652W        W60125  40.377  21.657  10.524
91653W        W60126  27.524  29.619  10.467
91654W        W60127   5.327  15.200  12.493
91655W        W60128  24.982  24.008   0.762
91656W        W60129   8.881   3.280   3.257
91657W        W60130  12.139  25.698  13.840
91658W        W60131   3.388   2.727   2.703
91659W        W60132  33.929  42.412   4.656
91660W        W60133  30.992  16.224  13.839
91661W        W60134  19.667  35.421  12.340
91662W        W60135  34.955  26.465   2.224
91663W        W60136  27.467  34.446   2.696
91664W        W60137  26.477  27.593   0.794
91665W        W60138  21.545  24.540   4.598
91666W        W60139  24.230   5.904   1.331
91667W        W60140   1.793  17.075  10.467
91668W        W60141  38.503   3.400   1.726
91669W        W60142  41.396  34.562  11.863
91670W        W60143  17.188  35.036   3.707
91671W        W60144  32.592  31.571   3.254
91672W        W60145  21.204  32.034  11.882
91673W        W60146  29.979  10.730  14.819
91674W        W60147  37.545  20.536   3.643
91675W        W60148   6.214   8.371   1.874
91676W        W60149  25.470   9.304   3.807
91677W        W60150  24.105  10.856   2.774
91678W        W60151  21.514  21.574   1.451
91679W        W60152   2.446  37.582   1.784
91680W        W60153  22.095  39.876  13.824
91681W        W60154  40.799  16.753  13.367
91682W        W60155  41.894   8.889  12.505
91683W        W60156  11.339  37.959  12.854
91684W        W60157  31.439  25.968  10.996
91685W        W60158  14.187  12.818  11.942
91686W        W60159  22.074  37.556  14.983
91687W        W60160  42.802  41.361  10.422
91688W        W60161  29.003  16.192  13.516
91689W        W60162  30.155  37.080   0.952
91690W        W60163  40.535  13.745   0.958
91691W        W60164  37.447  11.754   0.852
91692W        W60165   3.254  40.478   1.280
91693W        W60166  43.874   2.925  12.409
91694W        W60167  33.424   4.833   0.860
91695W        W60168  36.352  32.119  14.812
91696W        W60169  10.239  16.244  14.343
91697W        W60170  15.108   4.376  13.886
91698W        W60171  13.168  20.755   0.445
91699W        W60172   6.877   0.789  14.771
91700W        W60173  24.199   3.935  14.924
91701W        W60174   8.378  10.793  13.895
91702W        W60175  24.545   9.167   3.762
91703W        W60176   2.427   5.276  12.449
91704W        W60177  10.284  12.347   0.460
91705W        W60178  40.519  12.774  10.586
91706W        W60179  40.394  44.934  10.429
91707W        W60180  37.840   4.375  12.430
91708W        W60181  22.533  21.147  12.488
91709W        W60182  42.498  27.089  13.529
91710W        W60183  21.566  35.882   4.657
91711W        W60184  17.646  26.966  12.444
91712W        W60185  13.694   7.889   2.199
91713W        W60186  27.488  33.078   3.724
91714W        W60187  29.494  33.049   0.943
91715W        W60188  17.288  21.050  12.045
91716W        W60189  11.803  21.029  14.838
91717W        W60190  41.361   9.251  14.993
91718W        W60191  17.669  40.909  13.994
91719W        W60192  21.187  24.507  13.938
91720W        W60193  33.048  26.081   1.813
91721W        W60194  38.360  39.331   3.715
91722W        W60195  30.135  35.024   0.918
91723W        W60196  17.283  22.095   1.272
91724W        W60197  22.537  39.904  14.431
91725W        W60198  24.020  26.484  12.432
91726W        W60199  20.742  36.487  10.522
91727W        W60200  44.305  14.279  10.142
91728W        W60201  14.202  24.531   2.834
91729W        W60202   8.802  27.637  12.496
91730W        W60203  13.779  20.168  12.423
91731W        W60204  41.818  12.215  13.319
91732W        W60205  15.586  15.323  10.439
91733W        W60206   2.430  38.427  11.421
91734W        W60207  16.577  21.724   2.715
91735W        W60208  32.030   0.836  14.448
91736W        W60209  38.388  20.692   1.252
91737W        W60210  14.821  25.143  11.871
91738W        W60211  35.954   6.406   0.921
91739W        W60212  44.370  35.573   2.278
91740W        W60213   4.444   7.325  13.430
91741W        W60214  11.140  27.999  11.052
91742W        W60215  36.478  12.837   1.876
91743W        W60216   5.427  42.812   0.310
91744W        W60217   5.342  38.396   2.325
91745W        W60218  42.861  28.058   3.240
91746W        W60219  40.431   6.201   1.248
91747W        W60220  21.744  25.511  13.802
91748W        W60221  40.844  28.653   3.667
91749W        W60222  28.654  17.172   4.236
91750W        W60223  35.076   1.852  12.896
91751W        W60224  44.382  27.030   3.800
91752W        W60225  17.293  26.691  13.962
91753W        W60226  29.426  21.084  13.801
91754W        W60227  24.141  10.760   2.238
91755W        W60228   2.911   1.482   3.639
91756W        W60229  32.631  30.449   5.305
91757W        W60230  34.500  40.872  14.507
91758W        W60231  23.638   1.851   1.869
91759W        W60232  20.039  41.997   2.821
91760W        W60233  35.538  38.819  12.833
91761W        W60234  42.787  20.656  11.921
91762W        W60235  31.930  13.699   3.632
91763W        W60236  10.226  43.489   3.281
91764W        W60237  38.347   5.194  11.588
91765W        W60238  19.186  20.548   0.325
91766W        W60239  19.256   2.455   0.821
91767W        W60240  22.730  31.066  10.503
91768W        W60241  19.241  35.359   1.752
91769W        W60242   4.935  40.854  13.991
91770W        W60243  39.993   8.732  13.836
91771W        W60244   5.354  44.324   2.901
91772W        W60245  10.210  16.150   1.856
91773W        W60246  42.389  40.496  13.476
91774W        W60247  26.552  41.896   1.722
91775W        W60248  31.998  10.843  14.997
91776W        W60249  13.830   3.347   3.211
91777W        W60250  38.055   0.981  13.801
91778W        W60251  44.789  24.164   4.771
91779W        W60252  13.122   4.438  10.445
91780W        W60253  23.614  20.640   4.754
91781W        W60254  26.500  13.157  11.430
91782W        W60255  32.036  37.879   2.342
91783W        W60256  24.090  36.863   2.415
91784W        W60257  30.075  27.534  12.550
91785W        W60258   8.267  21.665   1.927
91786W        W60259  34.057  10.800   2.389
91787W        W60260  22.687  18.201  14.308
91788W        W60261  20.097  31.998   5.292
91789W        W60262  21.640  19.151   4.833
91790W        W60263  32.496  24.608   3.731
91791W        W60264  26.526   1.799  12.478
91792W        W60265   9.164  37.380  13.990
91793W        W60266  35.876  36.085  10.980
91794W        W60267  41.899  20.051   3.249
91795W        W60268  13.284  15.254  12.010
91796W        W60269  19.196  16.773   0.337
91797W        W60270  14.287   4.941   3.682
91798W        W60271  23.677  36.012   2.836
91799W        W60272  24.210  29.065   0.246
91800W        W60273   0.973  33.510   4.781
91801W        W60274   7.769  19.698   2.827
91802W        W60275  41.818   3.943  10.588
91803W        W60276  42.454  30.117  14.869
91804W        W60277  36.579  26.176  14.320
91805W        W60278  44.416  22.244   2.702
91806W        W60279   0.877  33.562  10.096
91807W        W60280  24.071  10.171  11.488
91808W        W60281  44.425  11.812   0.410
91809W        W60282  25.131  43.964  12.350
91810W        W60283  17.586  29.466   4.681
91811W        W60284  35.468  19.089   1.229
91812W        W60285  20.098  31.433   3.728
91813W        W60286  40.380  27.495   1.317
91814W        W60287  37.396   4.773   5.259
91815W        W60288  30.552  21.053  13.801
91816W        W60289   0.462  22.636  12.013
91817W        W60290   1.948  19.578  13.416
91818W        W60291   4.797  23.508   2.219
91819W        W60292  37.539  11.330  12.075
91820W        W60293  24.573  37.573  10.524
91821W        W60294  21.259   4.866   2.799
91822W        W60295  38.065  36.583  11.384
91823W        W60296  31.019  18.287  10.918
91824W        W60297  25.666   3.939   4.600
91825W        W60298  37.472  34.899   4.773
91826W        W60299  10.295  15.280   4.600
91827W        W60300  21.248  28.136   0.926
91828W        W60301  19.220   2.803  14.472
91829W        W60302   3.460  35.106   1.375
91830W        W60303  32.967  14.286  14.914
91831W        W60304  23.516   2.380  13.488
91832W        W60305  11.271  20.595   1.226
91833W        W60306  16.286   9.334   1.712
91834W        W60307  39.324  32.063   3.198
91835W        W60308  10.164   8.177   4.203
91836W        W60309  12.214  29.993   4.296
91837W        W60310  33.883  39.508   0.363
91838W        W60311  22.519   2.889  13.520
91839W        W60312  34.557  43.500   4.615
91840W        W60313   3.922   5.738   3.261
91841W        W60314  31.572  23.045  14.365
91842W        W60315  42.393  28.554  12.853
91843W        W60316  32.555  41.801  10.628
91844W        W60317  41.966  12.293   3.675
91845W        W60318  44.869  36.494   2.307
91846W        W60319  20.049   6.255  11.961
91847W        W60320  39.472  31.457   3.371
91848W        W60321  19.059   4.418  14.851
91849W        W60322  33.609  39.463  14.974
91850W        W60323  20.227  18.774   4.803
91851W        W60324  19.069  42.418  14.442
91852W        W60325  12.244   6.873  13.860
91853W        W60326  42.313  21.602  11.114
91854W        W60327  39.056  12.232  13.912
91855W        W60328   6.861  29.618  12.001
91856W        W60329   7.183   5.439   2.296
91857W        W60330  13.268  31.997  13.335
91858W        W60331  15.745  18.617   5.171
91859W        W60332  42.349   0.898  13.814
91860W        W60333  20.213   8.308   1.341
91861W        W60334  24.660   1.432   9.512
91862W        W60335   7.325   1.908  10.899
91863W        W60336  23.170  23.149   2.766
91864W        W60337  26.685  20.254   1.843
91865W        W60338  14.211  26.094  12.579
91866W        W60339  39.370   6.212  14.902
91867W        W60340  14.764  15.648   1.428
91868W        W60341   1.860  15.765   4.144
91869W        W60342  42.341  12.730  13.053
91870W        W60343   3.896  40.006  12.928
91871W        W60344   9.286  21.169   0.310
91872W        W60345  36.457  32.059  12.943
91873W        W60346  18.154  15.696  10.939
91874W        W60347  33.426  35.883  14.903
91875W        W60348   0.857  10.379  12.846
91876W        W60349  29.581  42.981   0.255
91877W        W60350   3.879  12.358  10.538
91878W        W60351  19.593  30.024   0.408
91879W        W60352  43.929  44.921   4.692
91880W        W60353  36.854  36.053  12.535
91881W        W60354   4.743  40.378   1.700
91882W        W60355  27.940  36.538   4.180
91883W        W60356  35.909   8.823   3.377
91884W        W60357   3.331  32.546   2.772
91885W        W60358  12.735  31.519   4.160
91886W        W60359  32.512  41.943   3.369
91887W        W60360  42.944  17.774  11.105
91888W        W60361  12.205  23.693   3.709
91889W        W60362  32.916  24.678  11.529
91890W        W60363  37.362  40.927   0.960
91891W        W60364  32.612  37.928   1.385
91892W        W60365  19.610  25.152   2.721
91893W        W60366   4.357  30.453   4.800
91894W        W60367  40.426   5.421  14.789
91895W        W60368  38.065   4.338   4.814
91896W        W60369  29.027  26.198  12.880
91897W        W60370  33.112   2.814  14.908
91898W        W60371  42.497  33.564   3.811
91899W        W60372   0.767  11.734   1.390
91900W        W60373  43.927  39.953  10.536
91901W        W60374  14.719  32.891  11.940
91902W        W60375  32.979  10.645  12.963
91903W        W60376  33.612  37.456  14.019
91904W        W60377  18.627  14.119   1.778
91905W        W60378   8.338   4.719   3.811
91906W        W60379  13.668  42.974   1.226
91907W        W60380  19.096  40.980  10.482
91908W        W60381  12.825  20.573  13.309
91909W        W60382  37.569  44.376   3.302
91910W        W60383  44.393  33.435   4.226
91911W        W60384   8.893   0.474  12.002
91912W        W60385   3.825  38.910   2.258
91913W        W60386  29.493  35.875  13.426
91914W        W60387  30.079   9.241  11.906
91915W        W60388   9.795   0.986   1.293
91916W        W60389  26.561   5.783   1.403
91917W        W60390  24.020  11.783  12.862
91918W        W60391  31.977  26.586  13.402
91919W        W60392  15.772  19.039   2.219
91920W        W60393   8.872  30.487  10.905
91921W        W60394  25.026  39.876  11.927
91922W        W60395  39.497  27.957  10.581
91923W        W60396  14.189  40.396   4.701
91924W        W60397  27.647  23.107  12.094
91925W        W60398  29.632  16.741  10.409
91926W        W60399  27.563  19.534   1.866
91927W        W60400  44.328  32.394  13.525
91928W        W60401  14.781  10.366   1.796
91929W        W60402   2.932  37.340   3.223
91930W        W60403  24.479  10.853  14.766
91931W        W60404  40.867  23.694  11.543
91932W        W60405  14.688   1.880  11.557
91933W        W60406  21.554  28.575   1.741
91934W        W60407  32.418  13.842  14.828
91935W        W60408   1.395  34.949   2.823
91936W        W60409  39.343  17.653  14.308
91937W        W60410  23.523  17.249  13.379
91938W        W60411   5.929  41.880  12.378
91939W        W60412   6.402  36.885  12.831
91940W        W60413  15.582  38.435   3.306
91941W        W60414  41.532  43.006  13.326
91942W        W60415  36.049  41.789   2.223
91943W        W60416   3.829  15.302   2.819
91944W        W60417  23.509  28.147   2.868
91945W        W60418  18.700  18.111  11.555
91946W        W60419  40.867  42.409  10.406
91947W        W60420  38.938   7.272   2.822
91948W        W60421  29.531  38.420  11.116
91949W        W60422  38.972  44.812   2.400
91950W        W60423  31.630  21.758  12.904
91951W        W60424   4.830  42.922   0.931
91952W        W60425   5.282  28.599  11.522
91953W        W60426   9.313  22.615   5.672
91954W        W60427  37.931  19.594  10.565
91955W        W60428  20.757  12.309   2.864
91956W        W60429   0.309  29.061   3.283
91957W        W60430  40.535  12.699   1.924
91958W        W60431  13.286  42.934   1.865
91959W        W60432   2.760  25.493  11.499
91960W        W60433  40.006  26.009  13.531
91961W        W60434  18.698   3.372   2.738
91962W        W60435  28.025  19.238   0.280
91963W        W60436   5.701  35.043   1.889
91964W        W60437  30.553  13.344   1.307
91965W        W60438  20.196  20.135   1.735
91966W        W60439  22.676  24.632   2.178
91967W        W60440  20.642  32.558  14.326
91968W        W60441   6.770  21.573  10.407
91969W        W60442  28.983  23.083  14.860
91970W        W60443   1.312  34.553   4.831
91971W        W60444  20.735  33.962  13.495
91972W        W60445  16.192  18.123   4.151
91973W        W60446  10.365   1.390   0.479
91974W        W60447   1.787  28.622   2.663
91975W        W60448  10.339  32.964  14.357
91976W        W60449  29.099  35.383   4.152
91977W        W60450  29.504  25.493  14.771
91978W        W60451  33.098  29.129   2.667
91979W        W60452  39.021  22.588   3.293
91980W        W60453  39.451   9.200  12.580
91981W        W60454  15.616  37.450  10.514
91982W        W60455  42.851  21.621  11.468
91983W        W60456  16.654  39.049   1.807
91984W        W60457  12.164  12.231  12.397
91985W        W60458  29.445  21.252  11.879
91986W        W60459  12.857  44.008  14.970
91987W        W60460  13.677   6.865  10.495
91988W        W60461   2.284  20.756   4.802
91989W        W60462  37.078  13.193  11.117
91990W        W60463   9.697  32.943   3.864
91991W        W60464  40.335  39.904  14.822
91992W        W60465  17.125  39.818   2.306
91993W        W60466  44.943  28.527  12.445
91994W        W60467  44.828  39.970  11.561
91995W        W60468  37.345  33.882   3.306
91996W        W60469   4.730  18.692  10.629
91997W        W60470   9.699  15.635   0.460
91998W        W60471  25.041  20.733   4.781
91999W        W60472  39.462   5.839  14.369
92000W        W60473   9.704  25.082  10.082
92001W        W60474   8.849  26.504  12.407
92002W        W60475  44.319   7.803  11.913
92003W        W60476   8.767  34.995   4.137
92004W        W60477  19.637  40.990   4.794
92005W        W60478  26.159  16.584  13.318
92006W        W60479  44.459  15.807   4.785
92007W        W60480  21.695   3.429  12.969
92008W        W60481  43.443  15.811   3.737
92009W        W60482   8.183  16.270   2.888
92010W        W60483  27.472  43.859  13.503
92011W        W60484  14.720  39.900  10.135
92012W        W60485  41.478  12.201   3.321
92013W        W60486  37.504  14.710   2.372
92014W        W60487   6.320   9.300  11.419
92015W        W60488   3.329  38.926  12.941
92016W        W60489   5.696   6.808  10.933
92017W        W60490  41.857  17.258   3.296
92018W        W60491   7.323   0.985  11.945
92019W        W60492   4.904  44.777   4.657
92020W        W60493  29.039  29.576   3.845
92021W        W60494  37.498  20.240  11.451
92022W        W60495   9.352  20.696  10.550
92023W        W60496  21.170   4.855   1.772
92024W        W60497  26.994  14.327  14.762
92025W        W60498   7.843  38.339  14.806
92026W        W60499  16.607   4.326  13.344
92027W        W60500  15.784  23.652  13.338
92028W        W60501   1.359  25.173   1.306
92029W        W60502   5.789  33.120   2.411
92030W        W60503   7.731   1.785  14.506
92031W        W60504  41.953   7.906  11.992
92032W        W60505  26.970  29.467  14.828
92033W        W60506  17.152  21.659  14.020
92034W        W60507  18.085  21.542   1.736
92035W        W60508   8.258  19.114   0.395
92036W        W60509  17.213  14.667   3.820
92037W        W60510  15.323   5.196  13.982
92038W        W60511  32.964  21.080  11.536
92039W        W60512   6.860  10.651   4.838
92040W        W60513   8.673  18.165  13.801
92041W        W60514  12.738  11.648  11.865
92042W        W60515  17.190  22.141   0.347
92043W        W60516   0.384   3.883   0.366
92044W        W60517  37.992  16.073  10.512
92045W        W60518  18.660   1.419   2.187
92046W        W60519  15.129  33.390   2.279
92047W        W60520  20.561  32.936   3.193
92048W        W60521  40.011   6.906  13.476
92049W        W60522  44.415  16.669  14.374
92050W        W60523  40.881  38.331   1.449
92051W        W60524   6.266  29.083   0.731
92052W        W60525  36.448  31.531  10.637
92053W        W60526  33.477  24.051   2.684
92054W        W60527  14.739   4.723   3.269
92055W        W60528  20.257  28.631  10.620
92056W        W60529   5.828  28.618   0.261
92057W        W60530  41.311  12.646  14.356
92058W        W60531  20.664  17.277   1.927
92059W        W60532  13.738  20.220  14.332
92060W        W60533  21.078  27.182  11.102
92061W        W60534  37.904  44.913   2.880
92062W        W60535  13.312  12.186   4.208
92063W        W60536  44.328  11.181  10.531
92064W        W60537  42.420  30.573  11.539
92065W        W60538  39.914  33.616   3.642
92066W        W60539   9.660  34.555  11.438
92067W        W60540  41.500  36.947   1.819
92068W        W60541  41.852  37.571   1.230
92069W        W60542   8.328  44.467  12.952
92070W        W60543  22.065  26.174  13.943
92071W        W60544  17.735   1.757   0.964
92072W        W60545  29.169  29.542   4.279
92073W        W60546  32.913  39.460   2.329
92074W        W60547  31.056  28.957   4.666
92075W        W60548  18.281  34.981  11.485
92076W        W60549  43.395   7.698   1.876
92077W        W60550   4.712  32.601   0.738
92078W        W60551  41.987  24.081   1.762
92079W        W60552  21.135  30.522   0.874
92080W        W60553  43.273  28.004   2.419
92081W        W60554  30.026  35.020   4.793
92082W        W60555  21.136  30.618  13.317
92083W        W60556   4.738  37.024  11.906
92084W        W60557   5.704  40.384  12.966
92085W        W60558  40.415  40.325   4.187
92086W        W60559  26.579  32.123   3.770
92087W        W60560  22.251  36.033   1.852
92088W        W60561  44.969  18.171  12.848
92089W        W60562   3.853  14.228   1.797
92090W        W60563  37.000  43.442  11.861
92091W        W60564  26.688  18.125   0.286
92092W        W60565  20.140  36.934   4.257
92093W        W60566  44.937   4.345   0.735
92094W        W60567  44.885  18.695  12.490
92095W        W60568  19.203  13.784   3.376
92096W        W60569  23.013  19.744  12.471
92097W        W60570  13.660  44.359  11.080
92098W        W60571  27.150  26.492   1.882
92099W        W60572  43.949  42.323   0.326
92100W        W60573   5.713  20.096   0.887
92101W        W60574  14.260   2.328   0.926
92102W        W60575  16.728  22.541   1.295
92103W        W60576   9.782  40.923   1.381
92104W        W60577  18.627   4.411  12.494
92105W        W60578   9.840   9.230   2.824
92106W        W60579   8.800  22.608  14.431
92107W        W60580  11.830   4.839   4.114
92108W        W60581  41.973   7.898   2.857
92109W        W60582  21.075  29.548   3.318
92110W        W60583  33.399   2.955   4.272
92111W        W60584  43.956  20.714   4.286
92112W        W60585   9.697   5.361   1.787
92113W        W60586  11.848  39.480   2.784
92114W        W60587  41.018  27.974   0.914
92115W        W60588  16.722  26.080   1.844
92116W        W60589  12.632   4.766  10.530
92117W        W60590  19.595  27.163   3.633
92118W        W60591  36.465  14.730  13.386
92119W        W60592  43.379  29.430   1.378
92120W        W60593  14.825  32.113   0.332
92121W        W60594  19.715  26.967   2.232
92122W        W60595  14.679  21.102   0.278
92123W        W60596  14.668  22.707  12.447
92124W        W60597   5.297  41.857  12.447
92125W        W60598   3.349  31.032  10.564
92126W        W60599  10.382  19.148  14.470
92127W        W60600  17.666  23.073   2.773
92128W        W60601  30.930  40.451   1.794
92129W        W60602   3.836   5.780   3.865
92130W        W60603  41.889  39.324  13.385
92131W        W60604  10.718  30.588   3.801
92132W        W60605  24.566   4.427  14.892
92133W        W60606  23.582  21.696  11.982
92134W        W60607  40.482  30.059   1.288
92135W        W60608  31.997  41.318  14.447
92136W        W60609   7.737  37.030   4.683
92137W        W60610  29.095  28.506  12.566
92138W        W60611  22.538  39.404   0.834
92139W        W60612  26.168  38.392  12.936
92140W        W60613  36.081  23.076  13.488
92141W        W60614  32.505   3.231  11.547
92142W        W60615   8.171   9.832  14.395
92143W        W60616  15.790  10.647  14.353
92144W        W60617  20.260  30.020   0.769
92145W        W60618  41.876  10.868  14.899
92146W        W60619  14.670  31.519  11.551
92147W        W60620   0.379  14.254  13.401
92148W        W60621  22.567  12.235   2.241
92149W        W60622  34.544  16.155  11.402
92150W        W60623  34.912  16.744  10.937
92151W        W60624  31.453  43.493  12.367
92152W        W60625  18.733   5.237   4.219
92153W        W60626  24.050  13.824   2.859
92154W        W60627  11.158  31.424  13.031
92155W        W60628  17.163  21.594  12.009
92156W        W60629   0.364  20.075   1.853
92157W        W60630  20.262  21.162  13.320
92158W        W60631   7.775  17.229  10.582
92159W        W60632   0.949  28.623  13.317
92160W        W60633  18.570  33.005  12.506
92161W        W60634  23.568   6.699   1.318
92162W        W60635  17.676  34.428  13.791
92163W        W60636  14.129  17.168  14.391
92164W        W60637  29.466   8.825  12.977
92165W        W60638  15.197  37.537  10.588
92166W        W60639   0.971  24.203  11.539
92167W        W60640  44.789  28.171  12.511
92168W        W60641  30.128  43.399  11.391
92169W        W60642   1.469  10.370   2.349
92170W        W60643  13.291   8.691  10.504
92171W        W60644  32.984  44.328   0.906
92172W        W60645  22.057   4.359   1.702
92173W        W60646  33.889  42.394  12.912
92174W        W60647  43.319  43.297   4.225
92175W        W60648   4.267  28.459   1.932
92176W        W60649  38.072  25.518   2.367
92177W        W60650   1.786  32.471   2.337
92178W        W60651  44.978  13.265   1.309
92179W        W60652  41.431  18.117  13.383
92180W        W60653  38.432  14.099  13.980
92181W        W60654  13.736  35.913   0.837
92182W        W60655  28.643  43.928   3.345
92183W        W60656   3.341  10.732  12.391
92184W        W60657   3.325   1.860   4.249
92185W        W60658  20.713  10.855   1.235
92186W        W60659  40.992  39.317  13.432
92187W        W60660  17.278  16.212   1.738
92188W        W60661  43.931  34.604   2.340
92189W        W60662  43.968  16.589   1.863
92190W        W60663  11.166  35.888  10.906
92191W        W60664  18.143   5.899  10.419
92192W        W60665  35.526  10.347   4.320
92193W        W60666  38.441  16.252  13.360
92194W        W60667  14.700  25.085   1.696
92195W        W60668  24.115  24.662  14.828
92196W        W60669  31.982  32.625  13.545
92197W        W60670  21.072   3.867   2.784
92198W        W60671  27.655   1.966   0.891
92199W        W60672  14.138   3.386   1.295
92200W        W60673  30.042  25.084  10.437
92201W        W60674  18.568   5.291   4.647
92202W        W60675  31.040  11.324  11.592
92203W        W60676  22.041  27.479   4.312
92204W        W60677   4.421  34.098  11.410
92205W        W60678  15.239   3.879  13.535
92206W        W60679  28.566  41.292   3.635
92207W        W60680  42.029  40.978   3.779
92208W        W60681  25.962  16.813  14.404
92209W        W60682  40.489  30.547  13.057
92210W        W60683   5.737  43.000   4.781
92211W        W60684  13.794  40.999  11.455
92212W        W60685  24.579  25.622  11.417
92213W        W60686  30.110  11.663   1.737
92214W        W60687  17.247  39.845   1.423
92215W        W60688   9.703   7.717   3.805
92216W        W60689  24.008  31.896  12.079
92217W        W60690   1.442  16.589   0.875
92218W        W60691  40.831  31.511  11.393
92219W        W60692   9.864  37.571   4.191
92220W        W60693  34.446  13.802   3.772
92221W        W60694  29.660   1.475   0.890
92222W        W60695  17.735  24.684   0.400
92223W        W60696  26.471  34.094   4.170
92224W        W60697   1.813   2.757  12.855
92225W        W60698  43.775  44.306   1.765
92226W        W60699  40.370  22.130   2.258
92227W        W60700  26.176  41.998  13.949
92228W        W60701  31.402   9.243  14.026
92229W        W60702  21.125  17.274  10.568
92230W        W60703  17.304  30.607   2.272
92231W        W60704  42.784  31.924  11.096
92232W        W60705  39.980  34.894   1.358
92233W        W60706  13.842  36.486  14.956
92234W        W60707  30.055  36.524  13.969
92235W        W60708  23.022  41.963   0.753
92236W        W60709  31.415  16.804  12.391
92237W        W60710  29.456  23.236   2.374
92238W        W60711  28.140   2.288   1.408
92239W        W60712  32.540  30.163  13.919
92240W        W60713  12.266  21.107   2.247
92241W        W60714  15.285  17.727  14.884
92242W        W60715   6.796  11.307   0.367
92243W        W60716   2.393  10.649   1.260
92244W        W60717   6.422   6.244  11.499
92245W        W60718  20.682  20.730   1.911
92246W        W60719  41.021   8.174  13.028
92247W        W60720  39.320   3.875   4.328
92248W        W60721  23.699  11.727  10.416
92249W        W60722  41.959  22.031   0.395
92250W        W60723   2.329  30.055   2.709
92251W        W60724  44.424  14.129   3.822
92252W        W60725  27.159  17.714  13.906
92253W        W60726  16.577  31.039   1.815
92254W        W60727  11.636  37.903  14.886
92255W        W60728  41.496  18.107   3.849
92256W        W60729  15.091  16.743  11.061
92257W        W60730  13.209  34.899   1.304
92258W        W60731  38.399  28.476   2.413
92259W        W60732  44.331  25.663   1.256
92260W        W60733  31.922  16.809  13.410
92261W        W60734   2.441  34.433  13.438
92262W        W60735   3.250  11.649   4.278
92263W        W60736   8.406  12.770  13.843
92264W        W60737   2.770  37.949   4.132
92265W        W60738   1.863   3.841   1.225
92266W        W60739   5.796  10.649   4.702
92267W        W60740  37.885  26.478  11.951
92268W        W60741   4.780  17.121   0.412
92269W        W60742  12.729  16.190   1.241
92270W        W60743  43.319   0.448  12.419
92271W        W60744  14.792  17.147   4.343
92272W        W60745   0.743   5.241   4.839
92273W        W60746   0.258  12.642  10.471
92274W        W60747  41.000  30.983   3.812
92275W        W60748  38.959   4.366   1.847
92276W        W60749  32.110   1.942   1.782
92277W        W60750   5.915  26.970   4.204
92278W        W60751  10.791   5.400  10.917
92279W        W60752  40.313  20.613   4.699
92280W        W60753  32.092   7.791  11.024
92281W        W60754  31.485  23.228   0.387
92282W        W60755  11.838  24.223   2.267
92283W        W60756  20.221   2.917  14.976
92284W        W60757  37.455  27.481  13.393
92285W        W60758  11.238  19.269   2.215
92286W        W60759  15.611  22.225  13.394
92287W        W60760  42.308  36.032   1.426
92288W        W60761   0.819   9.761   1.739
92289W        W60762  12.838  10.855  10.961
92290W        W60763  30.510  44.366   4.338
92291W        W60764   3.918   1.745   2.251
92292W        W60765  32.917  32.525  10.930
92293W        W60766   4.847   3.282   4.337
92294W        W60767  12.746  23.700   4.774
92295W        W60768  42.345  15.806  10.600
92296W        W60769  14.196  32.468   3.667
92297W        W60770  27.941   3.398   0.820
92298W        W60771  18.231  23.082   4.167
92299W        W60772  36.587  33.889   4.727
92300W        W60773  26.965  14.103   2.693
92301W        W60774   3.217  28.619   4.241
92302W        W60775   1.399  14.697   2.777
92303W        W60776  26.135  40.328   1.221
92304W        W60777  27.526  34.562  13.512
92305W        W60778  11.287  22.238   0.282
92306W        W60779  13.322  40.534  10.970
92307W        W60780  30.039  37.535   2.820
92308W        W60781  39.999  34.931  14.929
92309W        W60782  10.644  14.210   1.697
92310W        W60783  28.026  11.636   4.340
92311W        W60784   1.763  36.387   0.299
92312W        W60785  37.412  29.098  11.396
92313W        W60786  24.130  25.530  10.589
92314W        W60787   2.951  21.727   3.839
92315W        W60788  31.135  24.028  14.880
92316W        W60789   8.671  26.091   5.128
92317W        W60790  23.015   7.326  13.337
92318W        W60791  17.751   6.336  13.888
92319W        W60792  16.294  28.113  14.275
92320W        W60793   7.748  32.552   1.735
92321W        W60794  27.493   9.320   1.800
92322W        W60795  36.501  22.060  10.412
92323W        W60796  26.976  34.386  10.920
92324W        W60797  16.166  19.139  13.497
92325W        W60798   1.366  42.378   0.856
92326W        W60799  12.315  28.165  12.991
92327W        W60800  33.089  32.974  14.307
92328W        W60801   6.339  12.831  10.895
92329W        W60802  40.976  25.597  11.568
92330W        W60803  15.094  11.175   2.776
92331W        W60804  17.092  42.818   4.138
92332W        W60805  22.015  11.341   3.833
92333W        W60806  17.216  41.935   4.722
92334W        W60807   6.258  42.951  11.034
92335W        W60808  42.357  19.666   0.740
92336W        W60809  14.141  14.220   1.885
92337W        W60810  42.898  40.505   1.369
92338W        W60811  35.367  29.041   2.806
92339W        W60812   3.913  30.160   2.217
92340W        W60813   6.188  32.396   1.773
92341W        W60814   5.934   4.324   5.629
92342W        W60815  21.668  40.384   1.434
92343W        W60816  10.645   4.408   0.859
92344W        W60817  35.880  43.812   2.683
92345W        W60818  16.666   8.211   4.784
92346W        W60819  33.423  32.108   2.700
92347W        W60820  17.176   6.350  12.429
92348W        W60821  15.739  25.090  14.002
92349W        W60822  36.483  29.609   0.254
92350W        W60823  37.050  38.379  13.369
92351W        W60824  32.051  27.683   4.722
92352W        W60825   9.706  22.116  13.974
92353W        W60826  15.134  13.820  14.829
92354W        W60827  35.934  27.500  11.934
92355W        W60828  19.042  17.276   1.718
92356W        W60829  20.081  15.093  13.996
92357W        W60830  33.517   4.292  13.995
92358W        W60831  16.568   3.310  13.389
92359W        W60832  18.774  35.092   3.737
92360W        W60833  34.532  28.679   1.873
92361W        W60834   2.783  14.635   4.123
92362W        W60835  24.060  41.820   2.413
92363W        W60836  32.079  41.421   3.797
92364W        W60837  12.142  17.578  11.053
92365W        W60838   1.452   4.708  11.374
92366W        W60839  41.354  22.171  11.521
92367W        W60840  28.933  28.446   4.327
92368W        W60841  23.666  32.986   1.847
92369W        W60842  13.312  23.704  14.012
92370W        W60843   7.847  22.738   9.969
92371W        W60844  33.912  15.097   3.350
92372W        W60845  12.120  39.835  13.493
92373W        W60846   2.888   7.793  12.957
92374W        W60847  22.185  34.018   2.715
92375W        W60848  38.479  24.686  14.914
92376W        W60849  14.675  25.514  14.782
92377W        W60850   8.840  24.532   0.882
92378W        W60851  18.544  28.467   0.902
92379W        W60852  19.097  17.303  11.969
92380W        W60853  10.329  25.040  12.031
92381W        W60854  34.441  38.525  14.778
92382W        W60855  33.041  23.671  11.120
92383W        W60856   5.430  11.835  11.587
92384W        W60857  38.483  30.043  13.935
92385W        W60858  16.229   9.662   3.697
92386W        W60859   2.786  35.047   4.667
92387W        W60860  28.010  42.479   0.844
92388W        W60861  27.609  32.898  11.407
92389W        W60862  24.043  22.518   0.470
92390W        W60863  37.474  16.302   3.675
92391W        W60864  18.193  19.094   0.961
92392W        W60865  42.334  10.756   4.152
92393W        W60866   3.917  25.561  11.450
92394W        W60867   7.264   8.375   3.689
92395W        W60868   6.357  10.677   3.276
92396W        W60869  29.544   4.414  12.541
92397W        W60870  32.998  39.554  10.631
92398W        W60871  32.897   9.716  11.926
92399W        W60872   1.261  33.012  13.329
92400W        W60873  20.570  37.572  12.561
92401W        W60874  15.596  36.439   0.889
92402W        W60875   4.699  40.994  14.297
92403W        W60876   0.798  28.107  11.403
92404W        W60877  12.845  33.491   4.239
92405W        W60878  36.507   5.414   0.330
92406W        W60879  35.604  35.970  12.471
92407W        W60880  21.024   1.466  11.029
92408W        W60881  37.558   6.727   4.149
92409W        W60882  44.321  10.733  11.024
92410W        W60883  19.142   6.234   2.280
92411W        W60884  43.922  29.148  12.484
92412W        W60885  42.957   2.808  14.776
92413W        W60886  44.822  34.118  12.061
92414W        W60887  42.020  18.066   5.319
92415W        W60888  34.078  33.464   3.264
92416W        W60889  12.758  31.120   4.807
92417W        W60890  35.552  11.132   3.722
92418W        W60891   5.381   7.889  13.877
92419W        W60892  14.121  19.703  13.437
92420W        W60893  22.622  17.768   4.725
92421W        W60894  12.200  42.022   4.295
92422W        W60895   9.274  44.906   3.653
92423W        W60896  30.127  40.810   2.182
92424W        W60897   4.790  39.523   0.293
92425W        W60898   3.266   8.195  12.871
92426W        W60899  13.320  15.086   4.714
92427W        W60900   1.964  30.134  10.934
92428W        W60901  27.546  41.404  12.001
92429W        W60902  23.677  21.661   2.262
92430W        W60903  21.069  30.159  13.032
92431W        W60904  27.616  37.565  12.407
92432W        W60905  36.090  44.899  14.969
92433W        W60906  22.668  14.238   2.377
92434W        W60907   0.808  13.637   4.729
92435W        W60908   5.914   7.248  11.080
92436W        W60909  44.349   1.344   0.319
92437W        W60910  38.395  31.567   0.480
92438W        W60911  30.648  38.421  14.805
92439W        W60912  10.207   0.770  13.410
92440W        W60913  39.888   1.463  14.405
92441W        W60914  25.122   5.312  11.871
92442W        W60915  33.973  34.937  14.977
92443W        W60916  29.053  28.041   4.631
92444W        W60917  31.010  32.588  14.297
92445W        W60918  29.111  23.083  12.964
92446W        W60919   9.384  13.199  11.598
92447W        W60920  13.161  24.043  12.374
92448W        W60921   8.380  22.059   1.868
92449W        W60922  40.000  26.638   0.345
92450W        W60923  29.461  19.677   1.840
92451W        W60924  12.317  18.687  13.910
92452W        W60925   6.727  35.534   3.162
92453W        W60926  31.550  34.899  12.994
92454W        W60927  42.357   7.825  10.999
92455W        W60928  25.707  27.051   0.333
92456W        W60929  14.178  17.801   3.809
92457W        W60930  22.193   1.856   3.784
92458W        W60931   7.248  23.990  10.606
92459W        W60932  27.504   1.299   4.186
92460W        W60933  41.983  22.676   0.850
92461W        W60934  16.613  14.733  11.032
92462W        W60935  31.599  18.152   0.909
92463W        W60936  39.021   9.702   2.283
92464W        W60937  12.154  24.647   1.719
92465W        W60938  35.037   3.392   4.736
92466W        W60939  28.132  34.507  14.495
92467W        W60940  18.141  24.060   1.417
92468W        W60941   5.714   5.821  11.125
92469W        W60942   3.348   6.706   1.860
92470W        W60943  35.471  38.548   2.734
92471W        W60944  31.002  29.171   3.757
92472W        W60945  33.389  38.909  10.631
92473W        W60946  42.313  23.995   3.812
92474W        W60947   3.714  16.110   2.200
92475W        W60948  38.062   3.818   1.288
92476W        W60949  10.268  14.665   1.408
92477W        W60950  40.508  34.417  10.554
92478W        W60951  39.967  16.094   4.812
92479W        W60952  44.422  12.803   2.404
92480W        W60953  39.553  17.560  11.423
92481W        W60954  42.463  25.496  11.936
92482W        W60955  38.827  25.120   0.250
92483W        W60956  19.053  22.017   1.305
92484W        W60957  36.843  42.827   3.229
92485W        W60958   7.342  33.015  12.370
92486W        W60959  41.037  29.433   1.241
92487W        W60960  11.795   8.894  14.468
92488W        W60961  38.478  21.148   4.277
92489W        W60962   3.265  15.161   2.758
92490W        W60963  23.104  17.140   2.261
92491W        W60964   9.813  14.307   0.820
92492W        W60965  15.732  21.757   2.739
92493W        W60966   8.333  15.289   4.283
92494W        W60967  18.139  15.712   4.730
92495W        W60968  31.638  38.340   1.349
92496W        W60969   9.853  28.067  11.546
92497W        W60970  36.489  42.446   4.155
92498W        W60971  22.112  29.510   0.306
92499W        W60972  22.132  22.531   2.851
92500W        W60973  13.653  29.927  12.002
92501W        W60974  21.023  19.224  14.766
92502W        W60975   1.390   0.368  10.981
92503W        W60976  11.268   0.838   1.815
92504W        W60977   6.309  35.899   2.763
92505W        W60978  26.531  42.827  14.396
92506W        W60979  28.040  25.195   1.379
92507W        W60980  22.204   5.206  14.383
92508W        W60981  19.582  41.034   3.843
92509W        W60982  21.155  40.918   4.740
92510W        W60983   6.756  22.125  11.073
92511W        W60984  17.163  27.123  12.354
92512W        W60985   3.254  26.971  13.029
92513W        W60986   6.752  44.350  12.539
92514W        W60987  33.550  14.603  14.411
92515W        W60988  28.552  40.924  11.918
92516W        W60989  24.649   1.342   4.815
92517W        W60990   5.925   3.868  12.541
92518W        W60991  42.822  34.913  13.527
92519W        W60992   1.897  23.104   2.820
92520W        W60993  22.248  36.996   1.407
92521W        W60994  22.143   8.267   2.718
92522W        W60995  17.673  21.694  13.537
92523W        W60996  28.435  32.513  11.582
92524W        W60997  16.659  24.987  12.070
92525W        W60998  41.996  42.777   9.984
92526W        W60999  30.552  18.715  11.953
92527W        W61000  23.514  17.758   0.957
92528W        W61001  22.244  23.539   0.246
92529W        W61002   2.794  39.880   2.704
92530W        W61003  40.855   1.426  12.417
92531W        W61004  32.989   5.687  13.371
92532W        W61005  26.460  33.991   1.749
92533W        W61006  13.660   5.859   3.274
92534W        W61007  41.413   8.285   0.368
92535W        W61008   1.445  30.983  12.874
92536W        W61009  33.580  14.736   4.263
92537W        W61010  18.214  14.772  14.978
92538W        W61011  18.720  41.035  14.454
92539W        W61012  18.051   1.314   1.232
92540W        W61013  20.579   7.408   3.383
92541W        W61014  22.243  24.103  14.829
92542W        W61015  10.335  42.914  11.510
92543W        W61016  33.521   8.779  14.417
92544W        W61017  29.963  26.065   1.922
92545W        W61018  30.098  34.486   2.306
92546W        W61019  44.270  17.288  14.483
92547W        W61020  36.400  16.689  10.136
92548W        W61021  43.361  19.183  11.049
92549W        W61022  33.076  22.127  10.961
92550W        W61023  12.813  15.703   3.352
92551W        W61024  10.739   2.351  10.896
92552W        W61025  44.387  34.492   1.885
92553W        W61026  31.443   1.940  14.464
92554W        W61027  40.896  11.358   3.173
92555W        W61028  38.528  31.919  13.533
92556W        W61029   5.730   1.842  13.864
92557W        W61030  35.581  40.883  14.841
92558W        W61031  29.986  25.189   2.770
92559W        W61032   6.348  35.893  14.862
92560W        W61033   9.739  26.012  14.811
92561W        W61034  15.698   9.243  11.904
92562W        W61035  27.467  44.764  10.056
92563W        W61036  17.620  31.500   0.286
92564W        W61037  42.290   1.424  11.875
92565W        W61038  31.554  28.509   0.468
92566W        W61039  21.611  11.770   1.746
92567W        W61040  38.390  16.145  14.286
92568W        W61041  31.544   0.829  12.850
92569W        W61042   9.702  43.406  13.396
92570W        W61043   5.719  31.044   0.812
92571W        W61044  13.194  13.620  11.078
92572W        W61045  33.984  15.119   0.871
92573W        W61046  30.009  30.021   2.834
92574W        W61047   0.901   8.730   1.417
92575W        W61048  10.239   1.418  14.405
92576W        W61049  12.189   3.352  13.808
92577W        W61050  12.163  40.922   2.350
92578W        W61051   9.300  42.009   1.345
92579W        W61052  22.198  11.775  10.958
92580W        W61053  28.520  27.521   4.734
92581W        W61054  22.251  36.953   3.766
92582W        W61055  28.966  36.876  13.374
92583W        W61056  21.626  25.549   4.781
92584W        W61057   9.804  39.384   3.318
92585W        W61058  30.914  15.277   3.228
92586W        W61059  32.969  23.191   1.410
92587W        W61060   8.734  27.674  12.932
92588W        W61061  43.991  11.147   0.365
92589W        W61062  28.631  38.371   3.338
92590W        W61063  44.276  40.512   4.217
92591W        W61064  23.138  24.996   3.295
92592W        W61065  33.529  25.481  11.467
92593W        W61066   8.900   9.386   1.449
92594W        W61067  18.737  11.851  13.860
92595W        W61068   7.210  39.347  12.885
92596W        W61069  13.841   1.454  14.024
92597W        W61070  31.482  40.017   1.712
92598W        W61071  32.066  32.016  11.555
92599W        W61072  35.574  23.549  11.459
92600W        W61073  11.215  43.349   1.438
92601W        W61074  12.126  33.467   2.812
92602W        W61075  41.010   4.404  12.435
92603W        W61076   9.150  42.928  11.860
92604W        W61077  14.176  24.708  10.508
92605W        W61078  13.683  27.109   3.166
92606W        W61079  30.938   5.211   4.175
92607W        W61080  41.902  14.831   1.831
92608W        W61081  41.923  38.394   4.237
92609W        W61082  19.556  35.527  11.550
92610W        W61083  25.681  31.480   3.236
92611W        W61084  28.540  35.578  12.369
92612W        W61085  33.532  38.822  13.533
92613W        W61086  12.136  11.302   0.895
92614W        W61087   0.328   1.827  11.935
92615W        W61088  15.098  33.896   2.832
92616W        W61089  40.859  17.737   2.287
92617W        W61090  13.699  11.844  12.884
92618W        W61091  33.533  16.722   2.395
92619W        W61092  24.700   9.216  13.030
92620W        W61093  27.689  15.100  12.045
92621W        W61094  29.496  34.120  12.994
92622W        W61095  33.013   5.876   2.821
92623W        W61096  24.182   3.373  12.077
92624W        W61097  15.645  39.041   5.171
92625W        W61098  39.480  26.586   2.252
92626W        W61099  18.741  23.091  12.022
92627W        W61100  29.158  31.502  12.954
92628W        W61101  42.905  44.955  13.403
92629W        W61102  44.442  42.376  10.069
92630W        W61103  26.598  13.613  12.352
92631W        W61104  35.066  36.912  12.087
92632W        W61105  38.902  12.771   3.280
92633W        W61106  37.921  44.773   0.334
92634W        W61107  11.162   7.837   1.849
92635W        W61108  15.708  20.201  13.870
92636W        W61109  19.763  18.659   0.867
92637W        W61110   5.363  42.397   2.704
92638W        W61111  28.034  36.548   1.905
92639W        W61112  21.636   2.953   3.734
92640W        W61113  43.957  35.374   4.630
92641W        W61114  29.122  29.139   4.126
92642W        W61115  10.851   0.857   3.807
92643W        W61116  32.122  39.879  11.015
92644W        W61117  23.624  26.501   0.434
92645W        W61118  14.811  26.165   3.239
92646W        W61119  20.767  43.977  11.990
92647W        W61120  20.760  25.071   9.920
92648W        W61121  19.638  25.040   3.320
92649W        W61122  29.058  34.065  12.381
92650W        W61123  16.168  27.691   1.925
92651W        W61124  27.476  29.669   2.288
92652W        W61125  36.501  12.193  11.890
92653W        W61126  42.976  31.127   3.166
92654W        W61127  44.821  15.122   1.215
92655W        W61128  24.057  21.556  13.434
92656W        W61129   4.317  16.265  12.045
92657W        W61130  34.889  37.580  14.362
92658W        W61131  29.974  11.274   0.966
92659W        W61132  26.969  18.254  14.494
92660W        W61133  35.063  42.500   4.242
92661W        W61134   1.312  16.672   0.307
92662W        W61135  15.147  26.635  10.460
92663W        W61136  40.011  36.851   2.818
92664W        W61137  19.118  44.851  10.925
92665W        W61138  44.398  22.249  14.970
92666W        W61139  30.097  42.316   9.583
92667W        W61140  39.051  10.853  12.844
92668W        W61141  28.077  13.638   0.335
92669W        W61142  42.290  42.980   9.998
92670W        W61143  37.521   7.793   3.692
92671W        W61144  21.704   4.720  12.047
92672W        W61145  14.094  26.066   2.284
92673W        W61146  31.906  23.617  14.955
92674W        W61147  31.093   8.248   1.314
92675W        W61148  16.100  36.854  11.534
92676W        W61149  11.649   8.239   2.883
92677W        W61150   3.450  25.665  12.037
92678W        W61151  13.247  27.597   2.393
92679W        W61152  22.059  29.548   1.734
92680W        W61153  32.595  32.591  10.897
92681W        W61154  30.605  25.508  13.939
92682W        W61155   3.888   2.231  12.440
92683W        W61156  25.994   6.843   0.324
92684W        W61157  17.245  41.504  13.318
92685W        W61158  10.681  31.480  11.575
92686W        W61159  13.309  14.156   2.213
92687W        W61160  38.417  24.006  13.991
92688W        W61161   7.685   5.814  14.024
92689W        W61162  31.465  27.456   3.711
92690W        W61163  29.076  11.228   4.351
92691W        W61164  22.674  20.137  11.479
92692W        W61165  11.239  25.480  12.369
92693W        W61166  36.916  34.934   1.264
92694W        W61167  42.928  11.748   4.132
92695W        W61168  25.978  11.224  14.435
92696W        W61169  40.374  38.512   0.307
92697W        W61170  25.045  13.816  11.930
92698W        W61171  40.520  42.337  13.031
92699W        W61172  25.171  44.915  11.052
92700W        W61173   3.311   6.295  12.504
92701W        W61174  39.532  30.063   3.737
92702W        W61175  36.498   2.286   0.463
92703W        W61176  14.709  12.848   3.380
92704W        W61177  41.519   6.291  10.905
92705W        W61178  31.989  43.500  11.035
92706W        W61179   9.347  23.724   2.754
92707W        W61180  15.752  25.065   2.769
92708W        W61181  18.085  36.932   2.365
92709W        W61182  25.169  40.475   5.156
92710W        W61183   2.800  44.797   2.750
92711W        W61184  35.871  20.637  10.484
92712W        W61185  26.579   5.820   2.252
92713W        W61186  43.813  34.480   3.683
92714W        W61187  44.274  12.751  12.371
92715W        W61188  18.227   6.241   2.729
92716W        W61189  29.471  44.899  14.344
92717W        W61190   4.283  21.672  11.518
92718W        W61191  30.159  33.095  11.544
92719W        W61192  14.733  44.801  14.513
92720W        W61193   3.810  44.332  10.926
92721W        W61194   1.942  39.393  14.869
92722W        W61195  10.730   6.893   0.390
92723W        W61196  17.577  26.575  14.483
92724W        W61197  43.939  14.640  13.927
92725W        W61198   5.294   5.416  13.413
92726W        W61199   1.295  40.863  10.517
92727W        W61200  43.820   8.670   2.732
92728W        W61201  42.826  16.146   1.218
92729W        W61202  21.067  32.543   1.699
92730W        W61203   2.401  30.085  14.341
92731W        W61204  16.735  42.508  12.937
92732W        W61205  33.456  37.406  12.023
92733W        W61206  34.020  13.844  10.616
92734W        W61207  27.197   8.890  14.308
92735W        W61208  31.449  44.316  12.896
92736W        W61209  19.711  23.525  14.819
92737W        W61210  14.786  37.352  13.349
92738W        W61211  14.108  34.085   0.479
92739W        W61212  23.695  14.201  14.962
92740W        W61213  28.965  16.695   1.261
92741W        W61214  43.813  15.290  13.317
92742W        W61215  10.695  40.512   2.230
92743W        W61216  44.345   3.455  10.503
92744W        W61217  26.576  22.029   4.194
92745W        W61218  26.538  23.135  10.501
92746W        W61219   2.748   2.387  13.871
92747W        W61220  44.394  14.621   2.365
92748W        W61221  17.255  25.653   4.813
92749W        W61222  36.886  22.621   4.788
92750W        W61223  39.870  18.570  11.459
92751W        W61224   7.368   0.926   2.787
92752W        W61225  13.113  43.008  12.055
92753W        W61226  36.948  24.567  13.921
92754W        W61227  14.301  25.177   4.277
92755W        W61228  26.589  23.617   4.715
92756W        W61229  41.525   9.211  13.389
92757W        W61230  37.352  11.277  14.445
92758W        W61231   3.916  22.652   3.717
92759W        W61232  12.207  28.633  14.286
92760W        W61233   7.895  26.513  10.975
92761W        W61234  11.772  20.573  11.420
92762W        W61235  13.624   2.428  13.450
92763W        W61236  23.006  26.021  12.030
92764W        W61237  25.964  13.334  12.035
92765W        W61238  39.902  30.554   2.207
92766W        W61239  21.709  14.135  10.623
92767W        W61240  14.675  23.634   2.212
92768W        W61241  43.357   0.761   4.823
92769W        W61242  33.126  38.339   4.687
92770W        W61243   0.838  10.736   3.335
92771W        W61244  32.140  36.509  13.425
92772W        W61245  33.908  19.213  14.492
92773W        W61246  35.449   1.305  10.902
92774W        W61247  34.921   6.891  12.879
92775W        W61248  44.322  17.069  13.484
92776W        W61249   2.908  28.523  14.948
92777W        W61250  10.729  28.108   1.306
92778W        W61251  25.206  17.752   1.252
92779W        W61252  40.402  44.956   1.921
92780W        W61253  20.730   4.417   2.306
92781W        W61254  24.722  31.089  13.938
92782W        W61255  41.508  16.164   1.407
92783W        W61256  13.743  17.093   0.273
92784W        W61257  12.691  11.148   0.759
92785W        W61258  18.153  18.186   4.300
92786W        W61259  40.947  29.081  14.373
92787W        W61260  39.860   4.736   3.305
92788W        W61261  18.673  26.459   1.297
92789W        W61262   2.904  43.992   1.425
92790W        W61263  36.930  34.386  10.429
92791W        W61264   8.867  19.561   3.270
92792W        W61265  27.502  21.077  13.002
92793W        W61266  19.734   2.463   1.721
92794W        W61267  42.994   1.354  14.454
92795W        W61268  19.271  31.946  10.491
92796W        W61269  12.148  20.089   0.945
92797W        W61270  19.234  37.080   4.237
92798W        W61271  10.350   3.276   2.268
92799W        W61272   4.804  21.652  11.442
92800W        W61273  11.695   1.860  10.942
92801W        W61274  20.186  16.144   2.408
92802W        W61275  24.009   6.864   1.234
92803W        W61276  24.122  24.714  11.046
92804W        W61277  27.011  31.446  14.292
92805W        W61278   4.436  24.704  12.937
92806W        W61279  22.044   8.212  13.943
92807W        W61280   6.242  15.267  11.862
92808W        W61281  14.762   8.232   4.661
92809W        W61282  19.186   8.255  13.014
92810W        W61283  18.743   1.267  14.879
92811W        W61284  16.715   8.311  10.936
92812W        W61285  30.633  26.537  10.122
92813W        W61286   6.409  14.166   4.824
92814W        W61287  43.311  22.095  10.422
92815W        W61288   0.418   4.880  12.402
92816W        W61289  33.057  39.057  12.024
92817W        W61290  16.688  19.643   1.326
92818W        W61291  21.679  25.172  13.899
92819W        W61292  36.367  26.103  14.843
92820W        W61293  26.673  15.737   0.333
92821W        W61294  43.820  12.685  14.507
92822W        W61295  15.732  34.964  12.859
92823W        W61296  38.379  26.564   0.775
92824W        W61297  30.068  31.901  11.861
92825W        W61298   5.847  43.936  11.489
92826W        W61299   2.896  34.987   2.295
92827W        W61300  34.063  20.091   0.849
92828W        W61301  24.198  24.644   3.729
92829W        W61302  22.102   3.416  14.882
92830W        W61303  22.061  19.691   1.450
92831W        W61304  43.336  32.632  13.929
92832W        W61305  40.328  20.100  11.411
92833W        W61306  22.236  30.100  14.313
92834W        W61307   3.360   9.295   3.790
92835W        W61308   8.198   7.749  10.407
92836W        W61309   6.289  32.998  13.523
92837W        W61310  20.062  20.271  14.468
92838W        W61311  42.402  43.962   3.800
92839W        W61312  28.993  11.774  12.858
92840W        W61313  39.551  15.612  10.566
92841W        W61314  37.084  14.210   4.664
92842W        W61315   7.671  25.658   4.748
92843W        W61316   5.199  36.876  14.808
92844W        W61317  42.417   4.806  14.287
92845W        W61318  31.576  22.663  12.345
92846W        W61319  33.104   0.788  13.011
92847W        W61320  11.670  41.436   4.801
92848W        W61321  39.887  18.174  12.977
92849W        W61322  37.857  12.854   1.370
92850W        W61323  13.645   5.250   3.749
92851W        W61324  39.970  18.744  10.560
92852W        W61325  16.739   0.747   0.799
92853W        W61326  17.722  10.165  14.767
92854W        W61327  10.684  20.606  12.987
92855W        W61328  37.454  19.701   4.302
92856W        W61329  35.943  39.501  14.494
92857W        W61330  39.981  33.076   0.937
92858W        W61331  35.548  14.657   0.482
92859W        W61332   0.248  21.055   3.172
92860W        W61333   1.335  19.570   2.885
92861W        W61334  11.847  31.059  11.914
92862W        W61335  26.486  40.002  14.876
92863W        W61336  21.573  38.386   0.396
92864W        W61337  43.310  36.004  10.975
92865W        W61338  18.218   4.790  14.975
92866W        W61339  43.891  38.468  12.340
92867W        W61340  32.048  29.564   5.101
92868W        W61341  29.044  24.712  13.964
92869W        W61342   7.261  33.007  14.975
92870W        W61343  43.307   4.272  13.309
92871W        W61344  37.908  37.033   1.868
92872W        W61345  11.733  19.101   2.723
92873W        W61346  30.029  25.607  14.333
92874W        W61347  26.956  31.905  14.009
92875W        W61348  36.091  22.215  12.884
92876W        W61349  28.029  28.049   4.758
92877W        W61350  31.153   2.470  12.510
92878W        W61351  30.540  27.463  12.973
92879W        W61352  18.140  15.595   2.348
92880W        W61353  14.647   8.681   5.129
92881W        W61354  13.599  21.194  12.481
92882W        W61355  43.008   7.864   2.405
92883W        W61356   4.835  12.200  13.371
92884W        W61357  24.192  34.913  10.455
92885W        W61358  12.187  13.219  10.484
92886W        W61359  35.030  17.595   4.743
92887W        W61360  10.214  16.255  12.376
92888W        W61361  25.474  12.826  10.955
92889W        W61362  16.273  37.859   1.328
92890W        W61363  30.544  19.083  13.025
92891W        W61364   3.909  35.396  11.512
92892W        W61365  11.666  31.009   3.684
92893W        W61366  44.004  30.643  11.401
92894W        W61367  39.897  11.761   3.726
92895W        W61368  27.957   4.826  13.927
92896W        W61369  22.713  38.898   3.734
92897W        W61370  17.131  10.866  11.020
92898W        W61371   1.751  39.367   0.374
92899W        W61372  31.536   6.396   0.945
92900W        W61373   1.394  28.974   2.220
92901W        W61374  18.221  42.926   2.179
92902W        W61375  22.131  10.225  10.542
92903W        W61376  14.322  10.878  12.079
92904W        W61377   9.796  44.400  13.313
92905W        W61378  39.527  38.416   1.739
92906W        W61379  31.415   8.369  14.482
92907W        W61380  33.975  12.307  13.350
92908W        W61381   4.808  37.500  12.023
92909W        W61382  39.515  29.614  10.925
92910W        W61383  35.416  10.641   3.644
92911W        W61384  21.083  34.568   4.126
92912W        W61385   2.274  25.658  12.468
92913W        W61386  43.496  32.515   3.694
92914W        W61387  13.634  28.947   2.290
92915W        W61388   0.803  14.104  13.933
92916W        W61389   8.754  28.040   1.811
92917W        W61390  12.767  22.737   5.194
92918W        W61391  40.323  11.135  13.322
92919W        W61392  22.045  18.676  13.873
92920W        W61393   2.346  26.606  12.425
92921W        W61394  41.538   5.736   2.716
92922W        W61395  15.156  19.692   3.229
92923W        W61396   2.907  40.897  12.065
92924W        W61397   0.300  40.418  10.889
92925W        W61398  34.880  22.098   3.201
92926W        W61399  12.792  13.618   4.760
92927W        W61400  29.032   6.749   1.853
92928W        W61401  37.461  15.277  11.980
92929W        W61402  31.475   7.753  14.331
92930W        W61403  37.430  29.630  14.803
92931W        W61404  12.787  13.795   2.266
92932W        W61405  32.493  37.370  13.022
92933W        W61406   2.728  27.456   3.767
92934W        W61407  31.046  38.055   2.369
92935W        W61408  40.013   2.829  13.892
92936W        W61409  33.887  41.946  14.442
92937W        W61410  42.892  26.183   2.296
92938W        W61411  16.713  14.701   0.346
92939W        W61412  13.156  29.658  13.042
92940W        W61413   5.698  10.196   0.862
92941W        W61414  17.561  43.412  11.944
92942W        W61415  15.136  31.590   1.378
92943W        W61416  19.152   7.786  12.038
92944W        W61417  19.256  32.543  11.389
92945W        W61418  10.717  23.494   4.763
92946W        W61419  38.036  39.349   4.167
92947W        W61420  21.517  15.609  14.903
92948W        W61421  16.131  40.897  12.578
92949W        W61422  10.872   4.354  11.075
92950W        W61423  40.972  22.563  12.070
92951W        W61424   5.898  10.317   0.389
92952W        W61425   1.325  39.322  10.986
92953W        W61426  33.573  29.451  13.830
92954W        W61427  26.610  25.171  11.026
92955W        W61428  30.912  12.680  12.994
92956W        W61429  10.275  22.676  12.395
92957W        W61430  14.752  36.557   4.835
92958W        W61431  21.026  31.103  11.877
92959W        W61432  11.806  26.554  11.092
92960W        W61433  20.675  26.100  10.013
92961W        W61434   6.714   0.394  10.922
92962W        W61435   3.914  22.132   4.178
92963W        W61436  23.195  23.227  11.472
92964W        W61437  39.366   4.383  13.022
92965W        W61438  44.305  13.702  13.473
92966W        W61439   9.354  28.167   4.757
92967W        W61440  30.582  38.033  12.480
92968W        W61441  22.116  10.149   2.249
92969W        W61442  32.097   0.821   4.800
92970W        W61443  23.055  33.588  12.529
92971W        W61444   2.741   1.844  12.449
92972W        W61445  28.667  42.927   3.245
92973W        W61446  11.209  34.417   2.766
92974W        W61447  12.829  43.277  12.010
92975W        W61448  36.064  13.610   0.394
92976W        W61449  11.843  43.927  12.557
92977W        W61450   6.876   9.255  14.984
92978W        W61451  29.121   7.260   0.916
92979W        W61452  17.772  19.618   1.441
92980W        W61453  14.270  23.097   1.803
92981W        W61454  18.149  22.197   1.825
92982W        W61455  24.659  12.637   0.369
92983W        W61456  11.777   6.792   4.697
92984W        W61457  14.292   9.247   1.248
92985W        W61458  43.904  35.554  13.387
92986W        W61459  39.390  14.777  10.553
92987W        W61460  30.580   8.173   4.835
92988W        W61461  29.985  30.565   4.225
92989W        W61462  26.051  18.292   2.220
92990W        W61463  21.689  24.716  13.524
92991W        W61464  30.149  16.263  13.427
92992W        W61465  36.372  13.279   0.947
92993W        W61466  31.551  32.007  10.933
92994W        W61467  26.476  33.620   4.141
92995W        W61468  43.430   2.796   4.251
92996W        W61469  25.093   6.854   0.755
92997W        W61470   7.732  32.987   4.627
92998W        W61471  12.767  26.485   0.819
92999W        W61472  33.512   8.875   1.222
93000W        W61473  29.528  32.582  12.443
93001W        W61474  13.322  34.041  10.565
93002W        W61475  38.906  32.996  11.483
93003W        W61476  29.499  35.359   4.146
93004W        W61477  35.563  27.015  12.389
93005W        W61478  38.852  41.424  14.012
93006W        W61479  13.340   6.757   3.719
93007W        W61480   0.969  36.023   3.672
93008W        W61481   3.938   3.947   4.681
93009W        W61482  22.215  26.547   2.855
93010W        W61483  38.904   8.898  13.484
93011W        W61484   7.387  41.948   2.712
93012W        W61485  41.358  20.135  14.348
93013W        W61486   5.384  42.461  11.094
93014W        W61487  39.856  13.606  11.050
93015W        W61488  26.571  14.304  10.954
93016W        W61489  28.104  23.729   4.739
93017W        W61490  26.020  16.247   4.798
93018W        W61491  37.336  13.804   4.769
93019W        W61492  42.334  15.274  14.490
93020W        W61493  37.943  29.614  14.020
93021W        W61494  18.243  32.442  13.512
93022W        W61495  23.514  33.105   4.215
93023W        W61496  19.655   7.181  13.441
93024W        W61497   2.376  16.139  13.368
93025W        W61498  33.401  13.158   0.759
93026W        W61499  38.490  31.607   4.123
93027W        W61500  30.642   2.230  14.836
93028W        W61501   6.414  36.896  12.052
93029W        W61502  12.779  33.016   2.288
93030W        W61503  33.909  20.633  11.120
93031W        W61504  24.213  15.156   4.655
93032W        W61505  42.938  40.472   5.211
93033W        W61506  23.647  16.161  12.429
93034W        W61507  33.098   4.376   1.929
93035W        W61508  18.278  27.052  13.389
93036W        W61509  17.702  13.806   2.246
93037W        W61510  21.042  30.491   3.182
93038W        W61511  29.427  34.882  13.524
93039W        W61512  34.998   9.257  11.129
93040W        W61513   6.187  24.005   4.145
93041W        W61514  30.138  14.290  11.039
93042W        W61515  24.150  33.533  13.542
93043W        W61516  39.822  36.565  12.830
93044W        W61517  28.128   5.693   1.906
93045W        W61518   2.774  41.298   4.715
93046W        W61519  21.662  16.191   4.218
93047W        W61520   5.301  13.133   4.236
93048W        W61521   8.193  24.544   1.890
93049W        W61522  19.168  11.282  13.515
93050W        W61523  33.119   9.816   0.425
93051W        W61524  25.018  33.922  10.914
93052W        W61525   7.764  30.153  10.950
93053W        W61526  12.307  19.116   0.884
93054W        W61527  11.232  25.032  10.404
93055W        W61528  11.253   0.484   2.219
93056W        W61529  32.886  17.580  14.009
93057W        W61530   2.272  39.941  14.382
93058W        W61531  28.673  11.336  13.889
93059W        W61532  38.418  29.987  12.533
93060W        W61533  31.949  36.008  13.970
93061W        W61534  34.034  38.982  10.465
93062W        W61535  42.968  24.996   3.735
93063W        W61536   9.723  24.221   1.889
93064W        W61537  25.542  17.769  12.830
93065W        W61538   1.438  20.552  10.405
93066W        W61539  40.514  34.891   0.451
93067W        W61540   0.281  21.161  14.415
93068W        W61541   4.405   5.702  12.567
93069W        W61542  41.967  37.571  12.074
93070W        W61543  28.986   5.261   1.263
93071W        W61544  38.033  17.146   2.185
93072W        W61545  35.938   0.373   0.347
93073W        W61546  33.578  36.926   4.307
93074W        W61547   0.772  15.086  10.931
93075W        W61548  14.641  34.456  10.980
93076W        W61549  16.110  41.879  14.778
93077W        W61550  19.694  35.040  13.977
93078W        W61551  13.145  33.916  12.923
93079W        W61552  17.702  17.248  14.457
93080W        W61553  43.272  38.896  11.960
93081W        W61554   1.357  25.567  10.504
93082W        W61555  15.624  30.602  14.426
93083W        W61556  11.769   5.273   3.253
93084W        W61557  18.702   3.934  11.601
93085W        W61558  33.582  38.370   4.296
93086W        W61559  18.276  16.125  12.059
93087W        W61560   5.381  14.705   3.862
93088W        W61561  39.524  32.981   1.915
93089W        W61562  28.465   0.426  12.493
93090W        W61563  43.302  42.335  13.488
93091W        W61564  12.631  36.414  10.526
93092W        W61565   5.921  10.169  10.476
93093W        W61566  37.528   3.315  11.414
93094W        W61567  36.429   5.241  12.966
93095W        W61568   5.255  37.872   4.682
93096W        W61569   5.741  32.413   3.209
93097W        W61570  32.633  23.118   3.818
93098W        W61571  44.470  36.403   3.182
93099W        W61572  28.003  22.006   4.727
93100W        W61573  20.540   9.765   0.250
93101W        W61574  25.031  20.046   2.827
93102W        W61575  25.661   9.318  13.958
93103W        W61576   0.877  34.553  13.445
93104W        W61577  21.755  29.561  14.881
93105W        W61578  29.972   9.805  10.581
93106W        W61579  36.437  37.402   5.290
93107W        W61580  26.965  27.173   1.711
93108W        W61581  23.197   2.787   3.671
93109W        W61582  10.684  33.932   9.964
93110W        W61583  13.609  37.498   4.282
93111W        W61584  14.272  42.341  12.084
93112W        W61585  32.049  13.316  14.019
93113W        W61586   3.347  19.216  14.896
93114W        W61587  35.483   2.348  11.582
93115W        W61588  17.270  24.609   1.382
93116W        W61589  14.336  38.415   0.278
93117W        W61590  24.686  43.297   3.657
93118W        W61591  21.716   3.808   3.314
93119W        W61592  19.075  31.047  12.096
93120W        W61593  33.906  30.110   0.309
93121W        W61594  18.125   6.676   0.850
93122W        W61595  34.406   3.810   3.180
93123W        W61596  21.032   8.310   4.223
93124W        W61597  40.863  38.363  13.488
93125W        W61598   4.311  16.812   3.772
93126W        W61599  15.250  22.119   3.162
93127W        W61600  11.311  13.839   4.829
93128W        W61601  20.113  31.638  14.944
93129W        W61602  38.072  38.000   3.742
93130W        W61603  35.931   7.714  10.561
93131W        W61604  24.659  29.528  10.978
93132W        W61605  12.341  34.889   2.897
93133W        W61606   8.883  12.136  12.967
93134W        W61607  24.495  16.649  14.291
93135W        W61608  31.456  26.698  14.478
93136W        W61609   8.229  13.202   2.877
93137W        W61610  21.168  20.683   4.817
93138W        W61611   7.211  16.177  14.457
93139W        W61612  32.920  26.531  13.383
93140W        W61613   9.166  10.637  14.335
93141W        W61614   6.199  25.047  14.020
93142W        W61615  22.189  13.783   0.810
93143W        W61616  12.634  19.271   2.685
93144W        W61617  15.167  15.729   1.828
93145W        W61618  25.065  28.048  13.324
93146W        W61619   4.367  40.801  13.310
93147W        W61620   9.843  10.359   0.280
93148W        W61621  10.194   3.892  13.355
93149W        W61622   2.246  22.711  10.488
93150W        W61623  44.762  41.436   0.880
93151W        W61624  29.669  43.468   3.247
93152W        W61625  42.471  14.171  13.917
93153W        W61626  26.037  44.295  13.333
93154W        W61627   5.911  35.495  14.862
93155W        W61628  16.221   0.271  13.414
93156W        W61629  44.447  15.676   5.256
93157W        W61630  16.793  18.130  10.981
93158W        W61631  43.999  19.089  12.569
93159W        W61632  33.393  32.919   3.218
93160W        W61633  13.671  17.196  12.921
93161W        W61634  18.682  19.113   3.857
93162W        W61635  12.222  16.077  11.463
93163W        W61636  29.429  40.539   3.633
93164W        W61637  19.250  31.612  13.969
93165W        W61638  20.129  14.164  13.466
93166W        W61639  37.867   5.870  11.877
93167W        W61640  42.946  37.074   1.355
93168W        W61641  17.123  14.668  13.308
93169W        W61642  18.729  42.956   3.208
93170W        W61643  26.498  19.582  11.036
93171W        W61644   3.862  18.144  12.989
93172W        W61645  20.738  13.117  10.544
93173W        W61646  41.014   9.220  11.445
93174W        W61647  18.702  32.081   0.287
93175W        W61648  26.557   6.754  13.492
93176W        W61649   3.302  22.132   2.343
93177W        W61650  18.745  44.762   0.726
93178W        W61651  44.370  10.740  13.034
93179W        W61652  39.344  38.518  10.503
93180W        W61653   0.297  40.520  14.375
93181W        W61654  12.277  24.209  12.971
93182W        W61655  11.839  15.098  12.092
93183W        W61656   9.336  34.374   2.888
93184W        W61657  28.457  37.430   2.192
93185W        W61658  34.537  30.996  12.360
93186W        W61659  29.947  43.810   9.971
93187W        W61660  27.102  19.205   3.204
93188W        W61661  35.524  28.176   0.483
93189W        W61662  14.333  15.818  13.365
93190W        W61663  43.280  36.004   1.309
93191W        W61664  35.948   7.811   4.159
93192W        W61665  40.921  38.507  10.516
93193W        W61666  27.072   3.312  14.011
93194W        W61667  43.351  34.534   2.374
93195W        W61668  29.952  35.432  12.360
93196W        W61669  12.750  17.565  14.295
93197W        W61670  43.804  34.902   2.704
93198W        W61671  19.072   3.950  12.421
93199W        W61672  16.603  20.039  13.401
93200W        W61673  23.145  33.906   4.334
93201W        W61674  30.130  16.213   4.740
93202W        W61675  16.706  29.962  14.799
93203W        W61676   3.380   9.281   2.241
93204W        W61677  22.229   4.439  13.421
93205W        W61678   5.241   0.949  12.091
93206W        W61679  13.142  39.990   1.724
93207W        W61680  42.324  36.453   1.390
93208W        W61681   1.840  32.545   1.920
93209W        W61682  33.936  12.194   3.719
93210W        W61683  25.492  37.346  13.918
93211W        W61684  13.696   6.738   3.366
93212W        W61685  31.539  21.746  11.984
93213W        W61686  38.485  23.090   3.328
93214W        W61687  23.517  13.133   4.775
93215W        W61688  15.608  41.007  12.903
93216W        W61689  39.369  36.454  13.005
93217W        W61690   8.692  44.431  11.032
93218W        W61691  41.994  24.611  12.524
93219W        W61692   3.274  12.627  11.984
93220W        W61693  15.647   9.656  11.499
93221W        W61694  40.943  42.815  12.544
93222W        W61695  40.842  22.740   4.769
93223W        W61696  36.585  39.039   3.782
93224W        W61697   4.768  34.041  14.422
93225W        W61698  10.661   2.747  13.908
93226W        W61699  29.517  11.700   2.208
93227W        W61700  12.786  30.063  13.319
93228W        W61701  16.242  37.073   0.315
93229W        W61702  41.982  14.235  13.329
93230W        W61703  33.994  43.812   5.298
93231W        W61704  23.522  32.523   4.283
93232W        W61705  16.166   4.335   2.225
93233W        W61706  16.124  26.000   3.849
93234W        W61707  44.931  32.974  14.004
93235W        W61708   2.863  17.087   3.309
93236W        W61709  36.533  15.133  11.888
93237W        W61710  14.302  15.691   3.340
93238W        W61711  37.872  42.946   4.836
93239W        W61712  13.167  32.401  11.585
93240W        W61713   4.295  24.640  11.001
93241W        W61714  35.375   7.760  13.983
93242W        W61715  33.530   6.398  11.886
93243W        W61716  25.100   3.441  14.006
93244W        W61717  44.783   7.906   3.744
93245W        W61718  35.416  20.644  10.536
93246W        W61719  44.871   3.898  12.079
93247W        W61720   2.722  35.931   0.744
93248W        W61721   5.827  11.189   0.346
93249W        W61722  21.217  26.992  14.969
93250W        W61723  39.408  16.315  11.976
93251W        W61724  21.673   6.351  10.070
93252W        W61725  34.456  25.495  10.996
93253W        W61726  21.640  21.034  11.538
93254W        W61727  40.964  29.598  12.038
93255W        W61728  22.722   1.831   2.311
93256W        W61729  30.515  36.850   0.274
93257W        W61730  35.053  22.665  14.771
93258W        W61731  18.643  18.221   5.322
93259W        W61732  36.510  18.190   2.356
93260W        W61733  25.649  35.940   5.248
93261W        W61734  41.862  19.668  14.352
93262W        W61735   8.182  17.794  13.932
93263W        W61736  34.392   6.232  13.935
93264W        W61737   5.753  25.564   1.770
93265W        W61738  38.837  29.928   1.844
93266W        W61739   0.328  35.026  12.340
93267W        W61740  10.166   6.682  11.027
93268W        W61741  21.591  14.652   1.862
93269W        W61742  34.874  29.995  11.463
93270W        W61743  27.002  43.803  13.496
93271W        W61744  13.134  17.097  13.873
93272W        W61745  28.542  18.295   3.656
93273W        W61746  26.951  22.219   2.830
93274W        W61747  22.526   5.336   2.181
93275W        W61748  34.894  34.436   2.894
93276W        W61749  44.424   6.744   4.179
93277W        W61750  34.377  29.616   4.725
93278W        W61751   7.357  29.953   2.865
93279W        W61752  22.566   5.728   4.784
93280W        W61753   9.256   7.195   1.934
93281W        W61754  22.034  20.736   1.269
93282W        W61755  42.507  33.454   2.225
93283W        W61756   2.369  27.119   0.801
93284W        W61757  30.962  30.126  13.542
93285W        W61758  41.026   4.711   0.778
93286W        W61759  22.104  27.558   9.585
93287W        W61760   7.774   6.779   5.611
93288W        W61761   0.938  41.829   1.785
93289W        W61762  30.546  24.978   0.819
93290W        W61763  23.154  30.012  11.086
93291W        W61764  29.035   0.942  13.315
93292W        W61765  19.233  16.595   0.740
93293W        W61766  16.663  23.073   4.354
93294W        W61767  16.653  24.604   0.446
93295W        W61768   2.954  40.354   3.737
93296W        W61769  44.263   6.690  12.512
93297W        W61770  30.041  18.704   0.323
93298W        W61771  33.436  35.402  11.520
93299W        W61772  17.575  37.961  11.590
93300W        W61773  22.248   5.785   1.450
93301W        W61774  21.100  13.286   2.792
93302W        W61775  17.775  11.192  13.812
93303W        W61776  13.832   0.386   3.746
93304W        W61777  19.147  41.311   0.731
93305W        W61778  15.820  17.728  11.509
93306W        W61779  41.491  27.565   3.231
93307W        W61780  38.967  42.945   2.889
93308W        W61781  26.095  33.974  10.422
93309W        W61782   2.358  33.964   2.900
93310W        W61783   1.250  12.638   3.207
93311W        W61784   9.230  19.116   4.246
93312W        W61785  11.833   6.388  12.464
93313W        W61786  43.789  18.251   0.320
93314W        W61787   4.760  38.966  14.763
93315W        W61788  38.539   9.782  12.425
93316W        W61789  12.282  20.759   3.635
93317W        W61790  41.843  39.958  13.971
93318W        W61791  25.639  35.515   4.660
93319W        W61792   5.343  37.948  14.987
93320W        W61793  44.341   0.891   2.752
93321W        W61794  24.648  22.544  13.401
93322W        W61795  14.715  29.132   4.180
93323W        W61796  10.139   3.449  11.990
93324W        W61797  30.563  35.885  14.828
93325W        W61798  17.717  42.303  14.832
93326W        W61799   1.465  33.483   4.289
93327W        W61800  28.050  15.168   4.638
93328W        W61801   9.783  38.331   2.299
93329W        W61802   6.202  17.096  12.904
93330W        W61803   0.373  12.274   3.204
93331W        W61804  39.498  33.908   1.841
93332W        W61805  19.127  17.258   0.305
93333W        W61806  32.542  42.444  12.480
93334W        W61807  10.749  11.731  11.059
93335W        W61808  12.783  38.845  12.087
93336W        W61809  39.860  10.326   2.352
93337W        W61810  44.391  28.984  13.435
93338W        W61811  24.554  27.691   2.270
93339W        W61812  24.515  17.169  12.550
93340W        W61813   4.815  31.111   3.317
93341W        W61814   6.320  23.131   3.860
93342W        W61815   9.161  38.896  12.829
93343W        W61816  38.024  40.830  10.994
93344W        W61817  40.040  29.605  14.403
93345W        W61818   7.675  40.810  12.460
93346W        W61819  19.039  14.193  11.989
93347W        W61820  37.010  32.887   3.242
93348W        W61821  41.504  13.743  12.899
93349W        W61822  32.914  12.669  10.910
93350W        W61823  43.810   1.356  12.478
93351W        W61824  34.460   7.803  10.565
93352W        W61825  26.057  39.463   3.785
93353W        W61826   7.860  15.789  11.123
93354W        W61827  15.615  39.059   4.314
93355W        W61828  17.233   6.242   4.172
93356W        W61829  36.965  11.132  10.577
93357W        W61830   4.909  17.792   3.754
93358W        W61831  29.995  43.432  13.386
93359W        W61832  39.386   9.188   3.288
93360W        W61833  22.207  23.577  13.900
93361W        W61834  13.193  31.073   0.737
93362W        W61835  32.142  11.637  11.445
93363W        W61836  35.032  17.641  11.512
93364W        W61837  21.734   0.341   4.789
93365W        W61838  21.677  35.989  14.328
93366W        W61839   2.921  10.358  14.423
93367W        W61840  34.369   1.810   3.754
93368W        W61841  31.979  20.138   4.823
93369W        W61842  43.915  28.485  10.988
93370W        W61843   4.301   5.282   4.308
93371W        W61844   3.228  37.849   2.222
93372W        W61845  34.462  28.524   0.932
93373W        W61846  16.685  17.153  14.322
93374W        W61847  41.956  27.018   0.910
93375W        W61848   6.906  29.579  13.525
93376W        W61849   2.432  41.004   1.808
93377W        W61850   9.882  28.446   4.189
93378W        W61851  41.951  25.202   5.191
93379W        W61852  37.405  14.594  12.913
93380W        W61853  24.178  25.627  12.431
93381W        W61854  36.041  38.875  10.889
93382W        W61855  26.988  26.181   0.778
93383W        W61856  13.118  44.821   4.354
93384W        W61857  35.369  25.044   3.725
93385W        W61858  10.765  41.511   0.449
93386W        W61859  27.570  36.539  12.403
93387W        W61860  37.998  34.478   2.281
93388W        W61861   9.827  23.001   0.244
93389W        W61862  11.676  26.615   2.895
93390W        W61863  35.913  19.090  14.948
93391W        W61864  28.466  14.258  14.981
93392W        W61865   4.340   7.415  13.940
93393W        W61866  30.025  15.165   0.342
93394W        W61867  21.575  40.519  12.526
93395W        W61868  17.666   9.734  14.798
93396W        W61869  18.109   8.724  10.985
93397W        W61870  19.669  33.569   4.747
93398W        W61871  14.688  26.053  11.059
93399W        W61872   1.953  16.617  12.894
93400W        W61873  35.368  34.950   2.676
93401W        W61874  34.398  24.095   0.809
93402W        W61875  36.045  25.192  12.828
93403W        W61876  12.789   7.865  11.006
93404W        W61877  23.146   3.780  13.038
93405W        W61878  20.728  40.329  11.888
93406W        W61879   6.407  20.130   3.810
93407W        W61880  30.501  42.848  11.051
93408W        W61881  20.247  40.990  10.582
93409W        W61882  19.187  35.062   3.354
93410W        W61883  37.491   3.230  10.456
93411W        W61884  41.911  14.653  12.548
93412W        W61885  37.446   7.801   4.119
93413W        W61886   3.303  42.510  13.811
93414W        W61887  17.240  28.101   1.694
93415W        W61888  27.174  25.182   1.817
93416W        W61889  32.398   5.239  14.440
93417W        W61890  42.881  35.914   4.625
93418W        W61891   2.849   8.726   1.834
93419W        W61892  23.232  15.088   1.269
93420W        W61893  21.152  40.834  14.468
93421W        W61894  37.475  18.123  12.547
93422W        W61895  38.902  27.980   4.329
93423W        W61896  41.445  14.811   0.884
93424W        W61897  42.479  36.863   2.412
93425W        W61898   3.461  23.653  11.117
93426W        W61899   5.217  22.530  12.970
93427W        W61900  28.626  32.015   3.198
93428W        W61901  28.951   6.224  13.364
93429W        W61902   7.845  28.184   3.818
93430W        W61903   0.907  23.137   3.807
93431W        W61904  34.933  26.093  11.415
93432W        W61905  13.304  17.092   5.182
93433W        W61906  24.602   6.682  13.446
93434W        W61907  35.600  12.723   1.748
93435W        W61908   3.259   8.772   3.780
93436W        W61909  25.047  27.102   0.473
93437W        W61910   7.187  40.868   2.310
93438W        W61911  20.629  25.694   4.600
93439W        W61912  28.474  10.219   5.316
93440W        W61913   6.360   1.929   0.472
93441W        W61914  43.355  25.962   1.778
93442W        W61915   9.190  36.398   9.665
93443W        W61916   1.313  32.451   1.259
93444W        W61917  38.527  44.776   3.264
93445W        W61918   7.705   5.394   0.842
93446W        W61919  15.810  14.282   2.859
93447W        W61920  35.019  20.592   3.359
93448W        W61921  43.405  34.000   4.707
93449W        W61922  28.570  26.667   3.771
93450W        W61923  29.005  15.277   3.675
93451W        W61924   5.880  25.205   4.139
93452W        W61925  34.058  44.383  14.906
93453W        W61926  15.738  36.439   3.699
93454W        W61927  18.565  40.453   3.644
93455W        W61928  39.911  29.478   2.178
93456W        W61929  44.475  40.430  14.365
93457W        W61930   7.181  24.137   1.874
93458W        W61931  42.416  35.876  10.451
93459W        W61932  30.480  11.860  11.073
93460W        W61933  43.884  19.621  14.301
93461W        W61934  38.903  40.385  13.832
93462W        W61935   6.325  40.849   9.999
93463W        W61936  41.517  32.460   2.269
93464W        W61937  23.218  10.217  13.538
93465W        W61938  37.891  34.414  13.352
93466W        W61939  44.817  38.862  11.611
93467W        W61940   7.329  33.960   0.920
93468W        W61941   3.361  18.124  10.036
93469W        W61942  22.998  11.636   3.840
93470W        W61943   0.826  40.868  11.040
93471W        W61944  12.823   4.905   2.827
93472W        W61945  36.430  37.485  13.428
93473W        W61946   9.700  28.102   1.916
93474W        W61947  33.123  20.549   1.409
93475W        W61948  44.933  22.027   0.279
93476W        W61949  21.122  20.031  10.585
93477W        W61950   7.842  32.570   3.270
93478W        W61951  17.601   0.904  13.355
93479W        W61952  25.583   5.358  12.028
93480W        W61953   6.334  11.784  13.461
93481W        W61954  29.499   2.344  11.546
93482W        W61955  38.362  30.100   0.849
93483W        W61956  11.361  14.656  10.896
93484W        W61957  32.920  29.668   3.705
93485W        W61958  24.162  13.342   2.184
93486W        W61959  20.748  29.471  10.639
93487W        W61960   7.839  37.516   4.652
93488W        W61961  22.550   0.830   0.273
93489W        W61962   6.889   9.198  12.384
93490W        W61963  30.088   8.251  10.414
93491W        W61964  44.410  24.116  10.965
93492W        W61965  10.285  22.550  11.603
93493W        W61966  31.508  33.946   0.965
93494W        W61967   5.810   2.780  12.828
93495W        W61968  13.166   7.819   0.928
93496W        W61969  17.202   0.325  12.854
93497W        W61970  32.577  40.980  11.983
93498W        W61971   8.282  44.326  11.894
93499W        W61972  23.128  19.677   3.759
93500W        W61973  17.183  39.345   9.976
93501W        W61974  19.560  35.011  11.536
93502W        W61975   6.684  32.967   4.176
93503W        W61976  42.912   2.838  12.869
93504W        W61977  23.129  30.429  13.343
93505W        W61978  12.690   3.326  13.470
93506W        W61979  40.433  31.106   2.233
93507W        W61980  30.595  23.566   9.517
93508W        W61981  29.505  27.102  10.570
93509W        W61982   4.259  23.564   4.227
93510W        W61983  14.321  44.475   0.330
93511W        W61984  21.207  25.011   2.215
93512W        W61985  15.732  10.253   4.335
93513W        W61986  16.641  15.094   3.235
93514W        W61987  32.948   6.872  11.965
93515W        W61988  14.109  40.375  10.435
93516W        W61989   1.373  35.440   2.706
93517W        W61990   2.891  34.544  14.469
93518W        W61991  29.474   8.823   2.288
93519W        W61992  31.502  33.619   4.791
93520W        W61993  24.135  34.985  12.575
93521W        W61994   6.716   8.883   3.337
93522W        W61995  40.482  37.953  13.482
93523W        W61996   6.261  31.635  14.451
93524W        W61997  28.022  16.230  10.901
93525W        W61998  29.586  42.017  13.818
93526W        W61999  30.020  23.127   3.258
93527W        W62000  23.212  38.017   4.815
93528W        W62001   2.906   8.295  12.341
93529W        W62002  15.696  18.098   2.725
93530W        W62003  39.363  28.489  13.374
93531W        W62004   7.780  30.422   0.482
93532W        W62005  24.488  30.079  12.038
93533W        W62006  19.167   8.880  14.329
93534W        W62007  36.024  24.717   1.407
93535W        W62008  44.350  14.791  14.511
93536W        W62009  19.048  39.918   3.378
93537W        W62010  44.301   0.989  12.849
93538W        W62011  25.975   8.885  14.816
93539W        W62012  36.443  30.610   1.849
93540W        W62013  18.644  42.474  14.971
93541W        W62014  30.435  18.759  12.873
93542W        W62015  25.023   6.754   2.666
93543W        W62016   4.339   2.381   0.934
93544W        W62017  44.339  17.610  13.462
93545W        W62018   9.186   5.851   3.168
93546W        W62019   9.270  36.980  10.982
93547W        W62020  33.020  38.995   3.334
93548W        W62021   2.318  32.129   3.696
93549W        W62022  32.039   6.357   4.265
93550W        W62023  40.430  12.286   1.922
93551W        W62024  18.735  35.549  12.990
93552W        W62025  20.124  28.945  11.039
93553W        W62026   8.300  29.135   3.232
93554W        W62027  24.055  37.578   0.401
93555W        W62028  43.297  28.139   1.878
93556W        W62029  19.066  35.957   2.233
93557W        W62030   6.880   6.286   3.242
93558W        W62031  11.683  14.763   4.753
93559W        W62032  36.952  16.764  10.501
93560W        W62033  40.846  29.105   2.729
93561W        W62034  35.570   0.282   1.762
93562W        W62035   6.414   9.732  10.506
93563W        W62036  14.243   2.935  14.378
93564W        W62037  11.638  18.250   4.279
93565W        W62038  43.346  44.343   2.363
93566W        W62039  33.570   4.798  13.312
93567W        W62040   6.884  13.834  12.912
93568W        W62041  18.120  14.820  11.955
93569W        W62042  14.640  37.445   1.743
93570W        W62043  32.997  41.510   1.322
93571W        W62044  26.123  41.027  10.529
93572W        W62045  11.235  23.534   4.785
93573W        W62046   3.232  23.055   3.351
93574W        W62047  41.039  27.597  14.971
93575W        W62048  42.904  20.748  11.440
93576W        W62049  15.719  44.325   4.144
93577W        W62050  18.764  11.694  11.426
93578W        W62051   1.896  33.072   1.867
93579W        W62052  13.607   8.892  12.432
93580W        W62053  37.337   7.275  12.071
93581W        W62054  33.573  19.538  14.330
93582W        W62055  12.784  29.069  14.026
93583W        W62056  38.828  19.672   1.807
93584W        W62057  36.469  30.049   0.909
93585W        W62058  39.834   0.962  11.435
93586W        W62059  36.440  44.908   3.630
93587W        W62060  27.112  38.554  11.910
93588W        W62061  18.259  29.144  11.006
93589W        W62062  26.657   9.654  14.340
93590W        W62063  28.109  20.674  12.930
93591W        W62064  36.414   3.371  12.846
93592W        W62065   5.425   2.426   2.676
93593W        W62066  32.585   6.740  13.880
93594W        W62067   5.394  28.625   0.251
93595W        W62068   3.750  19.191  13.941
93596W        W62069  23.987   9.368   0.400
93597W        W62070  43.444  42.999  12.344
93598W        W62071  39.053  32.498   1.245
93599W        W62072  22.137  39.398   3.310
93600W        W62073  19.073  44.902   0.376
93601W        W62074  24.652  27.024   4.731
93602W        W62075  34.437  36.468   0.391
93603W        W62076  21.146  35.533   0.320
93604W        W62077  18.109   9.716  11.550
93605W        W62078  20.157  34.415  12.977
93606W        W62079   6.281  30.437   2.366
93607W        W62080   4.805  28.006  11.105
93608W        W62081  18.668  23.597  12.528
93609W        W62082  29.947  40.323  11.510
93610W        W62083   2.914  36.017  12.942
93611W        W62084  34.474  19.676   4.832
93612W        W62085  39.992  16.081  13.891
93613W        W62086  34.932  29.577  11.989
93614W        W62087  28.934  16.195  14.290
93615W        W62088  23.083   0.796   2.678
93616W        W62089  19.611  36.096  10.517
93617W        W62090   1.349  29.642   4.335
93618W        W62091  42.299   3.225   3.307
93619W        W62092  37.434  34.606   0.454
93620W        W62093   9.847  20.764  13.334
93621W        W62094  41.900   1.860  10.615
93622W        W62095  44.855  44.348   1.366
93623W        W62096  14.311   3.830  12.035
93624W        W62097  42.374  17.763   1.754
93625W        W62098  11.829  37.843   1.307
93626W        W62099  27.090  30.102  13.939
93627W        W62100   2.299  17.135   3.860
93628W        W62101  13.782  35.876  11.399
93629W        W62102  28.100   8.875  13.901
93630W        W62103   7.787  35.854  10.633
93631W        W62104  29.042  18.612   4.168
93632W        W62105  44.921   7.845   4.228
93633W        W62106  23.221   0.858  10.926
93634W        W62107  40.447  23.591   3.197
93635W        W62108  26.016  18.630   4.743
93636W        W62109  10.144  21.197  13.980
93637W        W62110  41.389  34.558  10.578
93638W        W62111  39.474  35.877  10.480
93639W        W62112  11.802  32.074   9.957
93640W        W62113  18.221  35.454  14.300
93641W        W62114   9.199  19.083  11.040
93642W        W62115  14.256  41.947   1.824
93643W        W62116   6.911  15.644   5.105
93644W        W62117   8.762  36.004   1.814
93645W        W62118   3.396  12.185  14.032
93646W        W62119  43.015   2.812   3.224
93647W        W62120  14.651  18.108  13.368
93648W        W62121   3.310  11.264  14.010
93649W        W62122   1.821  28.952   4.665
93650W        W62123  37.879  31.055   0.298
93651W        W62124  24.113  23.994   4.224
93652W        W62125  37.048  31.949   2.671
93653W        W62126   6.268   3.418   0.441
93654W        W62127  42.992   1.274   4.128
93655W        W62128  41.020  34.922  11.042
93656W        W62129   5.932   6.230  12.398
93657W        W62130  30.541  16.628   4.138
93658W        W62131   3.302  22.566   1.779
93659W        W62132  11.360  25.647  13.310
93660W        W62133   8.876  44.004   4.115
93661W        W62134  33.519  38.025   0.355
93662W        W62135  29.662  43.773  10.927
93663W        W62136   1.399  22.627   0.736
93664W        W62137   9.224  22.593  12.878
93665W        W62138  37.026   4.409  11.081
93666W        W62139  34.406  17.702  13.057
93667W        W62140  30.545   5.829  12.492
93668W        W62141  30.640   3.259   4.623
93669W        W62142   5.439  25.188  14.337
93670W        W62143  17.097   3.862   1.773
93671W        W62144  17.716  44.353  10.575
93672W        W62145  31.989   4.330  13.848
93673W        W62146  24.074  42.516   3.175
93674W        W62147  42.840  33.996   1.836
93675W        W62148   7.230  17.236  12.469
93676W        W62149  29.486  21.541  10.428
93677W        W62150  24.220  10.711  14.006
93678W        W62151   6.361  38.427  11.012
93679W        W62152   6.297  33.926  13.466
93680W        W62153   8.834   4.760   4.248
93681W        W62154  27.165  32.079   3.262
93682W        W62155   4.257  15.325   4.761
93683W        W62156  23.102   7.244   0.425
93684W        W62157  35.071  42.427  14.927
93685W        W62158  16.204  34.029  13.839
93686W        W62159   3.413  19.137  10.557
93687W        W62160  23.097  22.569  11.488
93688W        W62161  10.757  33.536   2.267
93689W        W62162  26.116  11.624  11.934
93690W        W62163  35.076  14.598   2.833
93691W        W62164  18.639  34.519  12.394
93692W        W62165  36.497   6.199   4.176
93693W        W62166   7.253  13.344   4.173
93694W        W62167  27.166   8.238  13.818
93695W        W62168   5.250  24.154   0.391
93696W        W62169  18.057  15.238   1.250
93697W        W62170   8.406  35.536   5.200
93698W        W62171   1.863   3.460   5.166
93699W        W62172  17.277   6.789   2.750
93700W        W62173  44.278  35.005  10.642
93701W        W62174  37.057  15.301  10.478
93702W        W62175  26.124  17.188  14.900
93703W        W62176  15.770   2.352  13.010
93704W        W62177  29.451  37.941   1.900
93705W        W62178  26.461   8.286   3.745
93706W        W62179   3.274  38.351  13.941
93707W        W62180   0.901  42.398  13.502
93708W        W62181   8.235   5.858   9.661
93709W        W62182  43.289  38.397  14.868
93710W        W62183  23.575  44.505   1.710
93711W        W62184  18.756  10.180  11.465
93712W        W62185  27.593  32.954   3.371
93713W        W62186  38.496  31.569  13.400
93714W        W62187  32.491  36.047   2.349
93715W        W62188  25.199   1.480   4.333
93716W        W62189  18.785  39.507   0.250
93717W        W62190  30.520   3.866  14.921
93718W        W62191  43.890  30.470   1.433
93719W        W62192  23.496   7.367  13.945
93720W        W62193   5.410   0.400  14.483
93721W        W62194  32.997  32.518  13.886
93722W        W62195   1.278  15.727   2.205
93723W        W62196  21.142  11.136  14.000
93724W        W62197  44.869  24.044  13.335
93725W        W62198  13.144   3.264   0.311
93726W        W62199  32.606  44.828   4.679
93727W        W62200  27.524   9.347   4.245
93728W        W62201   0.843  33.046   1.226
93729W        W62202   0.832  25.054   2.788
93730W        W62203  42.830  20.148   4.602
93731W        W62204   4.884  34.557   9.987
93732W        W62205  44.414  26.592   0.294
93733W        W62206  11.265  33.472  11.882
93734W        W62207  36.994  37.995  14.976
93735W        W62208  19.685  28.530   3.194
93736W        W62209  28.498  41.387  10.530
93737W        W62210  17.131  13.329   1.889
93738W        W62211  42.943  22.230   3.238
93739W        W62212  37.442  34.478  11.865
93740W        W62213  21.247  22.205   1.246
93741W        W62214   5.750  41.488  11.867
93742W        W62215  34.004   8.214  12.396
93743W        W62216   7.334   2.278  13.058
93744W        W62217  24.509  16.757   3.868
93745W        W62218  38.979  31.425  10.404
93746W        W62219  16.642  12.663  14.868
93747W        W62220  11.821  16.604  12.436
93748W        W62221   8.818   5.829   4.199
93749W        W62222  12.734  26.189   4.118
93750W        W62223  17.281   5.746   1.910
93751W        W62224  27.160  31.631   4.766
93752W        W62225  38.047  15.181   4.116
93753W        W62226  18.634  25.704   2.800
93754W        W62227  20.762   1.737   4.812
93755W        W62228  27.596  38.360  11.002
93756W        W62229   6.318  43.812   2.842
93757W        W62230  44.459  32.090   3.721
93758W        W62231   2.226   6.293  13.537
93759W        W62232  21.561  28.049   0.365
93760W        W62233  12.741  36.942   1.256
93761W        W62234  40.863  20.105  13.026
93762W        W62235  20.163  34.567  10.081
93763W        W62236  37.883  41.952  12.545
93764W        W62237  34.586  12.172   2.289
93765W        W62238  12.855  37.914   4.797
93766W        W62239  10.655  18.773   0.378
93767W        W62240  40.454   0.457  12.382
93768W        W62241   0.819  26.542   3.279
93769W        W62242  26.001  43.479  12.890
93770W        W62243  38.906  13.264   2.877
93771W        W62244  27.445   1.308   3.738
93772W        W62245  13.837   0.306   4.791
93773W        W62246  37.843  21.571  10.561
93774W        W62247   0.431  19.541   4.794
93775W        W62248  20.658  35.034   1.854
93776W        W62249  33.987  38.374   4.308
93777W        W62250   4.236   3.870   0.760
93778W        W62251  23.723  32.994  10.998
93779W        W62252  26.678   7.858   1.381
93780W        W62253  13.307  43.812  10.972
93781W        W62254   1.838  18.727   0.739
93782W        W62255  35.574  24.082  12.509
93783W        W62256   3.304  30.455   2.390
93784W        W62257  20.744  13.738  12.491
93785W        W62258  10.751  18.223   0.967
93786W        W62259  28.176  10.747   2.662
93787W        W62260  21.111  18.647   1.356
93788W        W62261   9.680  11.633  11.447
93789W        W62262  27.665  20.245  10.582
93790W        W62263  16.704  11.768  14.018
93791W        W62264  21.247  33.506   4.146
93792W        W62265  36.440   6.374   1.228
93793W        W62266   7.415   9.286   4.228
93794W        W62267  15.615  29.585   5.191
93795W        W62268  37.482  38.364  11.859
93796W        W62269   1.374  38.977  10.562
93797W        W62270  18.068  19.733  13.879
93798W        W62271  10.767  32.962   1.221
93799W        W62272  29.002  40.303   4.164
93800W        W62273  21.097   2.902   2.267
93801W        W62274  31.518  15.089  14.410
93802W        W62275  23.649  35.073   4.161
93803W        W62276  12.642   0.927   4.146
93804W        W62277  33.876   1.763  10.443
93805W        W62278  17.749  32.475   4.234
93806W        W62279  40.343  22.523  12.434
93807W        W62280  14.603  17.797   0.902
93808W        W62281  25.672  25.617  10.560
93809W        W62282  44.804  30.091  12.089
93810W        W62283  24.513   2.771  12.891
93811W        W62284   7.713   2.864   2.785
93812W        W62285   9.216  25.068   0.330
93813W        W62286   9.865   9.832   2.708
93814W        W62287  21.042  32.423   0.269
93815W        W62288  39.024  25.969  12.372
93816W        W62289   7.411  42.287   0.818
93817W        W62290  42.027  24.173  14.321
93818W        W62291   7.856  44.269  10.026
93819W        W62292  36.426  27.984  12.936
93820W        W62293   6.366  30.077  10.468
93821W        W62294  12.808  19.638  10.557
93822W        W62295  24.535  29.535  10.569
93823W        W62296  30.545   6.734   4.740
93824W        W62297   8.863   4.939  11.499
93825W        W62298  35.397  28.451  14.842
93826W        W62299  20.125  16.123   3.249
93827W        W62300  19.716  23.532  14.387
93828W        W62301  28.493  16.100   0.277
93829W        W62302  29.569  41.860  13.537
93830W        W62303  35.577  28.179  14.408
93831W        W62304   4.757  13.213   3.299
93832W        W62305  43.998  43.004  13.870
93833W        W62306  13.344   4.211  14.354
93834W        W62307  41.792  21.202  12.558
93835W        W62308  10.358  15.649   2.780
93836W        W62309  29.425  31.450  13.394
93837W        W62310  29.442  26.655   4.138
93838W        W62311  34.421   1.738  12.352
93839W        W62312  27.940  31.502   0.853
93840W        W62313  14.719  25.483   3.806
93841W        W62314   6.713  10.665  12.004
93842W        W62315  23.013   9.211  12.440
93843W        W62316  39.930  24.152  13.405
93844W        W62317  18.227  39.392   4.707
93845W        W62318   1.238  19.591  11.923
93846W        W62319  33.575  20.689   0.968
93847W        W62320  19.748  42.876  13.025
93848W        W62321  37.850   8.873   1.317
93849W        W62322  14.231   0.969   0.387
93850W        W62323   1.461  25.072  14.858
93851W        W62324  42.893  12.348  10.495
93852W        W62325  38.356  13.643  11.904
93853W        W62326  19.546  19.540   3.638
93854W        W62327   0.492  23.493   2.405
93855W        W62328   1.787  15.796  10.466
93856W        W62329  27.980  24.197   4.152
93857W        W62330  29.559   3.787   1.430
93858W        W62331  27.542   2.331   0.767
93859W        W62332   9.294   1.279   4.146
93860W        W62333  44.315  30.144   1.273
93861W        W62334   5.248   9.747   3.269
93862W        W62335  17.617  19.157   2.402
93863W        W62336  21.182  26.687  12.569
93864W        W62337   0.253   5.241   1.781
93865W        W62338  37.986   6.231   4.243
93866W        W62339  40.912  36.540  12.068
93867W        W62340  11.773  15.699   0.754
93868W        W62341   1.913  37.046  11.890
93869W        W62342  21.726  42.523   2.743
93870W        W62343   5.789  19.557   4.681
93871W        W62344  44.501  41.864  14.983
93872W        W62345  31.593  36.478   3.673
93873W        W62346  29.512  35.091  11.932
93874W        W62347  41.470  12.614   3.367
93875W        W62348  29.049   6.751  13.410
93876W        W62349  25.579  38.995   1.708
93877W        W62350   9.806  14.254  10.572
93878W        W62351   9.269  40.507  12.928
93879W        W62352   8.324  25.179   5.171
93880W        W62353  26.197   1.289  12.847
93881W        W62354  20.557  13.672   2.715
93882W        W62355  40.432   1.916  10.953
93883W        W62356   3.809  28.007  13.487
93884W        W62357  27.159   7.670   3.631
93885W        W62358  23.515  11.707  12.828
93886W        W62359  27.129   2.380   4.750
93887W        W62360  19.111  16.301  12.571
93888W        W62361  16.238  35.864  14.400
93889W        W62362  34.555  30.545   1.387
93890W        W62363  39.503  19.155  13.440
93891W        W62364  31.068  34.081  11.866
93892W        W62365   7.675  17.663   1.410
93893W        W62366  41.301  43.489  10.550
93894W        W62367  16.580   1.255  11.856
93895W        W62368  21.721   5.437  14.469
93896W        W62369  24.600  39.476   0.906
93897W        W62370   8.179  25.491  11.040
93898W        W62371   7.905   1.951   4.599
93899W        W62372  11.789  17.085  12.384
93900W        W62373  16.123  39.383   1.695
93901W        W62374   4.884   4.352   0.268
93902W        W62375  21.529  27.008  11.454
93903W        W62376   0.429  41.374   2.850
93904W        W62377  13.113  27.490   1.447
93905W        W62378  27.964   7.732  11.001
93906W        W62379  30.157  18.112  11.446
93907W        W62380   8.160  29.092   3.731
93908W        W62381  13.288  16.274  11.401
93909W        W62382  28.175  20.227   0.776
93910W        W62383  23.558  42.309  13.857
93911W        W62384  24.538   3.231   3.326
93912W        W62385  13.757  39.344  13.055
93913W        W62386  37.040  41.467   0.742
93914W        W62387  43.474  27.554   0.916
93915W        W62388  34.580  36.046  12.957
93916W        W62389  39.322   7.375   3.650
93917W        W62390  11.185  15.254  13.399
93918W        W62391  34.044  35.473   3.299
93919W        W62392  36.893   8.325   0.962
93920W        W62393  41.489  22.114   3.821
93921W        W62394  33.402  38.905  12.385
93922W        W62395  22.623  28.024  11.591
93923W        W62396  39.444  43.851   2.380
93924W        W62397  22.680  19.046   2.230
93925W        W62398   2.792  15.628  10.017
93926W        W62399  25.181  40.388   3.655
93927W        W62400   7.775  38.977  10.444
93928W        W62401  25.144  40.353  14.386
93929W        W62402  28.136  15.127  13.413
93930W        W62403  38.545  29.025   0.772
93931W        W62404  30.025  31.543  13.901
93932W        W62405  38.877  33.073  12.547
93933W        W62406   1.930  35.099  12.977
93934W        W62407  37.034  36.893   3.373
93935W        W62408  39.359  32.024   5.262
93936W        W62409  36.392  43.903  14.760
93937W        W62410  39.051  31.989   1.408
93938W        W62411   3.793  36.944   2.686
93939W        W62412  39.840  17.621   3.292
93940W        W62413  40.049  12.625  13.411
93941W        W62414  19.612  12.738  13.935
93942W        W62415   7.307  12.836   1.922
93943W        W62416  25.129  22.048  13.465
93944W        W62417  36.346   6.840  14.317
93945W        W62418  37.479  35.930  14.984
93946W        W62419  32.522  35.065  11.066
93947W        W62420  18.645  23.589   2.708
93948W        W62421   9.156  30.047   0.421
93949W        W62422  28.640  10.699   2.714
93950W        W62423  33.932  16.588   3.763
93951W        W62424  31.610   5.301   3.709
93952W        W62425  28.471  43.350   1.377
93953W        W62426  33.395  44.442   1.380
93954W        W62427  35.423  28.558   3.331
93955W        W62428   9.733   5.792  12.006
93956W        W62429   6.250  19.269   4.282
93957W        W62430  13.653  21.210  14.881
93958W        W62431  35.534  44.865   1.732
93959W        W62432   5.435  36.545  11.584
93960W        W62433  36.992  16.771  11.050
93961W        W62434  41.383  15.304   4.196
93962W        W62435  37.530  22.246   2.770
93963W        W62436  26.608  21.697   1.844
93964W        W62437  15.179  27.528  11.019
93965W        W62438  13.757  26.688   4.816
93966W        W62439  22.720  26.678  10.933
93967W        W62440  35.069  16.789  13.817
93968W        W62441  19.064   8.709   0.264
93969W        W62442  32.554  30.140  14.447
93970W        W62443  38.884  31.513   2.687
93971W        W62444  31.142  21.695  13.020
93972W        W62445  21.248   0.377   4.228
93973W        W62446  16.134  20.566   1.694
93974W        W62447  38.560  42.490  12.834
93975W        W62448   5.360  35.975  13.805
93976W        W62449  33.558  40.415  14.759
93977W        W62450  23.644  37.840   1.426
93978W        W62451   7.374  11.677   1.923
93979W        W62452   2.295   5.738  10.416
93980W        W62453  21.101  25.496  14.778
93981W        W62454  27.096   7.790   1.284
93982W        W62455  20.074  17.150   4.791
93983W        W62456   7.382  24.722  13.322
93984W        W62457  10.842  36.944  12.528
93985W        W62458  42.957  34.615   0.416
93986W        W62459  27.588  43.784   2.690
93987W        W62460  20.646   5.805   0.755
93988W        W62461  39.328  21.207  12.524
93989W        W62462   3.914  38.404  11.579
93990W        W62463  42.940  15.763   0.243
93991W        W62464  22.178  11.134   4.797
93992W        W62465  19.778  37.847   2.180
93993W        W62466  13.280  35.603  13.477
93994W        W62467   7.911  10.801   1.426
93995W        W62468  16.748  41.006   0.434
93996W        W62469  33.981  33.944   4.155
93997W        W62470   6.240  28.435  11.873
93998W        W62471   6.838   3.845  14.962
93999W        W62472  32.907  38.995  14.912
94000W        W62473  25.090   2.955  11.496
94001W        W62474  41.816  28.161   1.776
94002W        W62475  19.045   1.935  14.401
94003W        W62476  32.980   8.725  10.563
94004W        W62477   0.465  17.185   1.765
94005W        W62478   7.783  29.448   2.380
94006W        W62479  14.173   0.371   2.780
94007W        W62480  10.158  26.177  13.343
94008W        W62481  30.970  26.073   2.878
94009W        W62482  34.559  41.007  12.442
94010W        W62483  22.112  40.994  14.994
94011W        W62484  20.085  17.595  13.327
94012W        W62485  11.758  22.053  12.930
94013W        W62486   2.336  33.420  11.448
94014W        W62487   7.682  42.373  12.890
94015W        W62488  39.922  19.553  12.085
94016W        W62489  25.665  43.327   1.772
94017W        W62490  39.845  17.633   4.837
94018W        W62491  21.514  28.595  14.448
94019W        W62492  18.645   4.271   3.232
94020W        W62493   2.326  42.921  10.409
94021W        W62494  34.426  39.436   1.865
94022W        W62495  38.049  12.206   1.793
94023W        W62496   9.800  44.379  14.464
94024W        W62497  38.471  33.449  12.541
94025W        W62498  29.118  33.971  11.984
94026W        W62499  13.770  13.636  13.358
94027W        W62500  26.500   0.814  14.477
94028W        W62501  21.621  30.645  11.864
94029W        W62502  37.886  16.306   4.828
94030W        W62503  42.828  42.520  14.979
94031W        W62504  17.162   5.338   2.825
94032W        W62505  32.135  18.588  11.471
94033W        W62506   2.304   2.809   1.777
94034W        W62507  25.541  38.977   0.798
94035W        W62508  13.147   0.393   2.792
94036W        W62509  18.224   1.237   0.798
94037W        W62510  40.323   5.887  12.574
94038W        W62511  41.821  36.359   0.878
94039W        W62512   9.300  29.144   3.313
94040W        W62513  10.639  14.298  11.915
94041W        W62514  16.232   7.320   4.720
94042W        W62515   4.822   1.418  14.459
94043W        W62516  30.924  26.548   4.164
94044W        W62517  43.779   7.839  11.557
94045W        W62518  13.334  15.586   0.312
94046W        W62519   9.830  35.984  11.466
94047W        W62520  18.090  39.551  10.557
94048W        W62521  32.628  44.827   5.253
94049W        W62522  13.217  35.864   4.737
94050W        W62523  15.119  29.456  14.767
94051W        W62524  16.201  23.649   3.856
94052W        W62525  28.950  34.093  14.842
94053W        W62526  32.473  15.176   4.815
94054W        W62527  38.927  18.284  13.464
94055W        W62528  38.861  23.139  11.574
94056W        W62529   5.262  15.152  13.030
94057W        W62530  14.259  23.690   2.797
94058W        W62531  33.104  35.491  13.338
94059W        W62532  20.722   1.319  12.409
94060W        W62533  10.774   0.907  12.833
94061W        W62534  21.555  29.133  12.343
94062W        W62535  25.111  30.481  12.491
94063W        W62536  34.045  31.525   4.631
94064W        W62537  36.087  42.802  10.932
94065W        W62538  17.776  20.244   2.789
94066W        W62539   8.762  34.899  12.002
94067W        W62540   3.231  29.978   1.358
94068W        W62541  40.393  19.131  12.091
94069W        W62542  42.795  20.137  12.447
94070W        W62543  38.470  31.423  14.306
94071W        W62544   0.336  33.413  13.447
94072W        W62545  11.156  24.494  10.918
94073W        W62546   6.746   0.884   4.650
94074W        W62547  17.709   6.863   0.397
94075W        W62548  41.536   5.929   1.416
94076W        W62549   0.947  14.201   3.208
94077W        W62550  12.322   4.907  13.989
94078W        W62551  11.180   8.685  13.798
94079W        W62552   7.744  38.538   2.405
94080W        W62553   6.786   9.713  14.420
94081W        W62554  23.000  30.462   2.213
94082W        W62555  23.664  26.085   4.176
94083W        W62556  32.579  25.140  11.061
94084W        W62557  39.461  21.696   0.437
94085W        W62558  38.984   0.476  11.032
94086W        W62559   8.175  42.973   2.794
94087W        W62560  24.714   0.878   2.212
94088W        W62561  14.155  33.616   0.296
94089W        W62562  38.491  31.153  13.830
94090W        W62563  38.447  43.980   0.792
94091W        W62564  14.123  33.388  14.019
94092W        W62565  19.611  16.685   1.835
94093W        W62566   1.942  25.052   0.850
94094W        W62567  25.107  43.847  14.496
94095W        W62568  17.585  28.935  10.640
94096W        W62569  28.109  16.682  14.830
94097W        W62570   1.343  34.071  11.552
94098W        W62571  17.198  33.013  12.087
94099W        W62572  18.193   9.785   2.274
94100W        W62573  31.070   2.470   4.130
94101W        W62574  20.208  20.092  11.388
94102W        W62575  32.520  15.678  13.922
94103W        W62576  36.348  37.376  12.891
94104W        W62577  28.961  37.029  14.821
94105W        W62578  44.358  35.906   0.864
94106W        W62579  26.127  38.522  12.468
94107W        W62580  17.258  20.096   3.338
94108W        W62581  25.016  22.174  14.972
94109W        W62582  15.807  44.970  14.504
94110W        W62583  15.169   7.188  14.387
94111W        W62584  22.036  19.133   2.869
94112W        W62585  32.429  14.717   0.413
94113W        W62586   9.792  38.050   0.420
94114W        W62587  10.757  40.041  12.863
94115W        W62588  12.187  15.664   1.729
94116W        W62589  20.217  20.187   4.697
94117W        W62590  10.141  26.637   3.253
94118W        W62591  21.255  34.529   3.236
94119W        W62592  11.330  17.763  11.508
94120W        W62593  43.449  32.124  10.013
94121W        W62594  26.102  12.321   3.812
94122W        W62595  36.943  21.680   2.396
94123W        W62596   3.351  34.114   1.393
94124W        W62597  14.710  39.060  13.822
94125W        W62598  32.567  24.020  11.010
94126W        W62599  20.605  39.904   1.355
94127W        W62600   7.685  34.066  11.084
94128W        W62601  36.392  34.916   1.818
94129W        W62602  35.453  28.014   1.799
94130W        W62603  16.610  41.420  14.029
94131W        W62604  39.921  23.170  14.466
94132W        W62605  41.901  35.896   5.151
94133W        W62606  13.131   7.698   1.720
94134W        W62607   9.249   1.890   3.315
94135W        W62608  27.605   8.750  14.392
94136W        W62609  40.333  42.356  14.987
94137W        W62610  11.150  36.527   2.727
94138W        W62611  42.426  24.572  10.644
94139W        W62612  41.922  21.639  12.080
94140W        W62613  38.916  13.745  11.554
94141W        W62614  30.482  15.689  11.443
94142W        W62615   4.800   1.451  10.955
94143W        W62616  28.678  16.246  14.411
94144W        W62617   6.226  40.017  14.390
94145W        W62618   6.804  32.938   4.723
94146W        W62619  10.866  20.073  13.998
94147W        W62620   7.876  28.137   0.745
94148W        W62621  34.891  22.624   3.339
94149W        W62622  21.542   5.786   4.178
94150W        W62623  17.582   3.307   2.761
94151W        W62624  41.302  13.137  10.975
94152W        W62625  21.229  20.245  14.989
94153W        W62626   3.810  17.274   3.155
94154W        W62627   0.868  18.122   1.910
94155W        W62628   1.756   1.958  13.010
94156W        W62629   6.373   7.258   5.116
94157W        W62630  36.467   6.425  12.079
94158W        W62631   6.275  38.466   0.409
94159W        W62632  44.390  24.199  13.447
94160W        W62633  40.506  33.025  12.848
94161W        W62634  30.087  24.635  12.076
94162W        W62635  26.622  43.788   3.854
94163W        W62636  24.015  34.610   0.886
94164W        W62637  16.305  35.528   1.273
94165W        W62638  33.571  41.448  13.021
94166W        W62639  22.575  40.802   3.663
94167W        W62640  32.993   0.904   1.708
94168W        W62641  44.422  36.868   3.274
94169W        W62642  29.598  25.702   9.980
94170W        W62643  21.686  42.811   4.814
94171W        W62644  29.562  19.552  12.998
94172W        W62645  42.978  27.496  14.896
94173W        W62646  38.074   9.203   4.255
94174W        W62647  15.630   0.842   3.255
94175W        W62648  23.985  26.080  12.548
94176W        W62649  36.888  12.303   4.770
94177W        W62650   2.736   3.310  12.873
94178W        W62651  29.570  12.627  12.989
94179W        W62652   8.317   0.927  11.977
94180W        W62653  44.905  36.950  12.084
94181W        W62654  29.602  30.972  10.581
94182W        W62655  18.097  35.881  13.015
94183W        W62656  42.881  21.098  10.471
94184W        W62657  32.112  32.424   2.284
94185W        W62658  41.527   7.857   4.711
94186W        W62659  15.793  34.531  13.442
94187W        W62660  34.560   7.899  12.937
94188W        W62661  31.965  38.365  10.032
94189W        W62662  12.193   8.818   4.772
94190W        W62663   0.832  26.136  14.380
94191W        W62664   4.382   1.303   1.287
94192W        W62665  15.754  23.147   4.636
94193W        W62666   4.390  25.964   4.604
94194W        W62667  44.460  43.908  14.902
94195W        W62668  23.100  44.920   2.264
94196W        W62669  41.533  44.968   4.236
94197W        W62670  38.985  10.869  13.355
94198W        W62671  10.288  15.824   3.316
94199W        W62672  32.562  32.901  10.553
94200W        W62673  38.011  12.641  13.331
94201W        W62674  25.498  30.924   4.214
94202W        W62675  10.304  34.530   0.282
94203W        W62676  41.357  43.488  13.953
94204W        W62677  16.278  28.111   1.358
94205W        W62678  10.297  23.142   1.868
94206W        W62679  36.023  20.214  10.936
94207W        W62680  25.146  39.354   2.414
94208W        W62681  24.719   2.742   4.825
94209W        W62682  38.403  18.062   1.889
94210W        W62683   3.261  35.936  14.978
94211W        W62684  17.292  20.580  14.302
94212W        W62685   4.740  20.757  10.941
94213W        W62686  22.535  39.016  13.022
94214W        W62687  28.024  44.986   3.230
94215W        W62688  16.252  22.141  10.932
94216W        W62689   8.277  25.101   0.286
94217W        W62690  22.540   3.955   4.799
94218W        W62691  33.586  28.029   0.256
94219W        W62692  35.542   6.376  11.583
94220W        W62693  38.364   1.409   1.450
94221W        W62694  31.637  36.078   2.234
94222W        W62695  39.324   9.221  14.885
94223W        W62696  21.055  23.111  10.414
94224W        W62697   9.383  31.505  11.887
94225W        W62698  37.077  20.091   3.322
94226W        W62699  20.614  33.607   4.312
94227W        W62700  41.436  34.456  12.884
94228W        W62701   5.297  37.044   4.322
94229W        W62702  18.295  40.976   2.899
94230W        W62703  40.374  17.230  13.856
94231W        W62704  27.612  26.552   2.799
94232W        W62705  29.174  22.999   4.142
94233W        W62706  32.019  25.166  10.418
94234W        W62707  44.916   8.285  12.395
94235W        W62708  17.694   0.927  14.827
94236W        W62709  41.502  33.481   4.141
94237W        W62710  11.763  33.498  14.807
94238W        W62711  41.909   4.794  14.832
94239W        W62712   1.287   9.342  14.508
94240W        W62713  13.813  34.085   4.789
94241W        W62714  36.541  39.481   1.721
94242W        W62715  11.707  36.052   3.862
94243W        W62716   1.861  28.125  11.550
94244W        W62717  37.935  23.555  13.863
94245W        W62718   1.941   4.864   4.152
94246W        W62719  25.681  20.252   2.179
94247W        W62720  13.662   4.901  10.613
94248W        W62721  11.171  33.097  11.556
94249W        W62722  14.707  37.954   4.278
94250W        W62723  37.374  33.922  13.331
94251W        W62724  44.795  34.428   3.194
94252W        W62725   5.933  37.565   3.761
94253W        W62726  16.609  31.070   4.279
94254W        W62727  18.729  20.661  10.929
94255W        W62728  24.696  25.965   1.882
94256W        W62729  42.870  22.683  13.362
94257W        W62730  25.625  34.505   4.244
94258W        W62731  30.993  30.500   5.271
94259W        W62732   5.928  42.297   1.220
94260W        W62733  10.322   7.773   1.904
94261W        W62734  29.576  40.312  14.350
94262W        W62735  10.359  20.065  14.449
94263W        W62736  27.094   1.449   4.606
94264W        W62737  23.523  40.326  13.850
94265W        W62738  35.043   3.438   5.118
94266W        W62739  19.086  17.304  11.598
94267W        W62740  41.536  17.297   4.280
94268W        W62741   7.226  14.685  13.340
94269W        W62742  31.915  42.440  14.934
94270W        W62743   1.899  11.339   0.384
94271W        W62744  33.062  34.879   4.309
94272W        W62745  30.161   4.345  12.379
94273W        W62746  18.129  35.539   3.865
94274W        W62747  18.585  15.100   2.780
94275W        W62748   1.422   0.955   0.765
94276W        W62749  22.135  10.772  10.957
94277W        W62750  11.254  23.586  13.385
94278W        W62751  23.206  35.016  13.939
94279W        W62752  21.146  30.088  10.906
94280W        W62753  39.041   4.888   2.692
94281W        W62754  28.169  29.633   4.806
94282W        W62755  41.837   9.367   4.121
94283W        W62756   7.673  40.035   3.267
94284W        W62757   2.936  19.254   0.301
94285W        W62758  35.062  32.012   4.317
94286W        W62759  39.445  36.074  11.598
94287W        W62760  13.806  25.142   3.844
94288W        W62761  22.660   1.940  10.913
94289W        W62762  33.941   0.914  11.880
94290W        W62763  41.500  35.546   0.813
94291W        W62764  41.807  37.455   9.999
94292W        W62765   0.330   3.902  13.465
94293W        W62766  43.800  40.851   1.428
94294W        W62767  35.434  16.653  10.573
94295W        W62768  34.404  37.909  11.911
94296W        W62769  31.023  32.975  11.093
94297W        W62770   8.863  31.019   4.778
94298W        W62771  16.673   4.210  12.397
94299W        W62772   9.329  41.401   0.813
94300W        W62773  30.651  43.875  11.906
94301W        W62774  16.265  42.312  12.506
94302W        W62775  13.603  41.878   4.698
94303W        W62776  26.465  28.039  11.392
94304W        W62777  21.121  36.942   0.459
94305W        W62778  35.974  31.151  11.534
94306W        W62779  38.970  41.019   2.275
94307W        W62780  24.064  15.766  13.876
94308W        W62781   1.790  22.227  10.590
94309W        W62782  40.047  25.988   2.830
94310W        W62783   3.333   9.262   1.423
94311W        W62784  43.463  30.466   1.300
94312W        W62785  15.282   5.820   2.709
94313W        W62786  23.025  34.414   2.345
94314W        W62787  14.691  25.683  12.935
94315W        W62788  28.972   1.916   1.723
94316W        W62789  41.043  28.483   1.343
94317W        W62790  27.626   1.293   0.895
94318W        W62791  17.605   0.369   2.404
94319W        W62792  25.062  39.057   2.293
94320W        W62793  27.570  13.162   2.808
94321W        W62794  32.134  43.766   4.794
94322W        W62795  16.588  12.765   0.780
94323W        W62796  43.831  42.941  12.381
94324W        W62797  43.425   6.685   2.860
94325W        W62798   9.248  40.446   4.620
94326W        W62799  35.474  43.339  11.467
94327W        W62800  15.616  44.874   0.808
94328W        W62801  17.785  34.897  11.490
94329W        W62802  26.560  27.047   4.809
94330W        W62803  26.502  28.548   1.260
94331W        W62804  13.202  16.176  13.974
94332W        W62805  27.189   4.447   4.641
94333W        W62806   3.259  34.546  11.414
94334W        W62807   4.239  29.941   4.755
94335W        W62808  19.225  26.106  14.450
94336W        W62809   6.773  22.676  13.977
94337W        W62810  21.694   9.317   2.330
94338W        W62811   3.341  18.589  11.115
94339W        W62812  30.460   0.489   2.887
94340W        W62813  36.470  26.583  12.958
94341W        W62814  25.042   4.245  12.033
94342W        W62815  16.682  41.498   3.645
94343W        W62816  31.129  15.125   3.813
94344W        W62817  16.605  33.115  12.898
94345W        W62818  30.149  23.145   1.800
94346W        W62819  13.800   4.852   2.723
94347W        W62820  21.528   4.298   1.844
94348W        W62821  18.629  15.690  12.385
94349W        W62822  17.189  44.901  11.014
94350W        W62823  43.437  16.083   2.879
94351W        W62824  29.149   0.748   1.735
94352W        W62825  42.494  31.028  14.314
94353W        W62826  44.878  14.110   3.830
94354W        W62827   8.236   4.751   2.859
94355W        W62828  14.155  14.186   2.711
94356W        W62829  15.768  38.514  12.446
94357W        W62830  32.058  10.318  12.841
94358W        W62831   4.826  27.648   1.381
94359W        W62832  41.977  44.479  11.914
94360W        W62833   2.254   7.197   4.634
94361W        W62834  39.897   0.458  14.347
94362W        W62835  30.462  26.005  10.039
94363W        W62836   8.293  12.215   0.359
94364W        W62837  12.241   2.832   4.647
94365W        W62838   3.953  13.640   1.412
94366W        W62839  23.534  18.061  14.793
94367W        W62840  22.121  28.131  12.401
94368W        W62841   1.781   8.770   3.670
94369W        W62842   0.751  15.321   2.773
94370W        W62843   7.331  38.327   1.808
94371W        W62844   9.748  25.679   4.241
94372W        W62845  13.629  41.303   3.676
94373W        W62846  29.123   4.305  12.026
94374W        W62847  11.822  32.466   4.342
94375W        W62848   8.378  36.017   4.198
94376W        W62849  40.413  33.484  11.501
94377W        W62850  31.996  37.064  10.643
94378W        W62851   9.754  42.506   2.777
94379W        W62852  21.711  32.472   0.794
94380W        W62853  24.633  42.942  13.047
94381W        W62854  25.536  39.991  14.454
94382W        W62855   9.149  22.207   1.704
94383W        W62856   8.889  34.561  12.085
94384W        W62857  21.624  43.019  10.644
94385W        W62858  39.472   2.391  10.440
94386W        W62859   3.383  26.112   0.274
94387W        W62860   7.815  32.970   1.887
94388W        W62861   5.319  30.141   4.753
94389W        W62862   7.402   7.201  14.376
94390W        W62863  22.098  10.374  13.016
94391W        W62864  38.938  43.345  13.023
94392W        W62865  43.965  16.647  10.987
94393W        W62866   0.280   3.235   1.326
94394W        W62867   8.818  25.668  11.607
94395W        W62868  31.097  30.441  13.862
94396W        W62869  26.483  29.557   0.880
94397W        W62870  34.086  42.506   2.329
94398W        W62871  35.413   1.889   4.772
94399W        W62872   7.353  15.688   5.297
94400W        W62873  21.576  36.959  11.867
94401W        W62874  40.322  12.663   9.945
94402W        W62875  33.549  15.206   4.757
94403W        W62876  19.646  12.177  13.862
94404W        W62877  39.938  32.921  14.936
94405W        W62878  40.333  11.653   3.770
94406W        W62879  21.224  34.980  10.955
94407W        W62880  44.333  32.055   0.815
94408W        W62881  41.482  20.673   4.158
94409W        W62882   7.382  28.017  14.469
94410W        W62883  23.539  30.122   2.374
94411W        W62884  27.163  28.558   4.203
94412W        W62885  39.923  21.587  14.442
94413W        W62886   2.402  25.101  11.417
94414W        W62887  30.919  22.171   4.114
94415W        W62888  38.403   4.744  14.359
94416W        W62889   7.910  30.013   0.817
94417W        W62890   8.792  29.461   1.804
94418W        W62891  16.077  24.658   3.753
94419W        W62892  14.591   0.785   4.207
94420W        W62893  28.603  33.014  13.891
94421W        W62894  19.637  34.418   1.414
94422W        W62895  13.843  33.438  13.531
94423W        W62896   1.398  15.720   3.783
94424W        W62897   0.365  16.582   0.857
94425W        W62898   2.814  19.042  14.772
94426W        W62899  39.420  41.365  11.980
94427W        W62900  36.049  13.790   2.687
94428W        W62901  38.376  41.341   3.744
94429W        W62902   0.922  28.136   0.407
94430W        W62903  38.966  29.961   2.418
94431W        W62904  18.726  39.363  12.901
94432W        W62905   5.871  32.043  10.457
94433W        W62906  16.630  44.763  10.521
94434W        W62907   1.257   4.840  12.409
94435W        W62908  35.964   8.315   3.687
94436W        W62909  13.199  12.762  13.819
94437W        W62910  40.484  15.105   1.765
94438W        W62911   2.442  39.838  13.934
94439W        W62912  40.964  28.474  14.948
94440W        W62913  42.515   3.811   0.278
94441W        W62914  26.681  44.398  14.280
94442W        W62915  19.701  26.472  11.127
94443W        W62916  29.155  31.544   1.851
94444W        W62917  19.542  39.316   0.822
94445W        W62918  26.200  12.714   1.338
94446W        W62919  41.470  41.835   4.804
94447W        W62920  38.415  26.103   3.797
94448W        W62921  12.739  15.797  11.384
94449W        W62922  13.624   3.795   0.360
94450W        W62923   3.293  14.244   4.276
94451W        W62924  12.719  28.115   3.206
94452W        W62925  41.471   0.755  14.822
94453W        W62926  36.087  34.998  11.517
94454W        W62927   0.272  34.952   1.257
94455W        W62928  39.040  17.708   2.835
94456W        W62929  32.923   2.930   2.745
94457W        W62930  39.426   7.756  14.419
94458W        W62931   5.249  43.378  11.861
94459W        W62932   0.435  34.602  11.386
94460W        W62933  17.229  30.988   4.209
94461W        W62934  15.174   1.781  11.965
94462W        W62935  15.102  39.977   5.229
94463W        W62936  29.062   0.256   3.694
94464W        W62937   9.239  34.950   4.225
94465W        W62938  11.742   2.822  10.945
94466W        W62939  33.488  23.554   1.739
94467W        W62940  10.727  23.669   5.228
94468W        W62941  12.240  21.139  10.032
94469W        W62942  10.806   4.862  14.330
94470W        W62943   5.255  10.292  12.871
94471W        W62944  40.892  42.353  12.439
94472W        W62945  34.990  14.331   5.156
94473W        W62946  21.225  16.643   3.737
94474W        W62947  41.422  22.197  11.046
94475W        W62948  12.655  31.117  10.575
94476W        W62949  22.669   5.254   1.282
94477W        W62950  43.332  42.503   3.651
94478W        W62951  29.665  25.125   5.307
94479W        W62952  44.971  24.141  11.881
94480W        W62953  43.020  14.747   0.389
94481W        W62954  29.468  18.099   4.758
94482W        W62955  37.563   7.393   1.846
94483W        W62956  43.319   0.925   0.900
94484W        W62957  33.072   0.494   0.885
94485W        W62958  24.485  20.200   3.697
94486W        W62959  30.490  21.050  13.514
94487W        W62960  24.195   6.258  13.515
94488W        W62961  27.598  32.142   0.413
94489W        W62962  17.237  37.914   4.313
94490W        W62963  42.834  24.120   0.357
94491W        W62964  41.873  36.922  11.115
94492W        W62965  37.849  42.450  13.318
94493W        W62966  33.437  26.476  11.905
94494W        W62967  12.120   3.848  13.404
94495W        W62968  30.046   3.873  14.452
94496W        W62969  43.828  19.199  11.871
94497W        W62970  11.653   3.932  12.985
94498W        W62971  39.999  39.375  12.499
94499W        W62972  26.659  38.025  11.093
94500W        W62973  41.436  27.619  13.848
94501W        W62974  42.853  24.640   3.289
94502W        W62975  23.116  40.303   1.797
94503W        W62976  12.649   5.925   2.322
94504W        W62977  40.895  25.666  11.998
94505W        W62978  13.135   4.756   1.228
94506W        W62979   9.846  23.086   4.234
94507W        W62980  11.744   9.841  12.884
94508W        W62981  25.138  10.244   0.776
94509W        W62982  18.230  10.868   2.794
94510W        W62983  34.423  35.050  11.581
94511W        W62984  22.625  32.590  14.954
94512W        W62985  38.896  42.369  13.899
94513W        W62986  10.312  36.916  12.534
94514W        W62987  23.148  18.119   0.847
94515W        W62988   7.270   7.174  12.844
94516W        W62989  24.067  20.253  10.467
94517W        W62990  15.190   5.832   1.264
94518W        W62991  42.882   4.859  13.937
94519W        W62992  36.096  21.154   0.326
94520W        W62993  29.092  39.360   3.681
94521W        W62994  27.027  14.180  11.900
94522W        W62995  13.131  23.005   1.225
94523W        W62996  27.592   4.307  13.325
94524W        W62997   7.800  17.604   4.284
94525W        W62998   4.205  15.108   9.450
94526W        W62999   7.249  36.041   1.766
94527W        W63000  40.425  36.536  11.611
94528W        W63001   7.189   8.379   4.159
94529W        W63002   6.229  24.206  11.923
94530W        W63003  25.566  37.879  10.609
94531W        W63004  34.392  41.884  12.489
94532W        W63005  27.576  39.416   2.734
94533W        W63006   2.952  25.646  11.009
94534W        W63007  25.556  33.998   3.683
94535W        W63008  41.791  16.285  13.494
94536W        W63009  26.991   0.389  12.574
94537W        W63010   7.830  32.393   1.243
94538W        W63011  36.490  43.019  10.147
94539W        W63012   7.216   4.371   3.712
94540W        W63013  17.305  14.809  13.894
94541W        W63014  38.990  23.673  13.484
94542W        W63015  20.675  39.549  12.843
94543W        W63016  27.585  21.092  12.440
94544W        W63017  40.887  39.988  11.555
94545W        W63018  11.296   4.261  13.389
94546W        W63019  23.107  29.475  14.330
94547W        W63020  35.363  37.377   0.433
94548W        W63021  17.721  18.736   1.912
94549W        W63022  14.321   4.733   4.644
94550W        W63023  21.521  32.132   2.790
94551W        W63024  20.588  10.804  11.009
94552W        W63025   3.454   5.742  11.869
94553W        W63026  39.056  23.003   1.274
94554W        W63027   2.335   7.187  14.940
94555W        W63028  25.087  16.204   2.351
94556W        W63029   0.794  39.967  11.398
94557W        W63030  17.628  37.913   2.900
94558W        W63031  28.481  12.779  12.921
94559W        W63032  28.127  19.056  13.831
94560W        W63033   3.771   2.430  11.510
94561W        W63034  23.118  11.290  10.514
94562W        W63035  22.641   7.343  14.384
94563W        W63036  15.766  35.434   3.660
94564W        W63037  43.445  11.703  14.925
94565W        W63038  23.512  30.646  12.996
94566W        W63039  31.056   4.276  10.569
94567W        W63040   2.365  32.001  14.812
94568W        W63041   0.429  36.971  13.391
94569W        W63042  37.013   3.372   2.228
94570W        W63043   0.827  34.053   4.832
94571W        W63044  37.443  42.928  13.419
94572W        W63045  37.054  12.716  11.407
94573W        W63046  10.675  20.036   4.201
94574W        W63047  18.674  32.463   3.317
94575W        W63048  23.085  37.370   4.223
94576W        W63049   7.772   0.980  10.620
94577W        W63050  17.209  30.440  13.457
94578W        W63051  32.442  21.242  14.968
94579W        W63052  33.385  31.488   3.195
94580W        W63053  23.556  40.870   4.665
94581W        W63054  28.662  36.357   3.337
94582W        W63055  39.549  34.055  14.275
94583W        W63056  27.010  12.710   4.200
94584W        W63057  17.293  19.156  10.516
94585W        W63058  35.064   3.384   0.939
94586W        W63059  33.510  25.215  13.980
94587W        W63060  31.407  18.638   3.251
94588W        W63061  40.855   0.385   1.320
94589W        W63062  16.734  10.203  14.830
94590W        W63063  25.018   6.211   3.738
94591W        W63064  20.573   2.349   1.791
94592W        W63065  39.446  16.733   4.768
94593W        W63066  29.457  39.541  11.927
94594W        W63067  37.355  33.954   3.861
94595W        W63068  23.055  31.638  12.526
94596W        W63069   7.837  28.669   1.730
94597W        W63070  35.566  23.128  13.478
94598W        W63071  30.910  42.298  10.948
94599W        W63072  28.658  18.723   0.789
94600W        W63073  44.944  13.797   4.617
94601W        W63074  37.006  39.432  14.765
94602W        W63075  39.050  22.689   3.686
94603W        W63076  38.429  36.508   2.332
94604W        W63077  41.877  34.546  14.968
94605W        W63078  21.165  40.942  11.376
94606W        W63079  41.502  36.485   1.849
94607W        W63080  27.051  41.503  13.952
94608W        W63081  16.626  34.997   0.758
94609W        W63082  13.789  20.150   1.900
94610W        W63083  35.996  34.114   3.164
94611W        W63084   1.740   4.252   2.664
94612W        W63085  21.629  44.458   3.150
94613W        W63086  26.616  43.022   1.793
94614W        W63087  34.446  15.213  14.374
94615W        W63088  30.150  29.088   2.797
94616W        W63089  23.655  38.887  14.990
94617W        W63090  31.012   6.837   1.371
94618W        W63091  44.763  38.446   1.696
94619W        W63092  33.448  10.729  12.476
94620W        W63093  38.898  17.182  13.315
94621W        W63094  24.479  37.893   4.171
94622W        W63095   5.755   1.247   1.816
94623W        W63096  29.633  13.832  10.895
94624W        W63097  14.284  39.846  14.353
94625W        W63098  22.724  13.727  14.412
94626W        W63099  16.676  43.492  14.436
94627W        W63100  11.808  15.116   3.148
94628W        W63101  16.802   1.858   1.893
94629W        W63102  22.735   5.357   4.190
94630W        W63103  21.136  44.394  14.377
94631W        W63104  11.727  21.610  11.874
94632W        W63105   1.784  11.623   3.709
94633W        W63106  39.866  17.074   1.722
94634W        W63107  22.997  29.950   1.772
94635W        W63108  42.930  17.571   2.729
94636W        W63109  33.066  44.332  14.280
94637W        W63110  39.918  21.648   2.207
94638W        W63111  25.090  44.761   4.755
94639W        W63112  23.652  15.711  12.950
94640W        W63113  25.067  16.204   3.758
94641W        W63114   1.760  30.565   0.875
94642W        W63115  29.940  18.734   1.728
94643W        W63116  32.001  18.268  10.958
94644W        W63117  21.573  36.469  12.558
94645W        W63118  20.138  36.490  10.943
94646W        W63119  14.219  16.668  12.414
94647W        W63120  41.331  17.691   1.267
94648W        W63121  11.766  43.394   2.294
94649W        W63122  15.214  32.078   3.666
94650W        W63123  21.039  31.466  14.420
94651W        W63124  44.316  15.152  10.494
94652W        W63125  26.476   3.235   1.391
94653W        W63126  14.107   9.779   1.706
94654W        W63127  14.335   0.310   4.722
94655W        W63128   0.757  33.383   3.269
94656W        W63129  25.100  40.381  13.459
94657W        W63130   2.453  24.061  14.918
94658W        W63131  35.565  36.565  12.057
94659W        W63132  30.616  24.089   3.158
94660W        W63133   6.878   2.246   0.884
94661W        W63134  13.323   2.861  10.629
94662W        W63135  30.597  28.962   4.248
94663W        W63136  19.184   4.339  13.351
94664W        W63137  22.538  31.409   2.192
94665W        W63138  14.268  29.476  12.836
94666W        W63139  32.631   4.441  14.354
94667W        W63140  32.532   7.698  13.874
94668W        W63141  28.593  27.132  11.492
94669W        W63142  35.478  41.817   1.821
94670W        W63143  27.987  13.164  13.375
94671W        W63144  28.075   0.417  10.642
94672W        W63145  22.089  28.611  12.348
94673W        W63146  30.635   4.425   2.255
94674W        W63147   9.354  27.560   3.263
94675W        W63148  41.839  25.524   1.400
94676W        W63149  40.346  19.093   0.259
94677W        W63150  14.225  19.212  12.489
94678W        W63151  24.194  25.115   9.932
94679W        W63152  15.196  27.623   3.844
94680W        W63153  32.614  38.370   3.796
94681W        W63154  29.669   2.836   4.721
94682W        W63155   3.869  41.482  10.971
94683W        W63156  42.451  35.090   0.367
94684W        W63157  17.599  31.636  12.033
94685W        W63158  30.426  13.636   0.340
94686W        W63159  36.977  17.145   4.614
94687W        W63160   4.909  43.834   0.432
94688W        W63161  21.539  41.369  12.573
94689W        W63162  27.952  16.156  14.014
94690W        W63163  31.541   0.426   3.745
94691W        W63164  39.943  24.019  13.927
94692W        W63165  18.120  26.499   3.215
94693W        W63166  10.736  37.547   5.306
94694W        W63167  42.325   3.753   1.918
94695W        W63168  41.314   0.358   4.339
94696W        W63169  25.504  25.217   1.306
94697W        W63170  31.038  33.017   1.299
94698W        W63171   9.240  19.739   2.296
94699W        W63172   3.460  23.067  11.892
94700W        W63173  40.859   4.266   4.672
94701W        W63174   6.414  34.060   2.282
94702W        W63175   4.920  29.566   1.828
94703W        W63176  21.121  30.095   0.466
94704W        W63177  43.349  21.143  11.417
94705W        W63178   5.350  17.593  13.468
94706W        W63179  25.108  43.845   4.342
94707W        W63180  18.579  34.102  14.512
94708W        W63181  24.519  33.953   0.914
94709W        W63182  10.785  33.458   0.928
94710W        W63183  30.612   4.384  11.954
94711W        W63184  16.740  19.737  14.796
94712W        W63185  18.237  27.646  12.411
94713W        W63186   6.359   7.684   0.745
94714W        W63187  35.077  44.928  12.549
94715W        W63188  42.973  13.762  12.859
94716W        W63189  16.113  18.292  10.968
94717W        W63190  33.487  12.334  12.882
94718W        W63191  32.114  43.848  11.858
94719W        W63192  23.661  24.565   3.825
94720W        W63193   0.961  13.319   3.277
94721W        W63194  41.529  22.046   1.407
94722W        W63195   4.421  10.751   3.146
94723W        W63196  44.346   0.946   1.341
94724W        W63197  13.736  17.125  12.066
94725W        W63198  21.031  21.019   9.993
94726W        W63199  14.210  38.021  14.474
94727W        W63200  37.836  28.134   0.458
94728W        W63201  20.763  14.752  13.052
94729W        W63202  36.433   5.270   3.630
94730W        W63203  30.564  19.162   4.136
94731W        W63204  31.133  29.430   5.104
94732W        W63205  39.419  21.701   1.342
94733W        W63206   0.301   0.956   3.221
94734W        W63207   8.247  19.738   2.886
94735W        W63208  27.624  39.336   3.315
94736W        W63209  18.071  29.925   0.432
94737W        W63210   6.374  40.868  11.382
94738W        W63211  43.774  33.420   3.797
94739W        W63212  35.515   8.213   0.268
94740W        W63213  26.608  24.563   1.448
94741W        W63214  29.043  12.823  12.350
94742W        W63215  38.552  40.014  13.389
94743W        W63216  31.079   7.294   1.355
94744W        W63217  21.525  38.336  14.894
94745W        W63218  19.191  20.094  13.329
94746W        W63219   5.858  11.717   1.316
94747W        W63220  21.046   6.848   3.694
94748W        W63221  22.665   7.213  10.641
94749W        W63222  20.250  12.345   2.797
94750W        W63223  18.172   1.476   3.367
94751W        W63224   7.810  26.554  11.874
94752W        W63225   3.795  15.794   4.116
94753W        W63226   5.437   2.378   3.673
94754W        W63227   5.737  33.976   1.743
94755W        W63228   6.392   3.402  11.582
94756W        W63229  12.189  31.902  14.954
94757W        W63230  29.510  29.450   0.963
94758W        W63231  27.653   2.384   0.381
94759W        W63232  29.961  37.398  10.521
94760W        W63233   6.851  22.242  12.831
94761W        W63234  28.508  20.131   2.871
94762W        W63235  37.359  43.501  10.504
94763W        W63236  22.632  34.045   1.255
94764W        W63237  24.521   9.825  11.433
94765W        W63238  43.414  44.775  13.401
94766W        W63239  16.607  21.250  12.492
94767W        W63240   5.225  13.161  14.463
94768W        W63241   9.304  26.050  14.977
94769W        W63242  39.395  12.337   2.292
94770W        W63243   0.800  37.050   2.230
94771W        W63244  15.647  40.962  10.072
94772W        W63245  16.611   9.676   3.695
94773W        W63246  16.212  13.742  11.580
94774W        W63247  20.692  35.912   3.370
94775W        W63248  44.779   9.303   2.248
94776W        W63249  44.351  13.757   3.663
94777W        W63250   3.734  28.541   0.776
94778W        W63251  18.194  42.886  10.531
94779W        W63252   3.756  37.059   4.247
94780W        W63253  11.247  12.273   4.303
94781W        W63254   9.810  44.944  12.481
94782W        W63255  16.242  44.477   1.784
94783W        W63256  27.012  31.948   1.416
94784W        W63257  11.646  31.510   1.728
94785W        W63258  35.991  27.463   2.880
94786W        W63259   2.405  19.588   3.385
94787W        W63260   4.215  11.139  13.405
94788W        W63261   1.828   8.736  11.431
94789W        W63262   4.705  35.862   0.392
94790W        W63263   0.887  20.204  13.924
94791W        W63264  40.412  39.384  11.953
94792W        W63265  43.952  40.447  11.866
94793W        W63266  41.987  28.624  10.524
94794W        W63267  19.656  37.569   3.235
94795W        W63268  14.642  14.606   3.815
94796W        W63269  38.345  16.294   2.261
94797W        W63270  38.016  23.985   0.439
94798W        W63271  12.161  12.835   4.333
94799W        W63272  34.574  35.963   3.834
94800W        W63273  39.979  25.114  13.312
94801W        W63274  18.680  13.682  11.435
94802W        W63275  10.811   2.913  10.446
94803W        W63276  44.888  40.989   1.749
94804W        W63277   9.371  27.158   0.456
94805W        W63278  21.732  36.865   1.879
94806W        W63279  39.912  19.551  11.041
94807W        W63280  18.583  20.160  14.397
94808W        W63281  28.939   8.302  14.337
94809W        W63282  42.953  21.541   4.145
94810W        W63283  33.891  19.562   5.107
94811W        W63284  10.314  23.534   1.828
94812W        W63285   4.229  28.006  11.447
94813W        W63286   5.888  35.446  14.392
94814W        W63287   4.867  44.322  13.027
94815W        W63288  42.912   4.886   4.784
94816W        W63289  10.235  15.628  13.448
94817W        W63290  31.507  44.846  13.462
94818W        W63291  38.358  40.054  14.826
94819W        W63292  13.775  41.530   1.891
94820W        W63293  17.781  12.357  11.000
94821W        W63294  39.958  10.250   3.193
94822W        W63295   1.464  37.397  10.406
94823W        W63296  21.548  13.702  14.479
94824W        W63297  18.554  25.594  14.413
94825W        W63298  38.892  22.654  13.942
94826W        W63299  14.780  23.557   3.646
94827W        W63300  44.914  18.786  14.396
94828W        W63301  29.014   3.227  12.348
94829W        W63302  31.424  37.875  11.929
94830W        W63303  28.169  43.386  13.352
94831W        W63304  21.733  36.980   0.389
94832W        W63305   8.282  16.751   0.285
94833W        W63306  29.650   1.318  14.928
94834W        W63307   1.926  28.165  13.935
94835W        W63308  25.650  18.788   5.222
94836W        W63309  24.119  44.835   3.654
94837W        W63310  22.071  15.109   0.451
94838W        W63311   0.349  39.850  14.873
94839W        W63312   6.341  13.154   0.876
94840W        W63313  33.416  14.247   1.736
94841W        W63314  35.106  34.919   1.713
94842W        W63315  15.810  17.757   2.289
94843W        W63316  15.733  24.716   1.768
94844W        W63317  31.415  39.981   2.871
94845W        W63318   7.346  31.007  13.844
94846W        W63319  18.646  37.574  10.532
94847W        W63320  41.848  27.035  13.369
94848W        W63321  24.069  34.036  14.010
94849W        W63322  17.788   7.183   2.320
94850W        W63323  13.260  12.357   1.448
94851W        W63324  40.970  39.831  14.316
94852W        W63325  35.361  18.668   3.827
94853W        W63326  11.129  10.330  10.895
94854W        W63327  12.639   3.844   3.811
94855W        W63328  22.122  43.960  12.072
94856W        W63329   9.740   2.831   2.356
94857W        W63330  20.086   5.716   4.804
94858W        W63331  41.905  32.395  12.043
94859W        W63332  25.067  25.623  12.424
94860W        W63333   0.901  12.284  13.529
94861W        W63334   9.386  11.701  13.809
94862W        W63335  41.317  11.672   3.694
94863W        W63336   9.719  27.175  14.290
94864W        W63337  27.978  26.563   4.120
94865W        W63338  44.846   0.971  11.593
94866W        W63339  32.033  42.513  13.885
94867W        W63340  23.995  20.564   0.387
94868W        W63341  18.098   3.737  13.899
94869W        W63342  42.524  20.079  14.366
94870W        W63343   1.432  43.893  11.381
94871W        W63344  27.070   0.953  11.072
94872W        W63345  15.670  23.588   1.442
94873W        W63346   9.819  18.782  10.418
94874W        W63347   0.398  21.259   4.725
94875W        W63348  25.995   3.954   0.937
94876W        W63349  37.041   5.689   3.257
94877W        W63350  35.442  15.611   3.257
94878W        W63351  12.320  39.953  14.467
94879W        W63352  18.073  12.250   2.742
94880W        W63353  16.756  43.909  11.099
94881W        W63354   4.803  12.234   3.200
94882W        W63355  39.545   6.831  14.374
94883W        W63356  33.394  32.087  11.596
94884W        W63357  33.014  21.589   4.279
94885W        W63358  39.851  13.138  11.905
94886W        W63359  37.025  11.363   3.854
94887W        W63360  20.654  18.696   0.743
94888W        W63361  36.549  18.163   2.775
94889W        W63362   0.783  31.491   2.211
94890W        W63363  19.263   4.808   2.878
94891W        W63364  19.699   2.387  11.555
94892W        W63365  43.002  14.096  13.015
94893W        W63366  21.036   3.436   9.966
94894W        W63367  39.938  33.484  12.380
94895W        W63368  26.552  40.372  14.285
94896W        W63369  35.550   8.766  10.898
94897W        W63370   7.416   9.847  14.489
94898W        W63371  21.252   7.320   2.724
94899W        W63372  29.658  12.776  10.560
94900W        W63373  19.688   3.240  13.351
94901W        W63374  14.240  41.043  14.394
94902W        W63375  12.274   8.235  14.429
94903W        W63376   2.854  32.497   0.843
94904W        W63377  37.376  36.486  11.579
94905W        W63378  40.829  15.608   2.186
94906W        W63379  31.919  43.779   5.798
94907W        W63380  33.930   1.393   0.892
94908W        W63381  34.071   1.245  13.865
94909W        W63382  38.448  39.531   2.206
94910W        W63383  17.641  13.708   3.308
94911W        W63384  16.742  38.443   3.243
94912W        W63385   8.180  37.479   3.811
94913W        W63386  22.532  31.440  12.987
94914W        W63387  40.447  18.716   2.722
94915W        W63388   2.934  10.155   1.929
94916W        W63389   2.814  36.878  14.486
94917W        W63390  20.666  21.071  12.557
94918W        W63391  11.323  17.274  14.874
94919W        W63392  30.943  39.430  14.897
94920W        W63393  26.084  42.871   1.794
94921W        W63394   6.385  20.691   2.250
94922W        W63395  14.106  34.378  14.914
94923W        W63396   6.211  16.600  14.025
94924W        W63397   8.393  17.572   3.748
94925W        W63398  41.019  13.602  11.398
94926W        W63399  11.245  33.499  13.049
94927W        W63400  17.128  43.892   1.339
94928W        W63401   3.821  36.525  11.979
94929W        W63402  17.255  28.610   1.758
94930W        W63403   8.406  24.064  10.146
94931W        W63404  10.316  36.485   1.713
94932W        W63405  21.179  12.199  11.473
94933W        W63406   8.188  34.873   3.294
94934W        W63407   1.319  19.251  11.037
94935W        W63408  12.175  14.600  14.901
94936W        W63409  19.145  22.007  12.369
94937W        W63410  23.071  32.458   2.286
94938W        W63411  15.720  23.591   4.214
94939W        W63412  26.024   2.917  11.079
94940W        W63413  27.076  15.233  13.974
94941W        W63414  12.820  33.416  12.046
94942W        W63415  15.631  20.652   0.800
94943W        W63416  37.941  20.229   2.280
94944W        W63417  23.663  21.730   1.793
94945W        W63418  16.726  44.503  14.777
94946W        W63419   6.869  14.675   2.728
94947W        W63420  25.667  39.013   3.779
94948W        W63421  12.163  10.254  12.578
94949W        W63422  24.725  29.502  11.875
94950W        W63423  27.550  40.497   1.403
94951W        W63424  15.721  34.039  14.812
94952W        W63425  23.697  15.212   1.293
94953W        W63426  29.967  36.014   2.788
94954W        W63427  33.622  33.532  14.913
94955W        W63428  12.799  44.481  10.537
94956W        W63429  24.683   0.397   5.589
94957W        W63430  22.575  16.575   0.879
94958W        W63431  43.449  17.614  10.458
94959W        W63432  41.335  27.947  10.582
94960W        W63433   6.429   8.278   3.342
94961W        W63434  28.489  42.447   2.182
94962W        W63435   7.317  33.108   2.335
94963W        W63436  27.671  24.482  14.819
94964W        W63437  14.116  26.064   0.822
94965W        W63438  43.502   1.480  12.445
94966W        W63439   6.830  14.220   0.778
94967W        W63440   8.254  23.547  12.927
94968W        W63441  39.911  23.183  13.961
94969W        W63442  23.678  11.817  12.476
94970W        W63443  14.218   2.411  11.540
94971W        W63444  19.601   0.837   4.346
94972W        W63445  23.183  35.483   1.765
94973W        W63446  15.214  23.106  11.081
94974W        W63447  17.642  17.707   3.379
94975W        W63448  14.201   1.399  12.461
94976W        W63449  38.439  40.831   1.441
94977W        W63450  28.658  28.555   1.386
94978W        W63451  42.805  25.583  14.395
94979W        W63452   5.778  32.104   4.808
94980W        W63453   3.834   3.873  10.512
94981W        W63454  11.287  20.192  14.427
94982W        W63455  14.666   5.245  10.964
94983W        W63456  22.696  35.472  12.051
94984W        W63457  22.744  27.504  11.927
94985W        W63458   6.385   4.796   5.726
94986W        W63459  33.560  20.756   1.306
94987W        W63460  10.353  43.959  13.501
94988W        W63461   3.419  23.012  13.988
94989W        W63462   7.717  33.600  10.508
94990W        W63463  37.402  27.458  14.965
94991W        W63464  19.653  25.063  13.511
94992W        W63465  10.815   4.770  11.104
94993W        W63466  29.965   8.262   2.216
94994W        W63467  41.320  37.518   2.201
94995W        W63468  35.925   9.384   2.891
94996W        W63469  38.043  35.425  12.897
94997W        W63470  29.491  20.259   1.319
94998W        W63471  29.066  20.263  11.995
94999W        W63472  41.534   8.768  14.822
95000W        W63473   7.763  26.993   1.732
95001W        W63474  14.729  43.450  12.091
95002W        W63475  11.728  36.001   1.374
95003W        W63476  21.141  32.121  11.551
95004W        W63477  29.060  31.123  14.947
95005W        W63478  36.995   3.278   5.268
95006W        W63479  44.863  30.491  11.405
95007W        W63480  31.523  33.530  13.889
95008W        W63481   5.277   6.873  13.500
95009W        W63482  11.264  21.174  10.095
95010W        W63483   5.792   4.882  12.051
95011W        W63484  19.638  11.653   4.161
95012W        W63485   2.353   7.188  11.587
95013W        W63486  37.562  26.147  10.005
95014W        W63487  24.500  39.039  13.969
95015W        W63488  24.979   0.847  12.490
95016W        W63489   3.233  36.888  10.100
95017W        W63490  14.117  37.852   0.247
95018W        W63491  13.154  37.959   2.362
95019W        W63492  38.016  21.093   1.707
95020W        W63493  24.161   5.744  10.068
95021W        W63494  36.375  22.625  13.895
95022W        W63495  17.253  28.999   1.880
95023W        W63496  44.848  25.097  10.405
95024W        W63497  22.099  14.648  14.978
95025W        W63498  28.624   8.838  12.944
95026W        W63499  18.777  24.499   4.619
95027W        W63500  35.477  16.082  12.863
95028W        W63501  26.059  24.170  14.390
95029W        W63502  11.130   2.359  14.850
95030W        W63503  35.396  22.603   2.351
95031W        W63504  25.621  36.561  14.448
95032W        W63505  29.158  38.460   0.867
95033W        W63506  36.420   3.901   4.244
95034W        W63507  44.989  16.592   4.819
95035W        W63508  33.919  37.402  11.040
95036W        W63509   0.872  24.138  14.864
95037W        W63510  13.818  35.891   1.385
95038W        W63511  21.197  11.132   0.850
95039W        W63512  34.121   5.765   4.812
95040W        W63513  31.081   2.468   3.734
95041W        W63514  11.655  44.897   1.431
95042W        W63515   1.780  25.004  11.981
95043W        W63516  28.628   7.303   4.645
95044W        W63517  23.617  25.611  11.995
95045W        W63518  30.635  29.114  11.612
95046W        W63519   1.336  41.470   0.808
95047W        W63520   3.430  44.329   2.885
95048W        W63521  37.921  22.745   3.255
95049W        W63522   1.935   7.417  12.905
95050W        W63523   9.763  38.347  11.900
95051W        W63524  27.462   2.817  11.892
95052W        W63525   2.816  36.578  13.535
95053W        W63526  29.647  23.583   5.606
95054W        W63527  10.225   6.400   2.844
95055W        W63528  38.004  15.818  13.365
95056W        W63529  44.847   7.860   2.349
95057W        W63530  29.120  24.543   9.984
95058W        W63531  19.545  42.897   4.144
95059W        W63532  37.018   5.897  13.416
95060W        W63533  38.934  32.441   0.956
95061W        W63534   2.385  27.168   3.201
95062W        W63535   1.858  35.467  12.580
95063W        W63536   2.361  44.448  13.908
95064W        W63537  25.024   4.871   2.401
95065W        W63538  30.577  37.474   0.749
95066W        W63539   0.256  11.854  12.362
95067W        W63540   0.859  25.610  12.497
95068W        W63541  31.919  16.140  13.463
95069W        W63542  16.199  36.089  14.979
95070W        W63543   0.762  34.903  11.046
95071W        W63544  17.789  18.132  11.929
95072W        W63545   4.825  23.234   1.762
95073W        W63546  19.679  15.743   4.182
95074W        W63547  32.583  19.761   3.214
95075W        W63548  39.883  37.406   4.819
95076W        W63549  37.389  21.083  12.991
95077W        W63550  27.159  21.137  11.473
95078W        W63551   6.425  37.522   1.219
95079W        W63552  24.114   4.330   1.761
95080W        W63553  17.290  39.882   5.565
95081W        W63554  15.823  43.357   4.688
95082W        W63555  33.088  30.514   4.635
95083W        W63556  17.609  31.057  10.431
95084W        W63557  35.085  41.853  11.111
95085W        W63558   0.472  26.483  14.777
95086W        W63559   2.800  28.963   3.175
95087W        W63560  34.081  19.171   2.787
95088W        W63561  32.636  41.804   0.397
95089W        W63562   1.886  20.704   4.284
95090W        W63563  30.029  39.379   0.386
95091W        W63564  33.037  18.284  12.063
95092W        W63565  12.223  40.817  11.454
95093W        W63566  41.349   9.384   4.615
95094W        W63567  32.066  39.886   2.773
95095W        W63568  32.574  26.643   2.683
95096W        W63569  25.028  24.139   1.834
95097W        W63570   8.655  10.721   3.197
95098W        W63571  15.090  30.154   1.797
95099W        W63572  14.718  27.617   2.343
95100W        W63573   5.750  43.798   0.391
95101W        W63574  10.147  25.595  13.532
95102W        W63575  21.557  12.173   0.401
95103W        W63576  25.506  34.046   3.291
95104W        W63577  20.590  42.842  12.365
95105W        W63578  24.531  21.734  14.930
95106W        W63579  40.446  25.532   2.674
95107W        W63580  14.653  14.253   3.254
95108W        W63581  43.984  30.109   4.697
95109W        W63582   5.869  17.734   3.726
95110W        W63583  17.285  21.529   0.863
95111W        W63584   7.226   6.210   1.219
95112W        W63585  26.206  13.842  12.528
95113W        W63586  42.405  43.862   2.269
95114W        W63587  22.061  33.922  13.025
95115W        W63588  39.808  36.867   4.275
95116W        W63589  21.175  35.581   1.325
95117W        W63590  24.607  42.855   3.646
95118W        W63591  26.114   0.453   4.259
95119W        W63592  17.101   0.792  12.471
95120W        W63593  18.778   7.818  12.347
95121W        W63594   7.234   3.820   4.699
95122W        W63595  43.347  26.019   3.295
95123W        W63596  23.988   3.936  12.471
95124W        W63597  13.754  38.448   4.333
95125W        W63598   8.813   8.399  12.013
95126W        W63599   2.279  28.522  11.581
95127W        W63600   8.753  10.207   3.640
95128W        W63601  24.555  32.142  13.906
95129W        W63602  25.522  31.040   2.235
95130W        W63603  43.488  38.891   2.183
95131W        W63604   6.261  35.897   0.916
95132W        W63605  32.635  43.339   0.480
95133W        W63606  42.353  36.452  13.983
95134W        W63607  29.608  35.434   0.295
95135W        W63608  32.043  42.391   3.683
95136W        W63609   7.860  18.779   5.302
95137W        W63610   4.337  16.257   5.272
95138W        W63611   0.293  32.130   0.866
95139W        W63612  43.269  29.088   4.615
95140W        W63613  25.055   6.356  12.474
95141W        W63614  42.412  31.028  12.853
95142W        W63615  39.850  28.948  13.488
95143W        W63616  33.430  20.100  11.454
95144W        W63617  43.772  37.420   3.799
95145W        W63618  14.327  29.553   3.347
95146W        W63619  41.386  27.960   1.778
95147W        W63620   5.267  21.572  11.904
95148W        W63621  12.800  18.050   2.814
95149W        W63622  27.015  35.533   1.389
95150W        W63623  15.805  13.236   0.316
95151W        W63624  31.513  11.290  10.982
95152W        W63625   6.192   1.268  12.094
95153W        W63626   0.899  28.142   3.241
95154W        W63627  19.092  10.725  12.382
95155W        W63628  19.257  28.051  11.453
95156W        W63629  23.034   0.379   2.786
95157W        W63630  40.399   1.479   2.761
95158W        W63631  39.040  22.110  14.823
95159W        W63632   5.427  16.235  12.351
95160W        W63633   5.232  27.505   2.720
95161W        W63634   0.953  37.475  10.121
95162W        W63635  13.314   4.342  14.832
95163W        W63636  40.401  20.565   0.418
95164W        W63637  38.930  31.037  11.042
95165W        W63638  42.014  12.646  11.936
95166W        W63639  18.612  37.983  13.366
95167W        W63640  40.492   7.181  11.870
95168W        W63641  40.510  15.597  14.021
95169W        W63642  14.136   4.433   1.401
95170W        W63643  37.847   5.215   4.152
95171W        W63644  20.235  42.523  14.440
95172W        W63645  23.674  44.817   1.375
95173W        W63646   3.828   6.730  10.450
95174W        W63647  40.811  36.922   4.115
95175W        W63648  41.873  19.085  12.960
95176W        W63649  13.740  35.898   2.261
95177W        W63650  17.143  34.561  14.290
95178W        W63651  39.043   5.879   3.809
95179W        W63652  14.806  18.086   1.211
95180W        W63653  25.088  34.007  11.454
95181W        W63654  43.815   5.292  10.980
95182W        W63655  43.928  43.354   2.864
95183W        W63656  38.963  15.763   5.312
95184W        W63657  25.121  12.280   1.710
95185W        W63658   9.737   2.800  13.521
95186W        W63659   1.902  27.084  11.091
95187W        W63660   5.829  15.225   3.746
95188W        W63661  17.159  36.998   4.752
95189W        W63662  26.008  41.391  13.863
95190W        W63663  29.583  24.707  13.972
95191W        W63664  27.043  16.605   4.677
95192W        W63665   1.478  28.111  13.888
95193W        W63666   1.890   6.900  12.028
95194W        W63667  20.117  40.884  13.368
95195W        W63668  41.941  33.911   3.192
95196W        W63669  14.765   0.805   0.894
95197W        W63670  37.047  29.989  14.937
95198W        W63671   4.440  20.270   0.826
95199W        W63672   1.968   0.931  12.833
95200W        W63673   5.346  42.349  14.022
95201W        W63674  24.028   1.239   3.287
95202W        W63675  13.201   9.356  13.968
95203W        W63676  37.857  14.600  14.508
95204W        W63677  32.467  33.486   0.886
95205W        W63678  33.897  23.552   2.316
95206W        W63679  22.042  34.991  11.535
95207W        W63680  37.940  43.343   1.353
95208W        W63681  25.180  10.276  13.309
95209W        W63682   5.874  37.469  10.519
95210W        W63683  21.121  15.113  14.418
95211W        W63684   3.948  13.618   1.849
95212W        W63685   1.419  27.092   1.794
95213W        W63686  44.307  44.897   4.247
95214W        W63687  10.805  30.618   2.317
95215W        W63688  32.536  24.538   2.308
95216W        W63689  26.963  22.577   0.440
95217W        W63690  17.672  23.173  12.578
95218W        W63691  41.422  34.391   1.698
95219W        W63692  17.165  19.117   0.816
95220W        W63693  23.131  13.835  13.977
95221W        W63694  24.556  36.871  12.914
95222W        W63695  11.303  41.307  13.363
95223W        W63696  22.657  21.027   5.248
95224W        W63697  44.417  10.789   1.839
95225W        W63698  21.037   3.924   0.251
95226W        W63699   9.313  22.221   3.673
95227W        W63700  38.012  12.817   0.290
95228W        W63701  41.295  19.078  11.003
95229W        W63702  36.430  32.616  13.985
95230W        W63703  40.355  12.674   2.271
95231W        W63704  12.196  42.414  12.465
95232W        W63705  23.652   4.317  11.033
95233W        W63706  38.404  37.877   2.341
95234W        W63707  39.522  28.680  12.844
95235W        W63708  22.588   5.689  14.344
95236W        W63709  41.481   1.773   1.228
95237W        W63710  10.306  11.684   3.332
95238W        W63711  44.386   8.326   2.811
95239W        W63712  41.874   4.229   0.847
95240W        W63713  24.063   8.888  10.545
95241W        W63714  22.232  41.391   2.182
95242W        W63715   1.342  41.878   2.827
95243W        W63716   5.293   1.772  14.391
95244W        W63717  32.016  18.663   0.318
95245W        W63718   9.255  15.328  13.053
95246W        W63719   1.307  22.589   2.707
95247W        W63720  25.513  42.395  12.030
95248W        W63721  36.856   1.462  14.026
95249W        W63722   4.389   2.904  14.027
95250W        W63723  38.940  20.527   1.695
95251W        W63724   8.318   3.717  12.002
95252W        W63725  41.508  14.822   3.820
95253W        W63726  20.708  34.970   0.342
95254W        W63727   6.365  26.093  11.975
95255W        W63728  21.061   1.389   2.262
95256W        W63729  24.163  43.992   4.150
95257W        W63730  40.513  19.054   2.355
95258W        W63731  27.607  14.755   0.889
95259W        W63732  20.660  22.720  13.862
95260W        W63733   2.312   2.248  14.324
95261W        W63734   7.840  15.694  14.896
95262W        W63735  29.933  10.841   2.869
95263W        W63736  11.195  22.055  13.382
95264W        W63737  28.493   9.737   2.236
95265W        W63738  14.329  23.061   2.789
95266W        W63739   4.268  14.775  11.558
95267W        W63740  17.178  23.085   3.685
95268W        W63741  15.229  42.777   3.269
95269W        W63742  21.608   2.812   0.455
95270W        W63743  20.096  30.966   2.281
95271W        W63744  39.850  14.204  10.610
95272W        W63745  28.956   3.940   4.162
95273W        W63746  33.888  30.524  12.871
95274W        W63747  42.495  31.936   0.346
95275W        W63748  23.208  36.061   2.321
95276W        W63749  28.145  26.469   1.259
95277W        W63750  41.001   7.764   3.171
95278W        W63751   8.832  37.957  11.899
95279W        W63752  41.476  13.210   2.836
95280W        W63753  30.543  28.113   2.902
95281W        W63754   3.399  39.931   1.334
95282W        W63755  25.684   2.331  13.397
95283W        W63756  19.729  20.169   2.220
95284W        W63757  25.083  33.524  13.981
95285W        W63758  44.307  42.822   3.685
95286W        W63759   9.346   2.870  12.829
95287W        W63760  11.371  40.488   0.907
95288W        W63761  25.658  12.612   2.356
95289W        W63762  15.597   3.406   3.764
95290W        W63763   2.863  17.716   2.833
95291W        W63764  39.902  21.565   1.298
95292W        W63765  14.607  15.292  11.116
95293W        W63766  18.719  36.524   0.894
95294W        W63767  21.629  10.649  13.997
95295W        W63768   4.365  29.060   3.196
95296W        W63769  30.572  44.471   3.767
95297W        W63770  16.119  19.059  10.476
95298W        W63771  23.665  28.462   2.373
95299W        W63772  13.601  16.792   1.931
95300W        W63773   6.334  39.972  14.898
95301W        W63774  36.097   3.436  11.912
95302W        W63775  34.062  39.810   2.326
95303W        W63776  25.622  14.702  11.077
95304W        W63777  22.134  27.668  10.595
95305W        W63778   5.891  34.027   4.350
95306W        W63779   1.859  27.534   2.795
95307W        W63780   7.365  41.334  14.816
95308W        W63781  15.195   1.296   1.221
95309W        W63782   1.913  31.132   1.925
95310W        W63783  43.455  44.393   1.256
95311W        W63784  43.300  20.549   0.959
95312W        W63785   1.423  28.049   2.322
95313W        W63786  25.053   6.299   3.308
95314W        W63787  31.085  12.753  13.418
95315W        W63788  15.774  14.195   4.793
95316W        W63789  25.611   8.814  10.069
95317W        W63790  20.526  10.196  11.608
95318W        W63791  38.439  19.570   4.831
95319W        W63792  42.378  13.217   2.662
95320W        W63793  18.620  38.423  14.407
95321W        W63794   5.354   6.907   3.841
95322W        W63795  39.996  25.567  10.592
95323W        W63796   5.741   2.872  13.421
95324W        W63797  11.155  29.145   3.177
95325W        W63798  43.284  38.825  11.014
95326W        W63799  13.766  35.856   3.786
95327W        W63800  10.813  25.141  12.379
95328W        W63801  42.978   1.745   0.473
95329W        W63802  41.434  39.835   3.782
95330W        W63803  11.745  44.461  14.969
95331W        W63804   0.917   3.272   2.832
95332W        W63805  42.992  20.264   5.225
95333W        W63806  32.077   6.923  14.856
95334W        W63807  38.997   3.248   4.786
95335W        W63808  39.417  41.878  10.529
95336W        W63809   7.765   3.261   4.727
95337W        W63810  10.862  41.455  13.921
95338W        W63811  19.179  16.747   2.338
95339W        W63812  43.848  20.711  12.454
95340W        W63813  19.640  44.965  10.632
95341W        W63814  35.419   1.340  14.368
95342W        W63815  12.620   1.376   2.780
95343W        W63816  43.390  40.880  14.471
95344W        W63817  25.188  11.738  12.519
95345W        W63818  10.348   3.289   0.847
95346W        W63819  15.154  21.751  12.070
95347W        W63820  12.286  23.496  12.443
95348W        W63821  21.031  23.502  10.952
95349W        W63822  40.531  30.609  11.468
95350W        W63823   5.320  29.126   3.843
95351W        W63824  44.819  14.597  14.297
95352W        W63825   3.753   1.955   2.844
95353W        W63826  43.428  44.838   2.291
95354W        W63827  41.020  17.104   2.338
95355W        W63828   5.845  36.065   1.434
95356W        W63829  32.621  34.117  11.973
95357W        W63830  23.201  36.851   4.283
95358W        W63831   0.933   2.859  11.488
95359W        W63832  23.723   6.829  13.815
95360W        W63833  27.635  35.473  13.921
95361W        W63834   9.180   7.886   2.668
95362W        W63835  43.383  22.074   3.153
95363W        W63836   1.319   7.399  11.937
95364W        W63837  26.028   1.393   5.102
95365W        W63838  20.732   8.382  14.477
95366W        W63839  34.107   7.339  10.578
95367W        W63840  22.127   7.344   0.805
95368W        W63841   3.917   1.976  13.479
95369W        W63842  35.938  40.500   0.304
95370W        W63843  38.356  12.612   2.824
95371W        W63844  12.199  14.683  13.014
95372W        W63845  24.162  32.503   4.137
95373W        W63846  24.038  43.285  11.076
95374W        W63847  23.136  12.772   3.709
95375W        W63848  43.898  38.445   3.713
95376W        W63849  36.582  43.854   3.240
95377W        W63850  18.759  10.640  14.362
95378W        W63851  41.326  19.273  12.006
95379W        W63852  42.841  38.942   3.712
95380W        W63853  31.126  33.945  11.584
95381W        W63854  31.980  20.767  13.842
95382W        W63855   9.246   3.409   4.617
95383W        W63856  36.039  21.551   1.712
95384W        W63857  43.768  27.686   2.195
95385W        W63858  43.792  14.178  12.518
95386W        W63859  42.870  37.541   3.668
95387W        W63860  38.040  40.844   4.734
95388W        W63861  34.967  30.636  10.968
95389W        W63862  44.953  25.125  12.424
95390W        W63863  37.507  25.493   2.771
95391W        W63864   9.858  24.700   4.304
95392W        W63865   5.376   7.844  11.379
95393W        W63866  39.814  15.293   4.782
95394W        W63867  13.109   0.782   3.343
95395W        W63868  35.932  39.998   1.399
95396W        W63869   0.871   7.848  13.349
95397W        W63870  31.416  41.314  12.350
95398W        W63871  27.135  18.705  13.442
95399W        W63872  23.594  26.096   4.604
95400W        W63873   2.767  23.119   2.262
95401W        W63874  37.984  42.503   2.240
95402W        W63875   9.822   9.154  10.902
95403W        W63876  22.184  31.958  10.913
95404W        W63877   8.840  26.020   3.342
95405W        W63878  25.983   8.845   0.419
95406W        W63879  16.085   8.165   3.749
95407W        W63880  41.846  19.200  13.336
95408W        W63881  29.137  30.138   1.711
95409W        W63882  29.000   9.267   3.637
95410W        W63883   9.839   6.400  10.436
95411W        W63884   3.733   1.471   3.291
95412W        W63885  38.543   4.920   2.805
95413W        W63886  21.223  34.061   5.222
95414W        W63887  35.857   1.242  13.319
95415W        W63888  31.920  39.924  14.402
95416W        W63889  24.192  13.719  10.116
95417W        W63890  12.154   2.868   1.221
95418W        W63891  12.758  13.349  11.913
95419W        W63892  17.278  42.899   1.394
95420W        W63893  32.548  34.424   5.153
95421W        W63894  24.976  38.860  14.954
95422W        W63895  23.510  42.511  10.539
95423W        W63896  36.380  10.786   1.908
95424W        W63897  29.984  17.572  13.920
95425W        W63898  16.117  11.728  14.928
95426W        W63899   0.451   1.848   1.263
95427W        W63900  23.986  38.500   1.766
95428W        W63901  28.558  23.530  11.411
95429W        W63902   5.931  10.723  13.006
95430W        W63903  36.491  36.945  10.644
95431W        W63904  15.727  20.080  11.468
95432W        W63905   2.747  24.652  10.486
95433W        W63906  22.104  32.092   3.183
95434W        W63907  34.045  35.044  13.849
95435W        W63908  44.996  37.043  12.924
95436W        W63909   3.853  28.956  13.813
95437W        W63910   6.818   7.909  11.065
95438W        W63911  44.763  24.125   3.726
95439W        W63912  33.128   0.763  14.849
95440W        W63913   7.209  24.084  12.921
95441W        W63914   3.809  15.192  14.771
95442W        W63915  31.463  16.787   2.239
95443W        W63916  12.361  32.598   0.330
95444W        W63917  18.549  29.089  10.494
95445W        W63918   1.861  18.780  11.388
95446W        W63919  30.422  27.569  11.397
95447W        W63920  14.605   3.234  12.034
95448W        W63921  14.825   0.932   4.726
95449W        W63922   4.446  12.332  13.008
95450W        W63923   4.843  11.164   4.200
95451W        W63924   0.932  34.865   2.854
95452W        W63925  36.539  26.514   3.798
95453W        W63926  28.019  13.786   0.752
95454W        W63927  36.941  35.925  12.937
95455W        W63928  39.913  21.642   3.263
95456W        W63929  31.021  38.912   3.204
95457W        W63930  14.730  31.480  14.831
95458W        W63931  21.591  32.555   2.306
95459W        W63932  32.896  44.364  13.373
95460W        W63933   7.782   0.882   4.311
95461W        W63934  25.492  32.991   0.287
95462W        W63935  36.891  39.921  14.884
95463W        W63936  27.497  34.101   4.693
95464W        W63937  26.537  15.651   5.228
95465W        W63938   0.787  37.905   1.315
95466W        W63939  13.644  19.285  10.464
95467W        W63940  34.061   0.479   0.420
95468W        W63941   5.266  14.141   0.890
95469W        W63942  43.339  24.201  13.844
95470W        W63943  32.988   5.786  14.001
95471W        W63944  42.880  31.487   4.248
95472W        W63945   0.747  23.018   2.894
95473W        W63946  18.231  44.832  11.991
95474W        W63947   4.715  31.594  10.469
95475W        W63948   0.846  29.982  11.885
95476W        W63949   7.231  42.372   1.787
95477W        W63950   5.902   8.734  14.432
95478W        W63951  21.678  25.217   4.282
95479W        W63952  35.868   8.720   4.131
95480W        W63953  21.702  33.033   0.468
95481W        W63954  12.127  37.986  11.021
95482W        W63955  24.035  35.571  14.911
95483W        W63956  12.625  25.123  12.053
95484W        W63957  44.496   8.784   3.674
95485W        W63958  20.090   4.906   0.442
95486W        W63959  10.320  36.907   3.709
95487W        W63960  13.193  15.644   2.821
95488W        W63961  25.965  30.415   2.212
95489W        W63962  12.145  36.362   0.854
95490W        W63963  29.961  22.117   4.284
95491W        W63964  16.277  10.760   2.267
95492W        W63965  11.145  29.463   1.863
95493W        W63966   7.271  44.298   4.123
95494W        W63967   1.237  28.588  10.445
95495W        W63968  13.189   2.929  13.819
95496W        W63969  16.699  25.962   4.811
95497W        W63970  16.287  24.720  11.972
95498W        W63971  41.438   3.945  14.866
95499W        W63972   2.863  11.820   4.612
95500W        W63973   4.419  34.391   1.382
95501W        W63974   8.657  34.438  10.908
95502W        W63975  38.385   5.388  10.626
95503W        W63976  35.039   1.922  10.943
95504W        W63977  43.317  34.917   4.134
95505W        W63978  39.899   4.938  14.006
95506W        W63979  41.931  24.632   1.278
95507W        W63980  12.330  40.834  14.802
95508W        W63981  18.055  11.862   0.929
95509W        W63982  35.488  15.180  11.056
95510W        W63983  42.921  35.412   2.379
95511W        W63984  28.033   3.408  11.384
95512W        W63985  26.562  14.277   4.263
95513W        W63986  28.553   8.880  11.598
95514W        W63987  11.324  12.845  14.850
95515W        W63988  16.127   7.695   1.872
95516W        W63989  16.251   0.978  12.903
95517W        W63990  16.612  30.431  11.941
95518W        W63991  13.237  16.129   2.357
95519W        W63992  31.550  14.631   3.772
95520W        W63993  16.161   1.767  10.959
95521W        W63994  39.374  19.221  10.460
95522W        W63995  19.193   4.915  10.567
95523W        W63996   9.162  18.260   3.224
95524W        W63997  35.573   6.259   0.915
95525W        W63998  44.902   7.862  12.543
95526W        W63999  31.542  14.306   1.795
95527W        W64000  31.004  41.021   3.279
95528W        W64001  10.343   9.166   1.877
95529W        W64002  29.100  39.012   0.868
95530W        W64003  13.692  26.538  11.459
95531W        W64004   6.341  44.264  10.030
95532W        W64005  30.617  14.751   2.335
95533W        W64006  30.103  22.726   2.192
95534W        W64007   7.409  25.119   0.755
95535W        W64008   9.153  38.564  10.981
95536W        W64009  11.713  28.612   0.906
95537W        W64010  42.867   9.324   0.917
95538W        W64011   1.478  13.823   3.776
95539W        W64012  10.380  31.444  11.074
95540W        W64013   7.216  37.502   4.209
95541W        W64014  15.613   7.392   1.910
95542W        W64015  17.673  28.534   0.727
95543W        W64016  19.760   0.987   0.929
95544W        W64017  35.547  15.087   4.800
95545W        W64018  22.108  17.586  11.975
95546W        W64019  35.515   5.696  10.925
95547W        W64020  15.813  24.230  12.381
95548W        W64021  20.538  19.558  11.515
95549W        W64022  27.596  40.978   1.446
95550W        W64023   7.729  35.859  13.811
95551W        W64024  14.631  39.921  13.891
95552W        W64025  20.050   8.211  11.066
95553W        W64026  37.004  41.450   3.269
95554W        W64027  32.953   7.912   3.778
95555W        W64028  34.940  15.639   3.173
95556W        W64029  13.674  38.013  12.934
95557W        W64030   1.304   0.940   4.745
95558W        W64031   9.232  11.838   1.260
95559W        W64032  17.249  34.017  12.440
95560W        W64033  39.559  38.527   2.339
95561W        W64034  17.748  17.618   3.646
95562W        W64035  28.441  17.300  13.501
95563W        W64036  35.499  22.645   0.316
95564W        W64037  21.582  18.579   0.798
95565W        W64038  22.531   8.680  12.458
95566W        W64039   0.477  28.603   3.337
95567W        W64040  26.557   8.240  13.060
95568W        W64041  20.124  13.263   3.638
95569W        W64042  24.701  26.658   1.759
95570W        W64043  27.015   3.906   1.411
95571W        W64044   0.889  14.794  13.443
95572W        W64045  21.513  15.248  10.027
95573W        W64046  40.033  27.593   2.870
95574W        W64047  19.199  37.426  11.099
95575W        W64048  28.483   2.470  14.512
95576W        W64049  26.666  34.500  14.960
95577W        W64050  25.211  37.850  13.860
95578W        W64051  31.536  16.767  10.448
95579W        W64052  14.235   4.921  13.499
95580W        W64053  31.133   0.816  13.807
95581W        W64054  25.517   2.460   2.404
95582W        W64055   3.875  14.718  10.617
95583W        W64056  35.484  19.759  10.606
95584W        W64057  31.997  10.727  12.959
95585W        W64058  35.886  24.641   2.318
95586W        W64059  39.520  20.682   2.274
95587W        W64060  43.927   8.680  12.417
95588W        W64061   5.714  15.696   4.774
95589W        W64062  33.451   8.660   4.317
95590W        W64063  42.979  29.154   3.803
95591W        W64064  37.472  10.337  13.374
95592W        W64065  17.716  14.593   1.415
95593W        W64066   8.768  35.912  12.517
95594W        W64067   5.703  30.942  10.957
95595W        W64068  27.018  23.526  11.534
95596W        W64069   6.209  16.633   2.356
95597W        W64070   3.359   1.391  10.607
95598W        W64071  21.688  44.483   4.185
95599W        W64072   9.186  19.039   2.665
95600W        W64073  43.397  16.639  10.434
95601W        W64074  29.088  28.032   2.238
95602W        W64075   7.894   9.386   1.216
95603W        W64076  10.274  31.624   4.211
95604W        W64077  27.510  34.547  10.527
95605W        W64078  38.382  39.434  11.541
95606W        W64079  28.454  11.683   0.876
95607W        W64080  41.422  34.881   2.700
95608W        W64081  18.103  18.113  14.303
95609W        W64082  30.994  25.042  12.419
95610W        W64083   1.848  42.460   2.870
95611W        W64084  36.859  41.515   1.242
95612W        W64085  12.183  16.298   0.326
95613W        W64086  21.522   9.359  13.064
95614W        W64087  20.721  42.518  10.972
95615W        W64088  35.860  44.403  13.860
95616W        W64089   6.362  25.626  13.370
95617W        W64090  33.472  19.066  13.317
95618W        W64091   7.295  33.005  11.602
95619W        W64092  36.097  29.463   3.831
95620W        W64093  36.003  36.844   3.704
95621W        W64094  35.929   8.264  13.855
95622W        W64095  24.034  29.666   3.811
95623W        W64096   1.404  11.642  14.404
95624W        W64097  42.944  16.092   0.355
95625W        W64098  10.299  16.274  12.078
95626W        W64099  29.166  31.560   2.405
95627W        W64100  43.849  10.646   0.269
95628W        W64101  11.724  19.685   3.205
95629W        W64102   7.676  24.127   2.403
95630W        W64103  40.375   5.758   4.119
95631W        W64104  35.465  37.512   3.255
95632W        W64105   0.774  17.617  12.502
95633W        W64106  40.814  18.581  14.907
95634W        W64107  12.799  25.107   0.891
95635W        W64108   2.815  41.861   4.823
95636W        W64109  40.419  40.331  12.349
95637W        W64110   1.309  22.585  12.044
95638W        W64111   5.704  15.706   3.817
95639W        W64112  24.571  36.477   0.746
95640W        W64113   3.718  16.641  10.435
95641W        W64114   9.867  15.633   0.768
95642W        W64115  38.457  30.038   1.714
95643W        W64116   3.859  13.768   0.480
95644W        W64117  42.924  23.516   1.821
95645W        W64118  27.682  20.242   2.803
95646W        W64119  22.117  36.375  14.907
95647W        W64120  38.360  31.013   3.373
95648W        W64121  28.510  24.667   4.617
95649W        W64122  15.790  40.410   4.714
95650W        W64123   5.824  20.155  13.829
95651W        W64124  31.404  14.172   3.828
95652W        W64125  41.931  22.610  10.413
95653W        W64126  41.520   2.256  11.507
95654W        W64127  41.816   8.329   2.675
95655W        W64128  20.194  20.226  12.930
95656W        W64129   5.710  36.903   2.752
95657W        W64130   7.829  15.291  14.277
95658W        W64131  34.574  39.005   1.924
95659W        W64132  27.171  27.964   2.236
95660W        W64133  23.561  22.222   3.245
95661W        W64134   4.869  12.678   1.269
95662W        W64135  39.863   4.942   3.821
95663W        W64136  25.216   8.250  10.972
95664W        W64137  11.185  26.148   0.942
95665W        W64138  10.662  40.393  14.855
95666W        W64139  20.028  11.711   3.830
95667W        W64140  32.963  41.488   2.881
95668W        W64141  17.123   5.222   3.245
95669W        W64142   5.840  34.564  13.828
95670W        W64143  10.754  24.166  13.044
95671W        W64144  39.026  16.286  13.010
95672W        W64145  13.292   6.311  12.958
95673W        W64146  15.593  34.960  12.468
95674W        W64147  34.049  23.551   4.275
95675W        W64148  15.188  27.540   0.915
95676W        W64149  44.320  44.992  14.812
95677W        W64150  24.176  19.599   3.674
95678W        W64151  30.975  21.739  11.080
95679W        W64152  29.160  26.647  10.405
95680W        W64153   7.312   6.359   5.169
95681W        W64154  44.263   1.256  12.542
95682W        W64155  44.354  15.761  11.602
95683W        W64156   1.896  39.961   4.347
95684W        W64157  13.828  17.084   2.418
95685W        W64158  14.244   9.202  12.065
95686W        W64159  16.087  23.494  10.965
95687W        W64160  13.764  13.648   2.223
95688W        W64161  41.974   3.454   4.160
95689W        W64162  41.489  36.896   4.717
95690W        W64163  24.703  23.215  12.092
95691W        W64164  23.528   8.888   0.813
95692W        W64165  30.961  14.604   3.642
95693W        W64166  28.666  35.874  12.829
95694W        W64167  16.732  37.061  14.775
95695W        W64168  36.453  15.328   3.693
95696W        W64169   4.739   0.350   2.841
95697W        W64170  13.341  15.174   0.904
95698W        W64171  37.513  27.055   5.156
95699W        W64172  37.853   8.171   4.223
95700W        W64173   0.870   9.300  11.406
95701W        W64174  29.617  33.500   1.779
95702W        W64175  37.039   2.781   1.834
95703W        W64176  32.592  39.996  11.914
95704W        W64177  41.804  27.024  12.923
95705W        W64178  40.359  11.863   2.863
95706W        W64179  36.908  19.153  12.846
95707W        W64180  18.148  31.460   4.167
95708W        W64181  22.109  18.596   1.336
95709W        W64182  38.520   9.303  11.097
95710W        W64183  23.502  39.456  13.063
95711W        W64184   3.820  22.672  11.521
95712W        W64185  32.091   8.177   1.845
95713W        W64186   2.948  37.965   1.798
95714W        W64187  44.933  41.924   4.657
95715W        W64188  44.297  16.201   1.354
95716W        W64189   6.775   8.775   1.363
95717W        W64190  37.422   0.959   1.899
95718W        W64191  17.216  22.613   5.153
95719W        W64192  26.575  35.560  10.626
95720W        W64193  12.840  40.031   4.750
95721W        W64194   1.797  19.608  13.965
95722W        W64195  43.492  27.180  12.432
95723W        W64196  35.600  38.000  14.415
95724W        W64197   5.229   9.344  13.814
95725W        W64198  27.009  28.475   1.399
95726W        W64199  35.954  26.655  12.463
95727W        W64200  33.976   3.855   2.370
95728W        W64201   3.231  19.172   1.332
95729W        W64202   5.901   8.162   3.319
95730W        W64203  40.335  33.099  10.909
95731W        W64204   9.650  30.568   3.353
95732W        W64205   4.445  25.542  12.839
95733W        W64206  32.438  30.568  13.460
95734W        W64207  27.174  15.191  11.017
95735W        W64208  36.901   9.234  10.618
95736W        W64209  19.283   2.942   3.272
95737W        W64210  25.126  35.958  14.019
95738W        W64211   9.721   8.358   0.856
95739W        W64212   6.344  15.114   4.330
95740W        W64213  12.296  13.760   2.726
95741W        W64214  33.047  18.274   3.272
95742W        W64215  42.527  42.007  12.090
95743W        W64216  40.873  13.667   4.701
95744W        W64217  28.473  34.967  12.924
95745W        W64218   1.845  19.277   0.300
95746W        W64219   9.858  25.676   3.177
95747W        W64220  13.646  39.377  11.508
95748W        W64221   8.756  34.067  14.833
95749W        W64222   6.315   5.746   0.416
95750W        W64223  41.425  22.086  10.548
95751W        W64224  37.575  18.746  14.409
95752W        W64225  18.713   9.288   2.687
95753W        W64226  31.074  21.572   4.752
95754W        W64227  31.037   1.459   3.664
95755W        W64228  41.800  37.013   4.749
95756W        W64229  21.088   0.758   2.710
95757W        W64230  36.935   5.754  14.992
95758W        W64231   3.838  32.510   2.818
95759W        W64232  36.995  14.248   3.698
95760W        W64233  31.601  37.378   4.215
95761W        W64234  33.453   0.827   0.421
95762W        W64235  35.401  24.507  13.384
95763W        W64236   5.413  24.499   3.330
95764W        W64237  41.958  22.195  10.414
95765W        W64238  27.603  18.127  14.987
95766W        W64239  15.223  19.712   1.286
95767W        W64240   6.887  22.995  10.963
95768W        W64241  23.496  31.509   0.280
95769W        W64242  24.055   8.684   4.656
95770W        W64243  17.143  10.776   4.668
95771W        W64244  35.408  26.135  14.025
95772W        W64245  31.509  22.122  12.441
95773W        W64246  13.814  25.601   3.360
95774W        W64247  28.626   0.857  14.888
95775W        W64248  14.750  22.226   3.826
95776W        W64249   2.468  26.124   4.224
95777W        W64250  16.075  38.948  14.454
95778W        W64251   3.915   8.239  10.546
95779W        W64252  44.874  25.131   5.167
95780W        W64253  22.568  42.956   0.444
95781W        W64254  23.223   0.308   3.356
95782W        W64255   6.305  39.999  12.383
95783W        W64256  21.105   8.386  14.960
95784W        W64257  11.701   1.402   4.740
95785W        W64258  33.048  19.118   4.799
95786W        W64259  13.638   5.409   4.172
95787W        W64260  25.195  27.095  11.502
95788W        W64261   8.823  18.629  12.480
95789W        W64262  36.547  32.433  12.563
95790W        W64263   1.241  30.148  11.018
95791W        W64264  13.703  19.700   3.803
95792W        W64265   0.949   0.857   5.083
95793W        W64266   2.423   0.404   4.152
95794W        W64267  30.939  13.158  12.974
95795W        W64268  44.769  27.949   0.865
95796W        W64269   1.893  26.061  13.007
95797W        W64270  19.097  31.013   4.778
95798W        W64271  31.532  19.218   3.765
95799W        W64272  38.993  24.214   0.939
95800W        W64273  42.339  28.061   0.327
95801W        W64274  16.241  15.292   4.646
95802W        W64275  13.264   4.303  13.869
95803W        W64276  12.135   1.898   0.857
95804W        W64277  41.296  13.138   1.881
95805W        W64278   0.980  14.174   0.736
95806W        W64279  24.996  43.796   2.294
95807W        W64280  16.640  15.667   0.798
95808W        W64281   0.858  29.974   1.757
95809W        W64282   6.408  24.178  10.418
95810W        W64283  25.593  40.914  12.048
95811W        W64284  26.468  26.205  10.463
95812W        W64285  41.828  29.529   3.692
95813W        W64286  33.090  33.011   3.152
95814W        W64287  41.495  29.625  11.908
95815W        W64288  13.186  39.059   4.152
95816W        W64289  40.325  25.108   1.812
95817W        W64290  31.616  25.571  13.510
95818W        W64291  28.659   2.859  12.889
95819W        W64292  10.344  39.950  11.422
95820W        W64293  16.134  19.594   4.768
95821W        W64294  34.101  31.923  10.482
95822W        W64295  31.906  10.810  10.958
95823W        W64296  33.607   2.292  11.884
95824W        W64297  38.348  32.043   4.234
95825W        W64298  11.192  36.535  11.112
95826W        W64299  21.102   2.228   3.869
95827W        W64300  13.323  34.370  12.381
95828W        W64301  17.105  16.298   0.458
95829W        W64302  25.612  43.452  13.423
95830W        W64303  33.040  33.036   4.660
95831W        W64304  15.587   2.763   4.138
95832W        W64305  13.146  34.368  13.863
95833W        W64306  16.284  44.920  13.523
95834W        W64307  37.538  23.145  12.479
95835W        W64308  44.269  38.062  14.395
95836W        W64309  33.933  37.537   0.856
95837W        W64310  33.400   5.735  14.365
95838W        W64311  11.319  25.042   1.866
95839W        W64312  30.116  30.946  10.938
95840W        W64313  43.424  29.595  11.503
95841W        W64314   4.804   1.788  11.527
95842W        W64315  21.611  19.079  11.974
95843W        W64316  34.003   9.191   0.832
95844W        W64317  35.914  39.506  10.475
95845W        W64318  40.995  32.399  14.364
95846W        W64319  17.120  39.411   3.762
95847W        W64320  31.570   0.885   2.399
95848W        W64321   8.251   7.291   2.181
95849W        W64322  37.929  37.862  13.845
95850W        W64323  10.727  33.385   0.422
95851W        W64324  38.492  11.350   2.246
95852W        W64325  32.071  26.554  12.449
95853W        W64326  17.192   1.850  12.015
95854W        W64327   0.294  25.028  11.466
95855W        W64328  10.666  19.537   2.665
95856W        W64329  29.466  34.401   3.351
95857W        W64330  42.899  28.477   3.371
95858W        W64331   7.870  31.610   0.307
95859W        W64332  32.114   4.758   2.226
95860W        W64333  41.521  14.329   3.722
95861W        W64334  18.655  44.376   3.675
95862W        W64335  11.824  21.583  10.437
95863W        W64336   9.273   1.325  12.845
95864W        W64337   3.913  34.869   4.326
95865W        W64338   3.874  24.027  10.013
95866W        W64339  11.282  37.910   2.181
95867W        W64340  20.172  33.041  11.122
95868W        W64341   6.241  11.329   0.288
95869W        W64342  27.997  39.332   1.736
95870W        W64343  31.605   2.375   1.228
95871W        W64344  27.561  14.643   1.757
95872W        W64345   3.937  38.963  12.497
95873W        W64346  18.645  26.172  14.375
95874W        W64347  29.450  16.081   2.319
95875W        W64348  32.939  38.564  12.909
95876W        W64349  30.015  24.588  13.892
95877W        W64350  22.150  25.099   4.187
95878W        W64351  12.355  38.335   1.391
95879W        W64352  17.132  28.444  10.466
95880W        W64353  20.171  24.001   0.835
95881W        W64354   5.212  25.515  11.020
95882W        W64355  43.897  12.130   4.244
95883W        W64356  21.724  20.745   3.630
95884W        W64357  39.408  43.346  12.522
95885W        W64358  18.579   6.421   1.233
95886W        W64359   2.233  38.065   2.394
95887W        W64360  14.165  44.455   4.617
95888W        W64361  15.815  44.351   5.188
95889W        W64362   7.831  17.196  12.558
95890W        W64363  19.733  44.402   1.351
95891W        W64364  19.558   3.954  13.010
95892W        W64365  42.857  29.929  14.478
95893W        W64366  35.099  19.769   3.661
95894W        W64367  35.083  26.077  13.990
95895W        W64368  18.718   9.833   2.888
95896W        W64369  11.752   8.791  11.513
95897W        W64370  23.161  33.396   2.874
95898W        W64371  17.655  35.429   3.709
95899W        W64372  33.893   1.386  12.829
95900W        W64373   4.918  32.989  12.990
95901W        W64374  25.520  11.763  10.951
95902W        W64375  31.545  33.079   1.333
95903W        W64376   9.736  27.538  14.797
95904W        W64377  44.802  36.492  13.971
95905W        W64378  43.889  12.200   0.383
95906W        W64379  43.957   0.827  14.014
95907W        W64380  44.459  17.724   4.670
95908W        W64381  35.905  31.000  13.467
95909W        W64382  32.980  37.516  13.805
95910W        W64383  20.547  23.502   0.390
95911W        W64384  23.195  29.145   5.174
95912W        W64385  40.961  37.932  10.979
95913W        W64386   8.239  34.383  14.372
95914W        W64387  31.936  42.959   2.182
95915W        W64388  12.257  37.580  13.342
95916W        W64389  31.414  24.485   0.270
95917W        W64390  30.554  15.755  10.541
95918W        W64391  36.855   0.882  10.901
95919W        W64392   7.761   0.480  14.938
95920W        W64393   0.960  23.640  14.938
95921W        W64394  41.990  42.398   4.217
95922W        W64395   2.337  34.899   0.273
95923W        W64396  31.556   4.885  10.471
95924W        W64397   7.383   9.776  13.471
95925W        W64398  14.597  38.036  13.348
95926W        W64399  10.336  37.850   2.891
95927W        W64400  14.641  39.013  10.020
95928W        W64401   9.330  12.649  12.023
95929W        W64402   5.756   7.345  10.160
95930W        W64403  35.944   8.259   4.789
95931W        W64404  17.719  23.210  11.009
95932W        W64405  35.080  20.102  14.493
95933W        W64406  42.885  42.517   0.420
95934W        W64407  30.975  12.276   2.698
95935W        W64408  44.823   9.807   0.375
95936W        W64409  21.757  41.925  14.835
95937W        W64410   8.197  44.325  14.399
95938W        W64411  43.885  11.801   3.729
95939W        W64412  41.405  30.990   4.290
95940W        W64413  11.840  41.537   1.303
95941W        W64414  35.075  18.760  13.876
95942W        W64415   9.788  21.204   3.337
95943W        W64416  41.363  31.941   2.765
95944W        W64417   7.746  39.843  11.927
95945W        W64418  11.645   1.345  12.364
95946W        W64419   3.721  12.772   3.696
95947W        W64420  26.515  10.683   4.257
95948W        W64421  25.002   5.712  12.001
95949W        W64422   7.400  13.133  14.850
95950W        W64423  19.224  18.659   4.315
95951W        W64424  27.181  29.474  11.577
95952W        W64425  12.252  33.034   0.303
95953W        W64426  20.098  15.773  14.898
95954W        W64427   9.791  43.498  13.050
95955W        W64428   7.782  19.540   1.749
95956W        W64429  43.847  24.049  14.311
95957W        W64430  15.613  24.610  14.427
95958W        W64431  29.601  37.006   1.356
95959W        W64432  18.293  35.371  12.021
95960W        W64433  10.268  31.631  13.315
95961W        W64434   7.184   4.335  10.890
95962W        W64435   0.303  21.240  12.878
95963W        W64436  22.602  13.652   3.367
95964W        W64437  34.542  41.354  12.899
95965W        W64438  10.240  16.264  13.884
95966W        W64439  31.586  26.583  10.977
95967W        W64440   6.206  21.642  14.933
95968W        W64441  25.163  31.048  14.024
95969W        W64442  18.686  20.734  12.092
95970W        W64443  32.590  14.782   1.729
95971W        W64444  20.547  34.578  14.486
95972W        W64445  26.158   2.776  13.960
95973W        W64446  17.233  24.598  12.514
95974W        W64447  12.356  39.004  10.482
95975W        W64448  35.983  39.050  13.508
95976W        W64449   4.902   4.332  13.050
95977W        W64450   9.191  26.120   5.651
95978W        W64451  17.288  39.406  13.885
95979W        W64452  29.120  42.479  13.979
95980W        W64453  25.499  11.635  13.880
95981W        W64454  30.040  34.046  10.581
95982W        W64455  11.727  20.080  14.897
95983W        W64456  41.439  23.719  10.948
95984W        W64457   2.277  38.357  11.896
95985W        W64458  10.153  16.303   4.146
95986W        W64459  31.999  20.106  11.013
95987W        W64460  26.024  19.764   0.834
95988W        W64461   2.450  13.120  12.039
95989W        W64462  43.443  24.580   3.244
95990W        W64463  33.530  19.662  11.519
95991W        W64464  12.208   1.462   3.844
95992W        W64465  15.655  18.106  13.383
95993W        W64466  22.656  42.366   0.762
95994W        W64467  39.425  18.088   0.931
95995W        W64468  11.182   6.888  11.453
95996W        W64469  40.837   2.406  11.440
95997W        W64470  39.919  27.654  14.847
95998W        W64471  14.663  12.132   2.209
95999W        W64472  11.833  14.608   3.841
96000W        W64473  30.582  36.408   4.716
96001W        W64474   4.255   9.329   1.319
96002W        W64475  28.021  15.726  13.502
96003W        W64476  42.001  35.957   3.826
96004W        W64477  19.617   2.413   4.721
96005W        W64478   0.893   6.823  11.074
96006W        W64479  17.301  11.856  11.004
96007W        W64480  27.978  43.315   3.867
96008W        W64481  21.632  44.451  14.855
96009W        W64482  36.396  24.674  10.903
96010W        W64483  15.151  43.435   3.313
96011W        W64484  39.469  43.468  10.967
96012W        W64485  40.995  26.123   3.289
96013W        W64486  32.417  23.241   2.684
96014W        W64487  38.041  39.491  13.991
96015W        W64488  43.512  42.940   1.930
96016W        W64489  16.236   4.807   1.814
96017W        W64490  12.208  43.901  14.438
96018W        W64491  20.269  37.373   1.253
96019W        W64492   6.726  38.362   1.753
96020W        W64493  16.218   2.726   0.419
96021W        W64494  39.317  23.062   1.861
96022W        W64495  21.160  38.438   2.178
96023W        W64496  40.349  16.625  11.972
96024W        W64497  27.981  26.100  13.886
96025W        W64498   6.368  16.796   0.756
96026W        W64499  13.655  27.579  11.011
96027W        W64500  18.741  39.922   0.283
96028W        W64501  40.321  24.088   4.794
96029W        W64502  27.155   9.391   1.388
96030W        W64503  41.791  23.077  13.031
96031W        W64504  44.349  17.642  11.031
96032W        W64505  17.159  29.965  14.928
96033W        W64506   5.236   5.697  11.036
96034W        W64507  43.848   6.903  14.472
96035W        W64508  37.909  18.055   5.250
96036W        W64509  40.406  25.606   1.755
96037W        W64510  29.096   0.906  12.979
96038W        W64511  44.006   8.248  11.129
96039W        W64512  40.946  17.195  11.510
96040W        W64513  30.043   9.887  10.930
96041W        W64514   1.405   6.722   2.848
96042W        W64515   8.856  34.446  11.564
96043W        W64516   4.325   8.879   3.818
96044W        W64517   8.404   6.801  12.554
96045W        W64518  35.528  43.495   0.920
96046W        W64519  22.008  28.663   4.792
96047W        W64520  35.972  29.530  13.056
96048W        W64521  16.801  39.924  14.880
96049W        W64522  34.447  23.226   1.736
96050W        W64523  10.204  33.481   3.185
96051W        W64524  17.130   2.283  11.013
96052W        W64525  39.354   2.837   3.260
96053W        W64526   2.963  31.995  13.889
96054W        W64527  29.439  24.484  12.362
96055W        W64528  34.933  11.317  13.852
96056W        W64529   4.744  40.866  12.402
96057W        W64530  20.132  39.407  13.476
96058W        W64531  15.200  11.647  10.454
96059W        W64532  43.455  20.233   0.429
96060W        W64533  34.422  16.309   3.258
96061W        W64534  11.224  11.157   4.639
96062W        W64535  26.548  11.229   1.351
96063W        W64536   4.265  41.467   4.327
96064W        W64537  39.809  13.259   1.848
96065W        W64538   5.334   8.863  11.922
96066W        W64539   5.418   4.810   2.877
96067W        W64540  37.348   4.448  12.902
96068W        W64541  14.670  18.248   2.753
96069W        W64542  14.770  35.432   3.371
96070W        W64543   3.711  39.911  14.812
96071W        W64544  38.915  14.646   0.834
96072W        W64545  35.937  25.620  14.315
96073W        W64546  17.230   7.752   1.449
96074W        W64547  10.652  31.457   3.173
96075W        W64548  22.212  10.718  13.438
96076W        W64549  13.629  37.993   3.838
96077W        W64550  25.129   8.263  14.832
96078W        W64551   1.350  39.028  14.416
96079W        W64552  13.116  40.370   3.372
96080W        W64553   4.447   5.822   5.597
96081W        W64554  35.491  27.115  10.572
96082W        W64555  13.239  14.602  14.013
96083W        W64556  39.914  36.360  11.909
96084W        W64557   8.774  36.903  12.934
96085W        W64558  26.182  34.992   1.929
96086W        W64559  16.740  16.763   3.162
96087W        W64560  10.785   6.809   4.168
96088W        W64561  34.028  29.969   3.248
96089W        W64562  19.280  24.187   3.825
96090W        W64563  36.976  12.666   3.203
96091W        W64564   4.242   6.292  10.638
96092W        W64565   0.758  15.264  12.569
96093W        W64566  31.077  33.018  12.942
96094W        W64567  32.039  28.602   2.258
96095W        W64568  44.399   5.696   0.897
96096W        W64569  18.688  16.086   3.332
96097W        W64570   3.911  37.015   1.832
96098W        W64571  11.725  18.703  10.972
96099W        W64572  26.156  42.775  10.425
96100W        W64573   8.312  10.251   2.377
96101W        W64574   1.415  41.476   1.803
96102W        W64575  42.500  20.270   4.769
96103W        W64576  18.722  29.599  13.009
96104W        W64577   0.467  15.656  13.846
96105W        W64578  24.188  38.407  14.323
96106W        W64579  24.057  34.444   1.827
96107W        W64580  41.367  13.811   0.785
96108W        W64581  13.690  34.555   2.396
96109W        W64582  32.609  39.025  11.919
96110W        W64583  10.735  20.643   0.954
96111W        W64584  36.074  40.856  11.568
96112W        W64585   0.365  21.018   0.942
96113W        W64586  38.058  33.878  14.377
96114W        W64587   3.743   7.734   4.826
96115W        W64588  19.687  37.550   1.775
96116W        W64589  13.640  19.109   1.813
96117W        W64590  39.934  18.773  11.959
96118W        W64591   4.384  18.649   1.211
96119W        W64592   4.815  14.136   0.871
96120W        W64593  23.171  44.338   0.337
96121W        W64594  18.240  39.954  14.941
96122W        W64595   8.313   9.791   1.247
96123W        W64596  21.244  25.644   1.694
96124W        W64597  19.167  14.631  12.824
96125W        W64598  23.642  27.645   3.753
96126W        W64599  30.456  13.773   4.273
96127W        W64600  21.244  38.957  14.403
96128W        W64601   3.812   2.355   0.736
96129W        W64602  33.447  15.749   3.843
96130W        W64603  39.858  23.520   1.368
96131W        W64604   6.284  24.575   3.866
96132W        W64605  10.745  34.910   2.182
96133W        W64606  16.616   2.314   1.354
96134W        W64607  41.004  35.904  11.403
96135W        W64608   4.297  26.491   2.812
96136W        W64609  36.017  14.190  12.091
96137W        W64610  43.908  34.942  11.507
96138W        W64611  11.755  15.587  12.389
96139W        W64612  44.992   4.326   4.249
96140W        W64613   6.361   4.790  11.973
96141W        W64614   6.896  39.346   4.674
96142W        W64615   1.432  13.639   4.687
96143W        W64616  11.289  19.153   3.315
96144W        W64617  26.166  16.203   1.767
96145W        W64618  29.470  42.876   1.771
96146W        W64619   5.365  35.375   4.222
96147W        W64620  17.681  41.037  10.996
96148W        W64621   5.783  28.958  12.439
96149W        W64622  10.632  32.050  12.423
96150W        W64623  34.875  29.502   1.749
96151W        W64624  39.851  43.311  14.983
96152W        W64625   7.766  32.015   5.147
96153W        W64626  44.474  11.827   2.881
96154W        W64627  21.652  40.524   3.272
96155W        W64628  40.448  14.808  10.996
96156W        W64629   8.214   5.334  13.422
96157W        W64630  32.926  21.084   2.253
96158W        W64631  10.754  22.058  11.007
96159W        W64632  17.758  17.259   0.924
96160W        W64633  30.973  16.136   2.390
96161W        W64634   0.355   6.341   2.293
96162W        W64635   6.403  30.961  12.961
96163W        W64636  32.013   2.293  10.428
96164W        W64637   7.252  40.367  11.601
96165W        W64638  43.383  11.210   0.352
96166W        W64639  28.168  30.158  13.887
96167W        W64640   7.746  14.815  11.573
96168W        W64641  19.597  44.492   2.777
96169W        W64642  42.979  22.627  11.904
96170W        W64643  18.239  19.771  10.930
96171W        W64644   1.370   2.778  11.529
96172W        W64645  29.561  13.789   3.186
96173W        W64646  41.841  28.124   4.811
96174W        W64647  14.789  33.393   9.921
96175W        W64648  22.062  10.140   0.877
96176W        W64649  43.383   2.342   4.187
96177W        W64650  20.622  24.054  14.840
96178W        W64651  22.244  28.973  12.844
96179W        W64652  36.581  25.048   1.289
96180W        W64653  40.405  21.612  14.373
96181W        W64654   6.317   0.256   2.782
96182W        W64655  15.741   1.342   1.871
96183W        W64656  28.610  22.039  13.007
96184W        W64657  12.192  30.554  14.336
96185W        W64658  42.418  36.945   4.722
96186W        W64659   3.856  40.005   2.300
96187W        W64660  20.238  26.077  12.861
96188W        W64661  10.649   3.395  11.571
96189W        W64662  27.473  34.075  11.112
96190W        W64663  29.480  42.934  14.778
96191W        W64664  13.260  23.066  14.950
96192W        W64665  25.089  35.597  12.358
96193W        W64666   4.212  22.658   1.363
96194W        W64667  32.548  16.701   3.813
96195W        W64668  34.020  35.359  11.577
96196W        W64669  21.145  22.232   0.280
96197W        W64670   4.268  30.929   1.419
96198W        W64671   3.418  17.246   5.321
96199W        W64672   8.175  33.520   4.818
96200W        W64673   6.291   8.391   4.138
96201W        W64674  16.747  34.411   1.413
96202W        W64675  14.723   6.358  12.078
96203W        W64676  30.444  38.865  10.434
96204W        W64677  30.583  13.193  12.434
96205W        W64678  28.119   6.857   5.118
96206W        W64679  30.510  17.280   3.716
96207W        W64680  11.850  34.019  12.023
96208W        W64681  26.164  32.394   4.176
96209W        W64682   5.849  30.442   1.779
96210W        W64683   8.193   9.209  14.885
96211W        W64684   0.457  42.918   3.786
96212W        W64685  15.295  18.611  12.081
96213W        W64686  18.141  20.029  11.943
96214W        W64687  18.285  24.004  10.982
96215W        W64688  34.966  29.990   0.370
96216W        W64689  17.227  34.975   0.800
96217W        W64690  14.784  29.667   3.730
96218W        W64691  27.168  27.104   3.797
96219W        W64692  12.651  25.510   0.891
96220W        W64693  24.087  10.341  12.518
96221W        W64694  37.058  28.613  14.867
96222W        W64695  28.497  28.145  13.407
96223W        W64696   4.416   6.426   9.961
96224W        W64697  28.163  20.588  11.466
96225W        W64698  23.151  37.016  14.864
96226W        W64699   8.859  32.072  14.495
96227W        W64700  40.974  21.192   3.630
96228W        W64701  31.923  39.464   1.922
96229W        W64702  11.292   6.226   2.198
96230W        W64703   4.795  18.270   0.431
96231W        W64704  13.226   0.848  11.585
96232W        W64705   4.397  17.800   4.320
96233W        W64706  23.694  28.601   1.762
96234W        W64707   3.249  42.505   2.360
96235W        W64708  17.729  30.116   0.347
96236W        W64709   0.905   6.840  10.634
96237W        W64710  34.541  37.084  13.830
96238W        W64711   6.800  25.971  12.517
96239W        W64712  38.848   6.197   4.659
96240W        W64713  29.942   8.167  12.075
96241W        W64714  12.821  35.910  12.347
96242W        W64715  20.571  22.564  12.507
96243W        W64716  30.611   4.237   4.755
96244W        W64717  23.998  34.590   4.206
96245W        W64718   2.282  24.501   3.849
96246W        W64719  40.436  16.200  14.404
96247W        W64720  20.028  28.951   2.886
96248W        W64721  41.445  17.187  12.933
96249W        W64722  19.220  35.872   0.261
96250W        W64723  12.719  12.710   1.322
96251W        W64724  22.196  11.679   1.821
96252W        W64725  25.197  44.322   0.412
96253W        W64726  27.036  12.148   2.262
96254W        W64727  17.144  24.154   2.418
96255W        W64728  24.111  44.404  13.016
96256W        W64729   8.401  12.715   4.801
96257W        W64730  40.992   1.373   4.246
96258W        W64731   1.813  39.872   0.291
96259W        W64732   3.762  10.348  11.434
96260W        W64733  26.643   4.922   4.603
96261W        W64734  40.378  32.989   4.347
96262W        W64735  36.521  11.340  14.466
96263W        W64736   9.752   0.783   2.374
96264W        W64737   0.752  25.150   1.808
96265W        W64738  40.860  40.968  11.380
96266W        W64739  40.930  12.271  12.501
96267W        W64740   4.306  24.992  14.497
96268W        W64741  23.992  17.168  14.504
96269W        W64742   7.674  34.881   2.677
96270W        W64743  27.962   4.919   2.786
96271W        W64744   0.438  31.065  12.356
96272W        W64745  13.205  40.546  12.580
96273W        W64746  35.959  33.007  14.765
96274W        W64747   7.226  40.882  14.316
96275W        W64748  34.079   4.844   4.237
96276W        W64749  32.005   6.790   1.779
96277W        W64750  13.243  35.602  11.928
96278W        W64751  22.691  38.971  10.059
96279W        W64752  31.512  17.773  11.107
96280W        W64753   5.437  19.558  11.102
96281W        W64754  31.052  35.910  10.601
96282W        W64755  15.231   5.194  12.442
96283W        W64756  41.969  40.402  12.968
96284W        W64757  15.084  24.579   2.859
96285W        W64758   3.242  28.681   0.281
96286W        W64759  25.688  42.439  11.550
96287W        W64760  37.377  19.759  13.796
96288W        W64761  27.968  30.951  12.461
96289W        W64762  34.493  43.939  12.909
96290W        W64763  24.110  36.478  14.371
96291W        W64764  23.108   2.838   0.919
96292W        W64765  27.516   2.879  14.431
96293W        W64766   0.265  36.880   4.219
96294W        W64767  29.041  41.970  12.084
96295W        W64768  28.941  42.004   4.302
96296W        W64769  28.529  34.977   1.301
96297W        W64770  43.773  40.330  14.393
96298W        W64771   4.764  12.715   0.820
96299W        W64772  16.307   2.791  13.317
96300W        W64773  37.423  32.497  13.455
96301W        W64774   2.740   9.346  14.419
96302W        W64775  25.469   5.689  14.023
96303W        W64776  11.181  21.748  11.884
96304W        W64777  33.448  31.526  11.383
96305W        W64778   9.776  21.705   3.787
96306W        W64779  23.550  41.942  14.999
96307W        W64780  17.719  23.680   0.331
96308W        W64781   8.887   1.284   4.682
96309W        W64782  26.076  43.451  14.513
96310W        W64783  23.515  43.835  14.857
96311W        W64784  33.420   4.450   4.155
96312W        W64785  10.638  44.286  14.858
96313W        W64786  18.724  13.289  13.310
96314W        W64787  25.670  26.118   0.753
96315W        W64788  11.256   8.290   2.882
96316W        W64789  18.627   6.238   1.812
96317W        W64790  32.620  25.509   3.761
96318W        W64791  16.706  44.795   1.394
96319W        W64792   9.781  39.542   0.949
96320W        W64793   6.373  36.968  13.448
96321W        W64794   6.700  23.062   1.370
96322W        W64795  25.620  26.047  12.865
96323W        W64796  10.805  11.703  14.019
96324W        W64797  25.042  37.067   0.418
96325W        W64798   2.832  14.798  10.478
96326W        W64799  21.614  32.541  11.594
96327W        W64800   5.932  20.689  12.847
96328W        W64801  27.602  23.214   0.833
96329W        W64802   4.227  37.354   3.643
96330W        W64803  11.129  11.797   0.894
96331W        W64804  36.537  11.266   0.352
96332W        W64805   3.801  38.507   3.164
96333W        W64806  35.930  27.165  12.023
96334W        W64807  23.573  15.814  11.001
96335W        W64808  43.341   7.671   3.237
96336W        W64809  39.917  12.219  13.017
96337W        W64810  40.462  27.191   2.782
96338W        W64811  44.776   7.383  13.447
96339W        W64812  24.045  12.330  10.947
96340W        W64813  41.452  15.591  12.013
96341W        W64814   5.387  39.487   0.371
96342W        W64815  23.692  34.375  13.920
96343W        W64816  31.088  27.168  14.427
96344W        W64817  32.081  18.065  11.972
96345W        W64818   8.764  23.989  10.514
96346W        W64819   4.253  11.744   0.937
96347W        W64820  10.663  23.593   1.776
96348W        W64821  21.091   4.753  14.488
96349W        W64822  30.419  40.510   4.247
96350W        W64823  22.665   8.765  11.006
96351W        W64824  25.972  41.870  12.069
96352W        W64825  12.199  22.534   2.831
96353W        W64826  23.231  33.015   2.883
96354W        W64827  11.766  42.300  13.346
96355W        W64828  35.604  24.143   1.897
96356W        W64829  44.276  20.762   2.268
96357W        W64830  23.553   4.268   1.881
96358W        W64831  15.176  28.117   0.333
96359W        W64832  12.737   6.809   2.308
96360W        W64833  11.155  44.466   3.740
96361W        W64834  37.363  28.472   2.208
96362W        W64835   1.955  14.323   4.809
96363W        W64836  10.757  27.014   2.306
96364W        W64837  12.197  26.673   1.378
96365W        W64838  24.547   4.715  14.456
96366W        W64839   3.278   0.956   2.245
96367W        W64840   2.332  21.726   4.329
96368W        W64841  41.410  41.973  14.827
96369W        W64842  35.366  24.219  14.798
96370W        W64843  36.449  26.578   0.428
96371W        W64844  25.653   2.944  13.006
96372W        W64845  15.110   4.376  12.375
96373W        W64846  31.573   9.829  12.046
96374W        W64847  32.093  20.154  13.427
96375W        W64848  13.798  12.816  11.964
96376W        W64849  27.661  18.102   0.872
96377W        W64850  19.225  35.878   3.855
96378W        W64851  22.158   3.869   0.279
96379W        W64852  28.163  42.850  14.377
96380W        W64853  22.507  20.748   4.650
96381W        W64854  30.466  23.113   0.750
96382W        W64855  26.073  43.492   3.347
96383W        W64856  39.894  43.326  13.958
96384W        W64857  34.099  24.502   2.775
96385W        W64858  29.440   4.777   3.797
96386W        W64859   7.869  38.068  13.848
96387W        W64860  23.032  29.593  13.410
96388W        W64861  37.556  20.574  10.045
96389W        W64862  30.918  35.372  12.886
96390W        W64863  40.044  43.355  10.964
96391W        W64864  44.977   9.717  11.917
96392W        W64865   4.271  27.518   3.634
96393W        W64866  27.133  32.532   4.810
96394W        W64867  36.003  27.528   3.868
96395W        W64868  23.537  29.618  10.553
96396W        W64869   9.165   0.915  11.116
96397W        W64870   0.436  38.943  13.456
96398W        W64871  13.628   3.833   0.885
96399W        W64872  23.626  22.732   2.739
96400W        W64873  18.216   9.223  10.620
96401W        W64874   2.881  30.648   2.688
96402W        W64875   9.747  42.484   0.738
96403W        W64876  34.972  32.006   2.888
96404W        W64877  42.806  41.874   3.327
96405W        W64878  35.936  43.915   0.897
96406W        W64879  16.204  40.322   0.243
96407W        W64880  34.463   1.384   0.779
96408W        W64881  36.968  32.564  10.978
96409W        W64882   9.847  44.935  13.488
96410W        W64883  22.730  44.406  10.084
96411W        W64884  39.913  11.779   4.837
96412W        W64885  37.338  43.883   1.934
96413W        W64886   9.271  31.970  14.991
96414W        W64887  19.540  19.055   3.214
96415W        W64888  36.061  30.995  12.982
96416W        W64889  39.028   6.322   5.083
96417W        W64890  32.007  19.692   4.330
96418W        W64891  23.206   4.259  14.959
96419W        W64892  21.046   9.670   3.356
96420W        W64893   7.354  39.554   0.412
96421W        W64894  40.023  32.073  14.428
96422W        W64895  30.077  21.546  13.007
96423W        W64896  44.816   3.856   2.359
96424W        W64897  32.075  26.638   0.406
96425W        W64898  31.131  16.266   0.930
96426W        W64899  27.948   7.375   0.796
96427W        W64900  23.691   5.315  13.872
96428W        W64901  43.411  22.230   0.293
96429W        W64902   2.768   4.401  13.368
96430W        W64903  41.424   8.390   1.921
96431W        W64904  37.533  15.287   3.667
96432W        W64905  16.669  16.767   2.781
96433W        W64906  43.379  43.765  10.407
96434W        W64907  31.979   0.844   1.259
96435W        W64908  29.631  15.736   3.157
96436W        W64909  39.890  35.937  14.908
96437W        W64910  19.691  12.631   2.719
96438W        W64911   3.859  41.875   2.900
96439W        W64912  44.332  44.497   0.429
96440W        W64913   4.345  35.019   4.721
96441W        W64914  33.596  20.223   0.282
96442W        W64915   1.299  19.752   3.182
96443W        W64916   8.236  22.566  12.540
96444W        W64917  29.150  26.175   2.266
96445W        W64918  15.646  20.637   4.231
96446W        W64919  35.074  12.151  12.048
96447W        W64920  16.603  27.101  11.569
96448W        W64921  19.153  24.518   3.375
96449W        W64922  35.906  21.639  13.797
96450W        W64923  25.130  23.498  12.871
96451W        W64924  25.134  27.961  12.364
96452W        W64925  26.601  34.382  13.937
96453W        W64926  42.318  23.145   4.281
96454W        W64927  21.082  15.197  10.569
96455W        W64928  39.879  39.849   2.411
96456W        W64929  33.087  28.645  11.105
96457W        W64930  16.222  18.171  14.760
96458W        W64931  29.090  37.439   0.942
96459W        W64932  27.131  29.495  12.992
96460W        W64933   6.302   0.292  14.437
96461W        W64934  14.714  15.208   0.799
96462W        W64935  31.940  28.131   2.356
96463W        W64936   3.751  20.671  13.050
96464W        W64937   6.802  40.512   0.299
96465W        W64938   1.376   8.302   3.170
96466W        W64939  22.739  32.541  10.505
96467W        W64940  41.480  24.503  13.955
96468W        W64941  28.551  21.526  12.578
96469W        W64942  30.554   1.755   3.827
96470W        W64943  25.644  30.548   0.758
96471W        W64944  38.359   4.768   0.927
96472W        W64945  39.905  30.998  11.449
96473W        W64946   4.719   4.849  14.794
96474W        W64947  37.535  41.400  14.394
96475W        W64948  40.471  10.706  11.491
96476W        W64949   8.658  17.302   0.391
96477W        W64950  26.568  29.511   0.288
96478W        W64951  24.605  14.637   0.932
96479W        W64952  25.104  15.118   1.748
96480W        W64953  21.223   7.396   1.300
96481W        W64954  35.544   9.212   4.291
96482W        W64955  31.988  13.740  12.458
96483W        W64956  32.406  32.085  12.403
96484W        W64957  13.621  41.973  11.910
96485W        W64958  42.933  23.150  13.051
96486W        W64959   8.736  35.369   4.655
96487W        W64960  36.993   0.380  11.128
96488W        W64961  32.098  27.520  10.516
96489W        W64962  23.995  20.681   1.416
96490W        W64963  41.394  26.539   2.753
96491W        W64964  29.471  17.784  14.421
96492W        W64965   5.231   2.904  13.924
96493W        W64966  37.920  28.966  10.623
96494W        W64967  25.640  35.378   2.709
96495W        W64968  21.597  22.533   0.345
96496W        W64969  18.618  11.325   0.448
96497W        W64970   2.282  32.612  14.024
96498W        W64971   2.326   4.343   4.798
96499W        W64972  15.148  31.032  12.924
96500W        W64973  28.050  25.152  13.984
96501W        W64974  21.190   3.448  13.326
96502W        W64975   7.363  38.512   3.219
96503W        W64976  35.544   7.228  13.512
96504W        W64977   8.178   3.285   1.265
96505W        W64978  42.002  18.610  12.500
96506W        W64979  43.457   6.732  14.846
96507W        W64980  43.887  24.020  11.551
96508W        W64981  42.003  36.922  14.785
96509W        W64982  37.856  12.612   4.636
96510W        W64983  25.053  36.584   4.333
96511W        W64984  18.589  38.006   2.407
96512W        W64985  39.405   3.824   0.966
96513W        W64986  27.995  42.373   4.330
96514W        W64987  25.536   4.844  14.331
96515W        W64988  11.802  19.656  12.872
96516W        W64989  12.613  18.289   4.230
96517W        W64990  28.039  18.712   1.851
96518W        W64991  31.114  38.073  14.769
96519W        W64992  28.984  32.408  11.016
96520W        W64993   0.886  40.028   0.884
96521W        W64994   2.950  44.955   1.308
96522W        W64995  44.293  21.033  14.773
96523W        W64996  29.997  14.234  12.902
96524W        W64997  17.711  17.679   0.955
96525W        W64998  24.211  10.352   2.195
96526W        W64999  28.178   4.842   2.287
96527W        W65000   4.735  38.057  14.775
96528W        W65001  34.972  40.396   3.708
96529W        W65002  38.837  40.986   1.908
96530W        W65003  39.472  43.312  14.791
96531W        W65004  14.304   9.730  12.970
96532W        W65005   5.825  12.736  13.910
96533W        W65006  13.703  18.634  13.872
96534W        W65007  36.408  28.942   1.277
96535W        W65008  26.992  20.561  11.044
96536W        W65009   5.908  40.416   1.304
96537W        W65010   5.347   3.785   0.917
96538W        W65011  12.668   1.934   0.735
96539W        W65012   7.709  12.125  13.370
96540W        W65013  34.965   1.429   3.738
96541W        W65014  14.688  12.337   3.174
96542W        W65015  32.129   1.425  11.974
96543W        W65016  25.195   7.870  14.461
96544W        W65017  15.224  28.511  14.791
96545W        W65018  42.916  20.708  10.438
96546W        W65019  25.479  10.174  10.537
96547W        W65020  21.230  22.722   5.147
96548W        W65021  37.376  23.661   4.727
96549W        W65022  15.272  13.630  11.453
96550W        W65023   7.357  42.923   3.157
96551W        W65024   5.890   3.941  13.816
96552W        W65025   8.868  15.101  13.969
96553W        W65026  28.083  13.119  12.060
96554W        W65027  17.571  28.610  12.073
96555W        W65028  41.974  31.035   4.219
96556W        W65029  15.167  13.709  12.952
96557W        W65030  40.334  24.994  10.606
96558W        W65031  32.558  42.360   3.744
96559W        W65032  31.066  40.353   3.325
96560W        W65033  27.958  20.682  13.385
96561W        W65034  27.981  22.536  11.537
96562W        W65035   0.891  41.005  13.945
96563W        W65036  17.278  26.650  14.935
96564W        W65037  44.344  18.549   1.215
96565W        W65038  18.094  36.383  13.413
96566W        W65039  13.837  13.605   1.770
96567W        W65040  12.674  18.213  14.860
96568W        W65041   2.257   6.346  12.089
96569W        W65042  37.962  12.802   2.372
96570W        W65043  11.344  37.968   0.251
96571W        W65044   4.233   8.753   1.753
96572W        W65045   8.404  18.087   0.767
96573W        W65046  27.197  23.596  14.975
96574W        W65047  26.640  29.540  12.361
96575W        W65048  17.594  32.077   3.848
96576W        W65049  35.406  34.097  12.490
96577W        W65050   2.372  28.650   2.354
96578W        W65051  40.311  41.906  14.283
96579W        W65052   7.751  34.413   0.739
96580W        W65053  42.874   9.664   3.789
96581W        W65054  38.349  40.455   2.270
96582W        W65055  28.478  29.645   3.744
96583W        W65056  32.962  24.550  10.977
96584W        W65057  38.947  24.555  11.103
96585W        W65058  11.300  22.582   2.693
96586W        W65059  26.459   3.866  13.970
96587W        W65060  27.524  36.476   3.372
96588W        W65061  19.083  25.553   2.883
96589W        W65062  15.659  28.016  13.955
96590W        W65063   6.224  20.598  11.887
96591W        W65064   7.417  24.522   1.425
96592W        W65065  16.586  22.177   3.377
96593W        W65066  31.496  37.433   3.241
96594W        W65067  16.152   1.287   2.320
96595W        W65068   7.341  17.636  12.430
96596W        W65069   7.299  16.075   1.911
96597W        W65070   3.381  35.582   3.326
96598W        W65071  23.191  38.546   4.204
96599W        W65072  17.308   8.168   2.217
96600W        W65073  27.068  21.070  10.124
96601W        W65074   2.883  16.080  14.444
96602W        W65075  42.976   7.840   4.149
96603W        W65076  36.591  33.426   4.716
96604W        W65077  26.130  21.134  10.950
96605W        W65078   2.395  37.377   2.327
96606W        W65079  32.950  30.939  12.415
96607W        W65080  36.535  36.902   3.867
96608W        W65081  43.381   8.795   4.203
96609W        W65082  37.053  44.501  11.890
96610W        W65083  34.578  15.596   2.322
96611W        W65084  36.351  13.268   3.187
96612W        W65085  44.931  20.532   3.638
96613W        W65086  21.748  16.235   2.393
96614W        W65087  31.142   5.754  11.441
96615W        W65088   6.355  22.734  14.827
96616W        W65089  21.582  36.536  11.456
96617W        W65090  30.085  28.987   4.307
96618W        W65091   1.768  34.556  10.514
96619W        W65092  33.103  24.067  13.912
96620W        W65093   5.215  14.260  14.871
96621W        W65094  26.619  18.755  11.505
96622W        W65095  25.980   8.747   4.284
96623W        W65096  44.774  24.991   4.644
96624W        W65097  44.791  26.571  14.335
96625W        W65098  14.796   9.863  13.342
96626W        W65099  17.617  38.358   0.289
96627W        W65100   7.365   3.942  12.020
96628W        W65101  14.211   9.258   4.232
96629W        W65102   8.706  22.180   4.312
96630W        W65103  12.148  35.451   3.381
96631W        W65104  35.457   5.374   1.843
96632W        W65105  36.074  12.305  13.047
96633W        W65106   3.772  30.952   3.733
96634W        W65107  13.786  38.509  10.089
96635W        W65108  37.863  30.539  10.515
96636W        W65109  32.397   1.307  14.375
96637W        W65110  27.940  20.603   0.300
96638W        W65111  21.511  19.145  12.951
96639W        W65112  41.435  13.188  12.897
96640W        W65113  44.880  44.800   1.832
96641W        W65114  27.142  40.397  10.621
96642W        W65115   4.845  30.983  11.523
96643W        W65116  30.085  37.492   0.739
96644W        W65117  14.783  21.060  11.516
96645W        W65118   9.653   6.850   4.184
96646W        W65119  42.860  21.563   2.672
96647W        W65120  29.071   7.687  10.422
96648W        W65121  18.734  30.095   3.159
96649W        W65122  30.493  42.447  13.838
96650W        W65123   8.773  36.984  11.890
96651W        W65124  42.374  34.559   4.681
96652W        W65125   8.380   3.428  13.063
96653W        W65126  28.028  27.682   1.911
96654W        W65127   6.827  38.396   3.745
96655W        W65128  33.056   6.792  11.091
96656W        W65129  19.593  11.285   2.355
96657W        W65130  28.456  26.488  10.013
96658W        W65131  10.257   1.311  12.572
96659W        W65132   3.342  44.851  14.490
96660W        W65133  13.731   2.793   4.295
96661W        W65134   7.871   9.338   4.764
96662W        W65135  24.686  12.354  12.983
96663W        W65136  38.882  20.751   0.453
96664W        W65137  39.022  26.564  10.410
96665W        W65138  40.310   0.803   3.687
96666W        W65139  43.270  43.967   1.268
96667W        W65140  31.999   9.681   0.353
96668W        W65141   4.248  12.325  13.423
96669W        W65142   2.390   2.896   3.816
96670W        W65143  20.211  37.362   3.669
96671W        W65144  13.760  11.138  10.449
96672W        W65145  34.096  32.885   0.467
96673W        W65146  14.115  28.547  10.576
96674W        W65147  12.842  31.991  13.002
96675W        W65148  11.226  28.003  13.002
96676W        W65149   0.376  13.143   1.848
96677W        W65150  34.389  24.663  12.341
96678W        W65151  44.334  31.926  12.944
96679W        W65152  38.045  13.829   2.706
96680W        W65153  13.616  29.494   1.930
96681W        W65154  30.635   3.934  13.497
96682W        W65155  35.950  19.170  12.832
96683W        W65156   0.470  35.458  14.463
96684W        W65157  18.589   4.751   5.143
96685W        W65158   3.836  39.905  13.318
96686W        W65159  29.950  44.469   1.922
96687W        W65160  16.770  19.555   3.386
96688W        W65161  33.955   8.300   4.658
96689W        W65162  35.519  36.447   1.255
96690W        W65163  22.080  36.537  12.995
96691W        W65164   8.775  26.079  14.476
96692W        W65165  41.042  30.031  14.902
96693W        W65166  26.692  16.573   3.662
96694W        W65167   0.911  36.855  11.935
96695W        W65168  14.302  37.357   5.153
96696W        W65169  23.058  15.242   0.818
96697W        W65170  27.686  41.525   3.177
96698W        W65171  17.110  22.053   2.228
96699W        W65172   0.342  10.178   2.372
96700W        W65173  18.645  13.637   1.805
96701W        W65174  22.577  13.729   3.745
96702W        W65175  28.587  26.562  13.010
96703W        W65176  34.927  10.754  11.516
96704W        W65177   9.650  36.552   0.944
96705W        W65178  25.123  19.212   4.772
96706W        W65179   3.369   4.918  10.928
96707W        W65180  40.483  16.586   3.227
96708W        W65181  24.230  15.817  13.458
96709W        W65182  25.096   4.945  10.905
96710W        W65183   2.934  34.069  12.392
96711W        W65184  40.833  26.607   3.720
96712W        W65185  25.208   1.957   1.375
96713W        W65186  32.571  39.407  13.363
96714W        W65187  19.772  20.031  12.403
96715W        W65188  32.620  26.567   1.281
96716W        W65189  39.381  13.728   3.310
96717W        W65190  13.751  31.582   3.650
96718W        W65191  32.420  22.110   4.246
96719W        W65192  37.986   0.945  12.974
96720W        W65193  33.448  16.699   0.347
96721W        W65194  17.599   4.851   4.746
96722W        W65195  22.530  17.063  10.894
96723W        W65196  44.370  24.025   1.237
96724W        W65197  30.946  15.326   1.399
96725W        W65198  37.854   2.834   2.773
96726W        W65199  37.570  11.699   1.388
96727W        W65200  33.625  29.437   3.238
96728W        W65201   3.810  34.376  13.886
96729W        W65202  11.821  13.831   2.199
96730W        W65203   2.953  32.513   4.122
96731W        W65204  21.076   3.869   4.760
96732W        W65205  20.617  16.271   4.826
96733W        W65206  42.516   8.308  13.959
96734W        W65207  18.750  42.430  12.044
96735W        W65208  36.910  43.820  11.409
96736W        W65209  29.035  10.242  10.158
96737W        W65210  30.540  29.609  14.839
96738W        W65211  33.887  30.950   1.773
96739W        W65212  13.679  24.038  10.894
96740W        W65213   6.201   7.790  13.362
96741W        W65214  18.613  17.774   4.827
96742W        W65215  17.117   5.210  14.497
96743W        W65216  24.996   8.173   3.836
96744W        W65217   5.279  16.284   9.987
96745W        W65218  28.516  34.586  11.889
96746W        W65219  26.130   4.385   3.857
96747W        W65220  33.431  42.934  12.085
96748W        W65221  33.101   2.801  12.997
96749W        W65222  15.698   5.292   3.340
96750W        W65223  33.971   2.783  13.957
96751W        W65224  27.675  10.213  11.590
96752W        W65225   7.292  23.508   4.672
96753W        W65226  28.529  25.664  12.962
96754W        W65227   1.803  14.668   1.794
96755W        W65228  14.829  16.183  13.872
96756W        W65229  19.223   2.357  12.968
96757W        W65230  10.837  24.016  11.927
96758W        W65231  30.041  40.306  14.471
96759W        W65232   0.973  33.580  13.822
96760W        W65233  38.982   4.818  13.527
96761W        W65234   7.282  37.343  13.428
96762W        W65235  43.983  32.626   3.724
96763W        W65236  29.938   1.824  11.377
96764W        W65237  44.911   6.189  10.532
96765W        W65238  14.123  32.447   0.774
96766W        W65239   0.260  29.989  14.412
96767W        W65240  29.498  34.427   0.867
96768W        W65241  28.453  39.508  11.572
96769W        W65242  43.305  10.791   3.370
96770W        W65243  37.003   5.763   1.745
96771W        W65244   3.353  42.512   0.429
96772W        W65245  19.088  41.807   0.270
96773W        W65246  15.789  29.926   3.808
96774W        W65247  44.897  28.513   2.735
96775W        W65248  25.675  11.338  13.025
96776W        W65249   0.334  44.801  14.853
96777W        W65250  22.055  13.714   2.823
96778W        W65251   6.186   6.692   4.278
96779W        W65252  21.579  22.151  12.013
96780W        W65253  41.947  28.048   3.736
96781W        W65254  29.092   9.168  14.473
96782W        W65255  20.754  17.785   1.259
96783W        W65256  40.458  21.665   0.961
96784W        W65257  14.185  18.566  13.025
96785W        W65258   0.438  20.045  13.951
96786W        W65259  42.461  10.294   2.293
96787W        W65260  16.589  11.780  11.916
96788W        W65261  40.506   4.872  13.528
96789W        W65262  10.863  28.029   2.839
96790W        W65263  12.849  16.667   2.364
96791W        W65264  18.776  20.720   1.327
96792W        W65265  15.581  15.779  13.384
96793W        W65266   5.788   7.804  12.839
96794W        W65267   0.467  33.489   4.605
96795W        W65268  17.116  19.742  14.964
96796W        W65269  14.120  36.518   4.320
96797W        W65270   6.360  29.154   0.458
96798W        W65271   3.756   4.732   3.719
96799W        W65272  38.423  32.614  12.441
96800W        W65273  12.739  40.856   4.241
96801W        W65274  38.415  21.699   1.714
96802W        W65275  38.053  27.545   2.350
96803W        W65276   9.258  23.708  10.980
96804W        W65277  43.916  11.828   2.204
96805W        W65278  12.763   9.752   4.806
96806W        W65279  34.388  36.569   0.742
96807W        W65280   0.898  14.684   3.791
96808W        W65281  14.657   8.663  13.911
96809W        W65282  18.744  15.106  11.955
96810W        W65283  11.185   1.429  12.873
96811W        W65284  36.572  24.607   3.658
96812W        W65285  32.549  23.214   9.562
96813W        W65286  32.074  35.029  13.853
96814W        W65287   4.902  32.059   0.915
96815W        W65288   4.790  10.808   0.278
96816W        W65289  23.144  22.152   0.737
96817W        W65290  21.093  32.924  10.455
96818W        W65291   1.951  22.703  14.463
96819W        W65292   6.744  30.576  11.079
96820W        W65293  37.513  11.692   3.848
96821W        W65294  37.024  38.012  12.502
96822W        W65295   8.660   4.421   4.634
96823W        W65296  24.652   6.375   4.171
96824W        W65297  38.843  30.965   3.148
96825W        W65298  20.680  38.935   4.640
96826W        W65299  31.993   2.463  12.469
96827W        W65300  35.901  31.949   2.346
96828W        W65301   9.256  40.351   3.736
96829W        W65302   6.790  15.706   9.941
96830W        W65303  31.636  17.080  12.911
96831W        W65304  26.620  23.585  11.397
96832W        W65305  18.096  20.717  12.417
96833W        W65306  42.936   4.237  14.994
96834W        W65307   5.313  15.724   1.881
96835W        W65308  25.082  34.554   2.330
96836W        W65309  25.074  42.025   4.216
96837W        W65310   9.362   2.875   3.276
96838W        W65311  24.483  36.934  13.430
96839W        W65312   0.778  18.719  12.479
96840W        W65313  24.539  40.364   2.673
96841W        W65314  38.988  37.509   4.631
96842W        W65315  17.701  25.093  14.364
96843W        W65316  40.305  14.196   2.241
96844W        W65317  29.052  41.010  11.890
96845W        W65318  31.964  42.811  11.612
96846W        W65319  36.369  30.620  13.516
96847W        W65320  41.488  41.790   3.854
96848W        W65321   6.717  36.350  14.948
96849W        W65322  12.347  23.514  10.946
96850W        W65323   4.366  28.931   4.705
96851W        W65324   1.333  21.682  10.479
96852W        W65325  10.154  37.392   4.266
96853W        W65326  32.449  39.918  13.454
96854W        W65327  21.676  17.656  14.900
96855W        W65328   3.746  34.603  11.498
96856W        W65329  14.656  30.650  10.615
96857W        W65330   6.240  43.875  12.456
96858W        W65331   9.752   6.343  14.903
96859W        W65332   1.828   9.698   1.366
96860W        W65333  16.810  18.746  12.900
96861W        W65334  40.845  40.315   0.408
96862W        W65335  22.097  37.861  14.404
96863W        W65336  18.696   7.315   4.348
96864W        W65337  33.074  39.864  12.876
96865W        W65338  26.580  31.072  12.486
96866W        W65339  36.483   8.290   4.777
96867W        W65340  29.554  25.052   0.259
96868W        W65341  22.998  44.461  12.897
96869W        W65342  34.605  34.450   3.805
96870W        W65343  14.193  27.038  12.962
96871W        W65344  13.294   6.274  11.934
96872W        W65345   8.849   5.360  11.432
96873W        W65346  42.003   5.212  11.094
96874W        W65347   7.864  36.526   3.847
96875W        W65348  14.110  10.157   1.310
96876W        W65349  19.576  37.856  10.920
96877W        W65350  16.172  35.886  10.954
96878W        W65351   4.740  14.659  13.981
96879W        W65352   3.453   8.239   3.644
96880W        W65353  23.501   9.161  12.439
96881W        W65354   8.688  26.101  12.908
96882W        W65355   8.346   1.811   0.855
96883W        W65356  36.887   6.749  11.569
96884W        W65357  19.196  37.370  10.085
96885W        W65358  38.880   4.781   4.816
96886W        W65359  24.231  15.085  14.399
96887W        W65360  17.689  38.049  14.475
96888W        W65361  32.457  17.068   3.380
96889W        W65362  26.120   2.283  12.882
96890W        W65363   1.891   7.709   1.874
96891W        W65364  19.779  40.049   3.251
96892W        W65365  23.061  20.119  13.981
96893W        W65366   9.238  13.680  14.956
96894W        W65367  37.419  21.191  12.497
96895W        W65368  33.600   4.789   2.714
96896W        W65369  26.588   7.337  14.915
96897W        W65370   6.871   7.227  14.979
96898W        W65371  35.953  24.491  13.395
96899W        W65372  20.176  33.467  12.488
96900W        W65373  28.104  38.981   4.625
96901W        W65374  10.800   3.866   0.262
96902W        W65375  22.735  43.003  11.951
96903W        W65376  17.576  37.003   4.734
96904W        W65377  28.578   0.431  10.551
96905W        W65378  33.403   8.861  12.562
96906W        W65379  10.185  21.528   1.347
96907W        W65380   4.334  34.531   2.704
96908W        W65381  28.044  19.278   0.836
96909W        W65382  13.114  43.883  12.393
96910W        W65383   3.428   9.827  14.007
96911W        W65384  32.123   3.338   3.701
96912W        W65385  15.328  11.624   0.350
96913W        W65386  25.215  10.652  13.350
96914W        W65387  37.986  18.246  13.508
96915W        W65388  11.315  27.970   0.257
96916W        W65389   6.843  39.883   4.321
96917W        W65390  39.036  30.645   4.271
96918W        W65391   4.263   9.162   4.646
96919W        W65392  38.326  15.797  11.009
96920W        W65393   9.717  18.287   0.442
96921W        W65394  42.935  14.816  14.944
96922W        W65395  36.361  11.181  11.429
96923W        W65396   7.407  44.834   4.778
96924W        W65397  34.407   2.293  12.490
96925W        W65398  23.019  25.078  12.566
96926W        W65399  32.507  32.616   2.193
96927W        W65400  32.124  43.327   0.363
96928W        W65401  33.116  43.280  14.031
96929W        W65402   3.762   4.304   4.737
96930W        W65403  10.353  26.062  12.958
96931W        W65404   9.662  44.935   0.956
96932W        W65405  12.117  41.321   0.323
96933W        W65406  25.065  31.024  13.396
96934W        W65407  11.627   5.917   0.897
96935W        W65408  38.949  35.395   4.210
96936W        W65409  43.013  33.539   3.855
96937W        W65410   1.747  43.281   3.634
96938W        W65411   9.759  38.885  11.426
96939W        W65412  38.551  34.439  11.120
96940W        W65413  13.203  14.147   5.222
96941W        W65414  32.623  20.707   1.776
96942W        W65415  34.984  18.620   1.264
96943W        W65416  12.219  14.234  13.930
96944W        W65417  28.954   1.899  14.331
96945W        W65418  33.476  18.271  13.341
96946W        W65419   9.744  20.187  14.843
96947W        W65420   8.221  10.800  11.920
96948W        W65421  15.190   1.886  10.932
96949W        W65422  39.988   5.905   1.297
96950W        W65423  28.939   8.367   1.277
96951W        W65424   6.880   3.346   2.369
96952W        W65425   1.478  20.270  10.503
96953W        W65426  37.957  11.696   0.256
96954W        W65427  35.541  29.937   3.256
96955W        W65428  44.004   6.919  13.885
96956W        W65429  31.033  20.571  13.515
96957W        W65430  18.193  30.981  11.079
96958W        W65431  24.215  36.021  11.102
96959W        W65432   2.945  33.424   3.721
96960W        W65433  25.181  26.497   0.923
96961W        W65434  42.295   1.284   1.804
96962W        W65435  40.033  43.429   1.350
96963W        W65436  23.623  26.527   2.850
96964W        W65437  17.212  40.799   9.976
96965W        W65438  32.086  38.563   4.235
96966W        W65439   0.751   9.280   3.212
96967W        W65440  12.191  39.375  10.424
96968W        W65441  18.588  41.477  14.440
96969W        W65442  21.255  36.004   2.186
96970W        W65443  10.301  41.011  12.458
96971W        W65444  14.246  13.822  10.625
96972W        W65445   8.329  14.739  12.973
96973W        W65446   7.874   1.460  12.062
96974W        W65447  32.508   9.740  12.377
96975W        W65448   1.441   5.889   1.739
96976W        W65449  37.922  21.246   3.366
96977W        W65450   3.344  36.034  13.845
96978W        W65451  16.162   0.288   3.812
96979W        W65452   4.735  28.509  13.993
96980W        W65453  42.796  12.821   3.813
96981W        W65454  36.359  11.829   1.312
96982W        W65455   1.857  21.084   1.342
96983W        W65456   4.891   8.351   5.243
96984W        W65457  22.250  26.512   3.766
96985W        W65458  14.124  31.642   0.739
96986W        W65459  12.657   3.325   0.250
96987W        W65460  26.954  40.939  11.907
96988W        W65461  28.662   1.309   2.295
96989W        W65462  32.486  36.898   3.373
96990W        W65463   9.181   1.376  13.418
96991W        W65464  13.669  35.476  14.282
96992W        W65465  18.168   5.261  12.828
96993W        W65466   9.651   0.447  13.986
96994W        W65467  38.458  11.134  13.965
96995W        W65468  31.615  35.966   2.850
96996W        W65469  18.096  14.248  14.304
96997W        W65470  13.691   4.281   0.781
96998W        W65471  21.192  22.548   2.401
96999W        W65472  34.012  19.158  14.929
97000W        W65473  14.792  19.172   3.169
97001W        W65474  41.014  42.013  14.974
97002W        W65475  25.500  36.585  13.008
97003W        W65476  10.665   9.184  13.923
97004W        W65477  34.539  26.994   1.377
97005W        W65478  18.231   5.720  11.381
97006W        W65479  13.138  24.704   4.838
97007W        W65480  30.651   6.322   0.333
97008W        W65481  23.239  15.212   2.277
97009W        W65482  35.540  22.209  14.926
97010W        W65483  24.005  33.425  10.133
97011W        W65484  36.497  19.773  13.936
97012W        W65485   3.898  43.809  12.410
97013W        W65486   0.745   5.337   0.348
97014W        W65487  14.125   5.389  10.530
97015W        W65488   2.284  41.039  11.481
97016W        W65489  43.305  37.064   2.709
97017W        W65490  13.709  44.880   2.328
97018W        W65491  28.675  15.242   1.833
97019W        W65492  13.237  29.157   5.321
97020W        W65493  12.323  14.328   0.761
97021W        W65494   7.802  10.776   4.245
97022W        W65495  16.245  16.241  14.414
97023W        W65496  11.765   6.346   2.333
97024W        W65497   3.867  25.157   1.364
97025W        W65498  27.650  30.129  12.992
97026W        W65499   2.847  41.014   3.791
97027W        W65500  30.994  27.106  12.959
97028W        W65501  34.030   7.232  13.410
97029W        W65502  23.111  13.194   2.697
97030W        W65503  20.749  21.120   1.279
97031W        W65504   2.358   1.355  13.508
97032W        W65505   7.868  21.189  14.443
97033W        W65506   8.250  16.798  11.868
97034W        W65507  19.695  28.500   2.811
97035W        W65508  34.001  14.602   0.931
97036W        W65509  43.433  44.474   0.281
97037W        W65510  19.765  14.317   4.792
97038W        W65511   2.769  26.502   3.755
97039W        W65512  13.800   1.861   1.752
97040W        W65513  28.647   8.296   3.661
97041W        W65514  32.900  16.717  11.952
97042W        W65515  34.469  42.008   4.820
97043W        W65516  31.981  36.920   2.688
97044W        W65517   1.882  42.978   1.862
97045W        W65518  42.897   0.796   2.397
97046W        W65519   0.801   2.373   2.867
97047W        W65520  14.692  41.975  13.351
97048W        W65521  17.286  21.650   3.210
97049W        W65522  19.132  38.513   3.834
97050W        W65523  19.221   8.221   3.856
97051W        W65524   2.309  15.595  11.417
97052W        W65525  28.480  43.365   3.825
97053W        W65526  37.997   2.761   3.834
97054W        W65527  13.830   4.864   1.279
97055W        W65528  24.975  19.693   2.787
97056W        W65529  25.587  41.313   2.675
97057W        W65530  43.312  14.827  14.339
97058W        W65531  44.461  21.247  14.427
97059W        W65532  30.450  19.091   3.299
97060W        W65533  22.531  27.975  13.871
97061W        W65534  32.075  23.691  11.921
97062W        W65535   1.450   3.800   0.774
97063W        W65536  24.708  44.415   0.748
97064W        W65537  19.073  21.163  10.630
97065W        W65538  42.514  22.067   4.186
97066W        W65539   0.321  18.789   2.724
97067W        W65540  19.188  22.601  13.524
97068W        W65541  20.259  18.069   4.127
97069W        W65542   5.315   8.801   0.363
97070W        W65543  21.707   3.329   3.333
97071W        W65544   3.394  29.515  11.581
97072W        W65545  22.674   7.289  11.955
97073W        W65546   1.759  11.224   0.741
97074W        W65547  40.456   5.326  14.025
97075W        W65548   7.736  16.669  11.959
97076W        W65549  36.095  30.998  13.877
97077W        W65550  10.877  12.707  14.031
97078W        W65551  23.572  21.084  11.463
97079W        W65552  26.071  21.143   0.264
97080W        W65553   7.262  26.592  10.921
97081W        W65554  33.501   1.963   0.346
97082W        W65555  16.293   4.335   3.854
97083W        W65556  36.909  27.091  12.473
97084W        W65557  14.121  23.225  13.495
97085W        W65558  31.469  40.958  13.003
97086W        W65559  17.647  16.255  10.544
97087W        W65560   3.868   9.889  12.926
97088W        W65561   2.435  24.222  10.951
97089W        W65562   4.244  11.746   3.173
97090W        W65563   2.230  21.101  11.511
97091W        W65564  31.091  18.174  13.829
97092W        W65565   8.214  37.988   1.854
97093W        W65566  16.273  20.681  11.498
97094W        W65567   5.193  43.504  11.404
97095W        W65568   9.364  23.603   4.147
97096W        W65569  18.604  22.501  14.445
97097W        W65570   1.401  38.848  11.609
97098W        W65571  41.344  17.192   1.898
97099W        W65572   7.360  26.517  10.112
97100W        W65573  10.823  19.643  14.375
97101W        W65574  12.784  41.393   3.771
97102W        W65575  15.101  26.541   2.312
97103W        W65576  31.958  11.285   2.742
97104W        W65577  38.934  31.032   4.735
97105W        W65578  35.506   0.859   3.638
97106W        W65579  28.681  14.263   5.208
97107W        W65580  32.089  17.568  13.061
97108W        W65581   5.330  44.273  13.005
97109W        W65582  26.632  42.298   0.250
97110W        W65583  36.855   7.257  12.368
97111W        W65584  43.325  34.598  12.043
97112W        W65585  26.665  10.728  14.879
97113W        W65586   1.244  25.540  14.401
97114W        W65587  35.443  41.864  13.859
97115W        W65588   8.171  40.471  12.975
97116W        W65589  15.191  35.046   3.163
97117W        W65590  17.611  10.758  14.984
97118W        W65591  30.159  19.623   4.346
97119W        W65592  12.251  33.592   4.275
97120W        W65593  26.051  44.359  10.018
97121W        W65594  33.038  15.227  12.027
97122W        W65595   1.374  41.803  12.934
97123W        W65596  16.263  37.001   5.757
97124W        W65597  25.139   1.306   1.794
97125W        W65598  12.661  26.635   1.218
97126W        W65599   2.865  41.963   3.702
97127W        W65600  40.823   7.285  11.036
97128W        W65601  36.412  21.530  10.586
97129W        W65602  29.509  11.130  14.929
97130W        W65603  27.195  32.568   1.256
97131W        W65604   1.397  14.331  13.343
97132W        W65605  44.844  38.486   4.780
97133W        W65606  15.624  21.545  12.352
97134W        W65607   6.420   0.962   3.219
97135W        W65608  41.040  43.513   3.355
97136W        W65609   1.439  14.727  11.472
97137W        W65610  17.701  18.666   3.196
97138W        W65611  42.519  25.044   4.219
97139W        W65612  39.047   1.907   4.285
97140W        W65613  34.592  14.226   1.899
97141W        W65614  10.280  36.385   4.617
97142W        W65615  34.982  44.842   2.365
97143W        W65616  29.169  44.840  11.037
97144W        W65617  26.155  43.380   1.346
97145W        W65618   7.364  11.167   0.954
97146W        W65619   5.303  19.599   3.808
97147W        W65620  28.102  34.014   2.819
97148W        W65621  24.183   7.832  11.555
97149W        W65622  24.719  16.690   1.333
97150W        W65623  10.344  10.173   0.864
97151W        W65624  15.803  16.130   0.407
97152W        W65625  27.952   5.388  13.356
97153W        W65626  43.307   4.927  10.038
97154W        W65627  36.876  28.626  11.559
97155W        W65628  36.983  20.619  13.018
97156W        W65629  27.000   2.268   0.769
97157W        W65630  39.965  27.634   0.911
97158W        W65631  14.335  34.083  14.912
97159W        W65632  25.699  43.861   0.341
97160W        W65633  25.966  42.514   4.146
97161W        W65634  26.113  40.003   1.873
97162W        W65635  39.449  11.251  10.893
97163W        W65636  31.511   8.214  10.907
97164W        W65637  28.138  29.156  14.352
97165W        W65638  11.774  36.080   0.344
97166W        W65639  14.232  20.196   3.810
97167W        W65640  27.065  20.543   0.901
97168W        W65641  34.547  42.487   4.740
97169W        W65642   7.850  38.456   4.140
97170W        W65643  31.094  15.593   0.809
97171W        W65644   7.872  35.503   3.179
97172W        W65645  23.653  14.619  11.598
97173W        W65646  25.565   7.856  12.029
97174W        W65647  17.591   2.472   2.739
97175W        W65648   0.774  28.585   2.808
97176W        W65649  12.351  11.183  13.371
97177W        W65650  31.585  32.588   2.793
97178W        W65651  31.414  27.193  13.495
97179W        W65652  23.051  19.540   3.265
97180W        W65653  20.539   0.803   3.643
97181W        W65654  19.203  11.171  12.869
97182W        W65655  27.050  11.708   1.406
97183W        W65656  35.451  39.357  12.886
97184W        W65657  35.581  17.718   4.755
97185W        W65658  18.271  18.118   2.214
97186W        W65659  26.529  36.411  14.468
97187W        W65660  22.742  20.249   2.368
97188W        W65661  27.556  13.118  11.567
97189W        W65662  32.413  15.327  12.848
97190W        W65663   3.826  28.031  12.345
97191W        W65664   4.429  10.264   2.689
97192W        W65665  24.161  31.079   2.892
97193W        W65666  39.857  40.377  11.116
97194W        W65667  23.566  43.793  12.492
97195W        W65668  40.809  35.557   4.684
97196W        W65669   9.186   6.306  11.112
97197W        W65670   6.753  37.556   2.325
97198W        W65671  15.294  15.094  11.442
97199W        W65672  24.225  15.696   1.900
97200W        W65673  17.643   4.409  10.474
97201W        W65674   7.258  18.176  13.465
97202W        W65675  44.861  33.510   2.312
97203W        W65676  43.816  18.067  13.416
97204W        W65677  27.475  41.788  12.913
97205W        W65678  43.311  34.958   0.436
97206W        W65679  35.460  42.003   2.361
97207W        W65680  42.803  40.033   3.312
97208W        W65681  42.505  14.155  14.871
97209W        W65682   7.809  29.533  10.428
97210W        W65683  36.579  39.521   0.875
97211W        W65684   0.259   0.923  10.623
97212W        W65685   6.879  15.807  12.960
97213W        W65686   4.751  12.699   2.266
97214W        W65687  18.263   1.956  10.612
97215W        W65688  31.597  22.608   4.222
97216W        W65689  29.511  32.926  11.127
97217W        W65690   0.459   9.759   0.280
97218W        W65691  32.630  34.939  13.978
97219W        W65692   2.389  16.289  13.906
97220W        W65693  16.680   9.807   4.796
97221W        W65694   2.372  29.061   3.288
97222W        W65695  44.396  36.518  14.289
97223W        W65696  23.153  39.865   3.710
97224W        W65697  40.530  23.119   1.405
97225W        W65698  25.077  18.143   3.691
97226W        W65699  17.220  22.511   4.702
97227W        W65700   3.859   1.469  12.388
97228W        W65701  24.109  15.154   3.168
97229W        W65702   3.446  37.920  14.891
97230W        W65703  27.169  14.748  10.595
97231W        W65704  34.949  39.004  10.557
97232W        W65705  28.561  28.437   0.899
97233W        W65706  35.016  21.557   1.368
97234W        W65707  41.362  24.118   2.803
97235W        W65708  11.857   6.837   0.933
97236W        W65709  39.928  42.829  11.500
97237W        W65710  32.945  21.127  13.373
97238W        W65711  10.656  19.052   2.302
97239W        W65712  25.616  20.175  13.535
97240W        W65713  31.043  43.843   3.197
97241W        W65714  26.512   0.319  14.386
97242W        W65715  39.037  40.851   0.381
97243W        W65716   0.856  44.805  12.483
97244W        W65717  14.266  30.056   0.754
97245W        W65718  13.259   2.436  14.957
97246W        W65719   9.302  26.584   4.832
97247W        W65720  23.179  42.409  14.844
97248W        W65721  12.307   0.395   2.810
97249W        W65722  25.605  35.517  11.511
97250W        W65723   3.328   5.334   2.675
97251W        W65724   8.312  37.857   1.250
97252W        W65725  26.132   0.465   2.693
97253W        W65726  28.107  28.968   2.888
97254W        W65727  39.555  19.565  14.848
97255W        W65728  29.077  25.711   2.863
97256W        W65729  40.429  16.308  11.502
97257W        W65730  15.773  34.108  12.892
97258W        W65731  11.815  36.907  10.632
97259W        W65732  17.773  33.962   2.391
97260W        W65733   9.691  21.208   4.688
97261W        W65734   0.937  22.607  10.121
97262W        W65735   8.189  39.398   3.154
97263W        W65736  20.568   7.197  14.936
97264W        W65737   4.831  10.258  11.416
97265W        W65738  31.979  31.941   9.957
97266W        W65739  20.598   2.438   2.361
97267W        W65740  31.596  19.179  13.903
97268W        W65741  33.049  25.110  14.827
97269W        W65742   2.339  37.396   5.154
97270W        W65743  44.442  20.156  11.954
97271W        W65744  21.135   9.745   1.432
97272W        W65745   1.896  32.046  11.506
97273W        W65746  43.355  35.004  11.577
97274W        W65747  12.213  22.681  12.999
97275W        W65748  34.373  13.180  13.048
97276W        W65749  26.199   3.913  10.997
97277W        W65750  36.097   1.341  12.384
97278W        W65751   0.387   7.846  14.356
97279W        W65752   5.850  17.245   3.712
97280W        W65753   0.259  24.480   1.313
97281W        W65754  14.645  13.205   0.397
97282W        W65755   7.869  21.027  14.979
97283W        W65756  35.064  20.079   4.304
97284W        W65757  35.034  24.104   1.798
97285W        W65758  14.179  34.433   0.812
97286W        W65759  19.172  40.455   0.798
97287W        W65760   4.797  29.996   0.792
97288W        W65761  43.880  16.589  12.846
97289W        W65762  17.098  33.917  11.873
97290W        W65763  22.692   5.390  13.018
97291W        W65764  38.518  21.059   2.203
97292W        W65765  27.481   9.208   2.776
97293W        W65766  25.059  34.379   0.786
97294W        W65767  19.171   8.246  10.958
97295W        W65768  35.475  34.909  13.806
97296W        W65769   4.758  11.274  12.356
97297W        W65770  36.963   5.797  13.903
97298W        W65771  19.771  32.898   4.783
97299W        W65772  10.817  21.120  11.586
97300W        W65773  43.018  30.561   1.734
97301W        W65774  42.970  19.550   1.269
97302W        W65775  40.814  11.663   0.477
97303W        W65776  30.641   3.714   0.818
97304W        W65777  26.547  43.958  13.048
97305W        W65778  25.630  17.612  14.460
97306W        W65779  24.596  43.284   4.124
97307W        W65780   4.889  12.843   1.737
97308W        W65781  42.355   1.247   4.335
97309W        W65782   3.269  36.075  12.404
97310W        W65783  29.970  35.545   4.631
97311W        W65784  22.019  32.050  12.414
97312W        W65785  40.892   7.270   0.894
97313W        W65786   9.671  20.644   1.913
97314W        W65787  24.172  18.088  14.915
97315W        W65788  18.676  18.201  10.035
97316W        W65789  20.147  17.197  11.572
97317W        W65790  15.105  22.637   2.668
97318W        W65791  24.571   3.899   4.626
97319W        W65792   5.380   6.410  14.859
97320W        W65793  39.528  44.492  14.010
97321W        W65794  20.089  34.060   2.677
97322W        W65795  41.005  22.559   3.341
97323W        W65796   1.932  22.199  12.494
97324W        W65797  24.722  22.628   2.903
97325W        W65798  41.831   1.329   4.175
97326W        W65799   6.310  44.404   3.323
97327W        W65800  12.165  41.333  14.000
97328W        W65801  22.728   5.382   2.668
97329W        W65802   7.777  28.022   1.320
97330W        W65803   9.864   0.985   3.822
97331W        W65804  38.424  38.946  12.882
97332W        W65805  39.353   1.898   2.334
97333W        W65806  40.817  20.084   1.426
97334W        W65807  14.250  29.992  10.906
97335W        W65808  35.106  20.134  10.912
97336W        W65809  13.640   6.252  13.351
97337W        W65810  31.947  33.405   3.320
97338W        W65811  12.176   0.309   4.169
97339W        W65812  26.042  40.022   3.364
97340W        W65813  30.950  36.040  14.467
97341W        W65814  17.801  31.137  13.312
97342W        W65815  41.934  22.551   1.762
97343W        W65816  36.932  22.649  12.834
97344W        W65817   8.287   0.398   2.777
97345W        W65818   6.705  20.230  13.940
97346W        W65819   7.302  26.007   1.353
97347W        W65820  25.702  44.450  13.338
97348W        W65821  25.497  42.003   4.787
97349W        W65822  30.002  42.977   3.734
97350W        W65823  11.660  12.730  12.405
97351W        W65824  17.751   1.447  13.792
97352W        W65825  28.642  27.542   2.260
97353W        W65826   9.265  43.420  12.081
97354W        W65827  36.360  18.631  11.485
97355W        W65828  42.795  36.078  14.769
97356W        W65829  25.170  13.232   0.797
97357W        W65830  23.720  21.734   3.377
97358W        W65831  27.959  11.739  10.487
97359W        W65832   5.384  27.577  14.364
97360W        W65833  22.569  21.588  11.859
97361W        W65834  30.583  19.747  12.964
97362W        W65835   4.857  42.829  12.904
97363W        W65836   4.351  17.766  13.995
97364W        W65837  44.369  36.555   0.744
97365W        W65838  38.346   1.952   4.173
97366W        W65839  15.153  18.226   3.686
97367W        W65840  13.259  24.499   2.196
97368W        W65841   5.902  31.918  13.407
97369W        W65842  19.679  10.749   0.864
97370W        W65843  24.561  36.374  14.416
97371W        W65844  31.153   7.376   4.184
97372W        W65845   2.780  17.721   3.682
97373W        W65846   5.293   3.888  14.008
97374W        W65847   6.793   7.830   1.382
97375W        W65848  37.976  14.126  11.873
97376W        W65849  40.849  31.061  14.920
97377W        W65850  31.497   2.314   3.860
97378W        W65851  18.212  21.630   4.774
97379W        W65852  18.208  25.504   4.309
97380W        W65853   7.298  13.746   5.295
97381W        W65854   5.692   4.795   4.785
97382W        W65855  15.737  12.701  13.510
97383W        W65856   0.880  20.041  14.282
97384W        W65857  34.430  43.376   2.390
97385W        W65858  34.069  30.041   1.854
97386W        W65859  32.477  22.236   1.432
97387W        W65860  44.769  40.048   4.342
97388W        W65861  11.636   4.322   9.925
97389W        W65862  21.710  35.105  10.066
97390W        W65863  27.132  35.091  12.466
97391W        W65864  41.394  13.764  11.968
97392W        W65865  40.548   4.707   2.874
97393W        W65866  37.466  26.994  14.006
97394W        W65867  23.007  20.693  10.932
97395W        W65868  39.387  40.333   3.237
97396W        W65869  32.047  40.365   4.705
97397W        W65870  44.387  12.318   2.267
97398W        W65871  33.380  18.118   3.816
97399W        W65872  13.655  17.724   2.244
97400W        W65873  35.108  19.562   4.601
97401W        W65874  15.242  41.017  11.500
97402W        W65875  31.466  37.416  13.886
97403W        W65876  11.314   6.769   2.890
97404W        W65877  43.435   1.269   4.274
97405W        W65878  39.932   3.861  14.903
97406W        W65879  24.573  20.190   4.824
97407W        W65880  38.854  14.176   4.221
97408W        W65881  10.199  40.351   1.212
97409W        W65882   3.350  37.886   4.128
97410W        W65883  23.644  25.212  11.058
97411W        W65884  14.119  30.081   3.772
97412W        W65885  35.999  25.145   1.840
97413W        W65886   3.422  21.696   3.712
97414W        W65887  27.536  40.347  11.894
97415W        W65888  36.370  39.828   4.785
97416W        W65889  42.349  15.189  11.900
97417W        W65890  20.192  39.995  14.031
97418W        W65891  40.997   5.826   2.342
97419W        W65892  26.138   1.407   0.291
97420W        W65893  22.032  10.692  13.961
97421W        W65894  28.491  17.139  11.507
97422W        W65895   6.694  40.459   3.201
97423W        W65896  29.923  32.918   0.746
97424W        W65897   2.798   5.308  13.973
97425W        W65898   1.944  16.638   0.382
97426W        W65899   5.928  18.282  12.979
97427W        W65900  12.745  22.111   2.744
97428W        W65901   5.764  32.473   1.370
97429W        W65902   2.818  13.318  14.340
97430W        W65903  24.033  43.772  13.850
97431W        W65904  15.674  40.535  10.092
97432W        W65905   1.361  25.483   2.677
97433W        W65906   9.885   2.896   4.203
97434W        W65907   0.479  27.057   1.224
97435W        W65908  19.252  29.924  13.834
97436W        W65909  13.325  38.039  14.368
97437W        W65910  11.366  13.639   1.729
97438W        W65911   7.183  21.603  13.851
97439W        W65912  38.442  15.633   2.897
97440W        W65913   4.347   0.899  13.873
97441W        W65914  12.282  35.985  11.432
97442W        W65915   4.884   2.384   3.732
97443W        W65916  24.087   4.804  10.969
97444W        W65917  39.384  16.732  14.282
97445W        W65918  14.144  15.178  13.931
97446W        W65919  22.656  38.446  14.405
97447W        W65920  34.606   5.289  11.873
97448W        W65921  31.140  43.433   2.812
97449W        W65922  27.584  32.128  13.472
97450W        W65923   4.789   3.909  12.891
97451W        W65924  38.558   2.915  14.381
97452W        W65925  27.954   6.315   0.396
97453W        W65926  14.628  28.028   1.256
97454W        W65927  38.378  25.627   3.334
97455W        W65928  11.792   8.803  11.983
97456W        W65929   8.263  38.561   0.314
97457W        W65930  12.654   2.380   3.266
97458W        W65931  32.088   4.907  11.433
97459W        W65932   2.818  11.147  12.361
97460W        W65933  39.884  23.728  10.427
97461W        W65934   9.744  41.337   3.778
97462W        W65935  39.558  26.582   3.186
97463W        W65936  23.529  33.422  10.642
97464W        W65937  33.041   8.896  11.459
97465W        W65938   8.196   6.387  14.507
97466W        W65939   3.880  25.612   3.817
97467W        W65940  14.156   3.736  11.064
97468W        W65941  11.809  32.444  11.070
97469W        W65942  43.484  26.654  13.847
97470W        W65943  19.725  10.206   2.220
97471W        W65944  28.176  35.397   4.114
97472W        W65945   9.207  19.065   4.721
97473W        W65946  19.598   5.427   0.456
97474W        W65947  41.520  22.719   3.673
97475W        W65948  17.737   9.803   1.871
97476W        W65949   0.811  43.461   4.321
97477W        W65950  23.216  39.988   2.213
97478W        W65951  30.932   8.708  13.899
97479W        W65952  44.799   2.789   1.405
97480W        W65953  23.141   7.295  12.895
97481W        W65954  24.186  18.076   2.322
97482W        W65955   4.249  26.205   2.815
97483W        W65956  24.134   8.221  14.911
97484W        W65957  44.499  24.104  12.094
97485W        W65958  41.860  41.825  13.441
97486W        W65959  17.760  36.421  13.330
97487W        W65960  14.778  30.060   0.787
97488W        W65961  37.859   6.191  13.968
97489W        W65962  38.847  30.423  13.904
97490W        W65963   6.860  43.007  11.100
97491W        W65964   0.357  14.339   2.325
97492W        W65965  20.672   9.766  12.427
97493W        W65966   0.396  28.959   0.291
97494W        W65967   7.234  19.696   2.201
97495W        W65968  30.644  21.719   0.731
97496W        W65969  34.410  10.641   3.265
97497W        W65970  13.692  11.146   3.344
97498W        W65971  23.540  15.204  13.930
97499W        W65972  18.190  18.688  14.889
97500W        W65973  29.592  26.484   4.756
97501W        W65974  24.982  35.414  13.027
97502W        W65975  26.979  30.536  11.092
97503W        W65976   5.348   3.365  13.806
97504W        W65977  43.840  35.412  10.406
97505W        W65978  15.316   1.395  11.549
97506W        W65979  26.979  30.037   3.152
97507W        W65980  41.792  23.727   3.196
97508W        W65981   4.783  15.327   3.211
97509W        W65982  29.939  21.673   4.682
97510W        W65983  11.186   4.406   3.804
97511W        W65984  34.397   3.425   1.731
97512W        W65985   7.172  30.513  12.075
97513W        W65986   1.401  11.269   1.431
97514W        W65987  40.400  40.969   2.364
97515W        W65988  27.510  36.910   0.888
97516W        W65989  42.998  28.181  13.381
97517W        W65990  43.840  12.833   4.728
97518W        W65991  35.045  43.009  11.036
97519W        W65992  25.698  24.488  12.420
97520W        W65993   9.327  34.081  13.464
97521W        W65994  27.096  11.821  11.419
97522W        W65995  26.119  26.568  12.569
97523W        W65996  20.108  22.558   0.414
97524W        W65997  22.024  42.967  13.322
97525W        W65998  20.197  37.558  12.891
97526W        W65999  16.665   2.900  12.514
97527W        W66000  32.469   1.398   3.735
97528W        W66001  24.017  20.545  13.361
97529W        W66002  22.691  24.687  11.127
97530W        W66003   4.855  31.111  14.796
97531W        W66004  39.378  31.965  12.571
97532W        W66005  32.124  35.009   1.428
97533W        W66006  13.232  13.622  13.940
97534W        W66007  37.533  14.314  14.874
97535W        W66008  44.780  34.614  10.917
97536W        W66009  31.137  41.956  12.065
97537W        W66010   6.243  21.222   0.390
97538W        W66011  15.184  17.273  12.877
97539W        W66012  31.045  10.209   4.614
97540W        W66013  38.844  18.554  11.968
97541W        W66014  37.053  32.503   0.327
97542W        W66015  30.139  37.526  14.320
97543W        W66016  37.507  12.852   4.123
97544W        W66017  36.842  39.962  13.532
97545W        W66018  32.063  30.987   1.273
97546W        W66019  41.014  20.113   2.195
97547W        W66020  17.663  13.304   0.433
97548W        W66021  27.594  17.218  10.418
97549W        W66022  34.904  38.907   0.400
97550W        W66023  38.990   6.725   1.378
97551W        W66024   4.232  34.460  10.443
97552W        W66025  17.151  36.536   4.295
97553W        W66026  34.097   0.967  14.294
97554W        W66027  35.885  10.207  13.911
97555W        W66028  35.875   0.433   0.903
97556W        W66029  38.355  32.516  11.495
97557W        W66030  43.942  21.715  11.405
97558W        W66031   1.754  31.627   1.891
97559W        W66032  25.020  41.902  11.888
97560W        W66033  18.639  10.316  14.448
97561W        W66034  38.012  12.664  13.844
97562W        W66035  26.188  31.110  14.450
97563W        W66036  39.493  34.071   2.751
97564W        W66037   9.806  28.036  13.320
97565W        W66038   6.916  30.581  11.442
97566W        W66039  29.515  28.977  13.992
97567W        W66040  25.134  23.537   1.450
97568W        W66041  37.933   0.270  10.902
97569W        W66042  20.093   7.748   0.847
97570W        W66043   8.353  17.629  11.958
97571W        W66044  12.316   0.918  13.885
97572W        W66045  32.511  18.744  14.419
97573W        W66046  40.824  35.917   2.235
97574W        W66047   3.404  31.150  14.954
97575W        W66048  31.986  35.480  13.331
97576W        W66049  39.896  38.560  11.563
97577W        W66050  44.968  22.183  12.356
97578W        W66051   8.778   7.308   0.765
97579W        W66052  12.187  26.002   0.807
97580W        W66053  41.870  43.370   2.728
97581W        W66054   4.708  43.459  14.928
97582W        W66055  16.143  14.151   2.802
97583W        W66056   2.827  37.939  12.967
97584W        W66057  40.351  31.991   1.275
97585W        W66058  37.907  10.293  14.435
97586W        W66059   6.308  12.229   4.209
97587W        W66060   1.748  25.197  10.908
97588W        W66061  26.206  40.971   0.903
97589W        W66062  19.730   4.830   2.221
97590W        W66063   4.763  28.072  12.403
97591W        W66064  30.104  13.724  11.938
97592W        W66065  36.505  34.019  12.050
97593W        W66066   6.846  32.509  12.345
97594W        W66067  16.808  30.441   2.285
97595W        W66068  17.669  15.760  14.390
97596W        W66069  44.378  19.554   0.889
97597W        W66070  24.155   2.873  14.973
97598W        W66071  36.417  21.682   3.739
97599W        W66072  37.952  34.547   9.963
97600W        W66073  39.360  35.886   3.798
97601W        W66074  36.493  29.470   3.820
97602W        W66075  38.450  16.782   3.765
97603W        W66076   5.715  10.183  11.531
97604W        W66077  40.936  42.470   4.299
97605W        W66078   2.945  14.628  10.973
97606W        W66079  12.223  11.231  14.390
97607W        W66080  11.735  16.628  12.892
97608W        W66081  14.327  13.156  11.936
97609W        W66082   9.203  37.380   2.830
97610W        W66083  28.933  44.350  12.406
97611W        W66084  34.929   6.852  12.033
97612W        W66085  17.716  25.218   2.183
97613W        W66086   5.209   4.432  13.033
97614W        W66087  17.751  39.932   5.239
97615W        W66088   0.288  32.468  10.455
97616W        W66089  13.123  34.539  12.009
97617W        W66090  33.393  44.327  11.977
97618W        W66091  13.284  34.433   3.278
97619W        W66092   3.285  22.125   9.991
97620W        W66093  31.587  44.385   2.277
97621W        W66094   0.905  16.127   3.149
97622W        W66095  42.965   1.241   3.194
97623W        W66096  26.571  31.966   4.166
97624W        W66097  36.021  20.578  13.521
97625W        W66098  36.401  15.665   3.684
97626W        W66099  14.812  19.567  12.018
97627W        W66100   1.828   6.689   2.876
97628W        W66101   9.288   8.681  14.771
97629W        W66102  34.420  35.359  13.911
97630W        W66103   0.470  21.042   1.445
97631W        W66104  41.946  35.603  14.875
97632W        W66105  39.357  39.815  13.043
97633W        W66106  18.106  37.451  10.514
97634W        W66107   1.917  28.585  11.897
97635W        W66108   2.418  25.473  12.014
97636W        W66109  42.299  35.869   0.242
97637W        W66110   6.797  18.786  13.326
97638W        W66111  39.832  26.533  10.566
97639W        W66112  20.650  33.575   3.682
97640W        W66113  43.856   5.879   4.783
97641W        W66114  33.918  35.910   0.910
97642W        W66115  37.406  32.402  14.763
97643W        W66116  35.573  42.373  12.968
97644W        W66117  25.545  24.171   3.692
97645W        W66118  33.409  42.987   9.993
97646W        W66119  21.035  41.963   0.291
97647W        W66120   4.859  33.584  14.004
97648W        W66121  24.697  32.930   3.837
97649W        W66122  32.896  38.444   0.295
97650W        W66123  42.910  24.058   2.269
97651W        W66124  44.882   4.910  13.347
97652W        W66125  17.287  18.168  12.895
97653W        W66126  26.979  24.147  10.601
97654W        W66127  43.314  13.173   0.965
97655W        W66128  23.129  18.060  11.418
97656W        W66129  26.040  27.148  11.008
97657W        W66130  43.876  18.289   3.157
97658W        W66131  21.039   6.817  10.542
97659W        W66132   5.366  23.234   0.422
97660W        W66133  26.627  38.988  13.884
97661W        W66134  36.950  19.164  10.990
97662W        W66135  42.300  14.675   0.301
97663W        W66136  33.576  10.275  14.440
97664W        W66137   4.217   9.850  11.598
97665W        W66138   8.388  44.868  11.474
97666W        W66139  22.047  30.453   2.753
97667W        W66140  27.185  31.404  12.848
97668W        W66141   9.796  15.677   1.717
97669W        W66142  24.590   3.319  10.937
97670W        W66143  32.500  44.948   2.822
97671W        W66144  19.258  42.009   3.720
97672W        W66145  19.217  29.446  11.855
97673W        W66146  29.952  31.477  12.932
97674W        W66147  42.020  42.801  14.894
97675W        W66148   3.757   1.958   4.665
97676W        W66149  40.468   0.768   0.270
97677W        W66150  18.268  29.064   2.704
97678W        W66151  39.031   8.799   0.757
97679W        W66152   0.983  37.030  10.913
97680W        W66153  32.955  18.111  10.515
97681W        W66154  36.579  36.385  14.859
97682W        W66155   4.316  11.194  14.971
97683W        W66156  40.956  40.905   2.287
97684W        W66157  30.532  43.860   0.393
97685W        W66158   0.923  12.361  14.962
97686W        W66159  31.615  20.192  12.534
97687W        W66160  21.578  34.423  11.542
97688W        W66161  21.540  19.536   2.238
97689W        W66162   7.907  37.480   2.211
97690W        W66163  26.194  41.413  11.858
97691W        W66164  21.249  10.783   1.759
97692W        W66165   4.733   4.325   1.711
97693W        W66166  39.990  21.661   4.305
97694W        W66167  28.939  44.905  14.437
97695W        W66168  39.965   1.923  14.383
97696W        W66169   8.252  17.247   1.398
97697W        W66170  11.774  35.913  13.374
97698W        W66171  38.929  30.955   2.830
97699W        W66172  41.439   1.731   4.633
97700W        W66173   2.325  33.063   4.159
97701W        W66174  26.992  14.211   0.726
97702W        W66175   5.724  13.665   1.324
97703W        W66176  29.529  23.141  12.561
97704W        W66177  17.588  20.678  12.018
97705W        W66178  27.498  25.056  13.487
97706W        W66179  37.545  34.600   1.366
97707W        W66180  23.186  22.153  12.007
97708W        W66181   5.919  44.303  13.853
97709W        W66182  22.599  27.554   5.308
97710W        W66183   8.192  37.866  14.507
97711W        W66184  35.456  24.641  11.434
97712W        W66185  19.556  34.379  13.988
97713W        W66186   8.787  42.884   0.937
97714W        W66187  36.552   3.287  14.315
97715W        W66188  22.706  23.586   4.798
97716W        W66189  41.982  37.079   3.281
97717W        W66190  31.055  33.596   0.244
97718W        W66191  38.409  40.045  12.481
97719W        W66192  21.108  14.280  10.523
97720W        W66193   0.389  38.380   0.282
97721W        W66194  19.689  15.324  10.558
97722W        W66195  20.598  26.157   0.396
97723W        W66196  16.812  31.425  13.428
97724W        W66197  42.890  42.947  13.031
97725W        W66198  11.327  29.595   4.155
97726W        W66199   0.790  24.034   0.370
97727W        W66200  36.420  39.333   0.273
97728W        W66201  36.587  20.578   2.811
97729W        W66202  24.511  14.617   5.772
97730W        W66203  21.718  26.030   2.410
97731W        W66204  31.100  44.472  10.890
97732W        W66205  27.601  26.977  14.978
97733W        W66206  36.365  16.718  14.995
97734W        W66207   9.719  21.043  14.424
97735W        W66208  31.533  14.337   2.245
97736W        W66209  13.636  40.023  11.537
97737W        W66210  23.692  34.091   1.907
97738W        W66211  27.616  22.720  14.500
97739W        W66212   8.308   3.931   4.299
97740W        W66213  31.449  20.243   0.259
97741W        W66214  29.097   8.761  10.641
97742W        W66215  15.725  13.259   3.179
97743W        W66216   8.840   7.855  12.480
97744W        W66217   1.960  13.826   4.720
97745W        W66218  19.553  44.342  13.361
97746W        W66219   0.969  15.804   1.237
97747W        W66220  34.091  29.465   4.216
97748W        W66221  28.532  24.147  14.377
97749W        W66222  13.177   9.394   0.841
97750W        W66223   6.789  21.222  10.424
97751W        W66224  16.715  32.534   3.365
97752W        W66225  41.361  32.504  11.401
97753W        W66226  42.852  39.559  10.896
97754W        W66227  11.759   2.303  13.521
97755W        W66228  28.103  40.364  10.635
97756W        W66229  21.631  26.149   3.244
97757W        W66230  26.111  34.444   2.207
97758W        W66231  44.981  23.531  13.044
97759W        W66232  37.527  41.295  10.926
97760W        W66233  34.424  25.985   0.452
97761W        W66234   9.269  23.519   0.263
97762W        W66235   9.667  21.691   0.250
97763W        W66236   9.341  32.896  13.861
97764W        W66237   8.730  33.017  11.528
97765W        W66238  28.103   9.771  14.339
97766W        W66239  23.144  18.606   1.260
97767W        W66240  17.097  43.398  11.992
97768W        W66241  14.688  20.115   1.252
97769W        W66242   2.263  26.483  10.630
97770W        W66243  25.069   0.305   2.288
97771W        W66244  24.491   4.415  11.422
97772W        W66245  22.154   3.400  10.972
97773W        W66246  14.607   3.257  12.843
97774W        W66247  10.662  16.779  14.936
97775W        W66248   5.796  33.422  13.884
97776W        W66249  15.238  29.953   0.762
97777W        W66250  26.533  23.538  12.431
97778W        W66251  22.684  18.120  13.064
97779W        W66252  23.053  27.567  13.490
97780W        W66253   6.920  38.498  12.458
97781W        W66254  16.318   3.787  12.557
97782W        W66255  13.820   6.712   2.877
97783W        W66256   4.922   5.428  13.443
97784W        W66257   3.270   3.871   4.712
97785W        W66258  28.996  36.931  11.866
97786W        W66259  32.976  41.496   3.218
97787W        W66260   4.805  30.473   2.883
97788W        W66261  14.759   7.269  10.078
97789W        W66262  19.703  33.080  13.905
97790W        W66263  41.913  25.137   0.392
97791W        W66264  14.668  38.338   3.191
97792W        W66265  21.206   5.767   2.856
97793W        W66266   2.258  24.225   4.637
97794W        W66267  40.836  11.699  13.025
97795W        W66268  10.207  27.951   2.367
97796W        W66269  43.898   9.711   1.911
97797W        W66270  33.936  42.880   3.178
97798W        W66271  24.977  42.415   4.638
97799W        W66272  34.517  28.003  14.295
97800W        W66273  15.818  42.295  14.373
97801W        W66274  23.655  40.936   1.763
97802W        W66275   2.739  20.229   3.295
97803W        W66276  32.454   4.407  14.805
97804W        W66277  26.995  13.330  14.906
97805W        W66278  36.950   8.787   0.371
97806W        W66279  34.007   7.251  10.899
97807W        W66280  10.249  30.604  12.439
97808W        W66281   8.395  44.268   4.598
97809W        W66282  22.624  29.059  11.580
97810W        W66283  31.551  22.513  11.579
97811W        W66284  34.464   1.883   1.235
97812W        W66285  36.493  17.570   4.299
97813W        W66286  17.679  38.002  11.908
97814W        W66287  32.122  18.744   1.304
97815W        W66288  39.912  40.410  14.772
97816W        W66289  11.269  10.689  11.990
97817W        W66290  23.575  24.618  12.897
97818W        W66291  31.897   6.324   0.854
97819W        W66292  10.382  36.528  11.884
97820W        W66293  15.238  30.031   4.761
97821W        W66294  37.385   0.946   1.427
97822W        W66295  40.401  29.110   0.470
97823W        W66296  23.490  37.428   3.342
97824W        W66297  41.013  40.353   1.447
97825W        W66298  18.080   9.201  12.026
97826W        W66299  20.267  17.766  10.419
97827W        W66300   4.332  38.874  13.502
97828W        W66301  25.657  13.696  12.996
97829W        W66302  38.986  36.088   5.192
97830W        W66303   5.724  41.949   0.948
97831W        W66304   1.403  29.644  11.068
97832W        W66305   2.415  21.644  11.894
97833W        W66306  10.262  14.197  14.794
97834W        W66307  32.616  10.770   4.607
97835W        W66308  23.661  43.965   1.431
97836W        W66309  36.477  41.799  12.956
97837W        W66310  11.777  38.046  10.633
97838W        W66311  14.215  18.564  11.609
97839W        W66312  24.720  33.905  14.339
97840W        W66313   4.724  34.030   2.862
97841W        W66314  15.623  30.541  14.022
97842W        W66315  28.120   9.247  14.834
97843W        W66316   4.855  28.039   1.344
97844W        W66317   6.765  21.753  14.926
97845W        W66318  29.462  29.985  14.856
97846W        W66319  30.964  26.476  13.021
97847W        W66320   0.290  42.821  14.788
97848W        W66321  18.626  27.602  14.803
97849W        W66322  12.831  30.076   2.730
97850W        W66323   7.396  39.963  13.980
97851W        W66324   2.842  29.145   0.406
97852W        W66325  15.314  42.485  11.113
97853W        W66326  35.910  28.135   4.316
97854W        W66327  21.179   8.186   1.715
97855W        W66328  25.054  31.955  10.543
97856W        W66329  31.435  13.692  13.022
97857W        W66330  28.970  19.076   4.204
97858W        W66331  43.384  12.682   0.316
97859W        W66332   6.188  27.523   0.774
97860W        W66333  14.831  21.754  12.445
97861W        W66334   0.458  33.010  14.998
97862W        W66335  38.073   5.426   3.254
97863W        W66336  37.905  36.971  14.457
97864W        W66337   5.840   8.386  11.609
97865W        W66338  20.270   9.773   2.192
97866W        W66339  14.196  18.730  12.540
97867W        W66340  24.154  12.673   0.280
97868W        W66341   0.348  23.626   1.236
97869W        W66342  33.566  25.622   0.743
97870W        W66343  34.592  40.466  10.991
97871W        W66344   2.759  33.612  12.380
97872W        W66345  41.338  34.950   3.255
97873W        W66346  44.409  12.762   2.681
97874W        W66347  36.469  36.025  10.102
97875W        W66348  10.381  20.131  13.546
97876W        W66349  28.610  38.857  14.385
97877W        W66350  11.712  23.219  14.951
97878W        W66351  15.174  13.841  10.976
97879W        W66352  16.248   2.866   2.838
97880W        W66353  27.683   2.402   4.780
97881W        W66354   2.276  35.893  11.503
97882W        W66355   4.346  39.484   3.195
97883W        W66356  10.346  41.480   1.699
97884W        W66357  31.466  25.531   4.610
97885W        W66358   0.966  35.919  10.417
97886W        W66359   9.194  14.251   3.267
97887W        W66360   9.816  12.837  13.410
97888W        W66361  25.590   6.862   0.401
97889W        W66362   2.296  29.599   3.773
97890W        W66363  17.580  43.021   0.792
97891W        W66364  21.548  43.347  10.566
97892W        W66365  22.535  16.183   4.795
97893W        W66366  34.937  36.394  14.492
97894W        W66367   3.430   1.956  14.460
97895W        W66368  25.560  22.199   4.700
97896W        W66369  18.286   6.255  11.423
97897W        W66370  10.143  31.526   0.450
97898W        W66371  27.070  32.527  12.068
97899W        W66372  35.582  19.192  13.463
97900W        W66373  37.058  12.711  13.487
97901W        W66374   0.484   5.850   4.653
97902W        W66375  38.963  32.014   3.228
97903W        W66376  11.353  22.591   3.270
97904W        W66377  34.114  39.825  13.372
97905W        W66378  28.076  17.731   2.251
97906W        W66379  17.175  19.619  12.050
97907W        W66380  40.966   9.724  12.934
97908W        W66381  35.916  20.162  13.048
97909W        W66382   9.662  20.732   2.845
97910W        W66383  10.236  22.028   3.726
97911W        W66384  35.859  41.522  14.399
97912W        W66385  44.285  13.689   3.363
97913W        W66386  10.846  14.326   2.737
97914W        W66387  15.209  39.400  10.887
97915W        W66388  16.196  24.099  14.873
97916W        W66389  37.885  39.549   4.785
97917W        W66390  22.043  22.624   3.202
97918W        W66391  11.325  10.818  10.415
97919W        W66392  16.708   6.917  11.533
97920W        W66393  44.497  42.790   1.919
97921W        W66394   6.356  20.067  12.395
97922W        W66395   7.865  23.088  12.021
97923W        W66396  20.609  44.964   0.359
97924W        W66397  12.748  21.085   3.322
97925W        W66398  18.183  25.680   3.311
97926W        W66399   9.277  27.186   1.931
97927W        W66400   9.666  13.653  13.053
97928W        W66401  35.497   1.378   0.427
97929W        W66402   6.732  15.577   9.496
97930W        W66403  33.514  17.095  10.065
97931W        W66404  22.055  23.703   2.829
97932W        W66405   4.410  31.567  11.494
97933W        W66406  38.474   9.863   1.366
97934W        W66407  42.880  24.683   2.883
97935W        W66408   1.282  39.395   2.406
97936W        W66409  25.069  30.087  14.490
97937W        W66410  16.744  44.431   1.856
97938W        W66411   7.882  38.015   4.809
97939W        W66412  39.528  11.672  13.984
97940W        W66413  38.454  21.543  13.503
97941W        W66414   8.809  25.011   5.214
97942W        W66415   8.677  32.101  10.614
97943W        W66416  16.157  37.546   1.928
97944W        W66417  35.495  40.416   0.350
97945W        W66418  29.103  10.238   2.782
97946W        W66419   9.837  33.129   0.833
97947W        W66420  23.544   4.337  14.416
97948W        W66421  30.928  38.991   1.729
97949W        W66422  10.661  16.718  13.367
97950W        W66423   3.254  30.643  12.874
97951W        W66424  28.586  12.760   0.820
97952W        W66425   3.232  43.466   5.086
97953W        W66426  21.616   0.774   4.831
97954W        W66427  32.411  22.501  14.283
97955W        W66428  31.477  13.203  11.051
97956W        W66429  36.395   5.741   1.234
97957W        W66430  24.558  44.271   1.314
97958W        W66431  22.007  12.221   5.244
97959W        W66432  13.630  37.956   1.908
97960W        W66433   3.416  34.605   1.283
97961W        W66434   5.350  11.234   3.248
97962W        W66435  21.756  33.945   4.311
97963W        W66436  15.101  20.059  10.570
97964W        W66437  17.632  36.574   3.816
97965W        W66438  15.660  21.178   2.881
97966W        W66439  17.114  18.654   3.173
97967W        W66440  30.056  29.099   1.229
97968W        W66441  38.075  30.627  14.007
97969W        W66442  12.688   4.345  14.424
97970W        W66443  41.530  16.273  12.939
97971W        W66444  27.457  36.574  10.905
97972W        W66445  19.603  32.637  13.023
97973W        W66446  19.702  18.194  12.491
97974W        W66447  33.417  18.619  13.328
97975W        W66448   9.887   0.276  11.919
97976W        W66449  20.744  27.555  11.013
97977W        W66450  13.683  41.459   1.362
97978W        W66451  29.069  13.162   1.425
97979W        W66452  34.477  29.100   3.165
97980W        W66453  22.615  14.814  11.965
97981W        W66454   5.756  30.085  11.907
97982W        W66455  39.375  37.581   4.266
97983W        W66456   9.652  11.680  10.476
97984W        W66457  24.582   3.836  10.590
97985W        W66458  35.882  37.830  14.910
97986W        W66459  16.766  38.416  10.985
97987W        W66460  33.952  17.206  10.485
97988W        W66461   2.898  27.690  14.483
97989W        W66462  15.285  10.747   2.832
97990W        W66463  36.394  18.268   3.666
97991W        W66464  22.235  40.522  12.984
97992W        W66465  33.006  26.990   1.855
97993W        W66466  35.933  30.918  11.063
97994W        W66467  33.118  16.121   4.632
97995W        W66468   8.349   0.847  12.346
97996W        W66469  39.869  14.604  14.392
97997W        W66470  36.848  17.568   0.316
97998W        W66471  37.462   7.270  13.391
97999W        W66472  34.956  43.489   2.399
98000W        W66473  24.641   8.264  11.065
98001W        W66474   5.739   4.762  11.508
98002W        W66475  43.360  26.535  11.959
98003W        W66476  17.779  37.856   4.115
98004W        W66477  43.446   9.206  11.987
98005W        W66478  41.426   4.445   3.669
98006W        W66479  15.304  35.475   4.703
98007W        W66480  11.694  20.120  13.943
98008W        W66481  14.226  25.553   3.303
98009W        W66482  28.162  35.549   4.650
98010W        W66483  38.533   2.824  14.981
98011W        W66484  12.674  35.501   1.819
98012W        W66485  15.763  17.259  11.012
98013W        W66486  32.028   1.864  14.828
98014W        W66487  29.166  19.771  13.529
98015W        W66488  21.213  39.511  12.079
98016W        W66489  30.066  30.001  10.613
98017W        W66490  18.214  43.837  12.009
98018W        W66491  15.110  21.040  11.891
98019W        W66492   8.270   5.739   1.247
98020W        W66493  11.316   4.774   0.283
98021W        W66494   2.247  39.008   0.408
98022W        W66495   6.405  30.982   2.729
98023W        W66496   1.882  17.650  10.560
98024W        W66497  38.495   1.865  11.977
98025W        W66498   4.797  14.668  10.508
98026W        W66499  20.636  25.136  11.997
98027W        W66500   6.912  35.364  12.404
98028W        W66501  38.999  17.571  11.022
98029W        W66502  20.736  43.284   3.162
98030W        W66503  19.661  35.363   3.856
98031W        W66504  37.073  28.971   3.835
98032W        W66505  28.974  30.971   1.878
98033W        W66506  10.181  40.424   0.289
98034W        W66507   2.317  13.744  12.365
98035W        W66508  42.421  44.840  13.415
98036W        W66509  19.771  19.126   1.279
98037W        W66510   4.369  44.399  10.983
98038W        W66511   9.160  19.141   3.323
98039W        W66512  10.667  40.544  12.025
98040W        W66513  24.480  30.121   2.355
98041W        W66514   1.770   3.779  11.390
98042W        W66515  18.749  36.384   2.898
98043W        W66516  35.959   6.797  10.584
98044W        W66517  36.569   7.388   0.459
98045W        W66518  19.650  21.538   3.235
98046W        W66519  40.499  42.295  11.404
98047W        W66520  19.605  21.652  13.849
98048W        W66521  20.059   0.812   0.335
98049W        W66522  17.273  13.772   2.865
98050W        W66523   4.278  24.161   0.444
98051W        W66524  39.007  23.071   2.777
98052W        W66525  33.462  23.490   4.752
98053W        W66526   4.911  39.318   0.773
98054W        W66527  32.074  36.096  12.976
98055W        W66528  31.036   8.690   4.221
98056W        W66529  41.328  22.153   3.350
98057W        W66530  18.066  38.938  12.484
98058W        W66531   6.796  16.270   2.403
98059W        W66532   7.373  27.534   0.302
98060W        W66533   2.457  27.106   0.366
98061W        W66534  26.024  15.609  13.393
98062W        W66535  44.900   7.256   3.274
98063W        W66536  37.339  14.766   0.403
98064W        W66537  36.077   2.907  12.492
98065W        W66538  40.514  37.562   0.382
98066W        W66539  26.475  20.041  12.967
98067W        W66540  15.246  10.320  14.013
98068W        W66541  27.683  11.284   3.369
98069W        W66542  25.576  29.064   3.306
98070W        W66543  39.457  13.196  12.853
98071W        W66544  28.071  18.269  11.570
98072W        W66545  15.641  15.641   4.700
98073W        W66546  36.990   9.386   1.878
98074W        W66547  41.499  25.033   3.652
98075W        W66548  35.601   2.946   0.245
98076W        W66549   3.955  26.541  12.565
98077W        W66550  30.025  10.858   0.864
98078W        W66551  18.627  27.000   0.284
98079W        W66552  14.786  32.889  13.439
98080W        W66553  20.716   8.665   4.677
98081W        W66554  42.864  41.527   4.667
98082W        W66555  29.500   8.289   4.325
98083W        W66556  32.624  38.988   1.318
98084W        W66557  24.530   6.298   2.407
98085W        W66558   2.932   2.256   3.836
98086W        W66559   1.369  14.139   4.825
98087W        W66560   3.446   3.383   3.660
98088W        W66561  32.985   3.719  10.587
98089W        W66562  27.651  23.157   2.705
98090W        W66563   8.691  13.602  12.348
98091W        W66564  20.599  36.069  11.963
98092W        W66565  14.240   1.318   4.146
98093W        W66566  16.140  14.123  12.339
98094W        W66567  30.446  12.763  12.097
98095W        W66568  28.557  19.200  14.446
98096W        W66569  42.939   4.917   2.365
98097W        W66570  11.666   8.777  10.054
98098W        W66571   2.443  21.644  14.812
98099W        W66572  13.115  18.751   1.833
98100W        W66573  28.017  24.480   0.795
98101W        W66574  35.871  33.093  13.880
98102W        W66575  37.385  26.040   0.458
98103W        W66576  16.127  36.453  11.398
98104W        W66577  26.078  27.500   2.271
98105W        W66578  37.862  19.648   1.311
98106W        W66579  26.171  43.998  11.109
98107W        W66580  36.994  35.108  14.401
98108W        W66581  25.544  36.562   2.723
98109W        W66582  13.829  19.705   1.845
98110W        W66583  31.507   2.398  14.005
98111W        W66584  23.034  30.082  14.030
98112W        W66585  38.991  14.731  13.382
98113W        W66586  41.942  30.563   3.685
98114W        W66587  34.370  36.901   0.314
98115W        W66588  13.741  11.349  11.934
98116W        W66589  33.543  16.318   0.889
98117W        W66590   5.691   4.341   9.960
98118W        W66591  14.814  27.063   3.635
98119W        W66592  13.300  19.555  10.602
98120W        W66593  28.571  10.838   4.221
98121W        W66594  13.286  36.524   1.883
98122W        W66595   5.838  26.149  10.619
98123W        W66596  19.161  11.372   4.606
98124W        W66597  24.647  36.982   3.831
98125W        W66598  16.606  14.286   2.296
98126W        W66599  24.588  28.960  13.888
98127W        W66600  33.990  37.966   1.924
98128W        W66601   1.407  33.529   3.725
98129W        W66602   2.364  39.411  13.833
98130W        W66603  37.996   8.842  13.792
98131W        W66604  28.539  30.116   0.325
98132W        W66605  42.312  17.074  11.863
98133W        W66606  33.625  32.053  13.473
98134W        W66607  16.783  14.229   0.835
98135W        W66608  31.057  32.070  11.583
98136W        W66609  35.052  25.997   4.658
98137W        W66610  28.557  26.502   2.730
98138W        W66611  25.089  31.521   1.311
98139W        W66612  17.641   5.812  12.448
98140W        W66613  27.043  43.803   1.832
98141W        W66614   8.674  28.072   2.890
98142W        W66615  42.344  32.529   1.741
98143W        W66616  37.844  24.225  13.034
98144W        W66617  15.601  37.557   1.786
98145W        W66618   9.295  16.735  13.853
98146W        W66619  11.825  32.979  10.621
98147W        W66620  43.373   0.809   4.134
98148W        W66621  16.679  38.328  14.025
98149W        W66622   9.330  44.929  12.373
98150W        W66623  26.175  27.011   1.216
98151W        W66624  26.182  17.758  13.910
98152W        W66625   8.346  25.615  12.424
98153W        W66626  32.463  37.503   4.270
98154W        W66627  24.086  19.660  12.548
98155W        W66628   6.236   2.450  12.030
98156W        W66629  20.559   8.775  12.444
98157W        W66630   5.390  26.128  11.864
98158W        W66631  14.803  26.124   4.670
98159W        W66632   9.318  32.013  14.445
98160W        W66633  12.611  34.107  10.990
98161W        W66634  11.795  43.867   2.361
98162W        W66635  14.608  10.760   0.895
98163W        W66636  29.096  21.617  10.490
98164W        W66637  26.095  40.014   2.328
98165W        W66638  39.986  37.358   2.303
98166W        W66639   8.184  27.024  14.335
98167W        W66640  20.721   3.231  12.473
98168W        W66641   7.180   9.259  12.972
98169W        W66642  11.191  15.765  10.928
98170W        W66643   3.370   5.198   4.226
98171W        W66644  13.327  30.511   2.832
98172W        W66645  15.303  33.098   4.835
98173W        W66646  23.539  44.302  12.092
98174W        W66647  35.978  12.660   3.674
98175W        W66648  26.098   4.914   2.395
98176W        W66649  38.402  10.745   0.845
98177W        W66650  24.632   2.241   0.757
98178W        W66651  10.196   1.756   4.319
98179W        W66652   2.295  34.467   4.796
98180W        W66653  43.846  24.725   1.694
98181W        W66654  28.031  10.370  10.908
98182W        W66655  31.635  40.925  11.123
98183W        W66656  44.903  13.643   2.235
98184W        W66657  15.114  13.750   3.798
98185W        W66658   0.863  36.526  11.510
98186W        W66659   4.351  14.316  12.402
98187W        W66660  16.090  27.074  14.028
98188W        W66661  11.650  35.994   1.825
98189W        W66662  31.437  31.974   3.173
98190W        W66663  15.206  16.153  12.550
98191W        W66664  42.953  18.104   1.766
98192W        W66665  28.154  13.663  13.430
98193W        W66666   1.897  39.323   2.866
98194W        W66667  31.993  41.323  13.518
98195W        W66668  23.666  30.573   1.279
98196W        W66669  30.152   6.687   0.772
98197W        W66670  26.492  37.960  12.995
98198W        W66671  12.693  25.968  12.990
98199W        W66672   9.740  38.488   1.731
98200W        W66673  28.681  18.548  12.368
98201W        W66674  16.112  29.585   0.888
98202W        W66675  40.910   6.773  10.549
98203W        W66676   2.741   9.202  13.839
98204W        W66677  43.838  27.582   3.341
98205W        W66678  28.156  31.988   5.191
98206W        W66679  20.600  29.651   4.321
98207W        W66680  31.109  13.204   4.765
98208W        W66681  27.547  11.689  12.858
98209W        W66682  42.911  36.873  12.342
98210W        W66683  43.836  21.569   0.457
98211W        W66684   9.780   9.175   0.792
98212W        W66685   6.691  34.965  14.952
98213W        W66686   2.292  35.462   2.877
98214W        W66687   8.722   8.303  10.928
98215W        W66688   4.226  31.958   9.930
98216W        W66689  40.037  27.968  12.421
98217W        W66690  21.093  37.407   4.764
98218W        W66691  33.475  15.238   4.195
98219W        W66692  40.822  22.720  12.845
98220W        W66693  35.107  36.868  12.359
98221W        W66694  31.615  40.943  12.517
98222W        W66695  35.052  23.079   0.804
98223W        W66696  13.298  31.138   4.761
98224W        W66697   1.295  10.172   1.924
98225W        W66698   6.404  16.689  11.519
98226W        W66699  33.058  32.023  12.379
98227W        W66700   1.431  34.075   3.198
98228W        W66701  14.602  37.861   3.756
98229W        W66702  28.625  42.876   2.723
98230W        W66703   8.692  16.143   4.294
98231W        W66704  31.970  39.011   1.713
98232W        W66705  20.758  19.048   2.814
98233W        W66706  15.805  12.288  12.922
98234W        W66707  30.611  42.357  11.920
98235W        W66708   2.388  22.049   0.816
98236W        W66709  36.365  24.573   1.363
98237W        W66710  22.513  22.531   1.448
98238W        W66711  34.033   6.767  12.899
98239W        W66712  25.643  36.944  13.439
98240W        W66713  25.601  19.636   2.677
98241W        W66714   0.939  11.744  10.518
98242W        W66715  28.647  33.511  14.503
98243W        W66716  21.202   3.922   0.822
98244W        W66717  14.224  28.058   3.292
98245W        W66718  39.894  25.575   1.308
98246W        W66719   9.332  31.475   0.441
98247W        W66720  16.603  20.219   3.790
98248W        W66721  34.447  18.665  14.473
98249W        W66722  18.090  24.674   1.831
98250W        W66723  42.946  21.205  12.988
98251W        W66724   6.315  16.687  14.410
98252W        W66725  21.112  21.576   3.312
98253W        W66726  43.460   0.308   2.216
98254W        W66727  13.330  24.113   4.268
98255W        W66728  32.989   4.232   0.357
98256W        W66729  29.957  23.613  11.045
98257W        W66730  31.084  40.830  12.050
98258W        W66731   6.747  23.706   4.214
98259W        W66732  33.067  23.621  10.510
98260W        W66733  41.926  40.017  12.545
98261W        W66734  11.795   5.302  13.949
98262W        W66735  15.087  34.946  14.491
98263W        W66736   9.357  22.708  14.510
98264W        W66737  41.866  26.023   4.701
98265W        W66738  36.093  34.415   3.692
98266W        W66739  16.646  39.003  12.480
98267W        W66740   5.711  40.911  11.607
98268W        W66741  13.700  36.878  14.449
98269W        W66742   0.847  39.508   0.301
98270W        W66743  29.086  21.139  10.122
98271W        W66744   4.298  18.619  12.536
98272W        W66745   7.249  12.225   0.741
98273W        W66746  39.831  43.973   0.966
98274W        W66747  11.645   0.342  12.898
98275W        W66748  13.327  13.271   2.185
98276W        W66749  14.763  35.094  10.556
98277W        W66750  10.268  41.504   4.270
98278W        W66751  34.926  17.184   0.767
98279W        W66752  29.434  21.073   2.679
98280W        W66753  27.190  43.020   0.468
98281W        W66754  30.505  37.996   0.732
98282W        W66755  35.891  40.478  13.032
98283W        W66756  19.168  18.678  12.406
98284W        W66757   0.788  28.174  10.027
98285W        W66758  19.601   2.872   2.668
98286W        W66759   6.914   9.868   4.329
98287W        W66760  24.152  36.461  13.355
98288W        W66761  36.033  37.363   3.220
98289W        W66762   7.256   5.399  13.460
98290W        W66763   8.702  14.297   2.760
98291W        W66764  22.112  28.148   5.222
98292W        W66765  17.179  13.762   0.403
98293W        W66766  20.152   6.827  10.413
98294W        W66767   9.314  12.232   4.785
98295W        W66768  38.852  24.484   1.260
98296W        W66769   0.801  21.137   5.183
98297W        W66770  12.679  29.499   2.389
98298W        W66771   7.892  25.539  12.949
98299W        W66772   4.364  16.292  13.850
98300W        W66773   9.681  11.622   3.151
98301W        W66774  34.382  35.601   1.229
98302W        W66775  25.598  23.556   4.751
98303W        W66776  22.148  32.973  14.878
98304W        W66777   3.728  19.609   2.278
98305W        W66778   9.237  12.187   4.142
98306W        W66779  23.669   3.308  12.446
98307W        W66780  21.022  29.094   4.318
98308W        W66781  25.625  41.023   4.602
98309W        W66782  41.351   9.652   2.262
98310W        W66783  14.331  43.467  10.537
98311W        W66784  44.913  44.775   2.780
98312W        W66785  40.977  10.380   4.291
98313W        W66786  40.459   3.731   2.823
98314W        W66787  25.480  14.835   0.887
98315W        W66788   3.836  43.313   0.793
98316W        W66789  25.191  37.572   5.294
98317W        W66790   3.809  19.753  11.516
98318W        W66791  30.455  42.456   4.661
98319W        W66792  41.408   8.317   2.374
98320W        W66793   9.757   2.860  11.472
98321W        W66794   9.314  15.711   0.819
98322W        W66795  42.939  44.911  13.912
98323W        W66796  41.936  37.967  11.446
98324W        W66797  44.465  35.865  10.961
98325W        W66798  30.601   1.881   0.793
98326W        W66799   5.262  31.584   3.746
98327W        W66800   8.796  20.053  14.488
98328W        W66801  36.946  44.839  14.434
98329W        W66802  25.019   6.828   1.323
98330W        W66803  31.049  44.503  10.047
98331W        W66804  35.082  18.589   2.844
98332W        W66805  25.166   0.270   1.744
98333W        W66806  11.364  29.498  12.944
98334W        W66807  36.996  19.282   1.330
98335W        W66808  22.691  23.607  10.071
98336W        W66809   7.676   5.222   9.575
98337W        W66810  39.314  35.929  10.917
98338W        W66811   0.841  13.158  12.524
98339W        W66812  42.327  18.734  11.423
98340W        W66813  14.637  20.041  12.836
98341W        W66814  30.461  15.170   2.221
98342W        W66815  25.179  41.786   2.757
98343W        W66816  37.061  17.596  14.991
98344W        W66817  10.196  17.731  13.484
98345W        W66818  24.576   8.397  11.501
98346W        W66819  27.446   7.769   1.351
98347W        W66820   8.725   3.215   1.694
98348W        W66821  11.169  24.101   0.335
98349W        W66822  34.466  34.872   1.256
98350W        W66823  38.008  21.183  10.498
98351W        W66824  10.184  30.503   4.238
98352W        W66825   6.894  19.641   0.406
98353W        W66826  39.560  16.795  13.345
98354W        W66827  29.512  12.249   1.361
98355W        W66828  36.940  22.167   2.277
98356W        W66829  11.131   0.854   4.724
98357W        W66830  37.862   1.240  12.877
98358W        W66831   7.901  23.238  14.984
98359W        W66832   3.272  41.851  13.543
98360W        W66833  19.055  14.309   2.751
98361W        W66834  40.323  39.904   0.766
98362W        W66835  25.066  24.618  11.025
98363W        W66836  36.418  12.319   2.821
98364W        W66837  43.896  36.486   1.345
98365W        W66838  34.887  21.244  12.920
98366W        W66839  44.991  19.263   1.387
98367W        W66840  29.042  20.088   3.859
98368W        W66841  15.702   8.229   4.247
98369W        W66842   7.196  30.047  13.329
98370W        W66843  14.600   1.241  11.901
98371W        W66844  22.018   4.807  13.921
98372W        W66845  41.877  43.836   0.875
98373W        W66846  41.512  36.013   3.661
98374W        W66847  22.118  31.905  14.792
98375W        W66848   2.410  31.559   2.859
98376W        W66849  24.195  10.139  10.475
98377W        W66850  24.212  12.152  11.471
98378W        W66851  28.587   6.867  13.426
98379W        W66852   9.838  39.919  14.342
98380W        W66853  33.891   5.933  11.461
98381W        W66854  15.607  43.824   2.717
98382W        W66855  44.322  21.050   1.712
98383W        W66856  44.359  39.411   3.380
98384W        W66857  15.719  25.178   5.153
98385W        W66858  12.277   2.436  11.545
98386W        W66859   5.416  25.558   1.888
98387W        W66860  17.237  42.891   2.327
98388W        W66861  25.212  41.001  12.021
98389W        W66862  20.647   8.322  14.802
98390W        W66863  25.183  23.704   0.735
98391W        W66864  33.887  21.717  13.812
98392W        W66865  11.825   4.246  14.345
98393W        W66866  14.183  16.797  12.884
98394W        W66867  42.434  29.944  13.007
98395W        W66868  38.456  14.183   2.267
98396W        W66869  24.043  32.918  14.915
98397W        W66870  33.941  16.699   0.273
98398W        W66871  28.074  21.214   0.466
98399W        W66872  40.954  23.631   1.233
98400W        W66873  23.512   0.824  14.901
98401W        W66874  29.998  36.353   1.221
98402W        W66875   2.819   4.819  13.404
98403W        W66876  13.831   7.716  14.466
98404W        W66877  38.415   5.749   3.649
98405W        W66878  36.346  44.917  13.815
98406W        W66879  14.326   3.935  14.307
98407W        W66880  16.265  25.086   1.309
98408W        W66881  17.219   7.789   2.207
98409W        W66882  33.618  23.990  12.025
98410W        W66883  15.590  28.013  14.922
98411W        W66884  36.051  18.091  13.324
98412W        W66885   0.988  40.867   3.272
98413W        W66886  42.466  40.326   1.252
98414W        W66887  17.697  18.072  14.438
98415W        W66888  40.037  21.077   3.185
98416W        W66889  36.464  37.565   3.154
98417W        W66890  25.000  29.457  14.899
98418W        W66891  25.614  10.373  13.827
98419W        W66892  12.357  19.748   0.812
98420W        W66893  14.611  20.542  13.511
98421W        W66894  38.065  14.638   0.336
98422W        W66895  39.052  42.855   0.921
98423W        W66896   0.296  42.336  14.763
98424W        W66897   9.725  33.011   5.665
98425W        W66898  36.963  10.647  13.912
98426W        W66899  17.728  12.639   3.823
98427W        W66900   9.793   3.805  12.909
98428W        W66901  27.041  28.559  14.815
98429W        W66902   4.313  18.597   0.892
98430W        W66903  19.772  40.520   1.736
98431W        W66904  25.164  42.997  13.537
98432W        W66905  12.710  39.821  11.102
98433W        W66906  18.200  39.054   2.209
98434W        W66907   6.686  39.398  12.454
98435W        W66908  23.168  41.961   1.825
98436W        W66909  15.778   9.700  10.597
98437W        W66910  18.159  29.068   0.474
98438W        W66911  10.317  43.478   2.340
98439W        W66912  37.910  38.378  10.451
98440W        W66913  41.474   9.233   4.232
98441W        W66914  18.639   5.721   3.319
98442W        W66915   6.356  14.298  11.487
98443W        W66916  25.018   9.238   2.229
98444W        W66917  30.119   0.750   2.730
98445W        W66918  11.785  33.388   5.082
98446W        W66919  24.658  19.180  14.958
98447W        W66920  19.648  21.584  12.459
98448W        W66921  13.344  17.206  12.075
98449W        W66922  26.588  35.070   1.865
98450W        W66923  30.438  38.832  12.359
98451W        W66924  34.908  14.735  12.882
98452W        W66925  17.147  22.724   2.272
98453W        W66926  25.010  14.314  10.569
98454W        W66927  17.118  14.204   1.849
98455W        W66928  31.486  13.272  10.632
98456W        W66929  39.327  34.432   2.760
98457W        W66930  14.229   1.306  13.363
98458W        W66931   0.777  17.131   4.199
98459W        W66932  39.851  22.542  12.011
98460W        W66933  12.825   4.806   1.730
98461W        W66934   5.417  16.231   0.420
98462W        W66935   3.443   8.328  11.435
98463W        W66936  43.382  28.946  13.474
98464W        W66937  10.641  42.024   0.403
98465W        W66938  22.610  10.359   1.851
98466W        W66939  10.875  17.294   4.763
98467W        W66940  16.680  28.464  10.442
98468W        W66941   4.774   1.483   0.870
98469W        W66942  16.645  40.503  14.282
98470W        W66943  36.050  12.228   3.364
98471W        W66944  28.142   7.806   0.389
98472W        W66945  26.562  32.076  10.566
98473W        W66946  33.439  10.873  13.009
98474W        W66947  42.484  18.228  11.094
98475W        W66948  40.521  39.414   4.113
98476W        W66949  24.047  14.693   3.715
98477W        W66950  27.629  30.518  12.568
98478W        W66951  44.886  32.391  14.015
98479W        W66952  22.094  43.359  10.898
98480W        W66953  34.531  41.435   1.236
98481W        W66954  14.105  16.110   0.348
98482W        W66955  27.107   3.310   2.741
98483W        W66956  18.635  20.186   1.385
98484W        W66957  21.206  34.979   1.266
98485W        W66958   0.289  27.049  12.049
98486W        W66959  39.422   7.335  12.968
98487W        W66960  16.675  28.568  14.820
98488W        W66961  33.928  40.932  14.991
98489W        W66962  17.203   2.872  13.492
98490W        W66963  33.039  23.551   4.228
98491W        W66964  28.629  24.634  11.873
98492W        W66965  37.924  31.620   4.715
98493W        W66966  19.650  41.886   2.875
98494W        W66967  32.901  25.116   5.100
98495W        W66968  20.611  19.681  13.886
98496W        W66969  12.176  39.408  13.393
98497W        W66970  14.180  11.337   0.266
98498W        W66971  31.962  38.025  11.403
98499W        W66972  20.540  10.688   4.668
98500W        W66973   9.846  39.384  14.285
98501W        W66974  14.298  44.883   2.333
98502W        W66975   7.811  20.215   0.251
98503W        W66976  22.107   0.832   2.801
98504W        W66977  24.078  15.246  12.484
98505W        W66978  10.293  40.823   4.223
98506W        W66979  39.524  38.467  11.980
98507W        W66980   0.916  31.144  11.862
98508W        W66981  15.217  25.479   3.742
98509W        W66982  28.041  14.632   3.335
98510W        W66983  30.558  25.498   2.371
98511W        W66984  20.631   8.762   3.374
98512W        W66985  29.553  31.434   4.681
98513W        W66986  12.214  20.183   4.805
98514W        W66987  24.664  15.170   1.322
98515W        W66988  17.763  41.307   2.229
98516W        W66989   0.860  35.411   0.305
98517W        W66990  15.681  10.241  14.336
98518W        W66991  33.877  37.487   1.344
98519W        W66992  28.137  33.395   1.436
98520W        W66993  31.058  18.780   2.275
98521W        W66994  25.606   4.237   4.613
98522W        W66995  24.635  30.077   2.715
98523W        W66996   7.211   7.416  11.117
98524W        W66997  34.061  18.738   2.784
98525W        W66998  40.535  22.603   2.669
98526W        W66999  40.950  11.626   4.309
98527W        W67000  33.546  40.420   1.851
98528W        W67001  42.348  24.502   2.885
98529W        W67002   3.437  28.027   4.811
98530W        W67003  22.689   5.697   1.390
98531W        W67004  35.043  22.591  10.143
98532W        W67005   7.279  19.557   4.201
98533W        W67006  26.605  23.193   4.172
98534W        W67007  17.757  33.896  14.805
98535W        W67008  39.505  28.936  10.487
98536W        W67009  43.273  28.075   4.180
98537W        W67010  27.962  29.668  11.865
98538W        W67011   9.659   8.779   2.322
98539W        W67012  37.840  31.534   1.307
98540W        W67013  22.502   8.824  14.864
98541W        W67014  13.344  40.375   0.796
98542W        W67015  41.854  10.722  12.471
98543W        W67016  15.582  20.234   0.868
98544W        W67017  33.034  12.206  12.083
98545W        W67018  11.704  15.281   1.716
98546W        W67019   1.313   5.367   4.326
98547W        W67020  37.390  28.597  12.025
98548W        W67021  35.580  41.368  10.442
98549W        W67022  19.194  22.246   4.124
98550W        W67023  23.207  11.824  14.784
98551W        W67024  10.350  20.029   3.184
98552W        W67025  32.976   5.321  14.817
98553W        W67026  31.644  31.925   4.174
98554W        W67027  14.709  23.004  11.565
98555W        W67028  20.565   7.280   4.319
98556W        W67029  27.467  38.019   3.351
98557W        W67030   8.709  17.585   3.859
98558W        W67031   0.478  29.616   0.343
98559W        W67032  21.104  12.857   3.774
98560W        W67033  38.063  18.628   4.793
98561W        W67034  22.076  37.521  10.547
98562W        W67035   0.784   0.312   2.382
98563W        W67036   9.212  36.843   0.478
98564W        W67037  34.426  14.220   0.258
98565W        W67038  40.463   7.726  12.448
98566W        W67039  16.097  32.127   1.379
98567W        W67040  30.965  35.960  12.043
98568W        W67041   3.443  22.607  14.501
98569W        W67042  23.028  32.576  10.433
98570W        W67043   0.287  33.539  11.972
98571W        W67044  28.965   5.827  11.447
98572W        W67045  28.027  29.085   0.473
98573W        W67046   1.815  16.233  10.536
98574W        W67047  36.533   5.891   4.838
98575W        W67048   5.865  32.444   1.737
98576W        W67049  18.117  18.724   4.351
98577W        W67050   0.368  43.835  10.642
98578W        W67051   5.402  30.977   1.325
98579W        W67052  16.608  10.213  12.007
98580W        W67053  36.555  14.103  14.280
98581W        W67054  43.295  16.293   3.719
98582W        W67055  26.160  27.990  14.415
98583W        W67056  25.698  35.935  11.426
98584W        W67057  43.319   2.283   2.771
98585W        W67058  29.016  36.453  12.824
98586W        W67059  34.447  29.460   4.245
98587W        W67060   8.670  37.854   2.337
98588W        W67061   4.889  15.587  14.892
98589W        W67062  19.560  10.867   4.143
98590W        W67063  36.934  16.090   2.885
98591W        W67064  16.788  14.588   3.157
98592W        W67065  43.512   8.362  10.599
98593W        W67066  26.956  43.508  13.989
98594W        W67067  31.595  41.441   3.637
98595W        W67068  20.114  25.531  12.024
98596W        W67069  31.413  33.586   1.781
98597W        W67070   7.381  28.934  12.419
98598W        W67071  32.463  13.806  10.490
98599W        W67072  18.210  24.226   2.896
98600W        W67073   0.484  43.301  11.444
98601W        W67074  10.864  10.658   3.175
98602W        W67075  15.779   1.344   0.837
98603W        W67076   6.249  38.067   1.808
98604W        W67077  41.891  34.518   1.371
98605W        W67078  13.627  16.748  11.933
98606W        W67079  38.565  43.470  10.606
98607W        W67080  30.136  34.483   0.468
98608W        W67081  10.209  41.829   3.678
98609W        W67082   6.739  31.922   1.876
98610W        W67083   9.262   4.220  10.409
98611W        W67084  21.549  17.760   3.223
98612W        W67085  26.057  13.284  12.928
98613W        W67086  43.889  26.680   2.759
98614W        W67087  18.554  38.866  13.054
98615W        W67088  37.478  30.118   4.651
98616W        W67089  24.616  42.416   2.835
98617W        W67090  18.550  43.488  10.946
98618W        W67091  10.279   4.722   5.147
98619W        W67092  14.663  13.284   3.726
98620W        W67093  21.568  34.867   1.262
98621W        W67094  29.158  31.038   0.326
98622W        W67095  33.564   5.357  14.789
98623W        W67096  32.587  14.658  14.010
98624W        W67097  30.540   8.777   1.368
98625W        W67098  41.484   3.292  12.419
98626W        W67099   9.736   9.297  14.784
98627W        W67100  18.273  24.666   1.308
98628W        W67101   8.294  25.563  13.357
98629W        W67102  29.105  13.771   0.429
98630W        W67103   1.912   4.932  13.340
98631W        W67104  39.046  12.760   1.705
98632W        W67105   0.272  34.032   0.960
98633W        W67106  14.169   0.953   2.413
98634W        W67107  31.503  25.026  12.918
98635W        W67108  40.481  28.551   4.194
98636W        W67109  20.657  16.128  11.078
98637W        W67110  14.726  12.662  14.030
98638W        W67111  19.083  26.592  14.818
98639W        W67112   0.351  42.307  13.462
98640W        W67113   7.681  36.876  14.410
98641W        W67114  33.954  15.671  14.989
98642W        W67115   2.786  20.220   0.423
98643W        W67116   0.410  43.778  11.886
98644W        W67117  40.510  12.194   3.251
98645W        W67118  41.901  18.184   2.303
98646W        W67119   3.419   1.343  12.552
98647W        W67120  37.359   9.777   3.182
98648W        W67121   8.206  20.533  12.346
98649W        W67122  17.101  35.933   2.749
98650W        W67123  31.020  35.948  10.034
98651W        W67124  32.053  35.410  13.861
98652W        W67125  16.568  10.685   4.263
98653W        W67126  27.075  39.557  14.780
98654W        W67127  12.272  22.233   3.176
98655W        W67128  18.771   6.834  10.595
98656W        W67129  41.026  10.184  10.914
98657W        W67130  38.558  41.464   1.303
98658W        W67131  17.256  42.407   2.854
98659W        W67132   3.453  15.327   4.760
98660W        W67133   4.724  26.629  11.484
98661W        W67134  27.102  39.004   3.830
98662W        W67135  14.118  13.176  12.914
98663W        W67136  32.493   3.808  11.858
98664W        W67137  19.182  44.288  12.411
98665W        W67138  21.031  38.444   0.318
98666W        W67139  12.147  40.503   3.781
98667W        W67140  26.029   6.375  13.347
98668W        W67141  42.019  36.415  11.001
98669W        W67142  13.269  13.310   0.764
98670W        W67143   6.849   8.168   2.225
98671W        W67144  32.939  25.003   1.308
98672W        W67145  14.696  33.083  11.396
98673W        W67146  11.238  15.212   3.666
98674W        W67147  34.072  10.754   1.897
98675W        W67148  17.786  19.248  13.508
98676W        W67149  17.269  21.682   3.714
98677W        W67150  15.650  36.947   4.132
98678W        W67151   2.863  28.038   4.764
98679W        W67152  38.836  43.832   1.346
98680W        W67153  25.591  17.170  11.007
98681W        W67154  34.605  15.734  12.997
98682W        W67155  26.482  21.191  13.482
98683W        W67156  26.022  17.135  14.352
98684W        W67157  16.808  27.015   2.857
98685W        W67158   4.391   7.332   4.220
98686W        W67159  13.185  44.286   3.375
98687W        W67160  15.698  40.495  10.949
98688W        W67161  31.560  27.057   3.805
98689W        W67162  30.109  14.656  14.790
98690W        W67163  23.078  22.240   2.279
98691W        W67164   7.414  14.156   4.822
98692W        W67165  23.714   7.271  11.097
98693W        W67166  25.638  12.622  14.390
98694W        W67167  40.350   3.342  10.942
98695W        W67168  31.405  37.860   4.672
98696W        W67169  44.486  43.417   3.281
98697W        W67170  24.013  36.390  14.854
98698W        W67171  34.607  33.897  11.932
98699W        W67172  21.053  25.624   4.660
98700W        W67173  20.274  24.224   0.318
98701W        W67174  13.287  23.596  10.120
98702W        W67175  34.069   1.452   1.288
98703W        W67176  37.489  30.476   2.828
98704W        W67177  11.630  10.304  11.059
98705W        W67178  31.109  20.126   1.923
98706W        W67179  26.532  10.792  12.934
98707W        W67180   0.464  14.231   3.669
98708W        W67181  37.039  43.315   3.232
98709W        W67182  42.315  34.111   1.701
98710W        W67183  24.218  39.036   3.823
98711W        W67184  36.497  30.116   4.759
98712W        W67185   0.368  17.743  12.971
98713W        W67186  42.962  35.464   0.468
98714W        W67187  20.187  28.603   2.853
98715W        W67188   3.930  17.265  14.957
98716W        W67189  24.717  26.123  12.070
98717W        W67190  19.197  38.836  13.873
98718W        W67191  41.854  41.929   3.666
98719W        W67192  31.059  14.181  11.858
98720W        W67193  43.271  14.153   0.322
98721W        W67194   0.457  20.085   4.777
98722W        W67195  17.781  12.133  13.009
98723W        W67196   9.792   1.855  12.854
98724W        W67197  27.094  36.048   2.329
98725W        W67198  32.997  39.990  11.596
98726W        W67199  15.304  18.236   2.248
98727W        W67200  41.928  15.319  12.892
98728W        W67201  43.906  18.658  13.970
98729W        W67202  11.813  41.875  12.559
98730W        W67203  30.927   1.773   5.221
98731W        W67204  37.002   5.781  11.037
98732W        W67205  32.928  32.886  12.372
98733W        W67206   1.873  40.423   4.751
98734W        W67207   2.866  27.134  13.046
98735W        W67208  14.670  10.375   3.724
98736W        W67209  41.865  17.638  11.438
98737W        W67210  25.214  25.484  11.868
98738W        W67211   9.770  29.605  13.872
98739W        W67212  20.245  20.259   3.669
98740W        W67213  33.479  14.251  10.594
98741W        W67214   0.289   3.934   2.324
98742W        W67215  39.824  23.624   4.133
98743W        W67216  43.884  35.366   2.312
98744W        W67217  36.982  11.251   4.128
98745W        W67218   9.375  42.954  13.388
98746W        W67219  20.718   9.152   0.957
98747W        W67220  40.492   8.363  10.438
98748W        W67221  10.824  42.471  11.888
98749W        W67222  15.741  43.480  14.499
98750W        W67223  32.402  31.059   2.673
98751W        W67224  36.027  42.801  11.419
98752W        W67225  24.136   8.376  11.875
98753W        W67226  37.079  38.484  10.995
98754W        W67227  40.927  20.711   2.810
98755W        W67228  31.580  36.054  11.589
98756W        W67229  32.049  10.854   0.936
98757W        W67230  36.878  37.870   0.415
98758W        W67231  34.014  43.769   9.950
98759W        W67232  10.659  29.047  12.052
98760W        W67233   1.803  15.324   0.472
98761W        W67234  32.039  16.666  14.880
98762W        W67235  17.268   1.240   2.327
98763W        W67236  41.920   0.282  12.021
98764W        W67237   5.409  18.231   1.380
98765W        W67238  11.184  32.919  13.919
98766W        W67239  35.424  40.921  13.996
98767W        W67240  32.986  32.890  13.925
98768W        W67241  16.188  27.149   3.760
98769W        W67242  17.168  37.559  12.062
98770W        W67243  19.057  14.208   4.222
98771W        W67244  41.317  17.083   0.874
98772W        W67245   9.227   8.169  12.475
98773W        W67246   7.285   8.397   0.729
98774W        W67247  39.888   4.771  12.888
98775W        W67248   8.304   4.842  10.031
98776W        W67249  19.619  32.045   3.788
98777W        W67250  11.167  28.545   0.849
98778W        W67251   6.224  38.074  13.479
98779W        W67252   4.327  42.395   1.887
98780W        W67253  30.083  43.490   2.847
98781W        W67254  23.649   2.409   1.777
98782W        W67255  13.321   0.743   1.345
98783W        W67256  28.085  18.728  11.043
98784W        W67257  32.095   8.243   3.283
98785W        W67258   5.697   2.926  13.928
98786W        W67259  30.081  16.720   4.285
98787W        W67260  34.596  21.207  13.987
98788W        W67261  25.026   9.745  14.791
98789W        W67262  26.055  12.652  12.426
98790W        W67263   6.687   4.252   9.937
98791W        W67264  36.556  24.199   3.191
98792W        W67265  33.015  11.771   2.682
98793W        W67266  41.957  17.183   2.250
98794W        W67267  23.077  29.924   3.819
98795W        W67268  31.525  15.098   0.444
98796W        W67269  35.016  19.272  14.468
98797W        W67270  33.466  38.064  12.494
98798W        W67271  18.578  34.012   3.707
98799W        W67272  41.525  27.998   2.880
98800W        W67273  19.732  31.504  10.478
98801W        W67274   4.447  25.052   2.839
98802W        W67275  41.497  11.140  13.857
98803W        W67276  37.400  33.593  11.859
98804W        W67277   4.427   1.256   3.267
98805W        W67278  43.939  17.127   2.699
98806W        W67279  16.770  23.193  13.532
98807W        W67280  13.344  42.920  12.850
98808W        W67281  37.874  33.524  11.935
98809W        W67282  43.314  35.596   0.791
98810W        W67283   8.762  27.078   2.207
98811W        W67284  36.858  13.128  14.484
98812W        W67285  38.552  16.657  11.546
98813W        W67286  38.015  27.012   1.446
98814W        W67287  44.401  18.611  12.495
98815W        W67288  27.144  29.649  10.897
98816W        W67289  19.196  19.739   0.359
98817W        W67290  26.060  10.363  14.832
98818W        W67291  36.918  26.178  14.861
98819W        W67292  31.496  34.431   2.295
98820W        W67293  42.990   1.781   3.776
98821W        W67294  25.012  10.798  10.957
98822W        W67295  42.006  44.331   0.276
98823W        W67296  12.239  11.262  14.916
98824W        W67297   5.290  21.515   1.322
98825W        W67298  31.905   1.292  14.008
98826W        W67299   0.271  16.759  13.311
98827W        W67300  12.833  26.071  14.921
98828W        W67301  35.454   8.775  11.569
98829W        W67302  37.555   6.216  11.121
98830W        W67303   4.212  40.032   3.746
98831W        W67304  10.754  42.325  14.778
98832W        W67305  27.016  38.520  12.462
98833W        W67306  12.216  14.784   2.355
98834W        W67307   5.369   0.486   1.838
98835W        W67308   3.910  29.947   1.278
98836W        W67309  27.011  32.928   2.329
98837W        W67310   4.782  11.678  11.033
98838W        W67311  18.119  44.430   3.159
98839W        W67312  29.024  26.585  14.850
98840W        W67313  25.623  28.653  12.847
98841W        W67314  41.308   8.814  12.400
98842W        W67315  36.955  44.784  12.043
98843W        W67316  27.050  39.551   3.799
98844W        W67317  25.650  13.832   1.228
98845W        W67318   8.199  32.423   1.758
98846W        W67319  43.886  11.863  12.376
98847W        W67320  25.476  21.157   1.792
98848W        W67321  27.052  29.974   1.388
98849W        W67322   7.667  38.042  13.431
98850W        W67323  33.037  35.522  12.578
98851W        W67324  13.294  11.752   0.753
98852W        W67325  37.374  26.027  10.978
98853W        W67326  44.864  39.036   0.873
98854W        W67327  12.837  44.310  13.397
98855W        W67328   3.842  44.467   3.746
98856W        W67329  40.326  18.210  13.808
98857W        W67330  15.242  33.488   0.815
98858W        W67331  31.557  38.954  10.435
98859W        W67332   1.366  31.120   3.328
98860W        W67333  14.286   3.752   0.318
98861W        W67334  39.337  34.922   2.682
98862W        W67335  44.445  33.919  14.350
98863W        W67336   6.246  23.144   1.293
98864W        W67337   3.755   8.810  12.525
98865W        W67338  35.402  28.664  10.428
98866W        W67339  15.169  38.830   1.269
98867W        W67340   8.283  35.586   0.815
98868W        W67341  34.015   8.899  11.491
98869W        W67342  16.306   1.755  12.070
98870W        W67343  23.038  17.636   2.774
98871W        W67344   0.757  27.627  10.415
98872W        W67345  38.494  35.014   0.476
98873W        W67346  43.966  42.472  14.361
98874W        W67347  25.575  27.648  12.412
98875W        W67348  21.585  20.210  13.379
98876W        W67349  11.861   5.214  11.116
98877W        W67350  24.153  30.529  13.430
98878W        W67351  20.184  26.158  11.056
98879W        W67352  10.656  39.501   1.266
98880W        W67353  25.675  17.676   3.786
98881W        W67354   5.756  17.682  13.903
98882W        W67355  36.082  35.938  12.969
98883W        W67356  35.953   1.398   2.726
98884W        W67357   3.952  12.346  12.827
98885W        W67358  28.457   1.936  12.996
98886W        W67359  20.677  24.088   4.278
98887W        W67360  28.533   4.784  14.774
98888W        W67361  37.053  31.599  13.005
98889W        W67362  30.572  18.150  13.323
98890W        W67363  42.783  44.329  14.506
98891W        W67364   1.457  22.526  12.862
98892W        W67365  25.183   4.375  11.105
98893W        W67366  18.281  12.759   3.318
98894W        W67367  38.403  29.521  10.556
98895W        W67368  17.239  13.770  11.989
98896W        W67369  26.575  19.196   2.675
98897W        W67370   6.252  16.189  10.419
98898W        W67371  32.124  13.333   3.282
98899W        W67372  14.251  37.383  14.362
98900W        W67373  15.686  31.146   3.180
98901W        W67374  40.797  12.342   1.315
98902W        W67375  16.701  29.930  10.621
98903W        W67376  41.964   0.848   2.365
98904W        W67377  44.897  22.102  13.958
98905W        W67378  27.085   7.389  14.925
98906W        W67379  29.937  41.933   4.747
98907W        W67380  14.606  40.394  14.397
98908W        W67381  26.188  15.663  10.449
98909W        W67382  14.612  36.389   0.752
98910W        W67383  38.986  36.456   0.966
98911W        W67384  37.860   1.840   3.749
98912W        W67385   1.270   3.905  11.400
98913W        W67386  15.200  29.609   2.233
98914W        W67387  17.149  37.871   1.902
98915W        W67388  32.017   6.422   3.645
98916W        W67389   4.275   7.806   2.200
98917W        W67390  43.764  19.280   0.803
98918W        W67391  22.514  33.968   0.253
98919W        W67392  41.500  25.660  14.381
98920W        W67393  32.535  11.757  14.932
98921W        W67394  30.509  35.024  14.854
98922W        W67395  42.458  30.964   3.180
98923W        W67396  31.572   9.172  12.919
98924W        W67397  17.606   8.737   0.245
98925W        W67398  13.605  35.403  14.991
98926W        W67399  17.599   9.260  10.989
98927W        W67400   1.892  19.279   0.865
98928W        W67401  33.590   1.388   0.432
98929W        W67402  10.785   8.267  12.357
98930W        W67403   9.250  41.923   3.368
98931W        W67404  20.559  17.576  14.766
98932W        W67405  31.122   2.370   1.415
98933W        W67406   5.200  26.969  11.608
98934W        W67407  28.962  36.039  11.947
98935W        W67408  40.310  37.438   5.108
98936W        W67409  21.041   9.781   3.768
98937W        W67410  37.010   7.774   3.234
98938W        W67411  10.272   9.270  11.453
98939W        W67412   9.199  36.427   0.845
98940W        W67413  44.479  32.009  14.284
98941W        W67414   7.869  34.564  10.563
98942W        W67415  18.777  10.284   3.684
98943W        W67416  14.102  35.448   2.278
98944W        W67417  15.690  15.232   2.818
98945W        W67418  14.133  42.888  11.558
98946W        W67419  42.947  11.709  14.490
98947W        W67420  17.780  11.756  12.046
98948W        W67421  23.085  41.448  11.019
98949W        W67422  25.601  32.986   2.796
98950W        W67423   8.852  35.389   5.192
98951W        W67424  41.824  17.706   3.272
98952W        W67425  22.033  43.292   1.699
98953W        W67426  11.151  38.451   0.801
98954W        W67427  35.921  14.207   0.901
98955W        W67428  29.082  22.544  11.535
98956W        W67429   4.862  35.537   1.898
98957W        W67430  11.157  18.287  12.457
98958W        W67431  18.152  25.198   3.675
98959W        W67432   1.277  37.875   0.965
98960W        W67433   6.343  37.552  13.392
98961W        W67434  34.981  12.642  10.429
98962W        W67435  11.841   8.777  14.768
98963W        W67436  28.965  30.028   1.336
98964W        W67437  17.608  44.260   3.258
98965W        W67438  27.631  14.274  13.956
98966W        W67439  18.077   4.425  12.474
98967W        W67440  24.596  24.527   1.736
98968W        W67441  24.645  31.602  14.926
98969W        W67442  17.784  11.724   2.280
98970W        W67443   6.888   7.254   2.751
98971W        W67444  12.188   5.930   1.252
98972W        W67445   4.893  10.373  14.408
98973W        W67446  34.055  32.623   2.812
98974W        W67447  20.685  10.317  10.601
98975W        W67448  26.058  42.397  10.423
98976W        W67449  19.263  12.343   1.698
98977W        W67450  33.540   1.333   4.289
98978W        W67451  36.933  31.544  13.350
98979W        W67452  10.674   5.859   4.271
98980W        W67453   0.297   2.728   0.782
98981W        W67454  42.876   8.731   3.198
98982W        W67455  12.201  43.989   4.176
98983W        W67456  25.962  31.046   0.438
98984W        W67457  10.384  13.784  13.851
98985W        W67458  34.536  26.625  13.816
98986W        W67459  34.399   2.812  14.324
98987W        W67460  33.409   2.432   3.839
98988W        W67461  26.969   6.745  14.368
98989W        W67462  21.116  35.545   2.380
98990W        W67463  20.717  26.692   1.824
98991W        W67464  33.036  22.206  14.810
98992W        W67465  35.554  38.917   4.732
98993W        W67466   5.745   4.270   2.793
98994W        W67467   5.745  37.512  13.538
98995W        W67468  15.710   4.709   2.705
98996W        W67469  25.190  30.459  10.616
98997W        W67470   5.918  28.100  14.890
98998W        W67471  23.027   3.955  13.984
98999W        W67472  17.115  33.048  12.500
99000W        W67473  11.330  31.021  13.817
99001W        W67474  44.301  42.403   1.334
99002W        W67475  29.513  19.064  11.447
99003W        W67476  28.672  16.270   2.903
99004W        W67477  15.326  18.610   1.719
99005W        W67478  15.137  35.936   4.119
99006W        W67479  25.972  32.559   4.612
99007W        W67480  14.172  30.054  13.885
99008W        W67481  15.301  36.855   4.144
99009W        W67482  20.659  39.876   3.868
99010W        W67483  43.860  13.749   1.925
99011W        W67484   1.282   8.757  11.476
99012W        W67485  43.319  18.752   4.646
99013W        W67486  27.973  29.517   2.817
99014W        W67487  35.935   3.436  13.952
99015W        W67488   5.247  32.555   2.886
99016W        W67489  11.250   3.785  13.490
99017W        W67490  34.097  12.812  13.392
99018W        W67491  24.562   8.819   4.633
99019W        W67492  11.353   7.705  11.008
99020W        W67493   4.817  26.208   1.394
99021W        W67494  43.451  10.781   4.311
99022W        W67495  27.647  44.395   2.896
99023W        W67496  26.091  20.597  11.431
99024W        W67497  32.522   6.255  14.280
99025W        W67498  14.249   1.403   1.846
99026W        W67499  31.126  11.158  13.911
99027W        W67500   3.880  42.857   2.673
99028W        W67501  35.853  29.511  10.492
99029W        W67502  42.975  14.160  10.521
99030W        W67503   2.761   1.821   3.369
99031W        W67504  36.022  17.083   1.899
99032W        W67505  36.499  41.928  11.050
99033W        W67506  18.183   2.748   3.735
99034W        W67507  20.714  28.080  14.449
99035W        W67508  32.528  42.479   0.817
99036W        W67509   1.447  27.684  10.423
99037W        W67510   1.459  24.524  11.874
99038W        W67511  23.009  23.602   0.914
99039W        W67512  31.119  16.308  12.428
99040W        W67513   7.823  12.707   1.367
99041W        W67514  23.524  16.580  12.371
99042W        W67515  19.145  35.991  11.585
99043W        W67516  25.020  25.469  11.484
99044W        W67517  25.044   1.395   2.782
99045W        W67518  34.461  31.065   0.348
99046W        W67519   9.823  17.757  13.916
99047W        W67520   1.436   0.932  12.570
99048W        W67521   4.438  21.601  14.937
99049W        W67522  24.064  33.107   3.758
99050W        W67523  43.907  14.173   2.205
99051W        W67524  21.593   6.864   0.329
99052W        W67525  19.218   5.426  14.294
99053W        W67526   9.366   8.668  14.026
99054W        W67527   0.748   1.906   4.653
99055W        W67528  33.529  43.345  12.840
99056W        W67529  30.631  36.579   3.679
99057W        W67530   6.324   6.393  12.071
99058W        W67531   0.974  25.159   0.875
99059W        W67532  16.073   4.302  12.854
99060W        W67533  37.850  27.570  11.004
99061W        W67534  20.538  37.875  12.494
99062W        W67535   6.842   7.760  11.419
99063W        W67536  11.214  37.505   1.435
99064W        W67537  37.853   1.920  10.563
99065W        W67538   1.281  21.585  13.854
99066W        W67539  37.087   1.756   1.875
99067W        W67540  36.845   3.752   1.755
99068W        W67541  29.439  38.446  10.434
99069W        W67542  37.485   9.678  10.894
99070W        W67543   1.426  36.892  13.923
99071W        W67544   2.308   0.871  14.857
99072W        W67545   3.332   3.913   1.720
99073W        W67546  42.872   3.725  10.473
99074W        W67547  42.491  12.268  14.321
99075W        W67548  17.573  41.859  12.838
99076W        W67549  27.668  37.873  13.979
99077W        W67550   2.383  44.337   4.824
99078W        W67551  10.228  22.042  14.390
99079W        W67552   3.859  11.714   1.365
99080W        W67553  15.253  25.990  13.506
99081W        W67554  20.701  23.674  14.952
99082W        W67555   1.405   9.802   3.249
99083W        W67556  21.239  42.378  11.482
99084W        W67557  22.109  32.563  12.511
99085W        W67558  14.130  12.273   3.384
99086W        W67559  22.225  15.611   2.850
99087W        W67560  18.707   8.880   5.172
99088W        W67561  39.467  40.452   4.800
99089W        W67562  18.791  34.083   4.729
99090W        W67563  24.107  13.168   1.740
99091W        W67564  40.825  22.718  14.777
99092W        W67565   8.762  39.938  13.985
99093W        W67566  10.775  14.786   2.216
99094W        W67567   1.772  26.139   0.460
99095W        W67568  35.989  44.340  12.869
99096W        W67569  41.855   6.866  12.510
99097W        W67570  39.892  26.038  11.559
99098W        W67571  28.180  35.452  11.537
99099W        W67572  26.700  34.432   3.282
99100W        W67573   6.800   7.869   0.317
99101W        W67574  39.942  13.164   4.148
99102W        W67575  23.601  18.606  10.527
99103W        W67576  36.524  43.507  13.325
99104W        W67577  32.433  22.682   1.836
99105W        W67578  43.422   7.798  11.874
99106W        W67579  38.524  44.292   1.797
99107W        W67580   5.798  27.153  12.970
99108W        W67581  19.233  28.630   0.262
99109W        W67582  43.768   3.792  10.449
99110W        W67583   7.835  29.532   5.301
99111W        W67584  18.114   6.679  14.891
99112W        W67585  39.851  23.064   2.846
99113W        W67586  25.469  20.063  11.063
99114W        W67587   2.875   0.884  14.393
99115W        W67588  30.105   9.266  14.806
99116W        W67589  23.496  26.687  10.614
99117W        W67590  37.959  17.569   2.243
99118W        W67591  17.672  33.892   3.818
99119W        W67592  27.616   7.374   2.416
99120W        W67593  33.517  30.087   2.235
99121W        W67594  14.824  24.555  11.993
99122W        W67595  38.464  44.344   1.334
99123W        W67596   7.833  20.674   4.651
99124W        W67597   5.763  27.497  11.554
99125W        W67598  23.579  11.263  14.392
99126W        W67599  39.541  15.652  11.605
99127W        W67600   7.336  22.999  14.483
99128W        W67601   4.824   6.803   0.951
99129W        W67602  38.449  25.125  11.392
99130W        W67603  11.645  18.785   3.652
99131W        W67604  16.193  13.215   0.750
99132W        W67605  10.759  41.979   2.699
99133W        W67606  18.193  25.116  14.977
99134W        W67607  25.999  28.457   3.215
99135W        W67608  18.051   9.804  12.012
99136W        W67609  15.590  18.786  12.482
99137W        W67610  28.087  12.765   9.922
99138W        W67611  36.078  19.659   3.245
99139W        W67612  28.084  11.319   0.731
99140W        W67613  16.660  31.009  10.982
99141W        W67614  34.909   1.763  10.536
99142W        W67615   7.792  37.841  10.471
99143W        W67616  10.310  42.319   1.934
99144W        W67617  16.805  18.074  10.539
99145W        W67618  19.537  36.467  12.954
99146W        W67619  36.041  39.996  10.917
99147W        W67620  27.505  11.662  14.359
99148W        W67621  33.580  11.800   0.944
99149W        W67622  36.373  34.566   0.880
99150W        W67623   6.364  23.560   3.383
99151W        W67624   2.814  15.752  14.916
99152W        W67625   1.476   3.375   4.260
99153W        W67626   3.218  21.202  11.588
99154W        W67627  39.328  22.515   3.189
99155W        W67628  20.239  28.643  14.391
99156W        W67629  32.568  27.554   4.684
99157W        W67630   1.322   3.438  12.857
99158W        W67631  11.134  14.757  11.519
99159W        W67632  42.284  40.004  14.367
99160W        W67633  38.988  13.764   0.469
99161W        W67634   6.848  43.277   3.769
99162W        W67635  35.933  35.977   0.827
99163W        W67636  22.080  29.925   0.856
99164W        W67637  13.786   6.918  13.836
99165W        W67638  38.433   3.876  13.052
99166W        W67639   9.752  27.015   1.389
99167W        W67640  34.066  44.448   3.192
99168W        W67641   2.820  10.244   3.688
99169W        W67642   9.849  42.332  12.522
99170W        W67643   6.191  14.600   4.222
99171W        W67644  13.623   3.229  13.006
99172W        W67645  41.530  44.353  11.052
99173W        W67646  28.955  22.057   3.197
99174W        W67647  44.281  40.309   4.617
99175W        W67648  25.076  10.156  14.892
99176W        W67649  31.592  25.187   1.381
99177W        W67650   8.230   2.248  13.523
99178W        W67651  40.834  11.753  10.907
99179W        W67652   9.878   4.776  12.836
99180W        W67653  18.732  20.747  14.510
99181W        W67654  18.244  23.637  10.459
99182W        W67655   2.460  40.506   3.295
99183W        W67656  24.119  42.792   2.204
99184W        W67657  25.014  38.819  11.413
99185W        W67658  18.578  29.565   1.748
99186W        W67659   3.330  28.112   2.812
99187W        W67660  28.552  32.464  14.893
99188W        W67661   3.856  34.887  10.959
99189W        W67662  36.552  39.876  12.548
99190W        W67663   9.371  34.416   2.301
99191W        W67664  15.290  41.355  14.974
99192W        W67665  43.853  28.469  12.838
99193W        W67666  14.193  20.602   3.173
99194W        W67667  39.055  31.544  11.399
99195W        W67668  35.560   5.260  13.959
99196W        W67669  24.630   2.888  10.586
99197W        W67670  22.194  43.426   3.824
99198W        W67671  33.050  34.087   0.302
99199W        W67672  38.411  11.835   1.433
99200W        W67673  34.511  35.028  12.486
99201W        W67674  16.196  30.542   2.308
99202W        W67675  10.314  43.802   3.726
99203W        W67676  10.241   3.819   4.208
99204W        W67677  34.042  31.564   3.345
99205W        W67678  34.899   8.324   0.315
99206W        W67679   1.316  41.362   2.364
99207W        W67680  18.550  23.179  11.606
99208W        W67681   6.336  16.718   5.262
99209W        W67682  42.965  21.244   2.395
99210W        W67683  37.524  42.405  10.954
99211W        W67684   8.874  23.705   0.307
99212W        W67685  44.988  25.511  11.573
99213W        W67686  43.980  12.679  11.111
99214W        W67687   2.720   2.396   0.408
99215W        W67688  40.029  36.348  10.428
99216W        W67689   2.274   5.389  10.629
99217W        W67690  17.156  38.997   0.342
99218W        W67691  30.152  24.030   3.229
99219W        W67692  33.508  44.848   0.804
99220W        W67693  43.352   1.421  10.637
99221W        W67694  19.753  34.399  10.573
99222W        W67695  42.445  19.168   2.722
99223W        W67696  11.261  26.147   2.786
99224W        W67697   8.722  15.659   5.293
99225W        W67698  22.524  43.832   3.862
99226W        W67699  34.051  35.923   5.292
99227W        W67700  16.201  31.976  13.958
99228W        W67701  21.115  35.515  11.019
99229W        W67702  26.015  22.651  13.432
99230W        W67703  11.805  24.224   0.745
99231W        W67704  19.166   9.709   2.864
99232W        W67705   9.715  15.745   4.233
99233W        W67706  17.100  36.065  11.980
99234W        W67707  18.149  31.065   1.798
99235W        W67708   9.324  13.677  11.856
99236W        W67709  11.770  25.528   1.793
99237W        W67710  39.943  39.359   3.633
99238W        W67711  37.370   6.908  14.505
99239W        W67712   3.442  10.251   3.206
99240W        W67713  43.018   8.666  11.488
99241W        W67714   0.786  40.828  14.825
99242W        W67715   5.899  11.265   3.754
99243W        W67716   5.865  21.713   2.380
99244W        W67717   1.236  42.413   3.738
99245W        W67718  18.787  14.223  10.550
99246W        W67719  14.130  23.675  13.986
99247W        W67720   4.229   8.202  14.434
99248W        W67721  23.119   8.284   4.189
99249W        W67722  27.645  43.832   0.287
99250W        W67723  41.386  20.546  13.027
99251W        W67724  25.546  10.665   3.385
99252W        W67725   9.341  17.756   3.730
99253W        W67726   3.855  32.032   0.815
99254W        W67727   9.275   5.216   0.246
99255W        W67728  11.300  41.875  14.777
99256W        W67729   7.173  16.211   5.160
99257W        W67730  18.244  24.018   0.820
99258W        W67731  32.617  11.216  14.374
99259W        W67732  32.476  24.976  10.439
99260W        W67733  20.632  19.156   0.825
99261W        W67734  35.403  36.932  10.474
99262W        W67735   7.296  25.705   2.389
99263W        W67736  28.667  38.873  10.433
99264W        W67737  22.248  12.345  12.400
99265W        W67738  13.327   1.294  14.763
99266W        W67739  29.076  33.521  14.983
99267W        W67740   1.772  32.470  12.452
99268W        W67741  30.027  40.381   2.880
99269W        W67742  19.670  41.474  14.957
99270W        W67743  11.255  41.986   4.201
99271W        W67744  37.440  32.603   3.794
99272W        W67745  23.065   9.725   3.277
99273W        W67746  40.952   7.351  12.000
99274W        W67747  41.035  35.077  14.880
99275W        W67748   7.341   0.284   0.449
99276W        W67749  13.199  33.472   9.959
99277W        W67750  12.184  18.626  13.414
99278W        W67751  31.935  31.639  14.802
99279W        W67752  17.063  37.520  13.971
99280W        W67753  10.169   0.802   3.727
99281W        W67754  11.300  36.575  11.403
99282W        W67755  39.822  30.652   4.134
99283W        W67756  42.301  40.017   0.458
99284W        W67757   8.667   5.343   3.769
99285W        W67758  38.957  26.166   5.220
99286W        W67759  39.446  16.295   4.207
99287W        W67760  13.616  28.612   0.881
99288W        W67761  21.109  33.583   3.221
99289W        W67762  34.110  18.715  10.546
99290W        W67763  21.689  25.479   9.982
99291W        W67764   6.239  27.055   2.397
99292W        W67765  21.721   6.312   3.195
99293W        W67766   5.725   8.163  10.955
99294W        W67767  16.254   1.857  14.897
99295W        W67768  41.039  18.781   0.811
99296W        W67769   8.398  31.421   0.420
99297W        W67770  18.280  29.110   4.710
99298W        W67771  25.627  16.611  13.504
99299W        W67772   1.354   0.350   3.268
99300W        W67773  19.757   8.823  11.974
99301W        W67774   1.276  39.980  14.926
99302W        W67775  15.627  40.799   2.833
99303W        W67776  42.351  24.133  14.838
99304W        W67777  15.817  28.664   3.336
99305W        W67778  26.159  18.640   1.359
99306W        W67779   5.766   0.988  13.327
99307W        W67780  34.511  17.561   1.268
99308W        W67781   9.688  31.648   3.751
99309W        W67782   0.889  38.947   4.181
99310W        W67783  26.550  40.930  11.063
99311W        W67784  26.119  34.572   4.223
99312W        W67785  29.587  26.095   1.863
99313W        W67786  22.705  19.121  14.346
99314W        W67787   6.321  35.507   2.390
99315W        W67788  43.339  23.231   2.731
99316W        W67789   4.897  27.617   0.436
99317W        W67790   7.848  38.551  12.045
99318W        W67791  12.713  25.988   1.862
99319W        W67792  36.553  17.606  13.030
99320W        W67793  11.158   1.835  11.991
99321W        W67794  43.453  38.911  14.510
99322W        W67795  11.330  16.205   0.478
99323W        W67796   5.314  13.129   1.759
99324W        W67797  12.758  25.184  12.392
99325W        W67798  30.421   4.325   1.239
99326W        W67799  15.584   4.782   1.450
99327W        W67800  40.869   6.213  11.052
99328W        W67801  22.670  23.691   0.811
99329W        W67802  28.088  44.452   5.319
99330W        W67803   0.890  31.442   4.165
99331W        W67804  41.017  12.202  10.480
99332W        W67805  18.155  29.118   1.330
99333W        W67806  24.635  19.152   1.835
99334W        W67807   6.355  12.743  12.974
99335W        W67808  33.453   7.200  10.133
99336W        W67809  11.219  21.220   3.146
99337W        W67810  10.383  28.121  13.331
99338W        W67811   0.758  13.727   1.904
99339W        W67812  41.878  38.060   1.821
99340W        W67813   8.655   3.766   2.381
99341W        W67814  14.818   5.788  13.320
99342W        W67815  23.733  26.063   2.371
99343W        W67816  38.851   0.440  13.029
99344W        W67817  16.159  41.870   0.258
99345W        W67818  24.686  38.539  13.803
99346W        W67819  43.397  14.718   0.958
99347W        W67820  13.648  37.352   0.264
99348W        W67821  37.074  35.458  10.452
99349W        W67822  42.840   8.773   4.340
99350W        W67823  17.709  16.075   2.770
99351W        W67824  25.188  24.627  13.313
99352W        W67825  28.043  44.784   2.788
99353W        W67826   1.257  13.205   2.362
99354W        W67827  36.408   5.736  12.959
99355W        W67828  14.793  36.985  12.028
99356W        W67829  12.327  18.590  12.537
99357W        W67830  24.160  18.194  14.309
99358W        W67831  28.523  31.952   4.334
99359W        W67832   5.727   6.394   1.751
99360W        W67833  44.970   3.338   5.228
99361W        W67834  27.074  17.239   1.403
99362W        W67835  18.106  39.520  11.876
99363W        W67836  10.763  10.689   0.850
99364W        W67837  26.089  15.119  10.479
99365W        W67838  21.665  43.311   1.439
99366W        W67839  15.778  26.985   1.403
99367W        W67840  15.152  34.471  14.298
99368W        W67841  39.527  28.947   4.799
99369W        W67842  10.179  21.741   4.281
99370W        W67843  11.860  22.539   0.744
99371W        W67844  19.189   4.427   0.442
99372W        W67845   7.907  23.662  14.817
99373W        W67846   2.926  17.658  12.369
99374W        W67847  17.073   0.970   3.846
99375W        W67848  41.999   0.324  12.423
99376W        W67849  20.259   7.689   1.328
99377W        W67850  21.753  21.645   0.284
99378W        W67851  44.381  28.185   4.601
99379W        W67852   4.214  44.285  11.971
99380W        W67853   6.250  22.534  11.906
99381W        W67854  37.070  32.577  10.464
99382W        W67855  43.870  13.676  13.063
99383W        W67856  31.026   0.745   2.859
99384W        W67857  24.004  10.343   3.837
99385W        W67858  37.067  38.012   3.810
99386W        W67859  17.256  27.630  12.003
99387W        W67860  18.706  17.252  12.422
99388W        W67861   0.286  14.295   2.676
99389W        W67862  36.370  25.591   1.884
99390W        W67863   1.434  37.046  11.938
99391W        W67864  29.093  22.621   4.212
99392W        W67865  29.172  36.993  11.612
99393W        W67866  32.116  14.271   1.226
99394W        W67867  25.201   0.894   3.804
99395W        W67868  22.080  38.871  10.108
99396W        W67869  29.106  37.398   2.414
99397W        W67870   3.420   7.674   4.598
99398W        W67871   2.786   0.974   1.319
99399W        W67872  21.714  12.116   1.720
99400W        W67873  22.558   4.814  13.006
99401W        W67874   7.887  42.389   2.243
99402W        W67875  32.631   0.756  12.831
99403W        W67876   8.836  26.656  10.061
99404W        W67877  23.237  41.409  13.042
99405W        W67878  16.642  40.004   4.113
99406W        W67879  10.758  28.470   3.179
99407W        W67880  33.578  40.533  11.563
99408W        W67881   6.258  44.841   1.860
99409W        W67882  35.044  43.784   4.311
99410W        W67883  11.219  41.968  11.089
99411W        W67884  19.222  35.445  11.600
99412W        W67885   4.437  23.555   4.734
99413W        W67886  21.021  23.729  12.420
99414W        W67887  41.427  37.571   3.184
99415W        W67888  24.097  11.764   3.778
99416W        W67889   5.773   1.815  11.471
99417W        W67890  43.336  28.121  10.605
99418W        W67891  21.535   7.705  14.441
99419W        W67892  43.978  42.488  12.986
99420W        W67893  38.555  10.297   1.428
99421W        W67894   9.799  30.143  11.882
99422W        W67895  30.109   3.459   2.373
99423W        W67896  24.649  33.093  11.924
99424W        W67897   0.967  32.499   3.633
99425W        W67898  26.089  43.895  10.577
99426W        W67899  44.260   1.764  11.084
99427W        W67900  34.441  21.521   3.362
99428W        W67901  41.841  31.967   5.186
99429W        W67902  35.463  29.064  12.087
99430W        W67903  30.560   7.256   3.847
99431W        W67904  32.436   1.348  12.500
99432W        W67905  24.648  25.702   3.225
99433W        W67906  10.648   9.841   0.331
99434W        W67907  35.367  11.837   4.133
99435W        W67908  36.539  33.626  13.036
99436W        W67909  26.962  16.169   2.260
99437W        W67910  20.674   1.461  11.404
99438W        W67911  29.137  17.224   4.628
99439W        W67912  33.884  19.264   4.123
99440W        W67913  44.970  44.345   3.157
99441W        W67914  42.917   4.313  12.014
99442W        W67915   6.307  19.773  12.845
99443W        W67916  16.764  19.584  14.466
99444W        W67917  27.066  26.604  13.831
99445W        W67918  34.607  35.895   0.898
99446W        W67919  18.592  22.683  13.412
99447W        W67920   7.762   6.254  11.476
99448W        W67921   7.781   8.298  13.885
99449W        W67922  19.187   2.896   2.739
99450W        W67923   2.405   1.394   3.153
99451W        W67924   2.288  39.446  13.385
99452W        W67925  29.540  32.946   4.239
99453W        W67926  37.849   9.228   4.611
99454W        W67927  22.671  23.609  13.437
99455W        W67928  27.081  12.697  10.492
99456W        W67929  36.049   2.837   2.358
99457W        W67930  18.176  11.702  14.793
99458W        W67931  37.424  35.447  11.426
99459W        W67932  21.212  37.020   1.412
99460W        W67933   8.319  30.621  11.961
99461W        W67934  20.249  10.293  12.045
99462W        W67935   4.729  14.792   3.226
99463W        W67936  14.717  44.464   3.155
99464W        W67937  12.196  43.314   3.386
99465W        W67938  23.580  33.050   0.903
99466W        W67939  15.806  35.363   0.462
99467W        W67940  22.127  36.973  11.477
99468W        W67941   3.776  43.356   0.363
99469W        W67942  10.648  29.973   1.376
99470W        W67943   6.276   7.247   9.488
99471W        W67944  22.542  20.254   0.829
99472W        W67945  13.197  29.605   2.368
99473W        W67946  19.650  31.644  14.767
99474W        W67947   4.261  35.907  10.889
99475W        W67948  27.674   2.313   2.315
99476W        W67949  38.537  34.974  11.409
99477W        W67950  16.575  41.790  12.927
99478W        W67951  21.205  42.858   3.249
99479W        W67952  23.602   6.707  11.003
99480W        W67953  44.284   7.174   4.745
99481W        W67954   4.446  37.373   0.727
99482W        W67955   3.905  31.585  11.434
99483W        W67956  19.165  28.585  12.454
99484W        W67957  12.236   2.810   0.829
99485W        W67958  36.996   5.735   2.662
99486W        W67959  16.675  34.084  11.389
99487W        W67960  24.158  39.389  12.955
99488W        W67961  18.254  23.100   1.369
99489W        W67962  26.071   3.434   1.823
99490W        W67963   4.775  18.575  13.884
99491W        W67964  18.545  11.248   1.285
99492W        W67965  18.596  44.819  11.529
99493W        W67966  23.620  12.809  13.929
99494W        W67967  14.818  26.477   1.802
99495W        W67968  33.063  40.992   2.666
99496W        W67969  43.394  39.828  10.953
99497W        W67970  27.486   6.314   1.355
99498W        W67971  43.448   9.358  11.022
99499W        W67972  12.183  10.279   1.794
99500W        W67973  40.436  29.625  13.925
99501W        W67974  19.139   3.383  11.413
99502W        W67975  23.534   3.285  14.923
99503W        W67976   3.953  31.098  11.882
99504W        W67977  44.384   9.814   4.605
99505W        W67978   5.693  26.119  11.104
99506W        W67979  16.639  13.123  11.968
99507W        W67980  25.051  39.045  13.361
99508W        W67981   0.449  43.491  13.336
99509W        W67982  37.837   5.704   4.812
99510W        W67983  33.910  13.786   2.419
99511W        W67984  27.145  38.479   4.134
99512W        W67985  39.394  13.300  11.520
99513W        W67986  14.678  27.480   4.686
99514W        W67987  32.114  11.216  12.067
99515W        W67988   7.772  28.636   1.272
99516W        W67989  25.501   1.435   3.372
99517W        W67990  23.726   8.233   0.445
99518W        W67991  18.552  24.024  10.915
99519W        W67992  39.385  40.974  11.567
99520W        W67993   6.195  14.705   1.427
99521W        W67994   1.738   1.768  11.932
99522W        W67995  15.775  31.560   0.921
99523W        W67996  12.119  15.227   3.781
99524W        W67997  27.111   7.357  14.387
99525W        W67998  14.638  44.758   2.393
99526W        W67999   0.804  38.444   1.706
99527W        W68000   2.351  22.242   2.766
99528W        W68001   1.896  42.504  11.015
99529W        W68002  38.829   2.400  13.515
99530W        W68003  37.552  28.974  14.799
99531W        W68004  14.198   8.895   4.284
99532W        W68005  15.329  28.186  13.345
99533W        W68006  44.938  20.163  12.580
99534W        W68007  24.595   6.802  11.114
99535W        W68008  44.359  11.638   1.210
99536W        W68009  32.394  41.303   3.161
99537W        W68010   2.340  14.627  10.933
99538W        W68011  34.579  27.609   1.318
99539W        W68012  44.803   0.819  13.317
99540W        W68013  37.928  29.513   1.318
99541W        W68014   9.200   0.463   2.362
99542W        W68015  14.795   3.411  14.284
99543W        W68016  36.532  36.349  13.337
99544W        W68017  42.372  42.407   4.769
99545W        W68018  21.121  30.134  14.781
99546W        W68019  43.476  11.627  12.091
99547W        W68020  32.142  24.703  11.526
99548W        W68021  22.513  26.507  10.560
99549W        W68022  12.163  20.248   3.302
99550W        W68023  23.532  35.603   4.659
99551W        W68024   4.251   5.200   1.369
99552W        W68025  39.360  23.991   3.648
99553W        W68026  19.745   7.234   4.647
99554W        W68027  15.683  39.977  10.089
99555W        W68028  18.672  16.230   2.760
99556W        W68029  39.332  41.028   2.331
99557W        W68030  34.101   3.775   3.263
99558W        W68031   8.195  18.759  14.936
99559W        W68032   1.835  22.643  12.523
99560W        W68033  40.496  19.581  13.467
99561W        W68034  30.148  26.472   1.309
99562W        W68035  14.274   6.805  13.827
99563W        W68036  33.451   3.218   2.379
99564W        W68037  27.527  12.782  13.388
99565W        W68038  13.311   5.892  11.928
99566W        W68039  38.985  34.916  12.363
99567W        W68040  32.510  37.881   2.896
99568W        W68041  32.605  29.056   3.337
99569W        W68042  41.488  18.147   4.599
99570W        W68043  33.008  43.515  11.563
99571W        W68044  30.965   4.865  10.972
99572W        W68045   0.794  40.957  12.892
99573W        W68046  25.653  38.841  11.944
99574W        W68047  20.532  34.451  12.997
99575W        W68048  18.557  44.453   1.717
99576W        W68049  24.628  43.800   5.085
99577W        W68050  10.156  44.795  14.325
99578W        W68051   7.673  43.008   4.269
99579W        W68052   6.792   4.208   1.706
99580W        W68053   9.798  38.468   3.268
99581W        W68054  32.575   6.402   4.341
99582W        W68055  29.950   1.958   2.392
99583W        W68056   1.292  44.879   1.378
99584W        W68057  23.062   7.186  13.799
99585W        W68058  38.348  36.078   3.267
99586W        W68059  25.188   9.882  10.572
99587W        W68060  23.008   2.773   4.222
99588W        W68061  30.610  41.836  14.295
99589W        W68062  31.565  39.975   4.652
99590W        W68063   8.804  35.005  13.901
99591W        W68064  42.833  29.959  11.916
99592W        W68065  40.518  31.446   3.740
99593W        W68066  30.597  39.903  13.905
99594W        W68067  19.150   6.785  10.988
99595W        W68068  43.306  42.015  13.493
99596W        W68069  43.963  26.178  12.519
99597W        W68070  40.968  15.795   4.769
99598W        W68071  33.093  31.531  11.394
99599W        W68072  31.438   6.307   4.324
99600W        W68073  32.956   3.879   0.271
99601W        W68074   2.803  15.802  12.457
99602W        W68075   0.964  18.683  10.970
99603W        W68076  23.121  19.699  10.961
99604W        W68077   2.911  17.244  13.883
99605W        W68078  33.580  42.444  13.332
99606W        W68079  29.542   0.362   1.826
99607W        W68080   6.907   8.737  11.942
99608W        W68081  33.053  39.904   4.791
99609W        W68082  33.421  43.337   1.813
99610W        W68083  24.060  17.768  10.991
99611W        W68084  34.370  41.852   0.323
99612W        W68085  29.080  37.047   3.808
99613W        W68086  30.147   3.359   4.824
99614W        W68087  28.975  20.222  13.961
99615W        W68088  17.625  11.791   4.790
99616W        W68089  23.151  27.986   2.735
99617W        W68090  13.631  38.832   2.244
99618W        W68091  24.492  43.931  13.857
99619W        W68092  43.395  23.197   2.253
99620W        W68093  13.261  35.604  14.492
99621W        W68094  30.974   8.733   9.978
99622W        W68095  28.142   5.788  11.456
99623W        W68096  23.127   5.403   0.761
99624W        W68097  38.390  15.282  12.857
99625W        W68098  13.175   6.403   2.779
99626W        W68099  11.813  40.433  10.004
99627W        W68100  20.692   3.388   1.263
99628W        W68101  30.159  44.317   2.185
99629W        W68102  19.105   5.761  14.831
99630W        W68103   8.202  19.645  10.522
99631W        W68104  39.428  11.153   1.841
99632W        W68105  42.001  27.945   2.244
99633W        W68106  21.065  35.091   0.401
99634W        W68107  23.189  21.675  11.005
99635W        W68108  44.984  11.738   1.349
99636W        W68109  34.000  39.917  14.417
99637W        W68110  43.939  40.870  13.896
99638W        W68111  25.021  10.383   3.245
99639W        W68112  19.596  20.082  13.894
99640W        W68113  42.912  21.692  11.017
99641W        W68114  19.645   0.892   1.768
99642W        W68115   9.153  30.963  12.924
99643W        W68116   6.742   0.755   2.833
99644W        W68117  17.617  30.980  12.450
99645W        W68118   0.419   1.456  12.436
99646W        W68119  25.700   1.868  10.495
99647W        W68120  19.165  25.193   1.233
99648W        W68121  39.861  44.834   2.826
99649W        W68122  18.154   3.749  10.442
99650W        W68123  16.779  15.226   4.197
99651W        W68124   1.434  34.595   3.798
99652W        W68125  34.948   6.349  11.548
99653W        W68126  40.496  38.839   3.672
99654W        W68127   1.239  28.030   4.663
99655W        W68128  15.158  14.206   1.751
99656W        W68129  24.978   8.851  14.354
99657W        W68130  33.001   8.339   1.402
99658W        W68131  18.196  32.918   1.780
99659W        W68132  14.334  26.066  11.592
99660W        W68133  37.422  29.508  12.459
99661W        W68134  23.520  28.526   3.319
99662W        W68135  19.565   5.425   3.368
99663W        W68136  22.550  33.885  10.084
99664W        W68137  43.346  31.968  13.439
99665W        W68138  25.962  34.069  14.935
99666W        W68139  33.968  44.439  14.338
99667W        W68140   7.748   9.742  11.599
99668W        W68141   6.223  40.426  13.028
99669W        W68142  44.958  15.760   3.703
99670W        W68143  34.587  23.061  11.407
99671W        W68144  25.044  36.862   0.808
99672W        W68145  27.955  28.051   4.194
99673W        W68146   7.687   0.470  11.577
99674W        W68147   3.258   1.352  13.962
99675W        W68148   9.839  26.665  14.899
99676W        W68149   1.346  23.085   1.830
99677W        W68150  44.855  44.899   0.339
99678W        W68151   8.872  23.139  11.570
99679W        W68152  21.735  43.014  13.829
99680W        W68153  19.050  42.508   1.824
99681W        W68154  32.949  24.699  10.420
99682W        W68155  36.897  25.034   2.199
99683W        W68156  31.572  33.879  12.378
99684W        W68157   3.393  23.216  12.518
99685W        W68158  22.134  28.478   2.781
99686W        W68159   9.873   2.262   2.364
99687W        W68160  27.176  16.585   1.296
99688W        W68161  15.160  24.084   1.933
99689W        W68162  15.299  11.326   4.115
99690W        W68163   8.851  42.966  11.999
99691W        W68164  35.922  33.888   2.872
99692W        W68165  28.147  39.348  11.009
99693W        W68166  43.503  36.350   3.237
99694W        W68167  36.588   7.233  13.417
99695W        W68168   1.395  16.727  13.372
99696W        W68169   9.673  11.317   2.888
99697W        W68170  41.804  31.996  12.917
99698W        W68171  39.438  37.942   0.850
99699W        W68172   8.895  31.076  12.536
99700W        W68173   3.891   5.746   2.285
99701W        W68174  35.532  16.195  10.919
99702W        W68175  39.508  13.744  13.315
99703W        W68176  36.054  41.963  14.013
99704W        W68177  22.139  29.158   4.166
99705W        W68178  13.655   7.850   4.335
99706W        W68179  12.289   9.731   2.307
99707W        W68180  16.217   2.276   0.860
99708W        W68181  20.183  17.684  13.060
99709W        W68182  31.597  31.914  10.007
99710W        W68183  31.584  21.705   4.258
99711W        W68184  37.027  35.398   4.776
99712W        W68185   1.377  31.491  12.886
99713W        W68186  36.381  34.395   1.292
99714W        W68187  32.427   4.259  12.504
99715W        W68188  35.960  35.429  10.595
99716W        W68189  23.592  29.590  11.409
99717W        W68190  31.431   2.471   0.922
99718W        W68191  27.070   3.830   0.254
99719W        W68192  38.849   5.357   2.725
99720W        W68193   9.808  37.065   3.184
99721W        W68194   5.320  44.968   0.781
99722W        W68195  17.665   7.750  13.480
99723W        W68196  29.453   3.380  10.526
99724W        W68197  37.836  40.872  11.593
99725W        W68198  23.083  35.028   2.350
99726W        W68199  34.502   4.771  13.015
99727W        W68200   7.827  21.067   4.747
99728W        W68201  11.706  40.309  14.318
99729W        W68202  18.267  24.644  10.988
99730W        W68203  19.274   8.212  13.792
99731W        W68204  17.662  28.108   1.921
99732W        W68205  44.793  16.246  11.381
99733W        W68206  35.404   3.439  14.832
99734W        W68207  35.858  24.579   4.311
99735W        W68208  22.217  43.884  12.394
99736W        W68209  18.662   2.278  12.026
99737W        W68210   6.783  27.636  14.768
99738W        W68211  44.983   2.925  12.345
99739W        W68212  44.381  28.983  12.501
99740W        W68213   9.195   7.862   3.659
99741W        W68214  10.275   3.425   1.742
99742W        W68215  10.366  37.066  12.874
99743W        W68216  40.368  21.100  14.811
99744W        W68217  10.157  40.029   1.300
99745W        W68218   7.735   8.780  12.372
99746W        W68219  43.437  43.419  12.045
99747W        W68220  32.985  35.931   3.353
99748W        W68221   2.395  15.801  10.014
99749W        W68222   7.671  36.592   1.765
99750W        W68223  37.057  40.927  13.356
99751W        W68224   7.320  27.639  10.531
99752W        W68225   7.890  22.191  12.091
99753W        W68226  32.888  26.617  12.555
99754W        W68227   0.489  32.016  12.434
99755W        W68228  41.843  44.929  12.010
99756W        W68229  41.408  32.887   1.316
99757W        W68230  15.198  40.441   3.862
99758W        W68231  22.523   4.743   9.968
99759W        W68232  21.732  24.186  14.506
99760W        W68233  31.435  36.095  13.996
99761W        W68234  37.490  25.116   0.838
99762W        W68235   1.844  14.765  14.825
99763W        W68236  42.446  14.125   4.260
99764W        W68237  22.044   8.275  14.826
99765W        W68238  24.118   7.263  14.759
99766W        W68239  39.833  14.713   0.442
99767W        W68240  24.184  16.715   2.709
99768W        W68241  24.712  25.113  10.591
99769W        W68242  43.433  34.881   0.769
99770W        W68243  36.979   7.911  12.956
99771W        W68244   8.400  22.242   3.276
99772W        W68245  26.095  27.497  12.342
99773W        W68246  28.145  43.446  14.957
99774W        W68247  24.529  29.164   0.786
99775W        W68248   1.887   9.215  13.886
99776W        W68249   6.354  23.722  10.611
99777W        W68250  32.011   1.281   0.323
99778W        W68251   1.854  14.136  14.782
99779W        W68252  23.553  32.393  14.302
99780W        W68253  39.929  43.828   4.642
99781W        W68254   4.894  12.754   2.711
99782W        W68255  40.480  44.910  14.966
99783W        W68256  39.437  41.450  10.509
99784W        W68257  10.741  17.605  11.873
99785W        W68258   3.892  36.423  12.467
99786W        W68259  20.706  34.863  13.515
99787W        W68260  35.989   6.715  10.951
99788W        W68261  34.919  21.078   3.366
99789W        W68262  14.131   9.691   3.806
99790W        W68263   0.934   7.377   0.746
99791W        W68264  30.483  34.432  14.789
99792W        W68265  29.121  44.374  13.345
99793W        W68266  12.617  43.920   3.759
99794W        W68267  22.006  34.915  10.911
99795W        W68268  32.907  22.169  13.912
99796W        W68269  38.035  30.088  11.512
99797W        W68270   7.296  14.726   4.190
99798W        W68271  40.035  28.139  13.537
99799W        W68272   3.788  36.097  12.978
99800W        W68273  27.519  41.326  14.380
99801W        W68274  15.188  24.628  10.445
99802W        W68275  29.074  12.313  12.386
99803W        W68276  28.008  18.106   3.863
99804W        W68277   1.321  43.507   1.321
99805W        W68278   7.231  21.259  14.784
99806W        W68279  16.072  35.937   2.267
99807W        W68280  21.522   5.332   3.769
99808W        W68281  22.248   5.869   1.695
99809W        W68282   3.838   8.388   0.771
99810W        W68283  32.007   6.680  10.443
99811W        W68284  28.657  10.872   0.865
99812W        W68285  34.930  43.800   2.789
99813W        W68286   0.473  26.986   2.195
99814W        W68287  35.970  22.676   3.759
99815W        W68288  35.994  32.923   0.819
99816W        W68289  23.634  30.935   2.344
99817W        W68290  26.115  21.593  10.560
99818W        W68291   5.752  39.833  13.468
99819W        W68292  41.859  14.811   2.230
99820W        W68293  31.052  34.097  13.809
99821W        W68294  18.704  38.866   1.740
99822W        W68295  12.697  20.202  14.008
99823W        W68296   3.831  28.070   4.285
99824W        W68297  31.982  35.598  10.555
99825W        W68298  25.507  43.320  13.849
99826W        W68299  22.731  18.257   1.272
99827W        W68300   3.722  42.798   2.268
99828W        W68301  34.047  39.890  12.578
99829W        W68302  26.126  25.162   2.839
99830W        W68303  26.592   6.234  14.829
99831W        W68304  41.924  38.913  13.875
99832W        W68305  31.153  14.696  13.346
99833W        W68306  32.621  23.023   0.783
99834W        W68307  28.040  17.747  11.870
99835W        W68308  36.492  35.466   2.861
99836W        W68309  30.038  41.494  14.805
99837W        W68310  26.630  35.370  11.083
99838W        W68311  31.947  28.069  11.025
99839W        W68312  31.020   8.787  13.332
99840W        W68313   3.440   3.714  12.080
99841W        W68314  43.010   6.877  13.833
99842W        W68315  40.830  37.521  13.398
99843W        W68316  23.056  35.359  12.058
99844W        W68317  28.568   4.310   3.643
99845W        W68318  42.957  34.546   2.238
99846W        W68319   6.851  36.922  12.465
99847W        W68320  29.106  17.260  13.445
99848W        W68321  37.478  20.579  10.963
99849W        W68322  10.665  36.087   2.331
99850W        W68323   7.678   4.907   0.429
99851W        W68324  18.254  26.152   4.201
99852W        W68325  36.016   8.232  14.771
99853W        W68326  17.105  34.434  10.070
99854W        W68327  35.402  19.124  12.908
99855W        W68328   1.950   1.441   2.246
99856W        W68329  41.537   7.752   1.428
99857W        W68330  33.048  26.570   4.351
99858W        W68331  12.673   6.407  11.976
99859W        W68332  43.422  31.950  13.862
99860W        W68333  21.216  22.713   1.274
99861W        W68334  25.209   6.871  11.958
99862W        W68335  26.125  10.735   1.288
99863W        W68336  39.328  34.897  14.828
99864W        W68337  38.442  11.828  12.474
99865W        W68338  39.910  23.584   3.252
99866W        W68339  22.699  24.120   0.753
99867W        W68340  28.452  43.828  12.500
99868W        W68341  13.188  24.617  12.563
99869W        W68342  21.131  38.418  13.413
99870W        W68343   0.359  20.554   4.727
99871W        W68344  42.296  42.015  10.509
99872W        W68345   7.717  19.053  14.315
99873W        W68346  30.150   4.285  14.420
99874W        W68347  43.858  26.050  10.626
99875W        W68348  31.956  22.196   1.884
99876W        W68349  14.130   8.844   0.455
99877W        W68350  11.679   9.848  13.927
99878W        W68351  30.131  25.629  14.989
99879W        W68352   3.391  12.165   1.821
99880W        W68353  28.480  20.574  13.898
99881W        W68354  43.967  20.750   0.807
99882W        W68355  12.315  24.483   0.776
99883W        W68356   3.217  24.533  11.456
99884W        W68357  35.053   6.900  11.392
99885W        W68358  43.488  24.653   1.450
99886W        W68359   3.224   3.237   0.737
99887W        W68360  11.808   8.275  11.523
99888W        W68361  32.509  38.832   4.753
99889W        W68362  28.080  44.948   3.765
99890W        W68363  36.465  43.380   4.333
99891W        W68364  14.224   5.894  13.463
99892W        W68365  10.640  14.747  13.546
99893W        W68366  16.256  39.027   4.672
99894W        W68367  24.698  17.676  12.430
99895W        W68368  18.189  25.487   1.726
99896W        W68369   5.776  26.083  13.456
99897W        W68370  19.624  15.211   4.726
99898W        W68371  25.108  26.486  13.454
99899W        W68372   4.907  10.673  13.866
99900W        W68373  23.671  29.629  13.538
99901W        W68374  22.528  25.067  13.314
99902W        W68375   4.223  40.318  14.421
99903W        W68376   9.831   6.734  13.056
99904W        W68377  42.318   7.202  11.512
99905W        W68378   7.264  26.554  10.511
99906W        W68379  33.935  33.397  13.527
99907W        W68380   0.269  27.988   3.230
99908W        W68381  42.917  35.022   2.737
99909W        W68382  28.170  14.317  11.856
99910W        W68383   4.227  18.727   3.768
99911W        W68384   7.230  37.375  10.644
99912W        W68385  21.211  16.088  11.531
99913W        W68386  24.060  41.917  12.885
99914W        W68387  23.203  35.408  14.440
99915W        W68388  24.516  19.263   0.402
99916W        W68389  27.492  44.972  12.424
99917W        W68390   7.413  16.088   0.314
99918W        W68391  41.036  35.513   3.748
99919W        W68392   5.743   0.480   2.321
99920W        W68393  35.542  42.375   0.763
99921W        W68394  10.215  21.751  11.960
99922W        W68395  42.345   2.764  12.544
99923W        W68396  25.631   1.342  11.595
99924W        W68397  18.713  18.267   0.246
99925W        W68398  41.367  12.665  12.488
99926W        W68399  35.419   2.371   0.960
99927W        W68400  13.624  35.505   0.783
99928W        W68401   8.227  22.714  10.523
99929W        W68402  10.795  10.190  13.814
99930W        W68403  17.624  28.138  14.282
99931W        W68404   1.320  22.155   4.262
99932W        W68405  28.042  38.428   1.434
99933W        W68406  44.455  17.777  13.799
99934W        W68407   3.740  33.047   1.400
99935W        W68408   2.276   4.943  10.909
99936W        W68409  35.108  25.507  10.906
99937W        W68410  17.752  34.531  12.480
99938W        W68411  26.988  37.388  11.553
99939W        W68412  31.083  11.173   2.811
99940W        W68413  21.212  37.899   0.270
99941W        W68414  33.510  25.962   2.800
99942W        W68415   2.446  28.944   1.785
99943W        W68416   5.235  41.826   0.916
99944W        W68417  21.709  21.580  13.883
99945W        W68418  43.396  26.965   0.873
99946W        W68419   0.940   9.879   1.337
99947W        W68420  18.284  44.942  13.862
99948W        W68421  30.619  10.178   4.287
99949W        W68422   8.747  27.066   3.738
99950W        W68423   0.248  37.542   0.768
99951W        W68424   5.402  13.630   0.846
99952W        W68425  22.670   9.385  11.550
99953W        W68426   1.327  37.401   3.645
99954W        W68427  23.591  14.661   3.719
99955W        W68428  32.976  11.621  11.907
99956W        W68429  27.151  28.125   3.867
99957W        W68430  11.716  21.179  13.431
99958W        W68431  29.523   4.370   3.298
99959W        W68432  39.019  41.510  14.392
99960W        W68433   2.372  42.339  12.043
99961W        W68434  31.130   2.401   1.821
99962W        W68435  20.760  13.301  11.526
99963W        W68436   0.965   0.891  14.511
99964W        W68437  35.363  32.969  12.067
99965W        W68438  26.609  19.261  12.527
99966W        W68439   6.228   0.445  13.866
99967W        W68440  20.642  21.060  10.480
99968W        W68441  30.143   9.766   1.746
99969W        W68442  36.469  41.456  10.115
99970W        W68443  37.023  38.061   2.336
99971W        W68444  44.868  23.692   3.780
99972W        W68445  42.880  39.555  12.953
99973W        W68446  27.512  43.976  11.031
99974W        W68447  20.653  29.097  14.875
99975W        W68448  29.605  40.498   4.126
99976W        W68449  26.071  40.483  10.435
99977W        W68450  17.648   5.204   2.275
99978W        W68451  28.678   0.817   2.701
99979W        W68452  42.379  21.259  11.869
99980W        W68453  40.903  26.082   2.258
99981W        W68454  15.767   7.271   2.377
99982W        W68455  14.338  31.088  11.888
99983W        W68456  30.500  31.548   4.343
99984W        W68457  44.504   1.872  14.475
99985W        W68458  21.641  17.724   1.374
99986W        W68459  31.631  39.531   0.342
99987W        W68460  21.030   4.779  11.487
99988W        W68461  11.186  22.538  13.999
99989W        W68462  32.022  17.674   1.311
99990W        W68463  21.604   8.170   3.350
99991W        W68464  42.943  16.591   2.812
99992W        W68465  28.523  14.694  12.048
99993W        W68466  19.746  13.681  10.575
99994W        W68467  35.392  16.678  12.549
99995W        W68468  21.152  30.437  14.440
99996W        W68469  21.634   9.788   0.302
99997W        W68470  42.323  14.247  11.570
99998W        W68471   2.805  42.318  14.913
99999W        W68472  21.560  26.193   4.158
    0W        W68473  17.613  28.982   2.667
    1W        W68474   2.403  27.537   1.761
    2W        W68475   9.254   0.249  14.799
    3W        W68476  10.816  35.424   4.162
    4W        W68477  43.945  32.972   3.856
    5W        W68478  20.567   2.284  13.308
    6W        W68479  40.958   1.398  14.923
    7W        W68480  26.477  32.566  12.007
    8W        W68481  13.603  30.048   2.269
    9W        W68482  18.775   3.741  11.093
   10W        W68483   5.879   2.930  10.955
   11W        W68484   2.354   4.794   4.682
   12W        W68485  37.477  11.285   3.292
   13W        W68486  17.706  36.842   3.334
   14W        W68487  44.882  13.269  11.868
   15W        W68488  37.403   5.783   4.619
   16W        W68489   7.392  38.398  14.911
   17W        W68490   6.910   6.809  12.930
   18W        W68491  23.605   2.909  11.607
   19W        W68492  22.121  22.515   4.282
   20W        W68493  30.013  35.987   4.827
   21W        W68494  31.545  29.585  13.887
   22W        W68495  34.035  12.132   4.185
   23W        W68496  35.590  40.321   4.619
   24W        W68497  34.913  17.155   1.243
   25W        W68498  12.804  17.258   4.745
   26W        W68499  44.856  32.895  12.443
   27W        W68500  35.011  22.080  11.385
   28W        W68501  13.777  16.279   4.221
   29W        W68502   8.399   7.806  12.884
   30W        W68503   6.822  36.581   2.335
   31W        W68504  24.664  43.783  12.580
   32W        W68505  13.174  32.913  11.919
   33W        W68506  15.638  18.737   1.358
   34W        W68507  32.424  14.832   3.764
   35W        W68508  11.828  32.948   4.825
   36W        W68509   0.906  34.066  10.459
   37W        W68510   5.387  14.742  13.962
   38W        W68511  18.115  35.425   2.701
   39W        W68512   7.857  18.236   2.752
   40W        W68513   9.862  43.839   1.878
   41W        W68514  23.497  17.753   2.865
   42W        W68515  25.180  27.149   4.694
   43W        W68516  17.778   6.267  14.806
   44W        W68517  11.156  20.210   4.244
   45W        W68518  23.047  24.976  10.405
   46W        W68519  22.219  21.099  14.987
   47W        W68520   2.915  25.073  10.517
   48W        W68521  40.336  29.984  11.377
   49W        W68522  21.021   3.335   5.195
   50W        W68523   0.845  43.434  12.409
   51W        W68524  35.429  18.627  13.538
   52W        W68525  31.636  21.110   0.917
   53W        W68526  38.385  38.066   0.440
   54W        W68527  39.315  16.309   1.818
   55W        W68528  42.817  24.667   0.372
   56W        W68529  24.089  26.617   1.843
   57W        W68530  36.926  34.933   3.336
   58W        W68531  36.589   8.699  11.409
   59W        W68532  36.434  16.213  11.426
   60W        W68533  32.471  27.665  11.027
   61W        W68534   7.269   4.712   1.710
   62W        W68535  33.022  33.079  13.027
   63W        W68536  35.018  44.355   1.891
   64W        W68537   3.837  13.843  10.424
   65W        W68538  40.873  27.489   0.859
   66W        W68539  19.039  13.714   1.818
   67W        W68540  43.961   8.819   4.113
   68W        W68541   6.236   5.822   0.822
   69W        W68542  12.162  14.661   0.929
   70W        W68543  33.914  20.185   3.753
   71W        W68544   4.920   7.366   1.416
   72W        W68545  43.942   9.653   2.314
   73W        W68546  19.193   2.771   1.923
   74W        W68547  11.707   8.343  14.988
   75W        W68548  26.563  39.374   2.851
   76W        W68549   5.247  30.948  11.420
   77W        W68550  27.498   4.394   2.307
   78W        W68551  31.078  14.293  14.880
   79W        W68552   0.396  35.024   2.362
   80W        W68553   8.299  32.058   3.855
   81W        W68554  23.101  26.600   2.843
   82W        W68555  12.132   6.727   4.687
   83W        W68556   7.217  24.657  10.096
   84W        W68557  31.530  36.884   3.695
   85W        W68558  12.839  10.741  14.353
   86W        W68559  28.648  40.019   3.646
   87W        W68560  40.012  40.453  12.473
   88W        W68561  39.553  30.638  13.934
   89W        W68562   1.407  20.123   4.666
   90W        W68563  29.155  18.134   4.727
   91W        W68564  44.825   0.319   1.896
   92W        W68565  22.038  26.208   4.230
   93W        W68566   9.719  17.291  13.792
   94W        W68567   6.322  37.428   0.414
   95W        W68568  43.980  30.535  12.462
   96W        W68569  16.279  23.013  14.784
   97W        W68570  20.271   3.762  14.948
   98W        W68571  31.999  43.966  12.968
   99W        W68572  39.889  27.612  12.053
  100W        W68573  15.127  41.818   2.718
  101W        W68574  31.088  26.473   0.850
  102W        W68575  44.328   3.880  12.539
  103W        W68576  26.685  12.774  10.526
  104W        W68577  12.700  13.738   4.314
  105W        W68578  17.637  27.503  11.885
  106W        W68579  16.084  27.025   0.309
  107W        W68580   1.754  18.675  14.829
  108W        W68581  35.496  18.201  10.550
  109W        W68582  16.589  28.180   0.734
  110W        W68583  29.091  31.969  14.423
  111W        W68584   6.773  28.577  14.502
  112W        W68585   4.769  29.961  12.475
  113W        W68586  29.105  23.730  13.487
  114W        W68587  28.138  24.534  11.924
  115W        W68588  43.938  23.530   1.445
  116W        W68589  26.528  20.156   4.620
  117W        W68590  13.154  16.813  13.313
  118W        W68591  39.969   7.354   4.129
  119W        W68592   5.826  35.992   3.270
  120W        W68593  22.120  35.362  12.367
  121W        W68594  16.668   9.302   0.462
  122W        W68595  20.273  42.318   3.355
  123W        W68596  17.112  22.190  12.491
  124W        W68597   5.872  33.511  10.484
  125W        W68598  25.593  20.204  13.842
  126W        W68599  14.609  41.512  11.573
  127W        W68600  11.179  29.650  14.317
  128W        W68601  11.844   4.378   2.389
  129W        W68602   0.754   8.869  13.804
  130W        W68603   5.765  16.259   9.668
  131W        W68604  16.778  10.644  11.598
  132W        W68605   8.671  36.083   0.796
  133W        W68606  16.167  17.626   0.473
  134W        W68607  43.404  43.303   2.718
  135W        W68608  24.483  17.074   0.858
  136W        W68609  26.021  23.501  13.022
  137W        W68610  43.849  18.550   1.252
  138W        W68611  43.447  42.931  13.343
  139W        W68612   7.814   3.723  13.454
  140W        W68613  21.186  33.602  13.501
  141W        W68614  44.489  42.798  12.039
  142W        W68615  23.511  25.203   2.179
  143W        W68616  22.531  37.570  11.533
  144W        W68617  36.397  40.972   2.822
  145W        W68618  15.766  40.445   0.274
  146W        W68619  15.596   8.660  13.450
  147W        W68620  14.174  38.438   4.251
  148W        W68621  20.587  41.380   2.751
  149W        W68622   4.787   6.393  13.954
  150W        W68623   2.738  36.876  11.863
  151W        W68624  11.741  33.581   0.739
  152W        W68625   8.204  10.727   0.283
  153W        W68626  35.489   5.756   0.243
  154W        W68627   8.654  17.103   1.854
  155W        W68628  20.651  12.281   2.331
  156W        W68629  19.141  22.216   0.754
  157W        W68630  18.595  36.568   3.155
  158W        W68631   9.163  38.847   1.808
  159W        W68632   9.812  22.235   2.862
  160W        W68633  36.425   3.422  11.987
  161W        W68634   7.234  35.512  14.494
  162W        W68635  26.032  43.273   9.444
  163W        W68636  38.906  10.326   1.714
  164W        W68637  23.736  27.564   1.775
  165W        W68638  25.650  20.667   0.753
  166W        W68639  14.163  11.141   2.272
  167W        W68640  11.640  34.564  12.459
  168W        W68641  22.181   7.767  11.392
  169W        W68642   6.334  21.047  10.575
  170W        W68643   8.748  29.980  10.409
  171W        W68644  42.794  21.126   0.322
  172W        W68645  27.950   1.462   4.149
  173W        W68646  31.096  34.864   1.930
  174W        W68647  13.780   7.364   0.324
  175W        W68648  26.095  38.413   3.657
  176W        W68649  38.389  36.935  13.538
  177W        W68650  29.564  37.049  14.372
  178W        W68651  37.050  26.125   4.341
  179W        W68652  12.274   1.840  12.398
  180W        W68653   8.390  20.557   2.303
  181W        W68654  25.998  28.610   4.624
  182W        W68655  34.482  42.888  13.837
  183W        W68656   7.194   4.808  13.027
  184W        W68657  35.413  11.218   4.190
  185W        W68658  27.645   0.755   0.841
  186W        W68659   1.451  39.875  10.613
  187W        W68660  12.811  41.505   2.853
  188W        W68661  15.609  32.094  13.337
  189W        W68662  32.084  21.625  13.318
  190W        W68663   4.896  14.246   4.813
  191W        W68664  33.023   6.225   3.213
  192W        W68665  44.479  26.678   1.390
  193W        W68666  39.424   8.667   1.433
  194W        W68667   7.787  41.348   3.802
  195W        W68668  32.616  39.330   1.396
  196W        W68669   5.311  36.060  14.804
  197W        W68670  30.486  36.001   1.734
  198W        W68671   1.921   8.309   0.832
  199W        W68672  15.584   3.709  14.780
  200W        W68673  28.579  36.384  10.625
  201W        W68674   9.882  35.915  10.068
  202W        W68675   2.966   6.396  10.637
  203W        W68676   5.846  37.937   1.233
  204W        W68677  37.426  36.420   4.159
  205W        W68678   6.741  40.009   0.246
  206W        W68679  34.449  30.518   2.767
  207W        W68680  12.129  13.241  13.990
  208W        W68681  36.072  34.868   0.909
  209W        W68682   7.303   2.245   0.862
  210W        W68683  33.881  41.494   0.405
  211W        W68684  23.126  27.590  13.835
  212W        W68685  28.510  29.454  14.310
  213W        W68686  24.607   6.198   2.743
  214W        W68687  40.884  29.144  14.995
  215W        W68688  14.766   6.290   3.277
  216W        W68689   1.416  29.925  13.974
  217W        W68690   9.652  19.184   3.655
  218W        W68691  27.196   1.252   5.105
  219W        W68692   2.806  26.600   1.719
  220W        W68693   7.719  24.700  12.021
  221W        W68694   2.399  23.221   2.325
  222W        W68695  32.478  11.280  13.545
  223W        W68696   2.769  31.120   3.831
  224W        W68697  12.789  18.691   1.356
  225W        W68698  22.575  38.550  10.549
  226W        W68699  11.776  31.603   1.422
  227W        W68700  33.387  44.796  13.885
  228W        W68701  24.986  21.063   4.642
  229W        W68702  11.228   4.917   4.819
  230W        W68703  31.970  37.075   1.233
  231W        W68704   6.902  36.064   2.839
  232W        W68705  12.656   8.303  13.482
  233W        W68706  11.622  11.629  12.534
  234W        W68707  23.197   9.685   2.294
  235W        W68708   1.465   7.732   2.251
  236W        W68709  14.620  38.034   1.884
  237W        W68710  38.525  36.513  13.361
  238W        W68711  32.098  26.990   0.279
  239W        W68712   2.234  37.459   4.208
  240W        W68713   1.389   3.387   1.827
  241W        W68714  22.210   0.971  10.974
  242W        W68715  17.122  24.100  13.878
  243W        W68716  36.905   7.229  12.932
  244W        W68717  17.158   6.277  12.044
  245W        W68718   0.415  25.681  14.945
  246W        W68719   0.270  29.028   3.629
  247W        W68720  28.532  38.949  14.015
  248W        W68721   6.250  12.323  10.410
  249W        W68722  27.059  23.058   4.669
  250W        W68723   6.766   5.313   2.834
  251W        W68724  35.552  44.793   1.432
  252W        W68725  23.665  43.426  12.513
  253W        W68726  12.611   1.359  12.921
  254W        W68727  12.700   9.276  13.022
  255W        W68728  15.606  22.718   1.866
  256W        W68729  32.082   8.331  13.006
  257W        W68730  32.552  16.198   1.791
  258W        W68731  23.629  40.348  12.493
  259W        W68732  21.567  27.075  13.347
  260W        W68733  13.127  34.956   0.356
  261W        W68734  19.260   0.266   0.425
  262W        W68735  33.080   6.763   1.809
  263W        W68736  33.074   0.796  11.520
  264W        W68737  29.060   0.425   4.192
  265W        W68738  18.773   8.305  12.419
  266W        W68739  31.029   2.231   3.358
  267W        W68740  26.479  17.086   3.211
  268W        W68741  41.015  23.037  12.387
  269W        W68742   1.805  33.503   3.352
  270W        W68743  13.649  35.499   1.768
  271W        W68744  16.768   7.899  10.616
  272W        W68745   5.717   0.263   4.664
  273W        W68746  18.211   5.394  13.797
  274W        W68747  18.183   6.872   2.416
  275W        W68748  27.532  41.437   0.297
  276W        W68749   9.169  23.503  12.367
  277W        W68750  36.497   5.908  11.968
  278W        W68751  32.429   3.390   4.253
  279W        W68752  34.510  42.845   4.244
  280W        W68753  10.858  31.984  10.433
  281W        W68754   9.316  14.820   0.336
  282W        W68755  35.021  34.544  14.780
  283W        W68756   4.342  44.974  12.484
  284W        W68757   8.870   0.966  10.515
  285W        W68758  10.160   3.892   5.112
  286W        W68759   4.747  35.089   2.901
  287W        W68760  30.449  42.861   5.242
  288W        W68761  35.570  26.064   2.380
  289W        W68762  25.156   2.821  14.436
  290W        W68763  16.295  23.695  14.926
  291W        W68764   5.424  28.518   2.189
  292W        W68765   9.889  16.273   3.686
  293W        W68766  18.221  10.768   2.216
  294W        W68767  19.093  24.585  14.337
  295W        W68768  42.964  21.098   4.728
  296W        W68769   1.372  29.438   3.176
  297W        W68770  32.469  26.171   1.881
  298W        W68771  19.747  43.892   2.664
  299W        W68772  44.922  37.903   0.890
  300W        W68773  26.496   6.892   0.276
  301W        W68774  19.587  31.920  14.316
  302W        W68775   9.781  21.135  14.995
  303W        W68776  34.995  27.645  12.488
  304W        W68777  33.615  11.844   2.720
  305W        W68778  34.049   9.804  10.985
  306W        W68779  40.506  35.522   1.219
  307W        W68780   6.846   2.280   3.801
  308W        W68781  22.148  22.583  11.005
  309W        W68782   5.773  44.784  13.848
  310W        W68783  23.540   7.358  10.441
  311W        W68784  32.580  40.470  12.984
  312W        W68785  36.578  43.870  10.482
  313W        W68786  21.167   6.295  12.952
  314W        W68787  24.563  31.581   3.669
  315W        W68788  15.174  44.805   2.893
  316W        W68789  38.395  37.005  11.915
  317W        W68790   9.673   9.320   4.636
  318W        W68791  35.552  25.591  14.965
  319W        W68792   2.364  10.278  12.475
  320W        W68793  39.830  31.587  12.426
  321W        W68794  40.487   5.438   4.793
  322W        W68795  28.561  39.994  13.053
  323W        W68796  43.316  32.969  10.572
  324W        W68797   0.312  15.602   4.599
  325W        W68798  16.085  32.119   4.267
  326W        W68799   3.782  35.562  12.479
  327W        W68800  31.120   0.296  10.946
  328W        W68801  29.167   1.251  13.309
  329W        W68802   4.864  43.971  12.926
  330W        W68803  28.607  14.664  12.429
  331W        W68804  15.695  44.910  12.924
  332W        W68805  41.295  36.436  11.053
  333W        W68806   8.269  40.878  12.401
  334W        W68807  27.462  27.141   4.309
  335W        W68808   4.826   6.743   0.252
  336W        W68809  13.649  25.210   4.598
  337W        W68810  27.572  28.468  14.966
  338W        W68811  23.497  21.073  14.306
  339W        W68812  34.589  26.206  10.432
  340W        W68813  39.061  32.551   0.444
  341W        W68814  13.670   1.865  14.444
  342W        W68815   4.847   9.662  11.885
  343W        W68816   7.182  30.013  14.950
  344W        W68817  40.322  24.090   0.454
  345W        W68818  41.825  26.074   4.195
  346W        W68819  35.950   2.753  14.803
  347W        W68820  26.551  37.547  11.400
  348W        W68821   7.851  13.683   0.435
  349W        W68822  25.610   2.961   0.947
  350W        W68823  28.084  19.176   1.340
  351W        W68824  18.547  34.447   2.885
  352W        W68825   6.425  15.702  11.503
  353W        W68826  30.001  40.938  14.499
  354W        W68827  32.080  40.383   3.262
  355W        W68828  34.411  43.786   2.371
  356W        W68829  11.314  44.971   3.249
  357W        W68830  34.994  28.521   0.928
  358W        W68831  23.516  22.193  14.965
  359W        W68832   8.198   7.811   1.219
  360W        W68833  44.973  15.221   2.901
  361W        W68834  23.021  22.221   1.864
  362W        W68835  18.107  13.808   4.671
  363W        W68836  25.048  17.283   0.883
  364W        W68837  14.167  10.645   0.364
  365W        W68838  22.151  17.676   2.193
  366W        W68839  20.609  40.497  14.762
  367W        W68840  14.139  24.978  11.076
  368W        W68841  44.758  10.665   0.921
  369W        W68842   0.793  34.504  12.886
  370W        W68843  18.284  40.047   0.483
  371W        W68844  15.779  26.513  11.489
  372W        W68845   6.189   5.862   1.807
  373W        W68846  23.194   0.912   4.755
  374W        W68847  24.518   3.760  13.023
  375W        W68848   3.832  15.760  11.414
  376W        W68849  42.282   0.976  11.473
  377W        W68850  25.710  27.671  14.764
  378W        W68851  35.019  18.761  12.968
  379W        W68852  34.391  17.236   1.278
  380W        W68853   7.717  35.922  14.450
  381W        W68854  36.884  31.060   3.702
  382W        W68855  44.380  26.576   3.177
  383W        W68856  42.834   0.256  14.859
  384W        W68857   6.231   7.810   2.225
  385W        W68858   9.646  35.567   1.300
  386W        W68859  27.674  35.960   1.431
  387W        W68860  20.108  30.598  11.987
  388W        W68861  11.133   6.775   4.715
  389W        W68862  41.872  24.984  13.944
  390W        W68863  17.201  27.449   4.215
  391W        W68864  34.894  40.430  13.955
  392W        W68865  39.373  42.362   4.717
  393W        W68866   4.851  37.832   2.379
  394W        W68867   8.725  37.064   1.335
  395W        W68868  29.080  16.794   1.882
  396W        W68869   5.337   4.889   4.632
  397W        W68870   1.929  40.455   1.789
  398W        W68871  32.095  10.820  12.465
  399W        W68872   6.388   2.900   1.822
  400W        W68873   2.950   3.387  12.422
  401W        W68874  39.831  10.175  11.997
  402W        W68875  29.612   2.754  12.504
  403W        W68876  39.895  24.647  13.339
  404W        W68877   8.800  44.434   1.881
  405W        W68878  12.121  40.368   4.295
  406W        W68879  12.124  25.197   1.350
  407W        W68880  19.050  33.410  11.464
  408W        W68881  35.911   9.716  12.567
  409W        W68882   3.775  24.128   3.642
  410W        W68883  28.582  38.527   2.383
  411W        W68884  18.195  19.701   4.228
  412W        W68885  17.644  26.968  10.643
  413W        W68886   1.914  27.109   3.826
  414W        W68887  11.769  23.735   1.310
  415W        W68888   7.772  18.098  13.917
  416W        W68889  20.761  14.190   4.280
  417W        W68890  17.220  43.797   2.695
  418W        W68891  10.293   5.315   2.703
  419W        W68892   1.315  11.247  11.527
  420W        W68893   0.866  26.557  13.528
  421W        W68894  11.130  42.818  12.522
  422W        W68895  17.677  18.613  10.605
  423W        W68896  39.345  25.695  12.065
  424W        W68897  15.725   6.919   2.751
  425W        W68898  34.103  31.104  13.485
  426W        W68899  25.045  40.383  12.935
  427W        W68900   0.299  14.197  11.381
  428W        W68901  22.509  26.504  10.008
  429W        W68902  19.210  11.163   1.910
  430W        W68903  36.561  31.498   4.215
  431W        W68904  19.559  35.909  11.117
  432W        W68905  15.119  37.442  13.358
  433W        W68906  35.872  40.511  12.349
  434W        W68907   7.872  26.660  10.545
  435W        W68908  44.985   8.245  11.468
  436W        W68909   6.213  13.258  14.913
  437W        W68910  12.230   6.919  12.521
  438W        W68911  33.473   5.434  12.966
  439W        W68912  13.820  18.093  13.423
  440W        W68913  17.591  25.150  13.335
  441W        W68914  38.996   9.661  14.291
  442W        W68915   5.856  17.696  14.449
  443W        W68916  42.788  11.312   0.350
  444W        W68917  19.611  34.090   0.328
  445W        W68918   8.675   9.375  11.485
  446W        W68919  28.031  29.174   3.289
  447W        W68920   2.864  24.022  10.634
  448W        W68921  30.121  13.324   3.371
  449W        W68922  10.201  36.927  13.329
  450W        W68923  37.035  42.331   3.379
  451W        W68924  33.542  41.886  13.862
  452W        W68925  43.332  36.008   0.438
  453W        W68926   8.669  41.500   0.832
  454W        W68927  31.435  11.635  13.346
  455W        W68928  40.977  37.358  14.351
  456W        W68929  25.000   0.319  11.517
  457W        W68930  42.965  12.350   4.172
  458W        W68931  29.547  35.896  10.088
  459W        W68932   1.972  37.558   4.793
  460W        W68933  44.464   5.385  11.114
  461W        W68934   1.358  16.806   2.822
  462W        W68935  36.400   5.299   1.924
  463W        W68936  15.218  29.602   3.334
  464W        W68937  28.642  35.494  10.599
  465W        W68938   5.289  24.607  11.884
  466W        W68939  10.209   2.266  11.397
  467W        W68940  10.189   4.438  12.866
  468W        W68941  29.604  40.364  13.351
  469W        W68942  38.348  19.233   3.836
  470W        W68943  10.166  24.607  11.515
  471W        W68944   0.423  12.339  12.536
  472W        W68945  37.896  39.996  10.020
  473W        W68946  13.793  13.264   2.274
  474W        W68947   1.272  25.987   1.870
  475W        W68948   1.744  18.723  13.810
  476W        W68949   6.355   2.747  14.349
  477W        W68950  18.739  14.688  12.419
  478W        W68951   9.717  15.258  14.927
  479W        W68952  32.591  22.249   3.266
  480W        W68953  19.087  32.626   1.386
  481W        W68954  28.161  35.876   3.383
  482W        W68955  39.358  15.177  12.001
  483W        W68956  34.453  40.547  14.794
  484W        W68957   4.382  10.334   4.643
  485W        W68958   5.405   9.841   0.829
  486W        W68959   3.837  23.036   1.758
  487W        W68960   9.285  31.952  12.404
  488W        W68961  21.660  14.663  13.538
  489W        W68962  13.274  16.611  14.512
  490W        W68963  28.047  42.502  14.329
  491W        W68964  27.184  21.715  14.930
  492W        W68965   0.788  21.252   0.253
  493W        W68966   6.727  27.462  13.539
  494W        W68967   5.193  12.358   0.402
  495W        W68968  37.032  30.908  13.407
  496W        W68969  26.677  11.348  11.412
  497W        W68970  28.124  24.983   1.806
  498W        W68971  20.682   6.356  14.405
  499W        W68972  29.437   9.244   2.739
  500W        W68973  27.487  18.222  12.950
  501W        W68974   8.798  18.594   2.774
  502W        W68975  14.763   1.763   3.236
  503W        W68976  35.858  40.465   2.699
  504W        W68977  44.375  31.111  12.896
  505W        W68978  13.839  21.679   4.145
  506W        W68979   7.785  37.376  13.023
  507W        W68980  38.990  20.211   3.283
  508W        W68981  26.467  26.653   2.396
  509W        W68982  26.631   2.271  14.975
  510W        W68983   0.371  41.369  11.400
  511W        W68984  35.511   8.316  10.968
  512W        W68985  39.389  38.012  14.285
  513W        W68986  33.480  10.320  10.409
  514W        W68987  36.483  37.050   2.275
  515W        W68988   7.889  39.928  12.363
  516W        W68989  17.794  29.053  13.405
  517W        W68990  34.465  40.384  10.490
  518W        W68991  23.729  36.849   2.725
  519W        W68992  29.117  30.934   0.764
  520W        W68993  30.555  15.272  11.857
  521W        W68994  12.626   3.840   2.816
  522W        W68995  43.920  38.491   2.792
  523W        W68996   0.797   1.764   4.213
  524W        W68997  17.620  21.111   4.616
  525W        W68998   9.353  27.470   0.416
  526W        W68999  31.136  24.086  14.363
  527W        W69000  40.394  26.150   3.856
  528W        W69001  34.383  37.417  11.396
  529W        W69002  30.968  31.104   2.820
  530W        W69003   4.244  14.237   4.630
  531W        W69004  28.582  15.581   4.291
  532W        W69005  25.184  18.169  12.067
  533W        W69006  33.483  16.277  14.275
  534W        W69007  26.575  43.919   1.866
  535W        W69008  41.876   9.720   0.343
  536W        W69009   1.475  36.470  13.372
  537W        W69010  29.547  16.600   0.390
  538W        W69011  15.746  38.559   1.909
  539W        W69012  21.533  33.520  11.436
  540W        W69013  24.019  25.143   2.686
  541W        W69014   4.730  32.525  13.957
  542W        W69015  16.160  31.046   2.673
  543W        W69016  33.056  13.207  13.322
  544W        W69017  10.822  25.606   4.751
  545W        W69018  13.125  40.436   4.803
  546W        W69019   3.249   7.769   0.251
  547W        W69020  29.513  34.501  10.974
  548W        W69021  21.017  15.220   0.908
  549W        W69022  35.096  19.615  11.611
  550W        W69023  19.215  12.715   2.855
  551W        W69024  17.781  22.602  14.477
  552W        W69025  18.281   3.844  10.956
  553W        W69026  33.125   8.700  14.326
  554W        W69027  43.851  25.682   3.833
  555W        W69028  43.361  21.257   3.668
  556W        W69029  21.140  14.835  10.952
  557W        W69030  32.592  12.611   2.773
  558W        W69031   8.878   4.855   2.816
  559W        W69032  15.719  22.662   2.262
  560W        W69033   4.798  19.256  11.414
  561W        W69034   2.931  35.538  11.524
  562W        W69035  42.502   6.741  13.327
  563W        W69036  36.517  23.020   0.756
  564W        W69037  27.632  44.840  14.972
  565W        W69038  20.264  31.990   3.833
  566W        W69039  27.658  18.591   0.408
  567W        W69040  36.852   7.725  12.064
  568W        W69041  29.029  16.657  11.053
  569W        W69042  28.186  23.055  12.578
  570W        W69043   0.819  21.618  11.889
  571W        W69044  31.065  44.279   2.822
  572W        W69045  30.042  40.869  12.350
  573W        W69046  34.577  14.601   1.302
  574W        W69047   2.761  35.070   3.687
  575W        W69048  14.194  20.558  13.418
  576W        W69049  23.127   3.402  13.322
  577W        W69050  41.519  41.376   3.204
  578W        W69051  24.140  42.523   1.719
  579W        W69052   4.375  14.278  13.435
  580W        W69053  27.053  19.111   2.756
  581W        W69054   3.903  25.187   4.262
  582W        W69055  29.989   7.909  12.999
  583W        W69056  34.899  36.493  11.897
  584W        W69057  31.020  25.673   0.294
  585W        W69058  12.611  32.047  12.457
  586W        W69059  25.976   0.328  10.519
  587W        W69060   9.324   3.745  12.482
  588W        W69061  23.076  33.393  13.407
  589W        W69062  42.423  13.615   1.433
  590W        W69063  28.495  30.624   4.792
  591W        W69064  35.482  30.577  12.840
  592W        W69065   0.313  19.218  10.464
  593W        W69066  29.436  34.953   1.799
  594W        W69067  35.532  33.970   2.186
  595W        W69068  35.000   8.897  12.850
  596W        W69069   6.901  30.993   0.473
  597W        W69070  25.592  35.386   4.219
  598W        W69071  34.046  26.968   2.346
  599W        W69072  30.586  22.057   2.228
  600W        W69073  24.104  41.496  12.401
  601W        W69074  40.446  38.911   0.754
  602W        W69075  29.616   4.363   0.285
  603W        W69076  39.362  42.029   1.758
  604W        W69077  42.786  41.361   4.158
  605W        W69078  32.939  32.621  11.871
  606W        W69079  32.898  41.000   0.836
  607W        W69080  18.702  25.000  11.013
  608W        W69081  42.974   4.412  12.422
  609W        W69082   3.808   9.150  13.374
  610W        W69083  32.104  29.644   4.817
  611W        W69084  28.136  29.493  14.971
  612W        W69085  15.282  24.992   3.159
  613W        W69086  22.515   1.448  11.863
  614W        W69087   8.345  42.519  12.459
  615W        W69088  24.641  15.170   4.302
  616W        W69089  28.622  34.018   3.637
  617W        W69090  31.570  34.374  13.894
  618W        W69091  16.305  26.472   1.697
  619W        W69092  17.765  20.128  14.496
  620W        W69093   0.350  23.095  12.527
  621W        W69094  31.422   2.277  14.877
  622W        W69095   5.868  15.293   1.253
  623W        W69096   7.760  28.510  12.895
  624W        W69097  28.015  31.914   1.254
  625W        W69098  20.638  33.101   4.770
  626W        W69099  20.638  31.121   2.814
  627W        W69100  25.706  18.158   0.760
  628W        W69101  20.752   2.394  11.020
  629W        W69102   4.295  32.009   3.219
  630W        W69103  11.653  17.249   1.858
  631W        W69104  31.021  11.801   2.847
  632W        W69105  31.907   9.184  11.900
  633W        W69106   0.791  23.681   2.278
  634W        W69107  16.206  38.447   4.749
  635W        W69108   4.945   8.686  10.433
  636W        W69109  30.449  20.692   0.298
  637W        W69110  40.012  37.948   0.831
  638W        W69111  25.614   8.760  12.986
  639W        W69112  17.194   7.328  12.997
  640W        W69113  15.149   8.304   3.702
  641W        W69114  34.875   9.888   1.725
  642W        W69115  34.012   6.183  13.502
  643W        W69116  31.516   7.788  13.865
  644W        W69117  16.266   4.791   0.479
  645W        W69118   5.298  38.571   3.358
  646W        W69119   3.370  20.078   0.938
  647W        W69120  23.655  28.551   0.822
  648W        W69121  23.003  36.531   4.220
  649W        W69122  24.073  29.624   1.707
  650W        W69123   3.745  37.517   3.252
  651W        W69124  15.084  41.874   1.846
  652W        W69125  14.607   6.798  12.853
  653W        W69126  32.073   4.249  14.476
  654W        W69127   1.814   2.428   4.293
  655W        W69128  21.689  21.635   2.229
  656W        W69129  32.130  14.261  12.533
  657W        W69130  42.993  15.120   2.291
  658W        W69131  40.834  17.687  13.441
  659W        W69132  32.951  37.418   0.404
  660W        W69133   2.279  23.017   1.221
  661W        W69134  40.979  17.712   0.855
  662W        W69135  37.960  32.467   3.706
  663W        W69136   0.291  10.159   3.248
  664W        W69137  17.674  32.523  10.419
  665W        W69138  29.170  41.326  10.984
  666W        W69139   2.953  40.443   3.188
  667W        W69140  14.121   1.765  12.843
  668W        W69141   2.855  30.045  13.333
  669W        W69142  18.608  35.105   4.695
  670W        W69143  25.138  31.468   3.154
  671W        W69144  40.470  31.091  10.591
  672W        W69145  18.782  18.558  10.553
  673W        W69146  44.966  39.407   3.362
  674W        W69147  11.671   8.656  12.400
  675W        W69148   2.860  39.486   4.760
  676W        W69149  16.689  41.916   0.359
  677W        W69150  28.677  21.126   3.260
  678W        W69151  35.993  34.606   0.746
  679W        W69152   4.810  20.129  12.477
  680W        W69153  39.348  23.623   2.847
  681W        W69154  22.550  25.002   3.846
  682W        W69155  17.282  40.320  10.411
  683W        W69156  20.726  12.843   4.211
  684W        W69157  16.765  35.519   2.722
  685W        W69158  35.874  10.646  10.932
  686W        W69159  18.262   0.918  14.761
  687W        W69160  15.701  12.119   1.290
  688W        W69161  26.500  43.366   2.864
  689W        W69162  22.541  36.916   1.801
  690W        W69163  19.578   7.417   1.935
  691W        W69164   0.447  21.586  10.904
  692W        W69165   7.308  12.116   1.440
  693W        W69166  35.086   0.821  10.038
  694W        W69167   8.685   8.267   4.738
  695W        W69168  20.613  44.387  10.542
  696W        W69169  26.471  23.069   3.348
  697W        W69170  16.205  13.709   3.374
  698W        W69171  11.355   1.807   0.844
  699W        W69172  19.090  43.941   0.862
  700W        W69173  44.472  20.231   2.403
  701W        W69174  27.072  22.514  12.473
  702W        W69175   8.797  28.128   4.235
  703W        W69176  26.030  18.093   2.709
  704W        W69177   7.884  14.262  10.999
  705W        W69178   0.861  22.022   1.726
  706W        W69179   9.231  24.978   1.928
  707W        W69180   3.753  11.220  13.989
  708W        W69181  42.417  11.196   2.742
  709W        W69182   4.388  15.134   1.325
  710W        W69183  16.279   5.854   1.226
  711W        W69184  18.603  21.049  13.497
  712W        W69185   0.421  39.457   0.811
  713W        W69186   8.656  16.570  12.922
  714W        W69187  15.144  27.562   0.325
  715W        W69188  16.212   9.325  13.441
  716W        W69189  20.205  21.210   4.166
  717W        W69190  16.088  30.947  11.525
  718W        W69191  40.963  36.541  13.514
  719W        W69192   7.295  17.559   3.789
  720W        W69193  34.436  44.310   0.750
  721W        W69194  11.733  26.639  13.345
  722W        W69195   1.432  38.972   0.815
  723W        W69196   6.740   7.373  11.097
  724W        W69197  36.563  35.882  13.947
  725W        W69198  28.139  25.971  14.961
  726W        W69199   3.234  25.969  13.986
  727W        W69200  20.680  31.011  13.517
  728W        W69201  10.371  12.776   2.301
  729W        W69202  13.804  33.971  12.471
  730W        W69203  30.570  43.369  11.405
  731W        W69204  29.515  14.112  14.777
  732W        W69205  14.709  43.311  14.810
  733W        W69206  25.534  43.291   4.811
  734W        W69207  39.979  41.425  13.929
  735W        W69208  31.482  28.472  11.412
  736W        W69209  43.487  20.657   2.779
  737W        W69210   0.482   1.794   3.734
  738W        W69211   9.390  41.519   3.843
  739W        W69212   7.827   6.915   3.689
  740W        W69213  40.365  29.934   0.250
  741W        W69214  16.298  27.148  10.499
  742W        W69215  21.212  13.221   0.464
  743W        W69216  43.823   1.308   4.625
  744W        W69217  27.013  27.596   2.752
  745W        W69218  15.680  39.542  14.433
  746W        W69219  43.927   3.803  12.519
  747W        W69220   4.862  15.111   1.307
  748W        W69221   4.716  28.120  13.913
  749W        W69222  26.515  40.033   1.422
  750W        W69223  32.952  13.348   2.392
  751W        W69224   8.704  25.489   1.211
  752W        W69225   3.228  39.513   2.403
  753W        W69226   2.313   2.288  13.973
  754W        W69227  29.945  43.403   2.333
  755W        W69228  39.812  25.160  12.415
  756W        W69229  16.277  43.343  10.558
  757W        W69230   9.850   1.268  13.408
  758W        W69231  37.959   5.373   4.649
  759W        W69232  25.515  33.459  12.924
  760W        W69233  18.271  42.444  12.359
  761W        W69234  22.096   5.317  13.385
  762W        W69235  39.834  14.196  11.935
  763W        W69236   2.865  16.659  11.104
  764W        W69237  37.001  27.112   0.327
  765W        W69238   7.369   4.436  13.932
  766W        W69239   8.198  10.351   3.245
  767W        W69240   1.789   4.239  13.501
  768W        W69241  38.552  30.912  10.513
  769W        W69242  15.814  12.167   0.750
  770W        W69243  18.193  37.052   1.247
  771W        W69244  17.694  31.071   3.245
  772W        W69245  10.163  13.172   4.805
  773W        W69246  30.060   0.936  10.412
  774W        W69247  34.034   4.832   1.733
  775W        W69248   3.236  41.406   1.781
  776W        W69249  37.393  36.025  14.486
  777W        W69250  24.978  42.931   1.224
  778W        W69251  23.585  15.118  10.090
  779W        W69252  37.521   8.187   3.744
  780W        W69253  24.202  32.470  14.295
  781W        W69254  13.212   5.215  14.861
  782W        W69255  16.715  24.120  12.076
  783W        W69256  36.534  28.664   3.328
  784W        W69257  28.438   3.227  11.598
  785W        W69258  39.848   4.381  13.471
  786W        W69259   9.241  32.559   4.739
  787W        W69260  43.967  21.525   3.299
  788W        W69261   5.698  12.691  11.416
  789W        W69262  36.954  41.881   1.251
  790W        W69263  13.168  29.546  10.425
  791W        W69264  16.078   3.228  12.372
  792W        W69265   8.268  25.678   5.194
  793W        W69266  35.945  12.139  11.988
  794W        W69267  15.671   0.894   0.314
  795W        W69268  12.288  20.664  14.457
  796W        W69269  20.209  19.751  14.953
  797W        W69270   1.305  31.484   2.365
  798W        W69271  10.293   6.260  14.435
  799W        W69272  16.677  24.111  13.802
  800W        W69273  41.875  14.721  10.892
  801W        W69274  39.808  12.130   2.273
  802W        W69275  21.546  27.165  12.415
  803W        W69276  10.200  17.125   5.312
  804W        W69277  32.620   7.256  14.947
  805W        W69278   5.306  26.478   4.249
  806W        W69279  41.909  32.439   0.845
  807W        W69280  37.399  15.212   4.143
  808W        W69281   4.391  30.101   1.789
  809W        W69282  44.327  12.306  11.970
  810W        W69283  28.136  25.987   4.296
  811W        W69284  26.586  10.159   0.937
  812W        W69285  36.432  26.584   1.250
  813W        W69286  42.777  32.488   0.449
  814W        W69287  26.517  15.100  10.568
  815W        W69288  36.448  42.926  14.899
  816W        W69289  24.100   3.297   1.298
  817W        W69290  32.098  15.598  11.088
  818W        W69291  42.971   1.828  14.790
  819W        W69292  15.135   5.211   3.750
  820W        W69293  40.469  25.149  12.368
  821W        W69294  31.450  12.176  13.507
  822W        W69295  39.828  10.873   2.352
  823W        W69296  31.008  41.846   0.939
  824W        W69297   7.336   7.416   2.359
  825W        W69298   4.767   3.805   0.823
  826W        W69299  39.816  33.511  11.108
  827W        W69300  33.616  21.744   1.364
  828W        W69301  44.395  26.978   2.794
  829W        W69302  30.611  22.058   1.277
  830W        W69303   9.288   1.893   4.352
  831W        W69304  34.872   2.456   4.320
  832W        W69305  25.611  39.847  13.947
  833W        W69306  40.890  20.729   4.734
  834W        W69307  27.481  37.474   0.435
  835W        W69308  28.657  32.040  12.341
  836W        W69309  30.036  32.435   1.215
  837W        W69310  21.250  38.835   0.786
  838W        W69311  18.114  10.687   3.829
  839W        W69312  43.342  38.846   0.959
  840W        W69313  17.222  22.211  10.936
  841W        W69314  36.486  44.439   0.422
  842W        W69315   7.241  14.774   0.316
  843W        W69316  37.403   7.818  11.976
  844W        W69317  29.004   4.290   1.280
  845W        W69318  28.107   5.262  11.033
  846W        W69319  30.626  32.616   3.808
  847W        W69320  19.171  36.591  11.498
  848W        W69321  36.457  35.569  14.478
  849W        W69322  35.959  16.198   2.281
  850W        W69323  24.615  33.015  12.520
  851W        W69324  39.005  20.599  12.565
  852W        W69325   2.946  23.631   4.691
  853W        W69326  28.991  22.219  11.380
  854W        W69327  13.681   2.422   2.813
  855W        W69328  29.939   5.801   2.212
  856W        W69329  15.173  30.980   4.237
  857W        W69330  22.033   3.293  11.947
  858W        W69331   4.268  17.198   0.809
  859W        W69332  43.864   7.814   3.386
  860W        W69333  13.133   5.720  10.113
  861W        W69334  22.073  33.492   0.283
  862W        W69335  39.918  39.975  13.917
  863W        W69336   5.316  35.855  14.285
  864W        W69337  18.605   4.780  11.867
  865W        W69338  14.235  36.036   2.688
  866W        W69339   6.807  18.283   0.383
  867W        W69340  14.167  14.628  11.525
  868W        W69341  28.480  36.443  11.003
  869W        W69342  14.117  44.784   4.298
  870W        W69343  14.766  23.022   1.807
  871W        W69344  27.049   3.745   4.313
  872W        W69345  37.354   0.928  10.609
  873W        W69346  29.437  44.266  12.986
  874W        W69347  31.972  13.129  10.561
  875W        W69348  16.586  42.017  12.036
  876W        W69349   8.392  41.421  14.786
  877W        W69350  13.155  36.980   1.258
  878W        W69351  34.041   7.171  11.974
  879W        W69352  44.934  11.157   2.798
  880W        W69353  17.629   3.722  12.994
  881W        W69354  26.182  31.025   1.849
  882W        W69355   6.239  30.469  14.296
  883W        W69356  14.144  42.325   0.246
  884W        W69357  22.233  27.054   3.767
  885W        W69358  43.509  32.459   0.449
  886W        W69359  36.398  31.907  11.030
  887W        W69360  25.139   1.856   3.854
  888W        W69361  41.498  40.885  10.481
  889W        W69362  39.553  43.380   3.333
  890W        W69363  26.653   7.308  12.961
  891W        W69364  22.007   9.221  13.460
  892W        W69365  12.662  10.323  13.016
  893W        W69366  10.682  33.620   2.734
  894W        W69367  34.553  14.291  14.498
  895W        W69368  26.651  37.876   0.369
  896W        W69369  30.909  43.921   0.905
  897W        W69370   8.763  16.721  10.611
  898W        W69371  40.337  32.123  10.013
  899W        W69372   5.211  39.855   1.696
  900W        W69373  22.043   1.295   4.351
  901W        W69374  36.523   9.688   3.729
  902W        W69375  34.054  16.146  10.490
  903W        W69376   4.278  19.183   1.718
  904W        W69377  33.576  37.570   9.928
  905W        W69378  30.643   6.360   0.834
  906W        W69379  41.486  40.309  11.574
  907W        W69380  37.003  13.667   4.350
  908W        W69381  40.975   8.846   4.816
  909W        W69382   4.262  43.399  13.888
  910W        W69383  42.350  31.603  14.014
  911W        W69384  22.166  40.429   1.846
  912W        W69385  19.707   1.402   1.725
  913W        W69386  43.772  24.975   2.789
  914W        W69387   5.699  38.073   1.837
  915W        W69388  12.688   6.735  12.877
  916W        W69389  43.276  37.883  12.078
  917W        W69390  12.298   9.174  14.933
  918W        W69391  33.601  42.948   3.637
  919W        W69392  21.587  11.860   3.313
  920W        W69393  40.366  22.111  10.924
  921W        W69394  24.090  25.063  14.423
  922W        W69395  22.668   9.863  13.814
  923W        W69396  33.501  10.184   5.263
  924W        W69397  38.458  26.197   1.230
  925W        W69398  37.534  26.088  13.900
  926W        W69399   7.837   7.748  12.988
  927W        W69400  25.497  19.143   4.229
  928W        W69401  18.761  39.386   0.835
  929W        W69402   0.968  29.101  13.449
  930W        W69403  37.965  40.470  13.405
  931W        W69404  33.601  12.204  13.358
  932W        W69405  21.169  20.240  12.882
  933W        W69406   0.337  43.292  14.383
  934W        W69407  23.197  38.865   2.191
  935W        W69408   2.733  16.250   3.808
  936W        W69409  17.170  14.776  11.003
  937W        W69410  37.349  23.496   0.741
  938W        W69411  15.584   1.452   0.317
  939W        W69412  42.312  28.529  12.498
  940W        W69413  28.098  43.801   2.177
  941W        W69414  24.211  17.777   2.880
  942W        W69415  12.298  19.197   4.220
  943W        W69416  25.581  19.763   4.119
  944W        W69417  21.141  33.483  10.891
  945W        W69418  19.633   6.310   1.822
  946W        W69419   7.347  18.692   3.780
  947W        W69420  15.618  39.335  10.520
  948W        W69421  44.360  31.074  13.818
  949W        W69422  44.900  11.838  13.315
  950W        W69423  28.150  27.450   0.878
  951W        W69424   9.195  22.132  10.071
  952W        W69425  36.079  41.868   3.685
  953W        W69426  23.496   2.295   4.354
  954W        W69427  22.033  35.915   1.405
  955W        W69428   4.231  32.913   2.359
  956W        W69429  18.690  35.398  11.012
  957W        W69430  31.959  16.135  11.971
  958W        W69431  41.401  16.128   1.743
  959W        W69432  23.026   0.448  13.311
  960W        W69433   3.430  11.822  12.471
  961W        W69434  28.561  43.830  11.072
  962W        W69435  36.463  33.912  14.970
  963W        W69436  33.912  18.182   0.321
  964W        W69437   1.803   8.666   4.830
  965W        W69438  27.014  42.891   1.838
  966W        W69439  38.922  17.237  12.947
  967W        W69440   9.181  30.570  14.774
  968W        W69441  14.339  28.521   0.751
  969W        W69442  30.155  38.010   2.296
  970W        W69443  42.867  37.493   2.777
  971W        W69444  15.634  18.279  12.874
  972W        W69445  40.029  37.060  11.084
  973W        W69446  28.152   2.250  13.794
  974W        W69447  42.819  22.677   4.753
  975W        W69448  35.951  27.605  10.546
  976W        W69449   9.846  22.721   2.903
  977W        W69450  17.568   4.924   4.238
  978W        W69451   3.920  36.545  14.987
  979W        W69452  27.950  29.062   4.344
  980W        W69453  14.139  34.880   3.301
  981W        W69454   0.341  31.508  12.865
  982W        W69455   9.817  38.958  13.475
  983W        W69456  24.222  39.052  10.521
  984W        W69457  24.052  42.833  13.028
  985W        W69458  26.987   3.776   3.785
  986W        W69459  12.753  23.152  13.547
  987W        W69460   4.938  39.964  10.640
  988W        W69461   1.269  22.506   1.796
  989W        W69462  19.125  15.603  11.527
  990W        W69463   8.306  12.224   4.207
  991W        W69464  35.564  33.054   0.932
  992W        W69465  21.669  27.501  14.760
  993W        W69466  25.122  34.872  12.004
  994W        W69467  23.019  14.660  11.403
  995W        W69468  36.962  38.979   2.287
  996W        W69469   0.896  13.747   2.775
  997W        W69470  44.301  16.751   3.281
  998W        W69471  40.937  32.556  12.847
  999W        W69472  27.574  20.094   1.896
 1000W        W69473  23.561  35.593   2.346
 1001W        W69474  18.159  44.412  10.558
 1002W        W69475   9.696  37.379   3.290
 1003W        W69476  31.988  20.685   0.946
 1004W        W69477  27.625  44.386  11.510
 1005W        W69478  18.616  41.913  11.920
 1006W        W69479  31.976  43.849   3.145
 1007W        W69480  28.485  35.602   1.710
 1008W        W69481  17.568  34.070  12.520
 1009W        W69482  25.131  32.490  10.559
 1010W        W69483  43.290  34.881   3.726
 1011W        W69484  21.226  16.259   4.334
 1012W        W69485  23.733  14.709  12.370
 1013W        W69486  32.412   1.328   2.894
 1014W        W69487  13.775  41.453  10.894
 1015W        W69488  16.162  41.851   2.713
 1016W        W69489  33.976  10.831   2.740
 1017W        W69490  18.154  29.995  13.486
 1018W        W69491  28.616  30.486   2.307
 1019W        W69492  20.613   2.916   4.309
 1020W        W69493   2.816   0.976   3.352
 1021W        W69494  17.233  20.203   4.821
 1022W        W69495  10.200  10.186   3.192
 1023W        W69496  15.664   7.898   5.151
 1024W        W69497  40.914  34.506  10.591
 1025W        W69498  27.976   0.296   2.186
 1026W        W69499   9.318   2.345  10.577
 1027W        W69500  43.018  28.176   4.738
 1028W        W69501  42.300  34.878   3.224
 1029W        W69502  26.480  27.580   0.312
 1030W        W69503  18.645  20.741  12.541
 1031W        W69504  41.860  44.366   0.963
 1032W        W69505  19.563   5.244   0.920
 1033W        W69506  27.052  15.816   1.218
 1034W        W69507  33.990  17.122   0.891
 1035W        W69508  29.073  40.039  13.356
 1036W        W69509  21.706  11.728   1.221
 1037W        W69510  42.852  18.606   0.333
 1038W        W69511  30.912  23.715   2.257
 1039W        W69512  24.562   8.694   0.841
 1040W        W69513  34.917  31.030  14.790
 1041W        W69514  38.467  28.012  11.523
 1042W        W69515   7.902  24.993   3.225
 1043W        W69516  42.944  10.366  13.032
 1044W        W69517  40.426   9.393   1.925
 1045W        W69518  29.983  43.313  13.965
 1046W        W69519   6.323  44.821  11.081
 1047W        W69520  41.306  29.021   4.697
 1048W        W69521   5.734  21.616   3.841
 1049W        W69522  44.803  11.216   3.831
 1050W        W69523  21.222  28.948   1.739
 1051W        W69524   0.424  21.742  12.996
 1052W        W69525   5.217   8.809   4.778
 1053W        W69526  39.862  37.424  11.466
 1054W        W69527  10.138  33.554   0.777
 1055W        W69528  27.691  40.856  11.564
 1056W        W69529  24.594   5.815  14.500
 1057W        W69530  18.706  42.492  11.523
 1058W        W69531  10.161  41.855  11.911
 1059W        W69532   6.255  20.697   2.856
 1060W        W69533  17.708  18.273   1.828
 1061W        W69534  13.186  35.525   3.862
 1062W        W69535  40.357  17.785  14.949
 1063W        W69536   1.867  23.036   2.389
 1064W        W69537  42.392  33.993   2.679
 1065W        W69538  26.563  18.183   1.300
 1066W        W69539  10.345  44.440   0.324
 1067W        W69540  38.029   2.909   0.269
 1068W        W69541  22.012   0.803  12.918
 1069W        W69542  22.736   1.941   0.880
 1070W        W69543   2.374  18.050   4.687
 1071W        W69544  20.090  21.121  10.928
 1072W        W69545  11.271  16.675   3.217
 1073W        W69546  27.969  43.380   1.273
 1074W        W69547  12.666  27.966   1.385
 1075W        W69548  34.942  27.543  13.012
 1076W        W69549  11.171   7.818   0.433
 1077W        W69550  44.882  21.698  11.013
 1078W        W69551  39.510  27.596   0.438
 1079W        W69552  10.380  29.574   3.316
 1080W        W69553  29.467  11.285   1.337
 1081W        W69554   6.765   7.363   9.983
 1082W        W69555  37.451  38.543   2.797
 1083W        W69556  17.668  24.076  13.816
 1084W        W69557  20.539   4.273   0.960
 1085W        W69558  29.939   7.696  13.515
 1086W        W69559  20.572   8.721   3.634
 1087W        W69560  16.729  17.643   2.869
 1088W        W69561  12.612   8.843  12.005
 1089W        W69562  24.117  15.119  12.085
 1090W        W69563  26.022  19.669   3.268
 1091W        W69564  26.690  25.574   0.373
 1092W        W69565  27.607  33.986  10.565
 1093W        W69566  36.948  12.195  10.602
 1094W        W69567  39.832   7.376  12.398
 1095W        W69568  18.689  10.641   2.308
 1096W        W69569  10.687  19.743  12.039
 1097W        W69570  19.669  15.599   1.323
 1098W        W69571   1.901  35.998  14.443
 1099W        W69572  11.300  39.361   3.146
 1100W        W69573   6.754  38.555  11.110
 1101W        W69574  12.723  11.140  13.918
 1102W        W69575  32.113  28.032  13.310
 1103W        W69576  26.508  32.628   4.142
 1104W        W69577  27.464  38.408   1.896
 1105W        W69578  41.878  25.218  12.949
 1106W        W69579   2.826  24.222  14.976
 1107W        W69580  36.088  16.736   2.385
 1108W        W69581   6.346   9.774   0.482
 1109W        W69582  14.829  21.144   4.835
 1110W        W69583  32.971  36.938   1.381
 1111W        W69584  36.924  32.128   4.246
 1112W        W69585   6.819  25.561   4.201
 1113W        W69586  22.742  39.461   3.303
 1114W        W69587  21.084  29.513  14.859
 1115W        W69588  37.916   3.882   3.760
 1116W        W69589  32.537  30.128   4.276
 1117W        W69590  27.051  25.709  10.987
 1118W        W69591  14.287  34.038  12.941
 1119W        W69592  22.109  31.004  13.005
 1120W        W69593  21.065  43.371   3.191
 1121W        W69594  20.725  19.660   4.605
 1122W        W69595  24.554  10.339   3.837
 1123W        W69596  12.312  32.404  10.446
 1124W        W69597  25.513  38.367  10.964
 1125W        W69598  35.500   6.808   3.781
 1126W        W69599  36.957  16.301  13.469
 1127W        W69600  19.641  12.797  12.865
 1128W        W69601  12.648   1.263   0.913
 1129W        W69602  44.929  11.801  12.850
 1130W        W69603  10.269  42.889   0.798
 1131W        W69604   8.700  20.664   0.285
 1132W        W69605  43.297  40.007   2.331
 1133W        W69606   2.751  35.055  14.980
 1134W        W69607  11.816  29.009   3.151
 1135W        W69608  17.561  19.112   1.778
 1136W        W69609   6.251  43.890   1.230
 1137W        W69610  38.332   8.798   0.773
 1138W        W69611  38.939  12.803  13.382
 1139W        W69612  37.526   5.354  10.931
 1140W        W69613   7.304  29.480   0.761
 1141W        W69614  31.918  22.626  14.760
 1142W        W69615  17.569  14.206   1.846
 1143W        W69616  40.476  24.195  13.315
 1144W        W69617  38.445   9.815   0.360
 1145W        W69618  20.215   4.757  10.066
 1146W        W69619  40.852  19.776  10.538
 1147W        W69620  23.109  25.478   3.275
 1148W        W69621   5.384   9.650   1.785
 1149W        W69622  35.455  31.452  10.910
 1150W        W69623  32.592   0.941   2.701
 1151W        W69624   5.199   3.227  10.935
 1152W        W69625  30.529   5.731   1.892
 1153W        W69626  12.218  39.491   4.201
 1154W        W69627  18.673  39.856   4.174
 1155W        W69628  30.962  22.011   0.954
 1156W        W69629  18.688  19.198  13.362
 1157W        W69630  42.351  15.655   1.375
 1158W        W69631  43.801   1.789   0.738
 1159W        W69632  27.977  35.574   1.929
 1160W        W69633  15.784  34.558   4.808
 1161W        W69634   3.883  38.998  13.826
 1162W        W69635  39.368  33.474  13.796
 1163W        W69636  16.713  32.078  11.547
 1164W        W69637   4.447  12.353   3.633
 1165W        W69638  16.785   7.902  13.370
 1166W        W69639  22.573  37.895   4.777
 1167W        W69640  37.413  43.422   2.199
 1168W        W69641  39.368  27.623   2.375
 1169W        W69642  28.168  34.036  14.765
 1170W        W69643  23.554  13.773   1.438
 1171W        W69644  14.712  25.643  12.049
 1172W        W69645  14.163  20.191  11.936
 1173W        W69646  42.950  44.931   1.346
 1174W        W69647  12.667  43.893   4.290
 1175W        W69648  41.037   4.789  14.001
 1176W        W69649  15.771  23.150  13.408
 1177W        W69650  42.810   1.762  12.846
 1178W        W69651  18.722  26.672  11.458
 1179W        W69652  22.594  30.996   2.261
 1180W        W69653  19.065  13.236   1.900
 1181W        W69654  23.045  24.201  12.366
 1182W        W69655  31.644  34.881   1.935
 1183W        W69656  27.600   4.813   0.880
 1184W        W69657  34.963  12.178   1.746
 1185W        W69658  35.901  13.213  11.918
 1186W        W69659   6.330  32.572   2.334
 1187W        W69660  31.105   1.902  10.036
 1188W        W69661   8.160  16.265  12.836
 1189W        W69662  32.413  37.051  10.592
 1190W        W69663  14.170  16.596  11.042
 1191W        W69664  44.319  17.062  10.423
 1192W        W69665  30.122  13.697   0.411
 1193W        W69666  23.101  16.196  13.429
 1194W        W69667  24.182  23.714   0.744
 1195W        W69668  15.807  30.946  14.411
 1196W        W69669  11.274  16.099   1.892
 1197W        W69670   0.913  15.109   3.313
 1198W        W69671  23.578   8.229   4.613
 1199W        W69672   9.783  25.697   9.637
 1200W        W69673   4.421   1.436  12.410
 1201W        W69674  12.827  25.541   1.728
 1202W        W69675  40.524   2.440   4.642
 1203W        W69676   1.777   3.270  10.595
 1204W        W69677  29.533   6.321  10.936
 1205W        W69678  43.447  16.649   3.309
 1206W        W69679  34.592   8.176  11.373
 1207W        W69680  20.738   7.185  13.872
 1208W        W69681  10.361  31.423  12.461
 1209W        W69682   6.878   3.405  10.034
 1210W        W69683   0.299   7.395  14.495
 1211W        W69684  18.236   4.294   0.928
 1212W        W69685   6.910  27.679   2.387
 1213W        W69686   5.910  14.762  12.580
 1214W        W69687  34.468  31.008   4.187
 1215W        W69688  11.783  32.536   2.676
 1216W        W69689  36.039   0.984  13.901
 1217W        W69690  39.023  16.727  12.902
 1218W        W69691  36.523  26.110   2.390
 1219W        W69692  22.235  37.368  11.865
 1220W        W69693  19.045  42.982  14.371
 1221W        W69694  15.749   9.269  14.969
 1222W        W69695   6.868  41.466   3.238
 1223W        W69696  35.604  25.543  14.491
 1224W        W69697  26.508   4.865  13.060
 1225W        W69698   8.221  38.541  11.905
 1226W        W69699  11.245  37.535  14.813
 1227W        W69700  26.661   5.239   4.295
 1228W        W69701  38.531  23.667   2.902
 1229W        W69702  27.580  13.705  10.953
 1230W        W69703   6.360  40.391  10.977
 1231W        W69704  36.593  19.102   4.642
 1232W        W69705   7.304  12.748   2.412
 1233W        W69706   0.878  35.460  12.445
 1234W        W69707  24.720  42.355  13.330
 1235W        W69708   3.870   9.878  14.841
 1236W        W69709   3.942  37.964   2.388
 1237W        W69710  11.627   9.666   0.899
 1238W        W69711   2.447  38.835   4.824
 1239W        W69712  23.114  27.099   3.223
 1240W        W69713  12.796  37.841   0.480
 1241W        W69714  17.648  14.296  11.865
 1242W        W69715  42.348  11.851  13.441
 1243W        W69716   0.982   9.813  13.918
 1244W        W69717  37.921   0.403   2.843
 1245W        W69718   5.287  28.521  11.015
 1246W        W69719  41.862   8.392  13.439
 1247W        W69720  37.560  16.752   3.823
 1248W        W69721  30.072  34.001   2.672
 1249W        W69722   1.850   0.321   2.364
 1250W        W69723  32.487  39.811   2.179
 1251W        W69724  38.515  39.008  14.783
 1252W        W69725   5.329  24.591  12.367
 1253W        W69726  33.983   5.934   4.309
 1254W        W69727   0.352   2.936   0.472
 1255W        W69728  40.900  33.482  10.939
 1256W        W69729  13.155   2.828   0.932
 1257W        W69730  23.031  33.460   4.258
 1258W        W69731  17.655  16.744   0.851
 1259W        W69732  33.976  20.103  10.504
 1260W        W69733  14.709  39.930   1.814
 1261W        W69734  22.053   1.941   0.831
 1262W        W69735  17.627   9.807   2.368
 1263W        W69736  22.114  31.024   0.902
 1264W        W69737   8.263  38.968  11.012
 1265W        W69738  11.799  34.577   2.782
 1266W        W69739  10.268  15.599  12.052
 1267W        W69740  30.004  40.475  12.364
 1268W        W69741   4.822  33.926   2.242
 1269W        W69742  13.670  29.587   3.734
 1270W        W69743  34.408  26.078   4.165
 1271W        W69744  12.119   6.804   2.890
 1272W        W69745  20.580   6.748  11.887
 1273W        W69746  22.539  22.629   3.724
 1274W        W69747  22.098  11.701  14.942
 1275W        W69748  29.553  23.514  13.393
 1276W        W69749  22.567  26.466  13.412
 1277W        W69750  38.906  12.633  10.430
 1278W        W69751  23.087  11.161  13.882
 1279W        W69752  29.557  35.871  14.857
 1280W        W69753   9.282  17.793  10.528
 1281W        W69754   4.853  30.510  12.379
 1282W        W69755  43.514  16.235   2.305
 1283W        W69756  15.262   4.399  11.858
 1284W        W69757   5.906  14.229   1.238
 1285W        W69758  13.141  30.630   1.314
 1286W        W69759   3.847  16.290   0.404
 1287W        W69760  31.127  12.257   3.711
 1288W        W69761  10.728  22.083   4.148
 1289W        W69762  29.015   8.885  13.487
 1290W        W69763  35.073  31.613   3.850
 1291W        W69764  25.698  20.667  13.031
 1292W        W69765  29.545  12.772   3.683
 1293W        W69766  28.651  19.264  11.891
 1294W        W69767   2.242  14.223  11.117
 1295W        W69768   9.234   0.436   0.426
 1296W        W69769  12.322   9.309  13.966
 1297W        W69770   0.391   6.258  11.858
 1298W        W69771   9.841  13.737   4.767
 1299W        W69772  15.138  12.677   1.290
 1300W        W69773   6.298  25.089   2.700
 1301W        W69774  22.029  21.530  10.608
 1302W        W69775   0.382  36.457   1.417
 1303W        W69776  43.953  17.270   1.359
 1304W        W69777  37.492  42.494   1.809
 1305W        W69778  31.152  43.002   3.257
 1306W        W69779  13.645   2.316   0.306
 1307W        W69780  37.369  33.943  11.979
 1308W        W69781  44.274  23.494  14.982
 1309W        W69782  13.730  32.570  10.893
 1310W        W69783  21.227   7.378   4.754
 1311W        W69784  28.588  17.799   2.872
 1312W        W69785  25.162  38.571  10.936
 1313W        W69786   0.285  36.394   0.844
 1314W        W69787   3.798  28.557   1.892
 1315W        W69788   2.758  28.179  12.449
 1316W        W69789   9.187  25.155  12.083
 1317W        W69790  35.473   0.833  11.957
 1318W        W69791  34.411  40.423  13.355
 1319W        W69792  21.721   7.347   3.291
 1320W        W69793  25.089  13.310  10.555
 1321W        W69794  33.947  15.150   4.169
 1322W        W69795  22.240  27.040   0.821
 1323W        W69796  32.416  30.955  14.276
 1324W        W69797  18.591  30.086  10.896
 1325W        W69798  29.919  33.122  10.596
 1326W        W69799   1.966  42.469   1.344
 1327W        W69800  15.202   3.279   2.768
 1328W        W69801   9.742   2.881  13.828
 1329W        W69802  17.110  37.047  13.430
 1330W        W69803  29.557   3.431   2.301
 1331W        W69804   2.469  11.691   2.773
 1332W        W69805  39.492  15.774   4.321
 1333W        W69806   2.744  16.233   0.811
 1334W        W69807  25.219  25.506   4.136
 1335W        W69808  28.001  10.314  12.908
 1336W        W69809   7.274  23.506   1.893
 1337W        W69810  21.652  43.972  11.387
 1338W        W69811  37.439  16.579   0.894
 1339W        W69812   3.894  34.554   3.206
 1340W        W69813  33.518  39.356   2.818
 1341W        W69814  23.128  37.864  14.890
 1342W        W69815  10.372  23.589   3.676
 1343W        W69816  14.230  19.768  10.555
 1344W        W69817  29.647  27.458   0.835
 1345W        W69818  31.483   5.424   3.165
 1346W        W69819  43.425   3.931  11.054
 1347W        W69820  42.027  10.348   0.431
 1348W        W69821   4.816  19.167  13.978
 1349W        W69822  21.164   2.299   2.773
 1350W        W69823   1.466  29.174   0.254
 1351W        W69824  27.658   8.342   3.231
 1352W        W69825  40.437  13.661   4.644
 1353W        W69826  16.750  20.538  14.412
 1354W        W69827   5.831   5.368  10.592
 1355W        W69828  41.494   6.741  11.609
 1356W        W69829  13.272   0.435  10.049
 1357W        W69830  33.989  20.167   4.132
 1358W        W69831  30.509  26.993   2.681
 1359W        W69832  16.186  44.484   0.262
 1360W        W69833   2.447  16.693   0.878
 1361W        W69834  39.043  22.663  12.463
 1362W        W69835   6.680  33.501   2.304
 1363W        W69836  17.131  39.937  12.037
 1364W        W69837  26.193  38.325   2.856
 1365W        W69838  44.389  32.416   4.339
 1366W        W69839   2.734   4.842  11.515
 1367W        W69840  11.661  41.408  13.024
 1368W        W69841  40.509  32.489  14.857
 1369W        W69842  22.658  28.068   2.222
 1370W        W69843  28.076   8.392  12.977
 1371W        W69844  34.957  43.452  10.504
 1372W        W69845  13.773  10.271  13.868
 1373W        W69846   2.313  23.162   0.369
 1374W        W69847  15.227  20.039   2.695
 1375W        W69848   8.376  44.008  13.529
 1376W        W69849   0.344   1.323   1.862
 1377W        W69850  40.908   1.876  12.450
 1378W        W69851  38.411  29.652  11.095
 1379W        W69852  39.403  11.684  10.451
 1380W        W69853  35.539  11.163  14.996
 1381W        W69854  37.836   7.795  12.054
 1382W        W69855  36.930  34.396   4.632
 1383W        W69856  25.213  29.514   3.244
 1384W        W69857  31.435  36.375   1.291
 1385W        W69858  22.035  41.535  14.280
 1386W        W69859  28.584  29.433  12.968
 1387W        W69860  35.601  21.668   3.304
 1388W        W69861  11.358  21.519  10.628
 1389W        W69862  34.067   3.951  10.959
 1390W        W69863   5.242   7.280  13.810
 1391W        W69864  21.020   1.430   3.829
 1392W        W69865  27.138   5.714  12.895
 1393W        W69866   8.891  10.809   0.778
 1394W        W69867  17.302  20.072  10.942
 1395W        W69868  19.143  32.943   0.871
 1396W        W69869  21.134  25.637   3.279
 1397W        W69870  24.584  25.983   4.190
 1398W        W69871   8.287  43.290  13.015
 1399W        W69872  31.046  16.195   1.241
 1400W        W69873  41.307  22.008  13.840
 1401W        W69874  21.709  24.555  10.543
 1402W        W69875  23.581  42.945  13.547
 1403W        W69876   4.699   0.377  12.081
 1404W        W69877   0.826  13.247  10.581
 1405W        W69878  14.254  29.989   1.751
 1406W        W69879  44.872   1.348  12.975
 1407W        W69880  19.679  29.471   0.900
 1408W        W69881  38.963   1.926   1.854
 1409W        W69882  39.043  38.495   0.848
 1410W        W69883  22.184  39.376  10.984
 1411W        W69884  19.592  31.571  11.127
 1412W        W69885  20.768  20.580  10.405
 1413W        W69886  17.776  27.512   2.288
 1414W        W69887   9.262  33.882  13.984
 1415W        W69888  27.522  37.867   2.339
 1416W        W69889   9.276  22.570   4.772
 1417W        W69890  17.669   8.740  14.886
 1418W        W69891   8.840  42.352   0.300
 1419W        W69892   9.757  14.178   2.216
 1420W        W69893   6.918  24.078  14.438
 1421W        W69894  44.889  40.849   3.714
 1422W        W69895  26.031  21.109   1.272
 1423W        W69896  10.660   9.737   4.167
 1424W        W69897  28.081  13.295  14.352
 1425W        W69898  15.309  29.640  13.512
 1426W        W69899  10.290   1.856  10.051
 1427W        W69900   6.422   3.361  13.429
 1428W        W69901  41.499   8.365   4.752
 1429W        W69902  14.623   6.843  13.905
 1430W        W69903   8.179  12.153  14.344
 1431W        W69904  38.553   8.689  13.798
 1432W        W69905   7.692  29.657   2.897
 1433W        W69906  36.951  25.202  10.527
 1434W        W69907   3.276  24.087   5.132
 1435W        W69908   2.788   6.814   2.250
 1436W        W69909  30.937   1.974  12.075
 1437W        W69910  37.999  22.135   4.814
 1438W        W69911   1.371  33.430  14.319
 1439W        W69912  32.976   3.803  14.968
 1440W        W69913   0.792  21.543   1.885
 1441W        W69914   1.902  14.637   4.155
 1442W        W69915  28.633   2.721   4.622
 1443W        W69916  39.518  41.966  10.896
 1444W        W69917  18.750   2.728   0.375
 1445W        W69918  26.074  14.797   4.675
 1446W        W69919  23.219  13.739   2.710
 1447W        W69920   5.727  34.483   3.803
 1448W        W69921  18.106  40.976   0.728
 1449W        W69922  19.551   8.901   4.327
 1450W        W69923  35.480  10.285   0.395
 1451W        W69924  15.615  42.390  13.906
 1452W        W69925  19.562  20.178   4.184
 1453W        W69926  41.861  21.125  11.103
 1454W        W69927  43.419  16.753   0.462
 1455W        W69928  43.406   7.207   3.307
 1456W        W69929  42.394  24.542   1.856
 1457W        W69930  36.029  40.888  13.321
 1458W        W69931   8.208  17.597  12.361
 1459W        W69932  34.376  11.659  12.010
 1460W        W69933  43.486  41.897   1.418
 1461W        W69934  12.703  25.577   4.328
 1462W        W69935   1.893  11.769   1.896
 1463W        W69936  30.933  16.669   3.685
 1464W        W69937  13.716  10.348   3.769
 1465W        W69938  26.693  24.513  10.893
 1466W        W69939  23.173  18.148  14.468
 1467W        W69940   9.863  26.595  14.466
 1468W        W69941  14.239   0.912   4.667
 1469W        W69942  35.015  28.106  14.331
 1470W        W69943   1.467  11.740   4.626
 1471W        W69944   3.932  21.656  13.862
 1472W        W69945  20.576   5.771  10.952
 1473W        W69946  37.896  12.637  12.381
 1474W        W69947   7.861  36.536   3.258
 1475W        W69948   8.880  42.957   0.339
 1476W        W69949  24.016   8.881   2.737
 1477W        W69950  28.677  39.434  12.498
 1478W        W69951  30.938  25.614   2.821
 1479W        W69952   8.665  37.993   4.336
 1480W        W69953   3.858  19.725  11.127
 1481W        W69954  21.695  29.965  11.517
 1482W        W69955  43.974   9.257   2.218
 1483W        W69956  43.427  41.822   0.866
 1484W        W69957  42.509  31.533  11.491
 1485W        W69958  27.083   9.248   2.187
 1486W        W69959  31.529   5.439   4.313
 1487W        W69960  34.060   8.352   3.250
 1488W        W69961  13.718  43.388   3.836
 1489W        W69962  42.014   0.840  14.000
 1490W        W69963  40.039   0.810  11.118
 1491W        W69964  34.916  20.581   0.900
 1492W        W69965  18.562  34.464  11.941
 1493W        W69966  35.023   7.178  13.454
 1494W        W69967   9.365  43.947   0.327
 1495W        W69968  29.149   1.975  10.574
 1496W        W69969  31.908  34.517   3.858
 1497W        W69970  42.435  17.169  14.286
 1498W        W69971  44.807  21.249   0.419
 1499W        W69972  29.948  12.333   1.804
 1500W        W69973  41.344  33.053   3.354
 1501W        W69974  16.286  41.978   0.869
 1502W        W69975  32.895   9.177  10.588
 1503W        W69976  28.170  23.708  14.976
 1504W        W69977  22.555  30.490  10.523
 1505W        W69978   9.883  37.894   0.892
 1506W        W69979  16.136  41.927  11.035
 1507W        W69980  37.956   3.771   1.892
 1508W        W69981  23.489  38.911  11.460
 1509W        W69982  28.010   8.382  12.418
 1510W        W69983  43.978   6.404  10.453
 1511W        W69984  21.612  34.383   4.177
 1512W        W69985  31.104  29.424  11.556
 1513W        W69986  41.935   5.220  11.384
 1514W        W69987  25.075  41.496   4.803
 1515W        W69988  16.170  35.565  12.397
 1516W        W69989  33.546  20.573   4.210
 1517W        W69990  12.661  20.732   1.747
 1518W        W69991  42.025  10.183  10.537
 1519W        W69992  39.471  38.960   2.404
 1520W        W69993   7.760  20.220   2.762
 1521W        W69994  10.230   5.796  12.967
 1522W        W69995  22.674  32.626   2.399
 1523W        W69996  19.611  41.302   4.318
 1524W        W69997  25.625  11.288  10.113
 1525W        W69998   3.738  11.642   4.676
 1526W        W69999  44.314  30.422  13.517
 1527W        W70000  34.409   4.782  13.796
 1528W        W70001  18.290  42.951   4.692
 1529W        W70002   8.322  35.440  11.533
 1530W        W70003  41.826  33.002  14.388
 1531W        W70004  10.790   5.775   0.388
 1532W        W70005  31.448  16.663   0.408
 1533W        W70006  36.081   3.761  11.888
 1534W        W70007  37.897  15.239  13.841
 1535W        W70008  16.073  12.684  14.415
 1536W        W70009  24.080  36.983  13.512
 1537W        W70010  35.525  14.182  12.915
 1538W        W70011  22.237  41.465  10.470
 1539W        W70012  27.943  17.097   4.781
 1540W        W70013  27.957  25.153  11.966
 1541W        W70014   7.887  34.386  14.916
 1542W        W70015  33.605  13.728   4.233
 1543W        W70016  31.948   0.391  10.532
 1544W        W70017  19.213  16.090   2.820
 1545W        W70018   0.954  30.647  10.987
 1546W        W70019  29.581  24.580   3.363
 1547W        W70020  31.076   2.963  11.533
 1548W        W70021  26.622   0.279  10.018
 1549W        W70022   1.387  23.557   3.353
 1550W        W70023  38.823  43.861   2.340
 1551W        W70024  28.118  35.465  10.947
 1552W        W70025  44.975   9.155   4.727
 1553W        W70026  10.343   1.913  11.508
 1554W        W70027  32.048  20.732  11.890
 1555W        W70028  30.991  37.491   0.352
 1556W        W70029  12.856  33.511  14.412
 1557W        W70030  10.708   9.185  13.058
 1558W        W70031  21.701  20.689   1.869
 1559W        W70032  23.543  24.220  10.948
 1560W        W70033  22.113   7.171   4.131
 1561W        W70034  43.425  37.410   2.816
 1562W        W70035  36.520  22.679  12.939
 1563W        W70036  18.179   0.941  10.593
 1564W        W70037  36.438  27.176  13.006
 1565W        W70038   4.730  39.011  11.585
 1566W        W70039  33.086   4.358  13.958
 1567W        W70040  33.452  10.306  14.996
 1568W        W70041  44.437  44.354  10.954
 1569W        W70042  11.178  31.927   2.359
 1570W        W70043  14.249  22.563  12.423
 1571W        W70044  30.010  26.689  13.948
 1572W        W70045  15.265  11.803  13.464
 1573W        W70046  40.832  24.523  12.552
 1574W        W70047  18.082  31.543   2.780
 1575W        W70048  39.547   5.738  10.560
 1576W        W70049   3.897   8.306  11.010
 1577W        W70050   4.870  17.717  11.598
 1578W        W70051  11.675  13.215  12.361
 1579W        W70052   4.847  23.528  14.408
 1580W        W70053  24.609  22.624  12.352
 1581W        W70054  17.717  32.588   2.184
 1582W        W70055  37.437  43.349  14.987
 1583W        W70056   2.464   9.313   2.873
 1584W        W70057  11.205  24.132   3.652
 1585W        W70058  20.730   6.876   3.331
 1586W        W70059  23.221  42.511  11.548
 1587W        W70060  17.783  40.364  12.984
 1588W        W70061  18.297  19.639  14.287
 1589W        W70062  20.634   6.320   1.908
 1590W        W70063  41.042  16.157  12.517
 1591W        W70064  32.138  22.006  13.899
 1592W        W70065  37.540   7.253   0.278
 1593W        W70066  35.513   4.349  12.956
 1594W        W70067  24.170  13.164  13.860
 1595W        W70068  19.562   0.988  11.979
 1596W        W70069  24.572  41.496   1.819
 1597W        W70070   7.754  17.068  13.356
 1598W        W70071  43.305   8.862  14.420
 1599W        W70072  26.614   0.893   5.296
 1600W        W70073  17.228   2.280   0.365
 1601W        W70074  13.826  23.715   3.212
 1602W        W70075  10.142   7.874   1.360
 1603W        W70076  22.098  27.459   3.284
 1604W        W70077  35.047  35.402  11.881
 1605W        W70078   5.894  20.087  10.453
 1606W        W70079  34.038  26.649  13.928
 1607W        W70080  12.156  39.478   2.686
 1608W        W70081  36.387  16.610   1.212
 1609W        W70082  18.655  15.225   0.441
 1610W        W70083   8.711  44.791   1.730
 1611W        W70084  14.279   8.695   1.305
 1612W        W70085  23.139  23.019  13.024
 1613W        W70086  28.439  38.872  12.979
 1614W        W70087  39.929   6.274  11.972
 1615W        W70088  38.861  43.342   4.768
 1616W        W70089  29.076  40.832   4.307
 1617W        W70090  23.019  16.797   4.723
 1618W        W70091   8.732  15.759  10.461
 1619W        W70092  31.120  23.064   3.785
 1620W        W70093  41.514   6.683   0.815
 1621W        W70094   2.749  37.006  14.892
 1622W        W70095  33.993  17.234  10.909
 1623W        W70096  37.885  33.937   0.913
 1624W        W70097  43.430  20.588  14.982
 1625W        W70098  39.543  34.055  14.968
 1626W        W70099  14.810  25.196  14.304
 1627W        W70100   5.732   3.357   1.257
 1628W        W70101  13.121  19.150  14.376
 1629W        W70102  23.224  43.392  14.792
 1630W        W70103  19.556  43.270   0.902
 1631W        W70104   7.673   5.786   2.785
 1632W        W70105   3.887   7.904  10.562
 1633W        W70106   4.372  13.798   9.445
 1634W        W70107   0.825   6.287   4.218
 1635W        W70108  43.998   5.363  13.495
 1636W        W70109  23.068   1.425  11.907
 1637W        W70110   7.378  36.846  14.405
 1638W        W70111  30.143  33.501  14.400
 1639W        W70112  15.695   1.369  14.514
 1640W        W70113   3.776  16.278  10.404
 1641W        W70114   2.235  40.531  12.458
 1642W        W70115  44.831  28.551   1.840
 1643W        W70116  28.079  42.994  10.093
 1644W        W70117  21.746  24.989  10.069
 1645W        W70118   5.690  16.246   3.267
 1646W        W70119  40.473  18.055  11.065
 1647W        W70120  30.424   2.274   3.313
 1648W        W70121   3.909   7.229  13.479
 1649W        W70122  43.457  25.098  13.029
 1650W        W70123  21.652  34.097  10.940
 1651W        W70124  40.511  17.714  14.495
 1652W        W70125  24.077  38.492  11.578
 1653W        W70126   2.464  20.138   0.846
 1654W        W70127  30.007   4.308   4.201
 1655W        W70128   4.410  11.717  14.328
 1656W        W70129   6.271  42.459  13.040
 1657W        W70130   6.278  16.229  14.871
 1658W        W70131  41.823  27.071   1.823
 1659W        W70132   5.894  10.359   1.739
 1660W        W70133   5.410   0.814  13.352
 1661W        W70134   8.385   2.749   0.286
 1662W        W70135  36.508  15.722   0.955
 1663W        W70136   8.848  25.527  10.158
 1664W        W70137  14.678   8.791   1.751
 1665W        W70138  41.855   9.247  11.415
 1666W        W70139  33.025  40.914   0.357
 1667W        W70140  13.643  42.380  12.040
 1668W        W70141  19.618  30.991   4.745
 1669W        W70142  16.752  19.762  13.477
 1670W        W70143   7.399  14.102  13.795
 1671W        W70144   9.206   6.864  10.902
 1672W        W70145  40.030  38.334  13.339
 1673W        W70146  44.805  20.273   3.747
 1674W        W70147  11.837  30.521   5.171
 1675W        W70148  15.209  16.233   2.802
 1676W        W70149   7.253  34.467  12.924
 1677W        W70150  15.670  27.980  10.629
 1678W        W70151  20.080   7.909   1.906
 1679W        W70152  30.098  34.534  12.970
 1680W        W70153  34.906  33.979   0.446
 1681W        W70154   6.361  24.191  11.038
 1682W        W70155  13.750  25.658   4.757
 1683W        W70156   6.729  39.931  13.013
 1684W        W70157  37.424   3.800  14.276
 1685W        W70158  27.522   4.267  12.428
 1686W        W70159  15.702   0.305  11.898
 1687W        W70160  44.840  10.732  10.456
 1688W        W70161  13.733  22.165  11.410
 1689W        W70162  24.550  24.132  14.512
 1690W        W70163   5.733  12.289   0.738
 1691W        W70164  33.401  20.642  11.028
 1692W        W70165   3.303  29.065  10.558
 1693W        W70166  10.833  22.547  13.823
 1694W        W70167  40.904  15.113   0.766
 1695W        W70168  35.393  43.796   2.747
 1696W        W70169  30.557  27.509  12.531
 1697W        W70170  38.446  41.390  10.933
 1698W        W70171  19.628  12.674   0.731
 1699W        W70172  10.706  10.839   3.634
 1700W        W70173  24.033  32.961  14.291
 1701W        W70174  14.101  37.067   3.174
 1702W        W70175  14.271  38.070   1.855
 1703W        W70176  20.642  41.902   1.720
 1704W        W70177  12.334   1.329   0.312
 1705W        W70178  38.418   8.793  12.041
 1706W        W70179  44.499  22.119  12.840
 1707W        W70180  42.855  40.027   1.412
 1708W        W70181  31.447  21.105  10.938
 1709W        W70182  21.635  44.757   0.849
 1710W        W70183  35.425  18.566  13.898
 1711W        W70184  20.718  24.552   4.303
 1712W        W70185   9.272  43.988   3.742
 1713W        W70186  43.505  25.681   2.713
 1714W        W70187  42.909  20.272  11.107
 1715W        W70188   8.826  13.152   0.777
 1716W        W70189  21.154  12.231   3.154
 1717W        W70190  33.442   4.813  11.612
 1718W        W70191   8.335  10.843  10.981
 1719W        W70192   2.914  28.631  12.501
 1720W        W70193   0.894  26.194   3.284
 1721W        W70194  26.613  34.057   1.444
 1722W        W70195  11.129  41.005  12.028
 1723W        W70196   5.198  21.133   4.312
 1724W        W70197   4.247  35.098  11.473
 1725W        W70198  26.504  35.577   0.399
 1726W        W70199   6.713  15.283   4.707
 1727W        W70200  41.035  14.650   2.389
 1728W        W70201  18.679  26.959   1.215
 1729W        W70202  41.820  30.592  13.932
 1730W        W70203  10.655  44.476   3.668
 1731W        W70204   8.230  22.622  14.997
 1732W        W70205  13.209  28.984   4.734
 1733W        W70206  13.821  40.418  12.828
 1734W        W70207  10.766   2.249  12.400
 1735W        W70208  35.359  43.417   2.661
 1736W        W70209  33.534   4.881  13.061
 1737W        W70210  10.709  18.724   2.319
 1738W        W70211  27.487  33.047  12.356
 1739W        W70212  42.387   0.313   3.247
 1740W        W70213  40.824  11.323  12.449
 1741W        W70214  36.470  40.417  11.988
 1742W        W70215  12.193  40.323  14.293
 1743W        W70216   2.412   1.325  10.919
 1744W        W70217  36.379   6.815  10.548
 1745W        W70218  12.322  41.894  10.502
 1746W        W70219   2.312  28.501  12.475
 1747W        W70220  34.445  13.108   4.693
 1748W        W70221  27.024  14.151  14.494
 1749W        W70222  18.751  34.547  10.995
 1750W        W70223  40.470  42.437  10.617
 1751W        W70224  43.362  12.343  12.364
 1752W        W70225  19.082  11.829   4.125
 1753W        W70226  28.498  22.667  10.517
 1754W        W70227   5.728  42.323  11.438
 1755W        W70228   8.845   5.760   0.296
 1756W        W70229  35.598  40.320  10.641
 1757W        W70230  28.064  10.368   1.254
 1758W        W70231  30.658  21.143   0.737
 1759W        W70232  25.122   7.777   4.635
 1760W        W70233  36.038  10.334   2.301
 1761W        W70234  27.005   7.746  12.515
 1762W        W70235   9.772  35.583  13.843
 1763W        W70236   0.448  43.822   4.707
 1764W        W70237  13.652  33.444   1.382
 1765W        W70238  29.431  42.926  13.926
 1766W        W70239  37.457  15.716   0.473
 1767W        W70240   5.380  30.556   0.473
 1768W        W70241  41.432  24.688   4.627
 1769W        W70242  10.368   1.477   1.925
 1770W        W70243  20.271  12.188   4.273
 1771W        W70244  24.701   1.341   4.293
 1772W        W70245  19.186  33.879  11.458
 1773W        W70246  40.386  42.404   0.473
 1774W        W70247  23.043  14.202  11.488
 1775W        W70248  32.032   6.341  10.462
 1776W        W70249   2.264  31.444   0.950
 1777W        W70250  44.384   1.470  13.399
 1778W        W70251  39.943  16.629   4.735
 1779W        W70252  18.231  39.940  13.319
 1780W        W70253  26.564  35.365   4.303
 1781W        W70254  38.840  36.015  12.054
 1782W        W70255  36.004   9.883  13.480
 1783W        W70256  32.019  39.889  11.583
 1784W        W70257   7.891   8.236   3.207
 1785W        W70258  17.760   1.936  13.320
 1786W        W70259   4.763  22.524  12.976
 1787W        W70260   7.236  10.153   1.259
 1788W        W70261  37.870  32.966   2.834
 1789W        W70262  23.163   1.889   3.697
 1790W        W70263  14.107  18.199  15.000
 1791W        W70264  35.526  15.739   0.471
 1792W        W70265  26.967  35.013  11.414
 1793W        W70266  31.595  30.998  13.037
 1794W        W70267   5.916  34.532   0.967
 1795W        W70268   4.238   0.323   1.887
 1796W        W70269  20.131  35.462  12.354
 1797W        W70270   2.388   7.830   2.844
 1798W        W70271  15.286  35.441   3.819
 1799W        W70272  21.526  28.454   1.352
 1800W        W70273   2.814  21.673   2.308
 1801W        W70274  42.002  35.873  11.433
 1802W        W70275  44.471  24.676   5.310
 1803W        W70276   8.683  22.115   3.726
 1804W        W70277  12.134   7.345   4.785
 1805W        W70278   8.364   3.818   4.739
 1806W        W70279  32.633  27.038   4.739
 1807W        W70280  34.996  30.459   3.655
 1808W        W70281  18.650   4.886  13.006
 1809W        W70282   0.371  10.318   4.297
 1810W        W70283   2.823  18.149   3.312
 1811W        W70284   1.370  28.150   3.698
 1812W        W70285   0.294  29.017  13.418
 1813W        W70286   7.395  37.540   3.386
 1814W        W70287  13.834   1.886   3.746
 1815W        W70288   8.165   8.696  10.524
 1816W        W70289  24.047  28.530  12.843
 1817W        W70290  36.971  18.279  12.977
 1818W        W70291  41.865  39.439   1.221
 1819W        W70292  10.253   0.810  10.632
 1820W        W70293  44.463  19.598   1.781
 1821W        W70294  10.755  30.625   1.853
 1822W        W70295  39.906   2.349  12.559
 1823W        W70296  20.638  16.776   0.940
 1824W        W70297   6.377   9.724   4.190
 1825W        W70298  32.498  17.307  13.491
 1826W        W70299  42.499  22.014   2.294
 1827W        W70300  39.005  40.907  14.304
 1828W        W70301  39.983   5.320  10.910
 1829W        W70302  16.095  25.617  13.904
 1830W        W70303  23.528   0.865   1.378
 1831W        W70304   4.733  31.032   2.289
 1832W        W70305  16.690  16.259  12.884
 1833W        W70306  26.663   3.337  11.510
 1834W        W70307  21.713   7.205   2.182
 1835W        W70308   7.665   0.436   0.347
 1836W        W70309  17.586  22.071  11.897
 1837W        W70310   2.797  35.108   2.732
 1838W        W70311  15.169  26.693  11.415
 1839W        W70312   6.198  27.637   1.362
 1840W        W70313  38.450   0.361   2.833
 1841W        W70314  31.003  10.187   5.198
 1842W        W70315  10.766  22.027  10.603
 1843W        W70316  14.230  23.084  12.017
 1844W        W70317  14.208  21.227  13.357
 1845W        W70318  27.501  40.825  14.918
 1846W        W70319  41.989  27.083  10.464
 1847W        W70320  30.073  29.091   4.693
 1848W        W70321  24.135  31.462  14.898
 1849W        W70322  15.819  39.973   0.959
 1850W        W70323   8.658  12.655  11.087
 1851W        W70324   4.263  39.378  12.036
 1852W        W70325   5.933  24.546   2.183
 1853W        W70326  39.390   6.841   0.484
 1854W        W70327  31.596   1.454  12.947
 1855W        W70328  16.299  12.156  12.473
 1856W        W70329  32.548  36.982   0.749
 1857W        W70330   4.816   8.751  13.937
 1858W        W70331  23.025  34.970   4.790
 1859W        W70332   5.301  25.039  14.922
 1860W        W70333  34.374  21.730   4.695
 1861W        W70334  27.451  18.597   0.799
 1862W        W70335   1.314   9.881  11.445
 1863W        W70336  42.516  10.286  11.421
 1864W        W70337   7.210  32.952  11.864
 1865W        W70338   8.378  13.265  10.434
 1866W        W70339  36.957  29.029  12.472
 1867W        W70340  17.799  34.534   3.708
 1868W        W70341  41.467  26.140  11.963
 1869W        W70342  42.443  10.837   3.743
 1870W        W70343  35.598  43.373  10.958
 1871W        W70344  42.895   7.699   2.706
 1872W        W70345  13.129   7.809  13.027
 1873W        W70346  31.544  16.214  12.925
 1874W        W70347   1.471   2.924   0.425
 1875W        W70348  14.119   0.904   2.727
 1876W        W70349  24.984   7.719   5.266
 1877W        W70350  26.168  12.646  14.302
 1878W        W70351  39.967  41.314  11.123
 1879W        W70352  44.908   4.397   2.738
 1880W        W70353  18.194  40.834  10.489
 1881W        W70354  17.259  29.093  11.606
 1882W        W70355  33.527  26.682   4.352
 1883W        W70356  40.020  14.681   1.880
 1884W        W70357  29.116  38.400  14.366
 1885W        W70358  28.108  34.996  14.437
 1886W        W70359  27.058  35.393   4.348
 1887W        W70360   2.909   3.398   3.170
 1888W        W70361  37.439  25.570   4.771
 1889W        W70362  25.032   8.359   4.353
 1890W        W70363  35.392  26.516   0.911
 1891W        W70364  10.374  30.917  10.924
 1892W        W70365  26.560  23.115  11.055
 1893W        W70366  29.587  39.032   4.715
 1894W        W70367  32.098  22.560   4.606
 1895W        W70368  12.159  44.763  11.005
 1896W        W70369  11.264  41.950   0.914
 1897W        W70370  29.656   9.762  14.307
 1898W        W70371  39.947   4.401   1.798
 1899W        W70372  42.919  11.212  11.911
 1900W        W70373  15.088  16.118   1.706
 1901W        W70374  36.867  37.482   1.300
 1902W        W70375  22.211  26.981  14.896
 1903W        W70376  16.154  26.090   0.806
 1904W        W70377   4.933  28.602  10.423
 1905W        W70378  41.823  41.881  12.939
 1906W        W70379  39.866  30.607  13.465
 1907W        W70380  27.182  33.039   1.275
 1908W        W70381  41.005  29.022   0.391
 1909W        W70382  15.630  21.022   3.675
 1910W        W70383  24.125  42.902  13.892
 1911W        W70384  14.821   6.418   1.383
 1912W        W70385  29.169   3.871  10.602
 1913W        W70386  39.507  36.909  12.446
 1914W        W70387   1.872  15.110   4.765
 1915W        W70388   3.429  23.696  11.987
 1916W        W70389  27.187  10.315  11.444
 1917W        W70390   8.674   0.395   3.246
 1918W        W70391  21.032   5.896  13.978
 1919W        W70392  21.601  37.448  10.958
 1920W        W70393  22.213  37.382  11.581
 1921W        W70394  20.624  36.900   4.324
 1922W        W70395  23.677  10.336  13.421
 1923W        W70396  17.072  26.168  14.785
 1924W        W70397   0.423  19.081   4.795
 1925W        W70398  14.721  20.616   0.880
 1926W        W70399  27.053   8.898   3.296
 1927W        W70400  32.438  21.653   1.287
 1928W        W70401   2.356  25.627   1.792
 1929W        W70402  16.173  32.579   4.713
 1930W        W70403   5.392  24.226  11.543
 1931W        W70404  10.228  22.728  10.587
 1932W        W70405  43.369   5.266   1.819
 1933W        W70406  44.755   5.712  12.365
 1934W        W70407  12.798   5.392  12.910
 1935W        W70408  29.087  19.117  14.832
 1936W        W70409   9.251  14.252   2.776
 1937W        W70410  23.116  37.873  10.538
 1938W        W70411  14.305  40.402  12.472
 1939W        W70412  30.966  33.009   1.856
 1940W        W70413  44.779   2.786  10.933
 1941W        W70414  18.129   5.275   2.320
 1942W        W70415  42.286  31.409   4.636
 1943W        W70416  33.422   2.405   2.902
 1944W        W70417  28.030  13.190   4.342
 1945W        W70418  11.241  31.484  13.545
 1946W        W70419  29.574  32.939   4.664
 1947W        W70420  19.269   7.805   0.300
 1948W        W70421   7.795  15.646   1.726
 1949W        W70422  33.992  15.327  10.516
 1950W        W70423  27.114  18.789  10.506
 1951W        W70424  33.625  28.980  14.327
 1952W        W70425  25.029  18.184   4.344
 1953W        W70426  34.036  17.080   3.173
 1954W        W70427  14.156  15.141  14.361
 1955W        W70428   1.945  21.060  13.525
 1956W        W70429   2.294  37.478  10.062
 1957W        W70430  22.171  23.615  12.485
 1958W        W70431  20.686  21.037  11.575
 1959W        W70432  40.353  33.619   0.901
 1960W        W70433  35.505  18.558  13.036
 1961W        W70434  34.502  31.442  12.887
 1962W        W70435  42.526  43.016  11.917
 1963W        W70436  42.343  34.371   4.230
 1964W        W70437  36.867  41.791   2.717
 1965W        W70438  20.526  35.383  11.059
 1966W        W70439  14.193  11.727   1.284
 1967W        W70440  42.956   1.903  10.494
 1968W        W70441  18.784   0.375  14.498
 1969W        W70442  15.175  33.380  10.519
 1970W        W70443  13.672  39.944  14.875
 1971W        W70444  27.651  11.652   1.787
 1972W        W70445  29.648   3.369   1.428
 1973W        W70446   3.291  10.816  11.079
 1974W        W70447   4.441  29.926   3.776
 1975W        W70448   8.398  13.136   2.404
 1976W        W70449  31.532  39.993   3.383
 1977W        W70450  13.602  22.176   2.385
 1978W        W70451  34.090  32.463  12.459
 1979W        W70452  11.628  21.156  10.020
 1980W        W70453   9.849   1.463  10.991
 1981W        W70454  14.596  14.630   4.607
 1982W        W70455  19.563  36.906  14.498
 1983W        W70456  29.506  27.674  12.033
 1984W        W70457  19.181  42.858  12.348
 1985W        W70458   7.413  19.240  13.816
 1986W        W70459  32.515   4.907  10.994
 1987W        W70460  25.040  17.118  10.489
 1988W        W70461  32.090   8.321   0.832
 1989W        W70462  27.057  11.758   1.774
 1990W        W70463  15.124  21.133   4.285
 1991W        W70464   4.772  33.060  12.069
 1992W        W70465  43.285  12.334   1.795
 1993W        W70466  43.906  28.573   3.805
 1994W        W70467  26.497  30.626  12.465
 1995W        W70468  24.120  33.576   1.321
 1996W        W70469  18.104  32.053  13.431
 1997W        W70470  13.130   6.811  13.397
 1998W        W70471   8.755  18.755  14.846
 1999W        W70472  40.909   6.702  13.489
 2000W        W70473  29.532  19.134   0.765
 2001W        W70474  21.648   1.898   5.159
 2002W        W70475   0.349  10.726  14.342
 2003W        W70476   0.965  20.161   1.820
 2004W        W70477  31.476  40.817   1.774
 2005W        W70478   9.190   0.888   3.259
 2006W        W70479  16.797  13.249   3.259
 2007W        W70480  21.086  31.080  12.912
 2008W        W70481  29.532   6.285   5.219
 2009W        W70482  10.800  24.174  10.009
 2010W        W70483  13.213  22.156   1.407
 2011W        W70484  30.991  13.717  10.420
 2012W        W70485  37.005  44.380  14.400
 2013W        W70486  14.283  35.480  10.406
 2014W        W70487  16.624  39.523   4.736
 2015W        W70488  34.502  18.056  12.086
 2016W        W70489  22.151  35.541   1.424
 2017W        W70490  35.549  29.007  11.102
 2018W        W70491  26.510  24.654  14.870
 2019W        W70492  37.035  12.318   2.879
 2020W        W70493  23.113  30.023  14.791
 2021W        W70494  31.563  43.409   4.830
 2022W        W70495   3.312  26.618  11.984
 2023W        W70496  14.605  20.140  11.960
 2024W        W70497  10.722  30.985   3.639
 2025W        W70498  23.142   0.910  12.007
 2026W        W70499  26.663  36.494   1.317
 2027W        W70500  35.537  28.559  11.966
 2028W        W70501  36.496  44.959   3.171
 2029W        W70502  42.327   8.239  10.953
 2030W        W70503  28.943  25.154   1.263
 2031W        W70504  17.732  28.012   4.206
 2032W        W70505  31.528  41.388   5.723
 2033W        W70506  26.568  19.087   2.265
 2034W        W70507   7.862  17.086  14.362
 2035W        W70508  15.609  21.032  14.383
 2036W        W70509   8.165  32.412   1.439
 2037W        W70510  44.313   8.845  12.923
 2038W        W70511  14.594   8.771  10.536
 2039W        W70512  11.636   5.799  12.979
 2040W        W70513  32.991  13.315   3.301
 2041W        W70514  44.920  34.541   3.853
 2042W        W70515  40.531   0.412  10.942
 2043W        W70516  10.765  39.900  11.085
 2044W        W70517  13.190  12.786   1.391
 2045W        W70518  34.472  34.533   1.444
 2046W        W70519  24.184  23.692  14.796
 2047W        W70520  25.979  26.165  10.930
 2048W        W70521  31.076  26.666   2.397
 2049W        W70522  16.246  39.410   1.243
 2050W        W70523   4.798  33.116   3.299
 2051W        W70524   8.373  35.442   9.964
 2052W        W70525  34.971   8.312  14.448
 2053W        W70526  19.563  16.247   0.413
 2054W        W70527  22.023  17.211  14.280
 2055W        W70528  27.032  19.622   3.788
 2056W        W70529  21.235  42.807  13.026
 2057W        W70530   4.346   6.716   2.198
 2058W        W70531  30.040  10.819  12.049
 2059W        W70532   2.375  27.672  12.569
 2060W        W70533  27.096  38.879   9.971
 2061W        W70534  28.534  30.616  11.091
 2062W        W70535  39.439   2.268   2.729
 2063W        W70536  11.131  41.362  12.463
 2064W        W70537  24.153  10.381  14.397
 2065W        W70538  36.540  31.995   3.311
 2066W        W70539  13.605   3.750  11.963
 2067W        W70540   5.825  30.594  14.349
 2068W        W70541  10.768  41.899   4.208
 2069W        W70542  20.194   6.390   5.274
 2070W        W70543  10.837  21.583   1.371
 2071W        W70544   5.746  41.502   4.599
 2072W        W70545  43.899  22.223  14.024
 2073W        W70546  25.711  42.889   3.737
 2074W        W70547  40.855  37.845  10.519
 2075W        W70548  20.272  39.399   4.806
 2076W        W70549  17.285   9.159   3.198
 2077W        W70550   7.746  15.227  11.087
 2078W        W70551  35.590  41.861  12.065
 2079W        W70552  18.622  29.924  11.565
 2080W        W70553  35.400  39.476   3.291
 2081W        W70554   3.873  40.423   4.780
 2082W        W70555   7.907  27.507   3.835
 2083W        W70556  38.444  29.046   3.232
 2084W        W70557  40.517  27.674  14.281
 2085W        W70558  26.660  34.444  12.846
 2086W        W70559  23.564  42.811   2.666
 2087W        W70560   3.887  10.172  13.019
 2088W        W70561  35.884   5.353   4.668
 2089W        W70562  29.032  43.898   1.414
 2090W        W70563  13.137  29.645   0.774
 2091W        W70564  13.226  30.936  12.917
 2092W        W70565  44.975  33.400  12.489
 2093W        W70566  38.885   6.405   2.886
 2094W        W70567  37.579  17.782  11.123
 2095W        W70568  24.478   2.392   4.764
 2096W        W70569  33.538  43.818   4.209
 2097W        W70570  24.230   1.355   3.822
 2098W        W70571   8.333  35.051   2.225
 2099W        W70572   7.667  17.168   1.820
 2100W        W70573   1.423  20.094  13.486
 2101W        W70574   5.736  15.086  12.095
 2102W        W70575  35.388  26.571  10.429
 2103W        W70576   3.374  17.774   2.290
 2104W        W70577  25.685  21.131  13.044
 2105W        W70578  28.954  35.598  11.475
 2106W        W70579   7.185  21.124   0.756
 2107W        W70580   1.303  29.452   0.779
 2108W        W70581   5.355  23.640   2.815
 2109W        W70582   8.182  26.534  14.954
 2110W        W70583   2.429   1.252  14.851
 2111W        W70584  31.646  39.984   0.839
 2112W        W70585  40.414   0.427   0.484
 2113W        W70586  11.323  42.811  13.425
 2114W        W70587  17.165  38.968   4.237
 2115W        W70588  41.381   7.256  10.480
 2116W        W70589  29.130  37.924  11.855
 2117W        W70590  35.515   0.976  13.513
 2118W        W70591  44.890   1.412  14.441
 2119W        W70592   4.799  28.664   4.631
 2120W        W70593   3.759   7.729   0.830
 2121W        W70594  19.248  26.549  12.351
 2122W        W70595  15.686  27.110  13.451
 2123W        W70596  43.853   4.321   3.813
 2124W        W70597   3.374   7.277   0.817
 2125W        W70598  12.271   8.798  14.897
 2126W        W70599   9.675   2.292  14.924
 2127W        W70600  28.178  12.756   1.425
 2128W        W70601  13.185  41.824  14.797
 2129W        W70602   2.746  42.468  11.534
 2130W        W70603  34.944  33.988   4.831
 2131W        W70604  26.030  44.788   0.936
 2132W        W70605  40.905   8.260   1.804
 2133W        W70606   9.180  21.541   4.193
 2134W        W70607  16.743  20.171  13.802
 2135W        W70608   2.354  20.600   0.831
 2136W        W70609  32.986  44.936  10.632
 2137W        W70610  11.852  27.163   1.238
 2138W        W70611  24.549  13.643  12.435
 2139W        W70612  21.593  26.989   0.739
 2140W        W70613   0.895  25.605   0.472
 2141W        W70614   1.913  28.480  10.514
 2142W        W70615  29.944  24.625  12.897
 2143W        W70616  28.462  17.648   4.217
 2144W        W70617  18.749  33.012  14.897
 2145W        W70618   8.875  16.811  12.410
 2146W        W70619  27.165  39.327   1.236
 2147W        W70620  32.016  11.199  14.027
 2148W        W70621  35.905  39.920   3.646
 2149W        W70622  18.246  11.161  11.609
 2150W        W70623  35.097   5.245   4.601
 2151W        W70624   4.293   5.880  13.850
 2152W        W70625  30.040  37.899  10.601
 2153W        W70626  34.369  22.528  12.933
 2154W        W70627  22.077   1.847  11.041
 2155W        W70628  42.903  12.288  12.345
 2156W        W70629   3.440  44.448  14.934
 2157W        W70630  26.601  16.801  11.089
 2158W        W70631  10.321  37.477   1.299
 2159W        W70632  43.008  42.873  12.043
 2160W        W70633   0.979  22.738  10.921
 2161W        W70634   5.396  30.932  12.870
 2162W        W70635  13.298  28.950  11.877
 2163W        W70636  10.692  29.509  13.986
 2164W        W70637   8.313  13.155   3.284
 2165W        W70638   8.400   0.982  12.946
 2166W        W70639  42.823  20.037   2.247
 2167W        W70640   0.843   6.211  13.378
 2168W        W70641   2.777  43.314   4.708
 2169W        W70642  35.958  12.807  14.394
 2170W        W70643  41.945  21.637  12.457
 2171W        W70644  40.390   1.867  13.011
 2172W        W70645   6.406  26.682  14.932
 2173W        W70646  43.925  23.549  12.870
 2174W        W70647   9.191  22.628  14.993
 2175W        W70648  20.601  18.636  12.026
 2176W        W70649  30.040  42.336  13.022
 2177W        W70650  31.953  40.831  13.479
 2178W        W70651  14.622   4.812  12.986
 2179W        W70652   4.261  11.786   4.279
 2180W        W70653   7.219   2.846   4.178
 2181W        W70654  18.586  16.281  13.486
 2182W        W70655  12.781  42.835   0.327
 2183W        W70656  37.543  23.736   1.245
 2184W        W70657   9.168  44.942  14.362
 2185W        W70658  23.573  28.649  11.856
 2186W        W70659   6.218  37.389   4.197
 2187W        W70660  44.313  15.144   4.163
 2188W        W70661  11.313   8.816  11.054
 2189W        W70662  13.138  28.463  10.999
 2190W        W70663  20.746  17.558   0.757
 2191W        W70664  27.993  19.752  11.020
 2192W        W70665  27.632   2.758  13.011
 2193W        W70666  16.571   3.233   3.221
 2194W        W70667   9.883  37.454  14.889
 2195W        W70668   3.840   0.829   2.377
 2196W        W70669  23.617  32.598   3.165
 2197W        W70670  16.289  12.151   0.336
 2198W        W70671  26.605   5.884   1.821
 2199W        W70672  12.281   9.773  10.521
 2200W        W70673  11.780  37.462   0.272
 2201W        W70674  12.176  26.198   0.393
 2202W        W70675   7.670  21.710  13.529
 2203W        W70676  21.179  41.849  13.977
 2204W        W70677  37.920  32.885   3.793
 2205W        W70678  26.459  22.050  12.024
 2206W        W70679   6.820  29.100   0.744
 2207W        W70680  29.968  19.635   3.768
 2208W        W70681   9.199  26.478  14.793
 2209W        W70682  41.811  31.549   3.867
 2210W        W70683  35.938  37.380  11.466
 2211W        W70684  39.397  32.142  13.845
 2212W        W70685   2.727  32.409   1.722
 2213W        W70686  22.134   3.408  11.403
 2214W        W70687  27.082  22.156  14.763
 2215W        W70688  23.533  27.457   4.155
 2216W        W70689  27.020   0.311   3.376
 2217W        W70690  30.953  16.695   1.230
 2218W        W70691  29.083  10.747  13.474
 2219W        W70692  13.789   6.197  10.420
 2220W        W70693   8.781  35.962  10.082
 2221W        W70694  33.452   2.956   4.708
 2222W        W70695   3.732  12.798   4.146
 2223W        W70696  31.473  43.336   1.925
 2224W        W70697   4.767  44.433   1.323
 2225W        W70698  23.726  41.827  12.987
 2226W        W70699  43.398  16.622  13.837
 2227W        W70700  37.495  13.149   5.231
 2228W        W70701  36.992   1.868   1.226
 2229W        W70702  30.040   2.745  14.475
 2230W        W70703  21.612  26.181  11.984
 2231W        W70704   3.242  15.172  14.305
 2232W        W70705  29.069  21.240   1.931
 2233W        W70706  42.848  25.026   1.873
 2234W        W70707  31.909  40.465   1.764
 2235W        W70708  16.795  30.452  13.456
 2236W        W70709  24.045  25.157   2.381
 2237W        W70710  34.005  21.532   4.838
 2238W        W70711  31.441  20.601  12.916
 2239W        W70712  36.555  37.033   0.437
 2240W        W70713  37.543  32.401   0.948
 2241W        W70714  12.231  25.118  14.428
 2242W        W70715  11.190  21.166  13.518
 2243W        W70716   6.819  36.047  14.808
 2244W        W70717  24.004  15.649  11.990
 2245W        W70718   4.714  18.697   3.694
 2246W        W70719  28.025   3.379  13.498
 2247W        W70720  10.855  32.930  10.917
 2248W        W70721  38.505  31.527   1.381
 2249W        W70722  37.509   4.790  12.913
 2250W        W70723  36.420  12.299   3.867
 2251W        W70724  31.968  26.588   0.934
 2252W        W70725  13.677  31.126   4.293
 2253W        W70726  34.587  26.979  13.309
 2254W        W70727   5.791  13.623  10.549
 2255W        W70728  38.427  18.222   4.818
 2256W        W70729  41.994  33.898  10.584
 2257W        W70730   9.389  28.160  10.904
 2258W        W70731  35.029  25.541   3.849
 2259W        W70732  42.488   2.334   2.219
 2260W        W70733  18.154   8.244   0.248
 2261W        W70734  31.896  43.412  13.368
 2262W        W70735  24.072  34.865   0.374
 2263W        W70736  16.743  15.317   1.238
 2264W        W70737  17.782  37.350   0.384
 2265W        W70738  20.638  16.301  13.005
 2266W        W70739  36.565   4.703  14.453
 2267W        W70740  42.884  13.623   2.223
 2268W        W70741   4.424  31.484   3.210
 2269W        W70742  41.361   9.828  13.978
 2270W        W70743   9.727  21.152   0.818
 2271W        W70744  20.029  29.583   4.653
 2272W        W70745  12.282   4.431  10.474
 2273W        W70746  31.096   5.423   2.677
 2274W        W70747   3.711  22.514  13.431
 2275W        W70748  33.455  23.004   0.797
 2276W        W70749  29.034  39.954  14.829
 2277W        W70750   0.863  28.044   4.314
 2278W        W70751  28.598  38.383  14.280
 2279W        W70752  21.600  12.278   1.290
 2280W        W70753  31.035   8.361  13.914
 2281W        W70754   3.329   5.857   1.406
 2282W        W70755  27.989  25.115   2.880
 2283W        W70756  14.163   6.323   4.151
 2284W        W70757  28.066   9.231  14.277
 2285W        W70758  40.029  34.035   3.825
 2286W        W70759  37.930  21.103  11.858
 2287W        W70760  10.158  20.694   5.229
 2288W        W70761  35.420  25.064   5.152
 2289W        W70762  40.815  22.152   3.168
 2290W        W70763  29.583  17.171  12.014
 2291W        W70764   1.755  22.643   3.737
 2292W        W70765  33.094  41.791   3.184
 2293W        W70766  40.996   0.457   0.874
 2294W        W70767  13.755  10.208   2.251
 2295W        W70768  24.619  20.689  13.801
 2296W        W70769  28.491  41.839  14.833
 2297W        W70770  24.683  36.423  11.129
 2298W        W70771   3.363   7.207  11.426
 2299W        W70772  36.470  14.743   2.244
 2300W        W70773  13.141  44.421  14.387
 2301W        W70774  24.582  34.042   3.836
 2302W        W70775   7.416  24.670  14.347
 2303W        W70776  25.066   1.309  12.855
 2304W        W70777  16.675   9.705  11.056
 2305W        W70778  35.915  17.730  12.950
 2306W        W70779  29.523  23.089   4.190
 2307W        W70780  19.216   7.205   3.249
 2308W        W70781  41.796  22.679   2.322
 2309W        W70782   6.387  22.689  11.045
 2310W        W70783  11.705  28.126  14.825
 2311W        W70784  18.649  11.731  14.362
 2312W        W70785   0.479   4.392  13.504
 2313W        W70786  28.576   9.854   3.169
 2314W        W70787  28.574  36.483  11.432
 2315W        W70788  39.558  43.775  11.609
 2316W        W70789   7.278   9.670  14.771
 2317W        W70790  19.202   1.404  10.524
 2318W        W70791  22.507  43.801   0.870
 2319W        W70792  37.066  39.461   2.393
 2320W        W70793  25.005   1.479   3.380
 2321W        W70794  35.031   1.806   0.857
 2322W        W70795   2.824   3.323   0.959
 2323W        W70796  13.699  38.990   3.319
 2324W        W70797  30.095   3.250  13.901
 2325W        W70798  19.162  39.473   4.703
 2326W        W70799  34.024   8.878   2.372
 2327W        W70800   5.833  13.644  11.947
 2328W        W70801  20.634  25.099   3.733
 2329W        W70802  34.091  23.237  12.927
 2330W        W70803  28.583   1.375  13.344
 2331W        W70804  26.461  44.987  12.558
 2332W        W70805  41.340   2.265   1.897
 2333W        W70806  43.357  25.209   3.229
 2334W        W70807   4.811   2.764   2.834
 2335W        W70808  28.659  13.650   0.794
 2336W        W70809  44.951  39.851   3.377
 2337W        W70810  40.408  22.999  12.461
 2338W        W70811  25.473  16.706   2.227
 2339W        W70812  12.238  11.188  11.560
 2340W        W70813  13.725  20.121  11.421
 2341W        W70814  24.659  21.116   4.778
 2342W        W70815  36.060  11.219   3.849
 2343W        W70816  18.097   2.945  12.484
 2344W        W70817  37.949  25.655  11.058
 2345W        W70818  38.362  14.201  10.603
 2346W        W70819  39.369  30.631  14.375
 2347W        W70820  31.608  43.482   0.781
 2348W        W70821  20.588   4.874  14.371
 2349W        W70822  14.273   1.289  14.921
 2350W        W70823  23.233  36.005   3.335
 2351W        W70824  26.043  35.395   0.769
 2352W        W70825  17.084  10.732  11.542
 2353W        W70826  27.507   6.888  13.411
 2354W        W70827  20.031  22.667   1.223
 2355W        W70828  13.124  11.303  13.048
 2356W        W70829  19.044  28.536  13.959
 2357W        W70830  29.954  17.292  14.895
 2358W        W70831  27.998  41.854  13.059
 2359W        W70832   7.816   4.864   2.712
 2360W        W70833   8.310  19.192   3.206
 2361W        W70834  33.425  43.981  12.830
 2362W        W70835   1.404  22.225  10.560
 2363W        W70836  25.618  36.844   0.449
 2364W        W70837   9.885   5.318   0.418
 2365W        W70838   2.260  29.470   1.821
 2366W        W70839   8.301  16.682  10.640
 2367W        W70840  10.847   0.390  11.973
 2368W        W70841  10.659  38.450  12.515
 2369W        W70842  19.753  23.079  11.585
 2370W        W70843  27.116   7.775  10.577
 2371W        W70844  42.514  25.487   4.644
 2372W        W70845  24.616  15.814  14.316
 2373W        W70846  22.107  26.155  10.531
 2374W        W70847  35.072  12.144   2.195
 2375W        W70848  25.644  14.164  11.859
 2376W        W70849  43.498  39.998  11.925
 2377W        W70850   0.904   2.430   3.765
 2378W        W70851   0.467  23.050  12.013
 2379W        W70852  40.310  14.655  10.599
 2380W        W70853  42.871  18.553   5.238
 2381W        W70854  24.634  24.535   1.360
 2382W        W70855  11.794   6.206  14.847
 2383W        W70856   1.362  25.689   0.915
 2384W        W70857  19.679  30.000   2.419
 2385W        W70858  10.704  30.084   4.135
 2386W        W70859  15.130   4.441  14.858
 2387W        W70860  42.803   5.731   0.846
 2388W        W70861  18.204  42.012   2.196
 2389W        W70862  22.544  28.184  11.931
 2390W        W70863  16.262  32.617   2.340
 2391W        W70864  36.414  16.210   3.186
 2392W        W70865  44.384  29.115   4.252
 2393W        W70866   1.803  30.054   1.343
 2394W        W70867  31.470  30.622  13.860
 2395W        W70868  18.709  31.520  14.447
 2396W        W70869  20.144  30.520   3.754
 2397W        W70870  24.197  21.203   1.912
 2398W        W70871  13.699  23.991  11.401
 2399W        W70872  27.182  15.146   4.184
 2400W        W70873  17.736  44.876  13.526
 2401W        W70874   4.358  36.940   4.140
 2402W        W70875  14.240  11.181   4.629
 2403W        W70876   3.892   6.868  14.795
 2404W        W70877  33.057  35.582  13.870
 2405W        W70878   2.882  42.793  10.905
 2406W        W70879  42.398  27.961  10.594
 2407W        W70880  16.299  40.432   5.727
 2408W        W70881  27.454   6.920  11.428
 2409W        W70882  41.396  37.928   2.852
 2410W        W70883  10.259  12.621   3.212
 2411W        W70884  20.638  33.976  14.341
 2412W        W70885   1.933  31.571  14.498
 2413W        W70886  32.931  19.621   2.797
 2414W        W70887  29.606  35.885   2.713
 2415W        W70888  25.531  30.144   0.442
 2416W        W70889  15.121   8.851  12.422
 2417W        W70890   8.839   2.249  14.763
 2418W        W70891  31.442   7.850  13.359
 2419W        W70892  34.461  17.303   0.469
 2420W        W70893  43.286  40.010  13.487
 2421W        W70894  20.218  28.038   3.783
 2422W        W70895  24.131  30.110   1.222
 2423W        W70896  42.775   3.781  11.969
 2424W        W70897  38.358  21.226  10.570
 2425W        W70898  23.592  42.793   1.272
 2426W        W70899  27.118  19.058  11.395
 2427W        W70900  40.346  28.582  12.416
 2428W        W70901   4.271   9.150   4.253
 2429W        W70902  19.691   8.390   4.793
 2430W        W70903   1.300  38.916   3.669
 2431W        W70904  20.189   9.214   3.311
 2432W        W70905  12.240  12.739  13.017
 2433W        W70906  21.175   4.865  11.070
 2434W        W70907  44.475  10.647   3.834
 2435W        W70908  20.044  27.484  13.403
 2436W        W70909  31.554  23.669   1.261
 2437W        W70910   9.706   1.737   3.166
 2438W        W70911  15.255  44.262   3.650
 2439W        W70912  11.711  26.178  12.575
 2440W        W70913   7.278  44.308   2.288
 2441W        W70914  11.146  36.960  13.458
 2442W        W70915  12.340   6.235  14.342
 2443W        W70916   1.933  10.690   1.322
 2444W        W70917  19.592  10.739  14.857
 2445W        W70918  19.535  32.946  13.389
 2446W        W70919  18.106  33.580  11.021
 2447W        W70920  34.091  35.499  12.458
 2448W        W70921  27.952  31.077  11.597
 2449W        W70922  11.261  21.597  13.050
 2450W        W70923  11.187   4.288  12.846
 2451W        W70924  22.689   6.390   5.191
 2452W        W70925  10.662  23.100   1.921
 2453W        W70926  15.206  43.889   1.267
 2454W        W70927  35.955  33.011   3.693
 2455W        W70928  38.065  39.052   0.936
 2456W        W70929  37.580   6.247  12.006
 2457W        W70930  34.369  40.337   2.683
 2458W        W70931  13.732   2.896  13.363
 2459W        W70932  12.310  36.519  10.979
 2460W        W70933   6.304   8.709  12.975
 2461W        W70934  36.402   3.404  13.801
 2462W        W70935  38.542  30.937  12.369
 2463W        W70936  33.122  13.684  11.469
 2464W        W70937  17.579   6.309  12.558
 2465W        W70938  35.095  15.774  10.433
 2466W        W70939  25.001  27.545   1.897
 2467W        W70940  41.461  19.054   1.872
 2468W        W70941  28.090  24.170  11.526
 2469W        W70942  26.561   2.763   0.315
 2470W        W70943  18.112  14.732  11.563
 2471W        W70944   7.289  15.774   4.291
 2472W        W70945  12.730  11.781   3.636
 2473W        W70946  33.932  22.245   4.169
 2474W        W70947  22.088  12.347  13.351
 2475W        W70948  14.835  18.131   4.825
 2476W        W70949  22.236  33.126   1.329
 2477W        W70950  38.550  12.806  14.827
 2478W        W70951  27.482   3.862  10.453
 2479W        W70952  37.488  34.552   0.910
 2480W        W70953   9.777  18.674   3.772
 2481W        W70954  18.567  28.575  12.947
 2482W        W70955  36.413  29.161   2.821
 2483W        W70956  41.372  29.557  11.510
 2484W        W70957  35.975  35.013  11.058
 2485W        W70958   1.835  13.296   1.885
 2486W        W70959   9.209  39.402   3.732
 2487W        W70960  35.396   8.714   3.676
 2488W        W70961  11.173   7.732   1.332
 2489W        W70962   6.821  32.911  11.976
 2490W        W70963   6.264   0.965  13.030
 2491W        W70964  31.478  28.131   0.847
 2492W        W70965  16.226  43.516  11.111
 2493W        W70966  26.492  12.161  10.563
 2494W        W70967  24.575  28.973  14.315
 2495W        W70968   3.341  39.953   4.165
 2496W        W70969  44.450  44.946  10.929
 2497W        W70970  25.981   6.872  10.437
 2498W        W70971  41.003  25.633   0.307
 2499W        W70972  26.681  37.847   3.812
 2500W        W70973  34.476  12.732  11.975
 2501W        W70974  13.794  10.685  14.372
 2502W        W70975   4.237  38.901   4.802
 2503W        W70976  34.466  18.629   0.892
 2504W        W70977  32.984   1.482   3.795
 2505W        W70978  42.439   2.881  14.298
 2506W        W70979  42.486   4.780   3.299
 2507W        W70980  10.218  13.180   3.693
 2508W        W70981  44.811  44.892   4.123
 2509W        W70982  15.319  23.520   1.755
 2510W        W70983  27.063   9.839  14.472
 2511W        W70984   4.913  15.791   4.599
 2512W        W70985  44.393  12.780  13.356
 2513W        W70986  23.543  34.440  13.401
 2514W        W70987   1.775  43.818   2.337
 2515W        W70988  31.990  21.199  10.114
 2516W        W70989  24.725  19.776  12.909
 2517W        W70990  29.634  39.413   2.745
 2518W        W70991  19.708  18.289   2.884
 2519W        W70992  39.817  26.102  12.014
 2520W        W70993  15.105  33.541  11.441
 2521W        W70994  36.897  20.173  14.321
 2522W        W70995  23.633   9.854  12.923
 2523W        W70996  41.792  28.092  13.492
 2524W        W70997  35.948  34.064   2.283
 2525W        W70998   2.732   2.355   2.180
 2526W        W70999  14.612  30.603   3.640
 2527W        W71000  36.080  15.235  10.617
 2528W        W71001   0.449  18.143  13.368
 2529W        W71002  35.447   2.278   1.907
 2530W        W71003   4.303  22.199   1.246
 2531W        W71004  32.956  44.403   2.708
 2532W        W71005   0.928   0.352   4.339
 2533W        W71006  22.171  23.654  13.509
 2534W        W71007  10.756  44.981  11.437
 2535W        W71008  39.963  23.668   4.805
 2536W        W71009  17.245  32.963   2.271
 2537W        W71010  37.047  35.029   2.690
 2538W        W71011  25.993   1.938  12.991
 2539W        W71012  14.709  31.010  14.373
 2540W        W71013  31.964  12.712   4.169
 2541W        W71014   1.457   0.456   3.764
 2542W        W71015  12.156  24.703   4.616
 2543W        W71016  34.508   1.425  12.845
 2544W        W71017  24.074   2.963   1.428
 2545W        W71018  14.158  14.160  12.459
 2546W        W71019  13.109  13.239  14.428
 2547W        W71020   3.329  16.160  14.343
 2548W        W71021   0.842  36.077   1.838
 2549W        W71022   0.444  20.140  14.371
 2550W        W71023  24.581  39.359   3.717
 2551W        W71024  43.511  11.656  12.379
 2552W        W71025  14.223  41.517  13.812
 2553W        W71026  38.841  16.208  10.612
 2554W        W71027  30.442   2.883  14.940
 2555W        W71028  14.677   1.445   2.326
 2556W        W71029  19.546  20.073  11.541
 2557W        W71030  14.217   0.377   4.207
 2558W        W71031  28.101  28.590   0.472
 2559W        W71032   0.267  17.286   0.755
 2560W        W71033  22.509  25.217   4.324
 2561W        W71034  28.186  18.562   0.472
 2562W        W71035  28.186   3.721  14.418
 2563W        W71036  34.611   6.763  10.958
 2564W        W71037  44.849  10.296   3.210
 2565W        W71038  31.063  30.113  10.908
 2566W        W71039  28.516  43.788   0.465
 2567W        W71040  34.993  41.345   4.631
 2568W        W71041  37.010  41.029  12.523
 2569W        W71042   7.362  19.617  12.846
 2570W        W71043  13.106  15.788  13.015
 2571W        W71044  30.076   7.765  12.575
 2572W        W71045  23.512  31.540   2.288
 2573W        W71046  38.429  22.168   1.270
 2574W        W71047  14.711  24.689   1.880
 2575W        W71048  34.569  39.820  14.277
 2576W        W71049  13.617  13.341  13.383
 2577W        W71050  33.550  43.805   2.233
 2578W        W71051  26.115  19.225   2.737
 2579W        W71052  25.081  37.058   4.173
 2580W        W71053   7.173  30.035   1.788
 2581W        W71054   2.837   3.882  13.454
 2582W        W71055  22.682  35.539  14.028
 2583W        W71056  42.956  23.099  13.869
 2584W        W71057  12.662   2.945   1.920
 2585W        W71058   1.832  35.473   2.368
 2586W        W71059  24.160  35.032   4.750
 2587W        W71060  18.621  15.684  11.429
 2588W        W71061   1.304   6.215   3.384
 2589W        W71062  28.513  39.352  14.773
 2590W        W71063  41.378   4.289  13.496
 2591W        W71064  14.248   4.738  12.514
 2592W        W71065  43.404  31.636  14.293
 2593W        W71066  32.602  10.359   2.873
 2594W        W71067  44.811  44.417   4.721
 2595W        W71068  31.919  37.406   0.369
 2596W        W71069  30.460  20.559  11.568
 2597W        W71070  39.986   8.241  12.842
 2598W        W71071  43.907   5.425  11.859
 2599W        W71072   1.739  18.699  14.423
 2600W        W71073   1.961  20.079  12.880
 2601W        W71074  32.971  28.494  12.827
 2602W        W71075   1.748  11.738  12.456
 2603W        W71076  42.801  42.472  11.490
 2604W        W71077   1.837  13.783   1.316
 2605W        W71078  36.948   4.804   4.187
 2606W        W71079   7.189  21.679  14.806
 2607W        W71080  24.163  24.586   0.876
 2608W        W71081  15.737  15.672  10.009
 2609W        W71082  23.098   6.699   1.350
 2610W        W71083  27.496  11.764   3.716
 2611W        W71084  12.134  39.450   3.776
 2612W        W71085  34.995  18.138   3.713
 2613W        W71086  19.149  32.417  10.948
 2614W        W71087  16.569   1.804   3.641
 2615W        W71088  21.119  36.021  13.406
 2616W        W71089  37.083  27.538  14.871
 2617W        W71090   4.367  18.234  11.873
 2618W        W71091  21.585  37.551   1.813
 2619W        W71092  33.127  10.803   2.366
 2620W        W71093  30.421  14.615  14.402
 2621W        W71094  18.554  32.089   2.417
 2622W        W71095  17.673  44.902   3.377
 2623W        W71096  37.000  36.383   2.419
 2624W        W71097   0.349  35.065  11.936
 2625W        W71098   4.409  41.985  13.855
 2626W        W71099  42.893  44.855   4.695
 2627W        W71100  32.596  26.509  14.864
 2628W        W71101  37.535  27.048  11.455
 2629W        W71102  29.052  38.386  13.401
 2630W        W71103  33.483  13.639   3.154
 2631W        W71104   6.333  42.863   4.605
 2632W        W71105  35.457  41.477  13.811
 2633W        W71106  10.337  31.510   1.918
 2634W        W71107  29.172  29.471   1.874
 2635W        W71108  19.137  41.519   4.685
 2636W        W71109  33.486  42.485  14.466
 2637W        W71110   0.374  20.538  10.482
 2638W        W71111  35.594  11.847   3.761
 2639W        W71112  12.355  26.636  10.925
 2640W        W71113  30.547   8.257   4.124
 2641W        W71114  25.062  27.553  14.400
 2642W        W71115  28.951  26.170  10.515
 2643W        W71116  24.978   4.715   2.844
 2644W        W71117   0.745  19.273  14.793
 2645W        W71118  15.138   2.274  11.519
 2646W        W71119   7.728   6.238   1.760
 2647W        W71120  35.062  44.770  10.989
 2648W        W71121  16.584   2.357   2.707
 2649W        W71122  38.941   2.226  12.056
 2650W        W71123  36.870  10.692   0.750
 2651W        W71124  11.675  43.839  13.819
 2652W        W71125  16.248   6.212  12.521
 2653W        W71126  15.106  19.157   1.428
 2654W        W71127  28.982  18.550   1.857
 2655W        W71128  11.847  35.983  11.013
 2656W        W71129  15.182   8.773   0.960
 2657W        W71130  20.639  40.507   2.725
 2658W        W71131  36.901   6.854  14.954
 2659W        W71132  16.296  40.036   5.567
 2660W        W71133  35.101  20.177   1.705
 2661W        W71134  17.222   0.830  12.048
 2662W        W71135  15.767  32.987  13.336
 2663W        W71136  23.651  19.686   2.877
 2664W        W71137  36.069  12.792   1.366
 2665W        W71138  22.170   0.808   3.330
 2666W        W71139   0.947  41.901   5.322
 2667W        W71140  43.898   5.397  11.380
 2668W        W71141   4.717  26.961   1.431
 2669W        W71142   7.692  14.243   1.781
 2670W        W71143  26.159   1.886  13.524
 2671W        W71144   8.742  31.058  11.983
 2672W        W71145  20.178  25.615   3.301
 2673W        W71146   0.318  33.087   3.180
 2674W        W71147  10.213  19.617   3.674
 2675W        W71148  41.026  28.055  10.465
 2676W        W71149  40.964  13.813  11.019
 2677W        W71150  28.060   6.266   2.827
 2678W        W71151   6.758   1.918   2.229
 2679W        W71152  28.162  27.586   2.691
 2680W        W71153  16.208  29.036   2.242
 2681W        W71154  41.459  11.251   1.411
 2682W        W71155  27.527  43.286  10.899
 2683W        W71156  32.455  25.583   4.781
 2684W        W71157   0.373   7.885   4.682
 2685W        W71158   8.340   5.907   5.267
 2686W        W71159   5.871  21.572  14.321
 2687W        W71160  28.675  36.402   4.180
 2688W        W71161  25.211  38.377  14.915
 2689W        W71162  17.269  18.175  10.058
 2690W        W71163  36.853  19.571   2.284
 2691W        W71164  40.040  18.698   0.265
 2692W        W71165  19.056   3.864  13.406
 2693W        W71166  34.876  35.882   0.348
 2694W        W71167  20.620  41.509   3.762
 2695W        W71168   3.935  38.920   0.830
 2696W        W71169  37.897   7.254  14.441
 2697W        W71170  31.084  17.262  10.586
 2698W        W71171  11.299  42.998   0.262
 2699W        W71172   5.729  25.172  12.914
 2700W        W71173  19.763  17.069  13.794
 2701W        W71174  32.559  21.530  12.039
 2702W        W71175  30.146   0.974  12.552
 2703W        W71176  12.233  32.051   0.884
 2704W        W71177  25.520  34.397   1.219
 2705W        W71178  15.769  31.148  11.536
 2706W        W71179  12.197  24.643  12.469
 2707W        W71180   1.879  16.217  11.870
 2708W        W71181  26.199  43.827   1.266
 2709W        W71182  33.458  15.108  13.012
 2710W        W71183  29.508  10.361  11.471
 2711W        W71184   7.270  33.530  12.952
 2712W        W71185  17.158  17.110   2.310
 2713W        W71186  31.084  40.873  11.603
 2714W        W71187   1.747  20.645  14.839
 2715W        W71188  30.927  20.617   4.753
 2716W        W71189  35.928  19.748   2.321
 2717W        W71190  32.405  19.748  14.382
 2718W        W71191  10.163   5.726  11.100
 2719W        W71192  37.544   7.286  12.943
 2720W        W71193  35.541  41.491   1.437
 2721W        W71194  39.011  35.930   4.673
 2722W        W71195   7.725  32.474  12.435
 2723W        W71196  30.610  41.869  12.485
 2724W        W71197  38.415  20.168  12.068
 2725W        W71198  43.818   4.829  14.301
 2726W        W71199   4.787  27.943  10.506
 2727W        W71200   1.738   3.850  14.984
 2728W        W71201  38.833  17.767   2.317
 2729W        W71202  36.500   0.805   0.258
 2730W        W71203   9.760  27.450  11.116
 2731W        W71204  21.203  37.022   3.644
 2732W        W71205   9.838  36.997   4.257
 2733W        W71206  23.595   3.782  13.491
 2734W        W71207  42.415  12.285   3.679
 2735W        W71208  28.646  33.595   2.673
 2736W        W71209   1.238  26.670   4.299
 2737W        W71210  40.439  28.105  14.785
 2738W        W71211  17.666  31.142   4.123
 2739W        W71212  39.809   2.874  14.865
 2740W        W71213  39.530  17.294   4.224
 2741W        W71214  13.619   6.876  11.972
 2742W        W71215   7.737   3.277  14.775
 2743W        W71216  18.580   5.790  13.945
 2744W        W71217  12.651  23.007   4.701
 2745W        W71218   7.690  35.554  14.288
 2746W        W71219  19.606  40.853  14.978
 2747W        W71220  43.283  38.998  10.107
 2748W        W71221  29.591  40.886  13.958
 2749W        W71222  12.165   0.489  10.551
 2750W        W71223   3.773  41.457  13.814
 2751W        W71224  33.535  40.831  13.902
 2752W        W71225  13.150  21.048  14.890
 2753W        W71226   0.791  26.063   2.317
 2754W        W71227   8.182  37.386  13.909
 2755W        W71228  36.587   8.291   3.242
 2756W        W71229  44.915   0.432   2.663
 2757W        W71230  31.042  42.420  12.538
 2758W        W71231  28.000   6.699  10.059
 2759W        W71232   7.883  21.536   4.241
 2760W        W71233   0.407  40.019   1.229
 2761W        W71234  38.472   3.448  12.093
 2762W        W71235   1.845   5.852   4.647
 2763W        W71236  35.058  29.955   1.829
 2764W        W71237   3.748  24.025  10.411
 2765W        W71238   2.450  41.475  14.365
 2766W        W71239   9.765  40.806  11.030
 2767W        W71240   0.316  27.680   4.284
 2768W        W71241  25.139  44.962  14.805
 2769W        W71242  37.577  39.370  13.546
 2770W        W71243   2.245  29.502  14.856
 2771W        W71244  12.679  32.950  11.423
 2772W        W71245   1.942  27.180  11.447
 2773W        W71246  18.626  23.990  12.026
 2774W        W71247  33.522  15.322  13.510
 2775W        W71248  28.044  27.556   3.842
 2776W        W71249  29.062   3.801  13.453
 2777W        W71250  13.743   0.926   3.781
 2778W        W71251  21.684   9.731  13.392
 2779W        W71252  26.177  21.615   0.422
 2780W        W71253   0.843  24.170   2.684
 2781W        W71254  13.608   4.836  13.057
 2782W        W71255  35.903   3.951  13.467
 2783W        W71256  43.397  16.095  12.562
 2784W        W71257   2.722   2.370  13.507
 2785W        W71258  41.927   9.728   2.238
 2786W        W71259  31.587  39.039   1.746
 2787W        W71260  40.004  14.690   2.865
 2788W        W71261   6.292  25.570  10.405
 2789W        W71262  30.059   5.210   3.708
 2790W        W71263   3.896  30.051   2.747
 2791W        W71264  18.172  10.142  10.615
 2792W        W71265   9.649  21.120  10.549
 2793W        W71266  24.703  31.002  12.900
 2794W        W71267  24.706  13.183   4.310
 2795W        W71268  28.575   7.347  11.977
 2796W        W71269  24.045   2.378   4.796
 2797W        W71270  36.356   3.870  11.522
 2798W        W71271  29.062  42.890   0.389
 2799W        W71272  44.284  42.836  12.417
 2800W        W71273  10.140  24.658  14.919
 2801W        W71274  40.901  38.548   0.941
 2802W        W71275  33.464  23.186  12.861
 2803W        W71276  25.216  37.971  10.553
 2804W        W71277  24.976   4.295   3.205
 2805W        W71278  40.341  24.479  12.980
 2806W        W71279  22.033  10.739   4.155
 2807W        W71280  43.285   3.751  11.372
 2808W        W71281   2.406  10.843   4.764
 2809W        W71282  22.191  26.651  10.420
 2810W        W71283   9.292  25.131   4.621
 2811W        W71284  40.849   6.342   4.335
 2812W        W71285  29.564  19.189  12.907
 2813W        W71286  31.522  23.055   3.280
 2814W        W71287  25.168   1.306   0.483
 2815W        W71288  19.161  14.278  14.379
 2816W        W71289  13.823  31.588  12.560
 2817W        W71290  34.926  28.653  10.533
 2818W        W71291   5.755  25.553  11.381
 2819W        W71292   0.481  26.073  10.432
 2820W        W71293   6.200   2.813  13.370
 2821W        W71294  22.567  33.891   2.774
 2822W        W71295  41.476  23.607  14.315
 2823W        W71296  20.629  18.233  14.391
 2824W        W71297  13.733  14.114   1.350
 2825W        W71298   7.333  22.018  13.842
 2826W        W71299  41.926  23.124  12.054
 2827W        W71300   4.743  40.960   3.345
 2828W        W71301   4.253  43.892   3.766
 2829W        W71302  18.233  26.114  14.297
 2830W        W71303  30.156  14.787   1.753
 2831W        W71304  41.338  28.543   0.480
 2832W        W71305  14.744  22.053  11.936
 2833W        W71306  41.844  13.182  13.038
 2834W        W71307  43.987  33.034   2.729
 2835W        W71308  24.990  39.376  13.899
 2836W        W71309  19.646  21.038  13.326
 2837W        W71310   5.409  37.883  10.895
 2838W        W71311  40.826   9.884   1.749
 2839W        W71312  20.226  35.511   2.310
 2840W        W71313  21.195  41.507   2.669
 2841W        W71314   1.282  11.282   2.890
 2842W        W71315  35.371  26.486  14.856
 2843W        W71316   8.709  18.052   3.306
 2844W        W71317   9.770  40.019  11.514
 2845W        W71318   5.424  36.969   1.864
 2846W        W71319  37.381  14.298   2.210
 2847W        W71320   3.860  39.488  14.370
 2848W        W71321  11.251   5.762   3.668
 2849W        W71322  40.827  43.842   0.482
 2850W        W71323   4.701   1.787  14.889
 2851W        W71324  19.249   1.380  14.356
 2852W        W71325  31.455  15.729   0.744
 2853W        W71326  35.965  10.177  12.480
 2854W        W71327  32.095  15.213  14.356
 2855W        W71328  10.330  21.730  11.386
 2856W        W71329  14.292   0.865  12.839
 2857W        W71330  14.197  38.904  12.951
 2858W        W71331  22.640  21.683  13.973
 2859W        W71332  41.352   9.667  14.344
 2860W        W71333   3.253  10.330  10.592
 2861W        W71334   1.967   3.901   1.830
 2862W        W71335  33.087  27.597   3.858
 2863W        W71336  18.561  33.907  10.509
 2864W        W71337  24.115   4.889   5.177
 2865W        W71338  21.662   4.277  11.460
 2866W        W71339  17.183  34.953  13.910
 2867W        W71340  42.783  11.308  14.506
 2868W        W71341   8.711   5.755  12.415
 2869W        W71342  13.123  41.863   3.335
 2870W        W71343  11.184   3.811   1.416
 2871W        W71344   1.828  38.841  11.580
 2872W        W71345  33.400  13.115  10.526
 2873W        W71346  21.731  34.973   4.340
 2874W        W71347   7.195  19.545   1.864
 2875W        W71348  18.673   3.914  13.003
 2876W        W71349  37.396  40.442   0.282
 2877W        W71350  15.720  32.933   4.300
 2878W        W71351  28.982  20.099  14.447
 2879W        W71352  13.174  22.133   3.161
 2880W        W71353  27.952  15.768  10.075
 2881W        W71354  44.944  29.157  13.335
 2882W        W71355  43.346  11.256  12.511
 2883W        W71356  16.108  36.042   3.682
 2884W        W71357  26.960  39.053  12.558
 2885W        W71358  16.797  14.175  12.370
 2886W        W71359   2.466  38.368   2.347
 2887W        W71360  29.082   6.341  14.304
 2888W        W71361   4.884  44.468   3.746
 2889W        W71362  41.325  38.947  13.379
 2890W        W71363  34.467  24.981   2.418
 2891W        W71364  38.037  29.993   3.304
 2892W        W71365  26.557  36.454  11.056
 2893W        W71366   8.888  29.596   0.753
 2894W        W71367  35.016  32.134   1.262
 2895W        W71368  39.938  21.594  13.016
 2896W        W71369  25.118  38.373   4.250
 2897W        W71370   6.272  29.543   1.286
 2898W        W71371  38.415   0.297  10.442
 2899W        W71372   1.791  25.680  14.854
 2900W        W71373   9.645  23.575   0.315
 2901W        W71374  38.423   8.262  11.428
 2902W        W71375  16.626  31.474  12.862
 2903W        W71376   2.244  38.388  12.859
 2904W        W71377  32.035  31.528  11.921
 2905W        W71378  22.662   4.275  13.961
 2906W        W71379   2.928  33.066   1.350
 2907W        W71380   8.369  35.396   1.407
 2908W        W71381  40.359   6.831   1.322
 2909W        W71382   0.366  19.548  10.520
 2910W        W71383   4.713   4.440   2.822
 2911W        W71384  11.369  19.773   2.830
 2912W        W71385  18.693  30.518  12.393
 2913W        W71386  23.135  42.317   3.855
 2914W        W71387  36.895  12.843   3.657
 2915W        W71388  32.496  29.066   4.205
 2916W        W71389  41.809  10.664  10.906
 2917W        W71390  22.059  11.212   3.226
 2918W        W71391  12.646   6.776   0.910
 2919W        W71392  24.216  32.622  14.937
 2920W        W71393  25.145  31.420  11.015
 2921W        W71394  32.499   7.896   1.793
 2922W        W71395  38.472  40.829  11.384
 2923W        W71396  43.462  21.531   4.642
 2924W        W71397  39.376  40.017   2.293
 2925W        W71398   6.828  18.075   2.215
 2926W        W71399  24.486  26.464   1.383
 2927W        W71400  17.752   0.255   3.704
 2928W        W71401  25.056  10.761  12.483
 2929W        W71402  18.691  44.949  13.963
 2930W        W71403  25.708  20.041   3.385
 2931W        W71404  39.908  20.666   2.675
 2932W        W71405  21.667  12.786   4.293
 2933W        W71406  14.607  28.073   0.904
 2934W        W71407   6.328  30.576   5.135
 2935W        W71408  36.910  27.121  13.015
 2936W        W71409  35.886  23.667   2.326
 2937W        W71410  10.636   4.807   1.409
 2938W        W71411  14.332  28.166   5.200
 2939W        W71412  29.574  19.572  14.970
 2940W        W71413  39.915  32.939  13.985
 2941W        W71414  18.130   8.864   1.777
 2942W        W71415  33.124   5.381   4.804
 2943W        W71416   3.781  25.489  13.981
 2944W        W71417  21.553   7.886   2.329
 2945W        W71418  31.968  26.192   3.782
 2946W        W71419  16.589  40.931  10.441
 2947W        W71420   6.392   4.263  14.509
 2948W        W71421  19.717  40.476  14.304
 2949W        W71422  37.485  26.995   1.918
 2950W        W71423  18.263  39.931  12.887
 2951W        W71424  38.484  11.740   0.418
 2952W        W71425   9.862  39.524  11.126
 2953W        W71426  13.305  12.685  11.599
 2954W        W71427  12.289   1.459   3.356
 2955W        W71428  36.348  29.173  10.116
 2956W        W71429   7.220  26.478   2.893
 2957W        W71430   9.167   2.424  13.506
 2958W        W71431  15.750  40.493   5.770
 2959W        W71432  14.116  36.567   5.088
 2960W        W71433  32.394  29.637   4.117
 2961W        W71434  38.518  33.443  12.866
 2962W        W71435  15.743  21.585   0.804
 2963W        W71436   3.338  23.546  10.422
 2964W        W71437  42.517   0.853   4.124
 2965W        W71438  25.118  26.189   1.398
 2966W        W71439   1.751  32.018   2.715
 2967W        W71440  32.052  31.086   2.393
 2968W        W71441  26.520  15.728  13.833
 2969W        W71442  13.259  23.685  13.464
 2970W        W71443   0.284   0.917   2.325
 2971W        W71444  28.676  17.566  12.092
 2972W        W71445  28.476  20.154   4.646
 2973W        W71446  42.807   9.270   5.282
 2974W        W71447  40.862  40.353   1.832
 2975W        W71448   5.222  33.024   4.717
 2976W        W71449  20.621   5.225   4.679
 2977W        W71450  22.140  34.432   3.257
 2978W        W71451  32.593   3.454  12.907
 2979W        W71452  41.473  39.523  11.972
 2980W        W71453  42.944  35.424   2.663
 2981W        W71454  12.685  36.040  14.970
 2982W        W71455  44.443  16.649  12.848
 2983W        W71456  11.263   9.269   2.684
 2984W        W71457  27.966   3.263  10.450
 2985W        W71458  16.148  32.405  13.039
 2986W        W71459  35.453  29.603  13.396
 2987W        W71460  14.220  28.643  11.892
 2988W        W71461  36.426  20.233   2.667
 2989W        W71462  28.981  17.645  10.630
 2990W        W71463  35.075  26.059   4.302
 2991W        W71464  39.317  10.178  14.825
 2992W        W71465  16.648  42.302  11.013
 2993W        W71466  17.734  10.353  10.137
 2994W        W71467  21.601   8.763  14.856
 2995W        W71468   9.342  27.075   3.700
 2996W        W71469  16.638   7.832   2.256
 2997W        W71470  12.611  32.417   4.722
 2998W        W71471   9.151  25.031   3.773
 2999W        W71472  42.379  41.438   0.366
 3000W        W71473  26.701  19.087   4.675
 3001W        W71474  40.533  32.053  10.494
 3002W        W71475  39.890  25.535   2.674
 3003W        W71476  12.737  10.775  13.535
 3004W        W71477  15.090  38.519  13.806
 3005W        W71478  16.636  28.632   2.895
 3006W        W71479   3.245  39.548  10.543
 3007W        W71480  22.553  10.795  13.852
 3008W        W71481   2.387  14.235   9.936
 3009W        W71482   2.877  38.980  13.842
 3010W        W71483  12.254  16.596   1.820
 3011W        W71484   2.794  20.260  10.509
 3012W        W71485  18.645  28.053  10.016
 3013W        W71486  17.153  34.411   2.883
 3014W        W71487   6.251  20.079   2.418
 3015W        W71488  20.083  38.467  10.427
 3016W        W71489   8.654  29.432   3.369
 3017W        W71490  41.840  34.369  14.341
 3018W        W71491  29.142  33.108  12.964
 3019W        W71492  44.939   2.822  12.052
 3020W        W71493  27.596  10.797   0.289
 3021W        W71494  14.195  38.883   0.374
 3022W        W71495  38.379  12.152   2.343
 3023W        W71496  10.218  34.394  12.345
 3024W        W71497  27.677  10.220   0.855
 3025W        W71498  40.862   4.833   3.779
 3026W        W71499  33.526  33.605  12.075
 3027W        W71500   5.439  15.299  10.155
 3028W        W71501   2.795  16.163  11.386
 3029W        W71502  11.739  31.596   2.841
 3030W        W71503   5.392  12.698  12.542
 3031W        W71504  37.493  12.219   4.164
 3032W        W71505  30.981  38.022   3.342
 3033W        W71506   0.809  41.002   1.888
 3034W        W71507  41.419  17.179   2.335
 3035W        W71508  38.400  42.864   4.217
 3036W        W71509  22.041  38.826  12.432
 3037W        W71510  38.062  18.775  14.019
 3038W        W71511  24.704   5.237  14.299
 3039W        W71512   7.810   0.764  13.482
 3040W        W71513  26.648   2.949  11.509
 3041W        W71514   4.341  44.775  14.018
 3042W        W71515  43.382  28.043  12.407
 3043W        W71516  28.114  10.208  14.335
 3044W        W71517  28.540  41.802   4.309
 3045W        W71518  19.153   3.371   4.719
 3046W        W71519  31.417  24.156  12.359
 3047W        W71520   6.286  23.572   1.253
 3048W        W71521  34.918   8.334   2.348
 3049W        W71522  40.815  26.960   4.333
 3050W        W71523  16.143  28.038  13.048
 3051W        W71524  41.384  26.032   3.352
 3052W        W71525  39.902   8.829  12.089
 3053W        W71526   4.718   8.728  10.074
 3054W        W71527  40.837   8.886  12.092
 3055W        W71528  42.966   9.356   3.725
 3056W        W71529  43.506  18.655   2.384
 3057W        W71530   6.255  32.037   4.810
 3058W        W71531  18.672  10.806   1.906
 3059W        W71532   2.960  17.664  12.946
 3060W        W71533   2.827   7.698  13.889
 3061W        W71534  20.089   5.305   0.255
 3062W        W71535  33.445  30.522  11.089
 3063W        W71536  28.109  24.658  12.546
 3064W        W71537  37.845  31.623   0.457
 3065W        W71538  12.810  43.796   2.410
 3066W        W71539  27.459  15.765   4.233
 3067W        W71540  24.227  37.978  13.903
 3068W        W71541  43.379  21.036   3.244
 3069W        W71542  15.654  36.935   5.637
 3070W        W71543  17.729  12.262   1.797
 3071W        W71544  43.842   1.848  10.892
 3072W        W71545  37.878  21.661   2.900
 3073W        W71546   6.261  15.108   2.832
 3074W        W71547  24.088  28.440   4.337
 3075W        W71548  31.487  42.869   2.780
 3076W        W71549  11.678   1.944   4.268
 3077W        W71550  14.835  18.590  14.317
 3078W        W71551  20.072  20.569   2.783
 3079W        W71552  42.475  35.110   1.432
 3080W        W71553  23.689  11.678  13.384
 3081W        W71554  24.584   8.349  10.576
 3082W        W71555  27.103  13.238   2.235
 3083W        W71556  38.012  25.520   3.720
 3084W        W71557   7.678  24.989  12.057
 3085W        W71558   5.714  19.101  13.941
 3086W        W71559  37.410  12.762  11.415
 3087W        W71560  31.443  21.586  13.885
 3088W        W71561   3.867   6.293   2.887
 3089W        W71562   9.379   8.162   4.608
 3090W        W71563   9.330   4.339   2.385
 3091W        W71564  17.780  25.964   4.716
 3092W        W71565  16.611  44.352  13.540
 3093W        W71566  14.254  19.257  14.369
 3094W        W71567   9.215  28.529   0.849
 3095W        W71568  41.929  12.149  12.843
 3096W        W71569  30.474  34.423   3.347
 3097W        W71570   9.706  14.719   2.258
 3098W        W71571  24.641  16.135  11.600
 3099W        W71572  27.563   8.731  13.389
 3100W        W71573  36.951  33.063   2.732
 3101W        W71574  12.352  44.964  12.489
 3102W        W71575  31.149  44.873  13.942
 3103W        W71576   8.772  33.960  11.443
 3104W        W71577   7.356  13.680   2.262
 3105W        W71578  14.257  38.458   1.371
 3106W        W71579  43.826  20.727  14.921
 3107W        W71580  19.771   9.235   3.172
 3108W        W71581  18.660  36.493  11.439
 3109W        W71582  41.416  30.143  13.970
 3110W        W71583  42.836  24.526  10.512
 3111W        W71584  14.265  21.589   1.752
 3112W        W71585   9.314  43.385  10.621
 3113W        W71586   7.190  40.334   3.283
 3114W        W71587  21.076  36.417   0.419
 3115W        W71588  14.669  44.443   2.855
 3116W        W71589  24.104  39.315  11.984
 3117W        W71590  35.558  38.409  10.924
 3118W        W71591  42.957  18.721   1.830
 3119W        W71592   0.295  29.500   2.805
 3120W        W71593  17.729  11.832   0.408
 3121W        W71594  28.040  25.485   2.359
 3122W        W71595  17.663  29.451  12.374
 3123W        W71596  27.150   1.877  12.576
 3124W        W71597  26.562  16.282  12.362
 3125W        W71598  18.701  20.148  12.534
 3126W        W71599   7.739   0.986   2.799
 3127W        W71600   1.739  42.904   2.723
 3128W        W71601  43.287  25.680   3.640
 3129W        W71602  28.156  37.458  12.516
 3130W        W71603  35.531  23.143  11.381
 3131W        W71604   0.303  37.918   0.941
 3132W        W71605   8.716  25.993   1.354
 3133W        W71606   0.879   3.290  10.987
 3134W        W71607  38.551  42.022  13.051
 3135W        W71608  11.276  20.542   0.834
 3136W        W71609   7.760  29.068   2.757
 3137W        W71610  25.697  39.478  11.895
 3138W        W71611  40.877  24.637  12.091
 3139W        W71612  15.675  43.955  12.556
 3140W        W71613  20.098  23.024  12.372
 3141W        W71614  34.568  11.223  11.100
 3142W        W71615  40.046  34.112  12.941
 3143W        W71616  23.136   1.394   4.838
 3144W        W71617  30.550  40.841   0.890
 3145W        W71618   3.840  20.259   2.199
 3146W        W71619  24.598  35.028   1.244
 3147W        W71620  33.028  17.796   0.424
 3148W        W71621  35.489  43.366  10.553
 3149W        W71622   4.938  22.151  10.465
 3150W        W71623  36.478  15.770   3.325
 3151W        W71624  33.936   6.400   1.442
 3152W        W71625   3.223  13.654  10.968
 3153W        W71626  18.626  28.127   4.200
 3154W        W71627  32.620  19.232   0.836
 3155W        W71628  35.535  39.499   4.237
 3156W        W71629  14.246  24.154  11.480
 3157W        W71630   7.358  32.623  11.979
 3158W        W71631  26.999  36.569   2.731
 3159W        W71632  33.621  44.930   5.224
 3160W        W71633  19.199  22.530  14.876
 3161W        W71634   3.460   9.690  12.477
 3162W        W71635  43.956  33.425   0.745
 3163W        W71636  33.450  37.989  11.498
 3164W        W71637  18.742  29.151  13.334
 3165W        W71638  27.572  26.196   2.218
 3166W        W71639  38.487  43.865   2.855
 3167W        W71640  20.525  17.597  13.490
 3168W        W71641  26.042  10.313   3.363
 3169W        W71642   2.721  21.064  13.413
 3170W        W71643  23.178   6.884   0.399
 3171W        W71644  33.977   1.892   4.702
 3172W        W71645  20.092  19.050  14.390
 3173W        W71646  17.604  27.946   3.328
 3174W        W71647  29.065  42.952  10.407
 3175W        W71648  41.353  18.107   2.261
 3176W        W71649  42.361  31.489   4.231
 3177W        W71650  17.102  14.835   1.764
 3178W        W71651   7.210  18.295   0.361
 3179W        W71652  17.132  44.359  10.942
 3180W        W71653  37.507  23.693   2.380
 3181W        W71654  28.181   7.187  11.596
 3182W        W71655  17.780  38.007   4.743
 3183W        W71656  29.586  14.768  14.886
 3184W        W71657   5.885  15.118   4.159
 3185W        W71658   3.412   9.819  11.891
 3186W        W71659  42.794  14.731  11.374
 3187W        W71660  43.448   3.323  11.082
 3188W        W71661  36.043   1.256  10.953
 3189W        W71662  33.550  13.650  14.803
 3190W        W71663   0.748  32.480  14.871
 3191W        W71664  13.273  12.636  14.292
 3192W        W71665  33.909   6.277  14.363
 3193W        W71666   5.346  16.673   3.163
 3194W        W71667  39.991  39.353   4.171
 3195W        W71668  22.139  21.207  14.293
 3196W        W71669  40.415  13.168   1.885
 3197W        W71670  37.911   2.850   1.817
 3198W        W71671  37.932  16.681   4.116
 3199W        W71672   5.224  15.652  13.012
 3200W        W71673  36.092   4.738   2.272
 3201W        W71674  12.231  15.103  14.912
 3202W        W71675  34.080  39.877  12.933
 3203W        W71676  34.600  10.139  11.901
 3204W        W71677  34.508  15.700   2.731
 3205W        W71678  31.403  39.526  10.945
 3206W        W71679  37.993  16.249  13.830
 3207W        W71680  40.331   9.207  10.406
 3208W        W71681  21.120  14.254  10.891
 3209W        W71682   5.701  42.413   4.701
 3210W        W71683  38.394  27.520   0.440
 3211W        W71684  22.737  43.282  13.820
 3212W        W71685  26.088  28.145   2.828
 3213W        W71686  43.996  20.118  12.057
 3214W        W71687   9.767  16.305  14.956
 3215W        W71688   4.409  31.421   1.269
 3216W        W71689   0.864  37.463  11.462
 3217W        W71690   7.728   7.905   2.746
 3218W        W71691  40.529  17.696  10.906
 3219W        W71692  31.009  22.598  14.404
 3220W        W71693  40.427  13.756  12.040
 3221W        W71694  11.202  12.711  14.349
 3222W        W71695  30.041  25.174  14.471
 3223W        W71696  26.049   5.831  13.850
 3224W        W71697  25.049  37.446   0.750
 3225W        W71698   3.411  28.929  12.970
 3226W        W71699  32.064  20.138   2.673
 3227W        W71700   0.911  16.085  12.993
 3228W        W71701   7.669  29.174  10.486
 3229W        W71702  33.002   6.352   3.668
 3230W        W71703  33.496  10.773  11.063
 3231W        W71704  30.524  32.422   2.356
 3232W        W71705   7.811  36.567  14.949
 3233W        W71706  16.183   9.775  13.395
 3234W        W71707  13.606  12.686   1.305
 3235W        W71708  23.159   4.413   3.741
 3236W        W71709  12.829  31.420   3.667
 3237W        W71710  34.965  11.830   4.355
 3238W        W71711  33.519   8.374   1.411
 3239W        W71712  27.087  10.726   0.756
 3240W        W71713   3.893  38.036   1.756
 3241W        W71714  12.829  26.682   0.344
 3242W        W71715  10.230  39.947   2.413
 3243W        W71716  14.789  39.558  13.456
 3244W        W71717  25.691  23.108  12.539
 3245W        W71718  33.417  38.456   1.246
 3246W        W71719  17.100   3.801  14.364
 3247W        W71720   0.930  14.146   4.814
 3248W        W71721  38.373  15.313   2.278
 3249W        W71722  33.577   4.944   4.264
 3250W        W71723   5.754  13.701   0.390
 3251W        W71724  31.575  25.983  13.949
 3252W        W71725  17.627   3.399  14.880
 3253W        W71726  10.859  20.569  13.528
 3254W        W71727  15.813  43.974   3.255
 3255W        W71728  31.097  30.033  11.563
 3256W        W71729  20.752  43.396  14.792
 3257W        W71730  11.652   2.286   1.887
 3258W        W71731   1.955  29.483   0.458
 3259W        W71732  11.288   6.261  14.772
 3260W        W71733   0.471  34.478   2.311
 3261W        W71734  13.844  30.048  13.899
 3262W        W71735  21.690   2.464   3.861
 3263W        W71736  10.877  21.135  14.943
 3264W        W71737  39.026  39.848  12.371
 3265W        W71738  15.715   1.764   4.113
 3266W        W71739  40.961  30.543  11.074
 3267W        W71740  37.359  37.854   1.390
 3268W        W71741   5.801  34.995   0.783
 3269W        W71742  43.768  22.233   4.682
 3270W        W71743  22.672   7.712  11.953
 3271W        W71744  33.894  32.085   2.677
 3272W        W71745  40.899  23.576  13.814
 3273W        W71746  19.557  10.663   3.301
 3274W        W71747  14.682  23.048   3.242
 3275W        W71748  37.532  29.501   1.332
 3276W        W71749  38.457  19.055   1.708
 3277W        W71750  35.083  27.002  13.345
 3278W        W71751  39.499   6.366  10.515
 3279W        W71752  25.528  27.593   1.418
 3280W        W71753   4.372  17.632   2.314
 3281W        W71754  24.201  44.827  12.068
 3282W        W71755  27.088  23.641  14.025
 3283W        W71756  41.516   8.776   1.232
 3284W        W71757  12.733  34.947   2.681
 3285W        W71758   7.862  32.458  14.991
 3286W        W71759  42.472   6.274   3.369
 3287W        W71760  18.125  30.920  14.455
 3288W        W71761  42.868  23.588   0.918
 3289W        W71762  27.006  23.178  13.985
 3290W        W71763  43.928  20.095  11.458
 3291W        W71764  10.172  28.631   1.903
 3292W        W71765  37.837  32.916  11.587
 3293W        W71766  36.879  17.684   3.332
 3294W        W71767  14.799   0.803  11.451
 3295W        W71768   9.372  37.532  14.897
 3296W        W71769  40.803  44.008  13.478
 3297W        W71770   5.851  18.601   2.354
 3298W        W71771   3.294  37.581   1.371
 3299W        W71772  24.527   0.894   4.605
 3300W        W71773  31.585  10.712   3.679
 3301W        W71774  27.121  18.723  12.567
 3302W        W71775  28.041  23.092  13.019
 3303W        W71776  14.201   8.382  11.534
 3304W        W71777  31.044  36.854  11.455
 3305W        W71778  14.781  14.833   0.416
 3306W        W71779  23.188  16.624  12.375
 3307W        W71780  31.930  21.109   1.895
 3308W        W71781  38.015   5.297   0.951
 3309W        W71782  25.117  30.534   3.857
 3310W        W71783  43.989   4.883   1.858
 3311W        W71784  43.821  35.401   1.342
 3312W        W71785   2.409  33.512  13.809
 3313W        W71786   7.836  20.604   3.339
 3314W        W71787  23.697  12.140   1.344
 3315W        W71788  17.134  27.130   0.924
 3316W        W71789  12.194   3.336   1.918
 3317W        W71790  33.523   1.308  13.439
 3318W        W71791   8.711  19.614  10.015
 3319W        W71792   7.314  15.153   3.190
 3320W        W71793   5.752  43.483   1.831
 3321W        W71794  10.330  15.786   2.294
 3322W        W71795  19.766   4.742  12.020
 3323W        W71796   8.840  18.767  11.458
 3324W        W71797  12.729  11.832   2.197
 3325W        W71798  26.187   7.330  11.012
 3326W        W71799  32.413   0.465   4.646
 3327W        W71800  12.639  35.948  11.085
 3328W        W71801  35.079   2.408  10.439
 3329W        W71802   7.873   7.780  12.055
 3330W        W71803  11.251  40.831  11.023
 3331W        W71804  17.141  43.303  11.407
 3332W        W71805  24.721  27.177  14.800
 3333W        W71806  40.932   9.809  10.963
 3334W        W71807  43.912  34.445   3.306
 3335W        W71808  29.032  27.668   4.660
 3336W        W71809  44.449  27.623  13.880
 3337W        W71810  20.048  31.088  11.005
 3338W        W71811  11.688  29.038   4.251
 3339W        W71812  14.210  41.437   0.901
 3340W        W71813  15.698   7.878   2.845
 3341W        W71814   7.717   6.275   3.341
 3342W        W71815   0.836   7.821  12.905
 3343W        W71816  11.791  10.250   0.886
 3344W        W71817  15.706   5.276  12.989
 3345W        W71818  35.023   7.241  12.846
 3346W        W71819  11.253  10.159   3.149
 3347W        W71820  35.435  24.482  11.895
 3348W        W71821  27.477  30.908  14.470
 3349W        W71822   0.260  39.417   1.243
 3350W        W71823  32.000  31.100  11.936
 3351W        W71824   4.815  37.342  11.457
 3352W        W71825  38.945  20.075   3.723
 3353W        W71826  15.814  32.085  14.828
 3354W        W71827  10.165  43.437   3.666
 3355W        W71828  10.644  18.686  13.989
 3356W        W71829  34.490  20.595   0.472
 3357W        W71830  42.782  37.347  14.765
 3358W        W71831  38.483   9.733   2.775
 3359W        W71832  26.487  29.619   1.349
 3360W        W71833   4.345  11.278   4.285
 3361W        W71834  44.983  33.104  12.871
 3362W        W71835  34.547  28.986  10.450
 3363W        W71836  41.456  12.716  13.492
 3364W        W71837  18.587  40.862   2.340
 3365W        W71838  39.910  20.030   0.925
 3366W        W71839  17.592  25.580   3.829
 3367W        W71840   4.709   3.837  12.480
 3368W        W71841  40.859  42.425   0.419
 3369W        W71842   8.171  24.517   0.776
 3370W        W71843   0.322   3.418   0.801
 3371W        W71844  18.715  10.710   4.148
 3372W        W71845  17.573   0.416  12.870
 3373W        W71846  29.147  11.721  11.484
 3374W        W71847  35.936  40.471   0.815
 3375W        W71848  11.783  15.141  12.825
 3376W        W71849  43.804  15.234   1.321
 3377W        W71850   8.873  15.330  11.022
 3378W        W71851  16.671  34.938   4.674
 3379W        W71852  21.250  44.483   2.241
 3380W        W71853  27.064  30.553   5.124
 3381W        W71854  25.208   3.719   0.852
 3382W        W71855  20.597  23.083  13.529
 3383W        W71856  40.817  28.005   4.619
 3384W        W71857   5.284   0.383   0.744
 3385W        W71858  34.965  18.282   2.709
 3386W        W71859  40.316  25.101  11.538
 3387W        W71860  43.362   5.252  14.452
 3388W        W71861   3.805  14.704   4.786
 3389W        W71862  42.450  23.045  10.547
 3390W        W71863  37.498  21.668   0.301
 3391W        W71864  22.021  23.707   1.402
 3392W        W71865  32.563  24.142   4.203
 3393W        W71866  28.051  14.248   3.252
 3394W        W71867  28.498  15.116  10.494
 3395W        W71868  21.541  29.500   1.905
 3396W        W71869  14.803  33.625  12.415
 3397W        W71870   4.333  27.049  12.963
 3398W        W71871  35.366  30.598   3.656
 3399W        W71872   1.976   4.336  14.439
 3400W        W71873   5.433  43.785   0.447
 3401W        W71874  38.822  28.673   2.889
 3402W        W71875  27.569   6.421  11.554
 3403W        W71876  21.553   0.835   3.805
 3404W        W71877   5.926   9.883  11.067
 3405W        W71878  24.095  20.047  11.489
 3406W        W71879  22.571  26.600   2.668
 3407W        W71880   1.456  42.437   4.687
 3408W        W71881  36.941  28.169  12.944
 3409W        W71882  15.589  29.666  11.433
 3410W        W71883  42.012  30.090   3.236
 3411W        W71884  30.552  28.579  10.509
 3412W        W71885  21.163   8.771  11.552
 3413W        W71886  23.646  35.093   0.254
 3414W        W71887   6.912  12.653  12.884
 3415W        W71888  34.569  14.662  10.950
 3416W        W71889   0.285  37.965  11.574
 3417W        W71890  16.738  23.673   0.886
 3418W        W71891   2.741  25.655   0.422
 3419W        W71892  23.182  40.443  14.462
 3420W        W71893  25.067   1.790  13.448
 3421W        W71894  10.241  21.595   0.794
 3422W        W71895  38.017  23.137  13.533
 3423W        W71896  15.732  38.491  13.050
 3424W        W71897  24.061  42.465  14.793
 3425W        W71898   4.332   2.324   0.412
 3426W        W71899  32.424  13.659  10.921
 3427W        W71900  43.334  36.943   0.435
 3428W        W71901  35.924  30.453  14.384
 3429W        W71902  19.614   1.241  11.054
 3430W        W71903   7.772  14.116   5.268
 3431W        W71904  28.037  28.673  12.052
 3432W        W71905   6.221   1.900  12.578
 3433W        W71906   2.829   9.269  13.309
 3434W        W71907  28.120  30.955  11.923
 3435W        W71908  37.512   6.182   0.383
 3436W        W71909   4.854  27.115   2.805
 3437W        W71910  24.216  23.636  13.426
 3438W        W71911   4.363   3.956   0.429
 3439W        W71912  33.064  25.199   1.803
 3440W        W71913  22.622  18.134   2.807
 3441W        W71914  17.205  43.882  11.415
 3442W        W71915  24.663  21.645  12.884
 3443W        W71916  10.366   0.919  12.060
 3444W        W71917  21.659  27.539  10.958
 3445W        W71918  43.998  15.613   4.165
 3446W        W71919  32.399   0.867   3.378
 3447W        W71920  37.384  15.124   0.275
 3448W        W71921  42.877  13.648   3.667
 3449W        W71922  22.710  13.149   5.138
 3450W        W71923   7.177   7.698  14.904
 3451W        W71924  14.774  36.476  10.447
 3452W        W71925  40.955  35.878  13.918
 3453W        W71926  26.699   3.323  14.492
 3454W        W71927  14.600  21.687   3.187
 3455W        W71928  29.070  38.488  13.980
 3456W        W71929  26.472  41.952  14.936
 3457W        W71930  28.681  30.155  11.512
 3458W        W71931  38.895   5.858   2.669
 3459W        W71932  36.076  34.426  13.331
 3460W        W71933  16.132  11.183   4.138
 3461W        W71934  16.142  26.002   2.355
 3462W        W71935  15.160  42.497  11.600
 3463W        W71936  10.762  44.306  14.468
 3464W        W71937   1.332   6.346  11.128
 3465W        W71938  29.536  35.040  14.275
 3466W        W71939  24.159  20.671   0.771
 3467W        W71940  18.213   7.362  12.888
 3468W        W71941  37.550  13.785  11.935
 3469W        W71942  38.532  30.567  14.329
 3470W        W71943   2.447   9.390  13.497
 3471W        W71944  27.044  20.703  12.433
 3472W        W71945  19.575   3.443   3.354
 3473W        W71946  36.999  11.263  12.968
 3474W        W71947  21.680   0.325  10.567
 3475W        W71948  35.065  13.629  10.986
 3476W        W71949  29.170   0.366  13.960
 3477W        W71950   8.865  44.774   1.334
 3478W        W71951   7.406  16.783  12.581
 3479W        W71952  32.987  11.819  12.928
 3480W        W71953  27.098  42.012   1.433
 3481W        W71954  34.606  36.458   2.708
 3482W        W71955   1.416   8.249  14.320
 3483W        W71956  24.100  43.908  12.366
 3484W        W71957   8.735  36.079  12.986
 3485W        W71958  22.111  24.624  13.940
 3486W        W71959  16.249   1.369  10.946
 3487W        W71960   8.324  42.449   0.885
 3488W        W71961  21.172  10.359   1.739
 3489W        W71962   9.158   0.394  14.388
 3490W        W71963  29.995   1.881   0.902
 3491W        W71964  17.066  44.458   2.293
 3492W        W71965  20.643   3.361  10.411
 3493W        W71966  12.759  18.051  14.349
 3494W        W71967  16.594  33.533  11.486
 3495W        W71968  42.777  34.932   5.221
 3496W        W71969  38.405  25.580  11.906
 3497W        W71970  29.168  31.918  13.316
 3498W        W71971  27.675  35.373  12.547
 3499W        W71972  34.870  15.269   3.681
 3500W        W71973  38.372  44.781  14.460
 3501W        W71974  25.118   5.877  10.469
 3502W        W71975  27.577  35.595  12.979
 3503W        W71976  28.999  27.002  14.370
 3504W        W71977  21.134  26.976   4.274
 3505W        W71978  26.200  13.736   0.936
 3506W        W71979  34.080  22.530   0.281
 3507W        W71980   6.849  12.227  11.584
 3508W        W71981  42.928  41.920  10.585
 3509W        W71982  29.105  42.932  12.877
 3510W        W71983  33.887  32.892   4.789
 3511W        W71984  34.613   0.440  14.947
 3512W        W71985  36.895   4.225   2.668
 3513W        W71986  30.092  20.605   0.834
 3514W        W71987   9.842  22.130   4.180
 3515W        W71988  32.455  27.463   0.862
 3516W        W71989  42.965  44.761  12.512
 3517W        W71990   7.234   8.715  14.963
 3518W        W71991   6.768  28.467   3.202
 3519W        W71992  29.125  15.584   4.306
 3520W        W71993   7.834   4.358   1.256
 3521W        W71994  36.064   0.933   1.700
 3522W        W71995  36.853  40.382  14.278
 3523W        W71996   4.777  23.585  11.990
 3524W        W71997  35.596  43.442   4.285
 3525W        W71998   1.477  42.498   4.260
 3526W        W71999  22.013   2.806   0.245
 3527W        W72000  38.880   6.714  14.825
 3528W        W72001  31.944  31.506   0.299
 3529W        W72002   6.870  11.270  13.931
 3530W        W72003  38.057  42.459   1.423
 3531W        W72004  18.689  26.512  12.410
 3532W        W72005  41.954  17.166   2.865
 3533W        W72006   5.803  20.072   2.180
 3534W        W72007  13.276  21.561  10.963
 3535W        W72008   3.854   2.844   2.752
 3536W        W72009  38.525   2.320   1.902
 3537W        W72010  24.150  35.928   2.180
 3538W        W72011  22.013  37.046   0.393
 3539W        W72012   8.753   7.763   1.404
 3540W        W72013   2.875  36.365  13.873
 3541W        W72014  22.738  18.291   4.800
 3542W        W72015  17.092  15.655   2.764
 3543W        W72016  26.111   2.915   1.254
 3544W        W72017  40.942  12.652  12.994
 3545W        W72018  22.597   0.848  11.870
 3546W        W72019  18.290   5.277  10.627
 3547W        W72020  15.774  35.081   4.261
 3548W        W72021   6.721   5.288  10.544
 3549W        W72022   6.185   7.298  10.584
 3550W        W72023  28.637  28.656   0.244
 3551W        W72024  25.567   1.245   2.789
 3552W        W72025  39.378   8.721   4.605
 3553W        W72026  32.001   0.434   3.338
 3554W        W72027  26.110  43.391   5.237
 3555W        W72028  40.986  41.859  12.906
 3556W        W72029  32.891  11.173   4.138
 3557W        W72030  23.630  34.980  12.034
 3558W        W72031   7.909  18.237   0.804
 3559W        W72032   6.197  12.334  14.022
 3560W        W72033  31.576  32.573   0.753
 3561W        W72034  41.932  10.297   9.963
 3562W        W72035   7.211   4.234   4.269
 3563W        W72036  11.354  39.930  13.435
 3564W        W72037  19.156   6.788   3.379
 3565W        W72038   6.190  29.468  12.897
 3566W        W72039  30.001  38.422  10.995
 3567W        W72040  25.978   4.404  13.965
 3568W        W72041  10.344  36.360   0.793
 3569W        W72042  11.182   0.340   4.622
 3570W        W72043   5.352   4.248  13.391
 3571W        W72044  21.658  42.795   2.794
 3572W        W72045  43.833   0.252  14.951
 3573W        W72046  36.992  32.994  13.955
 3574W        W72047  27.956  15.790   1.389
 3575W        W72048  27.098  17.759  11.894
 3576W        W72049  40.514  42.027   3.810
 3577W        W72050  22.592   5.885   0.873
 3578W        W72051  17.565  22.248   0.256
 3579W        W72052  15.279  32.475  14.008
 3580W        W72053  20.179   9.721  11.099
 3581W        W72054  39.941  26.556   1.233
 3582W        W72055  24.527  32.501  14.791
 3583W        W72056  10.346  24.094  14.370
 3584W        W72057  43.424  22.556  13.835
 3585W        W72058  24.173  44.267   0.458
 3586W        W72059  17.604  17.088  11.443
 3587W        W72060  35.905  19.550   1.284
 3588W        W72061  34.473  32.959  11.393
 3589W        W72062   8.284  11.759   2.874
 3590W        W72063  23.734  26.504  10.979
 3591W        W72064  27.539  27.167   0.461
 3592W        W72065  31.010  36.491  10.922
 3593W        W72066   5.932  21.646  12.884
 3594W        W72067  38.845  41.364   3.173
 3595W        W72068  12.659  31.929  11.099
 3596W        W72069   6.861  15.145   3.360
 3597W        W72070  28.562  10.825  13.043
 3598W        W72071   6.907  31.007   3.357
 3599W        W72072  43.957   9.666   4.293
 3600W        W72073  25.021  23.570  10.623
 3601W        W72074  25.605   6.414  11.464
 3602W        W72075  40.514  12.304  13.872
 3603W        W72076  32.957   6.796  10.623
 3604W        W72077  36.976  41.793  11.971
 3605W        W72078  15.730   1.798   3.847
 3606W        W72079   5.777  10.232  14.408
 3607W        W72080   0.454  20.729   0.926
 3608W        W72081  15.590   1.735   4.789
 3609W        W72082  44.439  37.516  14.814
 3610W        W72083  32.435  25.475  11.522
 3611W        W72084  25.696  27.100   1.840
 3612W        W72085   7.275  27.149  12.498
 3613W        W72086  13.187   0.323   2.378
 3614W        W72087   0.750  10.282  14.404
 3615W        W72088  13.149  28.506   3.793
 3616W        W72089  28.001  33.460  14.438
 3617W        W72090  15.769  23.540  14.432
 3618W        W72091  33.589   6.241   2.826
 3619W        W72092  13.283  32.083   3.368
 3620W        W72093  27.994  30.566   0.352
 3621W        W72094  37.999  38.538   2.374
 3622W        W72095   3.363   3.771  12.561
 3623W        W72096  20.138  36.968  11.875
 3624W        W72097  24.169  29.133  13.401
 3625W        W72098  39.414   9.304   4.640
 3626W        W72099  38.031  27.990   1.312
 3627W        W72100  11.673  28.611  14.941
 3628W        W72101  27.583  23.640   3.713
 3629W        W72102  21.748  11.174  11.089
 3630W        W72103  19.159   5.898  13.407
 3631W        W72104  15.114  37.977   1.253
 3632W        W72105  20.547   2.790   3.242
 3633W        W72106  11.746  19.700  11.031
 3634W        W72107  27.000  10.213  12.454
 3635W        W72108   2.802   8.388   4.325
 3636W        W72109   7.670  18.224   0.372
 3637W        W72110  41.800   4.938   0.325
 3638W        W72111   9.842  17.100  11.924
 3639W        W72112   0.805  12.756  13.468
 3640W        W72113  38.525  21.215   1.323
 3641W        W72114   8.853   1.926  11.116
 3642W        W72115  21.625   2.256   0.778
 3643W        W72116  14.830  41.452   3.735
 3644W        W72117  26.985  18.663  14.898
 3645W        W72118  32.068  28.986   1.288
 3646W        W72119  17.612  28.068  11.087
 3647W        W72120  24.111  11.318   0.397
 3648W        W72121  24.668  22.012  11.499
 3649W        W72122  20.158  33.473  13.962
 3650W        W72123   8.306   7.702   0.360
 3651W        W72124   2.434  18.106  12.980
 3652W        W72125   7.888   6.376   4.314
 3653W        W72126  25.518  16.706   0.886
 3654W        W72127  12.198  19.734   3.721
 3655W        W72128  25.185  11.344  12.529
 3656W        W72129  42.930  32.559   1.245
 3657W        W72130  39.423  29.128   0.828
 3658W        W72131  35.027   7.401  12.566
 3659W        W72132  42.030  29.476   5.276
 3660W        W72133  28.097  16.128   4.329
 3661W        W72134  18.641   3.381   4.304
 3662W        W72135  12.178  43.327  13.948
 3663W        W72136  32.986   2.416  12.408
 3664W        W72137  35.472   6.886  12.896
 3665W        W72138  38.048  33.922   1.358
 3666W        W72139  14.795  38.562  12.451
 3667W        W72140  41.404  14.747  13.855
 3668W        W72141  44.935  31.056  12.067
 3669W        W72142   5.228  12.649  13.309
 3670W        W72143  22.091  43.800   0.966
 3671W        W72144  43.825  43.463   0.952
 3672W        W72145   8.678  22.531   4.774
 3673W        W72146  26.485  17.170   0.782
 3674W        W72147  27.463  28.650   1.358
 3675W        W72148  27.064  11.327   4.696
 3676W        W72149   6.420  15.642  12.867
 3677W        W72150  38.071  22.702   1.433
 3678W        W72151  15.590  41.863   2.232
 3679W        W72152  27.457  43.391   1.921
 3680W        W72153  35.516   7.857  11.542
 3681W        W72154  26.968   3.945   2.299
 3682W        W72155  39.371  37.519  10.118
 3683W        W72156  21.137  40.434  13.022
 3684W        W72157   1.913  28.542  14.295
 3685W        W72158  17.725  41.988   0.893
 3686W        W72159   9.220   4.879   9.922
 3687W        W72160  25.606  36.424  11.053
 3688W        W72161  17.727  32.522   0.837
 3689W        W72162   2.418  33.109  14.995
 3690W        W72163  19.566  29.118  10.984
 3691W        W72164   1.954  23.728  12.026
 3692W        W72165   0.402  10.638  14.021
 3693W        W72166  39.529   4.338  12.011
 3694W        W72167   7.332  16.285  11.031
 3695W        W72168  22.533   7.171   3.338
 3696W        W72169   1.245  17.737  14.315
 3697W        W72170  36.412  35.924   3.701
 3698W        W72171  39.340   7.198  10.956
 3699W        W72172  10.724  14.757  13.018
 3700W        W72173  28.666  14.120   3.145
 3701W        W72174  32.576  35.403   3.693
 3702W        W72175  37.379  16.681   2.820
 3703W        W72176  41.518  43.917   3.855
 3704W        W72177  28.137  44.830  10.042
 3705W        W72178  24.140  39.480   1.256
 3706W        W72179  19.247   8.776  12.577
 3707W        W72180   2.416  26.050  14.839
 3708W        W72181  41.829  36.877  13.915
 3709W        W72182  11.220   7.181  13.966
 3710W        W72183  37.042  21.672  10.639
 3711W        W72184  28.459   6.806   3.697
 3712W        W72185  38.863  30.154   4.683
 3713W        W72186  36.481  15.608  13.880
 3714W        W72187   3.244  35.934  10.003
 3715W        W72188  31.434  12.121  11.921
 3716W        W72189  34.599  41.902  13.396
 3717W        W72190  16.138  11.308   4.831
 3718W        W72191  10.216  30.584  10.492
 3719W        W72192  24.522  14.214   0.930
 3720W        W72193  44.341  25.473  10.460
 3721W        W72194  32.931  14.761  11.118
 3722W        W72195  28.151  21.703   3.271
 3723W        W72196  34.937  34.615   9.930
 3724W        W72197  29.976  34.929  14.344
 3725W        W72198  36.005  25.017  11.427
 3726W        W72199  11.788  35.419  10.617
 3727W        W72200  35.949   9.831  11.965
 3728W        W72201  22.722  20.601   2.879
 3729W        W72202   9.690   0.951   1.792
 3730W        W72203  13.267  37.994   3.674
 3731W        W72204  41.930  38.349   3.323
 3732W        W72205   5.293  15.182  14.341
 3733W        W72206  25.122   4.792  13.479
 3734W        W72207  24.704  10.750  10.439
 3735W        W72208  39.355   0.832  12.046
 3736W        W72209  44.772  41.517   2.762
 3737W        W72210   1.455  37.439   2.756
 3738W        W72211   2.430  13.788   3.301
 3739W        W72212  14.612  20.182   2.332
 3740W        W72213  29.095  33.422   3.664
 3741W        W72214   3.389   0.437  11.872
 3742W        W72215  34.450  35.050   0.913
 3743W        W72216  12.157  21.662  13.949
 3744W        W72217  14.814  22.725  12.036
 3745W        W72218   7.400  16.298   3.258
 3746W        W72219  28.505   5.212  13.308
 3747W        W72220  11.243  16.244  11.522
 3748W        W72221  42.953   6.347  12.548
 3749W        W72222   3.937   7.675  13.060
 3750W        W72223   9.855  44.761  14.946
 3751W        W72224  41.428  20.630  13.822
 3752W        W72225   7.308  38.862  14.490
 3753W        W72226   6.726  10.672  14.800
 3754W        W72227  26.620   5.889  11.058
 3755W        W72228  36.370  21.060  12.513
 3756W        W72229  40.817  12.697   2.388
 3757W        W72230   9.872   0.401  11.490
 3758W        W72231  15.713  27.448   3.855
 3759W        W72232  29.946  36.575   1.818
 3760W        W72233  31.506  22.048  14.441
 3761W        W72234  36.092  33.416   3.183
 3762W        W72235  11.679   7.217   3.845
 3763W        W72236   0.833  42.833  11.936
 3764W        W72237  21.702  12.201  11.073
 3765W        W72238  22.164  28.113   0.761
 3766W        W72239  24.525  33.921  10.908
 3767W        W72240  19.714  25.705   3.750
 3768W        W72241  35.478   7.187   2.737
 3769W        W72242   9.376  24.008   3.198
 3770W        W72243  36.411  22.577   3.759
 3771W        W72244   7.350  24.212   3.209
 3772W        W72245  29.156   8.393  13.934
 3773W        W72246  27.098  42.907   2.798
 3774W        W72247  16.277  15.165  10.421
 3775W        W72248  10.707  39.326   2.820
 3776W        W72249  20.178  40.833   4.782
 3777W        W72250  26.008  32.587   3.779
 3778W        W72251   2.859  20.660  10.426
 3779W        W72252  22.243  28.131   4.141
 3780W        W72253  40.512  43.990   0.366
 3781W        W72254  15.782  34.442   0.262
 3782W        W72255  11.197   2.931   2.856
 3783W        W72256  21.139   0.273  14.768
 3784W        W72257  39.009  26.979  10.549
 3785W        W72258  11.708  36.451  11.027
 3786W        W72259   5.862  21.187  10.529
 3787W        W72260  32.429   1.902  13.530
 3788W        W72261  44.396  38.846   3.817
 3789W        W72262  18.775  21.118   4.704
 3790W        W72263  12.240  24.123  12.497
 3791W        W72264   0.778  19.059   2.411
 3792W        W72265  30.490  41.331  10.912
 3793W        W72266   2.862  21.654   1.803
 3794W        W72267  36.073  30.033  10.934
 3795W        W72268  29.590  23.512  12.861
 3796W        W72269  22.612  11.741  13.359
 3797W        W72270  36.404  25.688   3.847
 3798W        W72271  21.222   7.817  12.859
 3799W        W72272  41.505  15.683  11.009
 3800W        W72273  33.905  12.805  14.473
 3801W        W72274  44.789  31.574  11.114
 3802W        W72275   2.381  18.289   3.656
 3803W        W72276  39.842  13.607  13.335
 3804W        W72277  43.815  21.088  11.600
 3805W        W72278   2.773  19.133   0.950
 3806W        W72279   2.897   1.860  11.452
 3807W        W72280   1.926  33.575  11.025
 3808W        W72281   3.759  44.842  13.541
 3809W        W72282  29.982  13.236  11.551
 3810W        W72283  14.695  27.574  10.486
 3811W        W72284  11.209  19.141  11.896
 3812W        W72285  33.880  39.913   0.337
 3813W        W72286  22.622  35.076   2.885
 3814W        W72287   7.793   1.344  13.924
 3815W        W72288  37.370  14.737  13.512
 3816W        W72289  27.162   2.235   2.877
 3817W        W72290  30.487   7.246  10.515
 3818W        W72291  24.549  44.463   3.250
 3819W        W72292  21.739  25.974  13.890
 3820W        W72293  29.662  33.394   0.857
 3821W        W72294   5.765  21.642   4.282
 3822W        W72295  17.300   2.440  12.563
 3823W        W72296  19.551   8.255  11.122
 3824W        W72297  15.096   9.223  14.849
 3825W        W72298  36.432  13.161  12.392
 3826W        W72299   0.353   0.372  13.835
 3827W        W72300  21.627  20.184  13.897
 3828W        W72301  31.440   4.235   4.342
 3829W        W72302  39.506  21.737   3.209
 3830W        W72303   7.247  41.858  10.560
 3831W        W72304  30.500  34.012  11.517
 3832W        W72305   5.435  37.061   0.403
 3833W        W72306   9.242  29.129   1.425
 3834W        W72307  37.364   7.712   2.214
 3835W        W72308  26.652   0.375   3.309
 3836W        W72309  21.023  31.118   4.123
 3837W        W72310  21.055  31.937  14.307
 3838W        W72311  42.957  22.641   0.925
 3839W        W72312  41.940  35.873   0.849
 3840W        W72313  43.837  32.983   1.325
 3841W        W72314   6.372  31.631  12.923
 3842W        W72315  19.641  38.503  12.005
 3843W        W72316  29.481   2.445  12.068
 3844W        W72317  43.516  35.581  12.046
 3845W        W72318  43.991  38.901   2.185
 3846W        W72319  43.790   9.336  14.479
 3847W        W72320  37.959  34.950   2.182
 3848W        W72321   1.373  12.814  13.896
 3849W        W72322   9.252  26.993  14.830
 3850W        W72323  43.410  33.461  11.466
 3851W        W72324  21.159   5.697  11.891
 3852W        W72325  42.339  16.237  14.800
 3853W        W72326  34.006  32.116   3.325
 3854W        W72327  10.289  24.115  13.886
 3855W        W72328  26.480  38.050  12.548
 3856W        W72329  44.807  17.695   4.116
 3857W        W72330  29.560   4.912  14.769
 3858W        W72331  24.496  25.662  12.900
 3859W        W72332  27.979  35.492  14.016
 3860W        W72333  16.682  43.289   2.718
 3861W        W72334  44.412  25.043   4.206
 3862W        W72335   2.780  43.022   3.632
 3863W        W72336  36.535   4.722   4.291
 3864W        W72337  33.416  44.466   4.330
 3865W        W72338  11.621  10.679   4.664
 3866W        W72339  28.480  37.480   1.733
 3867W        W72340  41.020  27.193  11.004
 3868W        W72341   6.720   4.367   4.284
 3869W        W72342  15.705  22.649  12.893
 3870W        W72343   2.756  21.711  12.068
 3871W        W72344   0.963  14.750  13.861
 3872W        W72345   8.860  32.095  11.428
 3873W        W72346   4.297  43.865   0.268
 3874W        W72347  31.557  30.138  13.508
 3875W        W72348  10.203  22.019  14.824
 3876W        W72349  20.198  25.507  12.554
 3877W        W72350   7.377   6.257  10.577
 3878W        W72351  31.910  29.023  10.405
 3879W        W72352  18.590  25.991   3.276
 3880W        W72353  41.924   8.344   1.867
 3881W        W72354  38.911  11.717   1.234
 3882W        W72355   6.754  16.160  11.074
 3883W        W72356  34.475  11.676  10.993
 3884W        W72357  10.684  39.050   1.794
 3885W        W72358   1.436  23.603  11.464
 3886W        W72359  15.603  41.802  14.299
 3887W        W72360   4.319  16.737  13.334
 3888W        W72361  43.834  30.148  11.969
 3889W        W72362  25.085  17.112   0.419
 3890W        W72363  12.718   4.216   2.871
 3891W        W72364  41.029  35.531  11.422
 3892W        W72365  13.728  26.563  14.887
 3893W        W72366  21.716  29.557   1.291
 3894W        W72367   9.743  38.833   2.699
 3895W        W72368  42.460  29.502  12.468
 3896W        W72369   1.354  33.383  13.017
 3897W        W72370   1.733  37.465  14.834
 3898W        W72371  25.043  40.401   4.785
 3899W        W72372  40.884  27.620  10.943
 3900W        W72373  33.490  36.908  11.863
 3901W        W72374  16.578  29.525   2.254
 3902W        W72375  33.950   1.775  14.457
 3903W        W72376   2.437  15.197   3.258
 3904W        W72377  23.170  39.408  12.484
 3905W        W72378  14.631  25.014  12.913
 3906W        W72379  40.305  34.456  13.456
 3907W        W72380  18.572   6.910   2.299
 3908W        W72381  23.575  10.353   1.792
 3909W        W72382   6.875  29.172  13.452
 3910W        W72383  10.282  17.249   3.712
 3911W        W72384  10.189  13.676  14.466
 3912W        W72385  12.356  38.405   4.672
 3913W        W72386  24.076   6.383  13.048
 3914W        W72387  43.817   0.835  14.819
 3915W        W72388  21.627  13.722   2.758
 3916W        W72389  19.052   1.843   1.436
 3917W        W72390  44.446  25.550  13.914
 3918W        W72391  21.261   0.932  13.333
 3919W        W72392  14.193  17.697   0.776
 3920W        W72393  25.163  40.450  10.454
 3921W        W72394  16.792  10.849   3.358
 3922W        W72395  21.639  20.566   2.258
 3923W        W72396  12.710  38.562   0.962
 3924W        W72397  41.956  26.560   2.791
 3925W        W72398  30.129  34.086   4.774
 3926W        W72399   2.864   6.750  11.052
 3927W        W72400  15.818  33.993   0.759
 3928W        W72401  44.890   5.281   0.381
 3929W        W72402  29.971  35.907   0.434
 3930W        W72403  28.936  29.118   3.349
 3931W        W72404  25.679  35.091   4.676
 3932W        W72405  10.165  30.484   2.666
 3933W        W72406  21.062  39.042  14.775
 3934W        W72407  18.255  26.034   3.717
 3935W        W72408  36.361   5.837   2.348
 3936W        W72409  31.143   3.892   2.413
 3937W        W72410  33.023  42.020   1.767
 3938W        W72411  12.183  33.603  11.065
 3939W        W72412  36.573  11.194  11.111
 3940W        W72413   0.443  41.803   0.451
 3941W        W72414   6.864   5.716  12.464
 3942W        W72415  27.529  25.202  10.962
 3943W        W72416  32.055  24.529  13.882
 3944W        W72417   0.455  10.781   2.896
 3945W        W72418  32.052  18.228  10.535
 3946W        W72419  35.015  35.978  10.081
 3947W        W72420  17.626   8.733  13.948
 3948W        W72421  33.064  28.650  11.443
 3949W        W72422  27.015   0.268   2.290
 3950W        W72423   6.919  33.099  14.373
 3951W        W72424  12.846  30.556  10.642
 3952W        W72425  24.659  10.322  14.931
 3953W        W72426   8.858  17.572   1.843
 3954W        W72427   2.235  19.063  12.944
 3955W        W72428   8.371  24.585  10.891
 3956W        W72429  25.593   6.727  14.872
 3957W        W72430  28.512  21.526  11.528
 3958W        W72431  14.714  17.243  11.889
 3959W        W72432  38.470  39.370   0.921
 3960W        W72433  24.573  10.290   1.738
 3961W        W72434  10.291  12.259  14.349
 3962W        W72435  27.130   2.376  12.495
 3963W        W72436   9.861  36.849   1.424
 3964W        W72437  31.099  30.456  12.969
 3965W        W72438  41.021  27.561  11.913
 3966W        W72439  26.084   7.321  13.824
 3967W        W72440  25.606  14.119   3.749
 3968W        W72441  40.401  29.581   2.740
 3969W        W72442  11.229  30.493  10.924
 3970W        W72443  41.949  40.337  11.961
 3971W        W72444  40.367   1.391   0.827
 3972W        W72445  34.871  23.641   2.903
 3973W        W72446  13.801  21.158  12.956
 3974W        W72447  19.590  36.022   4.315
 3975W        W72448  41.476  34.991  14.011
 3976W        W72449   9.686  14.618   2.796
 3977W        W72450  20.762  29.510   1.394
 3978W        W72451  27.085  31.980  14.763
 3979W        W72452  11.293  33.484   2.695
 3980W        W72453  25.143  14.235  11.487
 3981W        W72454  40.807  37.580   3.255
 3982W        W72455  25.153  38.553  11.598
 3983W        W72456  36.052   3.774   1.900
 3984W        W72457  19.541  20.732   3.771
 3985W        W72458  15.202  40.860   4.757
 3986W        W72459  26.115  13.818  14.458
 3987W        W72460  17.785   5.321   0.400
 3988W        W72461  11.314   4.860  13.379
 3989W        W72462  42.479  27.450  11.985
 3990W        W72463   4.441   4.415   0.808
 3991W        W72464  13.208  10.779  14.288
 3992W        W72465  27.676  21.620  11.064
 3993W        W72466  22.654   3.735   1.875
 3994W        W72467  31.956  21.076  11.438
 3995W        W72468   7.739  12.650   3.309
 3996W        W72469   7.268  17.120   3.150
 3997W        W72470  28.037  32.505   1.744
 3998W        W72471  34.552  23.709   3.805
 3999W        W72472  37.924  37.541   1.789
 4000W        W72473  12.298  40.455   4.748
 4001W        W72474  26.484  17.212   1.735
 4002W        W72475  13.300   0.473   4.825
 4003W        W72476  43.296  13.209  10.528
 4004W        W72477   1.425   2.318  10.944
 4005W        W72478  36.409  16.148  13.438
 4006W        W72479  33.090  20.205  10.929
 4007W        W72480  42.817   4.397   0.784
 4008W        W72481  20.080  14.268  12.896
 4009W        W72482  35.380  21.113   3.687
 4010W        W72483  30.924   1.321  13.791
 4011W        W72484  12.126  36.440   2.267
 4012W        W72485  26.968  12.358   1.295
 4013W        W72486   5.894   7.690  11.484
 4014W        W72487  27.556  20.101   4.730
 4015W        W72488  28.511  22.087   2.739
 4016W        W72489  33.386   4.701   3.759
 4017W        W72490  28.525   4.366   4.698
 4018W        W72491  11.631  29.920   3.252
 4019W        W72492  36.897  26.043  12.554
 4020W        W72493  16.198   7.723  13.539
 4021W        W72494  25.143  10.870   3.246
 4022W        W72495   3.300  24.574   0.820
 4023W        W72496  17.680  22.177   3.357
 4024W        W72497   6.833   0.264  12.418
 4025W        W72498  13.763  26.058  11.891
 4026W        W72499  24.106  26.609  11.431
 4027W        W72500  28.989  38.480  10.921
 4028W        W72501  21.538   0.393   0.775
 4029W        W72502  44.953  34.964  11.559
 4030W        W72503  22.594  17.571   0.358
 4031W        W72504   1.825  15.258   0.809
 4032W        W72505   9.372  25.534  14.414
 4033W        W72506  12.707  22.577  14.945
 4034W        W72507   9.246  29.449   4.286
 4035W        W72508  22.629  32.997   1.313
 4036W        W72509   6.740   6.386  14.433
 4037W        W72510  29.030   6.299   0.357
 4038W        W72511  41.449   1.842   4.277
 4039W        W72512  16.176  11.798   2.265
 4040W        W72513  39.844  42.466   0.299
 4041W        W72514   0.926   6.760  14.425
 4042W        W72515  44.947  23.656   1.289
 4043W        W72516   7.208  37.981   4.831
 4044W        W72517   4.274  20.173   1.441
 4045W        W72518  43.804  32.453   2.758
 4046W        W72519  42.032  29.946   4.277
 4047W        W72520  20.721  26.988   3.766
 4048W        W72521   8.776  12.283   3.369
 4049W        W72522   4.356  12.130  13.863
 4050W        W72523  41.503  29.503  14.515
 4051W        W72524   3.363  38.527   0.280
 4052W        W72525   0.839  27.539   1.778
 4053W        W72526  37.478  10.334   2.741
 4054W        W72527  15.655  20.225  14.825
 4055W        W72528  43.508  33.999   1.861
 4056W        W72529   6.385   6.702   5.153
 4057W        W72530  42.794  16.670  12.850
 4058W        W72531  40.977  22.177  14.832
 4059W        W72532  23.554  40.475   4.771
 4060W        W72533  41.518  31.977  11.535
 4061W        W72534  24.212  15.592   2.371
 4062W        W72535  32.039   0.299  12.949
 4063W        W72536  12.651  11.163  11.074
 4064W        W72537   7.862  23.706  13.047
 4065W        W72538  28.151  21.153  12.824
 4066W        W72539  24.118   3.226   4.692
 4067W        W72540   6.694  43.906  10.522
 4068W        W72541  27.461  33.086  12.970
 4069W        W72542  38.041  37.444   2.243
 4070W        W72543  42.346  40.940  11.016
 4071W        W72544  40.978  24.624   2.823
 4072W        W72545  38.982   1.897   2.752
 4073W        W72546  15.658   0.980   2.265
 4074W        W72547  39.377  24.591   1.392
 4075W        W72548  40.503  43.793   2.695
 4076W        W72549  30.560   6.822  10.571
 4077W        W72550   0.747  42.999   0.737
 4078W        W72551  10.167  18.751  12.433
 4079W        W72552   7.880  35.966   0.861
 4080W        W72553   8.874  10.141  12.952
 4081W        W72554  15.208  13.296   3.645
 4082W        W72555   8.817  29.106  11.023
 4083W        W72556  10.240  14.770  11.431
 4084W        W72557  10.663   9.249   0.274
 4085W        W72558  10.141   8.329  13.309
 4086W        W72559  43.428   3.732  12.517
 4087W        W72560  15.717   5.210   0.245
 4088W        W72561   3.454  22.570   2.732
 4089W        W72562   8.707  16.199   3.799
 4090W        W72563   3.892  37.047  13.345
 4091W        W72564  22.596  42.859   4.808
 4092W        W72565  43.384  10.294   1.291
 4093W        W72566  32.530   8.226   3.284
 4094W        W72567   0.761  41.970  14.432
 4095W        W72568  28.443  44.320   0.859
 4096W        W72569  19.613  40.449  12.074
 4097W        W72570   0.296   2.934   1.752
 4098W        W72571  13.284  25.658   0.270
 4099W        W72572  22.164   3.941  12.834
 4100W        W72573  43.982  15.785  12.056
 4101W        W72574  29.624  28.496  14.856
 4102W        W72575  30.478   9.353  14.511
 4103W        W72576  32.070   7.840  10.640
 4104W        W72577   2.393  41.448   4.650
 4105W        W72578   0.785  31.947   0.761
 4106W        W72579   7.668  37.386  11.119
 4107W        W72580  13.114  24.043  11.483
 4108W        W72581  41.878  13.703  11.597
 4109W        W72582  13.308  25.559  11.929
 4110W        W72583  25.529  15.703  11.412
 4111W        W72584  36.409  14.120   5.219
 4112W        W72585  27.486  24.586  13.421
 4113W        W72586  38.036  21.592   0.253
 4114W        W72587  28.938  12.823   3.654
 4115W        W72588   4.264  14.594  11.016
 4116W        W72589  27.481  27.953   4.683
 4117W        W72590  18.212  42.451   4.705
 4118W        W72591   7.296  36.504   3.680
 4119W        W72592  14.626  14.683  12.899
 4120W        W72593  43.490  11.849  13.531
 4121W        W72594  13.334  43.829  12.909
 4122W        W72595  23.090  39.886   1.755
 4123W        W72596   4.796   9.164  10.500
 4124W        W72597   0.411  24.143  12.087
 4125W        W72598  24.575   7.797   3.804
 4126W        W72599   3.386  22.198  14.805
 4127W        W72600  12.300  25.986  12.570
 4128W        W72601  10.649  30.597  11.092
 4129W        W72602  29.657   1.871   0.249
 4130W        W72603  40.474  25.578  14.381
 4131W        W72604   9.252  23.543   1.399
 4132W        W72605  29.564  35.409   3.782
 4133W        W72606  20.072  37.354   4.710
 4134W        W72607   4.759  41.484   1.383
 4135W        W72608  11.643  35.598   2.811
 4136W        W72609  35.952  17.221  12.067
 4137W        W72610  36.486  22.187   2.731
 4138W        W72611  22.685   7.668  14.767
 4139W        W72612  39.913  44.790   4.660
 4140W        W72613  30.113   0.415   0.455
 4141W        W72614  23.209  28.512   9.532
 4142W        W72615   9.201  26.665  13.863
 4143W        W72616   5.869  13.143  14.979
 4144W        W72617  39.413  26.507  11.927
 4145W        W72618   3.891  27.188  14.345
 4146W        W72619  35.973  26.171  11.508
 4147W        W72620  10.361   0.404   0.405
 4148W        W72621  19.667  40.897   4.278
 4149W        W72622  10.312  25.038   5.213
 4150W        W72623  34.505  32.909   1.781
 4151W        W72624  28.948   7.782   2.365
 4152W        W72625  37.870  39.876   0.381
 4153W        W72626  29.613  35.544  10.507
 4154W        W72627  29.506  22.057  14.508
 4155W        W72628  18.599   6.214  10.902
 4156W        W72629   9.695  17.727  14.790
 4157W        W72630  29.088  40.307   3.734
 4158W        W72631  37.484   6.743  14.005
 4159W        W72632  27.537  28.936   3.748
 4160W        W72633  43.834   6.375   3.232
 4161W        W72634  12.628   7.224   3.354
 4162W        W72635  41.810   1.862   1.237
 4163W        W72636  38.509   0.399   0.470
 4164W        W72637  14.681   1.423  14.392
 4165W        W72638   2.910  32.986  11.043
 4166W        W72639  10.300  12.151  10.563
 4167W        W72640  27.080  17.197   1.906
 4168W        W72641  20.169   7.845  13.812
 4169W        W72642  31.119  25.518   3.364
 4170W        W72643  35.431  19.169   4.193
 4171W        W72644  18.708  14.119   0.893
 4172W        W72645  41.806  15.255   3.194
 4173W        W72646  24.692  11.622   4.122
 4174W        W72647   4.753  33.037   4.297
 4175W        W72648  39.519  17.163  10.558
 4176W        W72649  16.660  23.491   0.482
 4177W        W72650   9.859  23.090   3.868
 4178W        W72651   9.188  33.031  11.425
 4179W        W72652  27.462  19.157  11.419
 4180W        W72653  25.152  40.014  12.396
 4181W        W72654  37.883   1.886   4.167
 4182W        W72655  39.950  40.521   0.895
 4183W        W72656   9.150  35.581  11.019
 4184W        W72657  37.885  36.475  13.330
 4185W        W72658  10.252   3.319   3.834
 4186W        W72659  17.282  15.798   3.379
 4187W        W72660   4.244   3.242   4.190
 4188W        W72661  42.363  16.072  12.462
 4189W        W72662  40.828  41.415   2.269
 4190W        W72663  42.456  14.183   0.289
 4191W        W72664  19.626  30.136   0.866
 4192W        W72665  39.854  32.896   1.729
 4193W        W72666  25.513  14.757   2.790
 4194W        W72667  36.990  12.832  12.395
 4195W        W72668  14.118  37.030  10.989
 4196W        W72669  12.734   2.320  11.057
 4197W        W72670  16.730  43.003   4.238
 4198W        W72671  32.632  44.273   5.752
 4199W        W72672  28.553  17.654   0.275
 4200W        W72673  13.645  32.521  12.910
 4201W        W72674  42.965  41.474   1.768
 4202W        W72675   1.739  38.533  13.027
 4203W        W72676  34.404  19.676   0.453
 4204W        W72677  12.254  30.443   2.417
 4205W        W72678  33.554  15.110   3.307
 4206W        W72679   4.846  32.065   3.660
 4207W        W72680  25.704   1.940  12.083
 4208W        W72681  40.878  10.813  13.473
 4209W        W72682   6.736  26.107  14.487
 4210W        W72683  26.051  38.431  14.904
 4211W        W72684   6.922  14.732   5.081
 4212W        W72685  27.611   5.404   4.748
 4213W        W72686   2.896   7.753   2.697
 4214W        W72687  18.067  11.333  14.949
 4215W        W72688   1.859   3.774   2.864
 4216W        W72689  21.618  18.295  11.936
 4217W        W72690  23.112  11.768   2.800
 4218W        W72691  20.719  21.723  11.088
 4219W        W72692  34.063  32.600  11.908
 4220W        W72693  44.800  15.773  14.425
 4221W        W72694   3.327  44.758  10.491
 4222W        W72695   5.324  20.107   1.711
 4223W        W72696  11.340  28.126   0.912
 4224W        W72697   9.225  33.075  11.950
 4225W        W72698   6.901  15.172  13.831
 4226W        W72699  41.826  29.136  13.900
 4227W        W72700   1.419  20.597   3.152
 4228W        W72701  24.480  23.516   2.279
 4229W        W72702   6.856  15.606   1.802
 4230W        W72703  10.754   3.408  12.566
 4231W        W72704  37.873  15.248  12.951
 4232W        W72705  16.079   6.314  14.023
 4233W        W72706   1.843  16.654  12.067
 4234W        W72707   9.374  21.142  13.851
 4235W        W72708  11.253  31.970  14.509
 4236W        W72709  18.760  34.868  12.917
 4237W        W72710  41.511  42.411  12.036
 4238W        W72711  43.011  13.322  10.557
 4239W        W72712  10.157   6.402   0.481
 4240W        W72713  35.002  11.635   0.849
 4241W        W72714  31.597  32.540  14.814
 4242W        W72715   3.232  35.484   1.825
 4243W        W72716   1.471   7.869  12.395
 4244W        W72717  15.726  42.021   1.789
 4245W        W72718  34.874  15.147   2.827
 4246W        W72719  28.515  22.696   0.306
 4247W        W72720  16.662   6.314   4.678
 4248W        W72721  14.116   2.256  11.938
 4249W        W72722  40.546   1.411   1.908
 4250W        W72723   9.656  12.856   4.313
 4251W        W72724  38.910  24.130  13.904
 4252W        W72725  42.003  40.824  14.296
 4253W        W72726  37.003  40.318  10.906
 4254W        W72727  31.514  40.424   0.483
 4255W        W72728  12.726   4.269  10.450
 4256W        W72729   6.381  32.392   1.223
 4257W        W72730  14.745  22.582   9.978
 4258W        W72731  13.657  20.536   4.243
 4259W        W72732  25.973  36.955   0.369
 4260W        W72733   4.249  17.568  10.935
 4261W        W72734  23.091  19.208   4.693
 4262W        W72735  31.041   2.769  13.885
 4263W        W72736  11.705  22.998   4.832
 4264W        W72737  19.594  38.887  10.990
 4265W        W72738  23.569  37.915  14.759
 4266W        W72739  10.165   6.406  10.496
 4267W        W72740  34.389  42.805  14.411
 4268W        W72741  31.025   7.353  13.943
 4269W        W72742   0.910  21.238  10.087
 4270W        W72743   5.301  41.308   0.243
 4271W        W72744  15.750  31.112  10.506
 4272W        W72745  36.538  44.883   2.690
 4273W        W72746  24.146  32.521  11.100
 4274W        W72747  29.064  21.641   4.632
 4275W        W72748  19.110   0.483  12.449
 4276W        W72749  25.597  19.208   0.335
 4277W        W72750  23.109  15.091   4.161
 4278W        W72751  10.383  39.393   0.959
 4279W        W72752  44.504  34.594  11.560
 4280W        W72753  42.945  37.906   3.178
 4281W        W72754  31.554  19.051   0.850
 4282W        W72755  21.731  21.699  14.510
 4283W        W72756  38.980  11.275  11.937
 4284W        W72757  29.934  23.121   2.236
 4285W        W72758  38.002   2.837   0.921
 4286W        W72759  34.371   7.341  11.104
 4287W        W72760  36.385  41.434  11.975
 4288W        W72761  15.134  44.964   4.233
 4289W        W72762  25.617  19.094   1.322
 4290W        W72763   5.807   1.955  13.029
 4291W        W72764  26.105   6.248   4.666
 4292W        W72765  31.636  38.500  11.122
 4293W        W72766  33.036   6.311  11.394
 4294W        W72767  14.331  41.350   3.367
 4295W        W72768  28.492  37.506  13.319
 4296W        W72769  43.975  41.502   4.796
 4297W        W72770  30.146  16.675  11.865
 4298W        W72771  22.244  42.885  14.425
 4299W        W72772   6.405  35.420   2.734
 4300W        W72773  29.166  33.033   4.180
 4301W        W72774  38.969  10.166   1.260
 4302W        W72775  13.782   0.787   3.185
 4303W        W72776  41.918  16.157  12.388
 4304W        W72777  33.516  32.020   5.218
 4305W        W72778  23.235   4.709   2.901
 4306W        W72779  44.316  38.569  12.041
 4307W        W72780   0.461  16.242  12.538
 4308W        W72781  15.171  25.080   2.878
 4309W        W72782  20.762   6.342  14.906
 4310W        W72783  35.498   6.701  11.928
 4311W        W72784  26.126  13.108   2.283
 4312W        W72785   0.340  32.623  13.482
 4313W        W72786  31.639  31.983  13.852
 4314W        W72787  43.798  32.572   0.302
 4315W        W72788  43.276  21.708  12.477
 4316W        W72789  37.418   7.310   1.297
 4317W        W72790  43.377  37.535   3.839
 4318W        W72791   8.741  19.271  13.818
 4319W        W72792  31.575   9.780   0.823
 4320W        W72793  35.049   5.301   0.915
 4321W        W72794  22.669   9.811   2.703
 4322W        W72795  22.581  41.035   2.335
 4323W        W72796  41.914  12.283   0.735
 4324W        W72797  36.461   1.760   2.366
 4325W        W72798  19.222  30.481  11.582
 4326W        W72799  20.760  20.229   0.429
 4327W        W72800   0.494  24.705   4.693
 4328W        W72801   1.343  43.912  13.916
 4329W        W72802  27.665  40.000  13.994
 4330W        W72803   6.214  43.938  11.904
 4331W        W72804  12.126  16.599   2.828
 4332W        W72805  26.156  27.985   4.226
 4333W        W72806   4.777  37.850   3.262
 4334W        W72807  40.359   9.844   4.829
 4335W        W72808  15.136  21.105   0.276
 4336W        W72809  15.170  39.504   4.245
 4337W        W72810  43.422  27.524  14.503
 4338W        W72811  13.219  18.765  14.853
 4339W        W72812  41.925   9.810  12.352
 4340W        W72813  26.625  20.683   2.196
 4341W        W72814  31.502  36.449  11.441
 4342W        W72815   7.377  41.456   1.224
 4343W        W72816  11.726  44.415   1.907
 4344W        W72817  33.544  24.705   0.778
 4345W        W72818  26.959   0.832  12.020
 4346W        W72819   6.228   1.389   1.777
 4347W        W72820  27.653  36.063  13.427
 4348W        W72821  26.610  38.543  14.934
 4349W        W72822  14.593  28.680   3.168
 4350W        W72823  25.140  37.057   1.748
 4351W        W72824  23.120  12.728  14.835
 4352W        W72825  12.754   5.705   4.637
 4353W        W72826   1.784  24.088  14.287
 4354W        W72827  16.696   3.906  11.855
 4355W        W72828  20.217   6.192   3.632
 4356W        W72829   0.974  44.486  12.456
 4357W        W72830  14.192  37.560  10.618
 4358W        W72831  28.177   5.918   2.267
 4359W        W72832  36.477  10.777  12.544
 4360W        W72833  16.613  37.023  12.492
 4361W        W72834  42.979  19.097   4.817
 4362W        W72835  44.486  44.279   3.340
 4363W        W72836  38.038   4.313  11.500
 4364W        W72837  41.011  21.151  14.421
 4365W        W72838  31.993  35.928  10.905
 4366W        W72839   4.933  21.590  14.928
 4367W        W72840  37.511  17.253  11.117
 4368W        W72841   0.777  31.439   2.751
 4369W        W72842  37.016   8.794   1.445
 4370W        W72843  15.819   4.703  10.504
 4371W        W72844  10.826  25.593  10.093
 4372W        W72845  21.526  39.560   0.396
 4373W        W72846  29.964  28.127   3.256
 4374W        W72847  19.765  38.538   2.381
 4375W        W72848   5.795   3.355  10.904
 4376W        W72849  44.349  33.598  12.386
 4377W        W72850  36.558  33.497   0.862
 4378W        W72851  23.547  22.138   2.882
 4379W        W72852  19.597  13.271   4.794
 4380W        W72853  34.448   8.237  14.338
 4381W        W72854  30.536  33.898   1.449
 4382W        W72855  18.174  39.062   1.254
 4383W        W72856  30.096  29.539  11.928
 4384W        W72857  12.212   2.323   1.409
 4385W        W72858  21.611  25.204   0.826
 4386W        W72859   1.862   4.346   4.232
 4387W        W72860  16.240  24.064   2.275
 4388W        W72861  27.548   3.947   4.302
 4389W        W72862  25.970  38.932  11.509
 4390W        W72863  42.296  17.290  11.533
 4391W        W72864   7.885   7.870   4.191
 4392W        W72865  35.408   5.715  11.929
 4393W        W72866  44.411  40.507   2.286
 4394W        W72867  33.484   8.163  11.090
 4395W        W72868  18.228  28.666  11.070
 4396W        W72869  28.624  36.542  13.856
 4397W        W72870  24.628   0.336  10.034
 4398W        W72871  29.062  38.454   1.286
 4399W        W72872  35.596  14.695  10.514
 4400W        W72873  12.846   8.714  12.521
 4401W        W72874  37.947  27.489  12.091
 4402W        W72875  42.883  16.229  11.420
 4403W        W72876  24.215  31.917  14.287
 4404W        W72877  44.963   8.285   3.679
 4405W        W72878   7.681   1.783   3.782
 4406W        W72879   8.859  11.778   2.810
 4407W        W72880  36.420  12.189  14.771
 4408W        W72881  37.559   5.319  11.870
 4409W        W72882  18.650  17.139   1.226
 4410W        W72883  17.707  25.145   1.929
 4411W        W72884   1.920  35.367  12.835
 4412W        W72885  23.710  10.767   4.175
 4413W        W72886  20.028  30.499  14.008
 4414W        W72887  14.598  11.658  12.493
 4415W        W72888  42.015  18.184   3.285
 4416W        W72889  31.992  20.190  12.005
 4417W        W72890  25.531   8.390  14.848
 4418W        W72891  14.127  35.399  11.949
 4419W        W72892  19.534  31.577   4.605
 4420W        W72893   3.274   1.843  11.114
 4421W        W72894  32.428  42.828  12.021
 4422W        W72895   0.332   1.872  13.874
 4423W        W72896   5.803  12.663  11.999
 4424W        W72897   2.776  34.967  10.533
 4425W        W72898   5.196  44.919  14.414
 4426W        W72899  37.970  25.669  11.875
 4427W        W72900  43.859  43.915   1.434
 4428W        W72901   8.723  35.881  11.864
 4429W        W72902  19.226  18.076   0.293
 4430W        W72903  27.534  34.941  13.366
 4431W        W72904  13.824  10.284  10.961
 4432W        W72905  44.927  22.663   4.151
 4433W        W72906   6.236  10.636  10.481
 4434W        W72907  13.690  17.636   1.283
 4435W        W72908  23.513  36.456   4.774
 4436W        W72909  18.703  18.580   3.692
 4437W        W72910  24.112  27.585   4.214
 4438W        W72911  22.676   2.454  10.531
 4439W        W72912   6.807  23.226   1.716
 4440W        W72913  41.989   7.335  14.422
 4441W        W72914  13.838  37.510  14.316
 4442W        W72915  15.710   7.367  13.873
 4443W        W72916   2.273  24.159  14.281
 4444W        W72917  10.144  36.871   2.218
 4445W        W72918   9.219  11.834   0.781
 4446W        W72919  25.586  21.717   4.831
 4447W        W72920   5.281   7.821  14.516
 4448W        W72921  29.661  28.981   0.288
 4449W        W72922  26.540  35.543  13.004
 4450W        W72923  23.718  34.525   2.776
 4451W        W72924  21.668  15.739   5.210
 4452W        W72925  43.408   7.708  12.442
 4453W        W72926  41.942  44.442  10.118
 4454W        W72927  11.714  28.676   1.766
 4455W        W72928  17.772   6.217  10.955
 4456W        W72929  34.481  15.286  14.779
 4457W        W72930   3.330   6.400   0.773
 4458W        W72931  21.066  28.048  14.855
 4459W        W72932   2.763  23.060   1.777
 4460W        W72933   5.365  40.402   3.256
 4461W        W72934  20.158  30.435  14.840
 4462W        W72935  26.011  35.907   1.389
 4463W        W72936  20.094  13.700   0.841
 4464W        W72937  10.191  23.167   1.313
 4465W        W72938  24.197   7.399   2.366
 4466W        W72939  42.376  29.112   2.835
 4467W        W72940  26.489   5.398   4.618
 4468W        W72941   4.771  34.005  13.522
 4469W        W72942  27.460  26.534   3.696
 4470W        W72943  23.524  21.577   0.859
 4471W        W72944  17.299  12.128  10.926
 4472W        W72945   7.773  40.887   1.321
 4473W        W72946  22.739  43.767  14.949
 4474W        W72947   6.906   8.220  14.944
 4475W        W72948  22.145   1.797   4.802
 4476W        W72949  15.601  26.169   3.807
 4477W        W72950  37.468   5.933   1.767
 4478W        W72951   4.762   8.790  13.478
 4479W        W72952  30.640  34.056   2.892
 4480W        W72953  12.618  42.950   2.774
 4481W        W72954  18.686  40.025   3.690
 4482W        W72955  44.425  38.045  10.942
 4483W        W72956   5.226  21.572  11.079
 4484W        W72957  34.515  34.004  14.394
 4485W        W72958  28.970  17.784  12.823
 4486W        W72959  26.462  39.534   2.188
 4487W        W72960   7.258   5.810  11.924
 4488W        W72961  12.350  10.833  12.423
 4489W        W72962  17.072  11.762   0.421
 4490W        W72963  32.988  22.720  13.355
 4491W        W72964   8.834  20.201  12.976
 4492W        W72965  33.383  23.696  11.398
 4493W        W72966  16.132  22.578   0.755
 4494W        W72967  22.022  43.968   1.249
 4495W        W72968   1.946  39.972   1.907
 4496W        W72969  42.815  35.009   3.834
 4497W        W72970   8.762  36.396  14.485
 4498W        W72971  40.864   0.875   1.231
 4499W        W72972   5.748  27.065   2.787
 4500W        W72973   1.252  42.913  12.413
 4501W        W72974   7.297  26.506   0.782
 4502W        W72975  36.580  34.900   3.154
 4503W        W72976  20.682  23.087   4.623
 4504W        W72977  15.118  21.556  10.955
 4505W        W72978   8.347   1.771  13.544
 4506W        W72979  15.668   3.849  11.591
 4507W        W72980  23.536  10.336   3.283
 4508W        W72981  35.919  14.111   1.316
 4509W        W72982  32.076  19.757  14.359
 4510W        W72983  43.512  25.538  12.514
 4511W        W72984  18.185   7.853  12.511
 4512W        W72985  23.595   4.850   0.750
 4513W        W72986  30.071  37.882  11.508
 4514W        W72987   8.350   5.934  10.027
 4515W        W72988  17.091  33.417   3.868
 4516W        W72989  30.455  20.553   3.344
 4517W        W72990  15.752   4.807  14.839
 4518W        W72991   8.375  13.142  14.509
 4519W        W72992  24.615   0.851   9.546
 4520W        W72993  12.135   7.273   4.128
 4521W        W72994   9.248  36.545  10.531
 4522W        W72995   6.380  27.600   2.717
 4523W        W72996   8.806  36.459  12.023
 4524W        W72997  29.522  42.308   3.743
 4525W        W72998  13.230  36.004  12.907
 4526W        W72999  22.718  30.979  11.395
 4527W        W73000   8.312  13.205  13.790
 4528W        W73001   1.455  29.951  10.593
 4529W        W73002  20.030  41.439  13.844
 4530W        W73003   7.342  35.426   1.862
 4531W        W73004  12.143  29.140   1.445
 4532W        W73005  20.661   6.360  12.955
 4533W        W73006  24.977  20.220  10.573
 4534W        W73007   2.358  30.088   4.722
 4535W        W73008  17.238   4.870   0.364
 4536W        W73009   9.313  42.013  13.522
 4537W        W73010  41.829   4.434   2.668
 4538W        W73011  34.087  11.319   0.918
 4539W        W73012  23.517  38.888  13.382
 4540W        W73013  20.127  15.291  11.939
 4541W        W73014  19.051  27.464  13.916
 4542W        W73015   3.804  16.288   4.317
 4543W        W73016  34.542  10.306   2.218
 4544W        W73017  11.756   6.744   2.741
 4545W        W73018  40.955   1.952  11.970
 4546W        W73019  36.495  20.708   1.419
 4547W        W73020  16.765  30.130   3.734
 4548W        W73021  32.629  17.697  11.375
 4549W        W73022  23.217  33.904  13.380
 4550W        W73023  30.958  25.527   4.670
 4551W        W73024   7.304  22.153  13.403
 4552W        W73025  12.709  43.425  14.006
 4553W        W73026  29.645   3.895  12.527
 4554W        W73027  39.396   3.850   1.395
 4555W        W73028  39.494  14.679   4.284
 4556W        W73029   8.727   6.353  10.566
 4557W        W73030  28.649  35.996   2.868
 4558W        W73031  18.182  37.343  10.966
 4559W        W73032   1.788  17.689  14.341
 4560W        W73033  14.266  10.826   0.800
 4561W        W73034  10.204  31.421   3.814
 4562W        W73035  36.390  17.230  14.792
 4563W        W73036  32.037   3.413   4.692
 4564W        W73037  33.002  15.287   3.842
 4565W        W73038   8.256  43.841   4.830
 4566W        W73039  24.048  40.898   2.713
 4567W        W73040  26.642  27.492   4.277
 4568W        W73041   8.201  25.604   0.801
 4569W        W73042  15.692  20.628   5.293
 4570W        W73043  20.655  26.050   1.859
 4571W        W73044   3.303  20.057  12.526
 4572W        W73045  21.213  30.969   4.614
 4573W        W73046   2.896   8.687  14.844
 4574W        W73047  16.116  22.631   4.767
 4575W        W73048  27.014   0.354  11.896
 4576W        W73049  31.138  25.528  12.485
 4577W        W73050   4.878  43.433   2.239
 4578W        W73051  35.407  29.961   2.854
 4579W        W73052  19.095   8.812  11.894
 4580W        W73053  30.985  10.145  14.430
 4581W        W73054  23.050   0.776   2.226
 4582W        W73055   6.762   1.820  11.011
 4583W        W73056   0.987  31.089   1.840
 4584W        W73057   1.966  25.126   1.325
 4585W        W73058  23.161  31.900   0.904
 4586W        W73059   4.388  40.326  12.873
 4587W        W73060   7.266  14.276  13.013
 4588W        W73061   4.245  22.688  12.856
 4589W        W73062  43.393  28.665   0.900
 4590W        W73063   9.854  24.038   0.327
 4591W        W73064  18.671  37.967  10.583
 4592W        W73065  23.021  20.113   3.690
 4593W        W73066   5.218  22.509  11.910
 4594W        W73067  16.577   6.262  14.877
 4595W        W73068  12.130  30.952   4.688
 4596W        W73069   4.722   1.433   4.626
 4597W        W73070  25.562  15.280   4.244
 4598W        W73071  30.959  34.119   0.966
 4599W        W73072  14.797   1.299  10.596
 4600W        W73073   8.891  32.413  10.522
 4601W        W73074   2.245  35.577  10.555
 4602W        W73075  16.080   8.212   3.264
 4603W        W73076  38.930  40.406  13.396
 4604W        W73077  42.476  32.030  13.822
 4605W        W73078  26.600  23.568  14.399
 4606W        W73079   8.779  32.075   1.366
 4607W        W73080  25.189  14.221   1.337
 4608W        W73081   2.839  34.536  14.994
 4609W        W73082  32.014  26.496   3.178
 4610W        W73083  23.171  26.564  11.389
 4611W        W73084  21.225  24.689   0.865
 4612W        W73085  20.167   7.717  14.938
 4613W        W73086  15.255  16.809   3.353
 4614W        W73087  12.269  30.977  10.445
 4615W        W73088   7.906  15.194   1.930
 4616W        W73089  42.868  32.617  11.497
 4617W        W73090  31.153   3.390  13.365
 4618W        W73091  25.138   1.900   2.828
 4619W        W73092  33.949   3.350  14.906
 4620W        W73093   0.911  17.764   3.758
 4621W        W73094   0.470   6.908  14.283
 4622W        W73095  13.304  11.151   2.726
 4623W        W73096  22.117  34.488  11.505
 4624W        W73097  19.600  40.838  14.383
 4625W        W73098  20.199   1.855   9.942
 4626W        W73099  14.800  12.734   2.236
 4627W        W73100   5.194  11.697   0.871
 4628W        W73101  10.786  14.296   0.736
 4629W        W73102  16.102  14.215   4.786
 4630W        W73103   8.195  22.666  11.923
 4631W        W73104   4.725  20.164  10.991
 4632W        W73105  16.252  32.905  12.454
 4633W        W73106  33.982   9.309   4.158
 4634W        W73107  23.096  23.560   1.933
 4635W        W73108  29.974   8.241   1.795
 4636W        W73109   3.750   0.471   4.787
 4637W        W73110  33.974  40.903  13.308
 4638W        W73111  35.469  44.263  13.322
 4639W        W73112  36.882  18.677   2.247
 4640W        W73113   6.860  39.496   0.258
 4641W        W73114  36.886   7.397  14.997
 4642W        W73115  30.607  11.787   4.777
 4643W        W73116  28.971  20.230   2.238
 4644W        W73117  14.709  32.938   2.373
 4645W        W73118  18.741  26.002   4.760
 4646W        W73119  29.496  10.710  11.107
 4647W        W73120  35.427  13.684  14.926
 4648W        W73121   4.898  17.172   2.689
 4649W        W73122  22.684  44.902   2.220
 4650W        W73123   2.467  11.278   2.251
 4651W        W73124  43.372  27.469   4.709
 4652W        W73125  31.476  28.053  11.964
 4653W        W73126   4.288   6.749   5.635
 4654W        W73127  30.511  41.965  12.948
 4655W        W73128  30.652  32.138   0.892
 4656W        W73129  32.113  27.977  13.807
 4657W        W73130   3.890  41.519  12.561
 4658W        W73131   7.386  29.016  14.337
 4659W        W73132   1.373  36.589  14.330
 4660W        W73133  26.107  30.922   4.649
 4661W        W73134  24.218   3.323  10.062
 4662W        W73135  25.028  10.153   2.683
 4663W        W73136  18.064  14.246   1.932
 4664W        W73137  13.155  32.091   4.322
 4665W        W73138  19.567  34.958   0.744
 4666W        W73139  21.739  39.002   4.257
 4667W        W73140  22.048   3.261  13.534
 4668W        W73141  24.989  20.046  11.438
 4669W        W73142  11.219   8.160   0.327
 4670W        W73143  23.020   1.442  14.390
 4671W        W73144  36.931  17.631  14.024
 4672W        W73145   3.386  38.453   3.338
 4673W        W73146   2.356  18.719  12.579
 4674W        W73147  34.024  33.604   1.434
 4675W        W73148  44.505  22.570  12.565
 4676W        W73149  37.952  30.117  12.456
 4677W        W73150  17.174  41.453  12.551
 4678W        W73151   4.334  28.658  12.931
 4679W        W73152  13.267  42.358   0.783
 4680W        W73153  25.522  29.579   1.420
 4681W        W73154  29.134  44.322   0.756
 4682W        W73155  32.547  15.791   1.788
 4683W        W73156  39.494  30.505   0.765
 4684W        W73157  11.666  14.687   4.185
 4685W        W73158  33.399   3.443  12.057
 4686W        W73159  29.928  43.951   2.833
 4687W        W73160  23.590  30.532   3.309
 4688W        W73161  21.143  42.437   3.859
 4689W        W73162   7.898  34.530   2.357
 4690W        W73163  32.902  16.589   3.294
 4691W        W73164  36.537  40.506   1.342
 4692W        W73165  35.976  40.970  14.788
 4693W        W73166   9.772  34.398  13.030
 4694W        W73167  39.063  21.036   0.365
 4695W        W73168  10.794  40.307   1.886
 4696W        W73169  19.765  13.233  13.999
 4697W        W73170  23.010  25.033  12.067
 4698W        W73171  22.623  22.552   9.981
 4699W        W73172  24.991  31.089   4.203
 4700W        W73173  35.496  33.000  14.951
 4701W        W73174  32.014  23.728   0.909
 4702W        W73175   8.758  11.366   0.886
 4703W        W73176  20.196  41.927  13.030
 4704W        W73177  31.550  14.316  10.513
 4705W        W73178   1.416   7.301   4.311
 4706W        W73179  34.392  12.362   1.927
 4707W        W73180  39.328  39.846   0.886
 4708W        W73181  42.473  28.105  14.949
 4709W        W73182  16.619  26.199   0.887
 4710W        W73183  39.000   1.421   1.748
 4711W        W73184   3.305  16.584   2.723
 4712W        W73185  18.683  17.125  11.561
 4713W        W73186  37.512  18.225  12.998
 4714W        W73187  16.581  27.488   1.358
 4715W        W73188  36.915  40.898  12.044
 4716W        W73189  31.582   4.789  12.839
 4717W        W73190  12.736   0.414   3.750
 4718W        W73191  25.490  37.976   0.846
 4719W        W73192  32.573  33.411   4.655
 4720W        W73193   9.327  27.647   1.302
 4721W        W73194   5.419  13.753  10.536
 4722W        W73195   9.735   2.767  12.405
 4723W        W73196  15.743  37.068  11.406
 4724W        W73197   6.287   3.834   3.280
 4725W        W73198  11.161  11.851  13.893
 4726W        W73199  44.759  29.154  11.965
 4727W        W73200  38.518  34.034  11.024
 4728W        W73201  43.840  10.865   4.716
 4729W        W73202  32.544   2.914   1.245
 4730W        W73203  43.482  13.772   4.746
 4731W        W73204  37.347  43.330  14.010
 4732W        W73205   0.916  37.884   4.152
 4733W        W73206  39.935  20.224   1.265
 4734W        W73207  19.587  39.395   2.322
 4735W        W73208  27.057  43.857  12.897
 4736W        W73209  28.538  34.994   2.868
 4737W        W73210  37.579   6.223  14.280
 4738W        W73211   7.667  43.297  10.510
 4739W        W73212  11.704  13.237   2.753
 4740W        W73213  38.482   0.838   1.707
 4741W        W73214  12.288  37.986   4.778
 4742W        W73215   5.691   2.765   2.778
 4743W        W73216   7.400   4.781   5.663
 4744W        W73217   5.927  15.824  11.964
 4745W        W73218  14.310   7.824  13.968
 4746W        W73219  16.140  29.636   2.694
 4747W        W73220  24.598  14.262   1.865
 4748W        W73221  39.892  41.293   2.322
 4749W        W73222  22.169  40.030   2.865
 4750W        W73223  33.409   2.818   0.471
 4751W        W73224   5.842  34.469   0.475
 4752W        W73225  29.098  20.555  13.397
 4753W        W73226  25.483  16.217   2.690
 4754W        W73227  32.495  12.839  10.566
 4755W        W73228   9.284  29.499  14.431
 4756W        W73229  36.056  38.344  13.503
 4757W        W73230  20.206  26.636  10.946
 4758W        W73231   2.725  14.149   0.293
 4759W        W73232   7.898  29.977  10.549
 4760W        W73233   1.266  28.170  13.400
 4761W        W73234  34.088  43.365   1.776
 4762W        W73235  35.054   5.859  14.982
 4763W        W73236   0.284  17.304  13.333
 4764W        W73237  26.495  34.450  10.555
 4765W        W73238  27.153   0.473   0.838
 4766W        W73239  43.359   6.873   4.626
 4767W        W73240  22.120  28.971  13.378
 4768W        W73241  34.427  41.390  10.945
 4769W        W73242  29.129  16.099   3.632
 4770W        W73243  15.693  23.669   4.702
 4771W        W73244  42.400  32.574  11.416
 4772W        W73245  41.037  44.882   1.390
 4773W        W73246   5.379  17.200  13.368
 4774W        W73247  29.542  37.881   0.362
 4775W        W73248  13.780  42.965  14.013
 4776W        W73249  31.115   7.274  11.574
 4777W        W73250  42.525  43.463  12.384
 4778W        W73251  23.576  26.962  13.497
 4779W        W73252   3.825  11.626   0.726
 4780W        W73253  18.063  35.398   4.785
 4781W        W73254   3.443   8.883   2.356
 4782W        W73255  21.613  43.960   4.685
 4783W        W73256  30.039  40.407  14.899
 4784W        W73257  35.529  42.525  11.072
 4785W        W73258  15.661  24.574  11.946
 4786W        W73259  39.545  44.407   0.293
 4787W        W73260  31.043  23.551  14.405
 4788W        W73261  15.734  36.087   3.338
 4789W        W73262  15.247  43.401   1.263
 4790W        W73263  20.204   6.880   2.418
 4791W        W73264  25.691   5.392   2.186
 4792W        W73265  11.660  39.956  14.899
 4793W        W73266  33.906   5.271  12.049
 4794W        W73267  43.844   0.445   1.365
 4795W        W73268  13.736  12.209  12.367
 4796W        W73269   5.835  27.189   3.196
 4797W        W73270   1.319  34.554  14.408
 4798W        W73271   8.899  12.794  11.905
 4799W        W73272  27.487  25.714  13.444
 4800W        W73273  17.077  43.474  10.506
 4801W        W73274   7.872  37.456  14.368
 4802W        W73275  15.180   4.248  13.494
 4803W        W73276  25.066   0.764  13.515
 4804W        W73277   4.397  29.047  13.421
 4805W        W73278  25.215  11.756  10.929
 4806W        W73279  39.491   8.275  12.379
 4807W        W73280  24.115  27.593   0.735
 4808W        W73281  37.922   0.353  14.370
 4809W        W73282   2.423  33.490   3.659
 4810W        W73283  36.920  28.152  11.581
 4811W        W73284  22.059  28.538   0.442
 4812W        W73285  21.602  20.619  13.811
 4813W        W73286  23.596  14.115   0.321
 4814W        W73287  36.440  24.707  13.462
 4815W        W73288  17.778  37.411  12.410
 4816W        W73289  37.034   7.350   4.237
 4817W        W73290  18.589  21.043  12.358
 4818W        W73291  16.742   7.191   3.845
 4819W        W73292   6.892  16.227   2.817
 4820W        W73293  20.562  10.869   4.269
 4821W        W73294  18.200   1.293   2.218
 4822W        W73295  23.014  17.573   0.392
 4823W        W73296   1.776   9.272  11.484
 4824W        W73297  44.292   7.203   3.209
 4825W        W73298  22.527   2.875  10.939
 4826W        W73299   7.736  12.739  14.005
 4827W        W73300  24.520  18.087  11.428
 4828W        W73301  14.106   9.842   2.727
 4829W        W73302  37.560   5.211   0.276
 4830W        W73303  42.348  35.515  11.862
 4831W        W73304   2.759  40.475  11.403
 4832W        W73305  30.001   6.787   2.304
 4833W        W73306  30.097  13.315  12.052
 4834W        W73307   8.283  24.604  14.499
 4835W        W73308  22.143  44.277   1.241
 4836W        W73309  42.301  23.690   2.725
 4837W        W73310   2.889  19.611   2.284
 4838W        W73311  26.207  35.006  14.928
 4839W        W73312  39.424  23.984  14.031
 4840W        W73313  24.006  36.966   4.780
 4841W        W73314  20.085   2.850  10.933
 4842W        W73315  41.415  15.644   0.786
 4843W        W73316  10.325  22.667   3.305
 4844W        W73317   6.785   3.256  14.022
 4845W        W73318  44.862   4.266   3.147
 4846W        W73319  25.581  28.172  14.492
 4847W        W73320  41.013  32.117   2.333
 4848W        W73321  25.516  38.030  13.030
 4849W        W73322  39.980  38.992  13.317
 4850W        W73323  40.357  31.647   0.806
 4851W        W73324  16.619  29.510   0.814
 4852W        W73325  25.978  19.669   3.748
 4853W        W73326  30.962  26.957   0.317
 4854W        W73327  18.054  27.479   3.240
 4855W        W73328  13.142  17.204   0.961
 4856W        W73329  25.110  37.086  14.457
 4857W        W73330  13.650  33.511  11.420
 4858W        W73331   3.451   4.698   3.229
 4859W        W73332  27.085  29.606  14.001
 4860W        W73333  17.062   8.254   0.953
 4861W        W73334   5.239  28.472   3.156
 4862W        W73335  22.743  41.413  13.033
 4863W        W73336  31.626  20.557   3.743
 4864W        W73337  25.642  39.824   2.239
 4865W        W73338  26.657  24.181  11.585
 4866W        W73339  10.718  13.629  14.954
 4867W        W73340  41.449  13.798  12.543
 4868W        W73341  19.264  13.746   0.402
 4869W        W73342  37.335   5.842  13.331
 4870W        W73343  37.396   9.828   0.416
 4871W        W73344  27.163  39.346  10.448
 4872W        W73345  35.069  13.600   1.299
 4873W        W73346  41.515  31.566  14.942
 4874W        W73347  35.093  19.145   4.665
 4875W        W73348  26.681  36.064  13.360
 4876W        W73349  18.129   5.709  12.945
 4877W        W73350  36.464  18.134  11.922
 4878W        W73351   1.256  42.015   0.309
 4879W        W73352  39.322  33.940  12.349
 4880W        W73353  33.002  22.651  12.890
 4881W        W73354  44.325  33.124   3.673
 4882W        W73355  16.164  15.230   1.785
 4883W        W73356  22.114  42.856  12.073
 4884W        W73357  33.972   7.323  14.937
 4885W        W73358   2.728  17.691  12.084
 4886W        W73359  39.418  15.295   3.375
 4887W        W73360  33.050  14.805   1.288
 4888W        W73361  21.148  12.209   2.671
 4889W        W73362  37.477  34.949  13.365
 4890W        W73363  15.802  17.795  14.471
 4891W        W73364  19.728  31.912   4.130
 4892W        W73365  37.431  19.749   3.721
 4893W        W73366  18.268  24.051   2.199
 4894W        W73367  40.859  41.478   1.426
 4895W        W73368  24.080   0.870  12.448
 4896W        W73369   9.789   0.849   0.767
 4897W        W73370  34.986  26.085   3.165
 4898W        W73371  44.819  30.496  10.624
 4899W        W73372  27.523  23.545  10.587
 4900W        W73373   8.222  18.229   1.781
 4901W        W73374  31.900  38.025  11.043
 4902W        W73375  38.954  34.040   4.287
 4903W        W73376  35.413  39.845   3.210
 4904W        W73377  21.080   2.768   2.894
 4905W        W73378  23.698  20.035   2.395
 4906W        W73379   1.325  21.137   2.310
 4907W        W73380  30.930  16.224   3.727
 4908W        W73381  43.794  16.647  14.514
 4909W        W73382  36.417   0.306   4.148
 4910W        W73383  35.025  24.990  10.115
 4911W        W73384   6.902  40.546  11.114
 4912W        W73385  20.056  14.677   2.855
 4913W        W73386  31.457  43.343   2.896
 4914W        W73387  10.829  24.721   1.333
 4915W        W73388  28.054  26.551  11.490
 4916W        W73389  44.340  20.670  12.409
 4917W        W73390  35.421   9.852   1.885
 4918W        W73391  37.419  21.648   3.355
 4919W        W73392  15.620   9.742   1.235
 4920W        W73393  10.795  13.163  14.322
 4921W        W73394   8.337  43.008  13.509
 4922W        W73395  41.936   7.301   0.295
 4923W        W73396  31.071  40.518   3.643
 4924W        W73397  11.232  10.877   4.168
 4925W        W73398  15.788  32.453   1.742
 4926W        W73399   5.250  43.920  11.962
 4927W        W73400  19.109   6.850   4.202
 4928W        W73401   3.422  27.980  10.633
 4929W        W73402  39.029  31.941  10.537
 4930W        W73403  42.019   0.420  11.530
 4931W        W73404   5.400  25.488   3.696
 4932W        W73405   6.379  29.156  11.521
 4933W        W73406   9.822   9.236  13.834
 4934W        W73407  24.222   2.362   3.826
 4935W        W73408  14.305   1.269  10.910
 4936W        W73409  31.094  29.604  11.903
 4937W        W73410  34.443  44.832   2.367
 4938W        W73411  43.299  25.986   1.291
 4939W        W73412  19.710  29.486  14.376
 4940W        W73413  28.437  43.813   0.951
 4941W        W73414   8.236  29.451  12.448
 4942W        W73415  15.176   9.368   0.775
 4943W        W73416  22.522   5.350   0.424
 4944W        W73417   8.211  23.638  14.799
 4945W        W73418  23.082   1.291   1.416
 4946W        W73419  24.021   7.706  11.081
 4947W        W73420  33.620  36.008  13.413
 4948W        W73421  30.014   3.457   2.867
 4949W        W73422  37.521  30.069   2.185
 4950W        W73423  20.227  39.878   1.211
 4951W        W73424   8.378  35.522   0.371
 4952W        W73425  35.559  22.744   1.871
 4953W        W73426  29.564  19.725  12.080
 4954W        W73427  23.058  35.427   4.132
 4955W        W73428  35.522  17.704   4.153
 4956W        W73429  42.328  28.176   3.148
 4957W        W73430  12.209  38.058  13.888
 4958W        W73431  21.747  10.651  14.483
 4959W        W73432  19.095  37.539  10.494
 4960W        W73433  24.006   1.836  11.371
 4961W        W73434  13.761  21.570  14.488
 4962W        W73435   8.364  33.593   0.916
 4963W        W73436  39.357  37.960   4.169
 4964W        W73437  44.345  28.599  14.823
 4965W        W73438  38.427  18.724   0.441
 4966W        W73439  22.208  15.166   1.912
 4967W        W73440  22.557  12.158  10.951
 4968W        W73441   4.773  36.545  12.398
 4969W        W73442   6.356  29.966  11.861
 4970W        W73443  31.039  13.180  13.324
 4971W        W73444  10.761  37.968  10.593
 4972W        W73445   7.398   7.841  11.975
 4973W        W73446  28.073  18.703  11.474
 4974W        W73447  14.761  17.715   2.816
 4975W        W73448  25.057  16.731  12.877
 4976W        W73449  27.053   1.807   0.435
 4977W        W73450  26.565  39.039   0.830
 4978W        W73451  42.862  32.898   3.167
 4979W        W73452  15.577  22.066  10.497
 4980W        W73453   3.453  22.615  10.931
 4981W        W73454  22.093  38.830  11.869
 4982W        W73455  12.197  21.618  14.362
 4983W        W73456   8.191  42.304   4.140
 4984W        W73457   6.912  18.153   2.807
 4985W        W73458  26.611  43.279   3.637
 4986W        W73459   6.719  29.017   1.312
 4987W        W73460  22.172  15.329  13.832
 4988W        W73461  32.575  35.080   4.687
 4989W        W73462  21.024  20.544  11.049
 4990W        W73463  10.168  33.884   3.295
 4991W        W73464  21.715  22.584   4.652
 4992W        W73465   0.878  26.147  13.488
 4993W        W73466  35.975  36.993   1.242
 4994W        W73467  10.145   0.747   0.761
 4995W        W73468  19.109  35.908   2.777
 4996W        W73469  40.953  23.042  12.021
 4997W        W73470   1.796  28.061  14.994
 4998W        W73471  19.123   1.889  11.061
 4999W        W73472   3.883  36.994  14.289
 5000W        W73473  11.840  27.683   2.855
 5001W        W73474   9.785  16.163  13.063
 5002W        W73475  19.114   1.901   3.334
 5003W        W73476   5.249  20.162  13.979
 5004W        W73477  40.365   5.206   1.377
 5005W        W73478  32.578  34.390  11.893
 5006W        W73479  17.792  22.725   4.122
 5007W        W73480  40.870  34.087  10.924
 5008W        W73481  36.886   3.775  10.925
 5009W        W73482  23.559  35.382  13.970
 5010W        W73483  20.563  39.037   4.177
 5011W        W73484  44.998  38.479  10.629
 5012W        W73485   5.395   3.282   5.185
 5013W        W73486  10.664  17.149   2.263
 5014W        W73487   1.774  11.741   4.179
 5015W        W73488  17.712  10.690   0.470
 5016W        W73489  38.842  12.234   1.323
 5017W        W73490  36.045  28.151  11.963
 5018W        W73491  32.415  15.594   4.177
 5019W        W73492  39.451   0.303  12.003
 5020W        W73493  19.634   8.764   0.245
 5021W        W73494  14.718   0.872  14.776
 5022W        W73495  37.078  11.283  11.536
 5023W        W73496  10.634  39.892   4.255
 5024W        W73497  22.210  30.138   2.882
 5025W        W73498  42.497  27.946  12.578
 5026W        W73499   6.790  16.751  10.980
 5027W        W73500   1.856  42.356   4.192
 5028W        W73501  40.369   9.867   2.231
 5029W        W73502  12.130  15.665  10.130
 5030W        W73503  33.586   2.231  11.005
 5031W        W73504  24.179   7.790   1.441
 5032W        W73505  16.768  29.167   1.701
 5033W        W73506  25.154  42.387  10.572
 5034W        W73507  42.840   9.174   4.176
 5035W        W73508  15.809  10.182  11.029
 5036W        W73509  23.142  21.127  14.024
 5037W        W73510  35.583   8.263   4.195
 5038W        W73511  28.472  20.676   0.401
 5039W        W73512  13.172  10.351   1.696
 5040W        W73513  27.090  10.266   1.875
 5041W        W73514   1.299  17.149  11.480
 5042W        W73515  39.065  40.439   1.386
 5043W        W73516  17.799  39.463  13.398
 5044W        W73517  10.793  23.185  11.568
 5045W        W73518  22.224  29.438   0.938
 5046W        W73519  38.444  12.337   0.313
 5047W        W73520  10.649   9.257  13.421
 5048W        W73521   3.384  33.420  13.841
 5049W        W73522  15.672  11.230   3.383
 5050W        W73523  14.121  26.700  13.921
 5051W        W73524  25.974  30.074   0.397
 5052W        W73525  37.540  36.519  10.437
 5053W        W73526  11.354  34.455  12.087
 5054W        W73527   2.259   7.346   4.238
 5055W        W73528  20.252  27.189  14.330
 5056W        W73529  43.279  23.706  14.024
 5057W        W73530  25.512  39.519  13.465
 5058W        W73531  43.868  16.292   1.214
 5059W        W73532  24.657  24.612  11.896
 5060W        W73533   9.291  12.697   3.721
 5061W        W73534  24.550  14.097  11.941
 5062W        W73535  16.649  40.349   3.261
 5063W        W73536   5.283  30.624  10.419
 5064W        W73537  16.133  31.074   2.184
 5065W        W73538  15.738  12.233  10.935
 5066W        W73539   5.835  22.155  11.408
 5067W        W73540  33.930  38.857   2.846
 5068W        W73541  41.802  11.694  11.006
 5069W        W73542  30.011  34.500  11.392
 5070W        W73543   7.316   4.214   2.178
 5071W        W73544  22.699  35.588   3.693
 5072W        W73545  21.518   4.901  11.537
 5073W        W73546  13.813   0.259  13.972
 5074W        W73547   9.154  36.378   3.643
 5075W        W73548  41.293  39.871   4.670
 5076W        W73549  19.222  36.932  10.623
 5077W        W73550  36.421  44.428   2.732
 5078W        W73551  20.083  39.986   2.869
 5079W        W73552   9.660  40.825  14.440
 5080W        W73553  37.422  17.756   2.236
 5081W        W73554  38.372  13.776   0.883
 5082W        W73555   6.691  20.595   2.721
 5083W        W73556  37.044  25.526   1.254
 5084W        W73557  44.332   9.353  11.046
 5085W        W73558  44.313  36.019  13.531
 5086W        W73559  24.029  29.108  13.817
 5087W        W73560  34.390  17.776  12.553
 5088W        W73561  44.370  20.534   2.666
 5089W        W73562  31.047  10.807  11.090
 5090W        W73563  18.072  43.948  12.991
 5091W        W73564  13.642  21.044   0.742
 5092W        W73565  36.586  14.152  13.966
 5093W        W73566  31.406  25.653  11.551
 5094W        W73567  25.111  26.672  14.759
 5095W        W73568  27.971  34.080  12.870
 5096W        W73569  17.144  40.008   2.684
 5097W        W73570  20.651  39.813  14.321
 5098W        W73571  18.762  28.649  13.946
 5099W        W73572  17.203  16.749  14.277
 5100W        W73573  40.342  21.108   3.211
 5101W        W73574  35.534  10.779  13.428
 5102W        W73575  18.176  27.499  12.054
 5103W        W73576   1.282  34.092  11.880
 5104W        W73577   6.394  18.112  11.858
 5105W        W73578   0.833  28.565  14.780
 5106W        W73579  29.517  43.308   4.277
 5107W        W73580  16.773  42.924  14.794
 5108W        W73581  42.458  39.503   4.124
 5109W        W73582   2.786  13.162   2.836
 5110W        W73583  38.946   0.764  13.397
 5111W        W73584  36.989  31.612   4.623
 5112W        W73585   9.873  34.982   9.956
 5113W        W73586  31.102  40.408   1.429
 5114W        W73587  32.520   9.743   0.325
 5115W        W73588  41.895   3.929  10.934
 5116W        W73589  37.444  11.788  12.409
 5117W        W73590  17.643   1.350  14.382
 5118W        W73591  38.884  37.053  12.425
 5119W        W73592  24.975  21.593   1.748
 5120W        W73593  14.257  31.631   1.815
 5121W        W73594   1.854  28.579   3.210
 5122W        W73595  15.768  19.567   0.829
 5123W        W73596  38.829  35.910   3.825
 5124W        W73597  32.133  22.046   2.333
 5125W        W73598  14.340   2.359   1.784
 5126W        W73599   7.204  37.849  11.572
 5127W        W73600  33.115  42.369  11.010
 5128W        W73601  44.839  10.876  14.020
 5129W        W73602  39.533  18.766   2.206
 5130W        W73603  21.706  28.554   3.782
 5131W        W73604  27.100  37.441   1.753
 5132W        W73605  22.250  20.705   4.310
 5133W        W73606  35.910  21.262   3.693
 5134W        W73607  41.439  34.411   3.335
 5135W        W73608   2.964  38.827  13.046
 5136W        W73609  40.404  31.453  13.369
 5137W        W73610  24.032  30.935  11.872
 5138W        W73611  42.307  20.044  13.852
 5139W        W73612  28.171   0.934  12.856
 5140W        W73613  33.526   9.348   3.634
 5141W        W73614  38.551  27.506   3.850
 5142W        W73615   7.681  10.641  12.826
 5143W        W73616  19.642  30.919   3.154
 5144W        W73617  13.213   2.877   4.277
 5145W        W73618  29.016  40.842  11.067
 5146W        W73619   7.389  17.763  14.295
 5147W        W73620   8.282  15.643   3.166
 5148W        W73621  20.262   0.291  10.944
 5149W        W73622  31.123  22.998  14.893
 5150W        W73623   5.877  41.833  10.550
 5151W        W73624   8.168  43.916  12.441
 5152W        W73625   9.162  15.613   1.439
 5153W        W73626  15.266  11.804  13.823
 5154W        W73627  27.468   0.416  14.006
 5155W        W73628  32.991  20.131   1.866
 5156W        W73629  22.170   8.890   1.233
 5157W        W73630  20.230  27.017  10.978
 5158W        W73631  40.313  18.073   1.279
 5159W        W73632  10.372  34.022  10.012
 5160W        W73633  24.094  30.459  10.644
 5161W        W73634  37.437   8.361  14.893
 5162W        W73635  32.933   6.328   4.262
 5163W        W73636  35.966  18.283   3.835
 5164W        W73637  29.956  15.089  11.517
 5165W        W73638  34.977  39.032  10.003
 5166W        W73639  22.072  19.706  11.055
 5167W        W73640  43.351  19.562  12.040
 5168W        W73641  43.867  43.921  12.469
 5169W        W73642  18.752   1.926   1.808
 5170W        W73643  16.304   6.287  11.059
 5171W        W73644  38.421   2.898   0.878
 5172W        W73645  14.112  10.812  14.840
 5173W        W73646  32.053  24.048   4.712
 5174W        W73647  18.550   0.362   3.768
 5175W        W73648  24.084  37.411  10.065
 5176W        W73649  42.001  27.160  11.097
 5177W        W73650  30.033  20.711   2.680
 5178W        W73651  13.752  32.505  13.434
 5179W        W73652   7.273  13.632  10.938
 5180W        W73653   7.759  21.237   0.855
 5181W        W73654  32.053  30.960  13.060
 5182W        W73655   3.300  19.670   1.801
 5183W        W73656  30.963  24.711  13.338
 5184W        W73657  16.597   8.285  11.384
 5185W        W73658  33.590  12.790   0.891
 5186W        W73659  13.149  40.910  14.016
 5187W        W73660  42.281  31.594  10.999
 5188W        W73661  30.463  41.314   2.865
 5189W        W73662   3.444  25.470   3.190
 5190W        W73663  40.943   6.882  11.889
 5191W        W73664  36.931  44.833  12.911
 5192W        W73665  23.649  22.036   1.296
 5193W        W73666  15.611   4.286   4.296
 5194W        W73667  34.070   6.843   4.355
 5195W        W73668  36.051  40.457   4.679
 5196W        W73669  17.707   9.727   0.949
 5197W        W73670  40.447  33.083   0.760
 5198W        W73671  18.055  34.523  11.066
 5199W        W73672  12.845   3.751   0.771
 5200W        W73673  37.920  34.549   4.623
 5201W        W73674  23.013  26.640   5.196
 5202W        W73675  12.713  29.505  10.478
 5203W        W73676  42.002  30.579  13.347
 5204W        W73677   4.935   0.843  13.511
 5205W        W73678  11.290  37.082  12.833
 5206W        W73679  32.886  43.901   5.155
 5207W        W73680  17.790  12.192  14.328
 5208W        W73681  38.502  29.044   2.203
 5209W        W73682  10.654  28.054  10.439
 5210W        W73683  21.093   8.229   1.214
 5211W        W73684  33.404   7.256   2.766
 5212W        W73685   9.767  12.349  11.089
 5213W        W73686  34.580  42.419   4.270
 5214W        W73687  34.465  38.458  12.842
 5215W        W73688   4.310   3.792  12.424
 5216W        W73689  18.230   4.773  11.097
 5217W        W73690  21.594   3.728   4.182
 5218W        W73691   8.321  36.854  13.417
 5219W        W73692   8.190  19.232  14.876
 5220W        W73693  36.913   4.837   0.874
 5221W        W73694   1.278  35.459  11.380
 5222W        W73695  11.774  25.039  11.896
 5223W        W73696  43.434  41.819   4.835
 5224W        W73697  12.615  42.423  11.867
 5225W        W73698  19.132  10.728  14.275
 5226W        W73699   6.889  23.536  12.487
 5227W        W73700  12.785  30.014   4.315
 5228W        W73701  11.715  43.935   3.235
 5229W        W73702  26.999   2.232  13.852
 5230W        W73703  24.532   0.871   5.199
 5231W        W73704   9.258  20.532  13.331
 5232W        W73705  16.764  41.444   2.878
 5233W        W73706   5.307  39.351  13.317
 5234W        W73707  12.676   0.860   3.682
 5235W        W73708  19.110  17.073   2.869
 5236W        W73709  42.834   3.928  12.446
 5237W        W73710  12.181   2.835  11.878
 5238W        W73711   6.358  25.010   1.447
 5239W        W73712  28.452  26.021   0.384
 5240W        W73713  22.182  28.560   3.198
 5241W        W73714  42.815  23.075  12.386
 5242W        W73715  35.604  42.990   4.256
 5243W        W73716   8.289  26.685   2.746
 5244W        W73717  44.760  38.381  14.884
 5245W        W73718  27.474  36.889  13.928
 5246W        W73719   7.202  30.465  14.353
 5247W        W73720  40.876   7.279   2.669
 5248W        W73721  18.668  11.321  11.559
 5249W        W73722  25.039  24.697   2.187
 5250W        W73723  36.948  13.787  14.032
 5251W        W73724  40.827  22.056  11.548
 5252W        W73725  10.357  39.969   4.776
 5253W        W73726  28.050  39.833  11.960
 5254W        W73727  41.537  31.915  13.825
 5255W        W73728  27.540   2.234  13.841
 5256W        W73729  15.815  16.088   4.647
 5257W        W73730   4.304  38.830  14.338
 5258W        W73731  35.872   8.745  11.377
 5259W        W73732   3.728  20.594   0.417
 5260W        W73733   4.228  40.951  12.972
 5261W        W73734  16.676  33.092  13.973
 5262W        W73735  27.061  29.633  11.962
 5263W        W73736  32.531  31.560  12.444
 5264W        W73737   3.732  39.499  13.047
 5265W        W73738  43.982  34.614   4.297
 5266W        W73739  31.027   0.480  12.565
 5267W        W73740   5.218  32.081  14.829
 5268W        W73741  40.432   3.786  11.084
 5269W        W73742  31.449  40.868  14.465
 5270W        W73743  42.915   5.268   4.748
 5271W        W73744   8.791  36.036   0.259
 5272W        W73745  10.720  14.150   2.204
 5273W        W73746  21.555  30.531   0.458
 5274W        W73747   8.214  23.736   3.226
 5275W        W73748  20.541  20.743  11.475
 5276W        W73749  42.402  41.354  14.323
 5277W        W73750   0.381  44.985  13.454
 5278W        W73751  30.647  33.904  11.974
 5279W        W73752  17.785  43.317   0.880
 5280W        W73753  40.888  17.759   3.227
 5281W        W73754  11.258  42.509  10.925
 5282W        W73755   8.844  14.815  10.507
 5283W        W73756  21.748  43.821  13.023
 5284W        W73757  25.111  13.735   0.816
 5285W        W73758  23.587   8.695  12.941
 5286W        W73759  36.869  34.095  13.869
 5287W        W73760   6.380  42.906   0.824
 5288W        W73761  19.124  27.630   4.644
 5289W        W73762  43.279  35.982   2.344
 5290W        W73763  27.587  37.893   3.738
 5291W        W73764  44.269  38.064   0.330
 5292W        W73765   5.919  29.628  13.026
 5293W        W73766  24.540  11.255   1.287
 5294W        W73767   1.786   9.297   2.740
 5295W        W73768  40.951   2.337  14.280
 5296W        W73769  17.613  43.786  11.589
 5297W        W73770  25.968   8.884  11.032
 5298W        W73771  38.819   3.908  12.580
 5299W        W73772  21.724   8.735   1.799
 5300W        W73773  32.068  38.910  10.442
 5301W        W73774  38.934  36.485   1.307
 5302W        W73775  29.660  33.567  11.595
 5303W        W73776   9.736  27.682   1.699
 5304W        W73777  20.676  29.483   2.384
 5305W        W73778   8.724  21.094   2.204
 5306W        W73779  10.292  29.606   4.768
 5307W        W73780   2.319  14.660  13.985
 5308W        W73781  40.430  23.723   0.295
 5309W        W73782   9.731  17.617  12.921
 5310W        W73783   9.364  25.554   0.323
 5311W        W73784  17.107  12.804   1.367
 5312W        W73785  36.490  11.813  11.481
 5313W        W73786  44.338  17.573   2.346
 5314W        W73787  21.093  27.029   3.198
 5315W        W73788  31.027   2.369   0.887
 5316W        W73789   6.836  20.181  14.292
 5317W        W73790  42.368  43.421   0.250
 5318W        W73791  21.731  23.636   5.083
 5319W        W73792   9.669   8.200  10.901
 5320W        W73793  30.993  34.570  14.375
 5321W        W73794   2.393   0.876  14.474
 5322W        W73795  36.036   7.333   1.267
 5323W        W73796  27.597  41.415  12.487
 5324W        W73797  44.422  37.386   3.736
 5325W        W73798  24.575  13.245  11.012
 5326W        W73799   3.857   9.262   2.870
 5327W        W73800  35.036   5.749   3.281
 5328W        W73801  10.296  33.895   4.828
 5329W        W73802  21.156   7.668  11.572
 5330W        W73803  34.380   1.818   2.251
 5331W        W73804  36.956  44.819   1.276
 5332W        W73805  27.957  28.161  13.524
 5333W        W73806   7.886   4.854   4.236
 5334W        W73807   2.334   7.209   0.454
 5335W        W73808  42.316   3.337  13.500
 5336W        W73809  18.652  27.463  10.568
 5337W        W73810  38.455  27.053   3.295
 5338W        W73811  28.126  37.458   2.751
 5339W        W73812  39.000   0.779   0.345
 5340W        W73813   7.232  28.455  12.552
 5341W        W73814  43.332  19.209  12.842
 5342W        W73815  41.015  14.613  12.061
 5343W        W73816  29.625  19.768  10.560
 5344W        W73817  33.539   8.776  13.950
 5345W        W73818  16.614   4.706   2.761
 5346W        W73819   8.220  38.863  14.993
 5347W        W73820  28.529  37.554  14.864
 5348W        W73821   1.384   2.448   4.818
 5349W        W73822  10.705   9.336  12.457
 5350W        W73823  27.011  32.900   3.659
 5351W        W73824  38.926  27.981   4.717
 5352W        W73825  29.045  42.947  14.298
 5353W        W73826   9.189  13.794  12.848
 5354W        W73827  20.223  23.015   0.819
 5355W        W73828  19.050  36.493  10.417
 5356W        W73829   3.780  25.690  13.450
 5357W        W73830  29.573  37.458   1.807
 5358W        W73831   4.920  25.116   1.877
 5359W        W73832   9.743   2.860   0.382
 5360W        W73833  17.758   7.378  14.437
 5361W        W73834  38.423  15.742   0.820
 5362W        W73835  15.105  40.485  13.868
 5363W        W73836  28.650  15.664   4.643
 5364W        W73837  28.087  13.156   4.612
 5365W        W73838  22.995  33.558  12.841
 5366W        W73839  20.694  30.496   4.624
 5367W        W73840  26.986  20.751   1.750
 5368W        W73841  24.973  14.678   1.728
 5369W        W73842  21.034  31.126   0.338
 5370W        W73843  24.520  44.922   1.822
 5371W        W73844  18.772  10.304   2.892
 5372W        W73845   1.768  17.291   3.256
 5373W        W73846  18.243  25.659  12.966
 5374W        W73847   5.751  14.767  10.420
 5375W        W73848  44.433  39.896   1.400
 5376W        W73849   5.715  29.968  11.559
 5377W        W73850  36.457   8.276  10.509
 5378W        W73851  21.729  18.749  11.940
 5379W        W73852  13.200   7.737  13.361
 5380W        W73853  26.456  10.168   9.996
 5381W        W73854  27.129   3.344  13.032
 5382W        W73855  42.019  19.723  12.555
 5383W        W73856   0.755  42.507  11.981
 5384W        W73857  28.957   9.386  13.014
 5385W        W73858  11.270  24.069   1.891
 5386W        W73859  18.255  25.966   2.388
 5387W        W73860   3.309  43.443   4.816
 5388W        W73861  15.281   0.471  11.949
 5389W        W73862   5.909  18.214   2.751
 5390W        W73863  40.337  41.358  10.065
 5391W        W73864  33.885  11.806  11.083
 5392W        W73865   5.923  13.603   3.719
 5393W        W73866   4.750   1.819   4.289
 5394W        W73867  25.692  43.401  12.839
 5395W        W73868   6.227  33.882  11.533
 5396W        W73869  33.091   7.786  12.001
 5397W        W73870  31.111  19.239  11.559
 5398W        W73871   9.184  11.317  14.334
 5399W        W73872  15.723  43.982  12.860
 5400W        W73873   5.818  34.403  10.459
 5401W        W73874  34.394  13.232   2.389
 5402W        W73875   8.750  32.637  11.857
 5403W        W73876  18.545  44.976   2.395
 5404W        W73877  16.197  44.968   4.152
 5405W        W73878   2.937  14.590   0.274
 5406W        W73879  35.908  10.633  10.497
 5407W        W73880  38.473  27.596   3.384
 5408W        W73881  14.265  14.748  10.970
 5409W        W73882   5.914  28.091  13.509
 5410W        W73883  44.264  39.949  14.919
 5411W        W73884  30.656   5.311  11.100
 5412W        W73885  23.025   9.271  10.917
 5413W        W73886  24.715  40.420   0.931
 5414W        W73887  39.316  33.607   1.777
 5415W        W73888   8.402   1.314  13.406
 5416W        W73889   9.161  21.656   1.776
 5417W        W73890  42.954  11.143   3.312
 5418W        W73891  18.152  29.077  13.794
 5419W        W73892  36.054  36.509   3.283
 5420W        W73893  38.070  11.790  14.401
 5421W        W73894  27.015  41.361  14.415
 5422W        W73895   0.828  18.663   0.780
 5423W        W73896  19.223  30.054   4.698
 5424W        W73897   8.263   8.364   4.658
 5425W        W73898  14.613  34.584   4.349
 5426W        W73899  23.625   9.300   4.810
 5427W        W73900  26.954  38.387   2.666
 5428W        W73901  12.337  32.892  13.791
 5429W        W73902  21.164   9.879  14.781
 5430W        W73903   5.741   9.323  10.584
 5431W        W73904  28.134   8.733  11.962
 5432W        W73905  16.584  40.347   1.761
 5433W        W73906  36.537   8.190  13.841
 5434W        W73907   9.161  29.920   1.924
 5435W        W73908  43.477   3.243  12.029
 5436W        W73909   1.806  23.591   1.935
 5437W        W73910  25.526  25.593  10.952
 5438W        W73911  18.242   6.745   3.780
 5439W        W73912  21.567   7.705   2.732
 5440W        W73913  23.527  34.046   0.851
 5441W        W73914  28.520   5.312   4.666
 5442W        W73915  35.480  41.442   3.305
 5443W        W73916  28.049  38.523   4.610
 5444W        W73917  33.910  29.664   3.764
 5445W        W73918  41.298  11.218   3.767
 5446W        W73919  18.220  39.347   3.870
 5447W        W73920  24.566  34.986  13.835
 5448W        W73921  27.658   8.382   4.132
 5449W        W73922   8.681  10.253  11.565
 5450W        W73923  32.625  16.589   4.287
 5451W        W73924   1.772  41.440  14.382
 5452W        W73925  22.580  24.576  13.491
 5453W        W73926   8.680  36.376   1.751
 5454W        W73927  42.469  28.016   1.448
 5455W        W73928  10.879  23.696   3.856
 5456W        W73929  26.136  26.980  12.358
 5457W        W73930  10.834  24.645  10.036
 5458W        W73931  33.535  40.385   4.332
 5459W        W73932  37.979   6.381  10.911
 5460W        W73933  44.774  11.135  11.944
 5461W        W73934   5.225  32.487   1.256
 5462W        W73935   6.888  10.172  12.361
 5463W        W73936  36.982  15.718   0.458
 5464W        W73937   2.291  32.531   4.338
 5465W        W73938  13.731  27.110  10.550
 5466W        W73939  15.782  43.771  14.324
 5467W        W73940  30.561  22.688  14.958
 5468W        W73941  18.241  16.203  10.989
 5469W        W73942  24.990   3.767   1.894
 5470W        W73943  34.606  26.992   2.182
 5471W        W73944   3.830  34.382   1.795
 5472W        W73945  41.962  38.831   0.948
 5473W        W73946   7.286  33.381   3.386
 5474W        W73947  27.019   4.736  12.383
 5475W        W73948  19.684   7.700  10.449
 5476W        W73949   9.874  23.223   0.892
 5477W        W73950  37.477  36.559  14.440
 5478W        W73951  38.965  42.832  13.504
 5479W        W73952  43.902  17.294   3.259
 5480W        W73953  19.760   8.700  13.403
 5481W        W73954  13.614  20.571   4.731
 5482W        W73955  23.181  27.156   4.236
 5483W        W73956  42.353  23.211   2.702
 5484W        W73957  12.668  22.088  14.372
 5485W        W73958  10.203   3.216  13.921
 5486W        W73959  30.564  38.945   4.788
 5487W        W73960  26.073  11.633  10.412
 5488W        W73961  34.038  13.279  10.579
 5489W        W73962  24.697  27.101  13.848
 5490W        W73963  26.123  37.502  10.950
 5491W        W73964  23.180  34.488  10.529
 5492W        W73965  42.857  41.446   1.428
 5493W        W73966   2.448  14.136   2.807
 5494W        W73967  27.594  22.229  10.899
 5495W        W73968  42.525  13.205  12.397
 5496W        W73969  35.855  36.530   4.202
 5497W        W73970  28.991  22.579   1.352
 5498W        W73971  33.521  11.852  13.917
 5499W        W73972  16.111   7.780   2.319
 5500W        W73973  36.429  20.180   3.296
 5501W        W73974  36.551   5.283  12.550
 5502W        W73975  24.619  35.505   2.890
 5503W        W73976   5.213   2.793   4.668
 5504W        W73977  28.661   6.744  13.846
 5505W        W73978   4.392   6.779  13.971
 5506W        W73979  36.891   5.702   2.206
 5507W        W73980  27.547  10.213  14.997
 5508W        W73981   6.388  22.252   1.768
 5509W        W73982  33.449  34.924   2.406
 5510W        W73983  21.061  23.163   2.718
 5511W        W73984   2.460  14.641  14.370
 5512W        W73985   1.433   3.447  14.878
 5513W        W73986  27.619  24.635   1.703
 5514W        W73987  18.765  23.596  10.924
 5515W        W73988   2.328  34.020  13.478
 5516W        W73989  22.583  19.156  11.042
 5517W        W73990   7.890  24.975  10.980
 5518W        W73991  23.552  20.079   4.700
 5519W        W73992  20.565  32.126  13.031
 5520W        W73993  14.706  18.674  10.407
 5521W        W73994  27.017  24.218  11.015
 5522W        W73995  15.152  23.001  10.451
 5523W        W73996   0.898  23.507   4.697
 5524W        W73997  22.592  41.467  10.946
 5525W        W73998  11.295   2.257   1.702
 5526W        W73999  42.827  26.689   0.248
 5527W        W74000  16.148  37.951  11.864
 5528W        W74001  24.580   4.785   0.267
 5529W        W74002  41.013  17.677   1.767
 5530W        W74003   7.741   3.403  10.027
 5531W        W74004  41.824   1.260   1.732
 5532W        W74005  44.950   5.851  14.831
 5533W        W74006  26.501  41.372   0.952
 5534W        W74007  21.089   3.256   1.382
 5535W        W74008  36.878  42.308  13.042
 5536W        W74009  14.163   7.846   3.272
 5537W        W74010  24.537  43.402   3.261
 5538W        W74011  35.895  38.052  13.873
 5539W        W74012  44.292   4.846   3.790
 5540W        W74013  16.640  24.993   4.175
 5541W        W74014   5.343  25.657   3.344
 5542W        W74015   0.313  41.424   3.847
 5543W        W74016  22.011  34.883  12.006
 5544W        W74017  16.301  25.517   3.293
 5545W        W74018  23.025  19.228  10.601
 5546W        W74019  35.388  26.516  11.595
 5547W        W74020  37.920   3.411  10.895
 5548W        W74021  40.811  25.638  13.881
 5549W        W74022  34.093  27.497   3.285
 5550W        W74023  15.790  18.179   1.900
 5551W        W74024  25.218  22.014   4.113
 5552W        W74025  35.462  28.537   0.337
 5553W        W74026   8.826  23.562  13.848
 5554W        W74027  32.483  23.148   1.327
 5555W        W74028  21.069   1.928   3.337
 5556W        W74029  30.016  29.435   3.767
 5557W        W74030  28.994  25.067   3.171
 5558W        W74031  20.220   4.809   0.953
 5559W        W74032  26.629  41.443  13.311
 5560W        W74033  17.199   4.795   0.808
 5561W        W74034   1.476  20.168   0.422
 5562W        W74035  10.219  26.058  12.046
 5563W        W74036   8.290  15.595  13.503
 5564W        W74037  23.124  28.577   4.332
 5565W        W74038  13.628  43.294   2.851
 5566W        W74039   4.398   7.824  13.500
 5567W        W74040  11.830  40.319   4.290
 5568W        W74041  15.805  36.426  13.859
 5569W        W74042  21.196  35.456  11.542
 5570W        W74043   1.765  25.709   5.249
 5571W        W74044  22.206  11.754   4.670
 5572W        W74045   5.222  31.121   3.365
 5573W        W74046  10.874  34.000   5.155
 5574W        W74047  23.086  30.621  10.586
 5575W        W74048  15.163  40.332   1.213
 5576W        W74049   3.806   2.353   2.245
 5577W        W74050   4.745  37.520   0.303
 5578W        W74051  12.162  32.920  14.964
 5579W        W74052  14.606  26.625   3.778
 5580W        W74053  30.428   2.471  11.858
 5581W        W74054  40.509   8.294  10.918
 5582W        W74055  37.061  41.952  14.860
 5583W        W74056  32.130  41.317  10.917
 5584W        W74057  25.153  20.660  14.017
 5585W        W74058  42.783  26.074  11.519
 5586W        W74059  30.473  37.931  13.394
 5587W        W74060   2.908  23.501   0.349
 5588W        W74061  10.724  21.067   2.818
 5589W        W74062   2.877  24.668   2.411
 5590W        W74063  28.468  39.428  12.961
 5591W        W74064  38.887   5.844  12.509
 5592W        W74065  29.952  23.525  12.498
 5593W        W74066  36.055  38.987   3.198
 5594W        W74067   8.760  19.250  14.351
 5595W        W74068  11.714  11.323  10.911
 5596W        W74069  25.046  44.341   4.629
 5597W        W74070  27.054  17.642  11.051
 5598W        W74071  35.366  31.967  11.107
 5599W        W74072  13.207  12.190   3.764
 5600W        W74073  14.303  42.288   0.733
 5601W        W74074  35.371  24.583  14.312
 5602W        W74075   4.929   0.383  14.865
 5603W        W74076   6.366  32.085  14.805
 5604W        W74077  44.930   1.940  12.532
 5605W        W74078  36.097  10.865  14.794
 5606W        W74079  39.430   6.234   1.723
 5607W        W74080  26.077  41.875  12.983
 5608W        W74081  27.155  34.405   2.875
 5609W        W74082  36.387  44.788  10.631
 5610W        W74083  26.618  39.863  12.038
 5611W        W74084  20.692   5.815   0.353
 5612W        W74085  38.498   4.903  11.438
 5613W        W74086   5.433  24.102   1.811
 5614W        W74087  38.421  21.622   0.755
 5615W        W74088  14.632  21.256  10.406
 5616W        W74089  26.469  43.951  13.530
 5617W        W74090  28.036  24.020  10.518
 5618W        W74091   2.413  40.419  13.353
 5619W        W74092  43.919   2.462   3.800
 5620W        W74093  42.819  18.125  13.385
 5621W        W74094  12.831   9.213  11.128
 5622W        W74095   2.818  25.558   2.790
 5623W        W74096  38.481  43.457   2.852
 5624W        W74097  18.079  36.531  14.404
 5625W        W74098  42.917   0.442   2.302
 5626W        W74099  38.835  11.843   4.288
 5627W        W74100  38.324   9.829  14.452
 5628W        W74101   9.880  18.662  13.346
 5629W        W74102  14.176  26.055   2.781
 5630W        W74103  36.479  25.966  12.917
 5631W        W74104  13.266   6.427  13.323
 5632W        W74105  21.742   3.231   1.341
 5633W        W74106   7.312  22.221   3.189
 5634W        W74107  41.880  30.995   2.250
 5635W        W74108   8.206  10.362  14.304
 5636W        W74109  20.200  10.343   3.697
 5637W        W74110  25.691  21.201   0.341
 5638W        W74111   8.743   2.316   5.281
 5639W        W74112  43.367  30.551  12.419
 5640W        W74113  37.342  24.684   3.361
 5641W        W74114   9.278  31.461   4.260
 5642W        W74115  15.188   7.221   2.788
 5643W        W74116  43.841  22.622  10.515
 5644W        W74117   5.241  36.939  12.027
 5645W        W74118   1.458  35.874  10.427
 5646W        W74119   8.337  41.026   1.797
 5647W        W74120   0.989  25.113  12.073
 5648W        W74121  21.705   6.713   1.369
 5649W        W74122  44.972  21.211   1.873
 5650W        W74123  38.405  35.524  10.429
 5651W        W74124  21.707  12.795   0.466
 5652W        W74125  15.132  14.105   3.861
 5653W        W74126  37.914  15.598  11.540
 5654W        W74127  36.448   7.840   3.267
 5655W        W74128  33.913  36.455  14.014
 5656W        W74129  32.101  29.985   3.308
 5657W        W74130  36.994   0.316   0.357
 5658W        W74131   5.781  31.903  11.581
 5659W        W74132   7.807   8.839   3.295
 5660W        W74133   2.858  39.899   0.871
 5661W        W74134  40.334  39.902   1.419
 5662W        W74135  40.009  17.203   4.679
 5663W        W74136   1.377  28.463  11.005
 5664W        W74137  40.803  13.652   3.291
 5665W        W74138  19.572  15.203  10.962
 5666W        W74139  38.392  41.292  14.384
 5667W        W74140  14.643   1.252  11.467
 5668W        W74141  41.371  24.114   3.705
 5669W        W74142  26.998   4.877   1.910
 5670W        W74143  10.307  34.403   4.287
 5671W        W74144   8.847  23.053   2.678
 5672W        W74145  30.588  22.501   3.328
 5673W        W74146  43.508  17.576   4.705
 5674W        W74147  18.671  23.079   4.318
 5675W        W74148   1.351  37.554   1.848
 5676W        W74149  14.832  41.517   4.753
 5677W        W74150  42.957  34.052  13.522
 5678W        W74151  27.158  24.088   2.894
 5679W        W74152  13.624  30.968  13.054
 5680W        W74153  31.437  27.515   0.410
 5681W        W74154  19.237  41.356   1.854
 5682W        W74155  43.790  36.995  11.459
 5683W        W74156  30.091  25.020   2.225
 5684W        W74157  37.471  25.174  10.622
 5685W        W74158  43.916  40.457   1.894
 5686W        W74159  30.934  25.051  10.903
 5687W        W74160   3.455   4.926   5.319
 5688W        W74161  31.557   5.815  11.457
 5689W        W74162   8.356   0.779  10.629
 5690W        W74163  21.662  13.657   3.374
 5691W        W74164  17.573  44.473  11.941
 5692W        W74165  40.895  34.557  14.911
 5693W        W74166  29.634  26.485  10.007
 5694W        W74167  42.002  25.486  13.496
 5695W        W74168  12.352  13.296   2.743
 5696W        W74169   6.914  37.044   1.443
 5697W        W74170  10.164   6.756  12.573
 5698W        W74171  12.219  25.569   1.745
 5699W        W74172  44.311  24.683   0.922
 5700W        W74173  21.023  14.617   4.212
 5701W        W74174  25.661  31.535  12.499
 5702W        W74175  19.704   4.734  10.432
 5703W        W74176  31.558  22.045  12.016
 5704W        W74177  11.848  10.700   2.411
 5705W        W74178  38.563  17.090   2.785
 5706W        W74179  22.076  42.343   3.293
 5707W        W74180  29.534  28.539  14.292
 5708W        W74181  25.189  27.464  11.414
 5709W        W74182  33.966  24.222  14.819
 5710W        W74183  32.520  44.895   1.748
 5711W        W74184  26.506  26.033  11.597
 5712W        W74185  24.131  17.645   0.313
 5713W        W74186  11.260  37.879  12.348
 5714W        W74187  35.460  28.068   0.750
 5715W        W74188  39.001  29.530   0.394
 5716W        W74189  39.914  13.711  10.418
 5717W        W74190  17.610   8.739   1.445
 5718W        W74191   7.805  38.568   0.430
 5719W        W74192   6.377   8.265   3.778
 5720W        W74193   6.258  13.169   4.822
 5721W        W74194   3.450   3.828  11.099
 5722W        W74195  32.026  20.076  14.995
 5723W        W74196  36.923   0.307  11.905
 5724W        W74197  26.466  28.448  12.044
 5725W        W74198  25.980  26.467  13.521
 5726W        W74199  38.328   8.859   3.316
 5727W        W74200  19.734   7.295  13.900
 5728W        W74201   4.299  21.663   3.217
 5729W        W74202  20.551  17.235  14.772
 5730W        W74203  12.772   7.393   0.773
 5731W        W74204  41.920  13.265   0.780
 5732W        W74205  25.650  16.287  13.316
 5733W        W74206  26.540   2.873   4.272
 5734W        W74207  29.497  18.219  14.022
 5735W        W74208   7.894  31.412  10.553
 5736W        W74209   5.274  19.753  11.516
 5737W        W74210  42.031  28.622   1.240
 5738W        W74211   8.828   1.751  12.403
 5739W        W74212  10.836  16.682   3.652
 5740W        W74213  39.014  42.921  13.967
 5741W        W74214  28.633  15.785   2.884
 5742W        W74215  10.164  20.746  11.498
 5743W        W74216  29.918  10.265   4.233
 5744W        W74217  22.684  31.996  13.051
 5745W        W74218  26.558  40.799   3.699
 5746W        W74219  11.669   3.856   2.339
 5747W        W74220   5.241  17.672   4.293
 5748W        W74221  25.696  21.162  10.644
 5749W        W74222  20.214   6.328   0.945
 5750W        W74223  33.526  21.610  14.368
 5751W        W74224  20.042   0.820  14.972
 5752W        W74225  32.447   6.824  10.572
 5753W        W74226  16.599  37.922   1.264
 5754W        W74227   8.370   7.707   0.798
 5755W        W74228   7.811  29.015  14.861
 5756W        W74229   3.403  10.822   1.786
 5757W        W74230  15.760  33.524  14.326
 5758W        W74231  30.503  12.236  13.335
 5759W        W74232  11.136  20.064  11.522
 5760W        W74233  22.655  27.964   3.664
 5761W        W74234  31.118  16.116   4.319
 5762W        W74235  23.544   6.230   0.884
 5763W        W74236  29.080   1.824   2.786
 5764W        W74237  11.238   9.388  11.055
 5765W        W74238  37.495  25.682  11.525
 5766W        W74239  16.251  39.818  11.905
 5767W        W74240  20.253   3.359  11.109
 5768W        W74241  33.410  37.531   4.248
 5769W        W74242   6.411  18.069   9.944
 5770W        W74243  27.156  26.600  11.454
 5771W        W74244  32.437  38.418   0.816
 5772W        W74245  14.140   8.214  13.015
 5773W        W74246  20.537   2.292   2.854
 5774W        W74247  22.571  32.949  13.382
 5775W        W74248   0.935  15.796  14.489
 5776W        W74249   0.420  21.532   0.431
 5777W        W74250  22.597  24.708   5.124
 5778W        W74251  38.334  39.064   4.265
 5779W        W74252  11.347  18.708  12.070
 5780W        W74253  30.064  41.331   1.285
 5781W        W74254  22.676  28.500  12.878
 5782W        W74255  43.321  25.703   1.815
 5783W        W74256  26.462  30.620   0.315
 5784W        W74257  12.785  19.733   4.302
 5785W        W74258  17.210  36.461  11.978
 5786W        W74259   2.359   7.279   3.161
 5787W        W74260  22.170   2.256   4.736
 5788W        W74261  34.576  27.974  13.796
 5789W        W74262  42.988  22.605   2.762
 5790W        W74263  37.067  40.523  14.817
 5791W        W74264   5.779  30.543  12.872
 5792W        W74265   4.724  42.835   5.306
 5793W        W74266  28.033  21.168  14.459
 5794W        W74267   3.739  34.508   4.832
 5795W        W74268  25.482  13.301   2.721
 5796W        W74269  39.461  29.491   4.115
 5797W        W74270  21.229  28.643   1.833
 5798W        W74271  28.990  26.672  12.059
 5799W        W74272  30.915  20.614   0.331
 5800W        W74273  34.045  12.797  13.889
 5801W        W74274  41.793   1.345   0.340
 5802W        W74275  34.532  39.813   3.780
 5803W        W74276  40.417  36.033  10.459
 5804W        W74277  11.795  29.935  13.351
 5805W        W74278  25.080  20.711   2.723
 5806W        W74279  15.742  19.231  14.885
 5807W        W74280  36.998  16.647  13.813
 5808W        W74281  35.379  16.634  13.502
 5809W        W74282  41.999  25.175  14.384
 5810W        W74283   1.478   1.428  14.881
 5811W        W74284  19.145  23.530  14.013
 5812W        W74285   2.299  20.538   1.347
 5813W        W74286  10.683  39.476   4.313
 5814W        W74287  35.436  30.056  13.520
 5815W        W74288  33.885  20.527   4.254
 5816W        W74289  39.025  19.766  12.837
 5817W        W74290  42.979  36.042   2.669
 5818W        W74291  20.157  24.076   3.690
 5819W        W74292  18.745   4.804   2.885
 5820W        W74293  23.712   6.280   0.407
 5821W        W74294  39.059  28.109  13.391
 5822W        W74295  27.141   5.761  12.451
 5823W        W74296  29.977  22.045   4.820
 5824W        W74297  43.293  22.669  10.613
 5825W        W74298   1.278  24.113   3.284
 5826W        W74299  20.201   1.414  14.340
 5827W        W74300   0.460  33.982  13.891
 5828W        W74301  13.212   2.274  12.425
 5829W        W74302   2.832  22.717  12.025
 5830W        W74303  11.755  33.939  10.562
 5831W        W74304  24.601  12.208   3.263
 5832W        W74305  22.578  41.504   2.369
 5833W        W74306  19.052  44.921   1.792
 5834W        W74307  23.541  32.593  10.413
 5835W        W74308  21.593  29.450  10.479
 5836W        W74309   0.965   6.805  13.470
 5837W        W74310  25.036  37.431  14.462
 5838W        W74311   5.803  27.487   4.266
 5839W        W74312  30.932  39.859  11.973
 5840W        W74313  18.718  34.437   3.266
 5841W        W74314  35.426  33.429  13.035
 5842W        W74315   1.865  11.808   2.749
 5843W        W74316  44.802  44.370  14.450
 5844W        W74317   9.215   5.262  10.945
 5845W        W74318   9.782  32.583   0.331
 5846W        W74319   4.277  16.144   2.815
 5847W        W74320  35.991   1.961  12.026
 5848W        W74321  37.399  18.155   2.760
 5849W        W74322   4.761  13.786  10.042
 5850W        W74323  43.403  28.579   1.894
 5851W        W74324  21.065  16.790   0.795
 5852W        W74325  10.648  22.026   0.356
 5853W        W74326   6.708  14.317   5.222
 5854W        W74327   2.878  22.181  12.996
 5855W        W74328  10.286  42.819  14.351
 5856W        W74329  18.758  19.209   4.797
 5857W        W74330  13.827  12.218   4.646
 5858W        W74331  41.958  26.663  12.921
 5859W        W74332  16.644  32.129  11.894
 5860W        W74333  27.968   1.344   0.270
 5861W        W74334  13.297  36.563  13.314
 5862W        W74335  42.786   9.291  10.580
 5863W        W74336  18.194  31.568  12.017
 5864W        W74337   6.825  25.986  12.833
 5865W        W74338  43.830  39.360  10.916
 5866W        W74339  41.892  38.846   2.196
 5867W        W74340  10.299  29.039  14.377
 5868W        W74341   5.791  31.955  14.506
 5869W        W74342  41.018  14.604   1.324
 5870W        W74343  27.525  17.691  13.433
 5871W        W74344  36.400  39.470   1.424
 5872W        W74345  38.439  44.488   2.326
 5873W        W74346  36.566  14.225  11.099
 5874W        W74347  18.782  30.597   0.765
 5875W        W74348  13.286  15.781   0.821
 5876W        W74349   7.345  17.256  13.364
 5877W        W74350  27.665  17.560   4.192
 5878W        W74351  35.551  24.659  12.900
 5879W        W74352  28.477  35.578   4.348
 5880W        W74353  13.766  28.484   2.688
 5881W        W74354  11.358   7.826   3.191
 5882W        W74355  16.226  38.968  13.846
 5883W        W74356  39.418   2.318  12.491
 5884W        W74357  20.044  22.591   2.291
 5885W        W74358   0.435  24.524  11.418
 5886W        W74359  20.129  21.253   3.843
 5887W        W74360   8.866   5.766   3.667
 5888W        W74361  31.607  24.144  11.899
 5889W        W74362  25.174   0.883  10.991
 5890W        W74363  26.045  33.877  11.455
 5891W        W74364   8.243  31.585   0.931
 5892W        W74365  36.862  29.174  11.384
 5893W        W74366  31.634   9.258  10.429
 5894W        W74367  41.453  10.180  10.586
 5895W        W74368  10.864  29.132  14.488
 5896W        W74369   8.784  24.142   4.725
 5897W        W74370   2.463   3.414  13.966
 5898W        W74371  20.658  29.037   3.648
 5899W        W74372  38.005  23.693  11.902
 5900W        W74373  17.165  27.684  14.428
 5901W        W74374  11.130  30.563  12.051
 5902W        W74375  22.642  37.443   2.825
 5903W        W74376  39.869  10.354   1.287
 5904W        W74377  32.100   3.778   4.328
 5905W        W74378  20.220  17.682   2.756
 5906W        W74379  33.884  40.304   3.823
 5907W        W74380  15.712  38.002  10.474
 5908W        W74381  23.987   8.314   4.237
 5909W        W74382  11.818  25.573  12.387
 5910W        W74383  28.476  40.876   3.769
 5911W        W74384   5.829  30.975  12.910
 5912W        W74385  11.336  35.029  14.030
 5913W        W74386  20.672  32.519  12.016
 5914W        W74387  31.938  12.174  11.602
 5915W        W74388  13.140  42.339  14.451
 5916W        W74389  42.850  37.550   4.792
 5917W        W74390  26.682  19.538   4.203
 5918W        W74391  44.439  22.032  11.601
 5919W        W74392  26.077  44.328   0.959
 5920W        W74393   2.293  21.590  10.472
 5921W        W74394  11.187  13.183   2.224
 5922W        W74395  12.231  35.997   1.741
 5923W        W74396  22.151  11.744   0.766
 5924W        W74397   3.287   1.794  14.785
 5925W        W74398   6.376  11.826   2.352
 5926W        W74399   8.370  10.376  10.623
 5927W        W74400  30.466  31.073  14.281
 5928W        W74401  30.478  26.586  10.574
 5929W        W74402  19.241   8.282   3.322
 5930W        W74403  25.481  25.062  11.593
 5931W        W74404  11.717  32.009  11.520
 5932W        W74405  22.508  14.615   2.399
 5933W        W74406  27.669  26.036  11.047
 5934W        W74407   5.721  12.300  11.080
 5935W        W74408   1.239  11.300  14.905
 5936W        W74409  15.651  18.088  14.336
 5937W        W74410  42.287  35.369  14.276
 5938W        W74411   1.441  24.687   4.614
 5939W        W74412  12.618  18.784   0.295
 5940W        W74413  43.353  40.489  14.941
 5941W        W74414  12.193  13.291   2.229
 5942W        W74415   7.703  11.362   3.756
 5943W        W74416   3.792  20.194   2.891
 5944W        W74417  33.070  26.524   4.674
 5945W        W74418  29.149  14.620   4.675
 5946W        W74419  34.392  31.955  12.978
 5947W        W74420   1.763   2.895   3.173
 5948W        W74421  11.742  36.052  13.912
 5949W        W74422  26.460  27.131   2.881
 5950W        W74423  38.982  23.725  11.420
 5951W        W74424   1.762  10.839  10.961
 5952W        W74425  39.023  28.436  13.312
 5953W        W74426   8.728  31.498   0.881
 5954W        W74427  15.129  27.176   0.256
 5955W        W74428  11.215  18.199  13.376
 5956W        W74429  16.749  15.673   4.231
 5957W        W74430  17.201   7.180   4.267
 5958W        W74431   0.471   0.929   0.946
 5959W        W74432  21.605  29.093  12.885
 5960W        W74433  19.742  17.262   2.245
 5961W        W74434   0.844  24.124  10.528
 5962W        W74435   7.713   2.736   1.715
 5963W        W74436  13.178  19.546   5.311
 5964W        W74437  41.040  42.856   1.444
 5965W        W74438  32.454   2.234  12.878
 5966W        W74439  39.496   5.284   2.894
 5967W        W74440  24.133  31.053  10.504
 5968W        W74441   1.349  13.741  14.857
 5969W        W74442   7.784  41.803   2.669
 5970W        W74443   5.744  41.453  13.809
 5971W        W74444  32.430  22.017  12.549
 5972W        W74445   6.288  36.984  11.429
 5973W        W74446  29.430   5.889  11.895
 5974W        W74447   0.819  23.699   9.936
 5975W        W74448  44.860   1.881   2.234
 5976W        W74449   6.905   5.888   0.862
 5977W        W74450   7.901   4.838  13.950
 5978W        W74451  27.153  20.237  10.928
 5979W        W74452  37.515  19.652  14.300
 5980W        W74453  41.002  13.212  11.610
 5981W        W74454  37.850  14.190  14.851
 5982W        W74455  30.064  39.372   3.387
 5983W        W74456  23.694  27.964   3.257
 5984W        W74457  32.928  42.301  10.014
 5985W        W74458  29.449  24.604  13.346
 5986W        W74459  34.950  30.604   1.728
 5987W        W74460  29.976  33.472   2.707
 5988W        W74461   6.238  27.151  11.947
 5989W        W74462  23.143   6.224   2.780
 5990W        W74463   6.777  13.127   5.728
 5991W        W74464  44.318  14.294   1.366
 5992W        W74465   0.403  19.045   2.861
 5993W        W74466  41.959  28.945  10.527
 5994W        W74467  20.737  41.308   0.865
 5995W        W74468   3.759  39.876   0.402
 5996W        W74469  25.629  41.303   1.758
 5997W        W74470   6.715  23.681  13.850
 5998W        W74471  26.608  44.850   0.436
 5999W        W74472   6.223  26.575   2.893
 6000W        W74473  24.023  27.617  13.546
 6001W        W74474  35.967  34.432   0.355
 6002W        W74475  23.730   3.346   4.164
 6003W        W74476   1.912   8.276   2.841
 6004W        W74477  25.189  13.804   0.274
 6005W        W74478  39.816  30.645   3.842
 6006W        W74479   3.768  16.779   0.452
 6007W        W74480  25.591  41.956   2.331
 6008W        W74481  39.902  32.449   4.197
 6009W        W74482   9.171  14.203   0.314
 6010W        W74483   3.250  12.299  14.777
 6011W        W74484  37.993  17.760  12.915
 6012W        W74485  14.697   8.380  12.068
 6013W        W74486   8.334  10.771  13.482
 6014W        W74487   6.314  37.565  14.995
 6015W        W74488  20.535  34.869  12.911
 6016W        W74489  11.333  43.904   4.642
 6017W        W74490   1.471   0.411  14.833
 6018W        W74491  16.303   3.248   4.127
 6019W        W74492  10.163  31.022  12.057
 6020W        W74493  19.654   7.257   3.367
 6021W        W74494  44.777  44.330  11.857
 6022W        W74495  33.609  44.480  12.857
 6023W        W74496   7.867  39.917  12.951
 6024W        W74497  35.911  32.542  13.425
 6025W        W74498  44.463  44.938   4.770
 6026W        W74499  24.621  14.597   2.230
 6027W        W74500  18.268  31.124  13.037
 6028W        W74501   8.725  30.131   0.267
 6029W        W74502  40.844  38.988   3.658
 6030W        W74503  12.729  27.088   2.195
 6031W        W74504  10.858  30.117  11.977
 6032W        W74505  38.470  35.498   3.787
 6033W        W74506  41.952  22.108  11.588
 6034W        W74507   0.375  39.022  12.838
 6035W        W74508  10.315  21.144   1.311
 6036W        W74509  26.054  41.311   4.197
 6037W        W74510  20.758  25.625   0.784
 6038W        W74511  35.555  17.133  10.924
 6039W        W74512  44.978  11.640   3.323
 6040W        W74513  18.609  44.939   3.338
 6041W        W74514  40.374  32.080   2.735
 6042W        W74515  20.075  16.799   2.377
 6043W        W74516  23.519  29.650   2.665
 6044W        W74517   2.339  15.764  11.928
 6045W        W74518  22.015   7.793   0.300
 6046W        W74519  21.041  24.103   0.964
 6047W        W74520   8.324  34.078   5.132
 6048W        W74521  25.999   6.398  13.021
 6049W        W74522   7.183  44.908  12.948
 6050W        W74523  40.465  23.636  13.434
 6051W        W74524  34.382  18.653  11.411
 6052W        W74525  40.396  21.206  10.977
 6053W        W74526  22.214   3.905  10.887
 6054W        W74527  27.184  44.298   0.848
 6055W        W74528  16.638  34.903  14.839
 6056W        W74529  38.444  39.503   4.296
 6057W        W74530  12.212  33.068  10.892
 6058W        W74531  21.555   6.197   2.770
 6059W        W74532  25.523  16.611  10.512
 6060W        W74533   1.252   6.216   2.774
 6061W        W74534  14.136  33.523  11.492
 6062W        W74535   8.837  28.966  10.565
 6063W        W74536  43.890  12.140  14.000
 6064W        W74537  10.311   1.772   1.787
 6065W        W74538  40.463  38.030  14.423
 6066W        W74539   3.395  18.125  12.440
 6067W        W74540  10.821  31.933  11.034
 6068W        W74541  43.941  35.919   0.883
 6069W        W74542  15.734   9.354  10.555
 6070W        W74543  15.615  34.378  11.944
 6071W        W74544  34.038  38.966  13.045
 6072W        W74545   2.721  10.797   4.741
 6073W        W74546  38.395  36.392   4.800
 6074W        W74547   4.367  17.246  12.430
 6075W        W74548   0.404  43.852  14.351
 6076W        W74549  20.188  32.562  12.049
 6077W        W74550  26.552  18.651  14.912
 6078W        W74551   6.732  12.241   1.929
 6079W        W74552  31.518   2.924  11.563
 6080W        W74553  31.548   4.775   3.269
 6081W        W74554  11.792  30.096  12.456
 6082W        W74555  30.425   3.359   9.955
 6083W        W74556   2.348  25.584   2.244
 6084W        W74557  25.598  41.941   3.289
 6085W        W74558   8.667   1.897   3.758
 6086W        W74559  37.868   2.259  14.859
 6087W        W74560  37.486  18.282   0.268
 6088W        W74561  41.854   3.923   2.845
 6089W        W74562  31.929  16.593   3.323
 6090W        W74563  12.131   5.731   0.432
 6091W        W74564  41.504   7.331   3.344
 6092W        W74565  34.415  34.499  10.530
 6093W        W74566   1.885  27.187  14.937
 6094W        W74567  21.692  26.684   3.692
 6095W        W74568  24.007  13.772  12.985
 6096W        W74569  38.485  39.351  12.359
 6097W        W74570  31.429  39.822   0.418
 6098W        W74571  21.229  37.067  13.015
 6099W        W74572  17.238   2.821   3.283
 6100W        W74573  30.950   3.830   0.833
 6101W        W74574  17.797  41.967  10.635
 6102W        W74575   5.307   1.438   0.811
 6103W        W74576   5.333   9.830  11.114
 6104W        W74577   5.925  26.560   4.339
 6105W        W74578  29.591   0.403   3.752
 6106W        W74579  26.992  32.922  10.636
 6107W        W74580  17.269   4.276  12.482
 6108W        W74581  13.833  34.528   2.662
 6109W        W74582   0.976  17.259  12.887
 6110W        W74583  14.686  10.729  12.922
 6111W        W74584   2.931   2.803   3.215
 6112W        W74585  41.033  31.934  14.349
 6113W        W74586  18.637  34.005   2.715
 6114W        W74587  24.028   3.809   4.153
 6115W        W74588  14.652   0.308   4.795
 6116W        W74589   4.819  40.991  13.416
 6117W        W74590  11.827  17.307  10.556
 6118W        W74591  29.058  37.846   4.606
 6119W        W74592  36.969  20.596  14.017
 6120W        W74593   0.262  23.520   1.720
 6121W        W74594  44.950  20.118  13.817
 6122W        W74595  15.109  37.547   9.932
 6123W        W74596   9.169   9.699   1.306
 6124W        W74597   9.777  21.242  11.578
 6125W        W74598  15.668  22.239   0.398
 6126W        W74599   0.422  37.463  11.958
 6127W        W74600   7.392  12.848  12.847
 6128W        W74601   3.849  20.064  11.892
 6129W        W74602  19.614  34.092  14.862
 6130W        W74603  33.517  44.291  14.396
 6131W        W74604   0.468  26.996   3.368
 6132W        W74605   6.363  17.770   3.689
 6133W        W74606  22.680  13.348   0.766
 6134W        W74607  14.163  16.581  14.767
 6135W        W74608  20.109  14.684   0.278
 6136W        W74609  40.853  12.268   4.183
 6137W        W74610  37.943  18.790   3.673
 6138W        W74611  28.951  10.156   0.406
 6139W        W74612   4.824  22.655  14.375
 6140W        W74613  21.534   7.770  13.822
 6141W        W74614  20.090  21.127   2.693
 6142W        W74615  44.363   0.396   3.335
 6143W        W74616  34.558  31.565  10.999
 6144W        W74617  10.146  20.698   3.714
 6145W        W74618  37.501  15.706   4.728
 6146W        W74619  19.230   1.967   0.915
 6147W        W74620  29.928  23.717   0.469
 6148W        W74621  17.287  33.101   3.811
 6149W        W74622   4.300  24.042  13.506
 6150W        W74623   1.765  18.586   2.687
 6151W        W74624   1.392   2.841  14.927
 6152W        W74625  30.513  44.827   4.598
 6153W        W74626  21.184   4.219   9.976
 6154W        W74627  27.523  44.343  13.343
 6155W        W74628  41.822  43.391   1.273
 6156W        W74629  31.417   9.852   2.362
 6157W        W74630  12.261   5.788  13.902
 6158W        W74631  34.591  12.684   1.845
 6159W        W74632  25.998  26.204   0.872
 6160W        W74633  22.045  14.671   5.224
 6161W        W74634  24.521  40.366  10.445
 6162W        W74635  10.364  41.902  11.482
 6163W        W74636  41.298  25.137  13.492
 6164W        W74637  12.276  32.490   1.853
 6165W        W74638  40.424  18.601   3.748
 6166W        W74639  31.931  40.530   1.313
 6167W        W74640  26.633   8.803  11.896
 6168W        W74641  11.276  16.607   3.698
 6169W        W74642  32.569  43.914  13.907
 6170W        W74643  15.675  40.413  12.858
 6171W        W74644   8.806  29.484   2.419
 6172W        W74645  16.599  20.241   0.952
 6173W        W74646  36.361  39.372  13.307
 6174W        W74647  16.090   0.319  10.551
 6175W        W74648  29.662  11.133   3.148
 6176W        W74649  30.544  30.481  12.341
 6177W        W74650  15.190  43.440  14.908
 6178W        W74651  20.588  11.830  11.876
 6179W        W74652   2.721  31.962  10.597
 6180W        W74653  21.205   6.242   0.865
 6181W        W74654  28.476  23.008  14.935
 6182W        W74655  37.843  21.617  12.035
 6183W        W74656  24.174   6.289  10.556
 6184W        W74657   0.351  23.016  13.919
 6185W        W74658  17.795  38.552  10.096
 6186W        W74659   8.722  11.182   0.421
 6187W        W74660   4.316  23.688   3.334
 6188W        W74661  11.745   5.387   1.728
 6189W        W74662  28.645   4.722  12.418
 6190W        W74663   8.218  37.581   4.322
 6191W        W74664  27.085   2.821  12.030
 6192W        W74665  43.020  19.700  10.418
 6193W        W74666   4.369   2.282   3.806
 6194W        W74667   6.721  40.429  10.567
 6195W        W74668  15.267  28.105  12.400
 6196W        W74669   4.241  28.474   0.958
 6197W        W74670   9.707  42.415  14.345
 6198W        W74671  26.092   2.780   3.170
 6199W        W74672  35.041  20.167  14.942
 6200W        W74673  29.140  11.778   2.187
 6201W        W74674  27.685  23.189   1.280
 6202W        W74675  40.908  44.478   3.637
 6203W        W74676  34.491  26.974  12.403
 6204W        W74677  30.502  11.186  12.079
 6205W        W74678  31.064  16.784   2.851
 6206W        W74679  10.225   5.785  14.936
 6207W        W74680  42.420  13.726   3.679
 6208W        W74681   9.667  12.745   3.670
 6209W        W74682  38.334   5.703  11.605
 6210W        W74683  26.691   7.798  12.516
 6211W        W74684   9.663  42.995   0.313
 6212W        W74685  39.414  12.283  12.520
 6213W        W74686  21.538  24.707   1.230
 6214W        W74687  39.320  42.369   0.745
 6215W        W74688  17.693  33.930   4.608
 6216W        W74689   2.444  41.885  10.630
 6217W        W74690  30.004  39.374   2.210
 6218W        W74691   5.370  40.494  12.430
 6219W        W74692  28.617  31.433  14.766
 6220W        W74693   7.259  31.458  13.960
 6221W        W74694  15.698   6.356   5.286
 6222W        W74695   7.768  39.525  10.486
 6223W        W74696   3.398  15.113   0.880
 6224W        W74697  43.340  20.632  10.467
 6225W        W74698  23.516  37.045   0.473
 6226W        W74699  44.010  11.307   1.447
 6227W        W74700  40.801  43.318   4.776
 6228W        W74701  20.199  24.200  14.377
 6229W        W74702  44.281  33.461  13.431
 6230W        W74703  26.036   2.953  12.966
 6231W        W74704  27.473  26.506  13.915
 6232W        W74705   4.762  35.490  12.497
 6233W        W74706  35.491  33.074  13.547
 6234W        W74707  33.081  26.545  11.385
 6235W        W74708  26.532  44.421   2.774
 6236W        W74709  17.663   3.334   3.354
 6237W        W74710   1.905  28.607   2.287
 6238W        W74711   1.880  26.681  13.399
 6239W        W74712  11.710  41.352  13.856
 6240W        W74713  11.784  12.833   3.341
 6241W        W74714  33.614   0.380  10.151
 6242W        W74715  25.218   5.856  13.837
 6243W        W74716  17.194   3.422   1.276
 6244W        W74717  24.615   4.422  12.375
 6245W        W74718  39.374  19.667   3.175
 6246W        W74719  39.886  38.034   1.907
 6247W        W74720   2.234  29.468  11.381
 6248W        W74721  31.024  21.707  13.867
 6249W        W74722  42.991  44.328   1.710
 6250W        W74723  26.090   3.752   0.307
 6251W        W74724  41.337  34.500   0.405
 6252W        W74725  38.501  33.031   3.364
 6253W        W74726  36.050  35.063   0.411
 6254W        W74727  17.119  42.907  11.439
 6255W        W74728  39.535   7.305   1.230
 6256W        W74729  27.979  12.170  11.424
 6257W        W74730  37.976  13.231   3.817
 6258W        W74731   0.970  12.615   1.845
 6259W        W74732  24.027  36.520  10.503
 6260W        W74733  22.248  10.343   0.369
 6261W        W74734  36.098  31.429  12.485
 6262W        W74735  41.316   7.817   2.675
 6263W        W74736  33.078   6.713  14.002
 6264W        W74737  32.135  23.115  10.459
 6265W        W74738  16.712  42.791  13.898
 6266W        W74739  34.395  19.234  14.276
 6267W        W74740   5.237  35.388  14.489
 6268W        W74741  22.501  26.610  12.451
 6269W        W74742   5.381  29.605  10.624
 6270W        W74743   9.747  11.638   4.340
 6271W        W74744  16.093  44.273   4.208
 6272W        W74745  18.659  17.303   0.843
 6273W        W74746  27.446  41.425   4.778
 6274W        W74747  13.642  44.428  11.976
 6275W        W74748   5.910  21.566  10.954
 6276W        W74749   2.243  42.983  14.505
 6277W        W74750  10.235  42.469  12.448
 6278W        W74751  14.756   0.478   0.733
 6279W        W74752  19.160  34.603   3.815
 6280W        W74753  35.579  26.029  12.394
 6281W        W74754  28.179   7.909  12.915
 6282W        W74755  44.859  13.223   4.180
 6283W        W74756  20.749  17.646  13.959
 6284W        W74757  23.043  30.018   0.403
 6285W        W74758  22.246  20.662  11.450
 6286W        W74759  10.840  16.152  10.974
 6287W        W74760   6.831   0.953   1.855
 6288W        W74761  17.173  41.319  14.910
 6289W        W74762  28.116  31.422  13.426
 6290W        W74763  31.644  29.963   4.836
 6291W        W74764  11.230  17.730  10.997
 6292W        W74765  15.748   0.909  14.889
 6293W        W74766  44.951  29.653   4.171
 6294W        W74767  33.033   4.212  10.622
 6295W        W74768  21.175  13.125  12.489
 6296W        W74769   2.323   2.722  12.849
 6297W        W74770  16.765  23.181   1.359
 6298W        W74771  20.211  39.904  10.906
 6299W        W74772  12.173  19.152  12.914
 6300W        W74773   4.824  16.731   0.247
 6301W        W74774   1.280  36.086  14.999
 6302W        W74775  38.050  27.668   1.755
 6303W        W74776  35.379   7.752   2.404
 6304W        W74777  37.974  11.312  13.333
 6305W        W74778   6.893   6.681  13.855
 6306W        W74779  44.953  42.883  14.322
 6307W        W74780  14.255  11.669   1.734
 6308W        W74781   6.212   2.863  14.990
 6309W        W74782   3.232   7.406   0.273
 6310W        W74783  17.170  27.459  10.534
 6311W        W74784   5.408  35.597  12.421
 6312W        W74785  39.340   5.840  12.471
 6313W        W74786   9.384  13.192   4.146
 6314W        W74787  35.076  26.633   0.482
 6315W        W74788   6.311  26.021  14.994
 6316W        W74789  43.441   2.799   3.749
 6317W        W74790  23.669   3.379  10.457
 6318W        W74791   7.868   9.869   3.209
 6319W        W74792  21.752  34.400   0.247
 6320W        W74793  23.581  39.865  14.914
 6321W        W74794  33.132  17.173  14.298
 6322W        W74795  23.548  27.593   5.125
 6323W        W74796   6.918   4.803   4.779
 6324W        W74797   7.839   7.839   2.195
 6325W        W74798  28.003   4.442  11.599
 6326W        W74799  41.872  16.670   3.805
 6327W        W74800   9.842   1.328  14.393
 6328W        W74801  19.108   5.732   3.694
 6329W        W74802  38.436  19.282  14.367
 6330W        W74803   5.196  21.257   1.853
 6331W        W74804  20.173  32.901  12.966
 6332W        W74805  27.022  32.042   4.182
 6333W        W74806   1.469  15.190   4.343
 6334W        W74807  21.713  30.163   3.368
 6335W        W74808  20.598  18.622   2.233
 6336W        W74809   5.338  37.879   1.813
 6337W        W74810  20.694  42.820   1.212
 6338W        W74811   7.305   9.364  10.475
 6339W        W74812  26.135   4.397  13.314
 6340W        W74813  11.708   9.354  10.959
 6341W        W74814   2.318   3.307   2.864
 6342W        W74815  35.910  25.545  13.819
 6343W        W74816  24.525   9.251  11.078
 6344W        W74817  40.857  20.632   3.361
 6345W        W74818  22.069  42.930  13.960
 6346W        W74819  28.115   3.450  13.901
 6347W        W74820  25.471   3.403   5.182
 6348W        W74821   6.707  40.842  11.485
 6349W        W74822  42.997  12.153  14.290
 6350W        W74823  27.966   5.417   2.410
 6351W        W74824  13.120   5.415  13.487
 6352W        W74825  29.668  10.330  11.056
 6353W        W74826  33.476  31.070   4.675
 6354W        W74827  38.985  19.047  12.471
 6355W        W74828  31.994  44.847   4.146
 6356W        W74829   4.867   0.932  10.022
 6357W        W74830  44.936  19.701  12.842
 6358W        W74831   6.419  27.620  11.915
 6359W        W74832  36.940  18.164   3.383
 6360W        W74833  41.830  23.142  11.477
 6361W        W74834  30.109  22.096   3.716
 6362W        W74835   6.724   4.425   0.290
 6363W        W74836  12.678  38.023  10.951
 6364W        W74837   2.861  36.893  12.823
 6365W        W74838  41.850  34.901  14.942
 6366W        W74839  24.078  11.850   4.607
 6367W        W74840  22.706  24.188  11.086
 6368W        W74841  21.692   3.909   0.954
 6369W        W74842  23.678  34.587   0.425
 6370W        W74843   2.321  28.615  13.907
 6371W        W74844  20.069  20.245  13.462
 6372W        W74845  19.537  26.029   2.821
 6373W        W74846  30.644   2.734   3.222
 6374W        W74847   2.965  14.300  10.970
 6375W        W74848   0.939  23.179  13.418
 6376W        W74849  24.684  37.878  11.540
 6377W        W74850  25.156  17.759  13.439
 6378W        W74851  34.388  32.138  11.604
 6379W        W74852  34.082  25.656  12.092
 6380W        W74853  36.035   4.251   0.958
 6381W        W74854  21.692  39.403   4.836
 6382W        W74855  30.136  25.546   4.603
 6383W        W74856  10.845  29.052   3.707
 6384W        W74857  36.988  40.406  12.064
 6385W        W74858   9.246  18.283   2.266
 6386W        W74859  22.221  13.242  13.480
 6387W        W74860  39.362   1.378   0.794
 6388W        W74861  26.651  24.078  10.525
 6389W        W74862  39.329  37.562  11.990
 6390W        W74863  12.129  43.360   4.605
 6391W        W74864   5.851  12.836   2.309
 6392W        W74865  24.080  26.178  11.038
 6393W        W74866  18.687   7.672  11.472
 6394W        W74867  44.956  13.337   0.962
 6395W        W74868  13.611   0.930  13.841
 6396W        W74869  13.311   3.881   4.243
 6397W        W74870  42.000  24.089  13.399
 6398W        W74871  26.965   9.355   4.248
 6399W        W74872  14.282  30.604   1.316
 6400W        W74873   5.218   4.255   1.237
 6401W        W74874   8.205  38.485  14.032
 6402W        W74875  44.366   4.252   0.847
 6403W        W74876  37.907  42.986   3.742
 6404W        W74877  31.543  41.538   1.844
 6405W        W74878   8.818  40.895  14.876
 6406W        W74879  35.444  14.193   1.251
 6407W        W74880  14.176  28.945  14.789
 6408W        W74881  29.010   6.228   3.163
 6409W        W74882  26.197  12.733  11.372
 6410W        W74883  34.453  18.137   0.260
 6411W        W74884  14.654   8.822  10.146
 6412W        W74885   5.780  17.153   4.685
 6413W        W74886  15.306  15.599   4.790
 6414W        W74887  17.140  31.612  12.930
 6415W        W74888   3.813  34.924   4.739
 6416W        W74889   6.854  18.765   4.232
 6417W        W74890  21.134  37.491  10.038
 6418W        W74891  20.268  26.528   1.769
 6419W        W74892  34.374   7.268  10.623
 6420W        W74893  36.050  19.117  11.504
 6421W        W74894  25.191  42.931   4.747
 6422W        W74895  12.219  16.611  12.906
 6423W        W74896   5.274   5.235   4.677
 6424W        W74897  25.150  17.174   2.201
 6425W        W74898  19.251  37.383   4.332
 6426W        W74899  42.014   0.469   4.338
 6427W        W74900  12.837  21.606   2.285
 6428W        W74901  26.605   0.339   4.716
 6429W        W74902  42.339  22.635   4.717
 6430W        W74903  33.949  39.500  10.613
 6431W        W74904  35.402  21.566   4.153
 6432W        W74905  27.509  18.631  12.379
 6433W        W74906  21.708  24.583   3.665
 6434W        W74907  26.536  43.806   4.344
 6435W        W74908  20.526  33.473   3.347
 6436W        W74909   6.234   6.833   0.407
 6437W        W74910  26.039  37.064  14.779
 6438W        W74911   8.360  36.418  12.574
 6439W        W74912   5.783  31.008  13.882
 6440W        W74913  26.495  20.732  14.401
 6441W        W74914  12.311  13.195  12.893
 6442W        W74915   1.454   9.708   2.696
 6443W        W74916  37.404  37.379  10.068
 6444W        W74917   2.928   5.342  14.760
 6445W        W74918  44.405  35.403   3.310
 6446W        W74919  25.556  24.044  10.949
 6447W        W74920   9.822  37.935  13.835
 6448W        W74921  16.180  36.508   3.806
 6449W        W74922  30.437  18.711  12.396
 6450W        W74923   9.722  16.243  10.516
 6451W        W74924  24.096  21.201   4.673
 6452W        W74925  30.445  20.097  13.011
 6453W        W74926  38.916   3.766  13.052
 6454W        W74927  18.150  23.535   1.387
 6455W        W74928  22.058  44.782   2.885
 6456W        W74929  26.184  11.220  12.016
 6457W        W74930   2.952  23.665  12.912
 6458W        W74931  43.498  44.406  10.986
 6459W        W74932  11.247   9.390   3.678
 6460W        W74933  27.063  18.580  12.914
 6461W        W74934  39.510   1.363  13.325
 6462W        W74935  38.477  22.059   0.427
 6463W        W74936  23.987  21.159   5.301
 6464W        W74937  11.820  37.995   0.904
 6465W        W74938  19.274  44.794  13.954
 6466W        W74939  35.101   4.372  13.512
 6467W        W74940  35.056  42.393   1.881
 6468W        W74941   9.681  23.138   2.761
 6469W        W74942  36.950   2.233  13.544
 6470W        W74943  40.844  41.969   2.364
 6471W        W74944  35.875  34.992   5.195
 6472W        W74945  37.452  37.914   0.300
 6473W        W74946  36.974   1.772  11.914
 6474W        W74947  27.060  20.105   4.717
 6475W        W74948  17.204  22.586  11.022
 6476W        W74949  28.576  28.469  14.766
 6477W        W74950  40.546   3.827   3.707
 6478W        W74951  26.023  18.217  14.283
 6479W        W74952  34.525   2.367  11.593
 6480W        W74953   5.879  31.010   1.449
 6481W        W74954  11.717  25.651   0.364
 6482W        W74955   4.772  44.309  12.483
 6483W        W74956  19.640   9.656  13.437
 6484W        W74957   2.934  13.176  11.953
 6485W        W74958  38.543  18.740  13.825
 6486W        W74959  33.893  41.888   5.122
 6487W        W74960  21.203  38.049   1.738
 6488W        W74961  13.323  30.912  13.435
 6489W        W74962  27.488  13.681  10.458
 6490W        W74963   3.938  14.645   1.788
 6491W        W74964  12.281  38.385  13.888
 6492W        W74965   4.888  35.495   3.254
 6493W        W74966  22.097  25.488  12.081
 6494W        W74967  29.069   5.239  13.018
 6495W        W74968  28.646  35.028   4.172
 6496W        W74969  18.159  27.955  11.390
 6497W        W74970  39.437  33.544  11.048
 6498W        W74971  22.187  12.723   9.620
 6499W        W74972  43.808  33.992   4.268
 6500W        W74973  31.045  38.040   0.475
 6501W        W74974  16.612  11.174  12.571
 6502W        W74975  26.975  19.745   2.668
 6503W        W74976  28.154  31.561   0.341
 6504W        W74977  23.177  33.068   0.320
 6505W        W74978  21.520  26.122   3.639
 6506W        W74979  29.032  21.731  10.995
 6507W        W74980  16.082  37.555   3.706
 6508W        W74981  32.059  11.624  10.541
 6509W        W74982  42.011  36.958   4.310
 6510W        W74983  27.102  40.535   2.237
 6511W        W74984  16.645  41.459  11.868
 6512W        W74985  36.056  31.035   4.766
 6513W        W74986  18.211   3.811   4.818
 6514W        W74987  15.683  20.039  10.466
 6515W        W74988   4.926   7.247   4.653
 6516W        W74989   5.850  11.750  13.805
 6517W        W74990  42.515  17.719  12.842
 6518W        W74991   1.859  36.475  10.917
 6519W        W74992  25.120  14.746  10.643
 6520W        W74993  30.615  21.586  14.789
 6521W        W74994  44.963   4.941   2.271
 6522W        W74995  40.844  37.977  11.529
 6523W        W74996  37.522  39.953   0.920
 6524W        W74997  21.160  24.128  11.122
 6525W        W74998  18.099  25.169  11.478
 6526W        W74999   7.370  28.630  13.981
 6527W        W75000  26.982   6.240   1.335
 6528W        W75001   6.293   1.975  12.004
 6529W        W75002  25.097  40.364  14.839
 6530W        W75003  36.871   6.714  10.894
 6531W        W75004  13.233   9.812  12.480
 6532W        W75005  28.502   0.814   3.205
 6533W        W75006  15.802  27.123  13.054
 6534W        W75007  32.509   7.755   4.182
 6535W        W75008   5.276  16.207  10.490
 6536W        W75009  13.785  34.510   3.209
 6537W        W75010  32.595  26.049   3.659
 6538W        W75011   2.911  39.339  10.898
 6539W        W75012  22.221  40.030  13.030
 6540W        W75013  32.947  42.876   3.642
 6541W        W75014  13.179   4.703  12.573
 6542W        W75015  35.918   0.259  12.501
 6543W        W75016  42.984  43.980  13.532
 6544W        W75017   6.252  37.834   2.404
 6545W        W75018  16.796  18.740  11.603
 6546W        W75019  17.280  16.692   3.766
 6547W        W75020   9.704  30.139  14.979
 6548W        W75021  13.330  24.110   1.389
 6549W        W75022  37.901  43.437  11.879
 6550W        W75023  32.937  28.643  10.404
 6551W        W75024   3.830  27.499   2.216
 6552W        W75025  12.279  23.698  11.445
 6553W        W75026  44.837  27.562   2.737
 6554W        W75027  32.077  43.352  10.555
 6555W        W75028  19.540   6.344   2.869
 6556W        W75029  11.275  15.653   4.210
 6557W        W75030  24.218   6.910  10.449
 6558W        W75031  33.990  33.950  10.625
 6559W        W75032  21.673  10.831  12.059
 6560W        W75033  20.161  30.417  12.393
 6561W        W75034   4.395   3.441   0.954
 6562W        W75035  30.594  42.445   5.650
 6563W        W75036  38.366   3.769  11.533
 6564W        W75037  28.124  14.805   3.845
 6565W        W75038  39.927  41.421  10.513
 6566W        W75039  14.703   3.866   1.289
 6567W        W75040  34.548  12.789   0.926
 6568W        W75041  37.024  41.791   3.859
 6569W        W75042  13.234  27.942   5.210
 6570W        W75043   3.922  43.289  14.913
 6571W        W75044   4.307  28.980   1.258
 6572W        W75045  30.039   2.830  12.009
 6573W        W75046  23.044  43.969  10.537
 6574W        W75047   5.881  34.934  11.901
 6575W        W75048  39.321  26.687   0.432
 6576W        W75049  17.712  32.581  11.045
 6577W        W75050   7.891  43.818   2.288
 6578W        W75051  44.994   5.806   2.220
 6579W        W75052  24.516  23.658  11.603
 6580W        W75053  31.420   4.404  14.295
 6581W        W75054  24.682   6.302  14.005
 6582W        W75055  40.454  34.529  14.852
 6583W        W75056  22.558  16.725   2.405
 6584W        W75057  24.609   3.268  14.424
 6585W        W75058  19.145  33.475  12.051
 6586W        W75059  34.435  16.292   0.838
 6587W        W75060  39.402  27.941  12.343
 6588W        W75061  14.202  16.633   1.754
 6589W        W75062   2.384  16.795  14.844
 6590W        W75063  36.996   9.794  10.974
 6591W        W75064  25.520  23.494  10.458
 6592W        W75065  35.927  11.211  11.515
 6593W        W75066  42.521   9.828  10.492
 6594W        W75067   2.871  37.901  11.517
 6595W        W75068   7.257  22.669   1.398
 6596W        W75069  15.122  18.634   4.299
 6597W        W75070  17.171  28.114  14.973
 6598W        W75071  37.073   5.414   1.822
 6599W        W75072   8.794  11.630   3.830
 6600W        W75073  34.595  18.774   2.892
 6601W        W75074  17.773  20.663   2.321
 6602W        W75075  29.103   6.328  12.992
 6603W        W75076  36.505  28.046  13.852
 6604W        W75077   0.445  18.547  10.577
 6605W        W75078  41.839  28.641  12.056
 6606W        W75079  24.592  21.140  12.361
 6607W        W75080  11.707  26.582   1.310
 6608W        W75081   3.955  16.580  14.507
 6609W        W75082  21.673   4.900   9.935
 6610W        W75083  22.051  11.824   0.252
 6611W        W75084  11.128  32.470   3.310
 6612W        W75085  13.733  34.964   0.956
 6613W        W75086   6.836   5.918  13.457
 6614W        W75087  34.082   6.752   1.856
 6615W        W75088  15.815  12.738  12.882
 6616W        W75089  17.778  43.441   2.818
 6617W        W75090  38.558  13.608  13.468
 6618W        W75091   3.803   7.782  14.015
 6619W        W75092  21.178  12.215   4.670
 6620W        W75093  44.910   8.843  10.539
 6621W        W75094  37.995   7.670  12.376
 6622W        W75095  15.294  34.972  13.337
 6623W        W75096   5.688   7.394  13.356
 6624W        W75097   9.764   1.903   4.122
 6625W        W75098  24.124   4.896  12.010
 6626W        W75099  18.683  39.979   1.349
 6627W        W75100  43.905  38.347   0.941
 6628W        W75101  12.767  38.001  10.605
 6629W        W75102   3.888  10.772   3.303
 6630W        W75103  15.155  32.989   2.404
 6631W        W75104  41.809  30.102  12.530
 6632W        W75105   8.167  37.085   4.817
 6633W        W75106  36.580   0.287   1.382
 6634W        W75107  10.156  39.374   1.810
 6635W        W75108  10.656   5.898  12.002
 6636W        W75109   7.900  33.403  11.436
 6637W        W75110  42.998  16.274  13.503
 6638W        W75111   0.765  34.538  11.540
 6639W        W75112  18.211   7.867  11.612
 6640W        W75113  31.996  21.142  13.874
 6641W        W75114  35.980  11.686  12.088
 6642W        W75115  35.574  37.053   0.849
 6643W        W75116  35.092  33.128  12.537
 6644W        W75117  18.263   6.243  14.834
 6645W        W75118  36.062  42.862  13.835
 6646W        W75119  20.575  11.627   1.319
 6647W        W75120  24.626  12.207  12.077
 6648W        W75121  23.699  18.714   1.401
 6649W        W75122   3.303  30.095   3.703
 6650W        W75123  27.958  35.402   2.834
 6651W        W75124  24.609  39.864   1.419
 6652W        W75125   0.249   0.257  13.006
 6653W        W75126  35.425  24.710   2.728
 6654W        W75127   5.207  20.190  13.437
 6655W        W75128   8.377  19.179   3.677
 6656W        W75129  14.646  32.575   4.705
 6657W        W75130  22.670  12.165   5.095
 6658W        W75131  17.127   7.774   3.851
 6659W        W75132   6.301   5.768   3.337
 6660W        W75133   1.280  13.125  14.834
 6661W        W75134  18.671  31.126  11.970
 6662W        W75135  24.520  43.981  11.124
 6663W        W75136   0.279  14.179   1.425
 6664W        W75137  40.028  40.933  10.914
 6665W        W75138   0.959  33.983   4.251
 6666W        W75139  24.001  26.527  10.887
 6667W        W75140  25.027  20.527  12.993
 6668W        W75141  41.950  22.118   4.820
 6669W        W75142  27.035  11.162   0.862
 6670W        W75143  27.000  40.955  10.527
 6671W        W75144   6.870  24.658  11.401
 6672W        W75145  10.245  11.207  13.809
 6673W        W75146   0.966   3.726   0.866
 6674W        W75147  16.766  21.045  10.612
 6675W        W75148   7.821  14.134   0.292
 6676W        W75149  24.602   1.416  12.003
 6677W        W75150   3.888   9.239   3.348
 6678W        W75151   8.168  12.802   4.316
 6679W        W75152  38.056  35.405   3.833
 6680W        W75153  42.805  37.846   0.386
 6681W        W75154  22.602  25.503   0.940
 6682W        W75155   5.891  40.993   3.800
 6683W        W75156  40.537  33.575  12.868
 6684W        W75157  17.182  26.502  10.016
 6685W        W75158  39.939  17.066  10.982
 6686W        W75159  20.539   3.868   1.431
 6687W        W75160  32.093   8.767  12.846
 6688W        W75161  25.001  36.854   3.768
 6689W        W75162   4.939   5.412   4.277
 6690W        W75163   0.879  39.872   1.244
 6691W        W75164   2.448   3.221   1.850
 6692W        W75165  21.220  14.745  14.827
 6693W        W75166   7.363  24.622   4.221
 6694W        W75167  19.588  43.469   3.374
 6695W        W75168  23.070  31.553  13.349
 6696W        W75169  23.698   2.959   1.923
 6697W        W75170  35.395   1.963  10.980
 6698W        W75171  41.856  43.935   1.785
 6699W        W75172   9.853  31.047  13.339
 6700W        W75173  36.580  41.507  11.395
 6701W        W75174   5.408  23.227  12.003
 6702W        W75175   5.808  35.090  13.999
 6703W        W75176   9.185  15.740   4.662
 6704W        W75177  44.272   4.919  13.948
 6705W        W75178   9.313  10.191  13.033
 6706W        W75179  39.842  18.650  14.911
 6707W        W75180  25.588  41.471   1.393
 6708W        W75181  17.754  31.429   3.807
 6709W        W75182  41.819   6.252   3.758
 6710W        W75183  31.076  17.586  11.933
 6711W        W75184   6.219  11.288  10.453
 6712W        W75185  32.009  34.041   4.639
 6713W        W75186  36.870  14.336  12.995
 6714W        W75187  17.178  17.221  14.922
 6715W        W75188  42.869  33.517   4.717
 6716W        W75189  34.565  41.878   1.447
 6717W        W75190   7.356  43.509   3.284
 6718W        W75191  42.997  32.977   1.879
 6719W        W75192  34.047  34.929   1.291
 6720W        W75193  17.120  19.270   1.210
 6721W        W75194  21.048  23.177  14.480
 6722W        W75195  19.700  22.665   1.283
 6723W        W75196  27.099  14.278   2.240
 6724W        W75197  12.131  39.958  13.024
 6725W        W75198  13.666  32.997   3.862
 6726W        W75199  36.970  39.948  14.375
 6727W        W75200  41.006  17.650  13.976
 6728W        W75201  35.893  11.141  12.508
 6729W        W75202  26.493   6.261  12.557
 6730W        W75203  39.324  21.262  10.085
 6731W        W75204  41.501  38.837  11.038
 6732W        W75205   2.815   8.319   0.396
 6733W        W75206  20.150   4.444  11.888
 6734W        W75207  11.655  26.176   4.213
 6735W        W75208   0.812   1.408   0.434
 6736W        W75209  27.154  44.397  10.515
 6737W        W75210  19.584  16.806  12.905
 6738W        W75211  43.431   0.873  11.041
 6739W        W75212  11.664  34.525   0.808
 6740W        W75213  19.217  35.473   2.365
 6741W        W75214  41.922   5.370   3.175
 6742W        W75215  22.252   2.853  11.077
 6743W        W75216  18.170  33.617  13.849
 6744W        W75217  30.523   1.917  12.960
 6745W        W75218  44.421   0.358   2.342
 6746W        W75219  43.003  18.177   2.248
 6747W        W75220  35.544  37.849   2.893
 6748W        W75221   5.268  11.347   4.280
 6749W        W75222   7.398  14.117   3.281
 6750W        W75223  24.116  29.105  13.023
 6751W        W75224  32.039  33.992  14.905
 6752W        W75225  18.666  42.355  14.314
 6753W        W75226  31.093  31.983  14.816
 6754W        W75227  30.060  18.252   1.712
 6755W        W75228   6.265  40.465   1.294
 6756W        W75229  38.928  20.096   0.353
 6757W        W75230  39.838  29.922   3.185
 6758W        W75231  13.117  14.678  12.561
 6759W        W75232  27.978   0.352  11.936
 6760W        W75233  41.363   9.215  11.070
 6761W        W75234  11.331   4.334   1.240
 6762W        W75235  38.397  28.588  12.887
 6763W        W75236   7.674   8.728  10.421
 6764W        W75237  24.634  34.893   4.309
 6765W        W75238   9.711   4.343  14.460
 6766W        W75239  29.156  24.007  13.843
 6767W        W75240  10.879  22.151   3.188
 6768W        W75241   6.193   0.742   3.781
 6769W        W75242   1.420   4.348   1.842
 6770W        W75243   8.830  31.010   4.305
 6771W        W75244  24.724  31.080  11.901
 6772W        W75245  37.561  12.270   3.270
 6773W        W75246  40.937  10.657  10.996
 6774W        W75247  11.268  34.906  14.876
 6775W        W75248   3.447  20.163  11.902
 6776W        W75249   6.851  15.815  13.357
 6777W        W75250  43.869  43.908  14.394
 6778W        W75251  10.195   9.707   2.887
 6779W        W75252  10.724  17.271  11.599
 6780W        W75253  42.328  10.210   0.395
 6781W        W75254  27.065  17.584  12.481
 6782W        W75255   7.836  12.726   2.785
 6783W        W75256   2.463  10.219   2.242
 6784W        W75257  27.123   5.697  14.347
 6785W        W75258   1.323   5.724  10.600
 6786W        W75259  29.112  42.956  12.051
 6787W        W75260  19.646  13.224   1.269
 6788W        W75261  35.003   2.810  12.870
 6789W        W75262  29.512   8.889  14.364
 6790W        W75263  29.029  12.296   1.779
 6791W        W75264  44.008  33.939  13.994
 6792W        W75265  10.678  27.973  12.062
 6793W        W75266  39.841   2.823   4.716
 6794W        W75267  22.582  12.218   9.976
 6795W        W75268  11.173   7.416  13.326
 6796W        W75269  37.519  33.945  12.918
 6797W        W75270  24.201  37.431   2.199
 6798W        W75271  36.469  24.982   2.741
 6799W        W75272  16.575  31.539   3.178
 6800W        W75273  39.923   5.299  13.408
 6801W        W75274  30.100  37.394   3.264
 6802W        W75275  18.075  15.769   4.335
 6803W        W75276   6.372  14.246  14.460
 6804W        W75277  12.275   6.801  10.473
 6805W        W75278   4.286  38.883  13.012
 6806W        W75279   9.772   6.745   4.810
 6807W        W75280   3.919  39.315  10.957
 6808W        W75281  19.592  10.865   2.327
 6809W        W75282   2.906  13.681  11.497
 6810W        W75283  26.500   8.719   4.324
 6811W        W75284  30.509  30.019   3.380
 6812W        W75285  14.655  44.895  13.409
 6813W        W75286   4.791   5.366  12.029
 6814W        W75287  26.546  23.146   1.408
 6815W        W75288  26.599  23.700  13.919
 6816W        W75289  23.502   9.271  14.955
 6817W        W75290  15.653  44.758  11.611
 6818W        W75291  25.634  30.119  14.354
 6819W        W75292  37.505  33.974  14.885
 6820W        W75293  27.016  35.922   4.657
 6821W        W75294   4.906   6.821   3.723
 6822W        W75295   9.206  14.276  12.841
 6823W        W75296  20.185  15.261   0.333
 6824W        W75297  25.984  32.073  13.002
 6825W        W75298  11.788  43.387  12.834
 6826W        W75299   0.262   4.789  14.375
 6827W        W75300  44.359  21.667  12.923
 6828W        W75301  29.010  39.813  14.401
 6829W        W75302  12.664   6.310   0.403
 6830W        W75303  37.087  43.825   2.313
 6831W        W75304  21.554  27.453   2.663
 6832W        W75305   8.798   6.257   1.916
 6833W        W75306   9.318  37.412   3.251
 6834W        W75307  31.136  43.770  10.914
 6835W        W75308  26.180   9.866   0.782
 6836W        W75309   6.188   7.211  12.004
 6837W        W75310  14.145  30.133  13.001
 6838W        W75311   3.225  36.589   3.746
 6839W        W75312  32.924   8.267  11.966
 6840W        W75313  39.437  12.171  10.451
 6841W        W75314   5.772  38.058  12.080
 6842W        W75315   1.821  23.735   2.795
 6843W        W75316  27.059  19.110   3.653
 6844W        W75317   3.758   2.920   1.434
 6845W        W75318  36.064  38.070  12.533
 6846W        W75319  22.693  44.453   2.736
 6847W        W75320  18.166  30.096   3.354
 6848W        W75321  42.947  20.242  14.761
 6849W        W75322   8.854  28.979  14.345
 6850W        W75323   3.359   7.194   1.299
 6851W        W75324  28.066  35.947  10.604
 6852W        W75325   5.411  32.937   2.398
 6853W        W75326  27.579  25.633   2.396
 6854W        W75327  43.454  11.821  12.987
 6855W        W75328  38.541  23.492   0.301
 6856W        W75329   7.907   6.187  12.849
 6857W        W75330  44.974  39.546  11.987
 6858W        W75331  10.254  18.720  11.541
 6859W        W75332  40.490  19.728  12.881
 6860W        W75333   5.288  12.747  14.861
 6861W        W75334  19.158  13.752  13.508
 6862W        W75335   0.833  17.290   2.200
 6863W        W75336  31.588  35.079   3.194
 6864W        W75337  20.674   9.334   1.312
 6865W        W75338  39.398  38.921   3.310
 6866W        W75339  32.999  27.986  10.427
 6867W        W75340  24.608  40.514   4.813
 6868W        W75341  16.641  40.387  11.053
 6869W        W75342  39.963   1.767  11.428
 6870W        W75343  42.990  28.606  14.348
 6871W        W75344  26.039   3.215  12.538
 6872W        W75345  25.631   7.781  10.496
 6873W        W75346  16.295  28.514   3.639
 6874W        W75347   8.323  17.653   2.702
 6875W        W75348  12.620  20.225  13.431
 6876W        W75349  31.927   5.921  13.362
 6877W        W75350   4.204  18.651   1.814
 6878W        W75351  30.914  39.380   2.754
 6879W        W75352  20.209  36.583   2.206
 6880W        W75353  12.663   7.707   4.647
 6881W        W75354   4.407  15.323   5.700
 6882W        W75355  25.626  34.925   1.345
 6883W        W75356   3.224   9.207  13.319
 6884W        W75357   1.970  29.107  12.921
 6885W        W75358   2.782   7.783  13.405
 6886W        W75359   5.790  27.097  11.494
 6887W        W75360  18.072   9.158  13.021
 6888W        W75361  34.895   5.864   4.597
 6889W        W75362  27.045  25.633  11.489
 6890W        W75363  24.192  14.718  14.494
 6891W        W75364  26.608  40.484  12.343
 6892W        W75365   7.401  40.537  12.464
 6893W        W75366  39.436  20.693   1.338
 6894W        W75367   7.367   8.282  10.640
 6895W        W75368  31.929   9.347  11.397
 6896W        W75369   8.301  24.620  13.465
 6897W        W75370  34.038  18.687  11.050
 6898W        W75371  29.427  13.327   3.310
 6899W        W75372  15.705  25.589   0.283
 6900W        W75373  28.670  28.580  11.391
 6901W        W75374  28.466   6.417  10.944
 6902W        W75375  20.658  16.741   3.670
 6903W        W75376  35.441   4.804   2.811
 6904W        W75377  23.090  27.089  14.897
 6905W        W75378  42.845  17.712   3.703
 6906W        W75379  37.412  44.392  11.084
 6907W        W75380   3.459  36.916  11.518
 6908W        W75381  35.585   3.307   4.137
 6909W        W75382  23.185  14.174   0.737
 6910W        W75383  34.113   6.359  11.047
 6911W        W75384  16.758  23.119  14.427
 6912W        W75385  18.246  16.755   2.215
 6913W        W75386   1.752   4.800  11.021
 6914W        W75387  10.675   8.734  13.896
 6915W        W75388  38.479  37.447   1.379
 6916W        W75389  30.436  11.133  13.351
 6917W        W75390   6.207   5.235  12.092
 6918W        W75391  11.843  25.997  10.896
 6919W        W75392  34.887   2.754  12.086
 6920W        W75393  16.727   8.863   3.781
 6921W        W75394  38.029   3.798   0.436
 6922W        W75395  30.568  29.981  11.392
 6923W        W75396  37.486  33.529   2.772
 6924W        W75397  44.854   0.253   4.703
 6925W        W75398  15.738  23.066   3.177
 6926W        W75399  11.285  29.595  13.807
 6927W        W75400  21.696  40.050  11.445
 6928W        W75401  24.603   2.274   1.849
 6929W        W75402  17.718   5.691  14.865
 6930W        W75403  27.952   9.358   0.277
 6931W        W75404  11.815  29.430  14.427
 6932W        W75405  15.781  31.526  14.975
 6933W        W75406  29.652  18.178   0.785
 6934W        W75407  40.356  42.357   2.219
 6935W        W75408  33.546  43.392  13.839
 6936W        W75409  30.622  24.016  14.928
 6937W        W75410   9.298   8.298  12.968
 6938W        W75411  32.997   9.252   0.926
 6939W        W75412  18.258  37.891   3.758
 6940W        W75413  44.805  36.852   0.435
 6941W        W75414   5.749   7.198  13.998
 6942W        W75415  42.307  28.947   0.859
 6943W        W75416  25.109  28.952  14.882
 6944W        W75417  10.683  29.646   4.208
 6945W        W75418  25.493  30.454   3.201
 6946W        W75419  19.275  10.157   4.298
 6947W        W75420  42.833  28.121   1.292
 6948W        W75421  13.731  32.095  10.442
 6949W        W75422  11.681   5.760   1.803
 6950W        W75423   1.289  10.683   0.372
 6951W        W75424  14.157  31.912   0.325
 6952W        W75425  31.429  19.039  14.946
 6953W        W75426  33.908   1.783   3.781
 6954W        W75427  19.765  33.999   3.660
 6955W        W75428   4.832  39.026   2.278
 6956W        W75429   1.269  13.225  12.425
 6957W        W75430  39.006  23.078  14.869
 6958W        W75431   3.714  26.524  12.979
 6959W        W75432   8.248   1.471   4.204
 6960W        W75433  34.052   4.884  12.534
 6961W        W75434  32.970   8.745   1.787
 6962W        W75435  42.382  31.927  11.910
 6963W        W75436  29.550  22.713  14.854
 6964W        W75437  25.586  36.428  10.526
 6965W        W75438  32.910  26.965  14.952
 6966W        W75439  24.996  18.626   1.292
 6967W        W75440  43.806  29.053  11.892
 6968W        W75441  28.940  31.408  11.055
 6969W        W75442   6.915  26.610   3.281
 6970W        W75443  31.001  25.596   1.243
 6971W        W75444  18.221  43.939   4.620
 6972W        W75445   7.818  24.008  14.972
 6973W        W75446   4.845  13.175  11.442
 6974W        W75447   1.282  36.998  12.874
 6975W        W75448  15.703   1.948  14.491
 6976W        W75449  15.191  13.105  12.989
 6977W        W75450  27.094   5.237  12.019
 6978W        W75451   7.211   2.822   1.717
 6979W        W75452  12.679  10.288  11.607
 6980W        W75453  36.369  42.383   3.266
 6981W        W75454  20.620   8.674  10.571
 6982W        W75455   2.777  27.559   0.250
 6983W        W75456  40.362   6.769  13.020
 6984W        W75457  35.039  28.653   1.779
 6985W        W75458  27.573  13.246   4.707
 6986W        W75459  29.922  41.987   2.859
 6987W        W75460  23.209   6.310   3.160
 6988W        W75461  38.427   3.335   1.326
 6989W        W75462  17.739  15.635   1.407
 6990W        W75463   0.491  39.859  11.372
 6991W        W75464  29.610  41.473   5.235
 6992W        W75465  31.993  22.693   5.167
 6993W        W75466   8.782   6.704  11.390
 6994W        W75467  30.064  43.445  12.027
 6995W        W75468  29.043  16.768   0.258
 6996W        W75469  40.469   4.736  14.952
 6997W        W75470  17.151  44.916   4.309
 6998W        W75471   2.774  41.870   2.870
 6999W        W75472  26.045   9.339  14.434
 7000W        W75473  37.890  20.715  11.920
 7001W        W75474  27.055  29.426   3.836
 7002W        W75475  35.559  44.346   0.254
 7003W        W75476  35.088  11.317   2.715
 7004W        W75477  34.043  43.290   5.136
 7005W        W75478  25.093  44.986  11.464
 7006W        W75479   3.327   6.722  11.020
 7007W        W75480  29.114  11.724  14.811
 7008W        W75481  33.432  32.013   1.304
 7009W        W75482  24.203  18.686  13.443
 7010W        W75483   1.970  30.035   2.252
 7011W        W75484  35.049  19.624  10.540
 7012W        W75485  22.052  41.360  14.818
 7013W        W75486  34.572  38.071  14.816
 7014W        W75487   8.786  19.201   2.220
 7015W        W75488   4.235  35.439  12.444
 7016W        W75489  22.121  23.076  13.938
 7017W        W75490  20.234  37.375  11.427
 7018W        W75491  36.046  33.397  11.900
 7019W        W75492  31.058  13.782   0.794
 7020W        W75493   7.881  17.215  13.016
 7021W        W75494  11.842  42.505  11.870
 7022W        W75495   4.944  29.087   0.287
 7023W        W75496  43.272   6.716  11.092
 7024W        W75497  37.461  22.107   0.877
 7025W        W75498  25.134  44.787  12.442
 7026W        W75499  37.434   3.278   0.416
 7027W        W75500  37.492   0.749   4.829
 7028W        W75501  26.159   6.694   1.370
 7029W        W75502  32.074  41.381  10.448
 7030W        W75503   8.876   2.954  14.892
 7031W        W75504   6.885  43.841  13.805
 7032W        W75505   8.823  25.021  11.899
 7033W        W75506  43.346  28.434  14.907
 7034W        W75507   7.371  39.364  11.574
 7035W        W75508  36.381  29.503  10.545
 7036W        W75509   0.897   6.697  12.466
 7037W        W75510  24.145   5.873  12.565
 7038W        W75511  30.420  39.869   0.894
 7039W        W75512  35.579  12.248   1.708
 7040W        W75513  29.464  13.724  14.324
 7041W        W75514   4.789  40.922   3.832
 7042W        W75515  29.979  36.589  14.763
 7043W        W75516  17.242  37.521   2.236
 7044W        W75517  20.208  37.994  10.449
 7045W        W75518  27.472  43.449   3.328
 7046W        W75519  38.458  43.963  11.582
 7047W        W75520  25.128  17.180  12.877
 7048W        W75521   3.232  27.648  13.803
 7049W        W75522  29.927  36.989   4.742
 7050W        W75523  13.671  22.714   1.909
 7051W        W75524  11.233  34.549   9.469
 7052W        W75525  39.029  27.519  12.370
 7053W        W75526  30.105  12.211  14.966
 7054W        W75527  22.048  15.618  13.310
 7055W        W75528  30.603  28.006  12.064
 7056W        W75529  28.100  19.693   0.877
 7057W        W75530  32.596  10.375  10.430
 7058W        W75531  22.141  31.945  14.319
 7059W        W75532  13.630  43.918  10.608
 7060W        W75533  18.661   9.366  11.452
 7061W        W75534   6.906  38.534  11.984
 7062W        W75535   3.953  27.966  10.102
 7063W        W75536  39.335   8.656   3.280
 7064W        W75537   7.750  12.611  14.404
 7065W        W75538  32.926  14.265  12.060
 7066W        W75539   1.763   0.297   2.778
 7067W        W75540  19.121  42.348  13.394
 7068W        W75541  18.172  29.064  12.434
 7069W        W75542  43.945   3.375   1.237
 7070W        W75543  34.923  23.068  11.068
 7071W        W75544  42.379  25.599   1.306
 7072W        W75545  10.653   9.170   4.139
 7073W        W75546   4.428   8.333  13.527
 7074W        W75547  37.372   7.218  14.932
 7075W        W75548  10.254  28.611  12.934
 7076W        W75549  28.491   5.258  11.536
 7077W        W75550  32.414   0.318   2.836
 7078W        W75551   2.256  17.280   4.631
 7079W        W75552   8.886  32.966  11.953
 7080W        W75553  29.426  39.438   3.319
 7081W        W75554  18.173   4.384  13.919
 7082W        W75555  14.680   3.336  10.125
 7083W        W75556  25.029   9.304  13.948
 7084W        W75557  29.921  38.015  13.992
 7085W        W75558   1.309  28.139  14.759
 7086W        W75559  24.150  24.974  13.854
 7087W        W75560  42.808  44.869  11.397
 7088W        W75561  34.419   9.279  13.865
 7089W        W75562  18.121  43.485   4.674
 7090W        W75563   5.912  29.118   1.857
 7091W        W75564  41.400  23.086  11.942
 7092W        W75565  41.818  22.656   4.201
 7093W        W75566  30.127  34.939  12.462
 7094W        W75567  18.632  38.415  12.073
 7095W        W75568  30.154  30.016  13.958
 7096W        W75569   5.749  23.621  13.403
 7097W        W75570  16.771  37.883  10.044
 7098W        W75571  16.691   1.909  12.543
 7099W        W75572  20.244  42.819   3.306
 7100W        W75573   3.845  11.209   2.714
 7101W        W75574  28.594  14.208  11.531
 7102W        W75575  32.541  36.956  11.962
 7103W        W75576  12.724   7.199   2.346
 7104W        W75577  13.294  10.228   2.744
 7105W        W75578  42.021  19.171   1.359
 7106W        W75579  32.956  19.541   4.755
 7107W        W75580  27.067  44.860  13.795
 7108W        W75581   4.925  37.353  13.833
 7109W        W75582  15.156  24.536  14.479
 7110W        W75583  10.818  21.625   2.343
 7111W        W75584   6.354  28.062   0.319
 7112W        W75585  20.640   7.253   2.233
 7113W        W75586  28.007  36.015   2.307
 7114W        W75587  18.615  25.092  14.899
 7115W        W75588  25.060  21.619   4.148
 7116W        W75589  23.690   7.375  11.433
 7117W        W75590  29.940  15.664  13.527
 7118W        W75591  25.173   8.339  12.507
 7119W        W75592  30.633  41.804  14.899
 7120W        W75593  39.823  16.303  11.387
 7121W        W75594   2.770  35.996   3.677
 7122W        W75595   3.732  34.410  13.013
 7123W        W75596   7.326  14.268   2.316
 7124W        W75597  18.643   3.927  10.501
 7125W        W75598  31.519  39.384  11.419
 7126W        W75599  28.539   9.234  11.045
 7127W        W75600  39.365  27.124   2.267
 7128W        W75601  31.074  44.929   2.726
 7129W        W75602  26.537  11.263  12.899
 7130W        W75603   0.324  40.500  13.018
 7131W        W75604   1.853  21.600   0.944
 7132W        W75605  44.436  32.129   0.448
 7133W        W75606  36.466  20.679  11.523
 7134W        W75607  14.755  20.104   4.706
 7135W        W75608   9.331  12.640  13.826
 7136W        W75609  22.223   7.394   3.825
 7137W        W75610  12.147  28.679   0.470
 7138W        W75611  26.196  11.860   2.735
 7139W        W75612  10.775  22.108  12.943
 7140W        W75613   7.388  17.246  14.431
 7141W        W75614  32.458  19.105  11.500
 7142W        W75615  43.832   8.184   1.307
 7143W        W75616  38.336   5.908   0.388
 7144W        W75617  29.451   6.760   2.364
 7145W        W75618  10.281  29.429   1.913
 7146W        W75619  14.785   3.831  11.000
 7147W        W75620   2.940  19.074  12.829
 7148W        W75621  32.445   9.386   4.241
 7149W        W75622  44.409  41.920   0.355
 7150W        W75623  28.102  30.446  14.012
 7151W        W75624  15.136   9.293  12.568
 7152W        W75625  24.598   1.862  11.562
 7153W        W75626  26.011   9.662  10.558
 7154W        W75627   8.721  25.481  13.855
 7155W        W75628  31.048  15.196  10.508
 7156W        W75629  12.286  11.736   4.286
 7157W        W75630  16.208  21.141  10.919
 7158W        W75631  43.854  38.488  11.563
 7159W        W75632  40.984  14.301   2.212
 7160W        W75633  13.645  33.878   1.709
 7161W        W75634   7.291  31.455  11.085
 7162W        W75635   8.326  33.537  12.428
 7163W        W75636  27.032  36.075  12.460
 7164W        W75637  37.856  19.595  10.975
 7165W        W75638  42.447  13.821  12.070
 7166W        W75639   9.384  16.261  11.404
 7167W        W75640  34.877  28.582   2.191
 7168W        W75641  13.768   0.824   1.724
 7169W        W75642  16.615  37.885   3.728
 7170W        W75643  22.532  22.625   0.850
 7171W        W75644  33.616   3.789   0.435
 7172W        W75645  32.982   1.927   2.401
 7173W        W75646   3.440  31.503   4.181
 7174W        W75647   6.324  20.059   4.671
 7175W        W75648  25.553  34.457  12.375
 7176W        W75649  27.981  44.382   0.870
 7177W        W75650  28.451   7.340  11.385
 7178W        W75651  30.549  27.623   1.767
 7179W        W75652   5.208  25.701  12.995
 7180W        W75653   2.308   7.226  13.541
 7181W        W75654  22.041  28.960  14.886
 7182W        W75655  32.490  42.361   1.428
 7183W        W75656   8.264  40.912   4.744
 7184W        W75657  41.948  39.953   1.286
 7185W        W75658  11.724  18.627   2.795
 7186W        W75659  17.778  42.322  11.521
 7187W        W75660  20.212   0.835  13.855
 7188W        W75661  16.074  16.631  14.793
 7189W        W75662  20.212  13.349   2.322
 7190W        W75663  22.693  31.103  14.367
 7191W        W75664  43.988   4.231  14.454
 7192W        W75665  42.845  32.593   3.179
 7193W        W75666  37.083  11.127   0.262
 7194W        W75667   4.382  29.551  11.941
 7195W        W75668  40.001  31.604  14.771
 7196W        W75669  33.929  21.588   0.951
 7197W        W75670   3.833  26.491   0.248
 7198W        W75671  25.697  37.952   0.324
 7199W        W75672  23.107  44.841   4.292
 7200W        W75673   6.857  20.699   3.148
 7201W        W75674  15.313  25.188   4.240
 7202W        W75675   0.375  21.206  14.853
 7203W        W75676   9.331  26.029   4.161
 7204W        W75677  34.877  26.642   4.738
 7205W        W75678  10.324   7.345   4.710
 7206W        W75679  33.460  22.160  12.580
 7207W        W75680  12.612  44.877   4.667
 7208W        W75681   1.770  24.169   3.324
 7209W        W75682  28.085  13.350  12.570
 7210W        W75683  32.570  15.123  14.908
 7211W        W75684  36.363  29.009   0.742
 7212W        W75685  29.591  10.248  13.311
 7213W        W75686  11.179  10.333   4.645
 7214W        W75687  13.217  24.154   4.805
 7215W        W75688  34.553  36.547   1.851
 7216W        W75689  10.719   6.799   2.710
 7217W        W75690  41.795  42.299  10.602
 7218W        W75691  13.179  14.786   0.273
 7219W        W75692  10.850  34.409  14.470
 7220W        W75693  21.684  33.539   0.427
 7221W        W75694  26.487   6.815  11.406
 7222W        W75695  41.946  33.557   9.956
 7223W        W75696  39.961  37.017  13.314
 7224W        W75697   6.828   3.451   1.226
 7225W        W75698  28.646  27.029   0.300
 7226W        W75699  35.107  12.354   2.862
 7227W        W75700  16.183  15.667   1.234
 7228W        W75701  15.817  14.114  14.918
 7229W        W75702  41.041   8.738  13.393
 7230W        W75703  25.545   4.812  13.438
 7231W        W75704  17.596  30.030   3.235
 7232W        W75705  43.460  20.762  12.378
 7233W        W75706  21.547  23.078  14.408
 7234W        W75707   8.180   8.191   3.298
 7235W        W75708  11.745  37.995  11.447
 7236W        W75709  23.567  39.321   1.266
 7237W        W75710  35.060  10.193  14.489
 7238W        W75711  37.395  20.268  13.861
 7239W        W75712  18.097  29.431   0.338
 7240W        W75713  35.430   9.217   3.659
 7241W        W75714  41.398  29.942   2.382
 7242W        W75715   1.462  15.220   3.221
 7243W        W75716  14.702  14.682   3.313
 7244W        W75717  18.248   1.777  13.847
 7245W        W75718  42.427  40.927   2.298
 7246W        W75719  38.570  33.968   4.292
 7247W        W75720  24.619  38.546   0.324
 7248W        W75721  22.636  32.043  10.504
 7249W        W75722  43.470  34.100   2.194
 7250W        W75723   9.742  44.982   4.617
 7251W        W75724  42.968  29.111  10.941
 7252W        W75725  44.881   9.287  14.398
 7253W        W75726  39.944  18.226   1.780
 7254W        W75727  31.443  31.573  10.450
 7255W        W75728  11.847  35.550   3.359
 7256W        W75729  23.186   6.288  12.424
 7257W        W75730  14.169  11.851  13.030
 7258W        W75731  40.338   1.851  14.836
 7259W        W75732  10.343  22.137   2.892
 7260W        W75733  10.684  44.978   0.443
 7261W        W75734  20.044  16.200   3.858
 7262W        W75735  39.019  11.842   0.741
 7263W        W75736  30.610  31.462   0.810
 7264W        W75737  36.565  21.123  13.876
 7265W        W75738  34.588  21.103   0.462
 7266W        W75739   1.970  38.910   1.304
 7267W        W75740  38.844   1.254   3.267
 7268W        W75741  29.669  13.166  11.931
 7269W        W75742  38.406  32.906  10.618
 7270W        W75743   2.362  38.873   2.402
 7271W        W75744  44.810   0.747  12.452
 7272W        W75745  24.106  28.108  14.803
 7273W        W75746  10.768  29.132   4.709
 7274W        W75747  11.141  32.499  11.100
 7275W        W75748  24.019  21.069   3.221
 7276W        W75749  14.745   2.366   1.445
 7277W        W75750  19.189  44.470   2.337
 7278W        W75751  17.211   5.910   4.698
 7279W        W75752  20.201  22.580  10.639
 7280W        W75753   5.248  38.036  14.468
 7281W        W75754   6.403  14.689  11.551
 7282W        W75755  23.537   5.861   4.667
 7283W        W75756  14.136  38.016   2.372
 7284W        W75757   6.703  14.680  11.507
 7285W        W75758  27.026  26.161  13.796
 7286W        W75759  25.609   2.754   2.328
 7287W        W75760  35.920  17.214  13.818
 7288W        W75761  22.193  13.770  10.525
 7289W        W75762  42.495  11.311  12.414
 7290W        W75763   4.708  11.294  13.397
 7291W        W75764  41.482  32.132  14.956
 7292W        W75765  11.306   6.191   0.880
 7293W        W75766   9.202  42.893  10.528
 7294W        W75767  43.412  17.586  13.457
 7295W        W75768  40.886   9.298   2.671
 7296W        W75769   0.308  37.499  13.807
 7297W        W75770  38.400  15.250   3.665
 7298W        W75771   7.806  36.478  14.454
 7299W        W75772  38.326   8.309   1.426
 7300W        W75773   5.891  23.194   0.925
 7301W        W75774  44.756  19.723   4.819
 7302W        W75775  30.632  30.565  10.518
 7303W        W75776  28.484  17.624   1.842
 7304W        W75777  21.693  40.410  13.514
 7305W        W75778  38.384  38.865   3.254
 7306W        W75779  34.418  24.687  10.908
 7307W        W75780  33.959  10.246  12.827
 7308W        W75781  22.549   9.265   0.769
 7309W        W75782  43.915  13.807   1.433
 7310W        W75783  16.175   6.878  10.937
 7311W        W75784  30.443  33.101  13.548
 7312W        W75785  10.680  16.098   3.838
 7313W        W75786  40.939  40.500   3.185
 7314W        W75787  37.927  21.524  11.476
 7315W        W75788  21.037  10.196  12.926
 7316W        W75789   3.806  31.970   2.248
 7317W        W75790  31.414  36.002   1.418
 7318W        W75791  34.999  31.505   0.931
 7319W        W75792  16.298  22.021  14.279
 7320W        W75793  30.556  20.597  14.413
 7321W        W75794  14.788  25.080  10.433
 7322W        W75795  14.205  16.649   3.259
 7323W        W75796  26.523  35.578  12.504
 7324W        W75797  16.779  23.029  11.407
 7325W        W75798  39.439   3.424  13.331
 7326W        W75799  19.159  39.951   4.166
 7327W        W75800  20.048  35.049   2.891
 7328W        W75801  21.716  17.639  12.367
 7329W        W75802  21.705  28.164   2.823
 7330W        W75803  30.056  34.564  11.924
 7331W        W75804  38.526  41.867   3.643
 7332W        W75805  14.721  37.917  11.965
 7333W        W75806  11.221  38.851   0.352
 7334W        W75807  15.713  38.529  11.930
 7335W        W75808   7.329  29.048   4.792
 7336W        W75809  44.843   6.321   2.385
 7337W        W75810   9.824  32.923   9.491
 7338W        W75811   5.707  33.396  13.465
 7339W        W75812  13.222  38.424   1.761
 7340W        W75813   3.835  42.356  10.548
 7341W        W75814  21.145  24.226  12.928
 7342W        W75815  41.818   4.813   3.245
 7343W        W75816   8.404  30.131   2.181
 7344W        W75817  42.788  42.956   3.293
 7345W        W75818   6.789  17.161   0.414
 7346W        W75819  29.609  27.465  13.884
 7347W        W75820  12.304   7.329   0.422
 7348W        W75821  36.097  27.107   3.234
 7349W        W75822   1.476  43.792   4.273
 7350W        W75823  11.167  26.531  12.089
 7351W        W75824  24.672  42.850  14.995
 7352W        W75825  13.828  38.328  13.037
 7353W        W75826  25.552  24.706   0.912
 7354W        W75827  20.186  43.007   0.958
 7355W        W75828  34.561  29.023  14.505
 7356W        W75829  33.005  26.962   0.316
 7357W        W75830  16.123  11.723  11.607
 7358W        W75831  25.514  24.154  14.982
 7359W        W75832   6.228   9.662  13.377
 7360W        W75833  22.701  29.577  12.430
 7361W        W75834  29.088  30.943   4.738
 7362W        W75835   2.883   0.299   4.298
 7363W        W75836  13.304  43.463   3.244
 7364W        W75837  26.688  41.492   3.684
 7365W        W75838  15.787  24.158   4.771
 7366W        W75839  43.449  22.160  11.591
 7367W        W75840  40.319  11.692  12.966
 7368W        W75841  35.543   0.479  14.292
 7369W        W75842   5.201  18.557  13.316
 7370W        W75843  11.132   8.217  10.914
 7371W        W75844   5.793  22.612   2.892
 7372W        W75845   5.206  35.035  11.387
 7373W        W75846  37.026   6.272   4.776
 7374W        W75847  27.544  21.524  12.456
 7375W        W75848  24.711  32.525  12.522
 7376W        W75849   5.773  30.955  10.542
 7377W        W75850   3.785  36.470   2.388
 7378W        W75851  13.747  41.518  12.359
 7379W        W75852  44.865   3.231   3.231
 7380W        W75853  10.652  43.840   2.318
 7381W        W75854   8.817   9.812   1.763
 7382W        W75855  39.547   7.214  10.472
 7383W        W75856  35.600  19.061  10.476
 7384W        W75857  19.685  18.751  11.934
 7385W        W75858  20.716  29.955   4.707
 7386W        W75859  20.067   6.777   1.710
 7387W        W75860  18.692  22.572  10.589
 7388W        W75861  31.599  22.527  13.048
 7389W        W75862   4.779  25.615  10.410
 7390W        W75863  29.055   1.745   0.308
 7391W        W75864  28.462   7.380   0.397
 7392W        W75865   3.760  37.980  13.490
 7393W        W75866  28.633  36.060   3.711
 7394W        W75867  24.575  22.222  12.973
 7395W        W75868  15.622  12.239   4.694
 7396W        W75869  20.753  35.457   2.703
 7397W        W75870  11.692  42.796   2.674
 7398W        W75871  17.622  15.207  11.863
 7399W        W75872  42.891  42.400  10.633
 7400W        W75873   2.435  23.235   3.356
 7401W        W75874  21.628  25.057   5.250
 7402W        W75875  19.706  40.454  14.767
 7403W        W75876  12.802  15.171   2.787
 7404W        W75877   1.465   3.717   3.339
 7405W        W75878   4.284   9.829  12.361
 7406W        W75879  40.047  14.270  10.980
 7407W        W75880  26.180  12.129  11.966
 7408W        W75881  27.166   7.231   9.999
 7409W        W75882  10.832   9.250  14.775
 7410W        W75883  38.947   0.298  11.972
 7411W        W75884  24.075   3.711  12.969
 7412W        W75885  20.104  25.072   4.171
 7413W        W75886   0.332  41.922  12.059
 7414W        W75887  38.390  37.542  14.011
 7415W        W75888  18.653  20.271   1.866
 7416W        W75889  38.393  23.695  12.956
 7417W        W75890  12.620   2.440  12.446
 7418W        W75891  10.819  39.013   4.331
 7419W        W75892  38.829  14.283   9.941
 7420W        W75893  30.033   0.301  14.963
 7421W        W75894  10.874  36.092  14.320
 7422W        W75895  26.003  14.830   2.707
 7423W        W75896  10.300  24.593   4.787
 7424W        W75897  11.209  24.515   1.293
 7425W        W75898  15.139  22.705  12.509
 7426W        W75899  35.974  23.194   3.259
 7427W        W75900  38.484   1.794  14.401
 7428W        W75901  25.699   9.342  13.449
 7429W        W75902   6.875  33.016   3.166
 7430W        W75903  36.352   7.304  14.025
 7431W        W75904   0.343  35.359  14.799
 7432W        W75905   0.416   0.852  14.851
 7433W        W75906  25.012   7.265   0.482
 7434W        W75907   4.886  39.011  13.819
 7435W        W75908  39.000  12.244  14.771
 7436W        W75909  21.577  31.063  11.862
 7437W        W75910   5.379  23.172  13.483
 7438W        W75911  25.599  31.013   1.783
 7439W        W75912   9.217  33.618   2.388
 7440W        W75913  32.410   6.220   3.172
 7441W        W75914  24.003   3.898   0.841
 7442W        W75915  35.562  22.639   1.413
 7443W        W75916  13.292   5.408   1.762
 7444W        W75917  10.271   0.892   2.698
 7445W        W75918  33.889  24.079   3.687
 7446W        W75919   4.435  41.451  13.502
 7447W        W75920  44.885   4.845  11.494
 7448W        W75921  32.968   8.746  12.045
 7449W        W75922  38.441  25.197  14.475
 7450W        W75923  10.153   0.461   2.770
 7451W        W75924  34.030  20.628   3.258
 7452W        W75925  11.801  37.345   1.935
 7453W        W75926  23.202  36.587  10.430
 7454W        W75927   6.300  28.080  13.063
 7455W        W75928  35.473   0.260  14.924
 7456W        W75929  34.450  29.580   0.335
 7457W        W75930  11.183  10.715  14.515
 7458W        W75931   6.684  24.050   3.209
 7459W        W75932  20.086  39.406  11.417
 7460W        W75933  11.200  17.105   0.277
 7461W        W75934   2.442  41.917   2.707
 7462W        W75935  19.615  26.953  12.426
 7463W        W75936  24.574  39.435   2.805
 7464W        W75937   2.243  44.840  13.523
 7465W        W75938   1.837  13.117  10.894
 7466W        W75939  26.106  38.423  11.857
 7467W        W75940   9.282  15.291   4.267
 7468W        W75941  30.062  33.485   0.841
 7469W        W75942   1.395   0.889  11.953
 7470W        W75943  40.516  39.407  10.921
 7471W        W75944  40.506   6.817  11.004
 7472W        W75945  31.596  33.020  10.896
 7473W        W75946  11.214   3.349   1.893
 7474W        W75947  44.956  12.643  11.036
 7475W        W75948  37.384   9.304  11.879
 7476W        W75949   5.225  36.378   1.778
 7477W        W75950  15.686   8.812   0.298
 7478W        W75951  25.556  24.223   4.336
 7479W        W75952  17.290  37.953  12.868
 7480W        W75953   3.367  18.549   4.712
 7481W        W75954  12.682   0.944   1.385
 7482W        W75955  21.691   6.419   0.245
 7483W        W75956  24.609  10.711   1.222
 7484W        W75957  29.110  16.602  12.877
 7485W        W75958  43.989  38.973   4.609
 7486W        W75959   7.234  26.540   3.281
 7487W        W75960  24.038  23.685  11.402
 7488W        W75961  44.403  41.944  11.586
 7489W        W75962  20.635  26.666  13.803
 7490W        W75963  10.138  42.833  10.948
 7491W        W75964  14.308  11.859   4.291
 7492W        W75965  31.523  16.693   2.896
 7493W        W75966  24.013  12.206  13.020
 7494W        W75967  14.822  14.167   1.273
 7495W        W75968   2.299  11.132   0.301
 7496W        W75969   7.875   5.195   4.298
 7497W        W75970  23.596  26.669  13.872
 7498W        W75971   1.320  12.664  12.535
 7499W        W75972  14.688   0.813  13.063
 7500W        W75973   7.302  35.033   0.414
 7501W        W75974   0.749  39.558   1.856
 7502W        W75975  32.591   8.657  11.399
 7503W        W75976  11.338  40.941   0.893
 7504W        W75977  10.165  33.527   2.319
 7505W        W75978  31.929   3.742   5.124
 7506W        W75979  27.495  23.125  12.375
 7507W        W75980  15.239  19.046  12.016
 7508W        W75981  11.842  17.714   2.866
 7509W        W75982   1.908   4.403  12.438
 7510W        W75983  19.566  27.680  10.462
 7511W        W75984   2.912  25.075   1.745
 7512W        W75985  15.730  34.550   0.965
 7513W        W75986  11.184  37.885   2.739
 7514W        W75987  40.440  27.674  13.521
 7515W        W75988   2.458  35.491  14.859
 7516W        W75989  37.337   0.953   4.181
 7517W        W75990  17.233  35.509   4.825
 7518W        W75991  35.472   3.438  12.885
 7519W        W75992  19.777  18.747   1.320
 7520W        W75993  11.850   4.364  10.945
 7521W        W75994   6.772  32.413   4.662
 7522W        W75995  23.625  39.960  11.547
 7523W        W75996  30.018  22.229  10.410
 7524W        W75997  21.250  41.307   0.803
 7525W        W75998  37.567  18.126   1.350
 7526W        W75999  32.633  28.150  13.899
 7527W        W76000  32.114   9.274   2.379
 7528W        W76001   5.852   0.844  11.396
 7529W        W76002  34.538  32.610  13.493
 7530W        W76003  29.084   6.732  13.000
 7531W        W76004  15.759  39.462  14.795
 7532W        W76005  19.765  14.234   2.179
 7533W        W76006  30.526  24.148  11.418
 7534W        W76007  42.401  21.178  13.910
 7535W        W76008   4.897   4.873   5.778
 7536W        W76009  14.694  20.087   3.181
 7537W        W76010  39.054  24.028  10.979
 7538W        W76011  26.091   5.203  11.063
 7539W        W76012  22.168  32.021   5.154
 7540W        W76013   0.248  25.063   3.856
 7541W        W76014  34.039   9.322  10.525
 7542W        W76015  39.494  29.932  12.380
 7543W        W76016  25.484  14.224   5.184
 7544W        W76017  37.391  31.148  13.997
 7545W        W76018   6.704  41.464   4.804
 7546W        W76019   4.722  12.652   0.474
 7547W        W76020  15.242   3.431  10.988
 7548W        W76021   9.776   4.317   3.665
 7549W        W76022  41.864  32.000   4.202
 7550W        W76023  28.483  23.988   0.370
 7551W        W76024   3.328  41.479  13.360
 7552W        W76025  16.244  25.642   2.818
 7553W        W76026   6.227  41.331   3.856
 7554W        W76027  15.093   9.860  12.876
 7555W        W76028  18.114  13.235  11.884
 7556W        W76029  39.893  20.544  10.617
 7557W        W76030   5.291  12.637   4.743
 7558W        W76031  28.664  16.738  11.552
 7559W        W76032  12.649  21.189   2.829
 7560W        W76033   9.774  13.249   4.694
 7561W        W76034  11.130  42.518   1.806
 7562W        W76035  25.201  13.743   1.848
 7563W        W76036  21.239  37.902  10.527
 7564W        W76037  14.320  38.975   2.732
 7565W        W76038   5.783  24.146   2.711
 7566W        W76039  18.736  13.617   4.345
 7567W        W76040  24.048  43.883   3.223
 7568W        W76041  27.176  31.979  11.449
 7569W        W76042  21.031  14.268  12.080
 7570W        W76043  26.156  37.364  12.417
 7571W        W76044  44.808  43.965  10.418
 7572W        W76045  30.514  17.237  12.505
 7573W        W76046  43.383  41.426   2.823
 7574W        W76047  44.453  38.467   0.894
 7575W        W76048   4.917   6.699  10.546
 7576W        W76049  42.292  22.241  12.855
 7577W        W76050  44.974  15.694   1.765
 7578W        W76051  44.454  35.894   1.723
 7579W        W76052  31.927  10.362   4.243
 7580W        W76053   4.717  24.515  14.508
 7581W        W76054  38.490  42.425   0.753
 7582W        W76055  40.986  27.980  12.910
 7583W        W76056  13.641  27.482   1.257
 7584W        W76057  16.265  20.712   0.815
 7585W        W76058  14.760  42.007  13.796
 7586W        W76059  12.257   4.243   3.225
 7587W        W76060  31.487  13.200  14.455
 7588W        W76061  26.030   8.860   1.859
 7589W        W76062  37.528  15.612  12.404
 7590W        W76063   1.254  28.952  10.430
 7591W        W76064  39.484  36.984   1.776
 7592W        W76065  31.638   1.448   3.192
 7593W        W76066  39.318  13.645   4.142
 7594W        W76067   6.748  33.926   1.325
 7595W        W76068  39.336   3.726   2.206
 7596W        W76069  15.235  22.611   1.725
 7597W        W76070  25.538  34.038  14.845
 7598W        W76071   5.885  21.217  12.061
 7599W        W76072  18.594  12.647   0.306
 7600W        W76073  12.224  12.272  14.930
 7601W        W76074  23.698  20.241   1.210
 7602W        W76075  10.860  19.589   5.247
 7603W        W76076  19.125  28.162  14.326
 7604W        W76077  35.363  40.971   0.869
 7605W        W76078  38.960  37.881   1.907
 7606W        W76079  37.555  43.808   0.843
 7607W        W76080  35.049  25.149   1.880
 7608W        W76081   5.837  27.053  14.777
 7609W        W76082   9.165   2.328   4.604
 7610W        W76083   6.698   8.345  11.984
 7611W        W76084  41.992   3.883  11.892
 7612W        W76085  17.239   1.313   0.367
 7613W        W76086  30.019  33.969  11.883
 7614W        W76087  32.072  40.863  10.145
 7615W        W76088  20.145  41.999   1.711
 7616W        W76089  16.804  43.965   4.150
 7617W        W76090  12.217   0.901   3.704
 7618W        W76091  43.361  30.124   2.760
 7619W        W76092  33.440  28.590   2.854
 7620W        W76093   1.323  18.719  11.116
 7621W        W76094  15.643  32.399  10.628
 7622W        W76095  26.482  30.426   4.729
 7623W        W76096  37.868  11.367  10.943
 7624W        W76097  15.292  27.141  10.501
 7625W        W76098  43.960  43.873   4.692
 7626W        W76099  38.837  29.537  10.926
 7627W        W76100  38.947  39.061  11.436
 7628W        W76101  26.479  42.379   3.834
 7629W        W76102  42.413   1.316   1.277
 7630W        W76103  34.939  38.074   0.398
 7631W        W76104  11.302   6.745   0.935
 7632W        W76105  41.800  23.730  14.804
 7633W        W76106   5.214  11.704   1.924
 7634W        W76107  18.772   2.279   2.400
 7635W        W76108  44.386  33.118   4.690
 7636W        W76109   5.782  41.441   1.762
 7637W        W76110  43.006  27.032  14.950
 7638W        W76111  11.228   1.323   1.751
 7639W        W76112  12.347  44.929   2.230
 7640W        W76113  25.135  11.756   1.816
 7641W        W76114  15.189  10.320  10.471
 7642W        W76115  38.063  20.754  10.594
 7643W        W76116  30.531  42.973   0.756
 7644W        W76117  22.076  33.389   3.210
 7645W        W76118  11.837  20.145   1.235
 7646W        W76119  42.794  17.306  14.891
 7647W        W76120  28.989  21.523  13.541
 7648W        W76121  21.752  10.705   0.920
 7649W        W76122  11.204  26.464   4.337
 7650W        W76123  15.275  15.151   1.891
 7651W        W76124  15.701  24.690   0.811
 7652W        W76125   4.396  32.583   0.886
 7653W        W76126   4.791   7.712  10.473
 7654W        W76127  17.661  15.733  10.990
 7655W        W76128  35.972  20.685  13.991
 7656W        W76129  29.625  43.307  12.030
 7657W        W76130  37.400  10.185   4.715
 7658W        W76131  43.352  17.606  13.800
 7659W        W76132   1.976  22.680   4.775
 7660W        W76133  22.524  14.620   5.568
 7661W        W76134  15.184  10.151  13.407
 7662W        W76135  22.613  26.605  13.797
 7663W        W76136  11.676   0.286  14.930
 7664W        W76137  11.258  13.222  10.531
 7665W        W76138  27.121   0.918   2.243
 7666W        W76139  41.791  11.202  12.897
 7667W        W76140  30.416  25.543   4.774
 7668W        W76141  34.871  22.029  10.992
 7669W        W76142  32.095  37.860   4.621
 7670W        W76143  38.542   3.851  14.771
 7671W        W76144   7.225  43.403  10.443
 7672W        W76145  37.572   0.491   3.679
 7673W        W76146  31.975  23.595   2.846
 7674W        W76147   1.276  20.601   4.146
 7675W        W76148   7.179  11.275  14.492
 7676W        W76149  36.378  30.424  14.023
 7677W        W76150   7.200  13.121  14.356
 7678W        W76151  35.012  32.081   4.729
 7679W        W76152  24.066   9.323  13.031
 7680W        W76153  11.221  25.615   3.312
 7681W        W76154  13.222  26.053   3.330
 7682W        W76155  28.478  14.658   2.832
 7683W        W76156  34.597   3.307  13.965
 7684W        W76157   4.779  16.167   1.397
 7685W        W76158  14.151  37.380  13.798
 7686W        W76159   9.858  43.910   2.879
 7687W        W76160  16.121  37.882  14.858
 7688W        W76161  41.985  15.639   2.873
 7689W        W76162  23.151  39.342   3.351
 7690W        W76163  36.961  18.201  14.516
 7691W        W76164  28.562   4.223   4.149
 7692W        W76165   2.234  37.892  13.411
 7693W        W76166  44.388   3.440   1.328
 7694W        W76167  32.137   1.282   3.705
 7695W        W76168  31.041   2.727  10.570
 7696W        W76169   8.187  18.578  10.906
 7697W        W76170  18.254   7.707  11.108
 7698W        W76171  36.439  27.079   0.314
 7699W        W76172  32.079  22.616   1.272
 7700W        W76173  13.220   1.295   4.796
 7701W        W76174  10.328   2.409  14.461
 7702W        W76175  30.591  16.100   2.402
 7703W        W76176  23.214   7.177  11.529
 7704W        W76177  42.471  44.275   0.897
 7705W        W76178  36.570  41.328   2.312
 7706W        W76179  42.381  28.035   1.706
 7707W        W76180  36.903  39.829   2.815
 7708W        W76181  15.759  29.149   2.842
 7709W        W76182   4.744  44.315  10.559
 7710W        W76183   0.417   8.838  10.633
 7711W        W76184  28.032   8.682   0.790
 7712W        W76185  10.851  41.344  11.879
 7713W        W76186  42.876  31.137   1.733
 7714W        W76187   3.423  27.996   1.402
 7715W        W76188  22.566  42.976  10.445
 7716W        W76189  20.092  42.028   1.308
 7717W        W76190  42.809  40.798   4.756
 7718W        W76191   2.942   8.739  12.846
 7719W        W76192  18.770   2.424   1.339
 7720W        W76193  38.454  25.185   4.651
 7721W        W76194  41.950  11.276  14.919
 7722W        W76195  15.148   6.676   3.791
 7723W        W76196  12.331  43.334  14.780
 7724W        W76197  15.186  44.501   1.726
 7725W        W76198   4.797  35.964   2.882
 7726W        W76199  42.448  24.001  13.465
 7727W        W76200  25.114  21.099  12.871
 7728W        W76201  42.885  12.279  13.349
 7729W        W76202  41.435   7.329  12.354
 7730W        W76203  43.418  11.296   4.191
 7731W        W76204  28.000  37.835  13.313
 7732W        W76205   3.304   7.379   3.866
 7733W        W76206  21.633  39.940  10.592
 7734W        W76207  16.201  41.912  12.479
 7735W        W76208  41.517  42.011   4.129
 7736W        W76209  39.355   1.879   2.736
 7737W        W76210  29.645  32.050  12.041
 7738W        W76211  29.567  23.172  12.032
 7739W        W76212   3.238  17.265  12.954
 7740W        W76213  40.898  10.224  11.564
 7741W        W76214  40.984   0.272   2.714
 7742W        W76215  34.594  10.699   2.676
 7743W        W76216  31.966   6.212  13.811
 7744W        W76217  11.699  30.619  10.141
 7745W        W76218  30.157  22.547   3.228
 7746W        W76219  15.707   9.263  13.440
 7747W        W76220  12.781  22.644   1.869
 7748W        W76221  19.057   1.279   4.300
 7749W        W76222   0.793  27.623  11.403
 7750W        W76223   2.816  32.886  11.408
 7751W        W76224  37.353   4.251   2.263
 7752W        W76225  42.323  17.105  12.843
 7753W        W76226  42.375  43.921  10.464
 7754W        W76227  11.678  25.993  13.961
 7755W        W76228  37.516  42.844   1.316
 7756W        W76229  22.552  33.026  13.995
 7757W        W76230  35.527   2.937  12.085
 7758W        W76231  21.043  17.216   2.780
 7759W        W76232  12.146  22.508  10.442
 7760W        W76233  26.565  12.157  11.593
 7761W        W76234   8.732  43.907   4.658
 7762W        W76235  28.085  16.798   4.725
 7763W        W76236  35.049  31.144  13.462
 7764W        W76237  15.678  34.511  11.432
 7765W        W76238  15.745  16.641  11.053
 7766W        W76239   1.278  25.185  13.034
 7767W        W76240  22.656  10.800  14.342
 7768W        W76241  24.684  23.216  14.453
 7769W        W76242  28.585  10.182  10.049
 7770W        W76243  40.403   1.805   2.889
 7771W        W76244  21.613  34.583  10.579
 7772W        W76245  25.146  34.519  14.402
 7773W        W76246  12.259  19.748   2.228
 7774W        W76247  35.874  22.503   1.794
 7775W        W76248  14.656  26.047  11.609
 7776W        W76249  37.884   1.388  14.945
 7777W        W76250  19.575  18.754  10.499
 7778W        W76251  16.309  11.715   0.895
 7779W        W76252  21.564   9.852   4.119
 7780W        W76253   9.790  19.248   1.334
 7781W        W76254  43.771  37.340  14.980
 7782W        W76255  11.753  23.008  13.387
 7783W        W76256  37.482  40.970   3.243
 7784W        W76257   6.722  32.444  13.546
 7785W        W76258  18.120  16.195   4.182
 7786W        W76259  29.030  44.378  10.551
 7787W        W76260   0.413  28.098   4.603
 7788W        W76261  39.891  19.143   3.278
 7789W        W76262  31.568  37.042   3.263
 7790W        W76263  14.174  31.444   4.823
 7791W        W76264  29.430  18.158  14.904
 7792W        W76265  12.167   0.777  12.479
 7793W        W76266  33.908  39.417   3.651
 7794W        W76267   5.801  26.645   1.343
 7795W        W76268  43.875  11.649  10.976
 7796W        W76269  33.465  21.193   2.794
 7797W        W76270  33.474  36.987   1.862
 7798W        W76271  25.615  11.257   4.206
 7799W        W76272   3.397  15.581   0.782
 7800W        W76273   4.774  20.596  14.506
 7801W        W76274  36.972  12.838  11.895
 7802W        W76275   6.409  44.858  11.436
 7803W        W76276  28.175  31.010  10.496
 7804W        W76277  37.495  10.344  10.435
 7805W        W76278  26.693  40.342   1.414
 7806W        W76279  42.484  13.106   0.260
 7807W        W76280  27.984  42.860  12.392
 7808W        W76281  34.945  13.318   3.221
 7809W        W76282  27.518  20.596  10.993
 7810W        W76283  28.968  10.636  12.569
 7811W        W76284  43.475   0.418  14.507
 7812W        W76285   1.794  37.970  12.882
 7813W        W76286  35.488  11.779   1.699
 7814W        W76287  39.395   7.707  13.884
 7815W        W76288  35.530  37.523   2.385
 7816W        W76289   9.800  10.878  13.866
 7817W        W76290  34.554  16.702   0.297
 7818W        W76291  26.988  11.348   3.637
 7819W        W76292  12.822  19.603   2.356
 7820W        W76293   4.871  43.511   0.771
 7821W        W76294  24.977  24.209  12.534
 7822W        W76295  31.513  32.894  14.424
 7823W        W76296   9.797  12.630  10.549
 7824W        W76297  14.223  17.791   1.893
 7825W        W76298  24.563  17.306  13.933
 7826W        W76299  16.086  33.401   0.384
 7827W        W76300  35.965  19.650  11.894
 7828W        W76301   4.886   0.358  12.550
 7829W        W76302  27.052  42.887  11.025
 7830W        W76303  14.317  13.709   0.836
 7831W        W76304  32.918  36.915  10.414
 7832W        W76305  42.482  18.070   0.416
 7833W        W76306   9.647  29.628  14.282
 7834W        W76307  31.595  11.369   3.295
 7835W        W76308  33.977   9.753   3.239
 7836W        W76309   8.348  17.189   3.357
 7837W        W76310  22.125  37.922   1.777
 7838W        W76311  33.088   7.770   1.228
 7839W        W76312  37.516   0.373   4.807
 7840W        W76313  30.969   4.288  11.088
 7841W        W76314  27.972  28.994  12.069
 7842W        W76315  18.207  20.086  13.868
 7843W        W76316   0.743  41.388  12.974
 7844W        W76317  26.176   3.860  13.016
 7845W        W76318  27.109  25.478  12.950
 7846W        W76319  14.223  23.670   0.733
 7847W        W76320  23.169  12.720  13.324
 7848W        W76321  21.637  39.919  13.467
 7849W        W76322   6.321  17.118   1.245
 7850W        W76323  24.614  11.361   0.285
 7851W        W76324  40.001  31.030  12.964
 7852W        W76325  43.914  36.537   3.645
 7853W        W76326  20.631  20.190  14.417
 7854W        W76327  14.314  37.007   1.806
 7855W        W76328  34.977  18.629  10.442
 7856W        W76329   9.153  15.195  11.976
 7857W        W76330  43.401  30.540   5.273
 7858W        W76331  11.796  37.494   5.115
 7859W        W76332  27.462  29.430  11.915
 7860W        W76333  31.414   7.745  14.848
 7861W        W76334  14.278  10.261  12.040
 7862W        W76335  40.970  26.097  10.544
 7863W        W76336  11.825  36.856  13.865
 7864W        W76337   0.978  16.612   3.162
 7865W        W76338  18.258  42.503  10.542
 7866W        W76339   1.292  13.618   3.255
 7867W        W76340  25.967  30.079  14.461
 7868W        W76341  34.104  38.850   1.709
 7869W        W76342  39.918  42.990  14.961
 7870W        W76343  43.387   5.896   2.379
 7871W        W76344  21.683  20.638   0.843
 7872W        W76345  33.555  13.752   0.436
 7873W        W76346   0.329  24.596  10.491
 7874W        W76347  20.167  44.003  12.492
 7875W        W76348  39.440  22.043  14.931
 7876W        W76349  12.763  13.204   1.412
 7877W        W76350  17.208  25.562  10.497
 7878W        W76351  13.159  30.108  14.444
 7879W        W76352  30.045  24.667   1.320
 7880W        W76353  22.214  12.312  10.604
 7881W        W76354  10.653   3.869   2.795
 7882W        W76355  28.092  19.095  12.495
 7883W        W76356   7.716  15.688   5.235
 7884W        W76357   6.679   4.207  12.832
 7885W        W76358  42.958  23.671  14.817
 7886W        W76359   9.817   1.448  13.973
 7887W        W76360  21.223  17.117  11.006
 7888W        W76361  34.067  43.510   3.300
 7889W        W76362  36.975  25.558   1.699
 7890W        W76363  10.149  14.762   2.757
 7891W        W76364  40.911  29.938   3.778
 7892W        W76365  18.743   2.452   1.761
 7893W        W76366  27.052  10.240   4.221
 7894W        W76367   9.686  19.643   1.734
 7895W        W76368   4.357  28.487  10.919
 7896W        W76369  25.538  28.636   3.746
 7897W        W76370  41.995   6.324   4.336
 7898W        W76371  37.509  18.618  12.896
 7899W        W76372  41.523   3.820   2.744
 7900W        W76373   3.881  21.639   3.639
 7901W        W76374  25.038   4.400  12.348
 7902W        W76375  16.168  22.202  13.817
 7903W        W76376  16.095  43.513  11.934
 7904W        W76377   3.925  39.854  13.908
 7905W        W76378  37.431   6.881  10.553
 7906W        W76379  30.923   4.314  14.478
 7907W        W76380  26.987  41.327   0.420
 7908W        W76381   3.409  40.955   2.267
 7909W        W76382  43.778   6.425  13.980
 7910W        W76383  27.942  40.543   1.795
 7911W        W76384  41.995   2.251  13.061
 7912W        W76385  42.900  16.641   2.324
 7913W        W76386  36.392  37.048   1.722
 7914W        W76387   4.875  36.068   2.404
 7915W        W76388   3.251   9.789   0.949
 7916W        W76389  33.579   3.357  11.004
 7917W        W76390  12.817   3.396   2.723
 7918W        W76391  10.681  31.609   1.450
 7919W        W76392   4.228  31.437  10.959
 7920W        W76393   3.245  38.892  14.850
 7921W        W76394   6.917  21.058   2.281
 7922W        W76395   2.283  33.547   4.694
 7923W        W76396  21.567  34.921   2.341
 7924W        W76397  28.524  33.581  12.354
 7925W        W76398   1.306  42.486   3.354
 7926W        W76399   0.460   4.344  14.961
 7927W        W76400  44.808  23.597  14.811
 7928W        W76401  32.459  25.529  12.889
 7929W        W76402   3.784  42.834  10.562
 7930W        W76403  38.476  34.894  10.995
 7931W        W76404  28.012   3.312   3.385
 7932W        W76405  23.567  35.092   3.682
 7933W        W76406   2.892   1.241   2.418
 7934W        W76407  15.117  36.567  11.877
 7935W        W76408  20.557  41.430  11.419
 7936W        W76409  20.242   8.887   0.447
 7937W        W76410   5.872  14.145  10.531
 7938W        W76411  33.613  43.412  11.422
 7939W        W76412   9.270  13.191  12.079
 7940W        W76413  34.887  27.989   2.204
 7941W        W76414  32.003  24.626   0.416
 7942W        W76415  37.366   5.397   3.657
 7943W        W76416  13.110  32.116  10.955
 7944W        W76417  27.476  28.435   3.306
 7945W        W76418  21.131  41.941   4.781
 7946W        W76419  32.957  11.812  10.629
 7947W        W76420   8.185  36.499   9.466
 7948W        W76421  26.077   0.422  14.856
 7949W        W76422  38.531   4.753  13.880
 7950W        W76423  12.256   9.317   0.263
 7951W        W76424  30.593  13.702   1.405
 7952W        W76425   4.704  15.222   2.872
 7953W        W76426   9.252   3.767  12.833
 7954W        W76427  38.994  32.010  13.314
 7955W        W76428  15.583  19.084  13.982
 7956W        W76429  21.219  23.085   4.707
 7957W        W76430  11.823  27.180   3.852
 7958W        W76431  10.148   8.740   2.345
 7959W        W76432  44.348  19.183   2.791
 7960W        W76433  35.559  24.116  13.040
 7961W        W76434  21.687  27.530  10.075
 7962W        W76435  18.168  13.131  13.931
 7963W        W76436  33.494  23.032  12.043
 7964W        W76437  32.898   3.326   3.203
 7965W        W76438  25.658  30.564   4.806
 7966W        W76439  39.501  20.580   4.598
 7967W        W76440   7.173   9.800  13.901
 7968W        W76441  44.792  32.412  14.320
 7969W        W76442  43.021  42.413   2.804
 7970W        W76443  35.566  32.015   5.290
 7971W        W76444  33.497   0.376  11.126
 7972W        W76445   2.335  13.273   3.862
 7973W        W76446  24.132  44.955   4.295
 7974W        W76447  36.027  31.098   1.752
 7975W        W76448  37.990  43.366   1.849
 7976W        W76449  13.168  24.506   2.848
 7977W        W76450  42.403  40.500   0.318
 7978W        W76451  27.469  30.921   1.250
 7979W        W76452  12.765  19.616   0.253
 7980W        W76453  11.637  13.627   0.861
 7981W        W76454  31.555  27.061   1.817
 7982W        W76455  40.484  13.142  12.943
 7983W        W76456  40.457  10.836   0.344
 7984W        W76457   7.317  35.895  13.492
 7985W        W76458  13.811  19.170   2.208
 7986W        W76459  35.029  41.991  13.329
 7987W        W76460  32.447  25.560   0.407
 7988W        W76461   7.693  14.787  12.079
 7989W        W76462  15.712  35.063   4.786
 7990W        W76463  17.697   4.444   2.866
 7991W        W76464  23.162  26.065  14.913
 7992W        W76465   5.729  31.409  11.557
 7993W        W76466  33.946  40.533   3.307
 7994W        W76467  14.110  25.017   4.649
 7995W        W76468  31.901   0.412  12.409
 7996W        W76469  26.580  37.952  11.972
 7997W        W76470   3.761   8.174   2.217
 7998W        W76471   6.347  33.453  12.446
 7999W        W76472   5.308   3.771  10.930
 8000W        W76473  36.482   3.944   3.700
 8001W        W76474   0.294  42.419   0.799
 8002W        W76475  37.890  33.552  10.510
 8003W        W76476  44.832  21.691  13.876
 8004W        W76477  16.685  11.357   2.212
 8005W        W76478  18.697  20.057  10.462
 8006W        W76479  33.432  29.167  10.102
 8007W        W76480   6.252  38.356  12.521
 8008W        W76481   7.899  39.929   1.343
 8009W        W76482  40.314  13.716   1.351
 8010W        W76483   9.347   9.872  12.458
 8011W        W76484   8.852   8.685   3.357
 8012W        W76485  13.732  23.709   0.380
 8013W        W76486  13.763  27.514  13.825
 8014W        W76487  35.919   1.393  14.425
 8015W        W76488  23.206  16.103  11.375
 8016W        W76489  19.780  39.447   4.201
 8017W        W76490   3.759  10.230   2.841
 8018W        W76491  28.056   2.436   3.722
 8019W        W76492  42.502  18.166   4.116
 8020W        W76493   0.284  38.410  11.576
 8021W        W76494  27.122  25.005  12.450
 8022W        W76495   9.317   4.790  12.375
 8023W        W76496  14.668  28.602   3.850
 8024W        W76497  33.084  22.618  10.407
 8025W        W76498  11.650  34.371   5.307
 8026W        W76499  40.972  12.761  12.351
 8027W        W76500  31.478  42.969  11.874
 8028W        W76501  24.506  10.304   4.710
 8029W        W76502  13.612  39.953   2.801
 8030W        W76503   1.757  42.289  13.504
 8031W        W76504  26.673  10.747  11.069
 8032W        W76505  32.093  38.863   0.447
 8033W        W76506  12.851  26.534  11.437
 8034W        W76507  11.812  39.398   4.748
 8035W        W76508  14.226  13.700   3.192
 8036W        W76509  44.360  15.154   2.816
 8037W        W76510  11.316  14.264  10.533
 8038W        W76511  26.121   6.213  11.013
 8039W        W76512  26.508  37.400   4.269
 8040W        W76513   1.801  37.869  13.930
 8041W        W76514  22.174  14.756   0.842
 8042W        W76515  15.088   3.291  12.879
 8043W        W76516   3.798  30.083   3.703
 8044W        W76517   0.859  25.634   0.808
 8045W        W76518  42.962  38.894  10.618
 8046W        W76519  35.370  24.054  14.343
 8047W        W76520  22.615  30.453  13.434
 8048W        W76521   6.385  34.538   3.648
 8049W        W76522  35.393  30.097  14.339
 8050W        W76523  35.885  13.716  14.367
 8051W        W76524   5.362  25.682   2.670
 8052W        W76525   5.715  15.816   2.340
 8053W        W76526  20.178  28.590  12.053
 8054W        W76527  22.687   0.256  10.459
 8055W        W76528   9.309  30.953   2.828
 8056W        W76529  28.013  38.432  13.796
 8057W        W76530  37.345  17.648   1.376
 8058W        W76531  34.084  22.084  14.012
 8059W        W76532  14.144  33.126  13.423
 8060W        W76533  29.661  23.015  14.470
 8061W        W76534   6.350  44.979  12.983
 8062W        W76535   8.694  21.656   3.212
 8063W        W76536  28.568   7.788  12.921
 8064W        W76537  38.895  11.301  11.607
 8065W        W76538  34.604  44.758  13.490
 8066W        W76539  10.303  43.361  14.514
 8067W        W76540  15.773  22.998  11.572
 8068W        W76541  42.854  42.296   1.263
 8069W        W76542  11.311  14.802   4.252
 8070W        W76543  26.466   7.675  11.520
 8071W        W76544  35.043  43.902  12.860
 8072W        W76545  16.111  38.021  10.012
 8073W        W76546  13.323  40.528  13.047
 8074W        W76547  43.477   8.834   2.277
 8075W        W76548  32.034   6.270  13.398
 8076W        W76549   7.336  39.480   4.317
 8077W        W76550   0.328   8.368   2.832
 8078W        W76551  19.578  44.955   0.951
 8079W        W76552  31.009  24.493  12.418
 8080W        W76553  33.524  31.023  11.920
 8081W        W76554   9.722  30.942  12.417
 8082W        W76555  38.028   9.876   1.238
 8083W        W76556  30.574  26.568   0.398
 8084W        W76557  26.608  29.922   4.338
 8085W        W76558  36.021  31.021  14.809
 8086W        W76559   3.395  40.407  14.881
 8087W        W76560   0.956  30.456   5.106
 8088W        W76561  38.371  17.279  13.896
 8089W        W76562  37.483  41.439   2.287
 8090W        W76563  21.695  22.056   3.216
 8091W        W76564  32.131   1.875  10.927
 8092W        W76565  23.584  42.473  14.294
 8093W        W76566  39.385   1.242   1.232
 8094W        W76567   1.314  40.493   3.215
 8095W        W76568  15.148  41.945  11.098
 8096W        W76569  31.055   7.328   2.222
 8097W        W76570  33.933  28.162  11.439
 8098W        W76571  27.461   0.379   5.699
 8099W        W76572  34.060  11.856  13.465
 8100W        W76573  14.701  29.126   1.763
 8101W        W76574  21.585  36.421  11.875
 8102W        W76575  32.949  11.794   3.234
 8103W        W76576   5.810  41.463  13.389
 8104W        W76577  24.560  12.629   3.377
 8105W        W76578  13.740  40.372   4.151
 8106W        W76579   3.742  31.620  13.481
 8107W        W76580  33.932  38.470  11.948
 8108W        W76581  43.364  22.117   2.826
 8109W        W76582  30.074  19.059   0.271
 8110W        W76583  26.017  39.048  14.810
 8111W        W76584  12.730  20.752   2.267
 8112W        W76585  23.106  31.504  13.875
 8113W        W76586  31.485  19.194   4.612
 8114W        W76587   1.746  24.205  14.884
 8115W        W76588  44.959  14.175  14.939
 8116W        W76589  28.072   9.321  13.853
 8117W        W76590  34.013  21.236   9.970
 8118W        W76591  28.977   2.772  10.481
 8119W        W76592  19.204  12.242  12.874
 8120W        W76593  41.299  34.874  11.438
 8121W        W76594  37.851   6.201  10.602
 8122W        W76595   0.417  19.753  11.950
 8123W        W76596  24.669  42.818  11.873
 8124W        W76597  29.088  42.844   4.636
 8125W        W76598  30.977   3.885  11.581
 8126W        W76599  18.743  16.566  10.615
 8127W        W76600  44.978  23.727   1.740
 8128W        W76601  13.819  15.725  10.985
 8129W        W76602  40.476  24.619  13.961
 8130W        W76603   1.405   2.381  12.829
 8131W        W76604  25.187  28.075  14.470
 8132W        W76605  23.516  32.127   0.918
 8133W        W76606  17.711  28.582  11.124
 8134W        W76607  12.693   7.285  12.492
 8135W        W76608  44.916  28.141   4.683
 8136W        W76609  37.526  24.183   5.214
 8137W        W76610  44.874   0.311   0.769
 8138W        W76611   9.878  15.814   2.271
 8139W        W76612  18.101  13.722   4.314
 8140W        W76613  43.305   5.797   4.174
 8141W        W76614  33.002  36.966   4.158
 8142W        W76615   5.840  22.620  10.916
 8143W        W76616  38.983  17.248   0.821
 8144W        W76617  22.511  35.880  14.005
 8145W        W76618  21.052   9.877  11.010
 8146W        W76619   4.783  17.729   1.913
 8147W        W76620  31.112  26.664   1.365
 8148W        W76621   0.254   2.844  10.613
 8149W        W76622  26.540   5.358  14.351
 8150W        W76623  18.264  28.519  14.343
 8151W        W76624   7.789  36.960   3.700
 8152W        W76625  28.616   7.411  10.612
 8153W        W76626  33.465  25.038  12.003
 8154W        W76627  16.746  32.043   1.318
 8155W        W76628   7.215  41.518  14.276
 8156W        W76629  14.728  20.062  12.356
 8157W        W76630   4.902  22.133   0.448
 8158W        W76631  32.460  40.355  11.037
 8159W        W76632  29.560  25.592  11.026
 8160W        W76633  28.645  17.207   3.224
 8161W        W76634  16.075  37.874   5.578
 8162W        W76635   5.695  22.126   0.739
 8163W        W76636  36.945  33.968   3.303
 8164W        W76637  24.547  25.601   0.361
 8165W        W76638  41.414  36.530   4.261
 8166W        W76639  20.051  20.105   4.185
 8167W        W76640  30.101  36.919  12.865
 8168W        W76641  40.490   9.823   0.841
 8169W        W76642  14.622  28.659  14.406
 8170W        W76643  17.727  35.604   3.330
 8171W        W76644  40.346   2.884   0.299
 8172W        W76645   8.765   9.315   0.766
 8173W        W76646  30.149  14.333   1.728
 8174W        W76647   2.836  29.476  13.480
 8175W        W76648   9.713  18.213   2.678
 8176W        W76649  11.856  36.938   1.409
 8177W        W76650  42.313   5.763   1.446
 8178W        W76651  20.611   6.217   3.772
 8179W        W76652   9.327  28.009  12.010
 8180W        W76653  21.756  37.949  14.788
 8181W        W76654  35.372  23.138   3.776
 8182W        W76655  31.967  17.574   4.830
 8183W        W76656  17.704  43.351   4.289
 8184W        W76657  37.580   8.352  13.942
 8185W        W76658  26.514  42.890  13.910
 8186W        W76659  43.367   0.853   2.703
 8187W        W76660  20.178  38.952  12.955
 8188W        W76661  35.903  12.346   0.754
 8189W        W76662  24.550  31.491   1.790
 8190W        W76663  34.541  30.591  12.845
 8191W        W76664   1.402   4.287   0.748
 8192W        W76665  12.362  34.074  13.833
 8193W        W76666   8.772  39.903  14.966
 8194W        W76667  34.527  42.319   1.911
 8195W        W76668  40.538  40.516   1.433
 8196W        W76669  39.913  28.937  14.019
 8197W        W76670  34.520  41.901   4.340
 8198W        W76671  38.864  25.707   0.863
 8199W        W76672  31.128  32.519   1.267
 8200W        W76673  40.506  25.636   3.740
 8201W        W76674  14.123   6.686  11.565
 8202W        W76675  31.908  17.200  14.830
 8203W        W76676  12.169  38.946  13.964
 8204W        W76677   2.915   9.848  12.026
 8205W        W76678  29.018  37.515   9.944
 8206W        W76679  18.276  20.186   0.946
 8207W        W76680  33.571  12.771  10.569
 8208W        W76681  28.612  20.260  13.435
 8209W        W76682  14.186  34.450  13.511
 8210W        W76683   4.277  34.478  14.483
 8211W        W76684   7.355  33.027   3.654
 8212W        W76685  41.431  27.175   1.214
 8213W        W76686  13.193   7.392   1.448
 8214W        W76687  21.196  11.778  10.462
 8215W        W76688   7.241  25.012  10.524
 8216W        W76689  28.577   1.385  14.909
 8217W        W76690  33.573  24.215   3.277
 8218W        W76691  23.542  13.628   4.655
 8219W        W76692  17.228  20.084  14.793
 8220W        W76693  17.723   0.811  11.946
 8221W        W76694  22.007  13.315   3.338
 8222W        W76695  23.125  20.028  13.326
 8223W        W76696  15.746  29.527   0.734
 8224W        W76697  31.455  42.325   0.779
 8225W        W76698   2.451  36.848  11.089
 8226W        W76699  11.759   1.797   3.827
 8227W        W76700  43.944   3.391  12.907
 8228W        W76701  14.218  40.985   2.847
 8229W        W76702  14.820  43.968   0.916
 8230W        W76703  12.220  18.651   0.912
 8231W        W76704  32.523  35.434  13.859
 8232W        W76705   7.758  37.579   0.802
 8233W        W76706  39.541   4.899   2.881
 8234W        W76707  39.377  39.381   3.663
 8235W        W76708   1.892   6.250   0.729
 8236W        W76709  20.546  10.730  13.359
 8237W        W76710  26.122  18.175   3.300
 8238W        W76711  18.263   4.327  12.075
 8239W        W76712   3.380  42.479  14.309
 8240W        W76713  28.127   2.293   4.623
 8241W        W76714   3.907  30.908  12.478
 8242W        W76715  44.492  11.750  12.508
 8243W        W76716   8.244   2.949   1.240
 8244W        W76717  42.894   7.821   0.944
 8245W        W76718  42.362  31.494   2.334
 8246W        W76719  11.149  36.380   3.210
 8247W        W76720  20.186  34.909   0.462
 8248W        W76721  43.462   8.258   2.231
 8249W        W76722  26.487   1.405   4.217
 8250W        W76723   1.434  10.711   4.676
 8251W        W76724  19.729  26.045  14.464
 8252W        W76725  33.416  13.291   2.405
 8253W        W76726  29.601  20.653   3.195
 8254W        W76727   7.314  44.436   1.875
 8255W        W76728   4.208  15.087   5.293
 8256W        W76729   9.850   7.725  10.429
 8257W        W76730  36.369  42.463  11.874
 8258W        W76731  11.301   2.352   2.397
 8259W        W76732  32.523  16.168  13.392
 8260W        W76733  23.536   0.800   1.731
 8261W        W76734  13.640  21.697  12.843
 8262W        W76735  38.548   8.277   3.232
 8263W        W76736   8.178  30.618  13.311
 8264W        W76737  35.601  37.423  11.979
 8265W        W76738  13.761  26.993   2.678
 8266W        W76739   5.900   0.290   1.792
 8267W        W76740  20.582  32.534   1.262
 8268W        W76741  23.043   0.962  11.589
 8269W        W76742   1.924  43.485   0.817
 8270W        W76743  22.150  23.599   3.355
 8271W        W76744   4.776   9.816  14.403
 8272W        W76745  21.097   4.270  11.390
 8273W        W76746  28.484   8.869  11.946
 8274W        W76747  35.394   4.232   2.200
 8275W        W76748  12.676  26.531   4.328
 8276W        W76749  38.365  29.448  12.960
 8277W        W76750  33.932  20.731  11.513
 8278W        W76751  18.176   4.923  13.978
 8279W        W76752   1.807  38.060  14.495
 8280W        W76753  15.713  32.944  14.303
 8281W        W76754  30.473  36.418  14.763
 8282W        W76755  34.524  32.464   0.910
 8283W        W76756  10.224  20.529  12.493
 8284W        W76757  39.952   2.932   4.203
 8285W        W76758   5.886  22.514  12.376
 8286W        W76759  26.701   0.318  11.858
 8287W        W76760  19.587   8.787  14.007
 8288W        W76761  30.133  21.584   0.330
 8289W        W76762   1.406  39.499  12.907
 8290W        W76763  35.460  18.751   1.368
 8291W        W76764  37.062  23.988  12.370
 8292W        W76765  37.364  31.003   0.843
 8293W        W76766  41.482  39.957  14.405
 8294W        W76767  20.136  35.419  10.588
 8295W        W76768  12.731   5.329   1.827
 8296W        W76769  31.153  40.946  14.963
 8297W        W76770   1.417  30.927   1.797
 8298W        W76771  19.064  25.006  11.890
 8299W        W76772  21.261  12.702   9.540
 8300W        W76773  32.927  14.796   2.269
 8301W        W76774  10.334  36.945  11.060
 8302W        W76775  43.359  30.600  10.952
 8303W        W76776  26.642   9.669   2.750
 8304W        W76777   9.160  28.593   3.178
 8305W        W76778  33.955  31.490  11.578
 8306W        W76779  40.489  27.680  11.377
 8307W        W76780   4.368  11.248  11.385
 8308W        W76781  12.272  19.156  11.037
 8309W        W76782  43.832  10.250   4.790
 8310W        W76783  31.517  16.139  13.455
 8311W        W76784  40.326  23.734   0.875
 8312W        W76785  40.994   4.913   2.882
 8313W        W76786  18.672  37.983   3.212
 8314W        W76787  38.988  12.848   0.757
 8315W        W76788  16.600  36.063  11.592
 8316W        W76789  32.484  23.565   3.696
 8317W        W76790  42.926  41.882  14.846
 8318W        W76791  36.365  16.077   4.274
 8319W        W76792  36.913  13.330   2.209
 8320W        W76793  38.902  43.316  14.448
 8321W        W76794   9.671  36.524  12.929
 8322W        W76795  30.561  13.174   5.222
 8323W        W76796   3.733   3.803  12.005
 8324W        W76797  30.460  39.336   2.348
 8325W        W76798  25.627  27.570   0.932
 8326W        W76799  38.363   7.240   0.355
 8327W        W76800  23.109  24.677   3.716
 8328W        W76801  38.942  12.134   3.232
 8329W        W76802  35.571  35.090   1.723
 8330W        W76803  32.392  13.279  10.918
 8331W        W76804  36.593   4.237  12.948
 8332W        W76805  32.991  43.469  12.379
 8333W        W76806  37.528  42.776  11.459
 8334W        W76807  28.456  18.138  12.555
 8335W        W76808  32.111  10.371   3.681
 8336W        W76809  35.108   9.253  12.513
 8337W        W76810  43.820   5.850  13.469
 8338W        W76811  16.303  26.529  13.929
 8339W        W76812  29.498   7.194  14.279
 8340W        W76813  32.510  41.476   3.798
 8341W        W76814  18.248  42.940  12.898
 8342W        W76815  38.960  12.717   2.822
 8343W        W76816  11.659  20.153   2.720
 8344W        W76817  41.434   6.912   0.305
 8345W        W76818   9.659  36.586   3.231
 8346W        W76819  31.603  36.892  13.332
 8347W        W76820  42.500  37.903  11.005
 8348W        W76821   0.455  33.483  10.562
 8349W        W76822  19.078  10.822  11.051
 8350W        W76823  43.826  33.528   2.188
 8351W        W76824   0.360   2.880  12.051
 8352W        W76825  18.053  38.341  13.345
 8353W        W76826  41.521  19.172   0.462
 8354W        W76827   3.296  20.215  10.408
 8355W        W76828   8.833  29.925  14.386
 8356W        W76829  20.268  17.197  11.983
 8357W        W76830  31.501  41.302   4.121
 8358W        W76831   0.754  27.136  11.124
 8359W        W76832  36.000  42.458  12.873
 8360W        W76833   0.252  37.930   1.745
 8361W        W76834  29.059  36.083  12.965
 8362W        W76835   5.407  35.508   2.821
 8363W        W76836   8.868  11.262  13.059
 8364W        W76837   6.354   7.375   5.599
 8365W        W76838  42.930   3.425   2.717
 8366W        W76839  13.250  33.093   0.901
 8367W        W76840  40.368  22.620   2.246
 8368W        W76841  41.961   0.351  14.026
 8369W        W76842   2.303   2.851   3.277
 8370W        W76843  19.063  41.892  13.948
 8371W        W76844  30.921  14.246   0.863
 8372W        W76845  11.726  25.009   2.232
 8373W        W76846  25.665  42.912  12.442
 8374W        W76847  23.229   9.221  11.456
 8375W        W76848  12.663  16.596   0.946
 8376W        W76849  10.137  14.647  13.437
 8377W        W76850  10.674  22.200   0.897
 8378W        W76851  23.705  19.613  11.079
 8379W        W76852  33.516   9.740   3.674
 8380W        W76853  14.160  13.288  11.486
 8381W        W76854  37.831  24.986   4.675
 8382W        W76855  16.297  35.027   1.764
 8383W        W76856  18.138  15.121   0.864
 8384W        W76857  18.191  33.060  11.943
 8385W        W76858  22.614  26.074  14.308
 8386W        W76859   5.374  21.720   4.663
 8387W        W76860  37.888  36.023   3.838
 8388W        W76861  37.036  19.535  12.411
 8389W        W76862  13.685   4.405  13.905
 8390W        W76863  38.992  21.185  11.014
 8391W        W76864   8.793  27.687  11.944
 8392W        W76865  22.619  35.995  13.345
 8393W        W76866  28.507  35.385  10.887
 8394W        W76867  35.499  23.666   3.175
 8395W        W76868  43.374  40.386  12.347
 8396W        W76869  42.967   6.798  12.532
 8397W        W76870  13.746   1.913   4.121
 8398W        W76871  14.605  32.927  10.482
 8399W        W76872  10.352   7.219  13.378
 8400W        W76873  44.312  44.894   2.322
 8401W        W76874  38.853   0.891  10.491
 8402W        W76875  17.283  17.560   3.310
 8403W        W76876  13.273   4.895  13.310
 8404W        W76877  29.581  26.530  14.021
 8405W        W76878  33.540  33.031   0.777
 8406W        W76879  32.097  29.036   4.716
 8407W        W76880  39.538   6.910  12.384
 8408W        W76881  44.911   1.971   1.811
 8409W        W76882  37.524   1.732  14.835
 8410W        W76883  41.002  35.561   2.387
 8411W        W76884  35.969  15.283   2.400
 8412W        W76885  39.478  18.684   3.351
 8413W        W76886   9.277  29.033   4.239
 8414W        W76887  26.067  33.048   3.661
 8415W        W76888  12.776   4.868   1.297
 8416W        W76889  42.294  26.590  11.080
 8417W        W76890  25.034   0.930   1.925
 8418W        W76891  15.160  42.938  14.504
 8419W        W76892   3.907   8.832   3.699
 8420W        W76893  10.855   3.372  13.484
 8421W        W76894  27.545  28.548  11.008
 8422W        W76895  15.803  42.832  10.891
 8423W        W76896  25.518   3.903   3.226
 8424W        W76897  17.307  44.978   0.449
 8425W        W76898   8.814   2.470  10.501
 8426W        W76899  40.973  39.401  13.837
 8427W        W76900  15.769   7.176   5.157
 8428W        W76901  25.127  10.677  13.063
 8429W        W76902  38.326  17.727   3.632
 8430W        W76903  33.387  35.545  13.444
 8431W        W76904  42.987  35.018   1.314
 8432W        W76905  31.467   2.812   1.761
 8433W        W76906  26.204  30.489  12.884
 8434W        W76907  21.095   6.854   2.391
 8435W        W76908  13.699  19.122  13.442
 8436W        W76909  41.411  17.184  14.290
 8437W        W76910   5.744  11.327  14.019
 8438W        W76911  30.506  32.983   1.921
 8439W        W76912  44.498   4.742   2.683
 8440W        W76913  37.947  31.562  12.990
 8441W        W76914  27.966  40.515   3.858
 8442W        W76915   7.833   7.739  13.488
 8443W        W76916  20.713  20.085  11.943
 8444W        W76917  18.221  17.790  11.091
 8445W        W76918  17.751  24.992  10.602
 8446W        W76919  27.071  41.972  10.967
 8447W        W76920  23.537  32.008   4.327
 8448W        W76921  30.007  15.206  12.838
 8449W        W76922   8.748  23.561   1.896
 8450W        W76923  15.602  13.772   3.697
 8451W        W76924  30.954   1.397  12.434
 8452W        W76925  44.389  25.208   9.971
 8453W        W76926  16.280  39.970  11.094
 8454W        W76927  15.810  37.410   2.291
 8455W        W76928   9.297  38.468  10.441
 8456W        W76929   8.878  32.102   2.690
 8457W        W76930  23.615  10.261   4.753
 8458W        W76931  40.813   7.384   4.624
 8459W        W76932  11.366  14.201  13.895
 8460W        W76933  35.567  13.327  13.545
 8461W        W76934  39.060  22.571  13.021
 8462W        W76935   7.194  21.673   0.847
 8463W        W76936  35.990   0.267  14.478
 8464W        W76937  41.023   2.300   1.732
 8465W        W76938  35.904  31.905   0.416
 8466W        W76939  34.894  20.618   1.306
 8467W        W76940  26.481   9.684  14.821
 8468W        W76941  19.702  19.162  11.068
 8469W        W76942  12.222   3.221  13.003
 8470W        W76943  33.471   8.170  12.015
 8471W        W76944  42.869  10.193   3.350
 8472W        W76945   2.289  17.263   0.463
 8473W        W76946  31.049  31.581   1.857
 8474W        W76947  14.217  22.235   1.700
 8475W        W76948   0.784  34.551   5.194
 8476W        W76949  34.052  10.798   0.385
 8477W        W76950  15.235  36.576   1.820
 8478W        W76951   4.841  38.415  11.580
 8479W        W76952   5.830   9.759  14.292
 8480W        W76953  32.953  34.439  12.867
 8481W        W76954  43.807  13.615  11.056
 8482W        W76955  16.807  31.991  14.764
 8483W        W76956  38.889  38.004   3.329
 8484W        W76957  30.019  28.073   1.728
 8485W        W76958  39.938   3.247  11.108
 8486W        W76959  39.538   5.872   0.275
 8487W        W76960  44.335  26.012   2.300
 8488W        W76961  30.916  25.537  10.967
 8489W        W76962  44.468  28.941  11.552
 8490W        W76963   0.899  27.197  11.398
 8491W        W76964  31.603  19.664   3.776
 8492W        W76965  19.726   6.783   1.829
 8493W        W76966  30.003  44.490  11.127
 8494W        W76967  20.184  26.697   3.694
 8495W        W76968   4.808  27.114   2.389
 8496W        W76969  24.488  31.925  11.540
 8497W        W76970  25.973  41.498  14.391
 8498W        W76971  36.999   0.869   2.889
 8499W        W76972  15.656  28.655  13.412
 8500W        W76973  26.467   2.874  14.877
 8501W        W76974  36.944  32.547  13.368
 8502W        W76975  38.432  38.516   0.461
 8503W        W76976   9.705  23.213  12.504
 8504W        W76977  23.993   5.866  11.944
 8505W        W76978  18.559  14.133   5.086
 8506W        W76979  25.634  25.987   1.869
 8507W        W76980  20.608   3.341   3.284
 8508W        W76981  34.890  17.267  13.882
 8509W        W76982  29.051  17.751  12.440
 8510W        W76983  13.341  24.694   1.930
 8511W        W76984  36.565  43.844   0.369
 8512W        W76985  43.321  27.105   1.319
 8513W        W76986  26.124  12.825   3.197
 8514W        W76987  43.403   6.190   3.248
 8515W        W76988  21.098  21.566   1.432
 8516W        W76989  32.489   2.410  10.439
 8517W        W76990  42.882  37.356  11.962
 8518W        W76991  38.860  19.544  14.785
 8519W        W76992  25.093  15.216   4.151
 8520W        W76993  13.812  29.594  11.455
 8521W        W76994  43.292  30.912  10.993
 8522W        W76995  13.728  40.448   3.804
 8523W        W76996  10.842  43.910  11.558
 8524W        W76997  15.312  34.611  13.986
 8525W        W76998  43.287  40.464   0.875
 8526W        W76999  31.642  42.460   4.265
 8527W        W77000  36.592  19.556  12.892
 8528W        W77001  41.481   1.960  14.355
 8529W        W77002  37.394  26.047   2.358
 8530W        W77003  33.883  27.151  14.309
 8531W        W77004  35.599  33.023  14.301
 8532W        W77005  18.584  30.501   0.295
 8533W        W77006  24.069  34.098   4.317
 8534W        W77007  18.198  11.222  10.642
 8535W        W77008  21.532  28.127   3.209
 8536W        W77009  31.625  39.489   3.774
 8537W        W77010  34.911  20.539   4.282
 8538W        W77011   6.324  41.861  11.399
 8539W        W77012  32.944   8.264   2.811
 8540W        W77013  31.630  22.113   1.350
 8541W        W77014   6.684  42.943  12.058
 8542W        W77015  11.224  24.587  11.464
 8543W        W77016  13.187  28.027   9.972
 8544W        W77017  17.652  34.868   4.264
 8545W        W77018   8.257   2.936   3.160
 8546W        W77019  41.347  29.158  13.541
 8547W        W77020  12.156  23.703   4.266
 8548W        W77021  39.958  10.791   2.805
 8549W        W77022  27.570  30.610  12.001
 8550W        W77023  25.605  43.816   2.189
 8551W        W77024  18.134  43.946  14.840
 8552W        W77025  41.940  36.989   1.364
 8553W        W77026  12.806  10.678   0.281
 8554W        W77027  38.850  26.011   1.331
 8555W        W77028   2.282  42.449   1.927
 8556W        W77029  13.226   9.743   0.394
 8557W        W77030  28.060  25.096   2.374
 8558W        W77031  33.912  16.292  13.896
 8559W        W77032  20.088  38.992   4.816
 8560W        W77033  29.666  42.372   1.712
 8561W        W77034  36.867  42.461   1.893
 8562W        W77035  28.975   4.316  10.920
 8563W        W77036  22.233  16.261  10.913
 8564W        W77037  44.898  39.374   1.335
 8565W        W77038  19.121  42.351   2.250
 8566W        W77039   2.387  43.459  11.567
 8567W        W77040  10.315  40.441   2.189
 8568W        W77041  28.624  22.519  11.554
 8569W        W77042   5.694  23.617  10.941
 8570W        W77043  23.041  26.173  13.310
 8571W        W77044  18.290  16.097   3.318
 8572W        W77045  23.140  38.928  12.045
 8573W        W77046  27.524  42.322   1.327
 8574W        W77047  28.520  29.947   1.826
 8575W        W77048  15.275   2.944  13.821
 8576W        W77049  32.557  27.137   1.326
 8577W        W77050  15.104  16.086  13.528
 8578W        W77051  40.027  18.295   4.785
 8579W        W77052  33.558  18.108   5.299
 8580W        W77053   8.221  34.594   5.218
 8581W        W77054  10.370  17.594  10.405
 8582W        W77055  42.926  38.402   3.360
 8583W        W77056  26.646   4.264  12.991
 8584W        W77057  24.134  34.044   0.428
 8585W        W77058  23.655  30.012  10.601
 8586W        W77059  16.238  41.491   0.474
 8587W        W77060  29.060  39.400  11.526
 8588W        W77061  14.815  31.954   2.206
 8589W        W77062  33.912  43.369  13.811
 8590W        W77063  24.610  17.283   3.748
 8591W        W77064  29.666  33.480   4.749
 8592W        W77065  29.439   4.809   1.395
 8593W        W77066  15.168  43.975  11.921
 8594W        W77067  10.673  38.990  14.372
 8595W        W77068   4.228   6.403   5.207
 8596W        W77069  25.669  30.148  11.859
 8597W        W77070  30.164  12.121  10.466
 8598W        W77071  32.425  12.778  13.045
 8599W        W77072  27.961  41.481   2.272
 8600W        W77073  44.878  13.351  14.424
 8601W        W77074  21.715  28.945  10.589
 8602W        W77075   6.375   9.386   2.228
 8603W        W77076  28.609  24.976   1.714
 8604W        W77077  41.861  11.821  13.913
 8605W        W77078   0.860  22.698  11.529
 8606W        W77079  18.056  29.118   1.748
 8607W        W77080  25.569  25.161  13.385
 8608W        W77081  42.464  34.905   2.401
 8609W        W77082  12.621  28.618   0.955
 8610W        W77083   3.952  28.086   1.838
 8611W        W77084  32.054   6.856  11.031
 8612W        W77085   8.822  27.048  13.048
 8613W        W77086   3.455  39.915  10.575
 8614W        W77087  23.521   8.249   4.202
 8615W        W77088  44.819  34.868  13.538
 8616W        W77089  29.630  23.988  12.977
 8617W        W77090   8.724  39.065  11.120
 8618W        W77091  42.896  44.869  10.603
 8619W        W77092  25.572  32.960  11.033
 8620W        W77093  31.489  32.508  14.008
 8621W        W77094  27.019   6.799   2.291
 8622W        W77095  33.433  30.937   1.422
 8623W        W77096  25.591  26.063   2.402
 8624W        W77097  28.111  34.081   4.252
 8625W        W77098  36.962  15.130   1.421
 8626W        W77099  38.016  43.774   2.343
 8627W        W77100  40.446  33.936   3.276
 8628W        W77101  16.227  13.788   3.765
 8629W        W77102  12.646   7.813   0.912
 8630W        W77103  42.029   1.865  12.565
 8631W        W77104   5.828  10.665   1.897
 8632W        W77105  25.562  43.374  11.100
 8633W        W77106  37.521  16.254   1.919
 8634W        W77107   3.935  28.975  14.944
 8635W        W77108  20.181  18.566  12.901
 8636W        W77109   6.422  23.713   0.744
 8637W        W77110  23.552  32.012   3.338
 8638W        W77111  19.078  12.804   3.223
 8639W        W77112  34.486   2.447  11.866
 8640W        W77113  39.403  22.223  11.012
 8641W        W77114  33.408   1.937  12.057
 8642W        W77115   1.272  16.607  10.451
 8643W        W77116  29.936  35.062   4.132
 8644W        W77117  42.343  34.478   3.156
 8645W        W77118  33.088  34.992  11.580
 8646W        W77119  30.995  36.055   2.685
 8647W        W77120  22.518  25.484   3.160
 8648W        W77121   2.917   9.268   4.341
 8649W        W77122   7.900  13.218  11.914
 8650W        W77123  35.494  23.130   0.948
 8651W        W77124  10.689  20.089  10.596
 8652W        W77125  28.187   3.305  12.387
 8653W        W77126  23.615   4.920  12.056
 8654W        W77127   1.843  30.075  13.371
 8655W        W77128  34.929  31.482  14.865
 8656W        W77129  30.938   1.253  12.088
 8657W        W77130  24.557   7.398  12.975
 8658W        W77131  11.367  18.613   4.196
 8659W        W77132  38.568  20.648   0.420
 8660W        W77133  42.988  14.171   2.329
 8661W        W77134  43.347  25.146   1.316
 8662W        W77135  26.073   8.658  14.407
 8663W        W77136  22.676   8.204  13.432
 8664W        W77137  40.472   8.873  11.987
 8665W        W77138   2.270  25.472   4.632
 8666W        W77139  28.034  22.729   2.321
 8667W        W77140  44.375  23.578   4.205
 8668W        W77141  30.514  27.138   0.443
 8669W        W77142  37.884  33.394   3.866
 8670W        W77143  33.977  35.553  12.841
 8671W        W77144  25.078  27.956   5.120
 8672W        W77145  31.048  25.519  10.591
 8673W        W77146  10.814  43.415   1.882
 8674W        W77147  42.425  31.495  12.451
 8675W        W77148  21.645  41.787   4.686
 8676W        W77149  34.867  28.458  12.348
 8677W        W77150   9.802  44.408   0.439
 8678W        W77151  14.698  27.039   3.318
 8679W        W77152  41.336  32.141  13.487
 8680W        W77153   8.212  31.914   1.785
 8681W        W77154  22.593  15.696  11.418
 8682W        W77155  31.063  24.146  10.579
 8683W        W77156  30.420   3.955   2.865
 8684W        W77157  23.589   2.434  12.516
 8685W        W77158  44.881  21.065  12.913
 8686W        W77159  26.060   8.847  12.501
 8687W        W77160  20.196  10.637  12.581
 8688W        W77161  23.593  31.068  11.070
 8689W        W77162  23.507  22.242   1.775
 8690W        W77163  28.615  16.767   3.660
 8691W        W77164  22.054  25.612   0.478
 8692W        W77165   8.200  14.746   2.403
 8693W        W77166  15.225  22.533  12.075
 8694W        W77167   4.358  24.703  11.557
 8695W        W77168  44.316  33.034   2.186
 8696W        W77169   0.487  16.747  10.505
 8697W        W77170  14.811  31.491   1.413
 8698W        W77171   5.703  26.591  11.511
 8699W        W77172  13.710  26.129   0.869
 8700W        W77173  41.812  23.166  13.953
 8701W        W77174   2.357  41.956   1.327
 8702W        W77175  41.398  37.499   0.738
 8703W        W77176   8.783   1.905  14.434
 8704W        W77177  38.955  37.521  11.989
 8705W        W77178  23.584  35.428   1.733
 8706W        W77179  27.975  17.189  12.925
 8707W        W77180  37.061  15.126   0.938
 8708W        W77181  37.998  21.113   2.767
 8709W        W77182  43.490  18.768  11.610
 8710W        W77183  39.411  18.113   0.272
 8711W        W77184  33.607   1.758   1.271
 8712W        W77185  19.217  14.659  14.997
 8713W        W77186   3.365  16.669   0.791
 8714W        W77187  29.060  41.799   1.409
 8715W        W77188  17.740  31.063  11.434
 8716W        W77189  36.097  18.612   2.715
 8717W        W77190   5.713  13.804  14.295
 8718W        W77191  21.641  43.501   4.763
 8719W        W77192  17.212  12.117   2.696
 8720W        W77193  29.630  17.237  10.960
 8721W        W77194  27.165  33.002   2.788
 8722W        W77195   4.294  13.800  14.995
 8723W        W77196  19.083  44.361   0.906
 8724W        W77197  27.628  32.024  11.957
 8725W        W77198  40.521  20.547  14.333
 8726W        W77199  28.994  27.612   2.871
 8727W        W77200  27.969   5.887  14.302
 8728W        W77201  21.662  28.002   5.298
 8729W        W77202  17.252  39.991   9.609
 8730W        W77203  19.574  11.730   2.716
 8731W        W77204  44.491  15.157   4.636
 8732W        W77205  21.122   0.923  14.405
 8733W        W77206  37.496   6.272   3.228
 8734W        W77207  29.934  39.945  11.861
 8735W        W77208  11.642   4.867  10.622
 8736W        W77209  41.489  18.206  11.073
 8737W        W77210   4.222  30.149   2.260
 8738W        W77211  34.981  40.016  12.871
 8739W        W77212  26.187  14.282  13.036
 8740W        W77213  10.166   8.290  12.937
 8741W        W77214  17.577  31.902   2.753
 8742W        W77215  29.655  30.984   4.745
 8743W        W77216   4.836  26.702  13.839
 8744W        W77217  31.069  42.816   2.368
 8745W        W77218  16.753  33.940  13.838
 8746W        W77219   6.910   1.298  12.363
 8747W        W77220  27.567  44.791   4.114
 8748W        W77221  31.056  24.666  13.983
 8749W        W77222  33.381  35.894  11.579
 8750W        W77223  35.474  27.989  12.450
 8751W        W77224  28.132   3.434   1.786
 8752W        W77225  15.310  36.877   1.225
 8753W        W77226  12.302  25.567  13.357
 8754W        W77227  21.651  13.236   3.808
 8755W        W77228   7.687  22.126  11.055
 8756W        W77229  32.407  29.107  12.427
 8757W        W77230   7.301   4.262  13.464
 8758W        W77231  41.503  21.143   1.345
 8759W        W77232  19.211  32.552  13.036
 8760W        W77233   4.759  44.476   4.166
 8761W        W77234  22.120  20.647   0.355
 8762W        W77235  43.328  34.057   2.816
 8763W        W77236  22.205   1.299  13.427
 8764W        W77237  24.015  17.181   2.774
 8765W        W77238   9.217   4.733  14.888
 8766W        W77239  33.933  28.065  14.001
 8767W        W77240  23.679  18.785   3.817
 8768W        W77241  42.345  28.516   4.701
 8769W        W77242  22.535  20.635  14.446
 8770W        W77243   6.402  19.271  11.124
 8771W        W77244  10.782  41.914  14.923
 8772W        W77245  20.148   3.339   4.744
 8773W        W77246  43.945   8.213   3.735
 8774W        W77247  44.431  19.704  14.859
 8775W        W77248   9.150  24.180   5.187
 8776W        W77249  30.552  44.009   3.693
 8777W        W77250  36.018   0.750   0.870
 8778W        W77251  20.650   9.793  10.476
 8779W        W77252  17.289  16.207   0.773
 8780W        W77253  40.952  21.590   2.227
 8781W        W77254  39.399  16.074   4.741
 8782W        W77255   3.349  25.662  12.481
 8783W        W77256  36.500  13.782   0.411
 8784W        W77257  21.101  41.400  11.055
 8785W        W77258  43.902   0.891  12.504
 8786W        W77259  15.814  26.699  11.903
 8787W        W77260  26.484   8.163  11.431
 8788W        W77261  41.964  16.796   4.133
 8789W        W77262  37.995   0.425   0.474
 8790W        W77263  16.239   8.334  10.929
 8791W        W77264  12.223  22.668   1.824
 8792W        W77265  44.333  11.751   4.637
 8793W        W77266  18.764  32.071  12.519
 8794W        W77267   1.304   4.262  14.970
 8795W        W77268  42.379  27.626  12.872
 8796W        W77269  16.184  38.013   2.337
 8797W        W77270  21.672  30.525   1.778
 8798W        W77271  10.268  28.155   1.812
 8799W        W77272   3.934  28.524   1.257
 8800W        W77273   3.857  15.127   1.848
 8801W        W77274   8.818  21.085   1.928
 8802W        W77275  42.882  37.929   2.399
 8803W        W77276  43.279   8.826   2.800
 8804W        W77277  33.529  40.462   0.910
 8805W        W77278  44.462  25.485  11.951
 8806W        W77279  38.068   4.294  12.048
 8807W        W77280   5.312  34.975   2.401
 8808W        W77281   3.829  16.091   0.827
 8809W        W77282  41.484  40.379  10.536
 8810W        W77283  39.972  24.074   2.870
 8811W        W77284  26.656   0.480  12.562
 8812W        W77285  12.711  36.850  14.340
 8813W        W77286  17.258  35.060   3.184
 8814W        W77287   1.821   1.238   3.294
 8815W        W77288  12.848  18.779  12.033
 8816W        W77289  26.611  18.076  10.954
 8817W        W77290  18.782  38.343   4.274
 8818W        W77291  30.154  25.522  13.307
 8819W        W77292  25.022  32.521  13.854
 8820W        W77293   4.902  42.850  13.444
 8821W        W77294  32.579  28.150   3.272
 8822W        W77295  31.593  30.033   0.312
 8823W        W77296  12.613  14.782   2.845
 8824W        W77297  19.637  38.549  14.467
 8825W        W77298   3.435  31.534   3.767
 8826W        W77299  33.119  21.540   1.899
 8827W        W77300  41.999  14.160   2.888
 8828W        W77301   6.842  38.341   3.325
 8829W        W77302   4.822  17.723  13.915
 8830W        W77303  15.326  14.662   0.286
 8831W        W77304   1.434  23.118  13.805
 8832W        W77305  19.105  10.686   1.883
 8833W        W77306  19.756  25.987  10.627
 8834W        W77307  33.589   8.860   2.360
 8835W        W77308  25.111  13.739  12.482
 8836W        W77309  14.130  28.042   0.824
 8837W        W77310  22.587  29.006   4.643
 8838W        W77311  31.988  44.335  14.499
 8839W        W77312  13.635   2.955  14.443
 8840W        W77313  28.047  43.901  13.462
 8841W        W77314  34.471  34.085   2.283
 8842W        W77315  23.029  28.014  11.030
 8843W        W77316  39.401  23.034   0.483
 8844W        W77317  19.227   9.182   4.113
 8845W        W77318   2.898  30.136  14.958
 8846W        W77319  42.806   7.393   4.342
 8847W        W77320  25.579  24.214   0.788
 8848W        W77321   3.886  19.597  14.496
 8849W        W77322  25.202   7.892  13.037
 8850W        W77323  11.641   9.774  12.429
 8851W        W77324  17.252  13.656   0.817
 8852W        W77325  44.357   1.821   1.842
 8853W        W77326  29.020  32.394   1.434
 8854W        W77327  22.581  36.495   2.257
 8855W        W77328   5.745  38.328  12.020
 8856W        W77329  31.004   8.846   4.697
 8857W        W77330   3.450  12.217   2.735
 8858W        W77331  37.338  27.983   2.674
 8859W        W77332   4.282  27.064  11.555
 8860W        W77333  28.170  17.631  10.642
 8861W        W77334  35.045  41.849   1.747
 8862W        W77335  24.229  19.210   0.771
 8863W        W77336  21.573  26.962  11.919
 8864W        W77337  15.180  35.543  13.421
 8865W        W77338  29.053  26.004   3.263
 8866W        W77339  42.846  44.276  13.484
 8867W        W77340  33.433  22.682   0.454
 8868W        W77341  24.517  20.734  13.522
 8869W        W77342  37.006  36.505   4.786
 8870W        W77343  40.808  29.564  10.514
 8871W        W77344  29.566  33.552  12.873
 8872W        W77345  16.621  27.630  13.963
 8873W        W77346  33.879  43.490   9.999
 8874W        W77347   0.881   1.339   1.719
 8875W        W77348  31.545  43.772   3.866
 8876W        W77349  35.871  30.472  13.060
 8877W        W77350  20.211  13.332  12.451
 8878W        W77351  21.534  40.438  14.781
 8879W        W77352  33.507   5.925  13.986
 8880W        W77353  30.628  44.376   9.554
 8881W        W77354  25.069   3.316   1.807
 8882W        W77355   9.867  11.830  11.079
 8883W        W77356  17.754  38.379  11.024
 8884W        W77357   9.853  10.635  11.098
 8885W        W77358   6.346  20.266   0.884
 8886W        W77359  12.282  12.714  11.104
 8887W        W77360  35.972   8.707  12.388
 8888W        W77361  41.032   6.189   2.338
 8889W        W77362   4.914  41.305   0.457
 8890W        W77363  25.060  36.954   2.401
 8891W        W77364  30.094  43.367   3.673
 8892W        W77365  10.812  35.556  12.398
 8893W        W77366  30.049  18.252  14.286
 8894W        W77367  29.494  20.072   1.717
 8895W        W77368  28.160  28.035   0.317
 8896W        W77369  16.318   6.860   2.344
 8897W        W77370  12.191  33.985  12.508
 8898W        W77371  20.737   9.682   4.272
 8899W        W77372  19.699  20.149  13.333
 8900W        W77373   5.400   5.320   3.851
 8901W        W77374  41.843  12.342  12.459
 8902W        W77375  37.990   8.222  14.944
 8903W        W77376  30.494  22.085  13.834
 8904W        W77377  40.339  14.145   0.833
 8905W        W77378  30.132   7.793   1.786
 8906W        W77379  33.884   4.732   2.700
 8907W        W77380  34.077   4.312  13.522
 8908W        W77381  21.536  15.314   1.931
 8909W        W77382   0.376  40.983  11.009
 8910W        W77383  41.926  42.970  13.893
 8911W        W77384   3.787  19.696  13.384
 8912W        W77385  17.631  16.182  11.473
 8913W        W77386  26.010   2.343  12.528
 8914W        W77387  35.491   8.260  11.573
 8915W        W77388  22.672  23.659  11.395
 8916W        W77389  19.619  28.548   0.880
 8917W        W77390  10.761  44.478  10.502
 8918W        W77391   6.843  39.916  14.896
 8919W        W77392  35.371  13.611  12.071
 8920W        W77393  37.877  19.729   3.850
 8921W        W77394  40.480  27.158  11.564
 8922W        W77395  31.965  11.770   1.308
 8923W        W77396  32.398   2.375  10.921
 8924W        W77397   8.697  15.693  11.072
 8925W        W77398  21.576  12.615  12.010
 8926W        W77399  35.367  20.679  12.348
 8927W        W77400  39.830  29.970   0.297
 8928W        W77401  15.191   7.252  14.863
 8929W        W77402  24.072  14.730   9.952
 8930W        W77403   0.493   4.929   1.448
 8931W        W77404  44.853  32.952   3.335
 8932W        W77405   3.257   0.766   2.721
 8933W        W77406   5.722  13.783  10.107
 8934W        W77407  19.749  42.957  10.497
 8935W        W77408  23.577  15.284   2.336
 8936W        W77409   4.356  38.068  13.871
 8937W        W77410  25.636  41.983   4.332
 8938W        W77411  25.676  15.686   0.323
 8939W        W77412   3.215  16.617   3.264
 8940W        W77413  30.591  28.105   4.139
 8941W        W77414   6.757  25.068   3.633
 8942W        W77415  40.303  24.515   1.232
 8943W        W77416   7.707  44.966  12.009
 8944W        W77417   7.219   5.752  13.348
 8945W        W77418   2.838   3.922  12.388
 8946W        W77419  21.581  20.033  10.472
 8947W        W77420   5.210  11.272   3.792
 8948W        W77421  31.492  44.802  14.956
 8949W        W77422  38.328   3.258   2.419
 8950W        W77423  29.083  23.171  11.526
 8951W        W77424  42.443  16.165  11.419
 8952W        W77425   0.855  36.523  13.887
 8953W        W77426  23.125  36.363   2.818
 8954W        W77427  42.325   5.794  13.836
 8955W        W77428  32.627  42.885  14.458
 8956W        W77429  18.786  37.860   4.615
 8957W        W77430  42.414  24.030  12.491
 8958W        W77431  24.121  22.526   5.212
 8959W        W77432   7.231  34.866  10.985
 8960W        W77433  32.110  18.268   4.132
 8961W        W77434  37.534  16.613  11.465
 8962W        W77435  17.563   4.742  14.376
 8963W        W77436  15.665  10.658   1.722
 8964W        W77437  30.986  42.420  14.356
 8965W        W77438   3.420  17.752   1.406
 8966W        W77439  26.187  41.826   1.706
 8967W        W77440   6.801  31.631   4.611
 8968W        W77441  31.975  25.057  12.547
 8969W        W77442  32.562  41.332  10.477
 8970W        W77443  17.140  34.890   2.334
 8971W        W77444  16.205  10.184  11.084
 8972W        W77445  38.008   0.297  13.013
 8973W        W77446  19.749  44.862   3.370
 8974W        W77447  34.537  38.017  13.343
 8975W        W77448  42.849   2.822   3.661
 8976W        W77449  43.450   3.731   4.255
 8977W        W77450  13.748  17.262   4.222
 8978W        W77451  34.918  39.926   3.755
 8979W        W77452   8.307  25.515   4.263
 8980W        W77453  29.613  31.044  14.389
 8981W        W77454  38.356  28.170   3.678
 8982W        W77455   1.267  22.530   4.140
 8983W        W77456   3.416  33.529  11.043
 8984W        W77457  17.101  30.153   0.876
 8985W        W77458  32.970  39.465   4.228
 8986W        W77459  15.761  31.481  13.433
 8987W        W77460  36.452  40.345   5.177
 8988W        W77461  35.065  17.071   3.819
 8989W        W77462  36.913   1.392  12.535
 8990W        W77463  15.177   0.961   0.454
 8991W        W77464  37.070  37.081  13.804
 8992W        W77465  14.203  14.142   4.646
 8993W        W77466  20.088   6.766  12.485
 8994W        W77467  23.134   5.225  12.947
 8995W        W77468  31.044  39.938  10.491
 8996W        W77469   0.880  12.802  13.935
 8997W        W77470   9.644  24.599  12.507
 8998W        W77471  42.848  38.918   0.470
 8999W        W77472  31.060   8.315  12.530
 9000W        W77473  29.652  16.182   1.880
 9001W        W77474  43.934  40.486   3.224
 9002W        W77475  27.668   5.816  11.971
 9003W        W77476  19.090   6.291  11.058
 9004W        W77477   6.705  22.143  13.953
 9005W        W77478  30.492   0.822  11.505
 9006W        W77479  30.476  43.975   5.763
 9007W        W77480  30.582  16.712  13.460
 9008W        W77481  16.685  44.384   0.337
 9009W        W77482  24.658   6.824  12.077
 9010W        W77483  39.960  13.340   2.788
 9011W        W77484   6.262  43.930  14.794
 9012W        W77485  24.156  10.247   4.124
 9013W        W77486  38.010  40.003  14.475
 9014W        W77487   8.349  22.568   0.346
 9015W        W77488   2.875  19.582   3.666
 9016W        W77489  41.007   5.917   2.671
 9017W        W77490  29.593  18.577  10.913
 9018W        W77491  12.202   6.849  14.370
 9019W        W77492  31.070  18.097   1.435
 9020W        W77493  27.512  11.630   4.283
 9021W        W77494  25.562  34.024   2.832
 9022W        W77495   7.709   5.725  11.445
 9023W        W77496  28.049   4.815  12.914
 9024W        W77497  32.477  13.106  10.488
 9025W        W77498  44.868  26.959   1.883
 9026W        W77499  29.529  36.469  13.416
 9027W        W77500  22.139  33.878  12.477
 9028W        W77501  29.111  43.832   3.695
 9029W        W77502  31.492  43.928  10.887
 9030W        W77503  17.705  19.101  14.765
 9031W        W77504   1.367  26.158  13.837
 9032W        W77505  37.906  40.395  12.355
 9033W        W77506  41.904  14.248   3.167
 9034W        W77507  28.973  26.460   0.795
 9035W        W77508   3.365  43.309  10.579
 9036W        W77509  39.004  38.442   4.723
 9037W        W77510  34.387   9.833  12.353
 9038W        W77511   9.260  33.917   4.823
 9039W        W77512  39.012   1.346  11.910
 9040W        W77513  35.970  39.519  11.448
 9041W        W77514  28.184  27.589   4.766
 9042W        W77515   6.872   0.361  11.462
 9043W        W77516  31.954   4.261   0.484
 9044W        W77517  22.044  36.358   1.317
 9045W        W77518   8.397   4.237   0.477
 9046W        W77519   4.216  32.583  13.795
 9047W        W77520  38.423  16.802  14.368
 9048W        W77521  11.850   8.274  14.298
 9049W        W77522  20.645  37.372   3.298
 9050W        W77523  30.453  25.549  14.509
 9051W        W77524  41.340   4.879  11.546
 9052W        W77525  33.455  22.581   3.638
 9053W        W77526  12.172   3.386  11.585
 9054W        W77527   6.900  10.355   4.819
 9055W        W77528   3.448  30.158   0.813
 9056W        W77529   1.947   9.770   3.844
 9057W        W77530  28.579  44.280  11.072
 9058W        W77531  39.338  38.859  14.308
 9059W        W77532  25.104  26.986   0.888
 9060W        W77533  14.250  20.523  14.300
 9061W        W77534  14.144  30.572   0.445
 9062W        W77535  40.984  15.768  14.760
 9063W        W77536  10.339  33.414  11.922
 9064W        W77537  14.336  26.086  14.960
 9065W        W77538  24.554  43.944   5.703
 9066W        W77539  36.375   4.325   0.849
 9067W        W77540  15.768   2.914   0.445
 9068W        W77541   3.807   1.906   4.226
 9069W        W77542   7.715  36.037   4.268
 9070W        W77543  40.951   7.846  12.365
 9071W        W77544  33.528  23.241   4.296
 9072W        W77545  34.015  13.765   3.361
 9073W        W77546   7.871  36.955  10.509
 9074W        W77547  18.711  43.515  14.016
 9075W        W77548  26.631   2.811   1.697
 9076W        W77549  39.892   7.200   0.399
 9077W        W77550  35.425   8.671  14.323
 9078W        W77551  29.081   1.409   2.846
 9079W        W77552  23.092  12.850   0.894
 9080W        W77553  28.185   6.427  12.947
 9081W        W77554  17.597  24.195  12.930
 9082W        W77555  43.901  14.185   0.266
 9083W        W77556  32.898  39.017  13.881
 9084W        W77557  14.676  23.097   4.200
 9085W        W77558  20.554  41.032  11.446
 9086W        W77559   9.757   0.971  13.502
 9087W        W77560   3.233  14.311   3.659
 9088W        W77561   7.227  21.544   3.721
 9089W        W77562  38.371  42.392   4.736
 9090W        W77563  15.091  29.156   4.601
 9091W        W77564  36.424  20.212   1.336
 9092W        W77565   0.448  39.018   3.206
 9093W        W77566  20.076  31.596   0.860
 9094W        W77567  37.052  44.444   0.820
 9095W        W77568  12.795  37.406   5.274
 9096W        W77569  42.873  13.602   4.622
 9097W        W77570  30.511  41.479   3.253
 9098W        W77571  23.722   7.780   0.772
 9099W        W77572  43.764   3.278   1.846
 9100W        W77573  35.371  22.512  11.968
 9101W        W77574  24.610  15.718   3.242
 9102W        W77575  37.558  12.259  12.878
 9103W        W77576  31.134  21.228   3.818
 9104W        W77577  41.485  20.034  10.931
 9105W        W77578  13.180  41.956   2.244
 9106W        W77579  39.366  37.990   4.771
 9107W        W77580  35.506  37.466  10.086
 9108W        W77581   2.233  14.823  12.838
 9109W        W77582  14.200  35.532   1.280
 9110W        W77583  30.483  24.170  12.575
 9111W        W77584  22.545   5.898  11.403
 9112W        W77585  30.524  20.687  10.472
 9113W        W77586  40.323  12.684   0.373
 9114W        W77587  42.468  34.469  12.360
 9115W        W77588  35.917  12.191   1.447
 9116W        W77589  32.421  41.845   5.595
 9117W        W77590  42.950  24.563  11.558
 9118W        W77591  30.101  28.450   2.843
 9119W        W77592  24.594  26.626  10.474
 9120W        W77593   3.412  10.647   0.413
 9121W        W77594  41.392  35.095   0.282
 9122W        W77595  44.383  21.644  13.484
 9123W        W77596  33.044  22.624  12.514
 9124W        W77597  21.623  34.103   2.259
 9125W        W77598   5.898   9.817   3.168
 9126W        W77599   3.798   7.821  14.808
 9127W        W77600  19.050  30.492   2.397
 9128W        W77601  40.427  16.108  14.944
 9129W        W77602   0.868   3.216  14.000
 9130W        W77603  38.858   9.674  13.547
 9131W        W77604  35.903  19.225  13.505
 9132W        W77605  13.761  37.344   3.385
 9133W        W77606   2.932  37.508  12.823
 9134W        W77607  37.961  17.149  13.831
 9135W        W77608   1.949  26.011   3.687
 9136W        W77609  23.533  39.986  14.500
 9137W        W77610  22.174  44.378  13.878
 9138W        W77611  21.188  28.025   1.257
 9139W        W77612  38.973  14.729  11.935
 9140W        W77613  11.865  41.925   1.926
 9141W        W77614  41.421  38.500  13.003
 9142W        W77615  28.009  36.871   1.858
 9143W        W77616  19.765  43.346   4.254
 9144W        W77617  36.015  13.161  11.106
 9145W        W77618  26.458  36.857   2.821
 9146W        W77619  32.516  18.652  13.922
 9147W        W77620   9.705   5.323   2.844
 9148W        W77621  31.000   5.394   0.890
 9149W        W77622   4.367  32.985  12.517
 9150W        W77623  34.996  27.996  14.768
 9151W        W77624  42.877  39.922   0.272
 9152W        W77625  43.842  26.557  14.962
 9153W        W77626   9.768   3.952  14.426
 9154W        W77627  38.828  11.342   3.209
 9155W        W77628  18.773  18.236  14.281
 9156W        W77629  34.976  36.359   3.357
 9157W        W77630   1.819  30.981   0.867
 9158W        W77631  12.255  16.736  12.461
 9159W        W77632  40.838  17.195  12.969
 9160W        W77633   3.926   6.827   1.326
 9161W        W77634  19.114  21.178   1.727
 9162W        W77635  11.800   0.293   0.787
 9163W        W77636   9.225  16.081   1.781
 9164W        W77637   9.215  36.035   9.610
 9165W        W77638  12.758  33.546  14.831
 9166W        W77639  21.062  38.902  10.623
 9167W        W77640  11.359  21.670  13.540
 9168W        W77641  27.066  40.348  13.449
 9169W        W77642  35.007   1.814  14.909
 9170W        W77643   4.839  27.633  11.415
 9171W        W77644  31.129  24.192   1.417
 9172W        W77645  11.328  16.659   2.184
 9173W        W77646  24.171  19.632   9.924
 9174W        W77647  10.246  40.479   0.880
 9175W        W77648   6.753  23.156  12.967
 9176W        W77649  24.499  19.280  11.580
 9177W        W77650  28.945  38.020  12.467
 9178W        W77651  39.878  43.883  13.046
 9179W        W77652  37.884  19.094   1.885
 9180W        W77653  33.451  29.490  10.496
 9181W        W77654  42.797  22.038  14.782
 9182W        W77655  19.698   8.721   3.197
 9183W        W77656  38.973   4.339   2.889
 9184W        W77657  30.016  24.634   4.250
 9185W        W77658  25.145  42.456   3.654
 9186W        W77659  29.989  13.278  14.972
 9187W        W77660  10.251  44.844   1.797
 9188W        W77661  28.162  41.848   1.352
 9189W        W77662  20.747  42.472   2.881
 9190W        W77663  17.228  20.128  13.320
 9191W        W77664  22.503  36.078   4.667
 9192W        W77665  32.078   4.370  11.399
 9193W        W77666   8.303  23.100  14.348
 9194W        W77667   9.246  30.020   0.865
 9195W        W77668   0.418  10.279   5.260
 9196W        W77669   3.805  15.649   0.917
 9197W        W77670   1.849  27.644  11.942
 9198W        W77671  15.210   3.740   0.967
 9199W        W77672  27.985  34.086   0.466
 9200W        W77673  32.891  44.407   1.735
 9201W        W77674  32.458  26.476  14.492
 9202W        W77675  23.031  36.978  11.028
 9203W        W77676  19.094  24.992   0.931
 9204W        W77677  39.473  12.746  14.403
 9205W        W77678   7.718  14.226   4.240
 9206W        W77679  31.529  28.983   4.684
 9207W        W77680  24.665   4.862  11.962
 9208W        W77681  22.639  39.814   2.332
 9209W        W77682  31.973  23.073   4.701
 9210W        W77683   8.731  44.837   2.866
 9211W        W77684  32.545  43.006   4.602
 9212W        W77685  22.117  19.194   1.798
 9213W        W77686   3.908   7.772   3.812
 9214W        W77687   3.826  34.983   3.770
 9215W        W77688  23.190   1.872   4.660
 9216W        W77689  42.519  33.025  14.807
 9217W        W77690  23.650   5.713  11.539
 9218W        W77691   0.472  22.199   0.944
 9219W        W77692  36.455  44.832  12.935
 9220W        W77693  36.463  32.573  10.567
 9221W        W77694   4.766   1.301   1.809
 9222W        W77695   7.903  31.564  11.102
 9223W        W77696   3.714  30.921  13.843
 9224W        W77697  38.828  13.311   4.774
 9225W        W77698  11.371  30.155   2.384
 9226W        W77699  29.165  35.491   1.733
 9227W        W77700  37.528  36.509  12.956
 9228W        W77701  32.449  13.602  11.400
 9229W        W77702  24.594  20.240  12.054
 9230W        W77703   9.173  26.122   4.641
 9231W        W77704   4.852  39.545  12.562
 9232W        W77705  39.320  32.935   0.481
 9233W        W77706  37.000  40.831  13.907
 9234W        W77707  11.790  20.202  12.886
 9235W        W77708  37.873  42.815  14.305
 9236W        W77709   4.798   4.417  10.531
 9237W        W77710  24.705   2.306  13.903
 9238W        W77711  43.356   8.247  11.440
 9239W        W77712  16.813  27.659  12.937
 9240W        W77713   6.851  29.055   1.922
 9241W        W77714  32.929   1.287  10.442
 9242W        W77715  30.559  35.076   3.379
 9243W        W77716   3.271  43.312  14.473
 9244W        W77717  24.717   0.428   4.264
 9245W        W77718  15.690  37.337  11.413
 9246W        W77719  23.513  15.209   3.259
 9247W        W77720  41.317  29.967   0.811
 9248W        W77721   6.777  24.620  12.385
 9249W        W77722  29.069  20.212  11.426
 9250W        W77723  36.505   0.325   3.229
 9251W        W77724   0.341  27.672  14.880
 9252W        W77725  40.381   0.421   1.353
 9253W        W77726  32.088  31.067   3.776
 9254W        W77727  26.590   3.228   0.399
 9255W        W77728  19.579  43.358  14.807
 9256W        W77729  40.375  14.208  11.473
 9257W        W77730  16.183  14.622  12.371
 9258W        W77731  39.883  14.656   4.204
 9259W        W77732  27.080   2.390   1.854
 9260W        W77733  29.489   2.887  13.425
 9261W        W77734   2.939  10.747  12.894
 9262W        W77735  22.589  12.241  13.333
 9263W        W77736  37.388  26.591   0.934
 9264W        W77737   2.412  13.633  11.856
 9265W        W77738  40.435   5.302   1.713
 9266W        W77739  15.711  31.639  11.031
 9267W        W77740  10.719  38.426  11.118
 9268W        W77741  44.481   2.755   4.812
 9269W        W77742  42.292  38.896   1.910
 9270W        W77743  10.686  31.938   4.350
 9271W        W77744  15.090   7.894  13.498
 9272W        W77745   7.345  34.481   2.229
 9273W        W77746  30.564  18.093   3.291
 9274W        W77747   2.739  26.039  14.908
 9275W        W77748   0.904   0.844   3.677
 9276W        W77749   1.880  34.869   3.836
 9277W        W77750  33.525  17.245   2.272
 9278W        W77751  17.796  42.509   4.786
 9279W        W77752  28.979  26.609   3.699
 9280W        W77753  22.661  14.236  14.918
 9281W        W77754   0.811  15.769  14.940
 9282W        W77755  12.708   1.349  13.999
 9283W        W77756  21.023  38.017  11.375
 9284W        W77757  19.570   6.299  14.897
 9285W        W77758  33.400  39.837   0.883
 9286W        W77759   9.204  27.620  11.597
 9287W        W77760  21.734  41.479  13.537
 9288W        W77761  13.652  16.582   4.652
 9289W        W77762   1.468   5.374  13.053
 9290W        W77763  17.760  27.103   3.723
 9291W        W77764  22.067  32.590   1.368
 9292W        W77765   2.953  26.991  11.412
 9293W        W77766   0.322  34.452  12.930
 9294W        W77767   8.748   2.851   2.345
 9295W        W77768  10.158  18.278   1.699
 9296W        W77769   2.723   7.323   4.340
 9297W        W77770   6.422  31.423   2.833
 9298W        W77771  18.640  18.237  11.954
 9299W        W77772   4.322  28.006   4.795
 9300W        W77773  27.607  21.590   4.263
 9301W        W77774  37.544   6.410  10.529
 9302W        W77775  27.952  43.831   3.277
 9303W        W77776  39.349  37.041   0.946
 9304W        W77777  31.581  38.875   4.343
 9305W        W77778  30.569  28.171  14.304
 9306W        W77779  30.123  33.435   3.289
 9307W        W77780  15.705  32.530  14.781
 9308W        W77781   9.881   2.422   3.764
 9309W        W77782  24.140  30.031  14.443
 9310W        W77783  24.993  30.956   1.386
 9311W        W77784  44.403   6.422   4.302
 9312W        W77785  17.258  22.130   3.340
 9313W        W77786  37.086  41.904   4.262
 9314W        W77787  18.127  28.544   1.420
 9315W        W77788   0.336  20.193   2.705
 9316W        W77789   8.670  36.498   4.132
 9317W        W77790  28.136  37.072   5.217
 9318W        W77791  17.296   0.362   3.861
 9319W        W77792  31.502  12.167  10.602
 9320W        W77793  43.447   1.875   5.111
 9321W        W77794  16.657   1.347   3.771
 9322W        W77795  13.802   7.399  11.129
 9323W        W77796  22.551  41.824   4.638
 9324W        W77797  27.172  30.957  14.460
 9325W        W77798  36.846  25.133  11.424
 9326W        W77799  38.969  18.156   2.225
 9327W        W77800  44.318   2.897  11.512
 9328W        W77801  22.051   8.678  12.426
 9329W        W77802  44.835   8.332  13.444
 9330W        W77803  19.554  32.626   4.142
 9331W        W77804  23.558  25.017  14.782
 9332W        W77805  37.023  11.233   3.201
 9333W        W77806  17.223   3.876   4.347
 9334W        W77807  28.517  27.049   2.236
 9335W        W77808  39.510  21.593  14.993
 9336W        W77809  37.409  18.072  10.637
 9337W        W77810  39.065  33.442  10.541
 9338W        W77811  25.514  10.279  13.024
 9339W        W77812  35.528  21.057  14.385
 9340W        W77813  14.225   5.421  11.077
 9341W        W77814  16.084  40.028   5.097
 9342W        W77815  11.808  30.507   2.326
 9343W        W77816  35.437  14.183  14.914
 9344W        W77817  42.990  17.625  14.812
 9345W        W77818  37.040  30.634  14.826
 9346W        W77819   2.286  20.685   2.855
 9347W        W77820  36.078  14.757  11.459
 9348W        W77821  17.207  31.459  10.505
 9349W        W77822  28.975  39.000   2.335
 9350W        W77823  33.102   3.787  11.414
 9351W        W77824  33.400  14.813   3.653
 9352W        W77825  12.322  37.052   0.278
 9353W        W77826  37.457   5.264   1.724
 9354W        W77827  18.747   8.871   0.259
 9355W        W77828  13.281  34.379   3.845
 9356W        W77829  15.154  13.835  12.016
 9357W        W77830  38.061  43.512  13.323
 9358W        W77831   7.356   0.392  14.904
 9359W        W77832  38.465   3.304   2.862
 9360W        W77833  38.072  23.513  13.050
 9361W        W77834  14.832  22.158   1.866
 9362W        W77835  15.227  23.656  10.562
 9363W        W77836   0.751   3.253   1.332
 9364W        W77837  26.199  33.124  11.864
 9365W        W77838   6.253  15.674  13.459
 9366W        W77839  39.891   9.188   4.220
 9367W        W77840  20.598  25.574  10.479
 9368W        W77841  40.870  15.137   3.700
 9369W        W77842  17.734  39.348   2.352
 9370W        W77843  18.153  39.984  12.358
 9371W        W77844   5.255  33.422  13.412
 9372W        W77845  42.817   0.453   0.925
 9373W        W77846   6.250   9.854   2.782
 9374W        W77847   8.851  37.840   3.652
 9375W        W77848   4.908   6.330  10.938
 9376W        W77849  21.021   5.822  12.898
 9377W        W77850  29.426  26.509  12.923
 9378W        W77851  26.977  17.217  11.422
 9379W        W77852  30.428  34.086  14.927
 9380W        W77853  12.731  32.989   4.670
 9381W        W77854  37.905  20.556   3.281
 9382W        W77855  18.568   6.305  12.012
 9383W        W77856  10.768  27.092   3.826
 9384W        W77857  44.844  39.548  12.491
 9385W        W77858  36.906  18.151   2.393
 9386W        W77859  41.893   4.709  13.987
 9387W        W77860   6.814   3.325   0.904
 9388W        W77861  37.837  37.460   4.217
 9389W        W77862  36.003   6.296  14.500
 9390W        W77863  32.910  34.904  14.031
 9391W        W77864  34.888   3.358   4.122
 9392W        W77865  38.506  11.741  11.073
 9393W        W77866  39.947   9.662   0.806
 9394W        W77867  23.062  23.677  12.966
 9395W        W77868  19.103  44.273  11.949
 9396W        W77869  30.112  20.634   1.810
 9397W        W77870   0.314  19.178  14.453
 9398W        W77871  13.703  28.990  14.327
 9399W        W77872  32.054  36.983   4.619
 9400W        W77873  29.089  37.919   0.906
 9401W        W77874   0.275  25.569   4.147
 9402W        W77875  30.414   5.885  13.045
 9403W        W77876  16.614   5.289  11.036
 9404W        W77877  29.133   9.166   3.378
 9405W        W77878  20.748  19.642   1.740
 9406W        W77879  17.681  25.639  11.029
 9407W        W77880  22.230  38.453  11.873
 9408W        W77881  25.140  23.045   1.752
 9409W        W77882  35.906   0.353  10.925
 9410W        W77883  41.839  27.961   0.788
 9411W        W77884  33.618  39.852   2.223
 9412W        W77885   4.733  19.139  11.098
 9413W        W77886  29.077  43.510   4.119
 9414W        W77887  39.499  44.772  14.506
 9415W        W77888  18.157  26.064   1.852
 9416W        W77889  21.226  30.516  10.096
 9417W        W77890  29.517  23.598  14.338
 9418W        W77891  43.830   6.749   1.233
 9419W        W77892  42.009   1.913   1.760
 9420W        W77893  22.129  23.014   3.804
 9421W        W77894   9.675  14.211  11.503
 9422W        W77895  16.163  40.438   2.679
 9423W        W77896  12.826  28.061  10.995
 9424W        W77897  43.330   5.408  14.786
 9425W        W77898  14.202  13.608   2.350
 9426W        W77899  42.939   2.869  12.434
 9427W        W77900  44.496   1.471  10.944
 9428W        W77901  10.850  12.810   4.616
 9429W        W77902  12.806  11.858  13.508
 9430W        W77903  15.743  30.591   1.357
 9431W        W77904  11.631   7.818  11.558
 9432W        W77905  14.712  40.965  14.861
 9433W        W77906  25.017  27.663   1.364
 9434W        W77907  38.820  25.574   4.798
 9435W        W77908  11.174   5.206  12.371
 9436W        W77909  38.070  30.416   4.638
 9437W        W77910  33.481  26.671  13.042
 9438W        W77911  23.635  27.155  14.763
 9439W        W77912  28.523  11.847   0.387
 9440W        W77913  25.642  28.036   4.724
 9441W        W77914  26.056  40.958  12.415
 9442W        W77915  24.123   2.344  10.567
 9443W        W77916  16.261  14.652  12.826
 9444W        W77917  18.606   3.278  11.517
 9445W        W77918   9.735  21.611  12.856
 9446W        W77919  27.101   9.182   0.764
 9447W        W77920  31.632  10.697  13.425
 9448W        W77921   5.433   9.234   2.714
 9449W        W77922   6.344  28.439   3.734
 9450W        W77923  21.253   3.305  11.903
 9451W        W77924  14.099  17.610  13.539
 9452W        W77925  43.787  33.457   3.178
 9453W        W77926  11.732   9.773   2.738
 9454W        W77927  12.712  42.012   4.162
 9455W        W77928  33.109   6.797   0.924
 9456W        W77929  39.359  44.501   3.220
 9457W        W77930   2.226  18.079   4.216
 9458W        W77931  36.396  18.267   0.948
 9459W        W77932  31.592  19.726  14.455
 9460W        W77933   2.841  40.921   4.311
 9461W        W77934  32.915  16.084  10.463
 9462W        W77935  13.684  12.214  14.349
 9463W        W77936  17.618  25.185   5.301
 9464W        W77937  42.858  43.984  11.557
 9465W        W77938   1.826  41.042   1.381
 9466W        W77939   4.264  29.035   4.239
 9467W        W77940  11.627  41.372   4.154
 9468W        W77941  18.094  42.427  13.328
 9469W        W77942  43.425  41.395  11.583
 9470W        W77943  20.171  14.305   4.834
 9471W        W77944  12.772  27.553  10.950
 9472W        W77945  16.647  20.212   4.767
 9473W        W77946   6.831  16.225  11.878
 9474W        W77947   7.735  35.922   4.819
 9475W        W77948  42.988  37.425   5.146
 9476W        W77949  22.048  32.892  12.094
 9477W        W77950  15.326   2.263   4.214
 9478W        W77951  13.711  35.472  10.497
 9479W        W77952  16.639   2.765  11.566
 9480W        W77953   3.835  34.917   0.818
 9481W        W77954   5.906  29.967   2.224
 9482W        W77955  31.043  36.900   0.362
 9483W        W77956  39.511  24.570  13.809
 9484W        W77957  38.936   7.788   4.312
 9485W        W77958  13.649  24.578  14.480
 9486W        W77959  12.748  23.712  12.042
 9487W        W77960   7.330  32.609   4.767
 9488W        W77961   5.909  30.493  13.427
 9489W        W77962  24.658  36.995  10.991
 9490W        W77963   5.315  32.947  13.374
 9491W        W77964  23.735  17.094   3.171
 9492W        W77965  16.318   4.305   1.316
 9493W        W77966   9.669  34.434   0.728
 9494W        W77967   8.897  21.186   4.809
 9495W        W77968  33.494  22.572  13.423
 9496W        W77969  32.943   6.262  10.974
 9497W        W77970   0.808  14.806   4.225
 9498W        W77971  33.555  13.201  11.936
 9499W        W77972  34.085  31.994  11.066
 9500W        W77973  18.099  30.450  13.539
 9501W        W77974  19.684   3.244   2.878
 9502W        W77975  20.039  33.082  10.620
 9503W        W77976  27.614  32.962  13.442
 9504W        W77977   6.281  26.955  13.834
 9505W        W77978  24.522  24.544  10.467
 9506W        W77979  32.455  43.464  12.477
 9507W        W77980  37.903  22.612  14.896
 9508W        W77981  20.074  29.497  14.344
 9509W        W77982  15.588  22.543   4.820
 9510W        W77983  41.372   1.943   3.823
 9511W        W77984  34.878  18.779   0.957
 9512W        W77985  17.117  38.527   9.976
 9513W        W77986  32.049  33.966   1.935
 9514W        W77987   8.282  36.927  11.120
 9515W        W77988   9.841   3.809   1.391
 9516W        W77989  35.102  26.652   3.814
 9517W        W77990  34.087  23.135   3.156
 9518W        W77991  12.799  40.888  13.848
 9519W        W77992  35.087  34.466   4.611
 9520W        W77993   1.253   8.232  11.380
 9521W        W77994  26.954  36.975   2.809
 9522W        W77995  26.646  35.522   1.707
 9523W        W77996  22.572  35.372  12.350
 9524W        W77997  25.019   0.319   9.962
 9525W        W77998   4.725  13.631   3.715
 9526W        W77999  31.452  17.286   1.715
 9527W        W78000   4.242  43.316   0.789
 9528W        W78001  28.667   6.852  10.583
 9529W        W78002  33.593  38.490   0.309
 9530W        W78003  41.536  36.514  13.500
 9531W        W78004   9.265  38.569   2.370
 9532W        W78005  40.404   2.836  12.922
 9533W        W78006   1.444  33.496  13.387
 9534W        W78007   9.343  11.833  13.545
 9535W        W78008  42.943  43.361   3.230
 9536W        W78009  22.175   8.710   2.890
 9537W        W78010  27.962  14.753  13.973
 9538W        W78011  20.045  44.347  13.918
 9539W        W78012   5.781  33.581   1.909
 9540W        W78013   0.303  13.620  11.462
 9541W        W78014  42.894   3.912   2.341
 9542W        W78015   9.814  36.399  11.911
 9543W        W78016  41.336  31.022   2.191
 9544W        W78017  28.093  14.199   2.236
 9545W        W78018   7.888  20.687  13.361
 9546W        W78019  22.654  18.762   1.934
 9547W        W78020  38.379  20.211   1.407
 9548W        W78021  23.067  14.203   4.255
 9549W        W78022  30.017   3.259   0.949
 9550W        W78023   6.234  11.248  13.322
 9551W        W78024   9.227  32.942  12.929
 9552W        W78025  11.749  30.012  11.858
 9553W        W78026   3.824  15.766   3.655
 9554W        W78027   4.789   0.809   1.861
 9555W        W78028  31.968  19.050  13.490
 9556W        W78029  24.170   5.808  11.050
 9557W        W78030  30.510  44.974   1.428
 9558W        W78031  17.121  41.901  10.582
 9559W        W78032  31.578  42.928   5.269
 9560W        W78033  16.077  12.192   4.745
 9561W        W78034   9.213   3.782  11.062
 9562W        W78035  43.469  27.622  11.117
 9563W        W78036  24.516  40.347   2.266
 9564W        W78037  37.017   9.382  13.468
 9565W        W78038   9.863  34.537  10.033
 9566W        W78039  32.423  25.676   1.928
 9567W        W78040   1.804  29.517  13.448
 9568W        W78041  32.436  23.131   5.251
 9569W        W78042   8.302  20.071   0.475
 9570W        W78043  29.622   4.283  12.076
 9571W        W78044  11.715  31.078  13.399
 9572W        W78045  38.889  11.769  11.588
 9573W        W78046  17.196   9.295  11.072
 9574W        W78047  26.655  43.944   2.237
 9575W        W78048  10.828   2.376  13.982
 9576W        W78049  21.707  16.192   1.722
 9577W        W78050  24.513   1.781  13.445
 9578W        W78051  35.541   5.332   4.685
 9579W        W78052   6.288  39.036  12.548
 9580W        W78053  22.660  40.358   2.240
 9581W        W78054  24.205   5.293   2.333
 9582W        W78055   9.176  12.695   0.385
 9583W        W78056  43.965  14.791  13.003
 9584W        W78057  27.035  44.497  13.010
 9585W        W78058  12.123  12.646   3.178
 9586W        W78059  30.138  27.174   3.227
 9587W        W78060  38.905  38.911  14.792
 9588W        W78061  40.528  26.562   5.222
 9589W        W78062  18.712   6.889  11.408
 9590W        W78063  16.112  34.515   0.401
 9591W        W78064  42.869  42.788  12.376
 9592W        W78065   6.307  11.848   1.836
 9593W        W78066  38.032  31.094   4.679
 9594W        W78067  29.936   2.916   4.659
 9595W        W78068   1.941  21.245   5.129
 9596W        W78069  29.006  36.075  10.978
 9597W        W78070  17.578  21.061  14.949
 9598W        W78071   5.426  22.630   0.295
 9599W        W78072  20.240  40.808   1.870
 9600W        W78073  29.124  30.992  12.546
 9601W        W78074   9.208  28.101   3.189
 9602W        W78075  27.452   9.165   2.360
 9603W        W78076  30.564  44.380   1.856
 9604W        W78077  37.857  40.028   4.278
 9605W        W78078   1.309   4.931   3.846
 9606W        W78079  37.022  38.558  10.447
 9607W        W78080   0.404   1.964  12.532
 9608W        W78081  17.252  38.841   2.852
 9609W        W78082  30.962   6.699  13.864
 9610W        W78083  36.000  36.382  11.101
 9611W        W78084   3.740  20.745   4.751
 9612W        W78085  35.460  43.986   0.375
 9613W        W78086  11.860  14.761  10.942
 9614W        W78087   6.426  21.181  14.017
 9615W        W78088   8.850  42.510   1.791
 9616W        W78089  42.900  18.673  13.061
 9617W        W78090  35.388  39.059   0.397
 9618W        W78091  42.921  34.605   0.752
 9619W        W78092  31.561  12.834  12.975
 9620W        W78093  28.093  32.108  14.359
 9621W        W78094  15.802  35.496  12.832
 9622W        W78095  10.761  43.309  10.910
 9623W        W78096   9.689  34.005   0.814
 9624W        W78097  12.175  37.902  14.854
 9625W        W78098  31.453  42.778   1.447
 9626W        W78099  33.609   7.665   5.156
 9627W        W78100  24.665  29.510   1.745
 9628W        W78101  42.798   7.259   4.661
 9629W        W78102  40.490  29.136   1.351
 9630W        W78103  13.128  32.472   3.287
 9631W        W78104  43.333   5.426  11.890
 9632W        W78105  33.535  40.947   2.868
 9633W        W78106   0.339  20.747   3.670
 9634W        W78107  22.014  33.098  11.081
 9635W        W78108  29.142  38.367   2.398
 9636W        W78109  38.947  20.529   2.825
 9637W        W78110   2.861  18.715   2.694
 9638W        W78111  35.524  18.144   2.229
 9639W        W78112   0.471  37.575   3.810
 9640W        W78113  27.481  26.551  10.981
 9641W        W78114   8.820  20.603   1.414
 9642W        W78115  10.168   0.897   3.373
 9643W        W78116   3.409  41.487   3.147
 9644W        W78117   5.196  35.551  11.905
 9645W        W78118  37.418  29.949   0.856
 9646W        W78119  34.036  14.337  11.982
 9647W        W78120  23.044  11.254  11.015
 9648W        W78121  31.083  43.475   0.943
 9649W        W78122   1.293  37.961   0.306
 9650W        W78123  11.332  29.952  13.803
 9651W        W78124  24.013  35.888  12.410
 9652W        W78125  17.622  28.632  13.451
 9653W        W78126  21.229  24.694   3.713
 9654W        W78127  32.585  41.418   0.730
 9655W        W78128   8.777  15.629   0.335
 9656W        W78129  23.556  29.526  14.781
 9657W        W78130  33.572  26.153   3.194
 9658W        W78131  29.950  33.577  13.321
 9659W        W78132   1.826   7.175  12.522
 9660W        W78133  25.611  42.847   0.959
 9661W        W78134  17.301  30.935  12.515
 9662W        W78135  41.395   6.225   3.664
 9663W        W78136   6.720  41.310   3.642
 9664W        W78137  21.738   5.904  14.300
 9665W        W78138  11.172  20.106  10.644
 9666W        W78139  17.718  29.525  13.389
 9667W        W78140  24.496  32.631  14.031
 9668W        W78141  14.307  28.446  11.536
 9669W        W78142   5.314  34.477   0.865
 9670W        W78143   5.910   5.351  10.895
 9671W        W78144  22.219  33.527  12.024
 9672W        W78145  22.651  12.348   2.707
 9673W        W78146  31.581  22.062  13.804
 9674W        W78147  31.474  30.439   1.379
 9675W        W78148  12.629  21.247  14.337
 9676W        W78149  23.170  32.011   2.799
 9677W        W78150  14.290  41.801   1.401
 9678W        W78151  19.539  15.183  12.094
 9679W        W78152  38.483  43.485  13.502
 9680W        W78153  33.400  17.111  10.993
 9681W        W78154  36.565   5.429  13.977
 9682W        W78155  21.070  19.774   2.299
 9683W        W78156  38.999  23.548   0.824
 9684W        W78157  18.200  23.630  14.907
 9685W        W78158   2.386  18.583   5.317
 9686W        W78159  43.835   3.365  10.568
 9687W        W78160  13.741  18.086  12.058
 9688W        W78161   0.316  28.947   1.921
 9689W        W78162  25.044   5.878  11.531
 9690W        W78163  26.115  40.969  11.573
 9691W        W78164  40.031  10.666   3.296
 9692W        W78165  29.008  37.935   1.857
 9693W        W78166  24.493   5.896  10.987
 9694W        W78167   8.886  34.441  13.490
 9695W        W78168  43.358  30.629   2.217
 9696W        W78169  10.670   2.910   4.830
 9697W        W78170  35.106  16.676  12.029
 9698W        W78171  16.241   5.218   0.744
 9699W        W78172  18.292   6.905   4.346
 9700W        W78173   2.258   3.234  12.391
 9701W        W78174  35.413  40.868  11.996
 9702W        W78175  30.972   4.447   4.628
 9703W        W78176   1.388  16.313   4.309
 9704W        W78177  40.999  14.623   2.752
 9705W        W78178  29.057  24.593  13.050
 9706W        W78179  28.571  34.523   0.828
 9707W        W78180  33.408  14.777   1.326
 9708W        W78181  42.938  37.480   3.323
 9709W        W78182  31.458  36.354   3.318
 9710W        W78183  29.428   2.794  12.965
 9711W        W78184  11.867  27.514  14.806
 9712W        W78185  10.258  33.004   2.191
 9713W        W78186  43.896  33.473  12.423
 9714W        W78187  37.433   7.692   0.264
 9715W        W78188  30.137  10.319   1.425
 9716W        W78189  20.147  33.450  11.095
 9717W        W78190   3.946  14.834  12.941
 9718W        W78191  38.907  19.769  10.938
 9719W        W78192  41.917   0.269  10.463
 9720W        W78193  16.227  35.377  11.390
 9721W        W78194   4.744  44.758  10.933
 9722W        W78195  20.672  42.995   4.646
 9723W        W78196   2.300  44.888   1.712
 9724W        W78197   9.817  33.896  10.962
 9725W        W78198  34.893  25.136  12.994
 9726W        W78199   1.297   3.388  13.406
 9727W        W78200  28.447  30.909   2.178
 9728W        W78201  34.956  11.771   4.741
 9729W        W78202  39.414  16.080   3.761
 9730W        W78203  41.939   4.289  13.911
 9731W        W78204  20.170  25.644   1.438
 9732W        W78205  15.750   8.839   4.236
 9733W        W78206   5.852  13.287   5.308
 9734W        W78207  34.594   6.908  12.918
 9735W        W78208  13.286  39.833  11.552
 9736W        W78209   3.249  38.073  12.081
 9737W        W78210  23.108  43.292  12.437
 9738W        W78211  32.568  24.051  12.449
 9739W        W78212  29.048  21.262  11.396
 9740W        W78213  19.051  23.202  11.439
 9741W        W78214  42.361  20.747  10.594
 9742W        W78215   5.344  42.287  14.893
 9743W        W78216   5.771  37.004  12.497
 9744W        W78217  40.421  21.750   4.194
 9745W        W78218  19.105  18.072   1.321
 9746W        W78219  32.521  23.148   3.207
 9747W        W78220  36.935   7.236   4.704
 9748W        W78221  23.080  44.325   2.816
 9749W        W78222  16.284  26.493   3.800
 9750W        W78223   4.275   5.410   3.757
 9751W        W78224  36.861  33.050   4.161
 9752W        W78225  22.038  22.502  14.023
 9753W        W78226   0.928  18.230  10.070
 9754W        W78227  44.458  34.387  14.436
 9755W        W78228  36.385  44.300   4.639
 9756W        W78229  37.999  41.497  12.848
 9757W        W78230  13.705  20.767   1.339
 9758W        W78231  31.432   3.278   1.928
 9759W        W78232   5.301  11.736  12.484
 9760W        W78233   4.332  37.577   5.111
 9761W        W78234  39.012  21.251   5.258
 9762W        W78235  17.179   4.431  13.919
 9763W        W78236  10.194   8.888   3.649
 9764W        W78237  21.122  34.590  14.969
 9765W        W78238   6.187  25.702  14.907
 9766W        W78239   3.921  13.335  10.487
 9767W        W78240  19.571  12.143   4.718
 9768W        W78241  16.185  17.726   4.232
 9769W        W78242  27.132  39.542  14.279
 9770W        W78243  31.522  22.228   0.846
 9771W        W78244  40.878   0.953   0.268
 9772W        W78245  18.077   5.858   4.683
 9773W        W78246  10.822   6.274  14.973
 9774W        W78247  26.673  25.100   4.613
 9775W        W78248  42.883  39.502   1.723
 9776W        W78249   9.338  11.722   4.663
 9777W        W78250   2.420  38.996  14.005
 9778W        W78251  25.631  15.306  13.874
 9779W        W78252  22.122  26.993  12.922
 9780W        W78253  13.242  11.311  14.480
 9781W        W78254   6.919   5.745  14.905
 9782W        W78255  20.217  34.471  11.457
 9783W        W78256  37.912   0.457   4.779
 9784W        W78257  13.714  33.461   2.805
 9785W        W78258  24.581  27.613   1.284
 9786W        W78259  15.689  20.049   1.442
 9787W        W78260   4.362   4.307  10.997
 9788W        W78261  26.613  37.451   3.204
 9789W        W78262   5.870  19.239   2.281
 9790W        W78263  41.325  36.524   1.396
 9791W        W78264  23.604  14.619   4.311
 9792W        W78265   8.835  14.285  11.526
 9793W        W78266  44.936  42.810   1.340
 9794W        W78267  16.256  21.586  13.420
 9795W        W78268  10.366  21.735  10.910
 9796W        W78269   8.389   8.772  12.352
 9797W        W78270  35.940  22.031   3.296
 9798W        W78271  33.005  27.630  13.439
 9799W        W78272  12.853  41.529   0.880
 9800W        W78273  18.160   2.239   2.279
 9801W        W78274  44.961  18.121  10.493
 9802W        W78275  26.572  37.988   2.723
 9803W        W78276  14.160  44.479   1.721
 9804W        W78277   5.810   1.352  12.076
 9805W        W78278  12.720  15.238   2.371
 9806W        W78279  43.802  43.863  10.574
 9807W        W78280   9.834   0.769  11.922
 9808W        W78281  42.291  39.903  12.414
 9809W        W78282   7.847  44.791   1.446
 9810W        W78283   8.384  15.298   4.661
 9811W        W78284  14.654  36.883   3.277
 9812W        W78285  39.921  39.450   1.909
 9813W        W78286  12.660  40.001  13.862
 9814W        W78287  41.995  16.577  11.943
 9815W        W78288  37.362  22.602  11.492
 9816W        W78289   5.264  20.038  12.071
 9817W        W78290  41.316  19.126  10.475
 9818W        W78291  36.553  23.705   0.789
 9819W        W78292  36.353  19.249   2.735
 9820W        W78293  35.422  21.666  11.126
 9821W        W78294   9.195  39.482   1.923
 9822W        W78295  15.157  19.254   0.836
 9823W        W78296  38.886   1.957   3.287
 9824W        W78297  44.986   1.255   2.382
 9825W        W78298  15.609   2.239  11.971
 9826W        W78299  10.140  38.948   1.353
 9827W        W78300  22.533  20.074  14.849
 9828W        W78301   0.423  26.047   1.285
 9829W        W78302  24.989  41.789   1.282
 9830W        W78303  19.732  13.176  14.492
 9831W        W78304  21.548   2.337  10.956
 9832W        W78305  21.594  24.013   3.313
 9833W        W78306  29.607   6.280   4.771
 9834W        W78307  21.192  12.690  14.291
 9835W        W78308   0.805  40.359  12.887
 9836W        W78309  32.556  21.038   1.438
 9837W        W78310  11.241  42.436   4.749
 9838W        W78311  11.807  33.529   0.379
 9839W        W78312   9.661  10.228   1.351
 9840W        W78313   1.366  19.051   1.902
 9841W        W78314  35.560  26.579  13.391
 9842W        W78315  17.566  36.387   1.743
 9843W        W78316  22.640  32.904  13.021
 9844W        W78317  42.299  37.940  12.481
 9845W        W78318   3.266   0.796  10.638
 9846W        W78319   8.835  27.993  13.936
 9847W        W78320  31.910   6.901  11.418
 9848W        W78321  41.992  37.510   1.826
 9849W        W78322  36.054  20.168   4.307
 9850W        W78323  20.568  20.264   0.912
 9851W        W78324  12.847  16.080   2.691
 9852W        W78325  39.468  21.192   0.788
 9853W        W78326  38.507  32.470  12.954
 9854W        W78327   9.747  14.126  11.892
 9855W        W78328  43.818   3.794  14.941
 9856W        W78329   6.221  25.020   3.384
 9857W        W78330  11.179  38.950   4.664
 9858W        W78331   3.440  42.864   1.324
 9859W        W78332  31.132  24.545   2.692
 9860W        W78333  44.289  15.619  10.953
 9861W        W78334   6.204  42.867   1.734
 9862W        W78335  44.944  17.774   2.812
 9863W        W78336  18.213  14.263   0.924
 9864W        W78337  37.578  10.325  13.949
 9865W        W78338  40.811  27.515   1.801
 9866W        W78339  40.002  39.056   0.770
 9867W        W78340  30.996  22.560  14.856
 9868W        W78341  23.177  40.437  12.940
 9869W        W78342  11.158   8.163  11.911
 9870W        W78343  28.531  42.978   9.957
 9871W        W78344  26.533  40.446   3.691
 9872W        W78345  31.030  44.403  14.805
 9873W        W78346  41.824  42.898   3.218
 9874W        W78347  31.423  28.080   4.695
 9875W        W78348  36.435   9.766  12.050
 9876W        W78349  33.441  21.236   2.201
 9877W        W78350  20.186   3.779  13.482
 9878W        W78351  33.384  25.567  13.461
 9879W        W78352   8.406  13.667   1.864
 9880W        W78353   6.902   7.791  13.445
 9881W        W78354  11.257  23.695  11.957
 9882W        W78355   5.775  21.620   0.320
 9883W        W78356  17.194   5.295  14.000
 9884W        W78357  32.023  21.519   4.733
 9885W        W78358  24.648  23.687   4.692
 9886W        W78359  33.605  28.049   1.294
 9887W        W78360  20.619   1.832  12.070
 9888W        W78361  44.770  36.059   2.203
 9889W        W78362   4.815  27.658  12.455
 9890W        W78363  19.229  36.436   3.362
 9891W        W78364   9.363  14.094   2.240
 9892W        W78365  13.280  35.527  10.980
 9893W        W78366   9.156  25.211   0.769
 9894W        W78367  15.274  24.512  10.896
 9895W        W78368  28.135   8.292   3.805
 9896W        W78369   0.760  27.052   2.373
 9897W        W78370  44.983  17.135  12.478
 9898W        W78371  24.102  16.626  11.518
 9899W        W78372  10.782  13.805  11.120
 9900W        W78373  18.166  18.623  12.551
 9901W        W78374  35.374   4.767  12.461
 9902W        W78375  43.433  31.939  11.971
 9903W        W78376  43.938  40.002   3.761
 9904W        W78377  15.108  37.572   1.749
 9905W        W78378  22.670  23.636   1.446
 9906W        W78379  27.042  16.222  12.462
 9907W        W78380  18.216  21.118   1.290
 9908W        W78381  14.802  23.119  10.949
 9909W        W78382  42.376   7.384   2.799
 9910W        W78383  27.166  37.899   1.865
 9911W        W78384  43.298  24.105   1.412
 9912W        W78385  16.161  41.362   2.335
 9913W        W78386   2.953  40.946  13.039
 9914W        W78387  29.092  17.256  12.358
 9915W        W78388   0.486   5.700  14.000
 9916W        W78389   9.294  17.303   1.749
 9917W        W78390   5.197  27.692  11.858
 9918W        W78391  39.873  39.859   0.480
 9919W        W78392   4.738  29.970   2.722
 9920W        W78393  26.483  32.918  13.543
 9921W        W78394  26.975  16.258  12.920
 9922W        W78395  11.284  43.510  13.540
 9923W        W78396  38.951  35.089   3.320
 9924W        W78397  30.087   2.779   0.418
 9925W        W78398  18.702  26.679   0.300
 9926W        W78399   8.183   8.701  12.964
 9927W        W78400   9.867  18.633   2.225
 9928W        W78401  24.656  22.605   1.332
 9929W        W78402  39.431   0.254   4.703
 9930W        W78403   0.459  18.131   2.819
 9931W        W78404   3.926  21.237   3.320
 9932W        W78405  20.122  30.629   1.270
 9933W        W78406  17.750  34.433   0.826
 9934W        W78407  43.274  44.308   3.746
 9935W        W78408  31.153  25.474  13.414
 9936W        W78409  32.631  32.086   5.142
 9937W        W78410  12.798  22.023   1.263
 9938W        W78411  24.506  19.649   1.914
 9939W        W78412  21.712  22.534   1.434
 9940W        W78413  10.259   5.350  12.998
 9941W        W78414  37.519  34.440  13.838
 9942W        W78415  35.483  13.203   2.881
 9943W        W78416   4.361  31.572   4.645
 9944W        W78417  12.643  40.877   1.344
 9945W        W78418   7.389   2.469   4.229
 9946W        W78419  27.545  37.390  11.920
 9947W        W78420  37.938   3.805  14.862
 9948W        W78421  14.265   5.370  11.884
 9949W        W78422  39.845  43.296   2.404
 9950W        W78423  13.191  27.514  11.497
 9951W        W78424  12.753  12.805  13.050
 9952W        W78425  39.526  10.173  13.500
 9953W        W78426  18.598  18.633  12.885
 9954W        W78427  34.459  15.171  11.589
 9955W        W78428  38.410  43.363   3.800
 9956W        W78429  16.797   5.212  11.372
 9957W        W78430  20.085  15.100   4.634
 9958W        W78431  39.897   4.939  13.377
 9959W        W78432  33.968  24.493  11.082
 9960W        W78433   8.400  40.377  14.783
 9961W        W78434  11.270   9.817  13.368
 9962W        W78435   6.306  25.662   1.793
 9963W        W78436  30.087   7.290   2.269
 9964W        W78437  37.024  28.675   1.275
 9965W        W78438  27.998  10.753  14.784
 9966W        W78439  34.111  22.623   3.809
 9967W        W78440  32.892   4.252  14.843
 9968W        W78441  10.658  21.218   1.304
 9969W        W78442   2.879  12.207  12.072
 9970W        W78443  22.237   6.290   3.285
 9971W        W78444  12.309  43.459   3.796
 9972W        W78445  35.502   1.780   3.177
 9973W        W78446   8.736  31.048  11.470
 9974W        W78447  43.508   8.162   0.810
 9975W        W78448  36.433  21.569  14.364
 9976W        W78449   3.764   6.404  12.466
 9977W        W78450   3.754  40.849  10.552
 9978W        W78451  19.239  10.166  12.823
 9979W        W78452   7.182   3.776  14.877
 9980W        W78453  19.221  31.000  11.567
 9981W        W78454  23.713  42.942   3.775
 9982W        W78455  33.919  34.039   3.321
 9983W        W78456   7.235  41.467   3.732
 9984W        W78457  38.981   8.664  10.140
 9985W        W78458  18.579  39.371   1.762
 9986W        W78459  28.019  42.863  13.987
 9987W        W78460   5.207  18.070  13.449
 9988W        W78461  37.894  38.862  12.546
 9989W        W78462   6.360  33.625  12.054
 9990W        W78463  14.241  18.747  14.295
 9991W        W78464   8.226  34.093  11.062
 9992W        W78465  32.632   0.325  14.378
 9993W        W78466  44.371   4.825   5.141
 9994W        W78467   3.858   1.457  14.422
 9995W        W78468   7.685  35.438  10.638
 9996W        W78469  20.571   4.716   0.733
 9997W        W78470  44.955  23.662  13.919
 9998W        W78471  25.999  30.545  11.606
 9999W        W78472   7.282  23.233   3.280
10000W        W78473  30.937  44.273   3.235
10001W        W78474  40.310  25.651   0.800
10002W        W78475  42.851  20.228   3.386
10003W        W78476  13.669  42.474  14.965
10004W        W78477   3.756  19.629  10.630
10005W        W78478   1.945  13.254  11.925
10006W        W78479  42.002  16.186   4.268
10007W        W78480  18.216  24.531  13.437
10008W        W78481  13.606  44.760   0.337
10009W        W78482  19.767  38.895  13.901
10010W        W78483   1.759  32.591   0.928
10011W        W78484   0.825  43.470   3.673
10012W        W78485  30.139  41.296   1.732
10013W        W78486   7.874  17.780  14.411
10014W        W78487  36.574   7.878   1.354
10015W        W78488   1.268  43.474  12.495
10016W        W78489  30.057  13.769   1.368
10017W        W78490   7.266   2.344  11.924
10018W        W78491  32.428  43.316  12.911
10019W        W78492  38.018  35.453  12.500
10020W        W78493  31.137  12.674   4.803
10021W        W78494   2.956  23.080  11.990
10022W        W78495  43.874  26.061   0.794
10023W        W78496  12.818  22.575  12.528
10024W        W78497   9.224  39.898   2.843
10025W        W78498  26.468   5.372   2.694
10026W        W78499  34.074  26.671   1.779
10027W        W78500  11.343  35.430   0.375
10028W        W78501  14.624   3.385  12.427
10029W        W78502  17.773  22.741   0.322
10030W        W78503  19.685  22.518   4.273
10031W        W78504   6.332  40.884   4.727
10032W        W78505  12.131  33.426   3.727
10033W        W78506  11.313  34.875   2.692
10034W        W78507  18.785  24.089   2.903
10035W        W78508  18.587  12.746   2.389
10036W        W78509  44.897  41.312   3.379
10037W        W78510  36.066  41.992   0.757
10038W        W78511  36.580  29.999   1.896
10039W        W78512  19.154  11.183   3.800
10040W        W78513   7.185  36.411   2.668
10041W        W78514  34.385  39.519   0.830
10042W        W78515  19.092  32.038   3.317
10043W        W78516  18.683  17.242   2.885
10044W        W78517  11.269  37.932   3.248
10045W        W78518  31.589  20.739   1.424
10046W        W78519  13.159  26.610   4.826
10047W        W78520  36.396  10.381  13.993
10048W        W78521   5.260  14.685   9.946
10049W        W78522  18.122  20.631   1.247
10050W        W78523  44.792  32.995  12.069
10051W        W78524   5.414   9.773  12.442
10052W        W78525  21.157  40.509  13.946
10053W        W78526  31.458  19.652  14.772
10054W        W78527  25.150  25.139  11.069
10055W        W78528   6.712  21.043   0.351
10056W        W78529  35.423  13.314  12.497
10057W        W78530   1.367  44.400  13.943
10058W        W78531  17.640  40.441   9.991
10059W        W78532  29.087  11.800  10.577
10060W        W78533  19.190  36.396  12.569
10061W        W78534  29.618  30.041   3.319
10062W        W78535  25.073  25.611   4.824
10063W        W78536  39.548  30.492  13.032
10064W        W78537  20.204  24.622  14.466
10065W        W78538  41.368  14.798  12.417
10066W        W78539  15.253  10.168   0.909
10067W        W78540  14.695  13.685   0.847
10068W        W78541  25.642  30.602  11.009
10069W        W78542   7.776  44.443  10.915
10070W        W78543   1.285  26.054   0.270
10071W        W78544  29.117  38.547  11.582
10072W        W78545  16.275  31.969  10.580
10073W        W78546  43.305  22.654  12.993
10074W        W78547  41.027  14.265   0.817
10075W        W78548  12.705   5.287  14.935
10076W        W78549  22.165  29.167   0.788
10077W        W78550   4.360  11.192  11.035
10078W        W78551   9.869  10.208   3.717
10079W        W78552  22.205   6.802  14.306
10080W        W78553  38.947  33.619   2.269
10081W        W78554  42.923  41.863   1.440
10082W        W78555  24.723  25.172  12.079
10083W        W78556   7.819   9.852  13.824
10084W        W78557   9.383  15.722   2.300
10085W        W78558  33.886  43.921   0.748
10086W        W78559  15.702   7.699   4.327
10087W        W78560  26.620  23.509  10.447
10088W        W78561  34.553  36.389  10.980
10089W        W78562  29.424  12.628   1.419
10090W        W78563   1.237  32.080  14.306
10091W        W78564  24.026  17.283   0.950
10092W        W78565  42.995  25.209  10.413
10093W        W78566  41.834  11.349  11.393
10094W        W78567   7.173  27.989  14.806
10095W        W78568  14.676  25.132   0.957
10096W        W78569  39.383  29.145   1.760
10097W        W78570   8.230  13.838   3.793
10098W        W78571  35.978  19.756   0.373
10099W        W78572  14.709  22.512   3.778
10100W        W78573  43.440  32.970  13.352
10101W        W78574  24.606  18.679   1.389
10102W        W78575  12.119  27.007   4.331
10103W        W78576  26.027  37.006  14.478
10104W        W78577  41.538  40.879   4.258
10105W        W78578  33.999   3.797  13.464
10106W        W78579  38.448  39.838  10.484
10107W        W78580  21.635  22.712  12.920
10108W        W78581  24.621  33.548   0.484
10109W        W78582  19.166  11.249   2.783
10110W        W78583  40.975   9.272  10.929
10111W        W78584  30.970  37.013   0.950
10112W        W78585   1.742  15.596   3.791
10113W        W78586  43.857  21.573   1.288
10114W        W78587  16.566  42.351  13.887
10115W        W78588  44.794  18.606   3.225
10116W        W78589  21.536  15.272  13.338
10117W        W78590  29.990  20.122  13.969
10118W        W78591  37.030  25.619   3.230
10119W        W78592  41.331  42.806  11.865
10120W        W78593  26.685  43.337  14.996
10121W        W78594  42.794   2.811   2.820
10122W        W78595  30.430  21.653  13.892
10123W        W78596  20.173  18.232  14.392
10124W        W78597  32.900  43.365   2.302
10125W        W78598   9.810   5.431   3.163
10126W        W78599  32.496  11.816   0.823
10127W        W78600  27.673  34.921  12.039
10128W        W78601  40.863  29.609   3.654
10129W        W78602   7.402  39.335   3.261
10130W        W78603  16.714  13.787   0.371
10131W        W78604  30.435  44.834   1.801
10132W        W78605  29.494  14.130  10.522
10133W        W78606   0.881  20.074   0.304
10134W        W78607  36.001  11.348   0.405
10135W        W78608   4.447  13.156   3.293
10136W        W78609  25.069  30.065  13.891
10137W        W78610   6.187  21.561  10.975
10138W        W78611  15.743  15.785  14.978
10139W        W78612   2.392  16.665  11.395
10140W        W78613  38.822  34.454  10.586
10141W        W78614   3.861  30.626  12.525
10142W        W78615  11.251  10.377  14.811
10143W        W78616  12.343  17.263  12.073
10144W        W78617  20.061  42.305  11.505
10145W        W78618  39.414  43.289   0.898
10146W        W78619   5.875   4.385   3.253
10147W        W78620   2.318  23.158  10.413
10148W        W78621  24.702  38.512   3.219
10149W        W78622  26.018  40.369   2.813
10150W        W78623  25.162  12.121  12.340
10151W        W78624   1.749  41.500   3.696
10152W        W78625  22.719  14.658   9.609
10153W        W78626  21.753  34.544   2.693
10154W        W78627  30.061  21.088  13.543
10155W        W78628   3.459  27.555  13.514
10156W        W78629  17.703  11.774  13.423
10157W        W78630  13.708  22.154   3.204
10158W        W78631  21.039   1.832  14.026
10159W        W78632  38.413   1.248  10.638
10160W        W78633  19.562  37.532  12.933
10161W        W78634   8.230  27.969  12.461
10162W        W78635  32.009  17.276  13.879
10163W        W78636  30.483  29.661  11.518
10164W        W78637  33.549  24.193   2.415
10165W        W78638   5.839  26.993   3.712
10166W        W78639  27.978  44.466  10.075
10167W        W78640   1.469  34.027  12.855
10168W        W78641  16.088  44.438  13.003
10169W        W78642  15.186  27.474  10.612
10170W        W78643  10.368   8.778  14.855
10171W        W78644  42.808  31.631  11.594
10172W        W78645  38.920  14.151   0.292
10173W        W78646  27.533  44.466  12.842
10174W        W78647  18.718   1.239  12.510
10175W        W78648  22.573  40.527  11.521
10176W        W78649  43.811  32.425   0.857
10177W        W78650  24.570  43.773  14.509
10178W        W78651  31.461  36.908  14.506
10179W        W78652  39.326  22.119  11.903
10180W        W78653   5.699   9.663   0.833
10181W        W78654  34.110  40.351  13.477
10182W        W78655  44.282   1.279   3.175
10183W        W78656  42.897  19.693   2.258
10184W        W78657  31.471  27.470  12.518
10185W        W78658   2.302  19.061   2.340
10186W        W78659  14.216  32.118  10.888
10187W        W78660  11.698  16.139   2.692
10188W        W78661   1.462  42.870   4.678
10189W        W78662   6.917  42.308  14.428
10190W        W78663  33.463  31.588   2.312
10191W        W78664  14.758  17.793   1.919
10192W        W78665  20.608   8.235   0.825
10193W        W78666  35.109  30.642  13.897
10194W        W78667  18.192  11.813  13.909
10195W        W78668  17.086  17.155  11.874
10196W        W78669  15.321  37.973   5.152
10197W        W78670  42.506  21.621   0.255
10198W        W78671  43.877  42.820   1.851
10199W        W78672  15.278  32.910   2.814
10200W        W78673   2.389  10.794   2.374
10201W        W78674  33.129  25.212  12.401
10202W        W78675   0.250  24.223  12.870
10203W        W78676  32.449   9.325  12.384
10204W        W78677   2.865  24.570  13.449
10205W        W78678  40.972   0.406  11.542
10206W        W78679  22.712  16.734   2.728
10207W        W78680  31.607  40.435   2.888
10208W        W78681  35.967   0.356  14.001
10209W        W78682   0.803  18.281  13.035
10210W        W78683  38.046  36.526   3.703
10211W        W78684  40.957  23.666  14.310
10212W        W78685  41.903  21.100  13.329
10213W        W78686  42.460  37.832  13.978
10214W        W78687  34.409  31.026   2.794
10215W        W78688  37.983  16.186  12.889
10216W        W78689  33.496  27.061  14.476
10217W        W78690  32.472  25.553   9.577
10218W        W78691  44.886   0.935   1.217
10219W        W78692  11.182   1.307  12.485
10220W        W78693  38.400   9.246  10.475
10221W        W78694  11.288  33.880  10.488
10222W        W78695  27.942  14.723   1.902
10223W        W78696  19.599  14.791  10.544
10224W        W78697  33.930   9.677  10.497
10225W        W78698  35.043  25.642  12.396
10226W        W78699  26.151   1.286  11.089
10227W        W78700   9.261  16.760  11.537
10228W        W78701  41.318   2.750   0.922
10229W        W78702  30.163  37.915  14.847
10230W        W78703   7.289  17.220   3.747
10231W        W78704  23.516  21.246   3.677
10232W        W78705   1.297  34.580  13.830
10233W        W78706  28.452  43.919  11.435
10234W        W78707  40.355  11.854  10.063
10235W        W78708  44.482  31.062   0.795
10236W        W78709   5.839   9.799   0.484
10237W        W78710   3.865   0.295   1.762
10238W        W78711   0.441   2.259  11.104
10239W        W78712  17.252  11.182  11.526
10240W        W78713  13.302   1.898   1.441
10241W        W78714  38.521  35.466  11.006
10242W        W78715  32.585  24.500  10.589
10243W        W78716  23.212  17.290   0.275
10244W        W78717  39.857   6.218  14.320
10245W        W78718  17.265   2.249  13.813
10246W        W78719   8.261  22.537  13.472
10247W        W78720  30.004  43.374  12.406
10248W        W78721  10.778  29.492   3.149
10249W        W78722  43.483  30.597   3.183
10250W        W78723  43.509   9.220  12.515
10251W        W78724   4.237  35.562  12.942
10252W        W78725  24.670  24.075  13.048
10253W        W78726  18.054  17.187  12.995
10254W        W78727  12.181  31.534   4.307
10255W        W78728  39.813  19.611   4.141
10256W        W78729  11.320  15.585  13.888
10257W        W78730  40.863  23.105   1.755
10258W        W78731   7.295  36.466   0.775
10259W        W78732  38.991  24.554  11.439
10260W        W78733  32.905  27.090  14.404
10261W        W78734  16.226   0.330  13.019
10262W        W78735  19.285  42.968   0.390
10263W        W78736   3.735  17.619   4.265
10264W        W78737  20.682  39.982  11.001
10265W        W78738  10.380   2.726   4.836
10266W        W78739  38.360  25.211   0.309
10267W        W78740   0.288  21.737   4.195
10268W        W78741  17.250  31.085   2.875
10269W        W78742  11.668  15.209   2.357
10270W        W78743   2.367  38.013   1.434
10271W        W78744  29.969  44.856   3.365
10272W        W78745  30.073  19.137   4.605
10273W        W78746   5.694  42.858  12.395
10274W        W78747  28.988  15.176   4.822
10275W        W78748  33.891  15.269  11.567
10276W        W78749  11.859  26.525  11.596
10277W        W78750  32.921  40.028   3.643
10278W        W78751  22.109  42.780  12.955
10279W        W78752   7.229   5.359  14.312
10280W        W78753  20.633  39.019   0.349
10281W        W78754   4.786  27.665  14.820
10282W        W78755   1.843  37.506  11.882
10283W        W78756  14.294  15.184   1.805
10284W        W78757  38.074   9.868   1.870
10285W        W78758   2.348  31.097   4.777
10286W        W78759  32.965  23.556   0.867
10287W        W78760  38.410  16.073   0.793
10288W        W78761   9.236  40.842  14.996
10289W        W78762  43.307  39.509   3.689
10290W        W78763  30.039  22.155  13.433
10291W        W78764  35.384  26.998  13.510
10292W        W78765  35.484  19.187  12.440
10293W        W78766  24.632  13.603   4.699
10294W        W78767  38.400  32.606   1.370
10295W        W78768  43.467  33.924  14.366
10296W        W78769   5.840  25.609  10.976
10297W        W78770  30.480  21.036  12.857
10298W        W78771  14.306  21.171   0.741
10299W        W78772  36.561  43.488   3.265
10300W        W78773  28.097  40.877  13.531
10301W        W78774  25.470  38.468   1.319
10302W        W78775  13.783   7.912   4.597
10303W        W78776   3.861  31.455   0.912
10304W        W78777   3.911  16.640  14.986
10305W        W78778  27.114  16.217  14.027
10306W        W78779   8.671  11.734  11.402
10307W        W78780  19.660  38.475  12.462
10308W        W78781  24.188  40.353   0.817
10309W        W78782  24.714  30.100  12.855
10310W        W78783  13.147  33.475   2.387
10311W        W78784  19.203  27.979   3.146
10312W        W78785  38.444  43.386  11.078
10313W        W78786  29.451   1.819  11.881
10314W        W78787   1.924  26.105  11.580
10315W        W78788   8.277  26.179   1.914
10316W        W78789  12.634  44.772   2.788
10317W        W78790  33.613  38.418  12.522
10318W        W78791  44.478  16.170  14.370
10319W        W78792  14.104  41.407  12.824
10320W        W78793   6.806  22.524   3.271
10321W        W78794  20.058  32.054   1.885
10322W        W78795  27.011  24.695   1.385
10323W        W78796  19.680   0.288  10.439
10324W        W78797  39.943  12.350   1.236
10325W        W78798   3.395   0.932   5.281
10326W        W78799  26.132  34.491  12.460
10327W        W78800  19.598  42.933  14.825
10328W        W78801   6.187  44.765  13.530
10329W        W78802  20.158   9.681   0.953
10330W        W78803   6.912  17.690   0.395
10331W        W78804  18.775  37.358  14.437
10332W        W78805  25.000  41.441  10.921
10333W        W78806  27.130  14.652   1.338
10334W        W78807   6.895  44.820   3.352
10335W        W78808  35.035  39.062   3.790
10336W        W78809   9.821  34.552   3.146
10337W        W78810  36.563  31.583   1.410
10338W        W78811  13.608  43.377  13.411
10339W        W78812  40.030  17.686   0.875
10340W        W78813  42.503  41.293  11.452
10341W        W78814  18.633  42.498  11.042
10342W        W78815  41.363  32.460   3.673
10343W        W78816  20.232   8.690  11.549
10344W        W78817  14.691  38.489   9.966
10345W        W78818  40.948  21.576   4.750
10346W        W78819  19.129  42.438  13.997
10347W        W78820  11.795  27.091   0.962
10348W        W78821   5.745   6.922  12.858
10349W        W78822  26.157   0.761   4.181
10350W        W78823  13.238  28.066   3.381
10351W        W78824  33.874   2.378   1.899
10352W        W78825  15.594  19.197   2.717
10353W        W78826  29.606  16.159   3.734
10354W        W78827  12.698  15.751  14.310
10355W        W78828  27.588  30.117  12.459
10356W        W78829  23.126  22.589   1.844
10357W        W78830  40.934  21.191   4.615
10358W        W78831  29.653  20.258  11.923
10359W        W78832  14.683   0.922   5.132
10360W        W78833  30.463  37.898  14.934
10361W        W78834  41.483  20.534  12.377
10362W        W78835  33.116  11.690   0.425
10363W        W78836  30.987  30.488   0.954
10364W        W78837   4.825  17.246  12.874
10365W        W78838  11.659  37.046  11.044
10366W        W78839  28.097  28.504  14.773
10367W        W78840   9.236   1.802   0.792
10368W        W78841  35.441  15.816  12.088
10369W        W78842  34.079  44.773  13.456
10370W        W78843  23.209   5.880   0.905
10371W        W78844  34.406  24.706   1.784
10372W        W78845  40.921  14.797  10.606
10373W        W78846  38.900  19.254  10.442
10374W        W78847   6.261  15.211   3.299
10375W        W78848  41.856  32.611  12.498
10376W        W78849   4.416  11.228   4.626
10377W        W78850  16.144  41.370  13.317
10378W        W78851   6.358  40.826   3.207
10379W        W78852  44.954  35.970   1.384
10380W        W78853  18.668   3.921  12.575
10381W        W78854  37.849  16.664  13.842
10382W        W78855  44.808   0.386   3.749
10383W        W78856  26.147   7.694   4.610
10384W        W78857  20.067  14.271   2.762
10385W        W78858  25.478  39.027   3.156
10386W        W78859  25.196  18.235  11.500
10387W        W78860  36.012  32.631   3.769
10388W        W78861  35.478  32.422  11.911
10389W        W78862  12.653  25.708  14.379
10390W        W78863  20.576  30.042   2.722
10391W        W78864  19.265  26.959   0.254
10392W        W78865  22.651  35.062   0.360
10393W        W78866  36.041  15.241  13.342
10394W        W78867  32.050   2.787  11.016
10395W        W78868  38.354  27.682   1.702
10396W        W78869  44.776  26.025   2.404
10397W        W78870  14.186  30.629   1.799
10398W        W78871  35.021  37.892  10.557
10399W        W78872  38.877  12.800   3.757
10400W        W78873  10.707  34.447   4.143
10401W        W78874  41.297  37.083  13.859
10402W        W78875  44.795  31.086  10.432
10403W        W78876  23.641   8.685  14.953
10404W        W78877  11.214  25.533  11.538
10405W        W78878  20.105  36.527  12.839
10406W        W78879  37.467   0.423  11.529
10407W        W78880  38.976   5.437  12.864
10408W        W78881  23.657  21.562  14.886
10409W        W78882   0.918   8.703  10.474
10410W        W78883  31.153  23.992   0.408
10411W        W78884   3.803  16.278   1.233
10412W        W78885  16.302  19.078   4.731
10413W        W78886  27.587  16.132  10.986
10414W        W78887  43.435   9.224   3.262
10415W        W78888   1.240  28.031   4.171
10416W        W78889   4.825   6.911  11.091
10417W        W78890  32.053  24.156   2.893
10418W        W78891  33.911  43.765  14.282
10419W        W78892  23.516  21.254   4.779
10420W        W78893  33.545  26.006   4.345
10421W        W78894  17.250  36.969  12.374
10422W        W78895   1.819  44.398  14.468
10423W        W78896  40.479  31.039   3.737
10424W        W78897  15.214  42.999   1.787
10425W        W78898  28.029   3.851  11.998
10426W        W78899   4.815  41.421   2.706
10427W        W78900  29.135  14.735   2.775
10428W        W78901  21.545  33.531   1.807
10429W        W78902  36.954  37.987  10.485
10430W        W78903   2.807  23.115  12.942
10431W        W78904  23.206  27.130   0.804
10432W        W78905  15.299  44.766   3.153
10433W        W78906  20.685  28.127   3.704
10434W        W78907  14.730  11.797   4.611
10435W        W78908   4.424  41.987  13.323
10436W        W78909   2.907  33.046   0.853
10437W        W78910   9.342  22.616   0.895
10438W        W78911   5.235  36.078   0.427
10439W        W78912   4.238   4.729   4.750
10440W        W78913   6.291  20.617  10.611
10441W        W78914  18.293  20.564   3.861
10442W        W78915  22.095   9.210   3.156
10443W        W78916  34.495  22.238   2.767
10444W        W78917  20.138  36.392  13.404
10445W        W78918  43.437  27.445  13.460
10446W        W78919  32.620  26.104  13.329
10447W        W78920  32.527  35.086  14.881
10448W        W78921  42.826  18.747   2.698
10449W        W78922   1.908   1.457  11.906
10450W        W78923  19.277  42.969  13.005
10451W        W78924  41.795  16.317   2.411
10452W        W78925  24.035  43.418  14.275
10453W        W78926  37.490  29.172   2.834
10454W        W78927  29.479   5.330   3.241
10455W        W78928  18.101  10.162  13.426
10456W        W78929  31.648  39.809  14.829
10457W        W78930   9.256  39.057  13.513
10458W        W78931  39.034  14.170   3.673
10459W        W78932   4.768  13.637  12.842
10460W        W78933  23.047  40.424  12.438
10461W        W78934  39.019  28.672   3.329
10462W        W78935  23.522  20.136  12.909
10463W        W78936  10.704  22.187   3.756
10464W        W78937  14.668  34.583  10.544
10465W        W78938  29.043  17.120   0.882
10466W        W78939  25.110  30.941   2.867
10467W        W78940   3.932  39.031   3.751
10468W        W78941  16.795   2.735   0.367
10469W        W78942  22.244  41.306  12.042
10470W        W78943  18.705   3.800  13.844
10471W        W78944   5.783  40.831  10.987
10472W        W78945  19.561  40.807  13.389
10473W        W78946   1.332  16.299  11.489
10474W        W78947  22.052  26.590  13.520
10475W        W78948   7.850   9.151   1.757
10476W        W78949  19.233  42.303  10.619
10477W        W78950   9.387  29.164   4.768
10478W        W78951  40.467  24.204   0.912
10479W        W78952  39.527   0.324  13.974
10480W        W78953  14.621  29.047  12.579
10481W        W78954  32.601  22.599   4.160
10482W        W78955  35.919  42.994   4.268
10483W        W78956   3.832  38.542  12.002
10484W        W78957  42.389  20.087   4.293
10485W        W78958   6.361  29.155   2.360
10486W        W78959  32.404  18.229  14.865
10487W        W78960  26.581  33.389   2.840
10488W        W78961   0.420  30.047   2.721
10489W        W78962  34.437   8.744   4.743
10490W        W78963  44.416  18.278  11.587
10491W        W78964  12.737  28.156  11.485
10492W        W78965  29.053  25.067  12.968
10493W        W78966  39.918  28.174  13.819
10494W        W78967   2.450  34.483  12.986
10495W        W78968   4.853   6.917  10.093
10496W        W78969  11.350  28.459  11.979
10497W        W78970  23.599  34.507   4.214
10498W        W78971  10.641  37.991  12.507
10499W        W78972   4.808  22.230  11.964
10500W        W78973  22.056  30.468  11.858
10501W        W78974  15.177  18.602  13.898
10502W        W78975   4.345  12.748   1.446
10503W        W78976   9.277  35.939   9.926
10504W        W78977  37.862  37.984  12.539
10505W        W78978  17.195  30.634  12.969
10506W        W78979   8.192  12.815   3.327
10507W        W78980   8.286  31.516   2.329
10508W        W78981  42.280   2.820  10.466
10509W        W78982  32.100  10.242  11.566
10510W        W78983   5.856   8.828  10.978
10511W        W78984   2.290   5.755   0.935
10512W        W78985  26.155  15.710  11.546
10513W        W78986  20.088  23.707   2.752
10514W        W78987   9.813   3.419   2.342
10515W        W78988  14.287  38.473  11.092
10516W        W78989   6.248  11.273  12.506
10517W        W78990  44.964   1.347  13.991
10518W        W78991  15.646  35.921   1.895
10519W        W78992  10.202  15.268   3.251
10520W        W78993   9.309  17.738  12.529
10521W        W78994   8.721  22.182  13.487
10522W        W78995  12.333  21.571   2.350
10523W        W78996  42.290   1.280   2.331
10524W        W78997  11.845   4.897   1.336
10525W        W78998  34.468  34.077   3.740
10526W        W78999  38.050   5.365  13.427
10527W        W79000  40.939  16.568  14.828
10528W        W79001  17.121   7.754  13.322
10529W        W79002  32.896  44.286   3.638
10530W        W79003   7.332  39.518  13.799
10531W        W79004  19.075  15.687   0.404
10532W        W79005   9.243  33.965   3.712
10533W        W79006  17.738  36.550  12.482
10534W        W79007  29.436  36.904  10.524
10535W        W79008  43.963  44.956  13.524
10536W        W79009  27.057  43.406   2.208
10537W        W79010  28.437  32.090  13.437
10538W        W79011   3.361  26.987   1.320
10539W        W79012  11.153  18.263  11.888
10540W        W79013  12.127  24.661   3.778
10541W        W79014  26.068  13.728  12.089
10542W        W79015  43.003  18.221  10.481
10543W        W79016  10.331  17.287   2.859
10544W        W79017   8.330  21.195  11.538
10545W        W79018  41.483  30.110   4.231
10546W        W79019  32.047  22.530  11.918
10547W        W79020  11.228  21.192  11.925
10548W        W79021   7.192  18.054   0.777
10549W        W79022  37.500   4.316   3.779
10550W        W79023  25.058  26.652   0.309
10551W        W79024  35.388  25.498   2.673
10552W        W79025   8.400  17.782   0.868
10553W        W79026   7.385  31.113   2.264
10554W        W79027  41.920  31.410   1.322
10555W        W79028   7.888  39.434  10.996
10556W        W79029   2.430  20.061  14.511
10557W        W79030  22.143  26.688   0.393
10558W        W79031  11.704  23.669   4.684
10559W        W79032  29.626   1.974  11.053
10560W        W79033  33.459   4.888  10.583
10561W        W79034   1.255  28.538  12.575
10562W        W79035  26.697   0.863   4.164
10563W        W79036  17.628  12.843   0.803
10564W        W79037  21.111  30.521  12.573
10565W        W79038  40.882  33.901  12.389
10566W        W79039   9.795  19.063  11.611
10567W        W79040  17.139  40.963   4.720
10568W        W79041  30.565  10.363  10.613
10569W        W79042  40.799  16.680  10.560
10570W        W79043  13.109  11.860   4.269
10571W        W79044  19.131  26.689   3.163
10572W        W79045  28.604   1.932  11.610
10573W        W79046  13.212  39.052   0.243
10574W        W79047  10.644   2.400   2.193
10575W        W79048   6.292   7.299  14.989
10576W        W79049  25.657  27.134  14.986
10577W        W79050  27.105  34.436   0.399
10578W        W79051  31.486   4.330   2.379
10579W        W79052  34.393  28.063   0.788
10580W        W79053  28.501  19.626  10.499
10581W        W79054  37.493  44.817   1.739
10582W        W79055  17.585  37.880  10.425
10583W        W79056   4.377  29.157  10.968
10584W        W79057  19.751   2.350  10.625
10585W        W79058  41.537  19.686   3.321
10586W        W79059  13.615  44.346   0.873
10587W        W79060  24.095  13.246   0.881
10588W        W79061  10.799  43.918   1.213
10589W        W79062   8.739  41.430  11.534
10590W        W79063  13.726  25.979  12.552
10591W        W79064  18.672  22.695   3.680
10592W        W79065  34.977  21.217  10.893
10593W        W79066  11.266  23.672  12.471
10594W        W79067  41.518   3.286   3.712
10595W        W79068  17.651  41.371   3.344
10596W        W79069  27.149  23.052   0.312
10597W        W79070  26.471  31.466  10.640
10598W        W79071  38.978  17.101   1.229
10599W        W79072  32.049  11.353  13.318
10600W        W79073  12.827  20.152   0.892
10601W        W79074  19.576   2.275   1.273
10602W        W79075  39.005  23.510   2.682
10603W        W79076  36.985   1.414   3.279
10604W        W79077  35.555  23.046   3.178
10605W        W79078  40.946  25.138   0.944
10606W        W79079  34.009  31.961  14.291
10607W        W79080  18.725  43.785  12.459
10608W        W79081  24.692   9.829   4.631
10609W        W79082  44.313  29.577   0.366
10610W        W79083  40.820   6.728   1.752
10611W        W79084  10.159  22.122  12.941
10612W        W79085  37.053  12.200   4.147
10613W        W79086  28.095  44.402   2.264
10614W        W79087  40.484  14.109   3.339
10615W        W79088  34.013   4.847  12.965
10616W        W79089  18.789  10.789  13.332
10617W        W79090  15.242  42.934  11.944
10618W        W79091  21.543  41.305  14.369
10619W        W79092  40.940  39.875   2.770
10620W        W79093   3.755   4.832  14.007
10621W        W79094   6.413  19.586   5.091
10622W        W79095  14.783  26.080  14.000
10623W        W79096  38.965  43.871   1.767
10624W        W79097  21.086  42.897  13.987
10625W        W79098  19.580   0.786  12.528
10626W        W79099  13.640  21.688  14.946
10627W        W79100   5.366  36.433   2.301
10628W        W79101  32.543  11.782   3.775
10629W        W79102  15.111  31.618   0.297
10630W        W79103  30.620   0.904  10.892
10631W        W79104  21.620  34.034  10.440
10632W        W79105  17.122  12.180   1.788
10633W        W79106  12.677   6.342  12.870
10634W        W79107   7.391  31.046   0.364
10635W        W79108  37.364  24.056  14.398
10636W        W79109  35.052   0.364  12.418
10637W        W79110  10.333  36.439   2.823
10638W        W79111  17.556  22.532   3.826
10639W        W79112  21.544  35.955   2.745
10640W        W79113  35.070  18.163  14.470
10641W        W79114   5.724  27.172   0.900
10642W        W79115  22.098   8.797  11.914
10643W        W79116  19.067   0.838  14.820
10644W        W79117   3.400  23.616   2.780
10645W        W79118   5.852  25.542  10.444
10646W        W79119   8.818  15.671  12.491
10647W        W79120  14.681  34.879  11.428
10648W        W79121  43.003  39.864   1.865
10649W        W79122  30.141  44.260  14.983
10650W        W79123  22.011  36.048  11.004
10651W        W79124  10.748  43.352  10.638
10652W        W79125  24.709   9.295  14.775
10653W        W79126  30.927   7.186  11.879
10654W        W79127   5.751  35.538   1.348
10655W        W79128   9.276  11.333   1.412
10656W        W79129   4.244  27.168   1.428
10657W        W79130   9.806  31.465   1.791
10658W        W79131  27.450  20.540   0.776
10659W        W79132  21.655  40.976  10.943
10660W        W79133   1.938   9.381   3.691
10661W        W79134   2.776  18.101  13.326
10662W        W79135  34.016  33.559   0.425
10663W        W79136  26.138   4.944   4.246
10664W        W79137  34.389   4.407  14.821
10665W        W79138   0.397  35.429  12.980
10666W        W79139  43.824  12.301  14.964
10667W        W79140  24.227   7.257   4.278
10668W        W79141  19.262  43.812  11.573
10669W        W79142  17.256  44.297   4.185
10670W        W79143   5.254   0.983   1.259
10671W        W79144  31.611   0.486  11.388
10672W        W79145  38.005  34.433  10.579
10673W        W79146  16.118  35.386  12.007
10674W        W79147  17.214  26.584  13.366
10675W        W79148   4.849  21.026  11.961
10676W        W79149  33.581   3.277   5.102
10677W        W79150  41.796  44.280  11.555
10678W        W79151  41.534  34.446   2.772
10679W        W79152   4.210  38.436  14.352
10680W        W79153  31.149  31.976   1.272
10681W        W79154  22.734  19.666   2.734
10682W        W79155  34.537   7.200   0.906
10683W        W79156   2.789  38.556  11.507
10684W        W79157  24.075  31.535   4.167
10685W        W79158  40.489   5.259  11.090
10686W        W79159   8.371  27.461   1.813
10687W        W79160  18.595  25.989  12.909
10688W        W79161  23.643  33.534   1.888
10689W        W79162  15.189  37.463   3.187
10690W        W79163  32.017  33.049  14.471
10691W        W79164  30.482   2.758   0.414
10692W        W79165  22.550   6.836  13.833
10693W        W79166   0.403  21.670  12.479
10694W        W79167  17.064  24.036  14.996
10695W        W79168  15.268  20.170  12.950
10696W        W79169   9.390  35.370   3.665
10697W        W79170  27.681  21.024   4.289
10698W        W79171  22.047  32.633   4.115
10699W        W79172  29.103  37.882  13.926
10700W        W79173  27.976  18.617   2.227
10701W        W79174   3.750   3.952  11.603
10702W        W79175  21.205  28.534  13.324
10703W        W79176   0.900  32.517   1.916
10704W        W79177  39.829  42.432   2.802
10705W        W79178  38.007  33.541   3.385
10706W        W79179   7.248  24.030   3.780
10707W        W79180  28.163  12.660   2.302
10708W        W79181  27.565  28.972   1.338
10709W        W79182  11.258  25.115  12.512
10710W        W79183  27.141   8.224   4.285
10711W        W79184   8.379   9.686   3.225
10712W        W79185   7.726  40.821  11.393
10713W        W79186   3.742  35.545  12.851
10714W        W79187   4.304   8.654   0.244
10715W        W79188  19.267  26.979   0.805
10716W        W79189  26.188  16.593  11.872
10717W        W79190  28.505   7.200  12.846
10718W        W79191  22.199   5.756   3.734
10719W        W79192  39.014   2.798  12.848
10720W        W79193  31.504  13.275   2.797
10721W        W79194   5.315  13.298  13.028
10722W        W79195  19.541  22.006  12.558
10723W        W79196  23.212  13.261   1.845
10724W        W79197  31.538  16.230   3.302
10725W        W79198  36.907  22.066  10.627
10726W        W79199  44.318  22.037   0.863
10727W        W79200  31.084  28.008   4.657
10728W        W79201  36.890  13.704   3.668
10729W        W79202   5.724  35.450   0.754
10730W        W79203   4.408   1.835  11.982
10731W        W79204   6.889   4.218  14.992
10732W        W79205   2.421   9.211  14.399
10733W        W79206   7.684   5.217   3.697
10734W        W79207  41.903  12.151   2.705
10735W        W79208  14.600  20.579  14.991
10736W        W79209   7.413   6.424  12.399
10737W        W79210  22.146  19.141   3.773
10738W        W79211  41.991  37.835   0.404
10739W        W79212   6.680  21.234  13.064
10740W        W79213  37.444   7.173   0.899
10741W        W79214   3.752  38.522   0.915
10742W        W79215  29.641  15.281   1.435
10743W        W79216  21.684  31.911  14.986
10744W        W79217  15.178  34.871  14.904
10745W        W79218  44.338  13.176  14.006
10746W        W79219   3.412  16.212   0.814
10747W        W79220  42.792  27.994  11.583
10748W        W79221  40.437  24.222   4.147
10749W        W79222  33.471  22.230   3.317
10750W        W79223  24.985  24.654   2.754
10751W        W79224  43.982  14.768  12.563
10752W        W79225  12.670   6.823  13.377
10753W        W79226   3.866  36.089  10.519
10754W        W79227  34.075  23.593   4.800
10755W        W79228  37.508  44.260   9.934
10756W        W79229  24.656  29.586  14.463
10757W        W79230  43.332   7.368  10.930
10758W        W79231  32.534   4.897  10.064
10759W        W79232   9.338  35.890   4.725
10760W        W79233   2.442  25.671   4.235
10761W        W79234  38.481  17.274   4.681
10762W        W79235  12.832   5.816  12.944
10763W        W79236  44.369  38.843  13.015
10764W        W79237  12.338   6.889   1.322
10765W        W79238  31.479  43.960   4.237
10766W        W79239  29.630  44.840   4.786
10767W        W79240  24.166  16.318  12.453
10768W        W79241  37.924  10.274   9.995
10769W        W79242   4.735  24.183  14.376
10770W        W79243  24.031  16.079  12.838
10771W        W79244   2.420  33.404  12.537
10772W        W79245   4.878   8.218   4.822
10773W        W79246  10.156   8.839   0.747
10774W        W79247  17.709  28.963   4.182
10775W        W79248   8.307   6.874   4.628
10776W        W79249   0.849   9.163  12.551
10777W        W79250   7.190  13.793   5.755
10778W        W79251  40.004  11.265   2.363
10779W        W79252  35.595  29.612  14.895
10780W        W79253  11.837  25.981   3.681
10781W        W79254  28.539  22.691   3.650
10782W        W79255  27.978  29.550   3.666
10783W        W79256   2.451  40.516   2.668
10784W        W79257  17.163   7.407  10.058
10785W        W79258  13.784  18.651   0.944
10786W        W79259   6.815  36.896   3.706
10787W        W79260  39.923   0.864  13.822
10788W        W79261   6.681  34.523  13.995
10789W        W79262   8.690  39.964   4.741
10790W        W79263   9.787  12.254   0.902
10791W        W79264  31.503   0.807   1.303
10792W        W79265  13.210  37.494  12.980
10793W        W79266   6.224  23.998  12.407
10794W        W79267  12.672   0.284  13.846
10795W        W79268  36.899  25.070  14.469
10796W        W79269   8.325  20.237   3.203
10797W        W79270   2.830  14.742  12.513
10798W        W79271  29.444  41.024   1.917
10799W        W79272  40.014   3.390  11.922
10800W        W79273  36.910  25.133   3.278
10801W        W79274  19.639  43.839   4.256
10802W        W79275  19.766   5.926  14.765
10803W        W79276  18.684  22.696   2.413
10804W        W79277  22.695  36.060   3.319
10805W        W79278  31.465  20.076  14.990
10806W        W79279  12.670   0.873   4.671
10807W        W79280  27.571  31.639  11.426
10808W        W79281   9.298  11.859  12.378
10809W        W79282  19.702   0.987  13.434
10810W        W79283   4.222  38.066   4.333
10811W        W79284   6.245  41.931   1.824
10812W        W79285  26.053  39.019   3.175
10813W        W79286  21.693  29.642   2.365
10814W        W79287  15.270   5.729   4.130
10815W        W79288   7.344  26.043   4.314
10816W        W79289  37.961  14.101   1.409
10817W        W79290  42.789   5.231   4.300
10818W        W79291   9.353  20.204   1.864
10819W        W79292   5.850   5.410  12.375
10820W        W79293  32.022  32.959  13.478
10821W        W79294  35.944  18.548  13.379
10822W        W79295   0.424  23.194  14.991
10823W        W79296  29.060  16.181  10.901
10824W        W79297  24.561  11.857  11.113
10825W        W79298  14.330  36.975   1.369
10826W        W79299  20.616  18.773  13.546
10827W        W79300  23.103   5.738   2.393
10828W        W79301  37.053  29.057   3.179
10829W        W79302  38.468   1.248   3.211
10830W        W79303  22.516  40.000  12.442
10831W        W79304   5.796  41.000   2.288
10832W        W79305  15.208  34.073  14.910
10833W        W79306   9.194   0.349   0.791
10834W        W79307  33.406  27.119   2.760
10835W        W79308   9.273  31.458  10.476
10836W        W79309  31.007  18.568  13.807
10837W        W79310  12.183  38.343   4.147
10838W        W79311  41.978  37.846   4.303
10839W        W79312  11.146  30.114   3.838
10840W        W79313  20.096  36.495  11.572
10841W        W79314  38.987  28.601  10.578
10842W        W79315  21.532   3.245  13.818
10843W        W79316   9.861  30.925   0.945
10844W        W79317   3.818   4.714   1.926
10845W        W79318  16.610  36.415  10.916
10846W        W79319   8.374  33.439  14.973
10847W        W79320  24.577   7.860   1.860
10848W        W79321   2.242  19.618   5.221
10849W        W79322  40.836  35.944   1.368
10850W        W79323  16.301  39.030   3.227
10851W        W79324   6.346  33.597   5.309
10852W        W79325  42.409   8.330   4.784
10853W        W79326  32.584   9.168   1.840
10854W        W79327  36.049  42.345   4.758
10855W        W79328  33.468  42.502  12.460
10856W        W79329  27.589  13.656   0.905
10857W        W79330  18.779   6.713   4.344
10858W        W79331  22.713  44.001   2.757
10859W        W79332   2.355  21.126   2.288
10860W        W79333   6.229   2.722  11.112
10861W        W79334  43.446  34.509  14.837
10862W        W79335  33.454  31.984   3.719
10863W        W79336   9.205  31.558   2.378
10864W        W79337  41.028  32.500   4.734
10865W        W79338  23.062  40.346  13.403
10866W        W79339  14.697  39.909  11.036
10867W        W79340  17.730   2.361  12.972
10868W        W79341  16.575  33.042  14.323
10869W        W79342  29.513  42.467   0.445
10870W        W79343  44.464  43.899   3.717
10871W        W79344  42.827  38.845   2.216
10872W        W79345   2.283  16.131  11.493
10873W        W79346   2.366  21.248  14.797
10874W        W79347  23.153  14.252  14.764
10875W        W79348   3.232  13.682  12.934
10876W        W79349   8.679  42.396   0.726
10877W        W79350  26.587  22.167  11.416
10878W        W79351   2.869  36.895   3.178
10879W        W79352  34.872  21.163   4.114
10880W        W79353  11.196  28.965   0.479
10881W        W79354   3.730  16.257  12.491
10882W        W79355  22.629  35.921  10.926
10883W        W79356  37.944  11.248   1.361
10884W        W79357   2.889  33.593   2.352
10885W        W79358  31.948  30.567   0.262
10886W        W79359  28.988  19.720   3.629
10887W        W79360  27.639  36.375  11.413
10888W        W79361  27.553  27.102   0.728
10889W        W79362   9.170  36.941  14.378
10890W        W79363  23.711  24.058   2.283
10891W        W79364  41.928  40.332   2.211
10892W        W79365  18.285  24.692  12.539
10893W        W79366  25.159  16.711  13.839
10894W        W79367  11.169  35.542   2.661
10895W        W79368  38.927  16.593   4.624
10896W        W79369  39.396  16.646   0.368
10897W        W79370  24.150  31.974  10.098
10898W        W79371  42.452   3.356   0.339
10899W        W79372   6.423  20.196  12.853
10900W        W79373  32.917   1.932   1.696
10901W        W79374   5.866  26.117   1.253
10902W        W79375   3.284  41.859  11.931
10903W        W79376   6.282  30.416  14.844
10904W        W79377  39.338   3.376   4.246
10905W        W79378   4.705   8.307   3.812
10906W        W79379  30.144  21.260  12.898
10907W        W79380  21.731  24.100   0.304
10908W        W79381  42.288   8.197   1.694
10909W        W79382  19.672   5.778  11.609
10910W        W79383  41.861  15.610   1.245
10911W        W79384  24.661  39.834   3.378
10912W        W79385  12.178  24.196   0.798
10913W        W79386   1.916  27.038   1.855
10914W        W79387  42.865  29.925  13.036
10915W        W79388  18.587  33.054  14.395
10916W        W79389  17.220  35.078  14.420
10917W        W79390   2.781  16.695  11.887
10918W        W79391  18.733  21.679  11.428
10919W        W79392  28.968   3.796   1.860
10920W        W79393  35.423   4.394  12.369
10921W        W79394  26.551  43.465  11.071
10922W        W79395  13.200  36.509   2.293
10923W        W79396  21.684  13.679   5.189
10924W        W79397  10.202  17.289  14.782
10925W        W79398   0.897  17.660  10.610
10926W        W79399   7.706  19.674   0.749
10927W        W79400  34.569   0.765   4.777
10928W        W79401  20.158  22.017   1.840
10929W        W79402  18.235  43.347  14.906
10930W        W79403  34.478  26.553   4.220
10931W        W79404  36.958  33.399  12.527
10932W        W79405  40.314  36.085   3.661
10933W        W79406  20.563  35.592  12.443
10934W        W79407  20.189   2.799   4.233
10935W        W79408  14.616  31.053  10.986
10936W        W79409  23.730  16.244   1.358
10937W        W79410  30.426  28.574   0.893
10938W        W79411  16.289  24.211  13.057
10939W        W79412  42.788  29.055  13.936
10940W        W79413  26.189  34.984   2.884
10941W        W79414   0.320  36.859   1.848
10942W        W79415  25.181  27.049   2.813
10943W        W79416  36.364   1.940  10.121
10944W        W79417   6.734  16.142   4.637
10945W        W79418   9.279  34.485  11.870
10946W        W79419  15.198  18.203   4.295
10947W        W79420  39.005  39.459   1.252
10948W        W79421  10.306  17.226   0.959
10949W        W79422  16.234  25.682  12.394
10950W        W79423   8.739  15.809   3.224
10951W        W79424  24.658  22.076   0.472
10952W        W79425  12.663  11.746  14.862
10953W        W79426   1.895  43.286  12.878
10954W        W79427  10.712  39.981  13.360
10955W        W79428  23.153  23.207   2.344
10956W        W79429  19.690  44.857   2.242
10957W        W79430   6.780  29.123  12.853
10958W        W79431   0.368  18.684   3.852
10959W        W79432  33.518   8.779   1.795
10960W        W79433   7.307  22.667  12.572
10961W        W79434   1.780   0.850   1.932
10962W        W79435   5.872  20.062  11.946
10963W        W79436  43.282  43.823  13.360
10964W        W79437  28.105   1.861   3.674
10965W        W79438  33.591  21.088   4.623
10966W        W79439  21.174  27.182   3.651
10967W        W79440  19.084   3.292   2.720
10968W        W79441  26.569  41.010  13.487
10969W        W79442  43.874  17.721   1.838
10970W        W79443  43.327  33.552  14.935
10971W        W79444  17.077  25.074  14.819
10972W        W79445  37.946  19.047   4.644
10973W        W79446   3.222  22.598   4.315
10974W        W79447   6.406   1.738   3.342
10975W        W79448  21.675  17.182  13.811
10976W        W79449  33.997  10.791   1.270
10977W        W79450  36.896  29.105  10.408
10978W        W79451   1.363  38.371  14.300
10979W        W79452  15.218   7.882  13.929
10980W        W79453  30.568   1.320  14.989
10981W        W79454  28.642   1.473   2.874
10982W        W79455  22.514  23.029  13.496
10983W        W79456  36.546  39.052  14.877
10984W        W79457  11.224  19.222   4.176
10985W        W79458   7.205  17.783  12.884
10986W        W79459  33.094  16.801  13.529
10987W        W79460   5.860  37.404   4.715
10988W        W79461  27.572  13.265   1.739
10989W        W79462  20.173  43.362  14.467
10990W        W79463  33.486   7.238  14.305
10991W        W79464  17.717  31.439  14.989
10992W        W79465  26.075   0.305  13.886
10993W        W79466  38.527  39.835   2.184
10994W        W79467   8.398  36.886  11.403
10995W        W79468   1.792  41.884   2.665
10996W        W79469   6.406  19.566  14.842
10997W        W79470  35.918  21.239   1.418
10998W        W79471  29.120  18.191   3.325
10999W        W79472   2.408  39.386   0.382
11000W        W79473  17.772  44.835   1.867
11001W        W79474   4.269  33.069   1.825
11002W        W79475  32.924   1.754  11.448
11003W        W79476   7.321  29.949   4.300
11004W        W79477  28.119   0.480   1.445
11005W        W79478  34.460  41.452  13.532
11006W        W79479  26.661   0.295   3.748
11007W        W79480  27.148  37.920  13.002
11008W        W79481   2.940  32.915   3.706
11009W        W79482  40.500  34.384   4.836
11010W        W79483  10.175   4.792  14.762
11011W        W79484   5.281  22.057  11.896
11012W        W79485  10.801  30.932  10.947
11013W        W79486  38.863  35.077  11.973
11014W        W79487  42.936  15.248  14.929
11015W        W79488  38.549  15.165  14.494
11016W        W79489  27.668  44.430  12.065
11017W        W79490  20.152  33.992   1.444
11018W        W79491  31.611  37.011   0.459
11019W        W79492  44.457  44.784   1.741
11020W        W79493  44.354  41.465  13.997
11021W        W79494  21.148  38.873  14.019
11022W        W79495  18.250  13.623  14.817
11023W        W79496  18.639   6.306  12.362
11024W        W79497   2.775  11.862   0.316
11025W        W79498  38.368  31.527   2.864
11026W        W79499   0.447  40.942   4.788
11027W        W79500  27.102  26.112  12.971
11028W        W79501  40.335  35.556  14.454
11029W        W79502  32.438  26.135  10.128
11030W        W79503  13.318  40.823   0.763
11031W        W79504   5.382  31.501  11.987
11032W        W79505  17.061  24.584   2.825
11033W        W79506  24.500  38.886   2.320
11034W        W79507   5.391  44.009  14.472
11035W        W79508  41.511  12.292  12.383
11036W        W79509  34.461  29.159   1.310
11037W        W79510  14.664  44.845  10.928
11038W        W79511  21.704   3.873   1.296
11039W        W79512  24.211   5.436  14.898
11040W        W79513  40.937   4.786  11.412
11041W        W79514   3.922   7.687   1.238
11042W        W79515  35.088   8.844  13.334
11043W        W79516  15.201  15.114   1.256
11044W        W79517  24.196   3.710   4.811
11045W        W79518  37.920  23.704  13.350
11046W        W79519  13.705   0.815   2.872
11047W        W79520  26.177  39.524  14.446
11048W        W79521  21.542  30.533  11.483
11049W        W79522  26.016  28.011  14.029
11050W        W79523   3.758  14.231  11.948
11051W        W79524  35.916  22.503  13.968
11052W        W79525  27.636  22.608   1.318
11053W        W79526   2.777  22.138   2.407
11054W        W79527  42.944  10.323   1.431
11055W        W79528  20.701  26.191  10.489
11056W        W79529  29.101  27.971  12.049
11057W        W79530  19.062   4.396  11.937
11058W        W79531  10.635  28.530   2.796
11059W        W79532  29.124  13.339   2.878
11060W        W79533  33.610   4.290   2.901
11061W        W79534  28.993   5.215   4.626
11062W        W79535  37.017  16.757  14.315
11063W        W79536  26.965  28.970  11.930
11064W        W79537   8.679  44.429   1.404
11065W        W79538  35.074  24.657  10.510
11066W        W79539  10.871   8.326   1.794
11067W        W79540  29.441  19.176   3.243
11068W        W79541   0.925  37.375   4.613
11069W        W79542  12.733  43.923   1.265
11070W        W79543  15.716  44.491  13.797
11071W        W79544   4.249   1.346   4.634
11072W        W79545  44.979   5.927   0.939
11073W        W79546  27.967   2.294  14.467
11074W        W79547  26.688  29.015   0.477
11075W        W79548  15.615   4.284  11.556
11076W        W79549  31.569  15.292   4.340
11077W        W79550  13.703  20.169  13.480
11078W        W79551  13.289  42.457   4.619
11079W        W79552  34.938   7.385   9.973
11080W        W79553  24.150   4.791   0.825
11081W        W79554  27.491  20.743  14.860
11082W        W79555   3.303  40.005   2.295
11083W        W79556  24.703  41.019   0.282
11084W        W79557  33.566  39.532  12.381
11085W        W79558   8.762  27.151   3.359
11086W        W79559  44.458  13.268  12.485
11087W        W79560   3.954   6.900  13.897
11088W        W79561  14.597   7.725   2.243
11089W        W79562   7.720  29.662  13.521
11090W        W79563   3.910  39.552   3.228
11091W        W79564  39.866  15.681  14.864
11092W        W79565   6.685  35.105  13.828
11093W        W79566   5.852  42.435   0.290
11094W        W79567  42.840  35.920   0.930
11095W        W79568  20.624  23.212  12.460
11096W        W79569  12.679  16.765   3.682
11097W        W79570   3.275  12.286  11.477
11098W        W79571  10.658  18.193  12.849
11099W        W79572  19.570  14.628   0.295
11100W        W79573  24.024  18.270   1.211
11101W        W79574   4.894  10.337   2.731
11102W        W79575  39.446  17.770   3.805
11103W        W79576  33.501  36.403   3.239
11104W        W79577  20.166   5.763   2.834
11105W        W79578  34.013  38.012  14.298
11106W        W79579   2.397  32.039   4.727
11107W        W79580  20.768  20.623  12.869
11108W        W79581  37.848  21.208   4.262
11109W        W79582  35.011  39.331  13.331
11110W        W79583  30.481   0.872  13.836
11111W        W79584  23.612  42.287   1.840
11112W        W79585  40.046  30.454   2.880
11113W        W79586  14.834  13.835   3.686
11114W        W79587  38.004  37.492   0.417
11115W        W79588  19.622   0.461  12.479
11116W        W79589  26.457  40.361   1.705
11117W        W79590  31.055   9.810   0.883
11118W        W79591  22.181   6.413  14.313
11119W        W79592   9.251  14.822  13.406
11120W        W79593  16.292   7.907   2.846
11121W        W79594  22.115  14.333   3.803
11122W        W79595  22.245  41.887  13.967
11123W        W79596  18.746  35.041  13.365
11124W        W79597  37.855  26.973  11.412
11125W        W79598  30.159   0.821   3.694
11126W        W79599   7.292  29.159  13.404
11127W        W79600  19.264  32.067   1.868
11128W        W79601   8.754  42.469   3.179
11129W        W79602  39.984   9.735  13.034
11130W        W79603   8.340  29.594  14.418
11131W        W79604  38.457  31.135   3.787
11132W        W79605  20.132   3.843  12.841
11133W        W79606   6.291  38.509  13.374
11134W        W79607  34.969   0.293   0.259
11135W        W79608  20.726  42.988   2.873
11136W        W79609   9.678  44.926  10.587
11137W        W79610   4.874  31.043   4.598
11138W        W79611  10.732  33.560   3.718
11139W        W79612   1.909  25.049   2.201
11140W        W79613  36.011  41.853  12.343
11141W        W79614  21.226   9.767  11.572
11142W        W79615  27.076  16.083   3.356
11143W        W79616  32.929   8.794   1.354
11144W        W79617   0.384   6.803   0.398
11145W        W79618  37.526   4.872   3.302
11146W        W79619  41.900   0.483  13.346
11147W        W79620  37.986  13.643   3.821
11148W        W79621  18.561  29.464  14.417
11149W        W79622  28.451  41.952  14.422
11150W        W79623  32.123  12.674   0.319
11151W        W79624  12.777  19.609   1.211
11152W        W79625  16.107  29.032  12.923
11153W        W79626  13.112  14.211   4.801
11154W        W79627  41.405   4.422   2.361
11155W        W79628  36.966  10.763  13.039
11156W        W79629  33.410  30.420  12.901
11157W        W79630   7.255  38.820  11.455
11158W        W79631  31.541   8.253   1.332
11159W        W79632  28.666  23.723   1.332
11160W        W79633  12.162  38.014  13.530
11161W        W79634   2.259  15.270  14.847
11162W        W79635  15.119  35.363   0.935
11163W        W79636   0.946  34.020   2.694
11164W        W79637  35.561   4.369  13.514
11165W        W79638  18.610  36.868   4.236
11166W        W79639   6.423  36.436   4.218
11167W        W79640  26.153  31.568   3.177
11168W        W79641  15.167  15.603  13.845
11169W        W79642   4.786  34.980   1.305
11170W        W79643  15.214   4.385   4.134
11171W        W79644   0.374  31.123   0.928
11172W        W79645  24.995  35.043  12.988
11173W        W79646  20.220  11.156   3.861
11174W        W79647   6.902  27.944  11.927
11175W        W79648  36.501  15.260   1.753
11176W        W79649  32.068  25.186   2.839
11177W        W79650   3.337  36.556  13.996
11178W        W79651  36.568  25.023  11.431
11179W        W79652  23.533  23.120  12.001
11180W        W79653   0.301  20.680   1.713
11181W        W79654  20.563  36.860  12.446
11182W        W79655   8.766  21.029   1.280
11183W        W79656  16.299  31.130  14.308
11184W        W79657  44.815  20.641   0.429
11185W        W79658  29.504  28.455  12.961
11186W        W79659  21.715  42.912   0.784
11187W        W79660  21.134   2.442  13.315
11188W        W79661  23.159  35.556   3.815
11189W        W79662  11.631  41.011   1.379
11190W        W79663   1.878   8.772   0.936
11191W        W79664  31.093   1.408  13.422
11192W        W79665  15.225   5.286  11.375
11193W        W79666  36.451  14.732  14.492
11194W        W79667   5.317  31.923  14.300
11195W        W79668  18.655  12.182  11.569
11196W        W79669  33.067  19.748  11.929
11197W        W79670  12.844   2.338  13.851
11198W        W79671  17.217  34.105  13.478
11199W        W79672   7.722   4.768   9.551
11200W        W79673  22.687   4.887   4.256
11201W        W79674  21.120  28.986   2.288
11202W        W79675   4.289  38.429   0.462
11203W        W79676  14.710  33.519  12.973
11204W        W79677   2.440  33.489  14.345
11205W        W79678  16.318  20.150  11.008
11206W        W79679   0.774  22.583   0.401
11207W        W79680   3.293   3.287   4.688
11208W        W79681  29.517  11.794   1.421
11209W        W79682  38.828  21.520  10.973
11210W        W79683  38.987  22.559  14.843
11211W        W79684   2.252   6.920  10.571
11212W        W79685  43.904  17.725   1.337
11213W        W79686   6.232  35.600   0.891
11214W        W79687  27.983  17.089  12.352
11215W        W79688  25.577  38.918  12.877
11216W        W79689  39.372  22.742   0.349
11217W        W79690  40.308  44.292   1.281
11218W        W79691   2.833  33.031  12.435
11219W        W79692   4.207  42.951   2.777
11220W        W79693  39.408  33.384   2.707
11221W        W79694  31.549  36.884   2.342
11222W        W79695  33.385   4.262  10.496
11223W        W79696  23.635   0.764  13.905
11224W        W79697  42.813  30.631   1.318
11225W        W79698  17.560  32.067  11.070
11226W        W79699   9.204  14.833  11.058
11227W        W79700  17.234  20.732   3.382
11228W        W79701  26.149  26.055   3.287
11229W        W79702  17.177  33.001   4.811
11230W        W79703  44.500  37.943  14.021
11231W        W79704  24.607   1.344   3.736
11232W        W79705  15.159  15.274  10.964
11233W        W79706  19.692  42.461  12.932
11234W        W79707  13.702  12.253   0.915
11235W        W79708   9.807  21.137  13.905
11236W        W79709   7.197  39.399  10.428
11237W        W79710  35.890  32.117   0.792
11238W        W79711  34.508  25.178   3.726
11239W        W79712  32.406  34.597   4.798
11240W        W79713   8.258  26.638   4.267
11241W        W79714  44.415  39.900  11.898
11242W        W79715   7.363  11.290   1.826
11243W        W79716  15.316  10.159  12.479
11244W        W79717  13.112  11.821   4.603
11245W        W79718  32.004  10.266  12.524
11246W        W79719   5.920  12.171  10.504
11247W        W79720   7.257  34.097  14.392
11248W        W79721  36.460  39.043   4.347
11249W        W79722  26.045  19.091  14.010
11250W        W79723  17.164  20.165   4.313
11251W        W79724  32.905  22.683   0.864
11252W        W79725  16.238   5.377   2.299
11253W        W79726  29.929  11.737  10.446
11254W        W79727   3.280  36.870   2.332
11255W        W79728  22.636   0.842   5.176
11256W        W79729   5.193  31.519  12.536
11257W        W79730   9.335   4.781  13.891
11258W        W79731  31.604  18.633   3.647
11259W        W79732  30.128  18.154   3.255
11260W        W79733  26.665  21.164   5.292
11261W        W79734  19.044  42.442  14.892
11262W        W79735  11.816  11.854  11.895
11263W        W79736  33.938   6.221   3.744
11264W        W79737  27.133  21.206   3.859
11265W        W79738   8.745   1.444   0.787
11266W        W79739  20.034  19.101  10.645
11267W        W79740  22.092   8.270   0.869
11268W        W79741  39.012  20.733   3.653
11269W        W79742  13.660  17.633   0.775
11270W        W79743   4.411  36.392   0.784
11271W        W79744  25.657  20.094  12.940
11272W        W79745   9.150   2.883   4.156
11273W        W79746   3.799  31.498  14.962
11274W        W79747  13.266  12.679   4.324
11275W        W79748   4.227  42.978  13.043
11276W        W79749  17.220   8.685  12.432
11277W        W79750   4.881  16.795  12.352
11278W        W79751  38.403  14.215   4.674
11279W        W79752  33.413  24.633   4.785
11280W        W79753  16.655   0.379   2.295
11281W        W79754   1.788   7.742  10.940
11282W        W79755  15.710  17.742   0.747
11283W        W79756  22.550   4.255  10.487
11284W        W79757  24.639  18.677  13.495
11285W        W79758  29.042  27.195   2.336
11286W        W79759   5.290  10.683  11.121
11287W        W79760  10.307   3.894   2.674
11288W        W79761  22.221  20.237  13.324
11289W        W79762  42.015  14.731  10.422
11290W        W79763   3.403   4.419   2.837
11291W        W79764  13.830  30.510  13.311
11292W        W79765   5.705  11.160   0.843
11293W        W79766  11.343   1.939  13.846
11294W        W79767  40.372  35.598   3.151
11295W        W79768  43.481  38.329   2.734
11296W        W79769  12.355  42.385   3.650
11297W        W79770  31.037  29.445   4.624
11298W        W79771  27.017  13.717  12.873
11299W        W79772  21.755   5.928  11.068
11300W        W79773  10.275  35.478   3.281
11301W        W79774  15.257  32.977  14.512
11302W        W79775  18.072  18.288   3.186
11303W        W79776  17.218  34.457  10.483
11304W        W79777   4.770   1.772  11.920
11305W        W79778  24.113  19.100   2.789
11306W        W79779  31.980  43.812  14.323
11307W        W79780  18.139  44.923   2.667
11308W        W79781  28.125  41.007  13.939
11309W        W79782  26.055   4.740  13.884
11310W        W79783  32.896  21.666  14.939
11311W        W79784  43.415  14.793  13.867
11312W        W79785  44.447   7.175   0.808
11313W        W79786  21.615  34.965   3.300
11314W        W79787  13.123  41.866  13.992
11315W        W79788  32.059  35.041   0.251
11316W        W79789  32.597   6.421   0.326
11317W        W79790  29.630  23.604   2.869
11318W        W79791  12.333  44.303   4.197
11319W        W79792  13.234  41.371   1.699
11320W        W79793  32.570   9.242  10.490
11321W        W79794  21.705  31.581   0.285
11322W        W79795   3.721  24.172  14.338
11323W        W79796  41.803  40.485   4.792
11324W        W79797  13.659   8.753  10.590
11325W        W79798   1.870  36.363  14.310
11326W        W79799  11.772  26.652  14.899
11327W        W79800  16.236  36.061  13.931
11328W        W79801   6.295  13.272  12.987
11329W        W79802   1.457  42.399  11.902
11330W        W79803   3.732   9.368   0.432
11331W        W79804  28.086  31.902  12.452
11332W        W79805  38.533   2.814   0.403
11333W        W79806  14.696  28.140  14.481
11334W        W79807   4.893   2.358  12.444
11335W        W79808  31.918  31.070   1.911
11336W        W79809  11.697  23.087  12.933
11337W        W79810  10.815  36.516   2.404
11338W        W79811  14.276   5.209   0.243
11339W        W79812  34.386   3.356  13.483
11340W        W79813  22.519  43.316  10.972
11341W        W79814   0.393  14.609   0.776
11342W        W79815  31.068   3.814   1.798
11343W        W79816  11.849  43.996  11.380
11344W        W79817  32.393   4.798  13.526
11345W        W79818  21.018  35.915  14.829
11346W        W79819  36.357  10.838  11.098
11347W        W79820  32.899  34.458  11.528
11348W        W79821   5.846   9.669   2.271
11349W        W79822  32.018   8.894   1.764
11350W        W79823   8.816  39.850   0.940
11351W        W79824  11.791  22.229  13.343
11352W        W79825  43.935  29.524  14.795
11353W        W79826  22.587  31.906  10.940
11354W        W79827  35.419  28.596   0.964
11355W        W79828  39.931  43.388   4.282
11356W        W79829  12.208  11.225  14.003
11357W        W79830  15.291  27.161   1.222
11358W        W79831  37.962  43.810  11.988
11359W        W79832  44.373  32.433   0.870
11360W        W79833  19.050  22.520   4.256
11361W        W79834  10.745  41.806  10.464
11362W        W79835  17.582  26.548   3.327
11363W        W79836  37.497  19.668   3.305
11364W        W79837   2.789   5.849  14.866
11365W        W79838  11.774  32.507   4.828
11366W        W79839  22.501   3.720   3.705
11367W        W79840  29.096  44.891  10.452
11368W        W79841   2.925  27.574   0.907
11369W        W79842   4.933  20.273   1.705
11370W        W79843  24.654  22.558  14.894
11371W        W79844  26.069  15.086  12.885
11372W        W79845   9.292   2.283  12.964
11373W        W79846  28.125  25.991   2.229
11374W        W79847  12.281   2.902  13.030
11375W        W79848  24.022  24.191   0.792
11376W        W79849   5.399  40.916  14.938
11377W        W79850   5.917  28.572   0.816
11378W        W79851  20.050  20.649   2.374
11379W        W79852  29.424   1.853  12.381
11380W        W79853  28.009  11.332  12.001
11381W        W79854  39.521   2.302   3.844
11382W        W79855  21.582  11.806  10.442
11383W        W79856  31.927  44.272  14.955
11384W        W79857   3.246  30.607   4.145
11385W        W79858   8.829  21.258   3.217
11386W        W79859  27.565  11.682   2.796
11387W        W79860  27.155   7.354  10.945
11388W        W79861  23.080  16.710  11.016
11389W        W79862  10.762  22.572  14.391
11390W        W79863  30.569   3.951  13.889
11391W        W79864  19.179  31.093  11.043
11392W        W79865  36.365  11.826  14.822
11393W        W79866  24.689  40.044  13.928
11394W        W79867  15.292  17.742   3.210
11395W        W79868   7.899  25.190   5.140
11396W        W79869  13.219  29.043   0.790
11397W        W79870  15.097   5.782   4.742
11398W        W79871  42.512  18.147  12.369
11399W        W79872   0.920  41.353  14.996
11400W        W79873  39.884   2.324  14.480
11401W        W79874  44.464  41.479   2.778
11402W        W79875   2.749  32.392  14.449
11403W        W79876  35.879   4.388  11.027
11404W        W79877  32.127  39.918  14.866
11405W        W79878  10.330  41.994  14.406
11406W        W79879  43.477  27.686  11.867
11407W        W79880  12.734  37.923  13.062
11408W        W79881   2.238  33.893  14.872
11409W        W79882   7.270  37.558  12.855
11410W        W79883  13.154   6.323   0.450
11411W        W79884  12.346   6.336  12.998
11412W        W79885  16.157  18.668   4.817
11413W        W79886   6.748  16.669   1.224
11414W        W79887  39.970  23.633  13.832
11415W        W79888  28.030   7.721   0.908
11416W        W79889  32.607  33.380   3.291
11417W        W79890  25.055  21.056  13.476
11418W        W79891  19.146  19.040  13.868
11419W        W79892  22.209  39.527   2.336
11420W        W79893  39.522  36.983  14.282
11421W        W79894   7.221  36.410  12.492
11422W        W79895  44.757  40.997  10.583
11423W        W79896   8.760  14.132  14.402
11424W        W79897  26.952  40.305  12.489
11425W        W79898  20.238  25.193  10.475
11426W        W79899  14.793  21.735  14.930
11427W        W79900  30.015  23.648   3.371
11428W        W79901   8.659  22.719   4.153
11429W        W79902  29.080   3.323  13.366
11430W        W79903  21.133  21.517  13.534
11431W        W79904   0.400  34.041   2.873
11432W        W79905   5.202  44.356   4.642
11433W        W79906  40.303   8.892  11.441
11434W        W79907  36.498  23.723   2.355
11435W        W79908   4.437   3.834   1.726
11436W        W79909  32.978  32.000  11.891
11437W        W79910  44.771  37.980  13.360
11438W        W79911   1.297  31.987   1.868
11439W        W79912  28.534  38.468   0.835
11440W        W79913   1.785  37.531  13.877
11441W        W79914  33.995   1.324  14.829
11442W        W79915  38.419  13.738   1.787
11443W        W79916  11.314  36.565  10.608
11444W        W79917   1.362  32.392  10.431
11445W        W79918  31.921  25.984  12.344
11446W        W79919  20.206  44.942  14.392
11447W        W79920  42.417  23.588  13.452
11448W        W79921  41.041  24.690  13.368
11449W        W79922   0.448  15.282   4.171
11450W        W79923  18.741   3.411   0.323
11451W        W79924  24.670   7.864  14.503
11452W        W79925  14.789  22.173   1.210
11453W        W79926  27.676   0.886  13.867
11454W        W79927   7.679  44.366  12.988
11455W        W79928   6.700  28.075  12.581
11456W        W79929  18.149   3.449   0.939
11457W        W79930  33.923  42.514   3.228
11458W        W79931  21.122  22.113  12.418
11459W        W79932   1.972  34.554   4.298
11460W        W79933   3.719  39.991  12.070
11461W        W79934  20.723  22.141  11.953
11462W        W79935   6.305  37.443   5.144
11463W        W79936  30.581   5.383   4.139
11464W        W79937  17.626  37.982  10.948
11465W        W79938  40.442  32.964   3.342
11466W        W79939   8.289   1.885  11.975
11467W        W79940  31.433  23.986  13.324
11468W        W79941  42.415  41.376   1.290
11469W        W79942   3.316  40.906  14.494
11470W        W79943  21.628  27.667  13.856
11471W        W79944  13.748  36.099  11.058
11472W        W79945  29.665   9.169  12.044
11473W        W79946   3.852  13.271   1.280
11474W        W79947   9.672  33.497   5.134
11475W        W79948   3.751  25.048   3.697
11476W        W79949  41.327  11.729   1.866
11477W        W79950  35.593  26.990  14.293
11478W        W79951  23.216  29.512   2.210
11479W        W79952  11.344   9.250   3.260
11480W        W79953   6.873  30.926   4.337
11481W        W79954  29.548  38.923  14.819
11482W        W79955  37.533   1.976  11.010
11483W        W79956  36.555  42.807   1.789
11484W        W79957  34.960  11.665  13.468
11485W        W79958  14.242  23.680   3.871
11486W        W79959  43.471  28.171  11.070
11487W        W79960  28.492  37.534  10.556
11488W        W79961  35.060   8.793  14.973
11489W        W79962  25.504  20.669   3.301
11490W        W79963  10.346  32.990   4.606
11491W        W79964  35.101  24.584  11.019
11492W        W79965  10.274  34.608  10.442
11493W        W79966  12.139  24.553  10.989
11494W        W79967  26.166  12.215   4.608
11495W        W79968  26.518  25.565  11.943
11496W        W79969  14.135  21.203  14.003
11497W        W79970  18.173  24.141  14.837
11498W        W79971   7.800   5.224   9.929
11499W        W79972  14.829   2.413  14.947
11500W        W79973  38.352   9.701  13.966
11501W        W79974  35.872   6.259   1.803
11502W        W79975   0.348  39.491   2.337
11503W        W79976  40.488  31.539  11.459
11504W        W79977   4.722  33.971   4.205
11505W        W79978   5.280  40.988   0.356
11506W        W79979  39.341  14.676   0.389
11507W        W79980  30.536  33.926   1.797
11508W        W79981  29.962  16.767  14.858
11509W        W79982  29.175  33.964  10.939
11510W        W79983   7.258   6.794   1.337
11511W        W79984   3.784  34.580  11.871
11512W        W79985  33.569  23.675  11.006
11513W        W79986  11.372  13.705  14.355
11514W        W79987   2.452  40.436  11.536
11515W        W79988   6.826  35.008  13.033
11516W        W79989  26.664  38.430   2.367
11517W        W79990  23.716  28.629  13.317
11518W        W79991  43.296  29.142   0.891
11519W        W79992   4.214   4.777  11.864
11520W        W79993  18.598  41.852   0.797
11521W        W79994   1.294  34.031  13.840
11522W        W79995  20.119  11.262   0.370
11523W        W79996  29.432  28.995  14.373
11524W        W79997  35.496  29.012   2.204
11525W        W79998  29.042  26.549   4.167
11526W        W79999  25.115  28.445   3.218
11527W        W80000  39.983  42.812   2.898
11528W        W80001  32.502  21.149  14.350
11529W        W80002  43.964  12.202   1.245
11530W        W80003   4.352   8.168   4.171
11531W        W80004   8.833  17.614  12.424
11532W        W80005  20.116  16.732   3.197
11533W        W80006  42.315  30.476  14.944
11534W        W80007   3.442   2.936   0.791
11535W        W80008   6.920  27.013   2.385
11536W        W80009  11.761  11.807   5.252
11537W        W80010   7.682  36.938  10.997
11538W        W80011  30.069  19.276   1.749
11539W        W80012  26.509   0.320   0.307
11540W        W80013  30.955  13.636  11.966
11541W        W80014  19.208  21.177   3.166
11542W        W80015   8.800  28.935  10.127
11543W        W80016  27.471   8.798   3.702
11544W        W80017   7.871   0.760   4.733
11545W        W80018  28.170  35.371  14.317
11546W        W80019  33.903  14.282   3.824
11547W        W80020   2.342  31.558   3.673
11548W        W80021  38.357   1.274   4.131
11549W        W80022   7.837  26.171  14.937
11550W        W80023  33.577  33.961  11.526
11551W        W80024   4.362  38.929   1.775
11552W        W80025  23.656  11.631  11.887
11553W        W80026  11.856  27.523  10.430
11554W        W80027  25.063  40.425   2.789
11555W        W80028   1.481  12.355   3.238
11556W        W80029  25.061  43.448   0.316
11557W        W80030  36.413  17.672  10.594
11558W        W80031  21.586  38.987  12.088
11559W        W80032  35.395  38.028  12.074
11560W        W80033  20.269  14.802   2.266
11561W        W80034   7.375  36.409   5.223
11562W        W80035  12.240  35.511  12.360
11563W        W80036  35.374  20.689   3.342
11564W        W80037   6.225  25.158   4.704
11565W        W80038  25.616   5.756  10.597
11566W        W80039  22.108   4.805  11.021
11567W        W80040  19.061   2.321   4.832
11568W        W80041  10.253   0.293  12.970
11569W        W80042   8.381  34.606   3.349
11570W        W80043  20.180  10.665  14.891
11571W        W80044   9.889  26.476  12.035
11572W        W80045  32.576  38.909  14.996
11573W        W80046  41.323  12.229   2.277
11574W        W80047  15.197  40.541  11.040
11575W        W80048  30.966  27.457   0.827
11576W        W80049   5.260  20.049   1.430
11577W        W80050  39.908  29.423  12.576
11578W        W80051  16.184  17.249  11.435
11579W        W80052   6.206  25.075  11.895
11580W        W80053  43.885  14.820   0.802
11581W        W80054  15.101  15.637  14.887
11582W        W80055   6.332  38.032   3.316
11583W        W80056  21.678   2.409   4.255
11584W        W80057  37.045  37.539   0.302
11585W        W80058   5.383  10.654  12.397
11586W        W80059  33.891  26.061  10.606
11587W        W80060  15.688  26.582   1.889
11588W        W80061  23.581  31.421   0.920
11589W        W80062  44.364  22.745  10.430
11590W        W80063  38.400  24.567   3.386
11591W        W80064  19.766  29.654   3.317
11592W        W80065  39.314   8.775   4.161
11593W        W80066  34.455  21.737   1.784
11594W        W80067  36.371  37.363  14.295
11595W        W80068  34.428  18.176  14.791
11596W        W80069  38.905  38.007  14.411
11597W        W80070  36.433  27.486  13.953
11598W        W80071  30.933  23.220  11.863
11599W        W80072  12.163  31.121   0.310
11600W        W80073  12.760  39.332   4.667
11601W        W80074   8.168  32.552  13.454
11602W        W80075  28.510  36.593  11.885
11603W        W80076  32.061  30.515   1.305
11604W        W80077  32.390  24.171   2.697
11605W        W80078  10.765  12.768  11.537
11606W        W80079  41.310   3.904   1.857
11607W        W80080  43.989  20.063   0.908
11608W        W80081  33.565  25.162  12.560
11609W        W80082  13.737   8.164   0.961
11610W        W80083  28.665  18.129  11.958
11611W        W80084  33.894  27.982  12.509
11612W        W80085  26.557  40.821  14.469
11613W        W80086  10.378   2.965  10.536
11614W        W80087  30.909  38.534  11.912
11615W        W80088   9.249  41.854   4.622
11616W        W80089  17.253  30.015   1.414
11617W        W80090  35.576   5.364   0.299
11618W        W80091  13.714  34.953  13.015
11619W        W80092  27.016  33.982  11.974
11620W        W80093  37.904   5.786   2.885
11621W        W80094   0.447   9.286   1.881
11622W        W80095  44.435   8.210   2.206
11623W        W80096  24.141  43.911  13.352
11624W        W80097  13.151  10.800  14.965
11625W        W80098   4.340  21.190  13.871
11626W        W80099  37.987  26.994  14.365
11627W        W80100  13.190  34.991  11.456
11628W        W80101  11.372  22.726   1.913
11629W        W80102  32.523  40.543  14.344
11630W        W80103   0.980  14.610  10.442
11631W        W80104  31.432  18.760   0.798
11632W        W80105  41.876  18.722   0.308
11633W        W80106  29.126   4.879  13.966
11634W        W80107  13.773   9.722  12.388
11635W        W80108  13.815  22.205  14.289
11636W        W80109  22.115  39.829  14.763
11637W        W80110  22.149  41.470   2.807
11638W        W80111  42.019  13.335  14.285
11639W        W80112  23.637  43.995  13.539
11640W        W80113  39.811  22.129   1.228
11641W        W80114   4.726   0.373  10.549
11642W        W80115  27.131  34.876   0.739
11643W        W80116  11.644  14.325   5.309
11644W        W80117  16.773  16.713   1.277
11645W        W80118   4.769  27.135   1.766
11646W        W80119   1.753  42.481  13.848
11647W        W80120  43.015  16.768   0.804
11648W        W80121  35.562  31.976   0.440
11649W        W80122  37.485  44.496  14.783
11650W        W80123  21.651  41.387  12.059
11651W        W80124  26.185  23.622  11.119
11652W        W80125  42.506   7.696  11.385
11653W        W80126  38.557  19.281   4.345
11654W        W80127  39.979   5.297   4.353
11655W        W80128   4.905  24.200  11.919
11656W        W80129  16.158  14.731   1.905
11657W        W80130  38.469  13.678   0.482
11658W        W80131  14.659  43.474   0.854
11659W        W80132   3.808  31.920   0.401
11660W        W80133  16.704   4.371   4.632
11661W        W80134  40.518  14.588   0.826
11662W        W80135  32.616  31.621  14.461
11663W        W80136  20.658  18.190   1.231
11664W        W80137  38.011  13.241   1.339
11665W        W80138  41.799  15.636   4.799
11666W        W80139  40.824  43.899  14.896
11667W        W80140   6.879  39.042   3.382
11668W        W80141   3.887  12.338   3.206
11669W        W80142  20.654   7.189   0.404
11670W        W80143  36.896  10.301  13.013
11671W        W80144  43.792  24.717  12.014
11672W        W80145  20.030   3.903  11.126
11673W        W80146  44.865   0.825  14.786
11674W        W80147  19.772  44.259   1.721
11675W        W80148   2.887   5.222  13.490
11676W        W80149   5.767  34.381   1.882
11677W        W80150  34.511  23.634  11.996
11678W        W80151   4.733  12.696   3.806
11679W        W80152  26.105  35.601   0.345
11680W        W80153  39.464  32.503   0.376
11681W        W80154  11.706  10.190   1.741
11682W        W80155  31.010  25.133  11.950
11683W        W80156  23.620   6.236   3.743
11684W        W80157   8.689  42.479  13.918
11685W        W80158  13.611  21.515   2.265
11686W        W80159  40.046  36.556   3.333
11687W        W80160  13.133  24.530   4.276
11688W        W80161  11.145  39.546   1.386
11689W        W80162   4.824  13.617  11.476
11690W        W80163  30.963  22.034  12.094
11691W        W80164  16.235   0.897   4.354
11692W        W80165   5.870  17.781  12.841
11693W        W80166   9.295  37.998  13.034
11694W        W80167  16.590   0.814   2.317
11695W        W80168   1.852  44.456  13.408
11696W        W80169  33.001   1.968  10.993
11697W        W80170  27.623  14.728   2.834
11698W        W80171  17.229  41.482  11.420
11699W        W80172  37.543   4.412  11.888
11700W        W80173  16.287  25.647  10.583
11701W        W80174  38.487   5.833   1.790
11702W        W80175   6.723  40.376   4.238
11703W        W80176  16.155  42.335  14.417
11704W        W80177  12.658  25.108   3.779
11705W        W80178   7.362  35.447   4.307
11706W        W80179  31.510  10.306  11.506
11707W        W80180  12.214  44.267  11.393
11708W        W80181  18.740  35.365  10.486
11709W        W80182  22.185   6.257   0.336
11710W        W80183  30.568  13.112   2.749
11711W        W80184  25.209  18.637   3.317
11712W        W80185  32.393   8.344   3.810
11713W        W80186  33.888  29.131   3.378
11714W        W80187  27.106  25.499  13.398
11715W        W80188  34.996  28.041  13.933
11716W        W80189  22.996  16.716   1.771
11717W        W80190  18.662  10.268  13.359
11718W        W80191  40.848  12.175  13.017
11719W        W80192  30.435  37.528  13.537
11720W        W80193  25.523  31.005  13.492
11721W        W80194  19.673   9.232  14.914
11722W        W80195  26.974  19.095  10.514
11723W        W80196  34.543  44.926  14.948
11724W        W80197   8.281   1.928   3.359
11725W        W80198   8.795  25.470   1.752
11726W        W80199  40.045  41.422   2.674
11727W        W80200  44.974  16.205  13.868
11728W        W80201  23.659  15.105   5.104
11729W        W80202  38.014  39.910   2.383
11730W        W80203   8.189  37.582   2.182
11731W        W80204  39.424   8.349   3.822
11732W        W80205   3.724  15.634  13.895
11733W        W80206  24.166  15.315  11.474
11734W        W80207  36.555   4.743  12.081
11735W        W80208   9.254   9.330  10.533
11736W        W80209  29.584  37.024  12.023
11737W        W80210  25.143  23.195   0.302
11738W        W80211  41.529  14.654   4.805
11739W        W80212  30.132  28.953  11.608
11740W        W80213  26.094  18.264   0.449
11741W        W80214   6.255   8.213  12.884
11742W        W80215  17.171  35.552  13.839
11743W        W80216  43.891   7.230  14.473
11744W        W80217  15.176  31.996  11.006
11745W        W80218  17.563  26.659   0.923
11746W        W80219   5.401  14.599   1.702
11747W        W80220  29.621  38.884   3.354
11748W        W80221  34.892  17.591  14.427
11749W        W80222  19.157  28.642   4.144
11750W        W80223   2.460  36.415   4.653
11751W        W80224  34.566   9.887  13.522
11752W        W80225  28.591   4.341  10.416
11753W        W80226   0.283  26.535  13.810
11754W        W80227   0.844   9.728  10.923
11755W        W80228   3.849   2.930   4.687
11756W        W80229   7.777   8.297  10.614
11757W        W80230  27.527  14.829  13.440
11758W        W80231  28.461  15.187  14.508
11759W        W80232  11.724  25.467   3.804
11760W        W80233  14.613  29.548   1.915
11761W        W80234   7.821   7.315   3.786
11762W        W80235  41.940  10.355  11.891
11763W        W80236  32.993  26.674  11.977
11764W        W80237   1.420   2.843  12.068
11765W        W80238  33.455  30.449   2.366
11766W        W80239  25.112  39.905  13.060
11767W        W80240  40.935  31.638  14.959
11768W        W80241   0.857  32.099   2.682
11769W        W80242  14.598  32.463   2.871
11770W        W80243  30.094  39.956   4.702
11771W        W80244  20.056   8.193   4.626
11772W        W80245   3.783  20.765  14.330
11773W        W80246   4.941  22.668   0.434
11774W        W80247  20.221  23.701  13.936
11775W        W80248   0.989   3.228   3.219
11776W        W80249  44.931  19.088  11.119
11777W        W80250   6.368   7.224   2.361
11778W        W80251   9.680   3.800   0.739
11779W        W80252   7.840  28.664   3.148
11780W        W80253  15.198   3.273  14.426
11781W        W80254  19.676   8.390   1.451
11782W        W80255  41.927  43.487   1.800
11783W        W80256  17.174  22.630   0.438
11784W        W80257  44.955  40.861   4.268
11785W        W80258  30.563  35.863   4.140
11786W        W80259  39.314  25.166  12.519
11787W        W80260  28.477   1.385  10.496
11788W        W80261  39.851  12.626   2.225
11789W        W80262  10.208  13.221   1.292
11790W        W80263   5.846  34.075  11.942
11791W        W80264   2.905  20.642   0.907
11792W        W80265  36.554  15.820  14.441
11793W        W80266  38.951  25.698  10.942
11794W        W80267  38.953  11.769   1.873
11795W        W80268  19.727   7.350  12.928
11796W        W80269  13.782  41.351  12.093
11797W        W80270   3.403  14.799   5.216
11798W        W80271   3.795  35.385  10.415
11799W        W80272   1.371  33.079   1.694
11800W        W80273  31.468  30.036  10.409
11801W        W80274  42.397  38.930   4.347
11802W        W80275  43.300  12.686  10.154
11803W        W80276  39.446  42.865  10.473
11804W        W80277  25.566  22.725   5.114
11805W        W80278  44.505  27.169  12.008
11806W        W80279   5.355  11.338   0.794
11807W        W80280   7.344  21.217  10.155
11808W        W80281  37.007  38.505  12.490
11809W        W80282   3.807  15.098   9.646
11810W        W80283  13.314   3.757   0.289
11811W        W80284   9.779  40.310  10.944
11812W        W80285   9.705  33.584   5.643
11813W        W80286  16.802  29.640   1.419
11814W        W80287  30.984  39.428   3.258
11815W        W80288   1.834   4.776  12.543
11816W        W80289  10.636  39.469  14.829
11817W        W80290  28.164  25.544  11.510
11818W        W80291  35.954  35.534   4.244
11819W        W80292  31.490  40.982  11.439
11820W        W80293  16.301   8.696   1.396
11821W        W80294  33.564  32.981   2.390
11822W        W80295  30.599   2.746  12.070
11823W        W80296  22.505  37.007  13.541
11824W        W80297   3.368  43.289   2.792
11825W        W80298   5.402   1.263  11.454
11826W        W80299   4.252   8.332  12.966
11827W        W80300  29.069  14.292  10.433
11828W        W80301   9.331  40.543   1.305
11829W        W80302   8.174  17.129  14.941
11830W        W80303  24.676  32.931   3.221
11831W        W80304  10.804  33.991   2.730
11832W        W80305  11.638  30.424   2.665
11833W        W80306  43.463  15.166  14.339
11834W        W80307  42.966  42.814   5.267
11835W        W80308  37.537  16.659   4.662
11836W        W80309  17.095  28.074  13.870
11837W        W80310  25.570   8.367  11.448
11838W        W80311  40.817   5.217  14.003
11839W        W80312   5.285  43.897  11.531
11840W        W80313  24.562  31.608  10.500
11841W        W80314   0.438   3.728   4.757
11842W        W80315  34.079  38.056  13.535
11843W        W80316  18.776  30.578  11.446
11844W        W80317  13.607  24.222   1.328
11845W        W80318  17.157  14.720  11.891
11846W        W80319  41.000  42.326   0.953
11847W        W80320   2.963  10.210  14.992
11848W        W80321  19.657   7.206   4.297
11849W        W80322  26.539  16.084   3.359
11850W        W80323  14.240  39.342  14.288
11851W        W80324  27.632   8.162   3.673
11852W        W80325  19.260  23.104   2.675
11853W        W80326  38.548  26.013   0.326
11854W        W80327   7.899  22.054   1.836
11855W        W80328  40.961   6.416  13.794
11856W        W80329  15.094  41.431  12.866
11857W        W80330  18.258  17.160   2.675
11858W        W80331  32.637   8.385  13.398
11859W        W80332  37.983  26.150  11.426
11860W        W80333  24.165  34.554  11.404
11861W        W80334  35.967  22.732  13.329
11862W        W80335  15.788  37.007   9.646
11863W        W80336   8.715  18.683   3.218
11864W        W80337  16.636  36.553  14.489
11865W        W80338  32.514  10.678   0.420
11866W        W80339  12.779   5.762   3.243
11867W        W80340   7.725  11.371  10.450
11868W        W80341  37.388  20.757  10.455
11869W        W80342   0.857  35.525   0.894
11870W        W80343  39.363  40.939   1.866
11871W        W80344  42.004  42.820   3.818
11872W        W80345  29.587   3.759   3.278
11873W        W80346  14.779  19.643  11.379
11874W        W80347   1.959  40.511   0.940
11875W        W80348  32.459  22.710  12.914
11876W        W80349   9.821  18.717  11.066
11877W        W80350  24.494   0.933   1.316
11878W        W80351   7.209  32.052   4.619
11879W        W80352  11.247   5.291  11.966
11880W        W80353   4.835  16.235  11.551
11881W        W80354  20.555  29.510  12.511
11882W        W80355  13.250  43.320   1.848
11883W        W80356  37.494  37.343   2.368
11884W        W80357   1.443  43.929  10.551
11885W        W80358  13.152   9.256  12.000
11886W        W80359  12.649   8.279   0.327
11887W        W80360   3.348  26.961   3.378
11888W        W80361  21.684  32.634   3.195
11889W        W80362  10.300  38.516   2.864
11890W        W80363  16.740   9.261   1.905
11891W        W80364  13.172  31.922   3.861
11892W        W80365   9.811  32.629   4.120
11893W        W80366  22.208  22.041   0.307
11894W        W80367  17.716  33.455   2.292
11895W        W80368  36.564  28.083   2.678
11896W        W80369  10.770  36.849   1.422
11897W        W80370  34.397  15.591   5.192
11898W        W80371  20.714   1.734   2.221
11899W        W80372  16.186  39.840  10.534
11900W        W80373  32.405  23.136  10.013
11901W        W80374  37.438  17.661  14.823
11902W        W80375  36.356   1.242  12.443
11903W        W80376  32.968  26.081   5.114
11904W        W80377   3.905  27.180   2.191
11905W        W80378  40.876   2.460  13.835
11906W        W80379  41.478  20.133   0.321
11907W        W80380  28.597  16.730  10.564
11908W        W80381   6.231  26.027   1.790
11909W        W80382  43.789   6.346   1.315
11910W        W80383  36.030  42.286  11.004
11911W        W80384   3.443  27.588   1.879
11912W        W80385   6.348  24.521   0.782
11913W        W80386  19.622   8.198  12.343
11914W        W80387   1.787  10.333  14.023
11915W        W80388  10.232  44.916  11.967
11916W        W80389  31.962  34.406   2.722
11917W        W80390  27.979  28.948  10.528
11918W        W80391  36.382  29.931  14.775
11919W        W80392  10.211  20.132  11.432
11920W        W80393  12.616  26.538  12.897
11921W        W80394   8.231  39.399  11.043
11922W        W80395  22.238  12.211   9.447
11923W        W80396  43.912  25.618  10.443
11924W        W80397  36.915   5.862   0.428
11925W        W80398  39.812  11.370  14.454
11926W        W80399  10.302  36.932  13.821
11927W        W80400  12.280  32.050  12.566
11928W        W80401  12.136  16.224  11.870
11929W        W80402  30.553   9.159  10.553
11930W        W80403   9.363  36.400   0.433
11931W        W80404  20.064  34.406  14.858
11932W        W80405  38.378  27.999  13.993
11933W        W80406  24.182   4.301   3.173
11934W        W80407  10.677  15.661   3.244
11935W        W80408   7.771  22.602   3.205
11936W        W80409  42.956  35.514  13.848
11937W        W80410  21.120  28.656  12.493
11938W        W80411  18.724  39.532   2.770
11939W        W80412   1.345  11.853  11.953
11940W        W80413  20.728  30.158   0.800
11941W        W80414  11.305  23.119   4.131
11942W        W80415  13.634  15.632   1.755
11943W        W80416  42.333  42.306  12.525
11944W        W80417  42.007  35.914  13.936
11945W        W80418  24.228  12.710  13.970
11946W        W80419  18.119  28.051   1.747
11947W        W80420  27.130   7.849  13.985
11948W        W80421  13.724   5.850  10.460
11949W        W80422  37.381  33.021  10.061
11950W        W80423  35.485  30.917  11.514
11951W        W80424  10.293   0.779   0.245
11952W        W80425  16.304  31.900   3.759
11953W        W80426  32.959  39.036  12.546
11954W        W80427  24.130  13.347   5.195
11955W        W80428  30.461   7.406  13.978
11956W        W80429  24.215   0.835  14.765
11957W        W80430  25.158  35.463   4.335
11958W        W80431  44.806  40.850   0.811
11959W        W80432  30.463  18.125  11.069
11960W        W80433  11.707  38.338   2.845
11961W        W80434   8.685   2.823  10.911
11962W        W80435   5.211  37.895   2.728
11963W        W80436  14.621  33.502   4.701
11964W        W80437  16.591  12.191  14.013
11965W        W80438   9.765  17.120  14.314
11966W        W80439   9.355   1.290   3.691
11967W        W80440  11.348   4.903  10.635
11968W        W80441  43.917   1.481   1.906
11969W        W80442  43.883  15.250   4.656
11970W        W80443  23.211  10.278   1.921
11971W        W80444   3.882  10.845   2.390
11972W        W80445  33.586  40.922  10.506
11973W        W80446  28.571  17.141  12.369
11974W        W80447   8.199  10.695  14.790
11975W        W80448  29.953  22.022  12.072
11976W        W80449  32.093   2.812  14.493
11977W        W80450   5.371  42.976  12.831
11978W        W80451   3.915  40.883  14.016
11979W        W80452  16.770  19.688  10.570
11980W        W80453  24.059  33.502   4.744
11981W        W80454  20.273  11.675  13.942
11982W        W80455  41.322  13.138   0.395
11983W        W80456   4.916   0.256   1.812
11984W        W80457  21.214  15.665  13.051
11985W        W80458   6.839   1.433   0.414
11986W        W80459   1.908  42.280  12.926
11987W        W80460  42.807   7.685  14.827
11988W        W80461  23.180  41.836   1.342
11989W        W80462   2.387  40.995   2.397
11990W        W80463   1.376  36.507  10.543
11991W        W80464  43.999  42.971   5.144
11992W        W80465  13.795   5.876  13.323
11993W        W80466  17.571  15.629  11.898
11994W        W80467  26.460  30.959   3.866
11995W        W80468   6.819  25.127   2.802
11996W        W80469  29.173  25.165   0.287
11997W        W80470  44.482  11.692  14.902
11998W        W80471  35.085  43.375   4.832
11999W        W80472   6.727  25.072  13.912
12000W        W80473  42.803   7.200   2.214
12001W        W80474  24.711  23.648  14.016
12002W        W80475  24.543  36.069  11.015
12003W        W80476  21.575  15.148   2.283
12004W        W80477   6.278   9.874   1.791
12005W        W80478  28.172   9.343   2.342
12006W        W80479  36.862  10.793   4.180
12007W        W80480   8.194  22.512   3.280
12008W        W80481   9.818   7.799   1.906
12009W        W80482  28.072  38.852   2.209
12010W        W80483  13.277  40.545  10.608
12011W        W80484  36.356  25.087  10.531
12012W        W80485  31.151  41.968  10.412
12013W        W80486  14.242   2.296   4.281
12014W        W80487  22.105   9.779   2.736
12015W        W80488   7.807  16.073   4.650
12016W        W80489  34.964  24.984  11.914
12017W        W80490  30.495  22.173   4.301
12018W        W80491  42.423  20.531   2.204
12019W        W80492  32.950  19.243   2.319
12020W        W80493  19.671   7.369  12.380
12021W        W80494  18.240  30.646   1.741
12022W        W80495  28.591  12.237  11.995
12023W        W80496   2.422   6.182   4.282
12024W        W80497   1.330  32.476  12.571
12025W        W80498  23.515  38.371  14.508
12026W        W80499   0.810   6.788   2.416
12027W        W80500  12.807   7.758   3.707
12028W        W80501   5.915   3.943  11.891
12029W        W80502  23.177  30.519  12.368
12030W        W80503  28.596   3.426   5.130
12031W        W80504  40.836   6.790   2.781
12032W        W80505  39.382  40.851   4.814
12033W        W80506  30.062  16.810   2.273
12034W        W80507   4.391   2.361   4.689
12035W        W80508  44.293  13.626  13.920
12036W        W80509  10.669  43.461  14.797
12037W        W80510  44.006  44.326  12.060
12038W        W80511  17.145  42.312   1.436
12039W        W80512  11.787  18.068   0.755
12040W        W80513  24.992  11.649  14.993
12041W        W80514  34.374  43.365  10.905
12042W        W80515  13.619  31.040  11.086
12043W        W80516  19.637  18.201   4.737
12044W        W80517  26.605  24.695  14.429
12045W        W80518  21.086   6.254   2.866
12046W        W80519   6.374  23.106  10.426
12047W        W80520  37.873   9.288  11.042
12048W        W80521  34.449  18.132  13.419
12049W        W80522  36.070  12.663  14.996
12050W        W80523  27.649  31.071  13.519
12051W        W80524   2.231  37.522  10.414
12052W        W80525   5.199  24.071  10.409
12053W        W80526  14.729   4.814   9.926
12054W        W80527   1.884  35.470  13.950
12055W        W80528  11.867   8.727  10.427
12056W        W80529  28.159  29.977   2.266
12057W        W80530   7.705  33.486   2.808
12058W        W80531  42.993   0.469   3.857
12059W        W80532  41.974  36.355  14.772
12060W        W80533   7.752  15.255   0.318
12061W        W80534  34.060  14.249  11.097
12062W        W80535  18.116  17.763  10.609
12063W        W80536  13.806   8.327  14.769
12064W        W80537  13.810  33.483   0.832
12065W        W80538   9.226  35.011   2.695
12066W        W80539  32.922  17.571   3.384
12067W        W80540  20.673  27.580  10.043
12068W        W80541  14.188  23.630  10.426
12069W        W80542   9.682   6.762  13.455
12070W        W80543   0.745   3.888  13.062
12071W        W80544  22.664  19.665   3.815
12072W        W80545  31.082   3.764  13.461
12073W        W80546  38.889  24.565  14.995
12074W        W80547  17.144  26.973   2.375
12075W        W80548  38.453  19.613   2.726
12076W        W80549   5.229  41.866  13.982
12077W        W80550   6.247   2.452  11.486
12078W        W80551  36.535  17.754   3.727
12079W        W80552   8.404  39.397   1.895
12080W        W80553  44.394  13.637  12.999
12081W        W80554  19.093  37.897  14.309
12082W        W80555  37.485   9.155  12.859
12083W        W80556   7.864  41.947  11.029
12084W        W80557  29.501   8.213  13.454
12085W        W80558  15.596  30.436  12.911
12086W        W80559  25.601  18.761   3.293
12087W        W80560  25.540  29.549   4.164
12088W        W80561  22.521  14.795   4.222
12089W        W80562   9.656  31.636  14.299
12090W        W80563  13.126   2.329  12.875
12091W        W80564  16.314  10.271   3.180
12092W        W80565   5.736  12.704  13.041
12093W        W80566   1.326  30.469   0.847
12094W        W80567  24.109  14.213  12.887
12095W        W80568   6.187   7.298  13.910
12096W        W80569  38.359  22.588   1.410
12097W        W80570  28.453  31.554  13.378
12098W        W80571   3.380  33.481   4.762
12099W        W80572  34.092   8.755   0.328
12100W        W80573  44.294  28.533   2.256
12101W        W80574  20.537   1.383   1.441
12102W        W80575  11.372  32.012  14.966
12103W        W80576  11.624   4.824   2.814
12104W        W80577  18.183   2.419  11.930
12105W        W80578   7.762  42.779  11.460
12106W        W80579   4.292  16.801  11.017
12107W        W80580  36.893   9.276  12.351
12108W        W80581  44.443  36.446   3.649
12109W        W80582  10.223   8.757  11.979
12110W        W80583  25.486   8.881  14.894
12111W        W80584  40.396   3.399   1.234
12112W        W80585  29.001  37.996   3.839
12113W        W80586  35.087  44.501   2.254
12114W        W80587  24.641  17.657   0.868
12115W        W80588  20.185   4.726  14.911
12116W        W80589  40.851  44.984  14.853
12117W        W80590  30.538  18.244   3.861
12118W        W80591  28.930  23.201   2.261
12119W        W80592  43.948  22.084  14.318
12120W        W80593   4.815  12.252  13.049
12121W        W80594   5.344  18.240   1.886
12122W        W80595  43.416  23.590  11.856
12123W        W80596  37.044  18.688  14.862
12124W        W80597  39.050  17.578   4.260
12125W        W80598   5.923   1.797   0.274
12126W        W80599  12.697  22.675  14.485
12127W        W80600  26.993  43.787  10.465
12128W        W80601  41.489   4.327   3.237
12129W        W80602  35.563  27.465   2.212
12130W        W80603  28.026   2.383   4.248
12131W        W80604  37.956  16.687   0.360
12132W        W80605   6.851  13.348  12.928
12133W        W80606  29.450  11.675   3.250
12134W        W80607  11.725  41.995   0.947
12135W        W80608  28.161  31.032  12.947
12136W        W80609  18.774  17.124  13.012
12137W        W80610  19.579  35.506   2.240
12138W        W80611  19.590   2.401  13.812
12139W        W80612  26.016   7.222  11.446
12140W        W80613  15.276  21.250  12.520
12141W        W80614  38.867   2.924   1.836
12142W        W80615  32.126  34.919  14.916
12143W        W80616  23.105   8.170   3.782
12144W        W80617  37.040  22.998   1.856
12145W        W80618  20.756  26.655  13.366
12146W        W80619  21.636  13.206  11.598
12147W        W80620  15.606   5.692   3.730
12148W        W80621  13.667  20.762  14.997
12149W        W80622  17.590  13.294  11.888
12150W        W80623  13.678  30.079  10.959
12151W        W80624  43.409  23.620  11.522
12152W        W80625  27.164  15.629   0.770
12153W        W80626  32.987   3.442  14.995
12154W        W80627   0.467  16.621  10.888
12155W        W80628   6.214   5.268   4.672
12156W        W80629  16.145  23.524  13.915
12157W        W80630  25.208  34.458   2.762
12158W        W80631  21.115  34.879   4.325
12159W        W80632  35.440   4.322  14.386
12160W        W80633  39.546  16.803  12.919
12161W        W80634   5.716   3.748   1.788
12162W        W80635   3.458  41.359   2.871
12163W        W80636  21.119  15.698   0.402
12164W        W80637  30.101  39.846   2.894
12165W        W80638  40.917  42.829   1.878
12166W        W80639  15.615  30.012   4.732
12167W        W80640  33.075  41.979   4.694
12168W        W80641   9.317  30.587  10.046
12169W        W80642  12.841   4.379   1.834
12170W        W80643  43.439  38.009  14.354
12171W        W80644  29.497  13.608   2.240
12172W        W80645  44.276  20.248  14.447
12173W        W80646  41.475  41.500   1.935
12174W        W80647  18.602   9.857  12.406
12175W        W80648  39.492  21.255   0.456
12176W        W80649  25.495   8.174  13.927
12177W        W80650  21.738  19.062   2.384
12178W        W80651   9.245   7.398   4.305
12179W        W80652  15.278  18.610  11.425
12180W        W80653  36.996  22.064   4.162
12181W        W80654  21.629  13.129   4.133
12182W        W80655   1.744  32.137   4.169
12183W        W80656   1.464  39.434   3.704
12184W        W80657  15.243   6.750  12.026
12185W        W80658  17.572   2.430   2.405
12186W        W80659  17.105   7.668  10.982
12187W        W80660  24.006  41.529   3.198
12188W        W80661  43.850   1.948  11.985
12189W        W80662  42.906  23.089  13.510
12190W        W80663  19.719  30.592   3.794
12191W        W80664   1.243  38.551   4.714
12192W        W80665  24.492  44.946  12.528
12193W        W80666  26.133  14.679  14.496
12194W        W80667  27.134  43.862  11.062
12195W        W80668  27.968  21.187  14.031
12196W        W80669  38.883  35.572   0.302
12197W        W80670   6.326  34.892   4.200
12198W        W80671  43.973  23.072  13.372
12199W        W80672  34.886   6.702  10.954
12200W        W80673   7.821  24.202  14.298
12201W        W80674  17.262   1.273  12.062
12202W        W80675  20.138  37.340   3.169
12203W        W80676  20.250  15.621   2.698
12204W        W80677  19.619  42.344  14.896
12205W        W80678  25.641  19.766  14.826
12206W        W80679  18.113  11.168   2.714
12207W        W80680  17.556  13.292   1.375
12208W        W80681   8.196  27.091  12.036
12209W        W80682  22.618   7.856   3.193
12210W        W80683  28.564  39.878   0.898
12211W        W80684  26.069  41.384  11.525
12212W        W80685  36.091  24.188   4.329
12213W        W80686  40.953  21.617   2.743
12214W        W80687  35.036  43.287   0.389
12215W        W80688  10.835   1.449   0.810
12216W        W80689   0.756  38.443   4.135
12217W        W80690   6.885  19.266   2.375
12218W        W80691  10.324  22.070   0.377
12219W        W80692  15.734   7.776  12.489
12220W        W80693  39.520  30.451   4.252
12221W        W80694  30.144  29.626  12.858
12222W        W80695   1.835  28.161   4.821
12223W        W80696   7.891   7.902   1.315
12224W        W80697  24.124  37.944   3.295
12225W        W80698   6.416  18.090   1.220
12226W        W80699  29.062  18.685  12.957
12227W        W80700  28.680  39.340   0.475
12228W        W80701  35.500  40.887   1.351
12229W        W80702  23.549  30.924   3.333
12230W        W80703  28.466  12.825   1.407
12231W        W80704  29.473  21.535   4.212
12232W        W80705  36.995  30.621  11.041
12233W        W80706  15.299  28.052  14.935
12234W        W80707  37.978  16.126   3.643
12235W        W80708   9.766  32.491  10.594
12236W        W80709   8.846  35.561  11.002
12237W        W80710   0.845  34.577   4.673
12238W        W80711  26.992   9.171  10.446
12239W        W80712  36.522  36.931  12.383
12240W        W80713  15.728  31.049  12.048
12241W        W80714  33.407   5.347  12.021
12242W        W80715  26.147  32.945  14.895
12243W        W80716   5.209  32.524  11.909
12244W        W80717  11.723   8.324   1.424
12245W        W80718  34.109  23.541   2.879
12246W        W80719   6.377  44.370   0.878
12247W        W80720  20.055   8.783  10.066
12248W        W80721  18.680  30.066   1.730
12249W        W80722  24.173  10.792   0.260
12250W        W80723   6.344   7.258   0.347
12251W        W80724  43.892  29.625   0.769
12252W        W80725   6.793  28.086   1.224
12253W        W80726   7.366   2.321  12.547
12254W        W80727  29.449  18.190  12.955
12255W        W80728  24.177  20.257  14.430
12256W        W80729  36.841  32.535   2.417
12257W        W80730  30.142  22.651  14.420
12258W        W80731  24.214   9.379   1.358
12259W        W80732  29.934  24.013  14.501
12260W        W80733  26.157   9.195   0.259
12261W        W80734  14.766  41.471   4.243
12262W        W80735  11.212  17.652   2.876
12263W        W80736  22.125  32.943   3.283
12264W        W80737  19.114  25.964  13.025
12265W        W80738   1.354  39.516   3.222
12266W        W80739  39.808  26.992   3.670
12267W        W80740  33.095  42.815   4.611
12268W        W80741   3.827  13.806  12.020
12269W        W80742  13.712  13.275  14.420
12270W        W80743  15.616  32.123   5.251
12271W        W80744  24.025   2.437   2.221
12272W        W80745  42.417   0.425   1.905
12273W        W80746  18.197  33.063   4.137
12274W        W80747   3.249  31.996   1.804
12275W        W80748  43.975  31.499  10.425
12276W        W80749   7.817  11.263  10.116
12277W        W80750  14.820  21.648  14.287
12278W        W80751   4.374   2.914   1.238
12279W        W80752  35.066   2.260   2.329
12280W        W80753  18.143  29.482  14.821
12281W        W80754  19.176  21.258   3.788
12282W        W80755   6.198  25.656  14.302
12283W        W80756  34.004  31.406  13.934
12284W        W80757  35.501   7.297  14.986
12285W        W80758  35.456  29.630  14.353
12286W        W80759  40.902  40.432   2.192
12287W        W80760   6.718  28.069   3.351
12288W        W80761  25.044  28.539  14.829
12289W        W80762   6.425  29.134  10.510
12290W        W80763  44.484  35.504   0.325
12291W        W80764  28.479  21.517  10.620
12292W        W80765  19.659  13.712   0.377
12293W        W80766  36.870  24.602   4.127
12294W        W80767   0.468  36.509   2.711
12295W        W80768  41.854  35.913   4.688
12296W        W80769  18.249   3.221  13.842
12297W        W80770  25.993  44.800   1.713
12298W        W80771   9.669  14.712  10.552
12299W        W80772  14.189  18.080  10.534
12300W        W80773  18.064   3.324   3.197
12301W        W80774   3.427  26.477  11.128
12302W        W80775  37.393  20.571  14.410
12303W        W80776  29.948  41.987  13.987
12304W        W80777  12.642  40.496   1.870
12305W        W80778   2.809  15.292   0.810
12306W        W80779  14.137  31.523  13.393
12307W        W80780   3.806  42.817  14.981
12308W        W80781  11.168  27.525   4.649
12309W        W80782   6.310   5.773  13.963
12310W        W80783  24.689  29.980   4.631
12311W        W80784  16.201   4.398   2.819
12312W        W80785  41.522  38.864   0.451
12313W        W80786  33.508  39.814  13.031
12314W        W80787   9.644  12.214  11.856
12315W        W80788  29.576   8.720   5.231
12316W        W80789  19.241  22.006   3.307
12317W        W80790  11.636  39.017  10.520
12318W        W80791  30.012  33.382   3.713
12319W        W80792  10.311  30.949  13.526
12320W        W80793  24.218   0.953   1.879
12321W        W80794  36.056  28.645   4.708
12322W        W80795  21.230   8.388  11.534
12323W        W80796  38.484  16.584   0.424
12324W        W80797  41.337  24.218  10.937
12325W        W80798   9.731  37.373  13.922
12326W        W80799   2.255  30.564   2.328
12327W        W80800  13.819   9.646  10.990
12328W        W80801  21.246  39.453   3.853
12329W        W80802   5.808  12.156   2.346
12330W        W80803  37.577  44.399   5.146
12331W        W80804  28.938  23.045  11.899
12332W        W80805  33.985  36.908   3.761
12333W        W80806  39.942  27.651  10.428
12334W        W80807  40.984  31.965  11.398
12335W        W80808  17.270  26.103   3.650
12336W        W80809  16.808  42.409   4.724
12337W        W80810  21.054   7.258   0.902
12338W        W80811   0.751   3.724  10.625
12339W        W80812  22.100   0.933   4.692
12340W        W80813  24.524  12.270  14.858
12341W        W80814  34.982  37.997  13.474
12342W        W80815  33.570  42.849  10.919
12343W        W80816  10.155  23.197   4.632
12344W        W80817   2.367   8.194  11.552
12345W        W80818   5.812  19.724   3.149
12346W        W80819  34.079  24.065  13.342
12347W        W80820  19.562  20.765   3.258
12348W        W80821  29.101   3.797  12.975
12349W        W80822  36.074  25.502  13.366
12350W        W80823  12.834  30.095   2.360
12351W        W80824  31.954  12.629  14.420
12352W        W80825  36.847  24.628  12.441
12353W        W80826  35.853  11.659   2.318
12354W        W80827   8.815   4.780  13.896
12355W        W80828  22.169   2.345  12.379
12356W        W80829   6.378  30.073  14.990
12357W        W80830   5.214  22.107   0.776
12358W        W80831  22.152  40.802   1.880
12359W        W80832  10.685  26.974  11.595
12360W        W80833  11.648  13.704   2.792
12361W        W80834   4.735  43.293   3.650
12362W        W80835  36.491   4.786  13.951
12363W        W80836  19.079  22.681   1.379
12364W        W80837  25.104  21.184   1.438
12365W        W80838  44.755  22.588  11.415
12366W        W80839   0.979   1.407   0.915
12367W        W80840  23.221  19.044   3.795
12368W        W80841  18.209  21.247  10.457
12369W        W80842  30.478  20.539   1.227
12370W        W80843  11.247  38.379  14.874
12371W        W80844  18.547   6.338   4.831
12372W        W80845  22.050  23.091   1.740
12373W        W80846  22.649  13.227   0.478
12374W        W80847  27.940   6.402   3.199
12375W        W80848  18.064  44.322  13.856
12376W        W80849   9.242  22.721   1.768
12377W        W80850  29.514  28.123   3.302
12378W        W80851  31.939  36.958   0.790
12379W        W80852  11.635  24.605   1.923
12380W        W80853   6.823  19.212   1.373
12381W        W80854   4.705  24.485   1.906
12382W        W80855  20.569  44.869   2.732
12383W        W80856  19.713  39.489   1.246
12384W        W80857   3.742  20.270   4.240
12385W        W80858   1.831  33.443   5.197
12386W        W80859  25.202  25.586   3.219
12387W        W80860  34.052  11.676  12.367
12388W        W80861  33.394  32.620   2.881
12389W        W80862  30.944  34.109   1.225
12390W        W80863   2.410  31.146   0.891
12391W        W80864  20.767  15.305   1.290
12392W        W80865  11.673   7.700  13.034
12393W        W80866  38.848  39.334  11.463
12394W        W80867   3.325  29.424   4.637
12395W        W80868  44.761  37.395   0.921
12396W        W80869  31.471  18.742  14.465
12397W        W80870  13.600  38.369   0.317
12398W        W80871  13.341  22.040   3.780
12399W        W80872   0.961   7.716  12.039
12400W        W80873  27.566  41.993   2.742
12401W        W80874  20.263  28.092   2.231
12402W        W80875  44.849  28.443  13.451
12403W        W80876  39.016  29.098  10.598
12404W        W80877  24.191  29.063   4.767
12405W        W80878   9.357   5.908   3.647
12406W        W80879  34.440  19.607   3.165
12407W        W80880  10.850   9.710  14.359
12408W        W80881   2.757  24.994  10.904
12409W        W80882  27.946  44.973   1.395
12410W        W80883   6.414  12.159  14.471
12411W        W80884   8.724  40.326   5.238
12412W        W80885  17.559  12.329   0.917
12413W        W80886  18.570   7.681  14.280
12414W        W80887  30.147  44.763  13.405
12415W        W80888  30.521   0.278   0.884
12416W        W80889  23.116  20.596  11.508
12417W        W80890   4.344   4.410  13.939
12418W        W80891   7.764  15.258   4.349
12419W        W80892  40.354  10.232   3.372
12420W        W80893   0.962   4.435   3.864
12421W        W80894  43.878  32.917  11.065
12422W        W80895  11.803  11.779   4.347
12423W        W80896  17.707  33.073  11.506
12424W        W80897  18.056   6.325  13.355
12425W        W80898  10.763   1.301  12.982
12426W        W80899  42.440   1.343  13.915
12427W        W80900  12.632   7.311  11.951
12428W        W80901  24.573   4.441  13.797
12429W        W80902  21.751  37.375   3.674
12430W        W80903  20.246  38.843  12.095
12431W        W80904  43.014   1.448  13.341
12432W        W80905  12.644   9.746   0.869
12433W        W80906   1.978  17.625   0.753
12434W        W80907   9.765   4.744   3.208
12435W        W80908  41.913  33.025   0.273
12436W        W80909  21.067  17.633  10.574
12437W        W80910  41.463   3.429   3.280
12438W        W80911  37.853  38.878  13.003
12439W        W80912  24.162   7.738  11.877
12440W        W80913  20.174  35.068   3.729
12441W        W80914   8.250  36.060  14.874
12442W        W80915  33.890  37.026  14.352
12443W        W80916  22.602   9.689  12.352
12444W        W80917  43.774  17.072   3.674
12445W        W80918  22.051  12.812  11.534
12446W        W80919  14.733  25.195  13.397
12447W        W80920  27.973  44.430  11.039
12448W        W80921  34.448  22.145  12.834
12449W        W80922  22.745  12.749  10.431
12450W        W80923  41.338  32.431   4.149
12451W        W80924  36.586  19.263   1.818
12452W        W80925  35.392  36.019   4.325
12453W        W80926   7.701   1.481   2.303
12454W        W80927  21.693  17.192   9.968
12455W        W80928  35.425  29.655   1.392
12456W        W80929  30.522  39.456  14.807
12457W        W80930  30.975  19.283  12.486
12458W        W80931  17.101   8.697   0.337
12459W        W80932  11.292   6.195   3.265
12460W        W80933  43.379  14.797  11.036
12461W        W80934  35.369  15.258  10.510
12462W        W80935   7.856   8.231  12.955
12463W        W80936  29.000  36.377  11.016
12464W        W80937  21.538  23.185   3.745
12465W        W80938  26.141  27.074   3.665
12466W        W80939  32.397   2.925   0.796
12467W        W80940  14.802  28.581   0.920
12468W        W80941   2.358  32.416  11.104
12469W        W80942  38.528   7.280  11.034
12470W        W80943  29.425  30.014  11.868
12471W        W80944  18.276  43.820   1.448
12472W        W80945  30.121  17.802  14.346
12473W        W80946   1.800  23.508   1.267
12474W        W80947  44.332  40.957  13.822
12475W        W80948  13.195   4.769   3.650
12476W        W80949  44.877   6.718   2.676
12477W        W80950  44.437  33.073   4.187
12478W        W80951  43.327  20.239  14.334
12479W        W80952  44.828  37.896  13.008
12480W        W80953  30.907  15.631  11.565
12481W        W80954  41.007   2.906   2.410
12482W        W80955  18.558  15.177  13.384
12483W        W80956   2.292  14.191   5.306
12484W        W80957  32.424  21.623  14.767
12485W        W80958  31.962  33.877   0.331
12486W        W80959  33.093   2.794  11.492
12487W        W80960   0.758  19.777  12.042
12488W        W80961  32.442   7.890   2.750
12489W        W80962  42.373  23.724   2.270
12490W        W80963   8.899  36.979   4.671
12491W        W80964  40.928  25.985  12.495
12492W        W80965  18.255  17.655  11.874
12493W        W80966  20.671  39.388   0.848
12494W        W80967  43.884  35.897  10.995
12495W        W80968  15.311   5.726  12.079
12496W        W80969  33.443  10.652   1.386
12497W        W80970  11.680  37.849   2.387
12498W        W80971  42.901   8.816  12.837
12499W        W80972  42.957  17.066   4.770
12500W        W80973  33.424  13.767   0.953
12501W        W80974  29.668  25.561   0.325
12502W        W80975   1.253  37.572   0.438
12503W        W80976  35.510  11.359  10.468
12504W        W80977  42.471  33.434   0.312
12505W        W80978  10.844  39.370  13.425
12506W        W80979   6.372  30.420   1.773
12507W        W80980  32.556  19.148  13.944
12508W        W80981   2.782  35.558  10.567
12509W        W80982  24.525  42.891   1.292
12510W        W80983  28.174  41.333  12.870
12511W        W80984  32.106  41.902  12.006
12512W        W80985  15.101  36.056   2.849
12513W        W80986  18.686  17.730   2.241
12514W        W80987  21.751   6.274   1.872
12515W        W80988  28.611  12.275   1.787
12516W        W80989   1.836  13.261   2.757
12517W        W80990  11.211   3.827   2.799
12518W        W80991  33.416  23.723   4.244
12519W        W80992  14.791  12.333   3.764
12520W        W80993  44.876  31.501  11.530
12521W        W80994  36.992  11.701  13.368
12522W        W80995  41.328  33.023  14.473
12523W        W80996  28.002  19.579   3.198
12524W        W80997  39.388  35.935  13.491
12525W        W80998  10.178   8.254   3.226
12526W        W80999  27.483  29.027  11.577
12527W        W81000  39.500  32.138   1.223
12528W        W81001   2.928  36.091  13.308
12529W        W81002   6.389  10.877  14.287
12530W        W81003  40.490   8.312   3.670
12531W        W81004  22.651  29.620  12.846
12532W        W81005  17.115  11.846  11.555
12533W        W81006   4.791  31.601  14.929
12534W        W81007  22.679  35.011  12.513
12535W        W81008  15.591   9.788  14.842
12536W        W81009  10.871   1.766  11.527
12537W        W81010   7.871   1.334   1.247
12538W        W81011  11.229  41.788   2.314
12539W        W81012   6.402  19.705  12.374
12540W        W81013  19.702  40.880   2.312
12541W        W81014  28.000   3.445  11.973
12542W        W81015   1.859  11.351  14.029
12543W        W81016   7.372   9.374  11.592
12544W        W81017  17.604   6.820   0.888
12545W        W81018  34.415  36.987  12.353
12546W        W81019  24.632  40.353   3.229
12547W        W81020  14.660  17.282   2.666
12548W        W81021  11.303  28.008  14.414
12549W        W81022  33.416  28.009  14.305
12550W        W81023  16.138  14.105  14.346
12551W        W81024  40.323  11.332  14.327
12552W        W81025  11.334  24.610  12.491
12553W        W81026  12.834  16.801  11.045
12554W        W81027   7.336  41.365  12.374
12555W        W81028  19.554   4.396   3.784
12556W        W81029  33.597  34.943   0.442
12557W        W81030   4.348  21.684   0.955
12558W        W81031  19.070  43.818   4.599
12559W        W81032  27.559  37.083   1.258
12560W        W81033  21.540  38.891  14.334
12561W        W81034  21.525  41.485   1.833
12562W        W81035   4.906  25.197  12.516
12563W        W81036   9.764  37.520  10.521
12564W        W81037  36.908  17.122  14.829
12565W        W81038  42.815   4.872   0.870
12566W        W81039   1.770  43.380   3.373
12567W        W81040  21.691  14.281   0.360
12568W        W81041  41.014   3.813  14.817
12569W        W81042  29.998  29.097  14.419
12570W        W81043  28.113  28.649   4.795
12571W        W81044  31.602  24.513  11.862
12572W        W81045  14.115  22.747   0.905
12573W        W81046  18.766  12.654  10.045
12574W        W81047  34.494  14.231  12.370
12575W        W81048  39.514  20.625   1.755
12576W        W81049  19.151  33.391  10.940
12577W        W81050  31.537  23.110  12.351
12578W        W81051   7.874   5.318  12.958
12579W        W81052   2.725   6.886  14.801
12580W        W81053  38.528   2.733  12.547
12581W        W81054  41.864  10.348   0.936
12582W        W81055  20.767  33.911   3.749
12583W        W81056  32.526  26.688   3.691
12584W        W81057  37.339  19.538   2.325
12585W        W81058  11.231  34.116   2.811
12586W        W81059  29.553  27.155  10.951
12587W        W81060   3.725  23.107   3.201
12588W        W81061  20.029   8.258  12.900
12589W        W81062  17.656   3.341  13.914
12590W        W81063   7.749  36.950   1.795
12591W        W81064  26.021  38.905  11.890
12592W        W81065  11.342  20.175   3.246
12593W        W81066  42.872  37.480  10.460
12594W        W81067  37.976  42.850   2.761
12595W        W81068  22.230  10.782  12.046
12596W        W81069  25.519  14.687  12.903
12597W        W81070  18.127   7.322   3.173
12598W        W81071  12.683   5.305  14.368
12599W        W81072  11.822  39.518  13.500
12600W        W81073  39.973   8.380  13.979
12601W        W81074  11.665   4.801   0.451
12602W        W81075  44.311  39.946  12.835
12603W        W81076  20.090  41.017   4.313
12604W        W81077  17.799   8.226   3.272
12605W        W81078  41.827  21.199  10.582
12606W        W81079  13.246  39.502   4.612
12607W        W81080   4.823  29.969   3.223
12608W        W81081  19.100   9.295  12.033
12609W        W81082  32.007  24.065   2.250
12610W        W81083  25.516   2.770   3.179
12611W        W81084  30.011  22.182  11.514
12612W        W81085  43.491  12.654  11.445
12613W        W81086  12.814  22.722  13.374
12614W        W81087   7.325  34.515  11.456
12615W        W81088  19.747   4.762  13.059
12616W        W81089  20.642  28.681   3.797
12617W        W81090  11.307  17.084   3.204
12618W        W81091  22.559   6.185   3.682
12619W        W81092  16.224  33.481   3.866
12620W        W81093  33.436   4.246  14.788
12621W        W81094  22.020   0.278  11.037
12622W        W81095  39.397   0.324   0.389
12623W        W81096   0.793   5.901   3.672
12624W        W81097  44.313  23.671   2.195
12625W        W81098  16.261  28.177  11.987
12626W        W81099  44.291  28.064   1.894
12627W        W81100  19.219   4.279   2.401
12628W        W81101  15.707  15.669  14.516
12629W        W81102  40.892  16.270  13.324
12630W        W81103   3.789   5.715  10.990
12631W        W81104  21.605  15.822   4.268
12632W        W81105   8.375  39.514  14.857
12633W        W81106  13.311  43.884   3.248
12634W        W81107  43.784  10.238   3.314
12635W        W81108  41.345  26.548  12.478
12636W        W81109  18.086  16.678  11.035
12637W        W81110  11.814  16.651   4.742
12638W        W81111  42.869  19.695   4.219
12639W        W81112   8.671  33.546  12.074
12640W        W81113  12.167  14.767   3.291
12641W        W81114  12.805  32.571  14.960
12642W        W81115   8.725  14.645   1.819
12643W        W81116  39.952   1.279   0.459
12644W        W81117  26.989  30.445   2.816
12645W        W81118  27.676  15.670   0.290
12646W        W81119  39.546  20.259   1.830
12647W        W81120  37.048   8.390  13.419
12648W        W81121   5.427   9.201  11.971
12649W        W81122  25.493  38.344   2.264
12650W        W81123   6.200   8.863  10.900
12651W        W81124  23.237  13.296   3.292
12652W        W81125  26.670   3.951   5.205
12653W        W81126   2.301  27.685   2.343
12654W        W81127  29.540   6.187  12.485
12655W        W81128  27.062   4.351  12.460
12656W        W81129  18.739  43.356   2.855
12657W        W81130  24.673  13.766  14.485
12658W        W81131  14.168  31.508   2.228
12659W        W81132  39.946  22.051  13.861
12660W        W81133   9.887   9.156  10.494
12661W        W81134  19.772  17.628   1.736
12662W        W81135  19.677  43.418  13.004
12663W        W81136  12.163  10.140   4.180
12664W        W81137  44.899  23.550  12.025
12665W        W81138  26.097  36.532   2.792
12666W        W81139   2.941  33.049   2.347
12667W        W81140  11.352  42.399  14.428
12668W        W81141  12.290  23.176  11.448
12669W        W81142   8.213  42.486   4.743
12670W        W81143  16.696  41.418   4.216
12671W        W81144  27.680  42.907  10.581
12672W        W81145  42.814  43.980  10.513
12673W        W81146   8.825  32.480   4.724
12674W        W81147  32.088  28.014   1.340
12675W        W81148  34.586  31.569  13.807
12676W        W81149  13.647  10.665   2.240
12677W        W81150  42.958   8.390   4.168
12678W        W81151  30.132  33.977   0.329
12679W        W81152  40.888   8.262  13.842
12680W        W81153  11.635  17.138   4.167
12681W        W81154  19.749   4.247   3.342
12682W        W81155  17.125  32.112  10.011
12683W        W81156   8.890  43.814  13.059
12684W        W81157   3.220  29.001   3.260
12685W        W81158  20.633  26.525   2.842
12686W        W81159  31.965  40.436  14.491
12687W        W81160   0.767  12.633  12.046
12688W        W81161  10.778  20.116   3.831
12689W        W81162   8.731   5.903   1.330
12690W        W81163  18.779  40.798  10.625
12691W        W81164  35.894  28.098  14.868
12692W        W81165  29.428  41.299   2.769
12693W        W81166  30.639  36.397   4.141
12694W        W81167   1.417   8.661  12.441
12695W        W81168  18.279   5.199  13.491
12696W        W81169   8.829  19.249  13.353
12697W        W81170  39.447  26.601   4.205
12698W        W81171  13.804  36.532  10.901
12699W        W81172  21.738  12.255  10.527
12700W        W81173  31.426  44.970  13.844
12701W        W81174  44.277  34.035   1.297
12702W        W81175  34.546   8.173   1.243
12703W        W81176  40.412  30.122  13.892
12704W        W81177  13.694  15.767   2.328
12705W        W81178   8.255   9.654   1.806
12706W        W81179  11.797  35.944  12.376
12707W        W81180  13.639  22.251  10.908
12708W        W81181  18.063  42.020   4.221
12709W        W81182  42.527  29.062  10.609
12710W        W81183  11.836  19.763  12.405
12711W        W81184  29.169  34.074   2.236
12712W        W81185  27.987  32.939  10.546
12713W        W81186  36.895  20.754   3.288
12714W        W81187  13.349  19.559   2.675
12715W        W81188  31.025  33.959   4.293
12716W        W81189  18.210   8.293  14.405
12717W        W81190  39.035  31.927  14.935
12718W        W81191  11.858  40.810  11.958
12719W        W81192  11.724  42.382   1.364
12720W        W81193  35.552  40.040  11.397
12721W        W81194  10.873  31.100  10.577
12722W        W81195  17.761   2.388   0.438
12723W        W81196  29.576  17.249   4.227
12724W        W81197  28.161  18.706   4.622
12725W        W81198  26.630  12.643   3.781
12726W        W81199  39.962  16.295  14.966
12727W        W81200   4.740  17.581  14.897
12728W        W81201  16.118  36.090  12.984
12729W        W81202  10.180   8.751   4.135
12730W        W81203   8.697  27.496  11.005
12731W        W81204  31.628  10.745   1.362
12732W        W81205   7.680  26.505  14.495
12733W        W81206   1.849   8.161   0.421
12734W        W81207  44.763  36.894   2.813
12735W        W81208  14.826   2.816  12.405
12736W        W81209  15.812  10.786  13.463
12737W        W81210  29.967  23.218   4.164
12738W        W81211  35.381  43.466  14.790
12739W        W81212  40.527  16.097   0.312
12740W        W81213   6.896  38.349   4.166
12741W        W81214   8.875   6.425  14.313
12742W        W81215  41.881  21.590   0.325
12743W        W81216   5.728  27.686  11.864
12744W        W81217  21.098  37.363  13.518
12745W        W81218  39.937  15.738   3.768
12746W        W81219  32.516  17.291   2.368
12747W        W81220  24.688  29.081  11.886
12748W        W81221  42.957   6.266   5.087
12749W        W81222  37.854  28.473   1.756
12750W        W81223   0.848  28.598  10.925
12751W        W81224  26.994  23.569   4.281
12752W        W81225  13.140   8.825  12.364
12753W        W81226  40.446  29.094  11.464
12754W        W81227  37.001  43.425  12.536
12755W        W81228  40.805   9.723   0.298
12756W        W81229  23.144  40.395  10.963
12757W        W81230  19.259  43.285  12.444
12758W        W81231  42.521  23.706  12.553
12759W        W81232   5.417   7.797  14.774
12760W        W81233  22.599  35.031   4.648
12761W        W81234  37.555  34.876   4.307
12762W        W81235   7.858  12.837  11.542
12763W        W81236   3.343  30.083  11.975
12764W        W81237   4.260   0.295   3.641
12765W        W81238  36.866   7.718  12.446
12766W        W81239  39.350  36.893   1.392
12767W        W81240  17.089  30.125  12.965
12768W        W81241  35.487  33.940   3.763
12769W        W81242  38.445  18.117  13.863
12770W        W81243  34.538  34.977  13.925
12771W        W81244  12.234   1.453   0.869
12772W        W81245  25.142   4.229   0.923
12773W        W81246  37.452   2.291  11.472
12774W        W81247   9.710  29.645   0.895
12775W        W81248  12.656  29.054  11.916
12776W        W81249  26.612  10.207   5.142
12777W        W81250  18.246   0.491  12.580
12778W        W81251  20.523  26.668  10.595
12779W        W81252  38.053  19.613   1.876
12780W        W81253  34.006   7.389   1.441
12781W        W81254  31.094  21.160  14.782
12782W        W81255  42.493   8.898  13.005
12783W        W81256  41.355  29.580   3.732
12784W        W81257  37.989  28.535   3.780
12785W        W81258  21.637  18.695  11.495
12786W        W81259   1.778  29.012  14.376
12787W        W81260   3.927  39.471  13.810
12788W        W81261  12.746  40.306   2.386
12789W        W81262  12.727  34.955  13.843
12790W        W81263   6.245   8.372   0.929
12791W        W81264  21.593   7.869   1.697
12792W        W81265  20.243   5.747  11.951
12793W        W81266  29.518   5.373  13.514
12794W        W81267   0.304  32.886   2.798
12795W        W81268  23.642  40.331  12.940
12796W        W81269  36.403  27.476  10.594
12797W        W81270  14.179   8.360  14.427
12798W        W81271  15.745   0.750  11.856
12799W        W81272  17.616  17.726   0.342
12800W        W81273  42.344  39.943  10.559
12801W        W81274  11.180   3.837  14.878
12802W        W81275  23.118   7.685   1.737
12803W        W81276  10.181  36.464  13.418
12804W        W81277  32.546  23.192   2.221
12805W        W81278  38.075  19.604   0.323
12806W        W81279   8.863  24.575  11.020
12807W        W81280  37.954  37.017  11.385
12808W        W81281  27.047  42.781   4.720
12809W        W81282  17.204  33.995  13.957
12810W        W81283  16.811   9.336   3.286
12811W        W81284   1.930  40.517  14.948
12812W        W81285  15.320   2.324  14.459
12813W        W81286  38.051  40.915  10.539
12814W        W81287   1.353  38.062   3.204
12815W        W81288  13.129   8.315  11.968
12816W        W81289  42.392  26.158   4.700
12817W        W81290  17.724  29.973  12.341
12818W        W81291  27.481  35.101   2.395
12819W        W81292  28.579   4.732  10.471
12820W        W81293  37.401   7.281  11.068
12821W        W81294  32.936   9.664  10.443
12822W        W81295  36.075   2.359  10.609
12823W        W81296  29.031   9.212   1.795
12824W        W81297  43.333  25.073   1.772
12825W        W81298  25.105  16.107  13.351
12826W        W81299   4.725   2.820   1.836
12827W        W81300  28.505   0.895  13.830
12828W        W81301  29.109  42.983   1.783
12829W        W81302   5.262   4.296  14.810
12830W        W81303  20.205  38.039  11.959
12831W        W81304   9.701  18.640   0.939
12832W        W81305  43.010  37.563  14.393
12833W        W81306   2.404   9.237  14.790
12834W        W81307   8.877  40.020   1.884
12835W        W81308  33.494  15.276   0.826
12836W        W81309  37.507  40.894  14.888
12837W        W81310  18.073  16.201   4.599
12838W        W81311  21.515  20.030   3.753
12839W        W81312   6.894  29.154  11.397
12840W        W81313  38.486   8.786  10.016
12841W        W81314   5.353   9.276   3.822
12842W        W81315  24.043  29.462  11.120
12843W        W81316  25.991  44.861   1.446
12844W        W81317  34.541  41.461   1.858
12845W        W81318  35.604  35.927   3.335
12846W        W81319  26.632  13.806  11.862
12847W        W81320  22.078  23.553   3.866
12848W        W81321  27.991  25.085  14.917
12849W        W81322  34.019  32.625   4.830
12850W        W81323  21.626  44.914  11.921
12851W        W81324  16.132   3.760   4.333
12852W        W81325  35.022  44.386   4.125
12853W        W81326   2.802  11.817   4.332
12854W        W81327  40.398  22.722   3.177
12855W        W81328  37.479  41.814   4.758
12856W        W81329  27.966  22.144  13.377
12857W        W81330  40.522  29.490   0.387
12858W        W81331  41.022   7.338  12.960
12859W        W81332   9.728  28.096  14.933
12860W        W81333  19.150  23.204   1.807
12861W        W81334  21.668  33.958  12.886
12862W        W81335  37.858  34.549  12.455
12863W        W81336   8.803  28.024  11.908
12864W        W81337  18.296  16.749   1.248
12865W        W81338   4.826  31.430   4.153
12866W        W81339  20.065   0.775   3.243
12867W        W81340  11.743  34.920  12.893
12868W        W81341  37.008  22.658  11.551
12869W        W81342  36.005   7.722  10.992
12870W        W81343  19.659  13.633  11.502
12871W        W81344  26.592  40.033   2.299
12872W        W81345   6.755   6.191   1.812
12873W        W81346  17.159  34.396   4.294
12874W        W81347   8.191  42.482   2.846
12875W        W81348  29.519  37.961   4.695
12876W        W81349  29.162  37.894  13.033
12877W        W81350   7.284  11.300   1.330
12878W        W81351  16.083   1.924   2.182
12879W        W81352  36.092   5.295   3.680
12880W        W81353   0.365  35.911  11.865
12881W        W81354  40.380  28.534  10.568
12882W        W81355   2.429  25.164   3.303
12883W        W81356  10.688  14.659   2.887
12884W        W81357  15.673  37.856   2.279
12885W        W81358  35.880  34.384   4.688
12886W        W81359   5.333   2.907   1.256
12887W        W81360  17.663  17.734  12.016
12888W        W81361  16.245  35.464   4.210
12889W        W81362  24.097  16.627  14.477
12890W        W81363   4.758  19.212  12.969
12891W        W81364   0.811   4.807   2.364
12892W        W81365  23.167  42.976   1.835
12893W        W81366  42.994  35.985  14.409
12894W        W81367   1.789   4.316  10.615
12895W        W81368  10.315  29.074   4.239
12896W        W81369  39.899  44.998   1.809
12897W        W81370   2.920  43.903  14.488
12898W        W81371  21.071  40.856   4.136
12899W        W81372  17.274  29.647  11.982
12900W        W81373  22.579  24.625   1.260
12901W        W81374  41.499  17.726  13.969
12902W        W81375  41.297  33.045   4.746
12903W        W81376  12.189  13.117   4.332
12904W        W81377   1.933  10.284  14.451
12905W        W81378  18.564  35.076   0.449
12906W        W81379  22.728   2.825   2.188
12907W        W81380  33.583  39.008  12.016
12908W        W81381  39.328  14.737   4.764
12909W        W81382  34.593  16.749   2.314
12910W        W81383  44.341  21.553   0.752
12911W        W81384  42.999  18.723  13.310
12912W        W81385  18.620  21.583   1.412
12913W        W81386  18.295  38.397  13.844
12914W        W81387  41.438  12.241  12.891
12915W        W81388  18.688  30.577  10.576
12916W        W81389  15.673   3.252  14.032
12917W        W81390   9.317  20.590   0.436
12918W        W81391   8.822  28.052  12.842
12919W        W81392  25.997   4.358  14.357
12920W        W81393  24.521  29.034   3.169
12921W        W81394  11.275   1.436  11.119
12922W        W81395   0.457  18.281  11.516
12923W        W81396  23.138  21.692  12.930
12924W        W81397  12.118  34.535  13.316
12925W        W81398  37.577  11.675  11.553
12926W        W81399   6.817  34.521  10.622
12927W        W81400  19.143   5.906   4.798
12928W        W81401  12.678  20.747   3.213
12929W        W81402  34.387   8.863  12.448
12930W        W81403   6.182  10.332  12.964
12931W        W81404  18.752  19.594  13.896
12932W        W81405   0.487  42.805   1.798
12933W        W81406   1.305  26.587   1.738
12934W        W81407  21.727  25.027  12.852
12935W        W81408  14.788  36.365   4.142
12936W        W81409  41.887   5.931  11.569
12937W        W81410  28.955  36.083   4.733
12938W        W81411  26.645  41.874   0.352
12939W        W81412  42.831  17.071  13.938
12940W        W81413  23.082  41.808   3.169
12941W        W81414  31.079  21.173  12.549
12942W        W81415   9.884  29.138  12.942
12943W        W81416  13.171  17.287  11.027
12944W        W81417  43.499  14.108  14.949
12945W        W81418  26.531  16.660  13.829
12946W        W81419   9.365  17.304  13.848
12947W        W81420  19.759  29.988  11.894
12948W        W81421  43.400  40.496  14.027
12949W        W81422  15.648   7.826  13.352
12950W        W81423  31.037   4.893   0.398
12951W        W81424   6.383  28.626  12.341
12952W        W81425   2.330  21.708   0.825
12953W        W81426  12.301  22.147  11.604
12954W        W81427  37.071  40.469  13.381
12955W        W81428  19.168  20.700  13.473
12956W        W81429  35.902  32.468  11.064
12957W        W81430   4.233  36.584   2.214
12958W        W81431  31.011  12.725  11.097
12959W        W81432  12.234  43.902  13.539
12960W        W81433   0.985  36.587  13.044
12961W        W81434   5.211  12.262  11.071
12962W        W81435  36.381  34.480  13.974
12963W        W81436   8.815  31.434   4.299
12964W        W81437  31.636  15.605  10.014
12965W        W81438  18.129   9.829  12.354
12966W        W81439  16.575   0.352  11.590
12967W        W81440  22.129  13.305   2.367
12968W        W81441  10.335   8.314  13.846
12969W        W81442  26.025  40.506  14.408
12970W        W81443  15.678   2.471   0.739
12971W        W81444  12.325  33.537  13.956
12972W        W81445  19.564   8.833   2.231
12973W        W81446  11.780  38.926   2.282
12974W        W81447  39.555  22.163   0.344
12975W        W81448   4.784  20.159   3.176
12976W        W81449   8.363  14.166   4.312
12977W        W81450  26.002  29.590   0.474
12978W        W81451   0.948  14.656   0.385
12979W        W81452  13.333   6.870  11.951
12980W        W81453   9.174   8.837  13.364
12981W        W81454  35.498   0.371   2.714
12982W        W81455   8.655  28.681  12.025
12983W        W81456  28.626  43.337   4.325
12984W        W81457  24.143  43.466   3.306
12985W        W81458  44.427  36.446  13.791
12986W        W81459   6.363  31.097   2.394
12987W        W81460   1.838   9.755   4.807
12988W        W81461  13.302  40.832  14.975
12989W        W81462  25.539  21.726  14.433
12990W        W81463  39.512  23.683  10.986
12991W        W81464  14.275  29.050  10.432
12992W        W81465  10.351  28.677   4.187
12993W        W81466  28.478  13.771  14.812
12994W        W81467  18.582  19.578   2.378
12995W        W81468  33.031  41.328  11.475
12996W        W81469  36.505  40.928  11.482
12997W        W81470   0.975   6.829  11.956
12998W        W81471  27.146   0.892  12.520
12999W        W81472  40.529  23.078  10.479
13000W        W81473  29.133   8.287   4.651
13001W        W81474  18.183   9.244  13.489
13002W        W81475  26.627  20.669  14.916
13003W        W81476   4.210  23.601  11.932
13004W        W81477  36.557   7.809   2.706
13005W        W81478  35.521  23.582  12.919
13006W        W81479   3.261   8.748   5.106
13007W        W81480  23.517  25.218  10.115
13008W        W81481   5.897  12.292  13.344
13009W        W81482   3.404  43.991   4.699
13010W        W81483  35.034  31.437  13.488
13011W        W81484  14.623  17.118  11.039
13012W        W81485  37.447  10.858  10.477
13013W        W81486  35.869   5.708  13.485
13014W        W81487  38.535   3.428   0.368
13015W        W81488  39.979  36.099  10.572
13016W        W81489  34.555  37.845   4.201
13017W        W81490  30.921   7.818   3.762
13018W        W81491  23.140  42.899  12.018
13019W        W81492   9.360  39.903  13.315
13020W        W81493  26.592  21.620  14.315
13021W        W81494  43.933  42.355  12.572
13022W        W81495  24.599  16.163   2.302
13023W        W81496  29.479   9.809  11.410
13024W        W81497  18.659  21.097  10.920
13025W        W81498   1.344   7.872   2.765
13026W        W81499   5.393   5.330  13.799
13027W        W81500   3.330   3.381  12.922
13028W        W81501   0.813  43.912   0.861
13029W        W81502  43.777  10.268  11.531
13030W        W81503  29.609  25.521   3.230
13031W        W81504  40.532   0.889  10.626
13032W        W81505  26.031  37.574   2.191
13033W        W81506  29.458  27.663  12.886
13034W        W81507  40.885  30.992  14.429
13035W        W81508  30.079  17.733   3.205
13036W        W81509  23.148   3.720  14.351
13037W        W81510  24.065  40.949  11.984
13038W        W81511  14.694  28.987  13.453
13039W        W81512  20.080   8.263   4.281
13040W        W81513  39.019  25.199   5.166
13041W        W81514   0.952  40.845  10.610
13042W        W81515  29.511   0.485  14.935
13043W        W81516  15.125  31.097  11.560
13044W        W81517  13.794   0.457  12.844
13045W        W81518  40.949  39.511  12.457
13046W        W81519  17.301  42.007  12.571
13047W        W81520   8.737  22.532   1.832
13048W        W81521  27.499  27.606  14.971
13049W        W81522  29.551   2.821  14.376
13050W        W81523  10.728  23.003   2.868
13051W        W81524  15.192  23.058   1.220
13052W        W81525  21.566  22.677  11.431
13053W        W81526   3.383  39.842  14.908
13054W        W81527  16.708  25.206   0.254
13055W        W81528  11.630   6.827   3.852
13056W        W81529  36.040  36.879  13.001
13057W        W81530  35.955  12.703   0.282
13058W        W81531  17.188  33.488   2.788
13059W        W81532  29.156  12.297  10.618
13060W        W81533  11.292  35.499  14.334
13061W        W81534  29.999  37.957  11.109
13062W        W81535   5.435  34.925  10.158
13063W        W81536   2.831  27.598  14.885
13064W        W81537  10.310   6.859   4.352
13065W        W81538  32.079   2.904  13.046
13066W        W81539  31.100  34.449   1.324
13067W        W81540  27.463  38.833  11.428
13068W        W81541   1.314  25.710   3.308
13069W        W81542  33.976  31.048  12.450
13070W        W81543   6.319   6.794  10.925
13071W        W81544   6.857  37.411  11.524
13072W        W81545  29.593  44.921   1.234
13073W        W81546   1.321  39.980   3.781
13074W        W81547  42.860   3.229   0.755
13075W        W81548  18.782  36.859   3.321
13076W        W81549  36.471  36.903   1.433
13077W        W81550  15.604  16.629  12.438
13078W        W81551  33.053  36.057  10.996
13079W        W81552  26.114  34.502   1.426
13080W        W81553  36.563  12.772  13.005
13081W        W81554  38.340  40.434   2.873
13082W        W81555  27.485   8.309  12.014
13083W        W81556  37.969  38.537   0.341
13084W        W81557  22.746  25.480   4.641
13085W        W81558  18.103  34.959   4.737
13086W        W81559  33.537   9.207   3.155
13087W        W81560  15.176  26.127  11.125
13088W        W81561  28.983  38.897   1.737
13089W        W81562  26.535  20.189   0.750
13090W        W81563   0.906   2.441  13.967
13091W        W81564   3.781  21.516  13.389
13092W        W81565  19.191  30.049  10.641
13093W        W81566  33.508  23.697  14.886
13094W        W81567  14.150  41.517   4.240
13095W        W81568  25.189   4.340  14.868
13096W        W81569  40.468  37.384   4.714
13097W        W81570   2.814  17.801   0.457
13098W        W81571  35.008   4.203   3.687
13099W        W81572  35.943  40.872  13.913
13100W        W81573   1.898   8.673   4.175
13101W        W81574  31.565  14.222  10.939
13102W        W81575  22.012  42.818  14.829
13103W        W81576  26.012  27.543  10.475
13104W        W81577  38.054   1.448   2.399
13105W        W81578  41.022  33.923   1.425
13106W        W81579   1.419  25.639  14.959
13107W        W81580   1.875   7.250   3.358
13108W        W81581  36.863  12.789  12.907
13109W        W81582   9.786   8.386   1.756
13110W        W81583   1.899  44.459  13.884
13111W        W81584  11.263  30.474   2.732
13112W        W81585  12.677   7.812   3.345
13113W        W81586  38.379  40.355   1.696
13114W        W81587   4.855  29.625  12.043
13115W        W81588  25.690  32.932  13.897
13116W        W81589  24.139  11.666   0.329
13117W        W81590  38.890  14.715  11.048
13118W        W81591   3.860  39.983  12.353
13119W        W81592  23.130  29.574   1.908
13120W        W81593   8.332  17.172  13.997
13121W        W81594  12.791  33.950   2.864
13122W        W81595  19.620   8.373  13.467
13123W        W81596   4.711  23.711  14.891
13124W        W81597  41.916   8.689   2.409
13125W        W81598  39.403  16.307   2.383
13126W        W81599   4.275  23.144  12.561
13127W        W81600  16.662  42.415  12.072
13128W        W81601  30.947  30.628  14.956
13129W        W81602  43.003  12.750  13.020
13130W        W81603  32.053   8.661  13.311
13131W        W81604  28.118  15.621  12.862
13132W        W81605  28.625  10.868   2.366
13133W        W81606   4.281  30.532  14.318
13134W        W81607  26.982  41.043   3.192
13135W        W81608   2.730  19.564  12.009
13136W        W81609  15.142  10.879  14.345
13137W        W81610  22.016   8.169   2.391
13138W        W81611   5.855  38.966  12.528
13139W        W81612  44.756  31.976  14.777
13140W        W81613  43.840  10.784  11.986
13141W        W81614  14.310   7.804  10.919
13142W        W81615  26.994   7.814   2.842
13143W        W81616  41.034   1.973  10.908
13144W        W81617  38.385  12.123  11.876
13145W        W81618   7.377  18.189  12.056
13146W        W81619   9.860  23.585   4.772
13147W        W81620  34.548   6.776   1.890
13148W        W81621  22.579  27.081  13.349
13149W        W81622  36.516  12.158  10.550
13150W        W81623  22.575  36.978   3.823
13151W        W81624  22.583   7.242  12.469
13152W        W81625  39.499  14.808  13.947
13153W        W81626  25.694  35.003  13.446
13154W        W81627  36.431  23.190  13.928
13155W        W81628   7.879  43.475   2.875
13156W        W81629  30.911  14.194  14.388
13157W        W81630  28.629   5.792  12.351
13158W        W81631  26.576  24.016   4.279
13159W        W81632   7.813  26.148  13.830
13160W        W81633  26.475  42.874   4.614
13161W        W81634  40.915  26.168   0.846
13162W        W81635  22.181  11.719  10.510
13163W        W81636   6.834  11.766   0.304
13164W        W81637   2.788  12.855   2.223
13165W        W81638  20.659  21.577   0.309
13166W        W81639   9.339  20.624   3.667
13167W        W81640  32.081  39.467   2.267
13168W        W81641  21.231  27.087   2.778
13169W        W81642  30.913  12.125   2.259
13170W        W81643  23.569   3.893   3.777
13171W        W81644  11.817  13.664   4.715
13172W        W81645  23.991   6.228   1.753
13173W        W81646  28.086  22.243  11.575
13174W        W81647  20.571   5.291  12.373
13175W        W81648  39.513  26.125   4.145
13176W        W81649   6.208  17.172  10.491
13177W        W81650  21.040   0.299   9.944
13178W        W81651  36.048  13.173   1.745
13179W        W81652   1.402  42.783  12.977
13180W        W81653   9.284  14.321  13.438
13181W        W81654  20.188  19.259  11.100
13182W        W81655  25.653  23.123  12.980
13183W        W81656  38.553  35.867  10.430
13184W        W81657  43.962  18.630  14.883
13185W        W81658   2.346  23.177   3.863
13186W        W81659  16.117  40.901  14.880
13187W        W81660  44.958   8.669  12.442
13188W        W81661  32.029  43.278   4.301
13189W        W81662  27.050   0.325   5.579
13190W        W81663  10.852  23.633  13.494
13191W        W81664  31.950  32.904   0.359
13192W        W81665   7.200  32.466   3.773
13193W        W81666  17.095  40.505   0.823
13194W        W81667  21.030   4.823   5.085
13195W        W81668   0.928  35.975  11.488
13196W        W81669  44.808  11.765  11.916
13197W        W81670  42.016  32.029  11.943
13198W        W81671   8.191  41.967  10.992
13199W        W81672  24.587  27.556  13.054
13200W        W81673   8.775  12.359  13.341
13201W        W81674  21.646  31.635  12.002
13202W        W81675  24.633  29.090   2.758
13203W        W81676  40.909  25.075   3.807
13204W        W81677  27.638  14.335  12.999
13205W        W81678  29.488  42.503   1.303
13206W        W81679  25.156  43.995   1.231
13207W        W81680  10.663  22.617   2.399
13208W        W81681  31.054  28.971   0.753
13209W        W81682  11.648  17.133   3.685
13210W        W81683  33.057  31.564  13.307
13211W        W81684  11.777  29.464  14.785
13212W        W81685  34.947   5.881   0.262
13213W        W81686  22.156   7.885   3.214
13214W        W81687  25.685  40.456  14.828
13215W        W81688   2.916  40.980   2.369
13216W        W81689  35.887  25.655   4.611
13217W        W81690   2.443  34.371   4.135
13218W        W81691  14.671  32.913   1.867
13219W        W81692   3.459  41.955   4.687
13220W        W81693  35.542   6.791   2.304
13221W        W81694  19.613  38.844   3.667
13222W        W81695  19.282  31.623  11.872
13223W        W81696  21.632  36.575  13.496
13224W        W81697  23.565   9.367   1.734
13225W        W81698  20.076  11.849   2.744
13226W        W81699  25.088  28.532  11.061
13227W        W81700  35.911  21.119   4.144
13228W        W81701  12.237  21.194  13.506
13229W        W81702   5.781   2.769  14.921
13230W        W81703  22.066  30.645   4.115
13231W        W81704  34.876  32.605  12.451
13232W        W81705  30.113  10.224  10.989
13233W        W81706  23.236  41.428  13.331
13234W        W81707  11.268   3.268   3.301
13235W        W81708  16.608  35.390   3.232
13236W        W81709  18.687  35.985  11.544
13237W        W81710  27.189  11.131  14.801
13238W        W81711  10.195  33.437   4.675
13239W        W81712  19.123  16.678   4.346
13240W        W81713   1.962  23.071  10.462
13241W        W81714  43.446  22.617  14.505
13242W        W81715  20.171  34.473  12.023
13243W        W81716  12.757   9.301   4.628
13244W        W81717  16.721  17.131  13.431
13245W        W81718  23.678   7.889   4.133
13246W        W81719  35.362  14.301   3.702
13247W        W81720   8.312  23.152   1.418
13248W        W81721  31.587  32.538  10.469
13249W        W81722   3.374  28.042  14.929
13250W        W81723  35.452  20.102   3.789
13251W        W81724   1.978  32.509   3.198
13252W        W81725   9.811   1.470  10.642
13253W        W81726  18.589   7.308   3.313
13254W        W81727  13.190  35.375   3.359
13255W        W81728  10.176  25.689   5.724
13256W        W81729  11.309  22.651   0.816
13257W        W81730  31.927  13.745  12.930
13258W        W81731   4.916  15.709   1.448
13259W        W81732  12.288  19.718   2.892
13260W        W81733   4.303  21.128   0.843
13261W        W81734  34.498  36.441   4.656
13262W        W81735  15.766  22.614  11.917
13263W        W81736  11.807   2.898  13.845
13264W        W81737   3.786  35.478  10.900
13265W        W81738   8.757  43.340   2.822
13266W        W81739  20.160  31.614  13.428
13267W        W81740  43.001  11.658  13.055
13268W        W81741   4.895   1.375  12.559
13269W        W81742   0.336   9.361  14.881
13270W        W81743  21.591  11.254  13.040
13271W        W81744  44.417   0.971   4.677
13272W        W81745  14.806  31.980  12.069
13273W        W81746  15.778  16.733  12.079
13274W        W81747  14.772  44.772   0.460
13275W        W81748  24.564   0.355   4.614
13276W        W81749   7.897  11.838  12.355
13277W        W81750  31.949   2.468  13.364
13278W        W81751  26.971  10.220  10.454
13279W        W81752   3.881  24.082  14.966
13280W        W81753  18.162   4.280   1.423
13281W        W81754  40.024  23.692   2.328
13282W        W81755  31.404   0.894  10.557
13283W        W81756   1.248  24.201   1.787
13284W        W81757  19.691  39.964   4.732
13285W        W81758  31.028  27.646  13.369
13286W        W81759  20.121  10.274   1.352
13287W        W81760  42.960  18.051   1.275
13288W        W81761  39.320  35.075   2.362
13289W        W81762   5.711  21.213  14.926
13290W        W81763  23.074  34.949  12.037
13291W        W81764   2.470  16.217  12.371
13292W        W81765  32.460  16.101   1.431
13293W        W81766  35.468  41.943  14.916
13294W        W81767   4.925  29.650   2.239
13295W        W81768  27.621  41.984   1.362
13296W        W81769  11.661  33.005   0.876
13297W        W81770  36.852  24.127  10.541
13298W        W81771   6.239  18.204  14.443
13299W        W81772  44.431  23.037   1.902
13300W        W81773   9.700   9.209   1.401
13301W        W81774  23.131  23.683  14.025
13302W        W81775  19.684   9.826   0.890
13303W        W81776   8.279  21.160   4.167
13304W        W81777  11.302  22.162  13.841
13305W        W81778  19.592   8.757   1.338
13306W        W81779   1.767   3.350   4.748
13307W        W81780  25.100  32.122   4.163
13308W        W81781  37.920  21.573   1.249
13309W        W81782  20.166   1.483   0.788
13310W        W81783  36.390   8.672   2.862
13311W        W81784  33.065   1.905  10.537
13312W        W81785  21.688  39.369  13.483
13313W        W81786  12.694  21.244  11.516
13314W        W81787  40.822  26.527   4.132
13315W        W81788  23.070  35.948  12.533
13316W        W81789  26.677  30.938  10.615
13317W        W81790   2.960  39.043  10.530
13318W        W81791  19.061  33.989   3.670
13319W        W81792  31.959   1.882   0.745
13320W        W81793  38.484  38.533  13.797
13321W        W81794  32.597  12.701  13.320
13322W        W81795   9.282  12.116  12.903
13323W        W81796  13.164  41.394   4.271
13324W        W81797   6.229   5.794   4.599
13325W        W81798  10.754   1.734  13.503
13326W        W81799   6.341  14.117  13.851
13327W        W81800  25.525  30.072  12.828
13328W        W81801   1.321  20.209   2.855
13329W        W81802  10.259  36.037  10.475
13330W        W81803  11.359  44.795   3.691
13331W        W81804   6.697   5.201  14.466
13332W        W81805  44.959  30.630  14.003
13333W        W81806   2.325   9.333   4.608
13334W        W81807  19.082  40.502  14.782
13335W        W81808  35.436  27.471   0.745
13336W        W81809  44.885  15.680   0.263
13337W        W81810  33.022  42.370  14.008
13338W        W81811  19.276  26.599   2.779
13339W        W81812   7.767  13.147  10.488
13340W        W81813  24.685  10.665   2.863
13341W        W81814   9.876   1.744  13.517
13342W        W81815  20.522  42.419   4.332
13343W        W81816  12.857  28.579  10.614
13344W        W81817   1.839  21.624   3.233
13345W        W81818  32.934  24.184  14.482
13346W        W81819   1.731  44.274   0.258
13347W        W81820  35.090  29.619   4.146
13348W        W81821   8.226  16.158   3.229
13349W        W81822  44.936   5.788  13.797
13350W        W81823   3.307  18.260  11.418
13351W        W81824   2.442  15.238   0.848
13352W        W81825  11.675   9.266   2.688
13353W        W81826   1.269  24.009   4.766
13354W        W81827   9.325  19.116  13.866
13355W        W81828  30.490  12.231  12.951
13356W        W81829   2.290  31.629  11.968
13357W        W81830  11.359  25.043   4.704
13358W        W81831  29.126  40.846   2.667
13359W        W81832  25.196  13.316  10.896
13360W        W81833  27.492  37.579   1.250
13361W        W81834  11.316   6.300  12.556
13362W        W81835  22.086  20.214   0.825
13363W        W81836  26.195  25.126  14.867
13364W        W81837  37.552  42.407  14.771
13365W        W81838  37.059  23.530   0.335
13366W        W81839   6.304  18.751   4.118
13367W        W81840  24.137  10.850   3.168
13368W        W81841  32.605  16.284   4.165
13369W        W81842  11.277  18.608  12.559
13370W        W81843  21.156  19.121   4.695
13371W        W81844  44.393  16.203  11.920
13372W        W81845   7.345  17.574   2.722
13373W        W81846  18.678  33.406  13.827
13374W        W81847  42.372  11.238  11.017
13375W        W81848  29.465  14.138  13.889
13376W        W81849  17.639  27.127  13.969
13377W        W81850  31.528   4.838  10.090
13378W        W81851  30.125  20.049  12.521
13379W        W81852  11.846  38.404  13.369
13380W        W81853  39.443  36.002   0.846
13381W        W81854  36.009  37.436  12.415
13382W        W81855  17.062  19.221  13.878
13383W        W81856   8.311  43.997   0.357
13384W        W81857  17.098  35.108  12.938
13385W        W81858   4.407  19.536  11.897
13386W        W81859  16.645  13.667   2.674
13387W        W81860  16.793   1.795   2.390
13388W        W81861  23.155  14.263  10.414
13389W        W81862  33.961  41.888   3.318
13390W        W81863  25.540  32.583   0.308
13391W        W81864  11.684  11.717   2.809
13392W        W81865  39.476   2.784  14.485
13393W        W81866  17.145  31.569   2.396
13394W        W81867  31.469  38.470  14.872
13395W        W81868  17.102   4.871  12.854
13396W        W81869   7.359   7.858  11.437
13397W        W81870  11.245  22.620  11.466
13398W        W81871  12.277  18.594   1.867
13399W        W81872   1.329  42.898  10.418
13400W        W81873  43.316  10.802  13.039
13401W        W81874   3.375  25.152  12.543
13402W        W81875  22.528  38.478   2.710
13403W        W81876  35.082  14.639   2.400
13404W        W81877  31.025   3.344   3.335
13405W        W81878  35.857  36.035  11.888
13406W        W81879   4.336  40.843   3.195
13407W        W81880  11.775  26.133  14.856
13408W        W81881  35.965  36.873  11.074
13409W        W81882  14.262  44.987   4.699
13410W        W81883  22.530  15.817  14.932
13411W        W81884  35.533  22.188   3.702
13412W        W81885  43.803  22.214  13.315
13413W        W81886  11.727  44.340   0.483
13414W        W81887  38.404  15.109   4.779
13415W        W81888   4.360  35.408   0.892
13416W        W81889  32.909  10.846   0.460
13417W        W81890   0.254  40.330   0.295
13418W        W81891  23.061  37.084  12.407
13419W        W81892  30.040  11.191   1.730
13420W        W81893  32.971   7.818  12.976
13421W        W81894  43.358  13.187  11.930
13422W        W81895  20.121  31.029  12.462
13423W        W81896  37.470  36.503   3.167
13424W        W81897  29.560  16.077  10.953
13425W        W81898  18.209  28.023   0.383
13426W        W81899  40.309  16.193   4.792
13427W        W81900  37.339   4.276   1.270
13428W        W81901   0.293  12.315   1.858
13429W        W81902  27.058  21.170  13.318
13430W        W81903   2.928  35.919  14.787
13431W        W81904  18.772  20.236  11.917
13432W        W81905  28.675  38.482   3.722
13433W        W81906  25.651   3.288   4.146
13434W        W81907   9.186  11.151   3.216
13435W        W81908   0.875  35.977   3.339
13436W        W81909   0.463  33.572   2.729
13437W        W81910  20.072  38.963  12.562
13438W        W81911  19.129  37.042   2.247
13439W        W81912  11.844   0.918  11.921
13440W        W81913  23.534  44.909   3.183
13441W        W81914   8.191  37.436   0.901
13442W        W81915  32.443  32.948  12.834
13443W        W81916   4.379   7.691   4.759
13444W        W81917  34.444  17.786   2.287
13445W        W81918  26.204  37.947   2.768
13446W        W81919  14.597   3.749   3.749
13447W        W81920  17.218  22.720  10.129
13448W        W81921  23.692  27.609   9.523
13449W        W81922  25.079   1.252   0.941
13450W        W81923   6.716   5.351  10.933
13451W        W81924   9.370  32.959   2.235
13452W        W81925   0.829  17.564  11.488
13453W        W81926  27.034  33.509   3.371
13454W        W81927  28.027  15.819   0.448
13455W        W81928  21.033  11.300  14.787
13456W        W81929  34.036  44.832  11.898
13457W        W81930  35.458  16.637   1.811
13458W        W81931  38.994   3.284   0.260
13459W        W81932  18.287   2.264  12.568
13460W        W81933   2.768   9.777  14.966
13461W        W81934  35.088   3.952   2.276
13462W        W81935  17.670  21.097   1.335
13463W        W81936  34.393  33.059   0.433
13464W        W81937  37.520  39.909   0.356
13465W        W81938  27.643  20.201  11.588
13466W        W81939   9.380  10.869  11.985
13467W        W81940  28.002  16.123   3.146
13468W        W81941  12.229   5.264  11.487
13469W        W81942  22.159  35.867   2.894
13470W        W81943  24.074  15.102  11.018
13471W        W81944  34.429  33.070  12.044
13472W        W81945  41.360  22.596  12.415
13473W        W81946  43.863  36.356   4.345
13474W        W81947  43.962   3.786  13.928
13475W        W81948  24.551   0.949   2.718
13476W        W81949  17.230  39.869  10.417
13477W        W81950  15.099  32.487  11.558
13478W        W81951  36.893  15.608   3.281
13479W        W81952  24.142   6.198   0.335
13480W        W81953  10.160  42.825  13.801
13481W        W81954  18.589  44.283  11.430
13482W        W81955  18.207  40.811  11.865
13483W        W81956  13.250   4.401   1.360
13484W        W81957  44.875  31.484  12.548
13485W        W81958  26.694   2.444  14.003
13486W        W81959  25.122   0.984   4.662
13487W        W81960  13.669  12.295  12.931
13488W        W81961  18.734  13.280  14.966
13489W        W81962  40.954  10.783  11.492
13490W        W81963   7.735  44.436  13.892
13491W        W81964  25.515  42.853  11.473
13492W        W81965  24.182  19.619   4.598
13493W        W81966  14.800  31.439   3.202
13494W        W81967   3.924   2.895   0.362
13495W        W81968  30.119  44.326  13.388
13496W        W81969   9.823  27.483  10.502
13497W        W81970   7.755  19.251   1.256
13498W        W81971  41.381  20.583  10.501
13499W        W81972  18.556  16.640   0.962
13500W        W81973  16.170   2.388  14.488
13501W        W81974   5.378  14.803  14.488
13502W        W81975  41.013  20.657   0.808
13503W        W81976  14.241  34.561  11.973
13504W        W81977   4.299  36.017   0.453
13505W        W81978  38.069   8.243  14.483
13506W        W81979  11.193  33.898  10.055
13507W        W81980  24.086  16.658  11.009
13508W        W81981  18.675  13.335  12.470
13509W        W81982  38.936   1.325   4.641
13510W        W81983  27.156  18.164   3.837
13511W        W81984  39.509   4.910  11.561
13512W        W81985  24.202  20.043  10.962
13513W        W81986  10.356  31.516  14.502
13514W        W81987  31.105  31.066  13.840
13515W        W81988  44.956  10.718   3.781
13516W        W81989   7.722   6.849  14.296
13517W        W81990   0.743  42.832  11.065
13518W        W81991  43.398  11.806   1.285
13519W        W81992  29.082  12.247  13.033
13520W        W81993  14.823  19.043  11.028
13521W        W81994  33.599   3.928   4.773
13522W        W81995  26.060  11.291   3.162
13523W        W81996  19.209  22.012  11.969
13524W        W81997  28.137  20.660  14.355
13525W        W81998  13.134  21.579   1.898
13526W        W81999  33.552   1.754  13.538
13527W        W82000   0.333  41.023  13.022
13528W        W82001  24.115  44.448  10.410
13529W        W82002  13.213  18.136  11.103
13530W        W82003  41.439   1.352  12.983
13531W        W82004  27.158   3.773  14.471
13532W        W82005  10.300  32.031   9.945
13533W        W82006  23.020  40.938  11.960
13534W        W82007   3.857  38.512  14.793
13535W        W82008  20.545  20.627   3.353
13536W        W82009   6.201  36.886   1.283
13537W        W82010  13.207   6.687  11.587
13538W        W82011  42.814  22.579  12.901
13539W        W82012  32.515  30.604   0.479
13540W        W82013   5.764   8.681   1.251
13541W        W82014  25.554   3.776   4.179
13542W        W82015  14.099  14.687  13.512
13543W        W82016   8.691  42.464  14.363
13544W        W82017  38.405  29.049  11.890
13545W        W82018  17.700  41.378  12.014
13546W        W82019  18.165   2.270   3.210
13547W        W82020  12.225  24.693   2.303
13548W        W82021  22.544  39.996   9.978
13549W        W82022  19.255  21.054  11.939
13550W        W82023  32.896  34.557  14.850
13551W        W82024  11.862  24.606  10.638
13552W        W82025  27.174  20.658  14.477
13553W        W82026  14.238   0.948  14.955
13554W        W82027   6.333  18.663   2.857
13555W        W82028   0.758  33.437   0.403
13556W        W82029  21.042  40.051   3.808
13557W        W82030  32.527  30.017  14.892
13558W        W82031  40.385  43.977   4.182
13559W        W82032  15.225   0.802   4.749
13560W        W82033  21.168   2.284   2.361
13561W        W82034   0.844  39.961  10.471
13562W        W82035  18.678   9.703   3.369
13563W        W82036  15.788   7.782   4.777
13564W        W82037  39.524   9.331  11.994
13565W        W82038  29.968  18.565  13.049
13566W        W82039  44.348  23.688   3.287
13567W        W82040  13.253   3.266   3.342
13568W        W82041  31.408  12.248  10.939
13569W        W82042  27.686   1.892   3.783
13570W        W82043  34.461   4.933  10.569
13571W        W82044   1.412  22.251  11.022
13572W        W82045   7.866  11.151  14.023
13573W        W82046   3.342   8.374   4.704
13574W        W82047  16.089  14.115   2.300
13575W        W82048  31.038  40.992  12.492
13576W        W82049  29.531  22.150   4.327
13577W        W82050  21.145   3.768   1.279
13578W        W82051  13.342   5.264  14.334
13579W        W82052  10.141  42.836   2.185
13580W        W82053  34.026  27.641   3.829
13581W        W82054  37.943  24.724  11.419
13582W        W82055  17.088  14.764   4.831
13583W        W82056  23.236  14.285   1.752
13584W        W82057  21.110  44.465   3.166
13585W        W82058  25.017  44.481  10.945
13586W        W82059  42.031  41.003   2.367
13587W        W82060  28.016  24.648  14.332
13588W        W82061   9.672  16.312   2.792
13589W        W82062  18.141   2.838   1.235
13590W        W82063  11.734   6.891  12.460
13591W        W82064  33.067  40.486   4.308
13592W        W82065  33.948  41.430  11.075
13593W        W82066  43.816  14.685  11.524
13594W        W82067  17.691  35.595   1.909
13595W        W82068  15.615  16.804   0.280
13596W        W82069  12.285  33.998  14.417
13597W        W82070   1.892  13.645  13.491
13598W        W82071   0.865  31.984   0.478
13599W        W82072  38.352  40.495  14.924
13600W        W82073  24.980  17.679   3.248
13601W        W82074  14.807  31.463   0.318
13602W        W82075  32.435  41.942   9.577
13603W        W82076  33.063  14.212   3.205
13604W        W82077  25.097  42.320   1.424
13605W        W82078  32.482  13.701   1.905
13606W        W82079  23.546  33.417   0.315
13607W        W82080  36.379  14.676   1.853
13608W        W82081  25.499  43.292  14.471
13609W        W82082  17.644  14.187  13.472
13610W        W82083  22.148  36.440   4.784
13611W        W82084  28.041  18.682   0.731
13612W        W82085   8.731  30.958   3.649
13613W        W82086  18.645  42.881   9.944
13614W        W82087   5.353   2.853   0.921
13615W        W82088  40.981  35.389  14.973
13616W        W82089  24.064  25.051  12.494
13617W        W82090  14.588  21.532   4.314
13618W        W82091   2.828   1.309  12.027
13619W        W82092  17.162  41.851   4.279
13620W        W82093  28.479  27.629  14.406
13621W        W82094  44.936  39.448   2.690
13622W        W82095   7.417  31.421   3.643
13623W        W82096   4.923   9.655   0.269
13624W        W82097  33.962  37.434   3.281
13625W        W82098  19.225  11.300  11.505
13626W        W82099   8.898  42.281  12.833
13627W        W82100  16.739  37.904   4.599
13628W        W82101   5.432  13.227  10.962
13629W        W82102  14.668   4.751  10.916
13630W        W82103   8.266  10.770   2.188
13631W        W82104   5.371   6.402   5.252
13632W        W82105  14.657  34.451   1.791
13633W        W82106  34.937  36.548  14.884
13634W        W82107  27.644   9.733   0.385
13635W        W82108  21.162  11.700   3.292
13636W        W82109  35.082  42.300  13.004
13637W        W82110  23.694  12.202  13.816
13638W        W82111  23.987  20.073   4.636
13639W        W82112   8.340  21.542  14.901
13640W        W82113   5.762  23.676  11.875
13641W        W82114  34.069  20.637  13.524
13642W        W82115   9.779  34.570   4.331
13643W        W82116  26.974  43.384  12.835
13644W        W82117   3.400   5.760  10.035
13645W        W82118  31.592  24.189   0.903
13646W        W82119  28.609  24.684   1.732
13647W        W82120  30.994  27.537   2.309
13648W        W82121  30.105  41.937   3.864
13649W        W82122  21.621  13.840   3.835
13650W        W82123  16.709  29.482  10.622
13651W        W82124   7.746  11.298   2.356
13652W        W82125  19.552  39.349  11.512
13653W        W82126  29.966   9.776  13.880
13654W        W82127  10.714  26.028  12.007
13655W        W82128  43.327   4.935   3.777
13656W        W82129  23.666  36.028  10.499
13657W        W82130  11.218  26.034  10.562
13658W        W82131  39.959  13.211  12.826
13659W        W82132  13.611  33.410  14.427
13660W        W82133  25.001  21.607   2.834
13661W        W82134  27.160  41.881  13.846
13662W        W82135  27.062  32.394   2.274
13663W        W82136  11.168  10.269   4.302
13664W        W82137  29.091  44.834  11.569
13665W        W82138  21.078  22.571  11.458
13666W        W82139  19.186  38.008  13.454
13667W        W82140  25.488  29.994   3.745
13668W        W82141   2.842  32.124  13.004
13669W        W82142  21.031  29.027   0.779
13670W        W82143  17.182  18.705   2.361
13671W        W82144  25.973  30.630   2.837
13672W        W82145  29.550  21.217   2.182
13673W        W82146  32.577  28.628   4.308
13674W        W82147   3.877   5.797   2.694
13675W        W82148  35.888  13.336  13.480
13676W        W82149  31.406  28.000  11.096
13677W        W82150  26.564  27.182   4.220
13678W        W82151  21.251  36.363   4.630
13679W        W82152   1.898  10.835  14.901
13680W        W82153   3.761  34.419   2.887
13681W        W82154  35.534  31.093  13.502
13682W        W82155  18.631  24.976   9.950
13683W        W82156  33.503  33.054  10.502
13684W        W82157   0.824  29.474   0.267
13685W        W82158  14.773  32.967   0.248
13686W        W82159   3.740  17.262  12.019
13687W        W82160  28.937  29.500   0.346
13688W        W82161   9.224  39.989  11.439
13689W        W82162  34.985   3.320  14.805
13690W        W82163  33.392   9.241  11.871
13691W        W82164  44.311  13.300   3.682
13692W        W82165  42.817  28.448  13.381
13693W        W82166  12.621   6.415  11.414
13694W        W82167  14.260  11.201  14.422
13695W        W82168  41.937   7.781   2.249
13696W        W82169  18.551   8.670  11.465
13697W        W82170  34.003  40.431  13.919
13698W        W82171   7.255  11.182   2.316
13699W        W82172  24.021   2.946   0.791
13700W        W82173  29.589   8.386   1.791
13701W        W82174   9.720  44.402   0.775
13702W        W82175  25.592  11.732  14.348
13703W        W82176  12.328   7.203  13.919
13704W        W82177  36.919  14.804  12.444
13705W        W82178  20.680  40.021  10.567
13706W        W82179  21.198  32.587   2.267
13707W        W82180  32.627   3.218  14.435
13708W        W82181  34.590  36.972   1.826
13709W        W82182  27.540  42.296  14.978
13710W        W82183  18.158  15.243  10.548
13711W        W82184   3.312   6.699  12.896
13712W        W82185   8.745  32.952  13.428
13713W        W82186   1.351  41.020   0.743
13714W        W82187  36.587  20.173  11.992
13715W        W82188   2.760   1.779   2.413
13716W        W82189  15.121  14.609   2.179
13717W        W82190  37.026  13.772  13.473
13718W        W82191  44.394  26.034  10.889
13719W        W82192  36.549  11.225  11.940
13720W        W82193   3.303  19.269  11.077
13721W        W82194  14.723   1.448   2.886
13722W        W82195  44.404  15.084  13.037
13723W        W82196  12.221   8.238  11.594
13724W        W82197  32.576   2.306   4.604
13725W        W82198  30.478  40.994  11.031
13726W        W82199   8.344   5.364  14.503
13727W        W82200  21.706  30.933   4.302
13728W        W82201   2.450  27.086   1.808
13729W        W82202   9.226  28.570   0.405
13730W        W82203  12.352   7.776  12.505
13731W        W82204  25.991  20.524   3.777
13732W        W82205   5.257  32.468   4.142
13733W        W82206  40.491  42.799  11.381
13734W        W82207   2.447  15.754  14.302
13735W        W82208  38.002  11.686   2.731
13736W        W82209  33.619  12.614  13.451
13737W        W82210  33.556  26.680   2.810
13738W        W82211  32.079  38.962  13.822
13739W        W82212  27.457  17.165   3.366
13740W        W82213  27.082  22.013  12.526
13741W        W82214  24.166  23.618   4.339
13742W        W82215  33.468  20.039  10.144
13743W        W82216  38.509  17.154  12.914
13744W        W82217  20.150  20.565  14.365
13745W        W82218  43.826  28.977   4.133
13746W        W82219  22.044  20.623  14.377
13747W        W82220  34.583  40.537  11.877
13748W        W82221  10.341  44.008  11.100
13749W        W82222  38.342  32.000   2.891
13750W        W82223  44.312   6.229   3.721
13751W        W82224  37.504  39.537  14.834
13752W        W82225  30.646  13.200   3.210
13753W        W82226   2.889  33.009   4.282
13754W        W82227  23.200  31.491   4.326
13755W        W82228  34.923  36.431  12.470
13756W        W82229  19.670   8.389  11.517
13757W        W82230  34.908  41.532  13.921
13758W        W82231   5.889  27.138  13.862
13759W        W82232  29.611  30.625  11.500
13760W        W82233  35.531  19.652   0.322
13761W        W82234  25.084  44.918  14.395
13762W        W82235  29.439  33.546  14.371
13763W        W82236  39.048  15.146   3.163
13764W        W82237  39.908  19.203  12.423
13765W        W82238  33.546  38.040  12.003
13766W        W82239  43.494  22.614  10.094
13767W        W82240  22.645  30.933   1.788
13768W        W82241  34.062   6.328  11.885
13769W        W82242   6.918   3.447   4.141
13770W        W82243   0.848   0.409  12.001
13771W        W82244  27.043  38.058   4.332
13772W        W82245  13.181  32.023  14.467
13773W        W82246  20.109  37.436   2.302
13774W        W82247  21.637  23.725   1.409
13775W        W82248   3.862   2.283   0.263
13776W        W82249  31.602   9.779  14.401
13777W        W82250   0.284  40.859  12.569
13778W        W82251  18.662  43.390  12.424
13779W        W82252  32.933  21.201   0.293
13780W        W82253   8.805  16.746   1.878
13781W        W82254  29.922  23.072  14.465
13782W        W82255  40.006  20.599   4.282
13783W        W82256  21.198   1.244   3.340
13784W        W82257  31.484  30.440  11.460
13785W        W82258   6.314  21.604   0.407
13786W        W82259  15.167  10.869  12.506
13787W        W82260   8.777  28.633  14.309
13788W        W82261   6.427  11.663  10.549
13789W        W82262  21.517  28.980   2.248
13790W        W82263   1.850   9.848   4.243
13791W        W82264   7.750  27.568  11.968
13792W        W82265  32.549  44.836  10.052
13793W        W82266   3.246  31.122  14.359
13794W        W82267  11.348  41.473   3.806
13795W        W82268  32.000  25.991  14.420
13796W        W82269  32.593  16.120  13.975
13797W        W82270   9.644  35.916   9.582
13798W        W82271  39.855  31.043  13.938
13799W        W82272  44.851  40.350  12.950
13800W        W82273   7.696   9.648   1.252
13801W        W82274  26.105  33.554  14.497
13802W        W82275  39.938  13.609   3.152
13803W        W82276  37.903   5.765  11.578
13804W        W82277   4.722   8.178   4.283
13805W        W82278   5.277  16.614  11.082
13806W        W82279  17.694  39.884  10.436
13807W        W82280   2.297  31.026  11.479
13808W        W82281  39.845  19.540   0.961
13809W        W82282  19.080  38.480   4.835
13810W        W82283  29.592  44.915  13.874
13811W        W82284  19.559   3.871   0.303
13812W        W82285  39.954  13.350  11.127
13813W        W82286  19.117   5.407   2.354
13814W        W82287  41.943   5.808   0.888
13815W        W82288  37.349  12.200   0.899
13816W        W82289  26.493   5.310   3.635
13817W        W82290  40.942  23.631   2.778
13818W        W82291  39.021  14.635   5.207
13819W        W82292  30.434  39.848  12.074
13820W        W82293  10.645  35.543  13.896
13821W        W82294   0.432  30.422   1.923
13822W        W82295  17.663  38.987   2.816
13823W        W82296   2.844  26.090   3.186
13824W        W82297  11.631  31.474  14.974
13825W        W82298   8.749  44.827   3.678
13826W        W82299  20.111   1.745  12.842
13827W        W82300  12.801  24.110   0.781
13828W        W82301  10.845  28.166  10.940
13829W        W82302  23.669  20.570   4.221
13830W        W82303  21.197  31.630   1.266
13831W        W82304  33.471  38.425   0.825
13832W        W82305  30.131  18.704  11.421
13833W        W82306  29.153  25.972   1.308
13834W        W82307  34.877  31.538  11.934
13835W        W82308  32.508  21.171   0.946
13836W        W82309  33.585  38.906   4.825
13837W        W82310  35.935  25.525   3.855
13838W        W82311  42.309  29.533  10.990
13839W        W82312  42.453   5.414  14.822
13840W        W82313  41.431   7.719   1.818
13841W        W82314  15.117  24.558   4.680
13842W        W82315  21.217   0.965   0.419
13843W        W82316  12.726  35.472  13.409
13844W        W82317  25.062  11.333  14.019
13845W        W82318  27.554  13.199   2.358
13846W        W82319  22.174  24.572   4.751
13847W        W82320  33.046   8.746  12.479
13848W        W82321  38.516   9.792   1.818
13849W        W82322  25.118   0.890  12.837
13850W        W82323   6.882  39.929   2.770
13851W        W82324  36.947  31.084  12.437
13852W        W82325  36.947  26.080   0.962
13853W        W82326  10.280  27.969   5.269
13854W        W82327  32.427  30.428  10.411
13855W        W82328   8.803  18.141   2.791
13856W        W82329  11.717  40.432   0.326
13857W        W82330  31.441  27.007  11.397
13858W        W82331  10.809  32.622  10.549
13859W        W82332  31.631  23.718   2.271
13860W        W82333  37.879  27.975   2.198
13861W        W82334  12.810  26.553   1.843
13862W        W82335  35.524   1.336   3.381
13863W        W82336  26.579  39.494  14.791
13864W        W82337   1.819  21.123  14.503
13865W        W82338  38.945  10.729  10.037
13866W        W82339  29.533  34.577  13.512
13867W        W82340  11.359   3.240  11.106
13868W        W82341  11.658   1.844  11.591
13869W        W82342  33.960  27.504  12.047
13870W        W82343   1.418   3.327   2.672
13871W        W82344   8.316  39.426  13.389
13872W        W82345  15.290   8.784   3.813
13873W        W82346   4.392   4.434   1.242
13874W        W82347  43.837  35.038   0.257
13875W        W82348  30.964  21.193   2.742
13876W        W82349  34.423  28.027  12.948
13877W        W82350   6.353  12.622   1.417
13878W        W82351  12.205  19.100  11.572
13879W        W82352  31.036  42.913  13.881
13880W        W82353   9.724  17.116   0.243
13881W        W82354   6.800  18.546  14.494
13882W        W82355  36.553  35.550  13.827
13883W        W82356  21.727  14.800   0.321
13884W        W82357   7.854  24.047   4.674
13885W        W82358  41.438  25.697  12.048
13886W        W82359  19.566  32.059   5.287
13887W        W82360  37.565  13.123   0.266
13888W        W82361  18.142  41.811  12.390
13889W        W82362  19.264  41.881   1.792
13890W        W82363   1.465  37.366  12.477
13891W        W82364  26.169  39.330  12.833
13892W        W82365  13.178  38.388   4.310
13893W        W82366   8.735  33.412  12.361
13894W        W82367  18.050  32.508  10.543
13895W        W82368   9.289  18.188   0.477
13896W        W82369   0.308  26.958  10.924
13897W        W82370  23.689   7.405   0.894
13898W        W82371  17.610  12.336   3.713
13899W        W82372  34.445   8.793   3.297
13900W        W82373  44.259   9.866  10.460
13901W        W82374  28.053  12.205   2.775
13902W        W82375  37.554  17.560  12.930
13903W        W82376  16.279  32.957  10.529
13904W        W82377  21.674  36.928   2.713
13905W        W82378  28.455   4.348   1.372
13906W        W82379  38.465  34.050   0.363
13907W        W82380  39.411  20.225   4.196
13908W        W82381  44.290  33.991  14.779
13909W        W82382  31.644  40.473  13.407
13910W        W82383  39.940  25.195   4.694
13911W        W82384   5.734  13.206  12.348
13912W        W82385  43.402  15.682   1.709
13913W        W82386  34.934  16.163   2.686
13914W        W82387  18.670   5.706  13.428
13915W        W82388  30.100  14.773  10.924
13916W        W82389   8.360  16.571   1.365
13917W        W82390   2.465  22.733   1.406
13918W        W82391  17.791   7.199  11.458
13919W        W82392  25.039  40.826   1.908
13920W        W82393  13.774  25.034  13.921
13921W        W82394  38.932  42.833  12.919
13922W        W82395   9.278   5.406   0.735
13923W        W82396  12.282  39.448  14.929
13924W        W82397  40.868   3.258  11.916
13925W        W82398  13.673  31.992  14.978
13926W        W82399   4.779  44.382  14.965
13927W        W82400   4.702  44.898   3.342
13928W        W82401  16.129  19.239  12.469
13929W        W82402   7.204   9.217  14.479
13930W        W82403  32.425  35.511  14.925
13931W        W82404  23.110  21.544  10.429
13932W        W82405  16.118  41.934   4.633
13933W        W82406  20.706  38.987  13.425
13934W        W82407  23.994  30.656   4.169
13935W        W82408  35.970  35.475   0.320
13936W        W82409  40.945   3.809  12.343
13937W        W82410  29.625  13.756   2.870
13938W        W82411  15.225  32.391  14.410
13939W        W82412  15.109  32.105   0.334
13940W        W82413   0.472   5.391  14.858
13941W        W82414  16.627  35.398  12.444
13942W        W82415  13.112  39.859   2.246
13943W        W82416  27.164  11.705  14.456
13944W        W82417   8.201   1.407  10.418
13945W        W82418  26.970  10.726  12.545
13946W        W82419  10.659  11.652   0.730
13947W        W82420  26.553  26.099   0.327
13948W        W82421  21.642  11.735   2.231
13949W        W82422  32.548   4.751   1.299
13950W        W82423  42.818  24.141   3.307
13951W        W82424  19.625  11.285  12.383
13952W        W82425  34.928  44.936  14.900
13953W        W82426  24.619  15.288  14.904
13954W        W82427  35.108  12.757  13.959
13955W        W82428  19.743   9.182  13.350
13956W        W82429  19.617  44.779  11.066
13957W        W82430  39.557  37.932  14.025
13958W        W82431   1.417  28.054  11.031
13959W        W82432  41.524   2.957   3.235
13960W        W82433   3.314   7.824  13.385
13961W        W82434  28.045   6.884   2.780
13962W        W82435   7.763  30.503   2.822
13963W        W82436  26.619   6.219   3.223
13964W        W82437  43.008  22.695  11.466
13965W        W82438  33.547  11.751   5.223
13966W        W82439  36.089  39.841  10.464
13967W        W82440   0.384  29.968   4.728
13968W        W82441  19.592  43.984  10.936
13969W        W82442  39.332   4.872  14.005
13970W        W82443  14.118  37.996  14.025
13971W        W82444  38.346  31.924   0.951
13972W        W82445  35.105  27.539  14.983
13973W        W82446  29.038  24.671   4.751
13974W        W82447  21.671  29.106   3.369
13975W        W82448  14.680  23.224  12.887
13976W        W82449   6.259  38.835  14.888
13977W        W82450  32.904  35.961  12.527
13978W        W82451  11.865  40.315   1.747
13979W        W82452  31.958  10.674  14.308
13980W        W82453  24.184   7.305  12.828
13981W        W82454   3.772  14.176   1.258
13982W        W82455  30.132  42.527   2.225
13983W        W82456  14.310  35.005   2.808
13984W        W82457  38.061  27.664  14.410
13985W        W82458   1.888   4.880   3.853
13986W        W82459  44.404  13.278  11.881
13987W        W82460  18.692   5.254  12.909
13988W        W82461   2.788  26.036   1.841
13989W        W82462  33.459  41.043  11.965
13990W        W82463  21.728  26.589  13.805
13991W        W82464   7.740   4.750  10.560
13992W        W82465  10.731   8.681   5.315
13993W        W82466  16.797   8.718  10.943
13994W        W82467   9.181  14.218   5.268
13995W        W82468  32.028  27.155  13.013
13996W        W82469   5.196  11.832  13.393
13997W        W82470   3.851  18.121  11.373
13998W        W82471   5.207  27.637   4.145
13999W        W82472   3.882  20.672   3.835
14000W        W82473  18.617   9.721  12.990
14001W        W82474  44.280  23.610  13.920
14002W        W82475  30.631  32.425  12.933
14003W        W82476   0.433  25.219   4.757
14004W        W82477  27.168   8.395   4.813
14005W        W82478   7.888  11.719   4.757
14006W        W82479  13.756  41.832  14.364
14007W        W82480  32.898  13.256  10.895
14008W        W82481  22.228  39.908  11.482
14009W        W82482  27.992  37.541  12.966
14010W        W82483  43.840   9.374   4.771
14011W        W82484   1.893   6.354   2.743
14012W        W82485  11.670   5.345  12.527
14013W        W82486  23.029  10.742   2.329
14014W        W82487   5.280  23.045   4.643
14015W        W82488  37.525  38.562   4.123
14016W        W82489  32.940  29.424  11.902
14017W        W82490  18.723  40.913   0.417
14018W        W82491  21.241  34.540   3.652
14019W        W82492  24.216  34.920   1.410
14020W        W82493  41.901  42.852  13.379
14021W        W82494  43.866  17.585  12.564
14022W        W82495   9.380  38.335   4.168
14023W        W82496  41.452  21.525  13.331
14024W        W82497   4.237  30.487   1.934
14025W        W82498  13.670  27.947  13.514
14026W        W82499  44.291  44.805   9.936
14027W        W82500  36.917  37.977   1.794
14028W        W82501   0.488  36.081   1.436
14029W        W82502  10.646  41.037   3.859
14030W        W82503  20.763  13.277  14.889
14031W        W82504  24.571   5.259   1.393
14032W        W82505  38.843  13.824  11.997
14033W        W82506  40.360  41.519   3.262
14034W        W82507   5.929  40.492  12.534
14035W        W82508  35.497  31.616  14.999
14036W        W82509  28.484  33.974   2.357
14037W        W82510  40.857  13.159   3.869
14038W        W82511  32.135  40.370   3.827
14039W        W82512  28.631   4.906   2.743
14040W        W82513   1.478   2.328   1.845
14041W        W82514  28.672  17.292  14.764
14042W        W82515  37.928  34.892   3.633
14043W        W82516  15.173  33.086  11.946
14044W        W82517  11.225  43.460  10.984
14045W        W82518  22.565   1.946   3.726
14046W        W82519  39.507   5.418  12.385
14047W        W82520  42.985   5.894  13.840
14048W        W82521  21.745  31.645  12.455
14049W        W82522  18.175   1.244  11.408
14050W        W82523  18.774   9.160   4.319
14051W        W82524  30.517  37.840   2.675
14052W        W82525  12.694  42.512   1.221
14053W        W82526  17.214  29.592  11.126
14054W        W82527  25.070  42.405  12.381
14055W        W82528  20.763  38.350  10.440
14056W        W82529  35.461  38.985  10.507
14057W        W82530  20.137  40.369  15.000
14058W        W82531  32.993  10.767   0.822
14059W        W82532  18.236  16.253  12.911
14060W        W82533   7.753  33.435   1.796
14061W        W82534  30.104  23.197  11.109
14062W        W82535  31.029  36.089   0.759
14063W        W82536   4.365  34.946  13.400
14064W        W82537  12.659  18.613  11.125
14065W        W82538  20.765   6.183  12.429
14066W        W82539  22.168  30.614   4.698
14067W        W82540  33.098  12.726   0.943
14068W        W82541  15.725  35.464  13.931
14069W        W82542  13.762   2.962   4.775
14070W        W82543  34.957  31.914   0.479
14071W        W82544  36.988   4.839  10.470
14072W        W82545  26.537   5.876   0.949
14073W        W82546  39.388  41.496  11.026
14074W        W82547  26.605  30.145  13.531
14075W        W82548  43.979  41.867   4.118
14076W        W82549  34.119  25.986   4.683
14077W        W82550  38.551  30.441  12.411
14078W        W82551  20.617   6.227   4.217
14079W        W82552  20.534  41.478  12.380
14080W        W82553   7.793   6.284   4.757
14081W        W82554  18.671  26.168   1.342
14082W        W82555  41.008   7.252   4.160
14083W        W82556  29.062   8.789  13.016
14084W        W82557  19.678  38.933  14.378
14085W        W82558  23.539  42.018   1.229
14086W        W82559  22.744  41.308  13.816
14087W        W82560  38.936  30.956   0.253
14088W        W82561   2.954   5.751   2.702
14089W        W82562  38.894  42.927  12.356
14090W        W82563  12.677  36.418   1.738
14091W        W82564  13.620  26.561  11.060
14092W        W82565  39.923  29.000  14.356
14093W        W82566  17.614  32.562  13.484
14094W        W82567  39.987  34.428  12.943
14095W        W82568  43.287  21.078   2.379
14096W        W82569   8.318  20.048   0.731
14097W        W82570  15.172   4.382   0.371
14098W        W82571   2.302  26.539   1.362
14099W        W82572  41.462  22.578  12.967
14100W        W82573  14.664   9.228   1.240
14101W        W82574   0.790  20.628  10.531
14102W        W82575  14.764  41.374  13.396
14103W        W82576  36.858  12.715  14.443
14104W        W82577  44.390  21.053   4.821
14105W        W82578  44.435  25.034  12.872
14106W        W82579  17.083  11.772  14.297
14107W        W82580  36.051   1.350   0.381
14108W        W82581  10.819  21.159   0.925
14109W        W82582  39.854  22.056   0.752
14110W        W82583  41.944  33.507   0.296
14111W        W82584   5.714  30.652  14.787
14112W        W82585   0.351  34.465  13.812
14113W        W82586  42.967  34.912  12.381
14114W        W82587  39.509   1.870   3.869
14115W        W82588  12.296  26.193   4.705
14116W        W82589  11.298  22.141  14.880
14117W        W82590  31.119  10.789   3.719
14118W        W82591  20.222  31.426  11.587
14119W        W82592  36.467  43.331  11.084
14120W        W82593  25.705   2.242   2.897
14121W        W82594  19.767  44.281  13.941
14122W        W82595   5.252  28.966   1.283
14123W        W82596   8.313  44.365   4.207
14124W        W82597  21.707  18.710  13.360
14125W        W82598  18.631   5.289   1.393
14126W        W82599  41.864  27.084  14.819
14127W        W82600  33.959  27.567  10.543
14128W        W82601  26.057  22.115  12.919
14129W        W82602  32.415  39.023  10.945
14130W        W82603   7.670  34.011  12.025
14131W        W82604   9.665  10.762   0.320
14132W        W82605  40.026  15.591   0.764
14133W        W82606  22.048  14.834  11.482
14134W        W82607  17.771  12.259  12.444
14135W        W82608   8.394  16.716   2.725
14136W        W82609  22.098  37.447  10.974
14137W        W82610   5.360   6.908  13.887
14138W        W82611  34.986  31.612  11.098
14139W        W82612  35.475  40.804   1.827
14140W        W82613  25.573   1.887  13.837
14141W        W82614  24.996  19.192   3.788
14142W        W82615  29.166  14.706   3.302
14143W        W82616   5.366  28.024  14.825
14144W        W82617  23.995  32.983  12.435
14145W        W82618   2.927  28.568   2.249
14146W        W82619  36.359  23.066   0.454
14147W        W82620  12.804   7.907   0.349
14148W        W82621  16.189  39.551   2.417
14149W        W82622  42.487  23.105   0.260
14150W        W82623  19.648  40.927  12.963
14151W        W82624  28.552  41.307  12.547
14152W        W82625  39.526   1.910  13.415
14153W        W82626  41.041  32.111  12.949
14154W        W82627  21.179  31.451   4.610
14155W        W82628  11.195  18.200   4.746
14156W        W82629  40.393  32.473  12.355
14157W        W82630  32.068  32.429   4.279
14158W        W82631  18.698   0.253   4.687
14159W        W82632  17.267  31.562   3.814
14160W        W82633  18.627  18.088  10.624
14161W        W82634   2.356  44.778  13.853
14162W        W82635  15.303  26.683   2.703
14163W        W82636  23.726   3.910   2.802
14164W        W82637  16.681   9.332   2.734
14165W        W82638  23.159  25.621  14.295
14166W        W82639  36.946  28.168  14.480
14167W        W82640  41.367  38.060  10.951
14168W        W82641   6.850  25.487   3.668
14169W        W82642  20.207  32.418   1.771
14170W        W82643  37.557  37.430  11.087
14171W        W82644  22.245  20.161   1.759
14172W        W82645  40.956  27.470   1.438
14173W        W82646  28.028  14.332  13.464
14174W        W82647  29.638  32.993  14.409
14175W        W82648   4.780   1.798   4.681
14176W        W82649  15.200  30.059  14.335
14177W        W82650  38.980   4.770   1.253
14178W        W82651  36.360  44.819  11.576
14179W        W82652  32.620  12.763  11.920
14180W        W82653  21.161  40.824   2.288
14181W        W82654   6.318  25.071  11.594
14182W        W82655   4.858  41.472   3.775
14183W        W82656  20.263  12.611   2.311
14184W        W82657  16.152  41.494   5.246
14185W        W82658  11.146  16.096   3.282
14186W        W82659   8.195  27.604  12.408
14187W        W82660  39.436  43.483   1.386
14188W        W82661  15.776  31.518  10.599
14189W        W82662  40.441  42.785   3.870
14190W        W82663  40.850  20.156  14.999
14191W        W82664  35.471  18.195   1.718
14192W        W82665  38.415  31.149   1.329
14193W        W82666  27.626  44.938   3.352
14194W        W82667  16.662  36.589   2.243
14195W        W82668  13.299  38.516   1.413
14196W        W82669  20.696  43.800  14.828
14197W        W82670  40.055  17.595  10.543
14198W        W82671   8.372  36.453  12.981
14199W        W82672  27.544  17.258  14.782
14200W        W82673  28.996  32.514   2.899
14201W        W82674  12.835  17.679   1.718
14202W        W82675  43.970  31.539   3.264
14203W        W82676  31.419  35.601   3.290
14204W        W82677  23.208   2.790  14.302
14205W        W82678   0.287   6.813   1.764
14206W        W82679  42.929  17.260   0.744
14207W        W82680  21.514  42.304  14.873
14208W        W82681  16.214  40.344   1.396
14209W        W82682  14.330  34.969  14.003
14210W        W82683   9.366  10.696  13.004
14211W        W82684   7.749  38.447   1.327
14212W        W82685  13.692   1.849  11.455
14213W        W82686   9.724  13.157   4.203
14214W        W82687  19.764   8.709   0.874
14215W        W82688  38.931  30.003  14.993
14216W        W82689  43.902  34.046  14.802
14217W        W82690   6.765   3.388   4.656
14218W        W82691  33.039   9.767   3.295
14219W        W82692  21.130  26.022  14.872
14220W        W82693  12.612  34.466  11.019
14221W        W82694  24.539  12.749  12.355
14222W        W82695  41.021  37.021  12.364
14223W        W82696  36.364   5.216  14.912
14224W        W82697  11.242  13.659  13.525
14225W        W82698  43.926   7.795  11.905
14226W        W82699   8.901   1.409  12.826
14227W        W82700  18.095  44.787  14.472
14228W        W82701  43.326   3.758   0.728
14229W        W82702  20.090  11.250  12.874
14230W        W82703  40.376   6.258   5.240
14231W        W82704   9.303  34.038  13.039
14232W        W82705   3.797   6.791  13.313
14233W        W82706  43.297  43.005   4.767
14234W        W82707  20.251  14.736   1.371
14235W        W82708  27.057  10.703   0.294
14236W        W82709  23.644  15.122   4.332
14237W        W82710  35.951  15.599  11.870
14238W        W82711  41.835  33.923  13.062
14239W        W82712  27.529  31.603  12.358
14240W        W82713  39.449  15.175   3.849
14241W        W82714  35.106  28.456  13.939
14242W        W82715  22.201  13.599  11.439
14243W        W82716   9.730  23.094  12.863
14244W        W82717   9.342   4.794   2.347
14245W        W82718  21.597  37.576   2.320
14246W        W82719   2.925  11.862   1.741
14247W        W82720   8.211  20.057  10.519
14248W        W82721  43.985  41.795  14.911
14249W        W82722  18.176  32.421   3.163
14250W        W82723  40.048  11.692  14.491
14251W        W82724   2.436  44.969   0.345
14252W        W82725   7.264  37.003   2.823
14253W        W82726  25.132  17.731   2.759
14254W        W82727  17.230  18.623   3.724
14255W        W82728  36.004  16.097  13.366
14256W        W82729   8.196  25.963   3.236
14257W        W82730  33.596  29.947  13.350
14258W        W82731   8.166   1.237  12.367
14259W        W82732  44.917  28.651  12.880
14260W        W82733  31.515  41.464   4.689
14261W        W82734  19.127  32.582   2.689
14262W        W82735  27.679  42.985   1.856
14263W        W82736  13.622  21.114   3.371
14264W        W82737  16.151   8.203  13.986
14265W        W82738  20.613   8.721  11.063
14266W        W82739  44.372   5.299   3.281
14267W        W82740  16.106  12.639   1.911
14268W        W82741  21.221  40.456   2.375
14269W        W82742  11.821  35.532  12.007
14270W        W82743   1.259   5.746   0.733
14271W        W82744  35.547  18.599   4.159
14272W        W82745  42.345  17.683   2.902
14273W        W82746   1.254  39.977  12.855
14274W        W82747  38.002  16.801   2.681
14275W        W82748  37.863  34.914   1.213
14276W        W82749   6.257  30.627   3.840
14277W        W82750   1.732  29.124   0.805
14278W        W82751   8.239  30.940  13.477
14279W        W82752   9.372  25.126   1.417
14280W        W82753  44.915  24.065   2.817
14281W        W82754  17.771  20.681  12.988
14282W        W82755   0.877   5.900   1.930
14283W        W82756  19.564  15.653  12.408
14284W        W82757   3.753   1.281  11.591
14285W        W82758  13.231  23.230   2.669
14286W        W82759  23.133   4.264   2.256
14287W        W82760  20.106  27.159  10.496
14288W        W82761  18.154  37.990   3.245
14289W        W82762  33.086  20.170   1.335
14290W        W82763  40.923  29.948   2.739
14291W        W82764  28.630  14.593   4.655
14292W        W82765  13.604  37.003   0.911
14293W        W82766  39.052  36.496  11.052
14294W        W82767  27.567  37.367  11.578
14295W        W82768  43.431  21.098   0.733
14296W        W82769  22.541  31.424   3.863
14297W        W82770  26.473   0.919   5.573
14298W        W82771  40.489  40.431  12.992
14299W        W82772   5.392  32.929   3.285
14300W        W82773  11.678  35.432   4.704
14301W        W82774  34.393  22.632  13.520
14302W        W82775   8.667  36.939   3.778
14303W        W82776  33.944  29.512   2.777
14304W        W82777  31.960  31.930  11.014
14305W        W82778  29.665  40.364   0.457
14306W        W82779  13.639  29.627   2.180
14307W        W82780  13.792  36.011   4.188
14308W        W82781   9.863  28.160   1.272
14309W        W82782  16.613  27.188   3.738
14310W        W82783  27.057  39.521   1.902
14311W        W82784  22.009  42.028  13.527
14312W        W82785  44.377  36.989  14.391
14313W        W82786  43.302  38.564  14.317
14314W        W82787  41.311  17.747   2.289
14315W        W82788   7.171  35.508  10.136
14316W        W82789  44.777  44.418   4.182
14317W        W82790  29.481  36.505   1.361
14318W        W82791  15.325  13.274   3.369
14319W        W82792  40.036  27.097  11.874
14320W        W82793  21.639  35.975  12.516
14321W        W82794  17.112  26.602  10.484
14322W        W82795  43.767   0.365   4.654
14323W        W82796  12.176  15.599  11.977
14324W        W82797  22.080  28.508   5.574
14325W        W82798  11.630  34.462  10.471
14326W        W82799  20.201  18.122  14.881
14327W        W82800  32.097   5.194   2.696
14328W        W82801  20.635  24.512   4.769
14329W        W82802  41.330   2.349  12.066
14330W        W82803  17.134  20.624   1.759
14331W        W82804   9.832   9.717  14.301
14332W        W82805  31.449  18.239  11.549
14333W        W82806   5.198  41.815   4.805
14334W        W82807  27.628  15.620   4.693
14335W        W82808   6.758  19.722   2.763
14336W        W82809  10.806  22.154   2.754
14337W        W82810  14.753   5.371   2.195
14338W        W82811  15.161  22.503  13.840
14339W        W82812  10.734  34.535  12.486
14340W        W82813   9.264  18.722  13.791
14341W        W82814  11.129  18.168  13.928
14342W        W82815  19.138  10.863  14.813
14343W        W82816  37.524  41.839   1.743
14344W        W82817  23.709  27.070  12.869
14345W        W82818  38.908  15.266  14.416
14346W        W82819  43.427  15.193  13.814
14347W        W82820  26.194   8.842  11.877
14348W        W82821  19.159  35.522   3.791
14349W        W82822  35.432   2.425   2.300
14350W        W82823  25.972   6.847  14.901
14351W        W82824  11.860  41.468   3.212
14352W        W82825  17.726   5.391   4.785
14353W        W82826  26.176  36.407  11.584
14354W        W82827  14.805  36.050  12.070
14355W        W82828  41.400  37.857   0.317
14356W        W82829  31.937  10.376  10.527
14357W        W82830  43.854  17.594  13.796
14358W        W82831  37.489  39.368  11.106
14359W        W82832  29.019   0.478   3.156
14360W        W82833  28.483  11.804   2.214
14361W        W82834  13.617   6.412   2.693
14362W        W82835  24.226   8.866   0.371
14363W        W82836  15.733  24.719  14.981
14364W        W82837   8.690  33.578   0.917
14365W        W82838   1.308  43.913   3.643
14366W        W82839   3.302  22.172  11.559
14367W        W82840  10.361  27.567   1.700
14368W        W82841   3.297  21.142   1.449
14369W        W82842   0.825  32.007  11.589
14370W        W82843  33.501  14.151  13.527
14371W        W82844  18.661  27.127  13.335
14372W        W82845  15.602  43.812   1.908
14373W        W82846  12.728  38.967   3.681
14374W        W82847  17.742  40.452  11.098
14375W        W82848  10.371  27.056   3.772
14376W        W82849   7.718  12.163   0.279
14377W        W82850  14.686   6.825   1.406
14378W        W82851  29.983   8.697   3.375
14379W        W82852  15.181  12.267   4.188
14380W        W82853   9.207  44.829   1.747
14381W        W82854  25.130  30.465  12.014
14382W        W82855  17.733  10.775  12.555
14383W        W82856  17.571  22.658   2.782
14384W        W82857  15.159  41.839   1.388
14385W        W82858   7.177  22.135  10.994
14386W        W82859  18.686  13.200   0.810
14387W        W82860  29.440  30.119   4.198
14388W        W82861  20.052  23.988  11.019
14389W        W82862   8.748  12.126   0.871
14390W        W82863  10.647  18.067   4.714
14391W        W82864  37.429  16.154   1.263
14392W        W82865  22.667   3.312  14.351
14393W        W82866  29.996  34.076   1.404
14394W        W82867  29.008   4.251   2.226
14395W        W82868  27.172  31.582  12.066
14396W        W82869   8.332   0.792  11.550
14397W        W82870  44.946   6.238  13.883
14398W        W82871  29.470  40.353  11.497
14399W        W82872  27.079  36.384   2.186
14400W        W82873  10.785  21.180   3.192
14401W        W82874  27.091  27.573  13.858
14402W        W82875   2.724  35.941  12.573
14403W        W82876  17.731  21.158  10.971
14404W        W82877  14.169  43.288  11.970
14405W        W82878  20.030  14.282   5.259
14406W        W82879  11.199   6.214   0.270
14407W        W82880  25.128  32.015   3.795
14408W        W82881  26.638  27.631   4.668
14409W        W82882  19.592  37.492  12.534
14410W        W82883  26.491  31.423   3.830
14411W        W82884  25.600  23.186  13.311
14412W        W82885  26.587  18.295   4.666
14413W        W82886  20.590  19.060   1.277
14414W        W82887   4.217  31.413  12.404
14415W        W82888  37.495  13.801  14.817
14416W        W82889  31.455  14.667   0.844
14417W        W82890  22.193  17.793   3.646
14418W        W82891  31.424  19.177  12.835
14419W        W82892  17.269  17.658  12.973
14420W        W82893  37.566  37.545   4.315
14421W        W82894  28.591  18.274   4.314
14422W        W82895  37.384   3.312  14.458
14423W        W82896  25.559  40.921   0.892
14424W        W82897   0.778  25.036   5.304
14425W        W82898   8.312  12.206  13.044
14426W        W82899  35.988  12.210   1.896
14427W        W82900  17.640   1.318  12.863
14428W        W82901  26.165  21.212   2.874
14429W        W82902  14.184  14.128  11.862
14430W        W82903  16.570  24.707   2.305
14431W        W82904  24.557  17.165  11.064
14432W        W82905  33.524  21.555   0.959
14433W        W82906   8.215  15.305  14.917
14434W        W82907   8.243  33.061   1.270
14435W        W82908   3.257  31.459  11.608
14436W        W82909  27.016  42.945  14.406
14437W        W82910  32.064  11.183  10.459
14438W        W82911  28.437  42.819   2.368
14439W        W82912   2.726   1.368  14.402
14440W        W82913  23.675   6.388  14.803
14441W        W82914  21.558  23.008   4.272
14442W        W82915  25.607  44.772  13.939
14443W        W82916  13.336  44.416  11.585
14444W        W82917  30.984  38.472  13.422
14445W        W82918  30.583  28.007  13.899
14446W        W82919  11.821  32.491  11.371
14447W        W82920  12.256  33.114  11.947
14448W        W82921  36.349  15.616  10.047
14449W        W82922  42.386  35.364  14.873
14450W        W82923  18.752   3.809   4.702
14451W        W82924  25.656   4.265   1.277
14452W        W82925   7.751  30.051  14.768
14453W        W82926  36.855  40.893   1.215
14454W        W82927  13.787  37.838   0.905
14455W        W82928  11.852  10.183  12.462
14456W        W82929  32.992   9.791  14.820
14457W        W82930  25.099  30.483   0.310
14458W        W82931  43.369  12.177  11.470
14459W        W82932  29.146  18.751   3.157
14460W        W82933   6.792  10.869   3.350
14461W        W82934  25.616  41.339  12.481
14462W        W82935   0.782  40.493  10.587
14463W        W82936  10.714   1.273   3.215
14464W        W82937   5.250  30.442   2.685
14465W        W82938   4.213   9.889  12.080
14466W        W82939   7.262  20.585  12.440
14467W        W82940   4.354  31.555   2.408
14468W        W82941   4.394   0.456  12.018
14469W        W82942  38.566  28.940  11.089
14470W        W82943  33.998  26.616  14.398
14471W        W82944  30.126  32.922   4.177
14472W        W82945   2.350   1.237  12.902
14473W        W82946  41.509  18.738  12.537
14474W        W82947  13.342  24.034  14.376
14475W        W82948  43.997  31.568   2.664
14476W        W82949   5.693  16.723  11.057
14477W        W82950   8.666  11.766  10.409
14478W        W82951  21.678  31.007   3.805
14479W        W82952   6.288   5.894   2.293
14480W        W82953  33.613  24.043   0.264
14481W        W82954   9.206  37.031   4.151
14482W        W82955  16.679  27.496   4.648
14483W        W82956  44.357   3.272  13.427
14484W        W82957  36.048   8.724   0.957
14485W        W82958  32.959   1.417  13.528
14486W        W82959  28.982  40.044  11.973
14487W        W82960  41.375  44.962   3.643
14488W        W82961  21.741   6.254  11.432
14489W        W82962  25.677  41.818  14.795
14490W        W82963  19.712  28.017   4.830
14491W        W82964  33.981  34.485  11.888
14492W        W82965  12.362  32.936  13.043
14493W        W82966  29.977  41.888   3.330
14494W        W82967   8.728  16.789  13.354
14495W        W82968  36.875  28.963   1.810
14496W        W82969  31.646  26.509  14.842
14497W        W82970  27.485  42.871  14.289
14498W        W82971  44.805  34.436   2.222
14499W        W82972  20.235  39.843  14.790
14500W        W82973  39.384  19.130  12.958
14501W        W82974   4.800  34.397  14.936
14502W        W82975  21.661  35.539  12.076
14503W        W82976  41.917  11.660   4.747
14504W        W82977  12.735   0.806  13.474
14505W        W82978  31.073  26.059   5.786
14506W        W82979  29.472  28.993   2.318
14507W        W82980  17.230  14.269  12.912
14508W        W82981  27.664   4.880  13.536
14509W        W82982  15.621  33.423   3.283
14510W        W82983   0.373  15.636   3.230
14511W        W82984  22.141  25.011  11.898
14512W        W82985  23.637  25.150   3.642
14513W        W82986   9.675  40.318  12.348
14514W        W82987  27.059  32.898  12.481
14515W        W82988  37.983  11.278   0.429
14516W        W82989   3.756  12.330  14.807
14517W        W82990  27.533   1.825   4.230
14518W        W82991  10.698  31.522   4.136
14519W        W82992  27.015  35.014  14.903
14520W        W82993  33.068  20.702   4.137
14521W        W82994  37.423  32.413   1.876
14522W        W82995   4.787  25.175  14.509
14523W        W82996   8.895  15.225   2.792
14524W        W82997  17.223  40.330  11.481
14525W        W82998  32.579  27.502   4.304
14526W        W82999  29.543  19.564   1.443
14527W        W83000  16.799   4.420   4.346
14528W        W83001   6.687  17.651   1.394
14529W        W83002   2.836  21.071   0.835
14530W        W83003  39.405   8.332  11.860
14531W        W83004   1.948  40.806  14.017
14532W        W83005  32.607   7.789   3.211
14533W        W83006  28.478   1.349   0.358
14534W        W83007  32.934  10.800   3.329
14535W        W83008  10.657  20.150   2.749
14536W        W83009  30.608   5.911  14.838
14537W        W83010  20.190  29.441  10.077
14538W        W83011  30.932  41.953  10.022
14539W        W83012  33.016   1.407   0.330
14540W        W83013  42.485  23.177  14.913
14541W        W83014  38.983  44.757  14.488
14542W        W83015  21.522  44.964  12.539
14543W        W83016  20.100  30.542  10.947
14544W        W83017  40.492  23.227  14.482
14545W        W83018  28.032  26.524  10.999
14546W        W83019   7.206   7.687  13.333
14547W        W83020  12.726   4.712  12.477
14548W        W83021  14.323  28.609   3.345
14549W        W83022  40.502  26.629   0.439
14550W        W83023   6.309   7.770  13.937
14551W        W83024  43.882  24.562   3.265
14552W        W83025  15.664   5.743  12.396
14553W        W83026  28.442   3.872   2.282
14554W        W83027   7.845  40.355  14.003
14555W        W83028  31.136  29.006  10.914
14556W        W83029   8.335  12.747  13.351
14557W        W83030  44.360  29.094  14.888
14558W        W83031   2.851   7.410  13.912
14559W        W83032  24.559  39.028  10.619
14560W        W83033  10.276  26.186  11.409
14561W        W83034  25.134  28.960   3.264
14562W        W83035  24.013  14.311  13.424
14563W        W83036   0.286  39.509  14.999
14564W        W83037   9.738  32.444  14.314
14565W        W83038  17.691   8.727   3.712
14566W        W83039  21.167  18.604   4.712
14567W        W83040  33.543  37.373  14.449
14568W        W83041   6.352  19.747  10.566
14569W        W83042   2.331   3.721  14.446
14570W        W83043  22.585  36.892  12.846
14571W        W83044   6.708   4.935  14.901
14572W        W83045  16.635  33.051  13.460
14573W        W83046  38.942  14.779   1.849
14574W        W83047  16.794   7.276  13.419
14575W        W83048  29.937  40.390  10.937
14576W        W83049  33.945  35.411  11.929
14577W        W83050   4.773  14.779  14.911
14578W        W83051  25.202  42.990   0.430
14579W        W83052  19.712  36.565   1.930
14580W        W83053   7.394  10.671  12.473
14581W        W83054   5.810  42.484  12.896
14582W        W83055  37.532  24.201   0.376
14583W        W83056  20.255   9.367   0.779
14584W        W83057  30.066   9.872  13.046
14585W        W83058  30.496  43.418   0.845
14586W        W83059  18.726  19.741   3.679
14587W        W83060  20.151  36.920   1.712
14588W        W83061   4.271   9.794   3.649
14589W        W83062  40.805  20.178  13.323
14590W        W83063  37.447   2.289  12.027
14591W        W83064   2.467  31.129  11.981
14592W        W83065  31.620  23.214   5.176
14593W        W83066  43.446  15.653  10.910
14594W        W83067  25.544  35.569  13.518
14595W        W83068  19.585   2.279  11.996
14596W        W83069  42.928   7.331  11.952
14597W        W83070  42.830  20.762   1.896
14598W        W83071  18.062  43.469  12.941
14599W        W83072  30.491  25.061  12.516
14600W        W83073  38.549  29.070  11.429
14601W        W83074  28.484  14.295  14.439
14602W        W83075   0.860  41.804  12.367
14603W        W83076  31.440  34.114   2.684
14604W        W83077  18.566   4.415  14.479
14605W        W83078  35.061  37.413   1.367
14606W        W83079  24.222  13.801   4.277
14607W        W83080  27.141  17.791  12.956
14608W        W83081  19.766  21.571   1.238
14609W        W83082  14.101  27.500   4.317
14610W        W83083  29.118  24.072   4.793
14611W        W83084  10.724  13.284  11.390
14612W        W83085  21.050  43.454  14.282
14613W        W83086  29.504  16.615  13.982
14614W        W83087  16.310   8.230   4.351
14615W        W83088  14.099   9.228   1.860
14616W        W83089   8.308   7.320  12.873
14617W        W83090  17.092  25.569  14.986
14618W        W83091  23.699   4.707  13.422
14619W        W83092  31.034  18.220   2.900
14620W        W83093  35.502  14.663   1.769
14621W        W83094  24.229   1.840  13.980
14622W        W83095  17.287   7.221  14.872
14623W        W83096  36.046  23.066  12.895
14624W        W83097  35.529  21.233   1.267
14625W        W83098  41.831  12.775  12.547
14626W        W83099  22.550  21.523  12.845
14627W        W83100  37.944  37.446  10.481
14628W        W83101  17.588   4.856   2.823
14629W        W83102  18.118  19.618   0.452
14630W        W83103  27.639  22.029  13.904
14631W        W83104   7.687  30.981   1.448
14632W        W83105  27.110   6.923   4.300
14633W        W83106   6.224   4.826  14.450
14634W        W83107   8.729  25.143   3.826
14635W        W83108  27.074  16.717   3.829
14636W        W83109  15.091  29.136   3.250
14637W        W83110  25.157  33.491   0.866
14638W        W83111  31.109  42.837   5.106
14639W        W83112   5.837   0.391  11.582
14640W        W83113  36.547   4.227   3.698
14641W        W83114  14.326  30.518   2.279
14642W        W83115   2.825  16.145  12.459
14643W        W83116  40.326  21.169  13.441
14644W        W83117  17.700  44.380  14.932
14645W        W83118  15.681  21.611  13.947
14646W        W83119  41.874  44.399  10.900
14647W        W83120  38.961  39.945   1.839
14648W        W83121   8.405  44.755  13.902
14649W        W83122  25.114  17.087  14.500
14650W        W83123  36.057  11.773  13.318
14651W        W83124  14.632   3.278   1.230
14652W        W83125  17.083  34.098  14.490
14653W        W83126   0.419  15.290  12.068
14654W        W83127  11.213  31.533  10.528
14655W        W83128  18.234  26.067   1.212
14656W        W83129  40.958  37.456  14.837
14657W        W83130  34.440  35.090   4.186
14658W        W83131   7.744   9.702  14.467
14659W        W83132  33.006  34.540   2.828
14660W        W83133   6.232  28.652   1.367
14661W        W83134  10.809  34.453  13.051
14662W        W83135  44.267  14.286   1.911
14663W        W83136  25.471   4.826   0.965
14664W        W83137   8.900  42.371   4.115
14665W        W83138  27.519  12.360  12.415
14666W        W83139  20.265  10.678  13.005
14667W        W83140  20.251   7.290  12.366
14668W        W83141  18.222   2.348  11.032
14669W        W83142   5.373  25.993   1.252
14670W        W83143  33.471  31.424  14.927
14671W        W83144  15.802  40.896  14.405
14672W        W83145  20.111  21.570  12.943
14673W        W83146  30.478   6.828  11.544
14674W        W83147   7.856  19.099   2.752
14675W        W83148  26.018  41.451   2.406
14676W        W83149  23.136  15.111  12.033
14677W        W83150  10.800  40.477  13.378
14678W        W83151  26.537  20.644   1.236
14679W        W83152  43.494  22.528  13.358
14680W        W83153   7.812  20.064  14.369
14681W        W83154  33.035  24.981  11.539
14682W        W83155  38.933  41.910   0.440
14683W        W83156   7.198  35.102   3.385
14684W        W83157  14.764  28.993   3.310
14685W        W83158  12.139  28.663   0.877
14686W        W83159  18.730  44.856  12.347
14687W        W83160  44.799   6.422  11.444
14688W        W83161  31.414  23.149  10.898
14689W        W83162   0.890  28.477  12.572
14690W        W83163  37.940  33.081  13.940
14691W        W83164  44.433  35.063   2.887
14692W        W83165  11.718  30.999  12.992
14693W        W83166   6.804  43.773  14.826
14694W        W83167  31.113  23.024   5.681
14695W        W83168  42.519  13.145  12.850
14696W        W83169  27.019  30.034  11.983
14697W        W83170  30.930  22.998   0.784
14698W        W83171  12.118  12.120  10.989
14699W        W83172  30.524  33.921  14.307
14700W        W83173  11.701  24.066   1.399
14701W        W83174  30.037  22.514  14.847
14702W        W83175  42.906  34.378   9.999
14703W        W83176   8.733  41.339  13.012
14704W        W83177   0.874  19.663  14.988
14705W        W83178   6.773  40.843   3.265
14706W        W83179  35.094   5.756  10.938
14707W        W83180  24.168  29.091  11.594
14708W        W83181  14.260   7.191  10.895
14709W        W83182  20.761  38.885  10.569
14710W        W83183  31.647  30.449   4.712
14711W        W83184  19.197   6.802  12.056
14712W        W83185  26.484  31.633  11.123
14713W        W83186  40.936   6.294   1.818
14714W        W83187  25.180  35.581  13.511
14715W        W83188   5.305   1.467  14.938
14716W        W83189  26.994  34.592   1.879
14717W        W83190   1.837  22.524   1.266
14718W        W83191  14.231  32.509  12.961
14719W        W83192  36.369  44.914   2.311
14720W        W83193   3.283  14.759  12.522
14721W        W83194  19.114  31.446  12.975
14722W        W83195  38.819  35.951  14.452
14723W        W83196   7.391  12.754  13.315
14724W        W83197  21.579   9.298   1.376
14725W        W83198  11.626  17.560   3.163
14726W        W83199  20.758  16.280  13.466
14727W        W83200  36.517  44.352  11.089
14728W        W83201  16.251  16.743  14.496
14729W        W83202  32.963  19.160  14.928
14730W        W83203  40.952  20.271   1.776
14731W        W83204  16.770  20.232   3.385
14732W        W83205  35.881  16.616  10.969
14733W        W83206  28.570  26.203  10.448
14734W        W83207  24.192   1.395   1.393
14735W        W83208  17.747  33.097  14.395
14736W        W83209   6.754   7.268  12.095
14737W        W83210   6.201   1.927   0.882
14738W        W83211  28.563  35.957   1.367
14739W        W83212  11.137   5.698  11.580
14740W        W83213  43.808  40.821  10.408
14741W        W83214   0.472  44.916   1.808
14742W        W83215  15.306  14.700   2.781
14743W        W83216  19.208  14.304  13.893
14744W        W83217   1.955  36.530  11.982
14745W        W83218  22.242   6.377  10.506
14746W        W83219  40.503  17.704  12.913
14747W        W83220  27.988  33.451  12.419
14748W        W83221  22.737  32.532  14.458
14749W        W83222   7.682  15.299  14.980
14750W        W83223  20.217  11.732   4.700
14751W        W83224  17.262  36.496  11.527
14752W        W83225  25.637   7.792  14.495
14753W        W83226  13.217  33.037  12.394
14754W        W83227  27.472  32.623   3.302
14755W        W83228  22.225   5.317  12.477
14756W        W83229  39.382  18.160  13.837
14757W        W83230  18.236  39.340  13.517
14758W        W83231  16.318  34.541   3.234
14759W        W83232   8.815  26.178   2.662
14760W        W83233  34.969  16.760   0.920
14761W        W83234  37.039  14.304  10.578
14762W        W83235   4.787  16.752  14.425
14763W        W83236  40.018  33.457   2.221
14764W        W83237  40.382  15.689  12.960
14765W        W83238  14.646  33.025   3.305
14766W        W83239   6.359  23.066  12.002
14767W        W83240  12.660  14.805   0.750
14768W        W83241  10.317  32.011  14.965
14769W        W83242  37.552  23.171  12.946
14770W        W83243  12.293  40.007   2.275
14771W        W83244  15.692  26.182   0.763
14772W        W83245  39.945  11.169  13.425
14773W        W83246  18.107  38.427  12.559
14774W        W83247  11.224  42.311  14.902
14775W        W83248  29.576  32.500  13.373
14776W        W83249   5.195  12.138  14.331
14777W        W83250  27.647  30.648  13.962
14778W        W83251  26.612  38.053   0.798
14779W        W83252  25.619  27.628  10.574
14780W        W83253  15.245  23.231  13.968
14781W        W83254  17.696  16.283   3.816
14782W        W83255  18.679  41.905  14.918
14783W        W83256  27.975  38.415   4.115
14784W        W83257  20.599  13.817   3.205
14785W        W83258   6.779  27.039  11.911
14786W        W83259  28.043   7.219  14.478
14787W        W83260  41.426  21.088  11.016
14788W        W83261   1.816  39.042   1.780
14789W        W83262  42.524  32.951   3.726
14790W        W83263  39.964  34.069   1.387
14791W        W83264  43.013  29.574  13.456
14792W        W83265  36.570  11.137   2.830
14793W        W83266  11.194   8.724  12.068
14794W        W83267   3.447  11.863  10.960
14795W        W83268   5.786   2.886   1.902
14796W        W83269   7.396  13.250  12.845
14797W        W83270  10.695  17.571   1.342
14798W        W83271  25.680  13.198   3.385
14799W        W83272  24.994  41.375   1.715
14800W        W83273  16.667  13.711  11.569
14801W        W83274  38.508  33.128   1.721
14802W        W83275  24.023  19.577   0.745
14803W        W83276   3.244   2.895   3.796
14804W        W83277  42.991  33.388   2.306
14805W        W83278  31.983  24.478  14.298
14806W        W83279  41.487  25.603   0.761
14807W        W83280   7.870   6.745  12.828
14808W        W83281  31.505  43.847  14.027
14809W        W83282  26.679  14.294   0.295
14810W        W83283  42.860   1.423   1.800
14811W        W83284  43.270  31.144   0.379
14812W        W83285  30.525  17.731  11.052
14813W        W83286  10.140   8.743  14.497
14814W        W83287   4.770  37.426  14.310
14815W        W83288  31.456  23.607   1.742
14816W        W83289   3.761  26.644   4.293
14817W        W83290   0.283  40.798   1.702
14818W        W83291  34.408  40.352   3.686
14819W        W83292  37.865  29.031   3.300
14820W        W83293  13.332  29.039  12.950
14821W        W83294  20.558  13.658  13.408
14822W        W83295   6.835  41.512  10.634
14823W        W83296   8.728  10.353  12.401
14824W        W83297  30.960  25.165   3.190
14825W        W83298  36.902  14.761  11.443
14826W        W83299  35.976  20.125  11.858
14827W        W83300  31.074  35.938  13.435
14828W        W83301  15.100  20.758   2.275
14829W        W83302  40.368  24.490  12.339
14830W        W83303   2.259   7.744  14.411
14831W        W83304  42.936  25.034   2.825
14832W        W83305  11.793  10.874  13.436
14833W        W83306  14.248  12.137   3.741
14834W        W83307  25.566  29.608  10.532
14835W        W83308  28.560  42.001  10.910
14836W        W83309  17.137  24.585  11.528
14837W        W83310  16.568  23.218   2.682
14838W        W83311  14.765  16.170   1.737
14839W        W83312   0.368  10.801   2.232
14840W        W83313  22.599  44.335  11.463
14841W        W83314  34.375   0.875  10.567
14842W        W83315  16.318  28.098   2.269
14843W        W83316  34.088   5.280   1.262
14844W        W83317  17.670  44.819   2.368
14845W        W83318  22.639  43.980  10.493
14846W        W83319  22.035  28.649   4.327
14847W        W83320  32.035  31.567   1.706
14848W        W83321   0.880   0.814  10.590
14849W        W83322  16.197  42.431   1.420
14850W        W83323  24.003  20.154  13.796
14851W        W83324   0.976  34.490  12.007
14852W        W83325  11.252  21.149   0.859
14853W        W83326  25.587  42.500   0.309
14854W        W83327  37.952  25.963   2.379
14855W        W83328   7.373  42.009   4.669
14856W        W83329  27.190   4.214   1.367
14857W        W83330  38.476   1.476  11.029
14858W        W83331  28.040  12.287  14.387
14859W        W83332   1.325  42.957   2.821
14860W        W83333  19.624  20.728  13.426
14861W        W83334  24.986  15.579   1.935
14862W        W83335  36.057   7.791   2.271
14863W        W83336   5.872  40.011   2.336
14864W        W83337  39.505   0.918  10.625
14865W        W83338   5.420  33.886   0.805
14866W        W83339  41.810  34.966  12.473
14867W        W83340  34.978  38.437  14.951
14868W        W83341  44.409  40.487  11.504
14869W        W83342   3.459   5.809   2.882
14870W        W83343  24.168  40.394   3.309
14871W        W83344   5.725  33.507  12.548
14872W        W83345  20.713  19.134   4.621
14873W        W83346  10.673  11.859  13.538
14874W        W83347   8.874  31.595   3.147
14875W        W83348  24.976  31.559   4.183
14876W        W83349  31.106  23.046   1.404
14877W        W83350  28.015  11.323   0.406
14878W        W83351  21.092  28.111   2.671
14879W        W83352  22.671   9.284   2.867
14880W        W83353  25.543  31.453  14.343
14881W        W83354  44.827  37.574  11.861
14882W        W83355   9.802  43.865   0.260
14883W        W83356  39.326   5.864   1.743
14884W        W83357  30.010  28.997  10.509
14885W        W83358  11.685  13.644   3.646
14886W        W83359  23.642  41.017  12.516
14887W        W83360   8.303   8.178   1.295
14888W        W83361  22.021  18.085  12.871
14889W        W83362   4.932  40.368   1.368
14890W        W83363  23.565  41.984  11.602
14891W        W83364  22.525  40.966  11.546
14892W        W83365  18.115  17.728   4.150
14893W        W83366  41.426  23.023  10.511
14894W        W83367  36.457   8.338   3.867
14895W        W83368   4.837   3.891  13.935
14896W        W83369  41.317  40.966  11.931
14897W        W83370  23.619  17.613   0.379
14898W        W83371  33.552  25.635  12.074
14899W        W83372  38.493   8.379   1.818
14900W        W83373  39.474  31.114   3.339
14901W        W83374  39.916  23.067   0.423
14902W        W83375  21.616  23.659  14.855
14903W        W83376  22.523  32.040   3.704
14904W        W83377   1.300  38.859  13.325
14905W        W83378  33.454  37.458   3.694
14906W        W83379  25.581  27.462  13.443
14907W        W83380  31.091  42.433   5.804
14908W        W83381  26.647  11.727  10.999
14909W        W83382  15.662  44.420  14.813
14910W        W83383   8.685  44.843  11.017
14911W        W83384   3.248  17.303  14.485
14912W        W83385   2.298  40.961  13.332
14913W        W83386   6.279  37.412   3.352
14914W        W83387  38.823  32.409  14.483
14915W        W83388  31.435  12.275   4.630
14916W        W83389  27.946  23.499  14.022
14917W        W83390  20.177  40.905  12.544
14918W        W83391  21.217  35.417   3.737
14919W        W83392  13.178   1.397   2.810
14920W        W83393  34.460  19.089  14.879
14921W        W83394  37.521  19.220  14.922
14922W        W83395  42.869  40.993   2.237
14923W        W83396  36.496  35.081  12.024
14924W        W83397  44.784  13.146   2.297
14925W        W83398  29.431  18.568   5.135
14926W        W83399   7.891  20.594   0.845
14927W        W83400  26.504  40.849  10.473
14928W        W83401   4.291  24.619  13.877
14929W        W83402  15.691  35.945  12.857
14930W        W83403  17.237  11.307   2.384
14931W        W83404  30.977   6.705  12.029
14932W        W83405  10.301  21.151  12.907
14933W        W83406  42.977  20.618   4.807
14934W        W83407  26.565  41.333  11.906
14935W        W83408   7.730   9.293   0.440
14936W        W83409  23.694  31.509  14.485
14937W        W83410  21.580  26.978   4.332
14938W        W83411  44.807  15.189   1.732
14939W        W83412  19.544   4.374  12.961
14940W        W83413   6.871  31.039   3.849
14941W        W83414   8.748  41.963  12.982
14942W        W83415  23.605  17.592   1.855
14943W        W83416  19.123  18.110   2.728
14944W        W83417  33.902  24.623   0.385
14945W        W83418  12.294  28.962   4.758
14946W        W83419  20.037  33.073   3.851
14947W        W83420  12.658  10.304  13.998
14948W        W83421  37.081   8.296   2.869
14949W        W83422  34.050  28.493   0.341
14950W        W83423  11.720   6.787   2.322
14951W        W83424  42.374   5.913   3.330
14952W        W83425   1.430   7.354   2.413
14953W        W83426  31.961  37.378  13.818
14954W        W83427   0.390   1.325  11.865
14955W        W83428   8.197  44.450  11.394
14956W        W83429  44.971  16.727   1.428
14957W        W83430  27.197  38.951  10.458
14958W        W83431  34.451   1.347   3.356
14959W        W83432   0.386  15.813   0.871
14960W        W83433   2.256   4.436  14.767
14961W        W83434  13.299  44.887  10.460
14962W        W83435  37.082  30.521   4.809
14963W        W83436  31.108  24.117  12.005
14964W        W83437  11.269  42.482   2.903
14965W        W83438   0.962  14.209   5.206
14966W        W83439  16.652  34.465  13.453
14967W        W83440  21.033  34.443   1.256
14968W        W83441   1.782  35.095   2.403
14969W        W83442  16.106  43.903  11.021
14970W        W83443  23.678  27.082  10.525
14971W        W83444  14.797   3.430   4.145
14972W        W83445  10.683   2.865   4.125
14973W        W83446  31.450  14.619   3.153
14974W        W83447  32.395  29.035   2.244
14975W        W83448  22.505  33.992  13.027
14976W        W83449  22.043  22.114  11.470
14977W        W83450   5.816  16.790   3.158
14978W        W83451  22.656  17.725   1.380
14979W        W83452  41.977  22.590  14.953
14980W        W83453  17.186  33.466  12.416
14981W        W83454  28.173  27.969  13.883
14982W        W83455  13.622  30.496   2.215
14983W        W83456   8.297  25.631   9.949
14984W        W83457  24.520  34.427   1.355
14985W        W83458   0.869  41.377   4.177
14986W        W83459  21.189  35.538  13.455
14987W        W83460   4.809  27.117  13.489
14988W        W83461  30.527  30.131   2.895
14989W        W83462  40.040  12.307  10.890
14990W        W83463  28.933  27.187   1.341
14991W        W83464  33.548  30.602   4.775
14992W        W83465   6.752  42.900  14.896
14993W        W83466   8.833  32.043  13.858
14994W        W83467  18.248  31.583  14.857
14995W        W83468   7.737   0.270   3.289
14996W        W83469   4.882  29.141   3.765
14997W        W83470  21.225  20.111   3.814
14998W        W83471  30.512  28.652  14.808
14999W        W83472  34.907  34.903   2.194
15000W        W83473  20.666  40.954  11.027
15001W        W83474  16.722  35.905   3.168
15002W        W83475  12.734   8.359   0.737
15003W        W83476  33.392  36.501   0.751
15004W        W83477  33.059  13.804   3.299
15005W        W83478  26.691  13.346  13.491
15006W        W83479  30.492  29.039   1.745
15007W        W83480  23.593  34.474  11.059
15008W        W83481  24.978  42.930  13.848
15009W        W83482  29.471   2.372   0.756
15010W        W83483  24.515  35.039  12.074
15011W        W83484   1.454  25.036   0.792
15012W        W83485  22.141  26.017  13.492
15013W        W83486  11.372  44.964   1.290
15014W        W83487  37.834  12.845   3.376
15015W        W83488  35.894   3.280  10.502
15016W        W83489  42.484  12.241  13.433
15017W        W83490  44.824   0.379  11.001
15018W        W83491  32.460  18.257   1.699
15019W        W83492  19.657  29.112  12.378
15020W        W83493  24.024  13.642  14.306
15021W        W83494   8.782  25.214   4.349
15022W        W83495   3.227  35.484  11.095
15023W        W83496  12.179  13.233   0.911
15024W        W83497  44.989  24.071   0.329
15025W        W83498   5.380  31.982   3.346
15026W        W83499  19.727  11.684  10.517
15027W        W83500   0.450   1.741   4.188
15028W        W83501  27.993  22.236   0.869
15029W        W83502  41.515   0.743  11.906
15030W        W83503  18.111  31.105  11.607
15031W        W83504  38.565  12.148  11.060
15032W        W83505   1.945  20.234   4.721
15033W        W83506  24.556  14.775  14.390
15034W        W83507   1.238  13.125  14.306
15035W        W83508  20.687  43.445   3.795
15036W        W83509  21.212  25.639   3.767
15037W        W83510  24.191   3.272   2.353
15038W        W83511  12.228  25.095   2.788
15039W        W83512  17.097  18.657   4.795
15040W        W83513   6.344  19.211   1.428
15041W        W83514  42.794   5.774   4.130
15042W        W83515  28.929  41.968  12.503
15043W        W83516  34.374  38.381   4.168
15044W        W83517   0.901  41.509  13.850
15045W        W83518   5.241  41.501  12.045
15046W        W83519  17.293   8.747  14.908
15047W        W83520  11.205  25.666   2.193
15048W        W83521  38.550  29.083   4.174
15049W        W83522   9.787  29.623  12.075
15050W        W83523  37.361  15.281   3.218
15051W        W83524  19.757  32.063  14.927
15052W        W83525  18.554  37.914  12.340
15053W        W83526  40.386  22.048   4.294
15054W        W83527   3.773   6.233  11.919
15055W        W83528  35.898  41.317   1.395
15056W        W83529  43.801  17.279   0.772
15057W        W83530  24.993  17.095  11.006
15058W        W83531  40.413  22.702  14.317
15059W        W83532  41.506  22.041  12.367
15060W        W83533  10.668   5.308   1.437
15061W        W83534   4.817  19.604   5.136
15062W        W83535  30.929  13.351   2.776
15063W        W83536  35.494  37.445  13.457
15064W        W83537  19.536  27.655   3.685
15065W        W83538  35.932  41.316   4.319
15066W        W83539  32.422  31.431  11.534
15067W        W83540   5.438  19.675  13.889
15068W        W83541   9.836  21.744   2.833
15069W        W83542   2.462  40.332  12.080
15070W        W83543  23.651  35.916   0.816
15071W        W83544   5.710   4.776   5.197
15072W        W83545   8.290  23.994   2.694
15073W        W83546  28.005  41.890  13.315
15074W        W83547   3.310  23.227  14.821
15075W        W83548  13.834  31.104  11.955
15076W        W83549  38.920  16.634   3.702
15077W        W83550  15.209   2.800  14.922
15078W        W83551  24.214   2.946  10.497
15079W        W83552  35.991  37.572  12.850
15080W        W83553  11.733  32.578   3.297
15081W        W83554  22.172  24.982   1.787
15082W        W83555  42.320  26.960  11.513
15083W        W83556  34.065  17.095   4.737
15084W        W83557  21.205  32.000   3.646
15085W        W83558  17.753   7.369  13.961
15086W        W83559   6.279  22.593   0.269
15087W        W83560  34.112  42.412   3.826
15088W        W83561   4.784  15.750   4.331
15089W        W83562  33.571  18.074  13.026
15090W        W83563  21.153  22.650   2.820
15091W        W83564  37.930  40.978  11.875
15092W        W83565  26.475   1.299  10.969
15093W        W83566   1.947  28.975  11.408
15094W        W83567  21.673  14.156   3.737
15095W        W83568  10.354  10.796   3.826
15096W        W83569  37.550  18.548   3.225
15097W        W83570  40.487  41.322   0.902
15098W        W83571   1.429  39.383   1.397
15099W        W83572  36.426  18.583  13.919
15100W        W83573  20.646  31.404  14.301
15101W        W83574  23.681  37.845  12.478
15102W        W83575  37.495  17.111   5.237
15103W        W83576  12.656  31.069   2.314
15104W        W83577  32.488  30.023  10.478
15105W        W83578  11.133  24.023  13.986
15106W        W83579  18.691  44.814   3.778
15107W        W83580  19.202  12.222   3.245
15108W        W83581  25.493  25.966  10.968
15109W        W83582  14.673  28.677   2.752
15110W        W83583  11.179  32.629  11.389
15111W        W83584   4.406  38.950   0.740
15112W        W83585  10.796   1.957   3.270
15113W        W83586  23.593   9.770  10.598
15114W        W83587  15.739  43.968  10.405
15115W        W83588  38.368   2.306  13.791
15116W        W83589  20.063  12.827   1.252
15117W        W83590  29.982   8.354   2.867
15118W        W83591  32.007   0.475   4.245
15119W        W83592  31.437  29.153   0.272
15120W        W83593  30.102  22.690  10.456
15121W        W83594  13.794  44.906  12.886
15122W        W83595  31.433  43.316   3.259
15123W        W83596  44.314  18.722   2.757
15124W        W83597  11.644  11.868   4.642
15125W        W83598  29.449  38.512   4.788
15126W        W83599  40.936  35.600   1.327
15127W        W83600  10.833  30.549   4.647
15128W        W83601  15.280  41.354  13.350
15129W        W83602   4.240  23.650   2.320
15130W        W83603  37.474  23.566  14.338
15131W        W83604  36.959  16.166  10.511
15132W        W83605  26.556  36.543   0.963
15133W        W83606   7.790  13.821  11.872
15134W        W83607   2.814  25.551   4.805
15135W        W83608  22.691  23.213   0.332
15136W        W83609  35.987  19.119   3.676
15137W        W83610   2.812  43.878   4.751
15138W        W83611  31.510  17.080  10.644
15139W        W83612  24.541  32.032  13.043
15140W        W83613   9.320   3.710   0.788
15141W        W83614  28.099  13.170  10.542
15142W        W83615  16.787  16.074   0.424
15143W        W83616  27.092  26.570  11.017
15144W        W83617  38.015  22.244   2.289
15145W        W83618   6.923   5.847  11.530
15146W        W83619  20.128  30.573   0.303
15147W        W83620  29.133   2.931   1.878
15148W        W83621  17.606  37.520   3.165
15149W        W83622  17.219  41.418   2.256
15150W        W83623   0.483  13.311   4.215
15151W        W83624   9.297  29.511  11.586
15152W        W83625   6.337  34.439  10.415
15153W        W83626  12.770  12.621   0.786
15154W        W83627  33.009  42.798   4.311
15155W        W83628  22.101  42.894   2.808
15156W        W83629   6.756  32.610  14.908
15157W        W83630  17.196  25.572   0.402
15158W        W83631  30.455  25.182   4.322
15159W        W83632  16.758  17.565  13.517
15160W        W83633   2.844  24.169   0.885
15161W        W83634   3.398  26.975  13.970
15162W        W83635  21.683   9.365  14.031
15163W        W83636   1.375   5.808   2.184
15164W        W83637  43.895   7.822   4.716
15165W        W83638   8.330   4.324   0.802
15166W        W83639   4.421   2.344   2.195
15167W        W83640  25.489  10.723  11.502
15168W        W83641  17.223   0.294   0.339
15169W        W83642  20.207  30.569  12.902
15170W        W83643  25.014  44.301  12.068
15171W        W83644   7.212  23.545  11.383
15172W        W83645  19.771  27.669   1.246
15173W        W83646  34.892   8.717   4.669
15174W        W83647   5.301  12.748  10.511
15175W        W83648  22.563  16.672  10.967
15176W        W83649  24.161   2.896  12.969
15177W        W83650  29.612  17.639   0.463
15178W        W83651  32.976  16.606   2.234
15179W        W83652  25.123  19.772  10.485
15180W        W83653  39.841  28.551  12.917
15181W        W83654   5.823  24.064   0.914
15182W        W83655  27.062   6.685   2.789
15183W        W83656  39.859   4.226   2.180
15184W        W83657  43.891  43.485  13.482
15185W        W83658  12.829  15.734  12.879
15186W        W83659  43.269   3.936  10.487
15187W        W83660   1.861  18.741   4.622
15188W        W83661  20.264  23.623   3.779
15189W        W83662  40.810  15.162  10.546
15190W        W83663  19.182   9.800   0.822
15191W        W83664  22.167  15.312   2.758
15192W        W83665  37.503  32.625  10.532
15193W        W83666   2.807  14.660  11.551
15194W        W83667  26.471  24.644  11.926
15195W        W83668   4.925  24.007  13.373
15196W        W83669   2.338  18.053  12.535
15197W        W83670  17.277  30.940  11.541
15198W        W83671   1.354   2.932  12.563
15199W        W83672  18.222  26.657   0.454
15200W        W83673  34.546   2.774   3.254
15201W        W83674  32.543  34.981   2.346
15202W        W83675  15.614   9.382  13.025
15203W        W83676  20.168  42.961  12.550
15204W        W83677  38.409   4.382  11.955
15205W        W83678  39.969  39.916  11.584
15206W        W83679   5.846   5.730   3.752
15207W        W83680   0.298  31.086  14.381
15208W        W83681  29.025   7.751   2.790
15209W        W83682   5.774  44.928  12.462
15210W        W83683  35.564  18.089  13.327
15211W        W83684  26.035  39.515   4.195
15212W        W83685  41.838   4.908   4.813
15213W        W83686  29.068  15.776   0.871
15214W        W83687  12.639   8.898   4.723
15215W        W83688  30.122  17.788  14.867
15216W        W83689  30.526  10.266  14.489
15217W        W83690   6.193  26.568   0.864
15218W        W83691  30.608   7.720   2.712
15219W        W83692  22.576  26.473  14.480
15220W        W83693  34.084  14.257  12.861
15221W        W83694  13.674  10.318   2.720
15222W        W83695   3.341  24.524   4.208
15223W        W83696  30.156  35.908  12.070
15224W        W83697  44.981  35.593   2.249
15225W        W83698  21.619  42.867   4.123
15226W        W83699  39.520  27.129  12.447
15227W        W83700  34.867  32.499  13.402
15228W        W83701  27.031  34.901  12.046
15229W        W83702  30.099   6.301   4.813
15230W        W83703   4.840  29.504  11.084
15231W        W83704  17.775  32.084   1.322
15232W        W83705  28.618  20.601  14.300
15233W        W83706  26.534  26.551  11.046
15234W        W83707  30.627   3.379  14.931
15235W        W83708  26.534  26.038  11.924
15236W        W83709  27.631   5.703   4.330
15237W        W83710  12.849  31.627   1.848
15238W        W83711  35.586  20.642  10.970
15239W        W83712  18.771  16.621  12.851
15240W        W83713  14.698   1.261   3.784
15241W        W83714   1.872   4.768   4.830
15242W        W83715  41.876  36.912   3.790
15243W        W83716  38.826  21.145   2.698
15244W        W83717   3.898  37.067   4.808
15245W        W83718   8.804  23.726  14.371
15246W        W83719  41.347  23.207  11.424
15247W        W83720  25.610  37.575  11.888
15248W        W83721  36.989  13.192  10.600
15249W        W83722  27.147  39.398  11.464
15250W        W83723   5.761  38.534  10.915
15251W        W83724   2.339  14.275  10.546
15252W        W83725  43.347   2.780   3.237
15253W        W83726  23.228  27.663  13.015
15254W        W83727  28.962  24.122   2.252
15255W        W83728  42.442   3.356  12.976
15256W        W83729  44.449  33.966   0.859
15257W        W83730  18.742   3.246  14.417
15258W        W83731  32.071  12.785   1.212
15259W        W83732   2.841  38.366   2.883
15260W        W83733   2.755  41.502  13.493
15261W        W83734  19.586   3.423   0.839
15262W        W83735  18.196   1.831   2.804
15263W        W83736  31.000   1.257   1.744
15264W        W83737  21.521  12.838  14.301
15265W        W83738  31.416  24.492   1.748
15266W        W83739  13.783  34.029   2.243
15267W        W83740  43.357  20.598   3.837
15268W        W83741  41.790  32.031  10.575
15269W        W83742   5.242   7.832   3.800
15270W        W83743  34.118  43.877   2.253
15271W        W83744  42.465   7.740  10.501
15272W        W83745  16.294  10.786   0.880
15273W        W83746  20.248   0.814   2.738
15274W        W83747  18.766  12.132   4.627
15275W        W83748  25.521  16.260   2.233
15276W        W83749  25.992  34.554   3.694
15277W        W83750  22.597  44.959  13.471
15278W        W83751  40.050   0.852   1.923
15279W        W83752   8.735  12.198  12.460
15280W        W83753  29.531  19.119   1.314
15281W        W83754  34.442   7.683   0.894
15282W        W83755  19.148  24.022   4.192
15283W        W83756  37.914  29.510  10.508
15284W        W83757   9.255  32.521   0.866
15285W        W83758  29.454   6.877   1.445
15286W        W83759   1.247  39.551   0.299
15287W        W83760  20.099   6.265  12.990
15288W        W83761  30.156   0.274   3.296
15289W        W83762  40.800   1.976  13.043
15290W        W83763  29.663   8.879  13.327
15291W        W83764  16.143   7.199  13.855
15292W        W83765  21.683   8.772   0.955
15293W        W83766  22.231  43.866   2.835
15294W        W83767  43.476   0.804   1.738
15295W        W83768  25.538  22.651   4.669
15296W        W83769  10.772  42.504   0.253
15297W        W83770  15.786  23.181   0.945
15298W        W83771  31.067   5.856   3.802
15299W        W83772  31.093  18.603  10.595
15300W        W83773   1.743  33.108  11.919
15301W        W83774  18.224  39.929  10.575
15302W        W83775   8.822  34.589  12.578
15303W        W83776  37.340  32.886   0.341
15304W        W83777   7.182  12.359   3.853
15305W        W83778  11.861   5.810   1.297
15306W        W83779   3.841  42.941  12.836
15307W        W83780  31.459  14.761   1.447
15308W        W83781  14.232  23.563  12.962
15309W        W83782  32.950  13.700  14.376
15310W        W83783  25.649  15.732  10.063
15311W        W83784  33.495   1.242  14.881
15312W        W83785  26.626  42.492   2.706
15313W        W83786  14.314  29.580   0.471
15314W        W83787  27.554   2.241   3.339
15315W        W83788  23.214  23.567   0.255
15316W        W83789   7.717  36.502  12.890
15317W        W83790  39.374   5.330   4.671
15318W        W83791   2.829   0.750   2.692
15319W        W83792  22.224  12.643  10.633
15320W        W83793  43.326  33.977   3.811
15321W        W83794  42.862  31.093  14.004
15322W        W83795  27.669   8.693   1.314
15323W        W83796  31.541  10.855  11.912
15324W        W83797  20.167  44.935   4.630
15325W        W83798  24.161  19.259   3.687
15326W        W83799  33.925  11.308   0.320
15327W        W83800   0.415  11.202  12.930
15328W        W83801  16.680  39.423  13.469
15329W        W83802  33.530  10.875  11.545
15330W        W83803  20.557   0.351   0.266
15331W        W83804  16.693  14.777   1.774
15332W        W83805  42.417  23.717   0.726
15333W        W83806  22.179  18.619  12.938
15334W        W83807  26.092   5.687  11.383
15335W        W83808  27.562  28.580   0.844
15336W        W83809   8.337  36.366   3.283
15337W        W83810  41.954  44.276   5.084
15338W        W83811  21.742  21.586  10.891
15339W        W83812   7.376  23.583   3.167
15340W        W83813  25.636  36.951   3.731
15341W        W83814   0.441  44.918   0.274
15342W        W83815  14.592  20.597   2.685
15343W        W83816  28.604  25.970   3.770
15344W        W83817  37.846  40.007  10.606
15345W        W83818  40.943   0.777  13.820
15346W        W83819  28.128   3.429   0.432
15347W        W83820  31.603  21.024   2.818
15348W        W83821  35.481  22.081   2.229
15349W        W83822  34.008   0.469  14.789
15350W        W83823  11.372  13.307   1.928
15351W        W83824  33.520  41.953  10.548
15352W        W83825  37.883  40.466   1.331
15353W        W83826  26.077  13.839   3.310
15354W        W83827  31.637  13.330   1.266
15355W        W83828  24.594  29.921   1.721
15356W        W83829  15.325  42.405  14.501
15357W        W83830  16.309  39.808  10.154
15358W        W83831   7.319  27.666  11.111
15359W        W83832  40.823  19.159  12.980
15360W        W83833  19.063  23.984  12.084
15361W        W83834  28.439  32.451   2.344
15362W        W83835  18.155  22.722  14.474
15363W        W83836  16.248  30.639   0.773
15364W        W83837   4.941  27.076  12.095
15365W        W83838  24.647  23.182   3.241
15366W        W83839  32.596  22.031   4.674
15367W        W83840  20.169   2.423   0.307
15368W        W83841  29.435  19.741  13.513
15369W        W83842  17.578  23.699  11.990
15370W        W83843  22.509  31.966   2.244
15371W        W83844   5.901  17.609   1.254
15372W        W83845  18.563  16.283  14.886
15373W        W83846  30.959   6.688  10.494
15374W        W83847   8.804  38.376  13.889
15375W        W83848  26.622  44.826   3.279
15376W        W83849  33.474   1.393  11.902
15377W        W83850  42.479  35.541   0.902
15378W        W83851   8.325   4.353   2.286
15379W        W83852  27.195  11.156  11.383
15380W        W83853   5.328  44.832  11.550
15381W        W83854  44.291  44.779   2.811
15382W        W83855  30.957  30.621   1.222
15383W        W83856  34.925  40.529  10.532
15384W        W83857   4.719  42.858   4.659
15385W        W83858  18.613   1.896   3.732
15386W        W83859  25.673  22.211   4.272
15387W        W83860  41.350  24.624  11.549
15388W        W83861  38.431  25.987  13.324
15389W        W83862  28.436  38.382   1.384
15390W        W83863  16.687  36.919  11.579
15391W        W83864   1.942  17.302  14.413
15392W        W83865  29.431  30.137  12.391
15393W        W83866  19.585   9.214   0.376
15394W        W83867  44.797  14.818   1.738
15395W        W83868   7.332  35.479   4.834
15396W        W83869  27.007  43.388  13.497
15397W        W83870  14.256  14.664   0.738
15398W        W83871   9.336  35.596   1.329
15399W        W83872   1.938  37.379  12.866
15400W        W83873  16.174  41.917   1.923
15401W        W83874  28.180   7.403   1.227
15402W        W83875   1.847  25.003  11.537
15403W        W83876  20.099  25.530   0.853
15404W        W83877  44.423  28.126  11.419
15405W        W83878  22.244   0.434  10.609
15406W        W83879   8.820  16.729   4.251
15407W        W83880  16.192  22.191  14.908
15408W        W83881  22.519  23.053  10.442
15409W        W83882  10.738  16.641   1.887
15410W        W83883  41.996  42.369  14.366
15411W        W83884   4.297  26.513  13.503
15412W        W83885  31.606  22.100  11.061
15413W        W83886  31.604   1.853  10.625
15414W        W83887  25.672  29.005  14.407
15415W        W83888  12.260  36.960   2.219
15416W        W83889  23.100  37.573  12.548
15417W        W83890  38.871  16.143  11.922
15418W        W83891  44.323  30.577   3.804
15419W        W83892  21.186  33.503  14.368
15420W        W83893  24.566   6.692   2.250
15421W        W83894  22.251   5.213  13.002
15422W        W83895  11.144  35.479  12.993
15423W        W83896  43.988  17.656  10.953
15424W        W83897  15.289  14.755   3.373
15425W        W83898  43.943  18.220   2.216
15426W        W83899  31.152  20.180  14.486
15427W        W83900   5.710  33.454   0.778
15428W        W83901  43.958  25.128   3.727
15429W        W83902   8.358   1.775   3.748
15430W        W83903  32.621  23.053  14.439
15431W        W83904  25.514   9.803   0.857
15432W        W83905  22.232  29.448   4.601
15433W        W83906  25.480   5.375  14.374
15434W        W83907   6.903  12.644  10.979
15435W        W83908  23.212  10.759   3.240
15436W        W83909  19.247  40.538  11.046
15437W        W83910  15.779  21.034  10.604
15438W        W83911  26.967  23.041  10.887
15439W        W83912   6.790  30.930  12.844
15440W        W83913  35.955  30.924  11.949
15441W        W83914  12.682  24.610  13.883
15442W        W83915  36.521  41.310   2.741
15443W        W83916   4.413  21.054   1.290
15444W        W83917  20.587   3.945  10.427
15445W        W83918  42.324  22.587   0.465
15446W        W83919  35.460  15.197   2.831
15447W        W83920  37.550   6.260   3.865
15448W        W83921  39.490   7.229  11.991
15449W        W83922   8.769  38.462  10.580
15450W        W83923  33.568  10.854  13.817
15451W        W83924   0.856  14.650   1.778
15452W        W83925  28.953   9.225  11.900
15453W        W83926  31.975  34.920  11.077
15454W        W83927  41.311  33.963   4.675
15455W        W83928  23.117   7.808  13.389
15456W        W83929  19.139  19.557  14.356
15457W        W83930  39.818  41.826  11.868
15458W        W83931  39.440  27.979  11.493
15459W        W83932  20.705  42.347  11.967
15460W        W83933  12.643  36.913   0.782
15461W        W83934  19.577  22.109  13.535
15462W        W83935   1.897   3.221  13.825
15463W        W83936  44.816   2.742  14.935
15464W        W83937  30.976  25.982   4.239
15465W        W83938  28.522  36.970   4.602
15466W        W83939  23.703  23.147  14.791
15467W        W83940  24.617  13.262  14.880
15468W        W83941  32.950  10.335  13.307
15469W        W83942  42.459  36.497  11.480
15470W        W83943   3.729   9.732   2.375
15471W        W83944  20.652  11.231  13.896
15472W        W83945  17.184  38.493   2.399
15473W        W83946  37.394  17.227   2.354
15474W        W83947  10.288  27.128   2.242
15475W        W83948  23.039  42.852  10.640
15476W        W83949  18.682  17.255  11.059
15477W        W83950   5.912  32.466   2.898
15478W        W83951  23.691   1.807  10.973
15479W        W83952  40.815  38.381   0.449
15480W        W83953  25.051  15.823   4.151
15481W        W83954  13.348   9.678   2.675
15482W        W83955   2.827   3.278   4.813
15483W        W83956  30.086   7.398  14.277
15484W        W83957   8.713  41.953   2.312
15485W        W83958  43.486  30.152  14.812
15486W        W83959  43.866  28.674  13.472
15487W        W83960  17.771  36.039   1.266
15488W        W83961  35.408  41.845  14.398
15489W        W83962  12.275   1.243   2.291
15490W        W83963  40.854  33.967   4.249
15491W        W83964  15.744   5.717  11.486
15492W        W83965  28.449   5.832   2.736
15493W        W83966   9.842  36.069   1.763
15494W        W83967  40.470   3.439   4.213
15495W        W83968  20.675  24.152   0.366
15496W        W83969  44.419   3.309   3.717
15497W        W83970  24.702  32.593  11.877
15498W        W83971   0.960  30.565   4.633
15499W        W83972   3.434  26.061   4.654
15500W        W83973  20.581  13.653   4.257
15501W        W83974  38.888  34.937   1.838
15502W        W83975   9.296  37.469   1.835
15503W        W83976  17.247  30.938   1.358
15504W        W83977  40.843   5.207   3.827
15505W        W83978  28.581  27.133   4.150
15506W        W83979  26.099  42.854   4.666
15507W        W83980   7.187  33.536   3.761
15508W        W83981   0.758  22.622  14.871
15509W        W83982   4.943  15.612  12.997
15510W        W83983   6.750  19.100   4.753
15511W        W83984  13.614   1.352  10.501
15512W        W83985  35.957  44.865   3.849
15513W        W83986  37.077   7.854  10.988
15514W        W83987  26.134  38.954  14.508
15515W        W83988  39.390   6.756  13.398
15516W        W83989  14.116  27.082  14.801
15517W        W83990  41.502  38.902   1.822
15518W        W83991  33.400  19.134   3.731
15519W        W83992  20.646  35.529  13.397
15520W        W83993  14.294  43.400  13.536
15521W        W83994  17.571  30.970  10.900
15522W        W83995  18.576  33.603   3.375
15523W        W83996  33.447  35.599   1.774
15524W        W83997  15.818  21.665   1.400
15525W        W83998  42.983  13.257  13.325
15526W        W83999  32.084  32.978  11.601
15527W        W84000  17.614   2.838   4.681
15528W        W84001  40.900  16.253   4.708
15529W        W84002  24.526  17.787  13.991
15530W        W84003  13.781  39.474   0.379
15531W        W84004   8.744   2.809  11.574
15532W        W84005  32.605  15.681  11.077
15533W        W84006  22.626  23.524  13.913
15534W        W84007  40.963  30.019   4.782
15535W        W84008  23.562   4.902   4.218
15536W        W84009  22.588  29.470  14.413
15537W        W84010  13.243  17.681  14.777
15538W        W84011   9.244  42.392  12.981
15539W        W84012  35.480  28.174   2.292
15540W        W84013   0.792   5.689  11.857
15541W        W84014  28.171  14.175   4.264
15542W        W84015   3.791   7.382   5.131
15543W        W84016  21.716  42.293   4.674
15544W        W84017  37.390  24.595  14.772
15545W        W84018  29.126  12.611   4.141
15546W        W84019  24.163  11.671  11.918
15547W        W84020  29.168  22.068  10.507
15548W        W84021   7.810   3.224   1.764
15549W        W84022   7.312  25.689   0.865
15550W        W84023  33.566  23.146   3.166
15551W        W84024  20.100   6.303  10.110
15552W        W84025   4.218   3.457  12.939
15553W        W84026  11.196  10.297   1.703
15554W        W84027   2.299   8.160   4.150
15555W        W84028  25.978  38.999  13.367
15556W        W84029  27.619  43.979  11.441
15557W        W84030  16.787  27.133  10.976
15558W        W84031   1.358   1.773   2.195
15559W        W84032  43.290  18.174   0.841
15560W        W84033  17.144  21.607   0.286
15561W        W84034  41.810  42.390  14.022
15562W        W84035  18.643  20.591  13.027
15563W        W84036  28.104  41.339  10.030
15564W        W84037   3.250  36.462   0.754
15565W        W84038  11.165  16.651   4.662
15566W        W84039  27.603  33.612   1.721
15567W        W84040  29.002  33.626  14.324
15568W        W84041  44.974  17.254   0.825
15569W        W84042  25.171  27.580   3.380
15570W        W84043  43.305  31.525   0.760
15571W        W84044  34.469  19.668  12.006
15572W        W84045  18.112  28.574  12.970
15573W        W84046  23.201  15.132   1.801
15574W        W84047  31.517  44.768   1.782
15575W        W84048  27.942  44.852  11.015
15576W        W84049  37.840  18.787  13.337
15577W        W84050  32.490  21.162   4.778
15578W        W84051   1.743   3.355  14.924
15579W        W84052  21.244   5.813   4.235
15580W        W84053   7.890  29.171   3.217
15581W        W84054   5.767  24.677   4.657
15582W        W84055  27.650  24.591   1.346
15583W        W84056   3.424  13.718   0.474
15584W        W84057  38.446   9.284   1.358
15585W        W84058  38.542  17.740  10.920
15586W        W84059  10.829   9.188  10.518
15587W        W84060  19.171  11.267  14.948
15588W        W84061   4.860  14.100   1.264
15589W        W84062  19.168  17.278   4.304
15590W        W84063  35.583  37.017   1.278
15591W        W84064  22.586  42.288   2.320
15592W        W84065  17.265  29.032   2.361
15593W        W84066  44.353  27.004   3.298
15594W        W84067  14.817  20.238   1.803
15595W        W84068   5.346  41.530   1.320
15596W        W84069  20.757   1.824  10.890
15597W        W84070  25.705  37.034  14.507
15598W        W84071   3.245  17.197  10.603
15599W        W84072  30.601   2.853   4.674
15600W        W84073  23.552  14.659   3.217
15601W        W84074  31.966  23.108  13.521
15602W        W84075  31.059  28.007  12.504
15603W        W84076  42.912   8.657   2.410
15604W        W84077  29.440  14.643   3.304
15605W        W84078  30.124  26.957  10.620
15606W        W84079  40.324  34.466  13.857
15607W        W84080   0.318  16.274  14.975
15608W        W84081  41.294  14.768  10.495
15609W        W84082  23.558  26.067   3.223
15610W        W84083  14.335  38.523  12.071
15611W        W84084  27.521   0.411   4.680
15612W        W84085  32.494   6.316  13.031
15613W        W84086  12.701   9.235  13.485
15614W        W84087   7.387  19.225  10.494
15615W        W84088  23.585  44.792   3.776
15616W        W84089  12.303   9.722   1.814
15617W        W84090  22.133  11.803   3.674
15618W        W84091   7.417  13.717  10.017
15619W        W84092  26.696   4.405   3.146
15620W        W84093  34.553   3.762   1.336
15621W        W84094  44.279   1.300   2.803
15622W        W84095   0.981  24.509  11.392
15623W        W84096  40.324  44.284  12.471
15624W        W84097  39.044   1.915  11.094
15625W        W84098  13.275   8.236  13.807
15626W        W84099  40.823  41.989   3.369
15627W        W84100  21.059  36.558   3.372
15628W        W84101  13.149  26.476   2.701
15629W        W84102  29.003  30.518   4.254
15630W        W84103  14.599  32.550  14.317
15631W        W84104   4.225   5.893   2.824
15632W        W84105   9.844  25.134  12.827
15633W        W84106  17.241   4.753   2.412
15634W        W84107  36.591  14.802  10.465
15635W        W84108   5.741  22.114  14.326
15636W        W84109   6.741  38.987   4.718
15637W        W84110   7.909  22.695   3.815
15638W        W84111  16.587  32.599   2.388
15639W        W84112   8.719  27.663   1.418
15640W        W84113  14.228  23.043  10.620
15641W        W84114  40.412   7.378   2.287
15642W        W84115   3.915   4.226   0.363
15643W        W84116  36.382  35.601   4.745
15644W        W84117  20.751  27.065  13.835
15645W        W84118  42.030  11.695  13.055
15646W        W84119  28.024  28.133  10.437
15647W        W84120   9.199  22.100   5.283
15648W        W84121  43.439  24.197  14.392
15649W        W84122  24.156  34.921  10.940
15650W        W84123  33.072  35.573  10.942
15651W        W84124   0.763  26.174  13.985
15652W        W84125  20.071  32.507  14.363
15653W        W84126  39.047  27.177   0.820
15654W        W84127   8.260  26.609  12.920
15655W        W84128  25.535  31.128  10.482
15656W        W84129  38.421  40.956   4.748
15657W        W84130   3.742  16.192  11.933
15658W        W84131  17.663  37.369  14.964
15659W        W84132   4.880  29.638   0.406
15660W        W84133  41.813   2.873   4.777
15661W        W84134  27.486  39.395   1.832
15662W        W84135  20.690  43.767  12.964
15663W        W84136  41.847  23.571   1.790
15664W        W84137  15.673  27.123  10.928
15665W        W84138  11.223  17.761   0.323
15666W        W84139  14.213  14.699   4.280
15667W        W84140  11.754  11.654  12.849
15668W        W84141   5.733   0.293   1.364
15669W        W84142  21.745  32.410  14.312
15670W        W84143   0.976  18.721  13.909
15671W        W84144  22.503   9.221   1.912
15672W        W84145  30.973   7.901  12.824
15673W        W84146  19.161  14.684   4.133
15674W        W84147  40.956  19.665   4.260
15675W        W84148   2.304   5.696   0.396
15676W        W84149  42.984  26.992  13.415
15677W        W84150  15.156  37.872  14.339
15678W        W84151   1.422  22.176  11.511
15679W        W84152  20.091  25.076   0.389
15680W        W84153  42.797  40.996  12.526
15681W        W84154  17.249   9.251  14.815
15682W        W84155  28.494   3.343   4.349
15683W        W84156  36.083  35.855  14.446
15684W        W84157  19.269  20.046   4.602
15685W        W84158  19.161  43.483   0.276
15686W        W84159   2.766  20.180   1.706
15687W        W84160   3.710  21.044  10.986
15688W        W84161  29.930  28.011  14.418
15689W        W84162  11.717   8.310   0.310
15690W        W84163   4.331  44.851  10.471
15691W        W84164  20.168  26.008  11.906
15692W        W84165  27.561  23.023   3.665
15693W        W84166   7.412  36.971  10.526
15694W        W84167  13.638  44.910  14.309
15695W        W84168  14.149  17.726   3.255
15696W        W84169  15.664  28.554  12.005
15697W        W84170  32.517   0.412   1.306
15698W        W84171  35.042   4.237   2.679
15699W        W84172  42.951   6.734  11.577
15700W        W84173  12.327  29.552  12.382
15701W        W84174  32.140  29.968  12.019
15702W        W84175  35.106  36.024  11.405
15703W        W84176  21.710  20.650  14.393
15704W        W84177  29.537   6.253   1.326
15705W        W84178  26.486   8.192   4.785
15706W        W84179  44.882   2.245   3.335
15707W        W84180  22.535  42.505   2.662
15708W        W84181  29.123  10.879  13.995
15709W        W84182   4.928  34.932  12.828
15710W        W84183  25.549  26.951  11.942
15711W        W84184  35.074  22.235  10.442
15712W        W84185  36.998  16.301   4.202
15713W        W84186   6.245  36.386  10.457
15714W        W84187  19.741   5.346   3.775
15715W        W84188   8.288   4.839  11.893
15716W        W84189   4.240  30.933   2.254
15717W        W84190  41.986  12.632   2.812
15718W        W84191   3.833   0.985   2.848
15719W        W84192   0.824  23.620   0.886
15720W        W84193  15.264  20.698  14.893
15721W        W84194  33.886  21.239  11.091
15722W        W84195   1.351  19.178  14.304
15723W        W84196  37.925  39.416  11.585
15724W        W84197  43.021  21.179  14.830
15725W        W84198  12.723  36.876  14.023
15726W        W84199  15.150  42.285  11.909
15727W        W84200  13.672  27.492   4.348
15728W        W84201  17.283  36.038   4.219
15729W        W84202  43.486  36.898   2.368
15730W        W84203  38.480  33.127   1.332
15731W        W84204  42.931  13.222  11.455
15732W        W84205  35.579  25.166  10.955
15733W        W84206  29.607  14.778  11.081
15734W        W84207  24.501  21.144  11.998
15735W        W84208   3.913  36.562   3.207
15736W        W84209   1.893  32.984  14.955
15737W        W84210   7.852  29.100  14.424
15738W        W84211  21.646  33.605  13.529
15739W        W84212  27.011   3.457  13.373
15740W        W84213  26.553  18.130  10.623
15741W        W84214  15.227  19.225  12.509
15742W        W84215  27.118   2.949   4.335
15743W        W84216  10.761  41.982   3.716
15744W        W84217  37.979  35.926  12.824
15745W        W84218  23.564  20.085   0.382
15746W        W84219  43.410  43.773   2.781
15747W        W84220  35.958  25.493  12.881
15748W        W84221  31.051  27.598   1.256
15749W        W84222   3.774  41.831   3.815
15750W        W84223  18.758   9.863  10.506
15751W        W84224  13.115  29.077   3.676
15752W        W84225  41.020  25.522   3.736
15753W        W84226  26.564  41.470   2.843
15754W        W84227  26.177  37.372  11.521
15755W        W84228  33.612  13.259   1.422
15756W        W84229  27.638  43.288  10.408
15757W        W84230  26.596  42.397  12.856
15758W        W84231  31.048  22.716   4.653
15759W        W84232  35.942   6.923   3.806
15760W        W84233  41.929  31.444  11.990
15761W        W84234  23.551  26.524   1.730
15762W        W84235  19.602   2.462   4.354
15763W        W84236   6.188  12.210  11.946
15764W        W84237  28.520  19.144  11.494
15765W        W84238  21.221  13.209  10.078
15766W        W84239   0.852   4.904  13.908
15767W        W84240  20.105  22.563  10.915
15768W        W84241  16.222   1.255  13.346
15769W        W84242  24.069  27.076  12.574
15770W        W84243  19.201  44.906   3.816
15771W        W84244  10.878   2.271   4.769
15772W        W84245  19.779  37.973  12.357
15773W        W84246   2.362  35.088  12.445
15774W        W84247  18.589  44.340  13.951
15775W        W84248  30.080  40.916   3.173
15776W        W84249  35.496   2.768   0.842
15777W        W84250  40.459   2.862  13.519
15778W        W84251  29.126  37.943  11.459
15779W        W84252  34.987   3.758  10.439
15780W        W84253  41.489  32.431  12.962
15781W        W84254   2.315  36.018   4.290
15782W        W84255  23.191  17.256  12.014
15783W        W84256  20.084  15.117  11.505
15784W        W84257   0.410  29.028  11.521
15785W        W84258   8.816  41.867   1.869
15786W        W84259  25.495  39.362  14.357
15787W        W84260  24.081  27.454  11.990
15788W        W84261  18.244  25.980  11.051
15789W        W84262  41.816   3.906  13.918
15790W        W84263   3.445  34.587   2.398
15791W        W84264   4.756  12.745   3.188
15792W        W84265  19.536  43.273  11.979
15793W        W84266  31.501  33.954   4.701
15794W        W84267   0.751  16.618  13.546
15795W        W84268  40.888  40.828  13.540
15796W        W84269  41.855  10.184   3.146
15797W        W84270  37.456  14.301   0.853
15798W        W84271  38.010  10.320  12.462
15799W        W84272  43.426  13.782  12.839
15800W        W84273  37.058  17.780   1.771
15801W        W84274   9.323  37.378  13.057
15802W        W84275   2.737  11.333  10.482
15803W        W84276  35.949  44.334   4.678
15804W        W84277  22.173  42.032   3.716
15805W        W84278   9.152   5.742  14.371
15806W        W84279   8.900   5.924  14.350
15807W        W84280  17.705  43.341  12.529
15808W        W84281   2.744  30.109   3.274
15809W        W84282  28.607  12.654   4.137
15810W        W84283  17.680  29.541   1.812
15811W        W84284  15.637  43.407  11.968
15812W        W84285  23.224  17.068  14.346
15813W        W84286  11.797  25.152   5.117
15814W        W84287  40.527   8.257  12.862
15815W        W84288  39.412  19.627   4.752
15816W        W84289  22.546  27.073  11.493
15817W        W84290  15.281   8.218  11.074
15818W        W84291   7.868  35.413   0.278
15819W        W84292   5.702   9.300  14.959
15820W        W84293  34.525   3.754   2.730
15821W        W84294  29.005  21.677  11.521
15822W        W84295  37.988  15.645  12.849
15823W        W84296  16.244  20.630  13.866
15824W        W84297  42.878  29.090   2.232
15825W        W84298  20.689   0.304   4.270
15826W        W84299  19.559  18.656   3.173
15827W        W84300   8.331  34.509  10.052
15828W        W84301  13.684  42.371   4.124
15829W        W84302  43.424   4.323  11.032
15830W        W84303  41.351  19.268   2.330
15831W        W84304  14.609  31.544   2.856
15832W        W84305  26.149  14.192   2.769
15833W        W84306  20.156  13.270   3.252
15834W        W84307   1.288  13.752   0.474
15835W        W84308  39.314  36.475   0.943
15836W        W84309  28.987  23.105   3.643
15837W        W84310  10.862  27.995   2.390
15838W        W84311  31.582  17.300  14.416
15839W        W84312  28.583  42.973  13.923
15840W        W84313  14.659  17.140  13.820
15841W        W84314  42.958  19.628  13.897
15842W        W84315  42.847  44.791  14.836
15843W        W84316  44.895   9.156   3.821
15844W        W84317  11.340  23.658   4.174
15845W        W84318   5.831   3.302   4.278
15846W        W84319  36.540   6.212  11.574
15847W        W84320   0.888  30.055   0.938
15848W        W84321   8.309  24.204  14.944
15849W        W84322  39.364  23.062  14.326
15850W        W84323  25.106  35.887  10.591
15851W        W84324  12.766   8.328   1.242
15852W        W84325  34.453  41.432   2.193
15853W        W84326  24.049   6.762   4.775
15854W        W84327   3.344  32.008  13.889
15855W        W84328  21.557  25.011   1.275
15856W        W84329   8.299   2.256   4.699
15857W        W84330  17.129  29.964  11.908
15858W        W84331   1.970  22.217  14.366
15859W        W84332  25.015   9.153   3.745
15860W        W84333  12.764  43.349  12.483
15861W        W84334   8.206  19.771   1.260
15862W        W84335  33.996   1.802  14.990
15863W        W84336  19.582  10.788  13.794
15864W        W84337  21.153  24.586   2.692
15865W        W84338  22.741  33.528   4.653
15866W        W84339   7.358  43.435  13.418
15867W        W84340  43.360   4.933   2.293
15868W        W84341  42.830  35.009  12.001
15869W        W84342  39.343  28.964  11.467
15870W        W84343  27.982  28.164   0.905
15871W        W84344  11.371  24.200  12.895
15872W        W84345  24.053  24.508  10.540
15873W        W84346   7.829   3.340   1.393
15874W        W84347  35.387  37.040  11.531
15875W        W84348  31.458  24.167  11.088
15876W        W84349  15.286  34.904   2.809
15877W        W84350  26.682  15.769   3.259
15878W        W84351   4.438  28.546   4.238
15879W        W84352  20.713  28.937  13.034
15880W        W84353  24.567  31.931   2.687
15881W        W84354  15.290  29.918  12.420
15882W        W84355  31.018  14.787   0.845
15883W        W84356  38.823  26.058   3.369
15884W        W84357   8.297  17.662  13.539
15885W        W84358  12.724  41.478  10.442
15886W        W84359   2.869  21.656  14.470
15887W        W84360  34.477  36.422   2.396
15888W        W84361  19.225  38.426   2.684
15889W        W84362  13.288  10.835  11.882
15890W        W84363  42.912   4.874  11.029
15891W        W84364  40.397  11.292  11.456
15892W        W84365  18.588  12.226   4.151
15893W        W84366  42.890   8.297  10.410
15894W        W84367  32.473  26.202   1.223
15895W        W84368  31.933  41.019   3.262
15896W        W84369  25.082  24.994  13.419
15897W        W84370   4.912  26.172  13.958
15898W        W84371  40.987  31.560   1.240
15899W        W84372  24.037  39.330   4.346
15900W        W84373  33.991   0.248  10.482
15901W        W84374  37.833  13.696   2.395
15902W        W84375  15.229  36.546   0.836
15903W        W84376  21.720  21.722  12.484
15904W        W84377  27.116  44.406   1.414
15905W        W84378  26.072   7.214   0.939
15906W        W84379  17.635  13.682  10.474
15907W        W84380  29.941  28.480  14.987
15908W        W84381  24.046  24.049  11.875
15909W        W84382  19.609  32.986   0.365
15910W        W84383  28.994   4.317  13.820
15911W        W84384  28.001  12.216   3.767
15912W        W84385   5.246  31.909  10.464
15913W        W84386   4.826   0.403   4.797
15914W        W84387  27.618  36.848  12.923
15915W        W84388  39.435  39.016   0.272
15916W        W84389  19.071  13.276   4.237
15917W        W84390  43.403  24.001   1.909
15918W        W84391  29.032  36.358   0.860
15919W        W84392  10.361   4.925  10.570
15920W        W84393   5.420   0.849   4.606
15921W        W84394  18.684  33.944  14.799
15922W        W84395  31.629  25.195   3.356
15923W        W84396  41.425  13.614   4.261
15924W        W84397   4.306  23.707  11.603
15925W        W84398   8.163  42.353   3.676
15926W        W84399  29.997  31.638  10.418
15927W        W84400   8.703   3.393   2.725
15928W        W84401   3.776  42.797   1.837
15929W        W84402  15.198  24.128   0.765
15930W        W84403  19.734  10.237   5.209
15931W        W84404  34.422  32.545   0.482
15932W        W84405  39.965  13.317   3.773
15933W        W84406  26.554   0.474   0.889
15934W        W84407  25.189  18.231  12.450
15935W        W84408  10.380  11.189  12.493
15936W        W84409   8.259  15.594   4.239
15937W        W84410   1.935  40.955   0.354
15938W        W84411  44.396  26.199   1.231
15939W        W84412   2.401  43.898   3.676
15940W        W84413  44.317  28.976   2.379
15941W        W84414  10.304  39.960  10.598
15942W        W84415   7.241  42.865  12.537
15943W        W84416   8.815  14.300   0.809
15944W        W84417  20.756  30.933   3.738
15945W        W84418  37.417  39.039  13.490
15946W        W84419  17.256   8.723  11.448
15947W        W84420  12.843   1.794   4.677
15948W        W84421   6.852  16.181   1.365
15949W        W84422  28.133  34.384  10.510
15950W        W84423  16.306  10.194   4.823
15951W        W84424   5.753  35.069  14.486
15952W        W84425  35.578  37.893   4.770
15953W        W84426  16.227  22.181   1.359
15954W        W84427  27.559  27.975  12.025
15955W        W84428  22.092  41.806  12.476
15956W        W84429  30.594  19.241   3.655
15957W        W84430  10.640  13.822   3.704
15958W        W84431   7.199  21.522  12.894
15959W        W84432  32.628  11.147  11.006
15960W        W84433   6.306  33.582  13.987
15961W        W84434  22.744  26.101  11.394
15962W        W84435  16.685  42.962   0.299
15963W        W84436  23.031  10.686   1.368
15964W        W84437  43.981  16.105   4.316
15965W        W84438  35.973  29.626  11.877
15966W        W84439  22.043  25.490  14.821
15967W        W84440  27.161  20.081  11.438
15968W        W84441  28.016   1.373   1.904
15969W        W84442  43.322  26.008  12.000
15970W        W84443  42.799  19.685   3.309
15971W        W84444  21.257   5.218   1.833
15972W        W84445  39.513  37.450   3.147
15973W        W84446  31.935  39.833   3.285
15974W        W84447   1.315   3.887  13.870
15975W        W84448  21.218  23.522  13.508
15976W        W84449  22.600  11.361  13.956
15977W        W84450  42.285  16.093   2.240
15978W        W84451  38.337   1.464   0.935
15979W        W84452  25.005  23.996  13.857
15980W        W84453  16.650   2.330   0.832
15981W        W84454   4.930  37.350  11.059
15982W        W84455  37.361  40.007   4.712
15983W        W84456   5.709  44.856  12.823
15984W        W84457  17.214  21.239   3.721
15985W        W84458  22.645  29.073   4.241
15986W        W84459  24.011  44.271  12.434
15987W        W84460  23.718  34.991  11.517
15988W        W84461  31.408  10.723  14.766
15989W        W84462  39.042  32.952  14.870
15990W        W84463   7.354  19.771  11.000
15991W        W84464  13.624  21.692   4.623
15992W        W84465  41.415  14.251  11.490
15993W        W84466  39.373  15.744  10.907
15994W        W84467  31.992  33.411  14.355
15995W        W84468   3.745  13.154  14.311
15996W        W84469   6.350   7.229   1.248
15997W        W84470  36.048  30.623  10.441
15998W        W84471  11.200  32.059  11.494
15999W        W84472   3.803  33.104  10.622
16000W        W84473  44.817  28.479  11.521
16001W        W84474   5.909  44.826   3.761
16002W        W84475   5.198  22.718  14.881
16003W        W84476  34.863   6.258   2.319
16004W        W84477   1.236  24.039   2.229
16005W        W84478  11.777  14.810  12.020
16006W        W84479  28.121  42.021  12.381
16007W        W84480  23.564  32.885   0.311
16008W        W84481  23.186  21.023  13.464
16009W        W84482  16.228  38.468  12.982
16010W        W84483   9.194  22.214  12.081
16011W        W84484  35.584  11.225  13.964
16012W        W84485  17.726  40.324   2.851
16013W        W84486  27.658  30.115  11.385
16014W        W84487  32.014  32.512  11.059
16015W        W84488  21.719   5.383   0.421
16016W        W84489  42.335  19.718   3.653
16017W        W84490  16.244   8.809   4.145
16018W        W84491  21.196   6.756   5.221
16019W        W84492   6.789  37.580  13.803
16020W        W84493   5.302  34.541   3.164
16021W        W84494   7.709  24.713   2.274
16022W        W84495  36.880  20.246  13.382
16023W        W84496  38.821  39.951   0.824
16024W        W84497  10.759  28.652   0.479
16025W        W84498   8.794   9.318   4.169
16026W        W84499   4.311  43.827   4.797
16027W        W84500  11.279  14.129  12.345
16028W        W84501  40.799   1.329   2.209
16029W        W84502  43.276   8.265  11.953
16030W        W84503   0.966   4.853  12.458
16031W        W84504  44.836  32.585   0.773
16032W        W84505  23.597   1.875  10.538
16033W        W84506  35.026   3.313  12.986
16034W        W84507   0.807  34.017   3.315
16035W        W84508  27.546  39.950  13.390
16036W        W84509  35.590   7.850   3.641
16037W        W84510  42.479   5.765  12.988
16038W        W84511  24.497   1.244   2.321
16039W        W84512  43.291  13.293  14.837
16040W        W84513  33.998  10.651   0.764
16041W        W84514  23.694  13.769  12.869
16042W        W84515   7.888  26.606  13.393
16043W        W84516  37.893  40.418   1.733
16044W        W84517  31.054  20.162  13.422
16045W        W84518  17.083   6.748   1.315
16046W        W84519  37.849  44.348   1.292
16047W        W84520  28.095  43.309  11.879
16048W        W84521   8.716  24.149   1.864
16049W        W84522  15.223  37.874  11.932
16050W        W84523  41.797  39.415  14.920
16051W        W84524   7.831  33.058  10.441
16052W        W84525  13.608  15.223   2.738
16053W        W84526  11.780  28.166   4.730
16054W        W84527   4.393  27.512  10.528
16055W        W84528   6.267  24.080  14.467
16056W        W84529  39.460  15.308  13.930
16057W        W84530  27.501  42.398   3.221
16058W        W84531   9.209  18.667  11.899
16059W        W84532  35.464  34.610   1.296
16060W        W84533  32.535  29.449  13.841
16061W        W84534  30.941  13.709   3.761
16062W        W84535  16.209  38.394   1.738
16063W        W84536  43.852  44.807  14.504
16064W        W84537   3.876  18.764  14.404
16065W        W84538  41.982  15.661  14.015
16066W        W84539   7.805  15.199   3.270
16067W        W84540  20.249  32.902   4.798
16068W        W84541  27.499  23.693   4.336
16069W        W84542  22.098  27.130  10.452
16070W        W84543   3.377   7.811   0.809
16071W        W84544  38.357  29.597  13.847
16072W        W84545  34.042  21.663  13.046
16073W        W84546  26.994  38.483   0.887
16074W        W84547  37.501  43.776  14.970
16075W        W84548  36.386  27.494   1.401
16076W        W84549   4.334  26.157  14.397
16077W        W84550  11.173   4.782   3.786
16078W        W84551  37.889  37.840   0.967
16079W        W84552   7.765  44.394  14.374
16080W        W84553  10.161  12.362  12.856
16081W        W84554  36.998  42.789  12.014
16082W        W84555  34.067  44.008   0.422
16083W        W84556  43.999   2.766  14.281
16084W        W84557  35.441  31.918   1.774
16085W        W84558  40.309  38.378  12.491
16086W        W84559  39.482  28.075  12.021
16087W        W84560  41.355   5.757   1.721
16088W        W84561  14.820   5.353   0.272
16089W        W84562  10.708  30.944   3.196
16090W        W84563  22.216  25.976  14.297
16091W        W84564  42.992  35.510   4.211
16092W        W84565  37.500  42.848  14.785
16093W        W84566   1.238  44.445  10.477
16094W        W84567  34.433  36.364  12.507
16095W        W84568  13.236  26.951  14.510
16096W        W84569  25.576  22.059  12.446
16097W        W84570   4.715   6.253  12.999
16098W        W84571  30.109  43.766   5.694
16099W        W84572  34.469  24.159  13.865
16100W        W84573   8.852  14.801  14.408
16101W        W84574  16.722  19.739   1.829
16102W        W84575   2.797  42.473   0.824
16103W        W84576  20.223  14.634  11.531
16104W        W84577  15.704  31.966   1.353
16105W        W84578  28.665  22.152   4.320
16106W        W84579  22.502  27.002  12.043
16107W        W84580   5.285  17.172  12.923
16108W        W84581  18.130   6.329  10.957
16109W        W84582  18.189  27.660   1.730
16110W        W84583  19.650   8.218  13.815
16111W        W84584  18.584  32.607  11.006
16112W        W84585  24.155   6.196   5.096
16113W        W84586   8.255  36.434   9.964
16114W        W84587  10.371  42.378  12.959
16115W        W84588  44.903  43.276  14.381
16116W        W84589  27.993  34.949  13.917
16117W        W84590  12.116   4.719  13.465
16118W        W84591  10.366  11.137   4.772
16119W        W84592  32.960   1.407  12.824
16120W        W84593  31.627  43.446   0.366
16121W        W84594  29.616  35.426  13.982
16122W        W84595  43.900  41.918  12.015
16123W        W84596  34.533  21.197  10.142
16124W        W84597   7.776  22.623  13.488
16125W        W84598  20.648  18.269  13.451
16126W        W84599  32.922   0.403  10.469
16127W        W84600   2.232   4.317   3.275
16128W        W84601  14.635  36.507   0.435
16129W        W84602  32.574  29.618   4.626
16130W        W84603  17.299  31.423   3.387
16131W        W84604  12.246  20.569   4.802
16132W        W84605  39.393  28.119   0.853
16133W        W84606  32.995  41.788   9.998
16134W        W84607  15.183  25.513  10.944
16135W        W84608   2.440   7.725   3.702
16136W        W84609   1.933  13.663  13.009
16137W        W84610  22.162  25.148  11.028
16138W        W84611   0.370   9.682  10.936
16139W        W84612  44.880  13.800  12.393
16140W        W84613   0.942  32.081  12.905
16141W        W84614  23.719  25.504  11.587
16142W        W84615  35.535  44.916  13.936
16143W        W84616  18.230  27.076   4.837
16144W        W84617  19.584  11.749   0.452
16145W        W84618   0.451   2.450   4.242
16146W        W84619  40.354  35.922  11.089
16147W        W84620  23.059  33.619   4.769
16148W        W84621  39.508  40.505   2.374
16149W        W84622  36.935  14.130  14.325
16150W        W84623  35.109  42.413  11.080
16151W        W84624  17.305  14.301   0.303
16152W        W84625  34.958  33.009   4.738
16153W        W84626  28.020   8.301   0.249
16154W        W84627  14.293  44.492  14.454
16155W        W84628   0.845  31.619  14.297
16156W        W84629  19.561  13.630   4.725
16157W        W84630  29.549  29.034  10.560
16158W        W84631  22.602  10.832  13.307
16159W        W84632  15.639  26.196   0.387
16160W        W84633  24.118  20.216  14.953
16161W        W84634  44.908  14.251   4.148
16162W        W84635  31.905  26.579   4.740
16163W        W84636  23.013  13.233   3.778
16164W        W84637  14.747  12.773  12.877
16165W        W84638  20.575  15.610  11.905
16166W        W84639  21.179  29.608   1.885
16167W        W84640  36.070  20.684   3.147
16168W        W84641  23.495  39.822  13.792
16169W        W84642  39.393   5.216   3.184
16170W        W84643  27.003  41.529  12.416
16171W        W84644  10.223  14.673   2.257
16172W        W84645  23.125  34.869  13.018
16173W        W84646  21.517   7.233   2.867
16174W        W84647   9.841  30.908   4.195
16175W        W84648  44.889  12.315  11.996
16176W        W84649  42.008  37.497  12.969
16177W        W84650  42.480  33.889   4.683
16178W        W84651   0.325  38.907   3.692
16179W        W84652  11.249  41.031   4.710
16180W        W84653  34.079   7.842   4.599
16181W        W84654  28.620  42.901   1.234
16182W        W84655  13.289  25.670  10.534
16183W        W84656  15.803  15.272   3.342
16184W        W84657  14.769  30.132   4.674
16185W        W84658  43.852   3.922   1.308
16186W        W84659   3.382  42.927  11.448
16187W        W84660  17.235  27.120  14.791
16188W        W84661  22.509   3.438  12.011
16189W        W84662  43.847  42.291   4.737
16190W        W84663   6.915  11.304  10.965
16191W        W84664  19.683   1.859   2.688
16192W        W84665   7.241  42.309  10.924
16193W        W84666   3.926  16.778   2.699
16194W        W84667   2.431   3.854  14.961
16195W        W84668  22.685  40.952  10.473
16196W        W84669  13.694  42.371   0.478
16197W        W84670  40.950  14.721   4.821
16198W        W84671  30.947   8.296   2.306
16199W        W84672  17.710  36.016  11.005
16200W        W84673  36.480  12.223   2.252
16201W        W84674  37.874  14.204   3.864
16202W        W84675  32.545  26.976   3.812
16203W        W84676  27.611   7.415  13.397
16204W        W84677  14.727  35.091   2.869
16205W        W84678  19.096  34.507   3.221
16206W        W84679  15.122  41.334  11.015
16207W        W84680  28.484  43.829  13.061
16208W        W84681  35.902  20.600   3.818
16209W        W84682  24.609  41.380  14.938
16210W        W84683  26.578  24.701   3.720
16211W        W84684   0.390   3.389  10.448
16212W        W84685  41.362   6.351   1.261
16213W        W84686   7.812  38.364   3.209
16214W        W84687  43.317  38.547   2.260
16215W        W84688  23.491  38.989   3.789
16216W        W84689  36.937  44.452   2.882
16217W        W84690  36.896  31.461  12.428
16218W        W84691  41.988   4.394  14.905
16219W        W84692   6.364   6.914  14.449
16220W        W84693  41.963  25.049   2.223
16221W        W84694  37.941  27.640   3.639
16222W        W84695  23.704  11.242   0.382
16223W        W84696   1.307  43.283  14.886
16224W        W84697  21.595  16.780   4.673
16225W        W84698   6.708  15.593   0.412
16226W        W84699  39.829  34.947   0.741
16227W        W84700  34.530  26.649  13.047
16228W        W84701  13.265  41.936   4.780
16229W        W84702   7.814  24.221   4.283
16230W        W84703   7.390  20.751   4.711
16231W        W84704  10.722   6.719  13.817
16232W        W84705  42.448  25.108   2.344
16233W        W84706   1.411  28.585   1.317
16234W        W84707  13.277  24.639  10.586
16235W        W84708  29.064  17.562  13.432
16236W        W84709   8.685   4.289   1.811
16237W        W84710  41.924   0.432  14.510
16238W        W84711   8.336  23.182  12.462
16239W        W84712  25.155  44.294  13.869
16240W        W84713  25.011   5.284   3.174
16241W        W84714   7.753  26.521   4.726
16242W        W84715  18.251  14.292  10.976
16243W        W84716  41.805  25.588  14.861
16244W        W84717  29.567  41.406  12.069
16245W        W84718   0.786  42.927  13.533
16246W        W84719  30.046  23.088  10.600
16247W        W84720  17.086  13.764  12.935
16248W        W84721   4.339  20.136   2.902
16249W        W84722  32.888  44.998   2.703
16250W        W84723   5.732  20.758   3.312
16251W        W84724  27.197   8.210  14.841
16252W        W84725  22.094  43.353  14.880
16253W        W84726  37.926   1.272  11.975
16254W        W84727   3.324  28.501   3.354
16255W        W84728  34.908  19.554  12.953
16256W        W84729  30.649  36.405   5.285
16257W        W84730  12.790  31.980  14.393
16258W        W84731   0.311  14.679  12.458
16259W        W84732  25.151   7.903  12.441
16260W        W84733  35.387  38.908  13.945
16261W        W84734  28.117  25.997  12.556
16262W        W84735   9.168   4.736   0.257
16263W        W84736   8.702  30.597   3.327
16264W        W84737  28.540  39.041  14.995
16265W        W84738  13.122  33.555   0.359
16266W        W84739  30.536  26.186  10.962
16267W        W84740  41.444  41.457  11.878
16268W        W84741  38.509  20.749  12.954
16269W        W84742  15.745  11.659   1.796
16270W        W84743  38.568   2.246   2.788
16271W        W84744  20.571  24.700  14.861
16272W        W84745   0.903   7.776   4.609
16273W        W84746  10.291  19.215  12.991
16274W        W84747  31.023  37.366   3.279
16275W        W84748  39.485   0.929   0.285
16276W        W84749  44.502  42.834   3.297
16277W        W84750   1.413  22.671  10.426
16278W        W84751   9.340  33.439   1.258
16279W        W84752   2.747  23.070   4.717
16280W        W84753  16.273  19.727   3.150
16281W        W84754  23.166   8.336   3.180
16282W        W84755  35.053  40.861  11.021
16283W        W84756  28.672  37.451   3.212
16284W        W84757  11.354  42.484   0.395
16285W        W84758  23.546   9.655   0.863
16286W        W84759   8.189  38.476  10.408
16287W        W84760   9.855   4.828   2.688
16288W        W84761   8.841   4.706   1.220
16289W        W84762  40.404  12.734  13.517
16290W        W84763   8.248   7.873   2.842
16291W        W84764  24.670   1.344  13.881
16292W        W84765   9.815  26.198  11.063
16293W        W84766  33.880   1.295   0.258
16294W        W84767  34.614  31.532  14.817
16295W        W84768   4.307  27.457   0.276
16296W        W84769  33.103   5.387  13.317
16297W        W84770  30.473  34.534  11.441
16298W        W84771  29.467  10.333   2.855
16299W        W84772  10.280  24.095   3.791
16300W        W84773  25.060  16.746  12.091
16301W        W84774  37.403   4.314   3.321
16302W        W84775  28.677  14.634  14.759
16303W        W84776   5.322  38.507   3.783
16304W        W84777  36.980   0.946  12.079
16305W        W84778  22.054   4.940   4.724
16306W        W84779  10.326  32.904  12.558
16307W        W84780   7.814  22.610   0.908
16308W        W84781   6.771   9.202   0.899
16309W        W84782   7.707  25.999  14.389
16310W        W84783   0.847  41.961  11.952
16311W        W84784  34.905  40.884  13.951
16312W        W84785  23.570  14.204   3.661
16313W        W84786  31.035   2.828  13.353
16314W        W84787  24.057  14.248   3.207
16315W        W84788  43.312  23.987   2.303
16316W        W84789  38.522  35.436  13.477
16317W        W84790  31.000  31.911  12.825
16318W        W84791  42.842  18.657   3.158
16319W        W84792   3.930   2.881  13.392
16320W        W84793  39.549  10.637  14.500
16321W        W84794  11.257  30.027   1.443
16322W        W84795   8.660  17.616  11.579
16323W        W84796  34.026  21.744  13.547
16324W        W84797  23.570  10.213   0.323
16325W        W84798  19.199  33.016  12.519
16326W        W84799  11.846  30.510  14.516
16327W        W84800   8.779  18.269   4.134
16328W        W84801  24.204  19.043  13.832
16329W        W84802   4.433  24.488  14.799
16330W        W84803  37.435  24.602  10.454
16331W        W84804   6.786  28.535   4.276
16332W        W84805   4.377  31.440   0.274
16333W        W84806  41.871  44.296   2.238
16334W        W84807  40.511  10.682  10.907
16335W        W84808  26.065   8.330   0.282
16336W        W84809  39.973  32.996   4.249
16337W        W84810  26.164  10.138   4.780
16338W        W84811  24.169  29.667   0.894
16339W        W84812  42.944   7.405  13.003
16340W        W84813  38.384  27.180  13.849
16341W        W84814  35.067  39.881   3.344
16342W        W84815  33.992  37.345  13.310
16343W        W84816  15.165  40.816  11.865
16344W        W84817  18.735  19.095  12.864
16345W        W84818   6.256  21.620  12.509
16346W        W84819  25.967  17.662  12.986
16347W        W84820  13.308  28.578   0.291
16348W        W84821  37.836   8.665  14.955
16349W        W84822  35.377   9.219  12.979
16350W        W84823   4.404  12.776  12.921
16351W        W84824  24.613   5.798   1.333
16352W        W84825  14.295  33.507  14.868
16353W        W84826   3.397  21.663  12.850
16354W        W84827   7.284   6.243  13.320
16355W        W84828   5.424  31.419  14.992
16356W        W84829   0.309   9.330  12.355
16357W        W84830  21.705   0.328   3.374
16358W        W84831  43.916  13.740   3.333
16359W        W84832  40.969  18.725   2.277
16360W        W84833   1.901   0.750   1.319
16361W        W84834  14.605  26.193  14.433
16362W        W84835  35.902  35.540  11.047
16363W        W84836  35.598   5.865  12.571
16364W        W84837  20.242  10.318  13.064
16365W        W84838   3.390   9.313  10.558
16366W        W84839  22.170  10.348  14.766
16367W        W84840   1.363  36.426   4.739
16368W        W84841  33.538  10.710   4.172
16369W        W84842  40.892  38.561   2.398
16370W        W84843   4.801  42.986  11.037
16371W        W84844  20.240   6.870   4.796
16372W        W84845   1.387  11.770  13.938
16373W        W84846   9.839  44.398   1.834
16374W        W84847  12.174  38.422   0.276
16375W        W84848  41.396  36.080  14.835
16376W        W84849  13.283  25.155  12.578
16377W        W84850  27.984  37.940  14.028
16378W        W84851   3.742  19.570   3.152
16379W        W84852  10.170  28.136  12.543
16380W        W84853  23.575  34.915  13.848
16381W        W84854  17.793   1.447   4.788
16382W        W84855  43.793  19.648  11.513
16383W        W84856   0.374  40.858  13.379
16384W        W84857   8.170  29.136  13.024
16385W        W84858   0.939  36.427   0.440
16386W        W84859  25.685  37.847   3.734
16387W        W84860   3.897  30.649   2.200
16388W        W84861  38.890   0.252  14.004
16389W        W84862  29.512   5.368  11.008
16390W        W84863  18.646  36.389  14.513
16391W        W84864  17.246   8.816   2.661
16392W        W84865  24.036  17.565   4.820
16393W        W84866  11.195  36.895   4.155
16394W        W84867   1.965  22.507  11.517
16395W        W84868  44.389   6.357  10.629
16396W        W84869  42.002  29.959  14.330
16397W        W84870  38.975  34.388   4.721
16398W        W84871  32.475  30.133  11.078
16399W        W84872  35.891  10.353   1.400
16400W        W84873  19.774  42.956   2.335
16401W        W84874  32.909  12.610   0.385
16402W        W84875  24.090  44.431  12.043
16403W        W84876   5.265  37.873  12.401
16404W        W84877  44.262   7.375   5.134
16405W        W84878  44.471  38.409   5.117
16406W        W84879   6.922   4.342   5.114
16407W        W84880  11.817  30.011  13.962
16408W        W84881  39.840   1.285  12.849
16409W        W84882  15.182   2.869   4.727
16410W        W84883  28.621  32.461   0.757
16411W        W84884  41.335  15.671  11.553
16412W        W84885  13.352  37.347   4.203
16413W        W84886  17.753  21.629  12.025
16414W        W84887  39.969  21.041   1.871
16415W        W84888  36.494  14.810   3.856
16416W        W84889  42.425  28.621   0.391
16417W        W84890   8.263  17.214   3.793
16418W        W84891  39.991  15.256  14.278
16419W        W84892  27.610   0.889  12.933
16420W        W84893   4.388  10.869   1.925
16421W        W84894  35.585  33.401  14.843
16422W        W84895  12.787  27.507   1.701
16423W        W84896  11.677  42.467   2.402
16424W        W84897  33.936  25.148   4.288
16425W        W84898  42.508  33.982   4.351
16426W        W84899  36.495  36.464   2.784
16427W        W84900  29.048   6.190  12.046
16428W        W84901  25.570  23.556   2.744
16429W        W84902  36.004  21.093  12.519
16430W        W84903  11.666  31.444  10.629
16431W        W84904  12.322   9.304   3.321
16432W        W84905  33.392  36.381   2.231
16433W        W84906  40.820  24.527   3.817
16434W        W84907  37.934   1.381   4.620
16435W        W84908  25.141  17.769  14.986
16436W        W84909   5.389  31.424  11.481
16437W        W84910  25.548  21.048   1.259
16438W        W84911  13.126   8.401   0.727
16439W        W84912  36.092   9.821   3.838
16440W        W84913  22.169  25.474   1.401
16441W        W84914  18.764  25.512   4.120
16442W        W84915   3.313  18.630   1.729
16443W        W84916  36.012  23.122  11.897
16444W        W84917  28.169  38.991   4.274
16445W        W84918  12.757  22.572  11.012
16446W        W84919   9.722  12.706   0.449
16447W        W84920  41.894  18.779  14.343
16448W        W84921  25.195  15.624   0.848
16449W        W84922  34.502   2.351   4.335
16450W        W84923  23.704  42.292   1.370
16451W        W84924  31.946  20.697   1.218
16452W        W84925  17.145  28.514  11.388
16453W        W84926  33.028  31.089  10.503
16454W        W84927  33.122  32.075   1.391
16455W        W84928   6.743  42.001   1.381
16456W        W84929  33.544   6.218   4.244
16457W        W84930  12.722   5.694  13.916
16458W        W84931  25.707  33.916   1.863
16459W        W84932  33.013  36.443  14.499
16460W        W84933   1.457  34.547  12.501
16461W        W84934  43.310  15.823   0.733
16462W        W84935   3.888  27.969   4.792
16463W        W84936  24.638  25.558  13.329
16464W        W84937  34.985  39.331  14.338
16465W        W84938  33.983  27.615  14.403
16466W        W84939  39.438  17.763   2.414
16467W        W84940  42.341  11.675  11.465
16468W        W84941  42.324  43.434  11.925
16469W        W84942   3.784  43.841  11.904
16470W        W84943   2.260  22.605   0.261
16471W        W84944  38.997  34.536   2.878
16472W        W84945   1.320   8.236   1.776
16473W        W84946  20.086  22.150   0.315
16474W        W84947  24.996  38.336  10.449
16475W        W84948  16.211   5.827   0.919
16476W        W84949  14.590  11.327   0.445
16477W        W84950  26.486   0.436   1.226
16478W        W84951  30.914  16.796   3.220
16479W        W84952   8.295  17.161  11.492
16480W        W84953  36.031  16.782   4.236
16481W        W84954  36.895  41.495  11.527
16482W        W84955  25.512   3.729  14.504
16483W        W84956  15.795  23.117  12.054
16484W        W84957  22.597  28.143   1.733
16485W        W84958  42.404  30.140   3.269
16486W        W84959   9.290  39.462  13.466
16487W        W84960  15.110  43.853   2.194
16488W        W84961  19.561  15.678   2.827
16489W        W84962   0.330  20.187  13.526
16490W        W84963  24.142  11.826  13.883
16491W        W84964  13.130  27.030   2.868
16492W        W84965  21.525  44.337   0.283
16493W        W84966  28.941  31.977  10.479
16494W        W84967   4.712  34.475  11.959
16495W        W84968  28.642   0.768  13.431
16496W        W84969  14.648  23.533   4.156
16497W        W84970  42.018  36.393  10.451
16498W        W84971  10.694  44.442   2.885
16499W        W84972   3.238   0.760  12.096
16500W        W84973  16.295   0.798   1.276
16501W        W84974  14.780  27.613  11.609
16502W        W84975   5.380   3.401   2.764
16503W        W84976   2.758  17.609  10.428
16504W        W84977   5.711  24.564   3.709
16505W        W84978  32.585   3.929  11.382
16506W        W84979  35.958  23.503  11.983
16507W        W84980  31.536  10.379  11.009
16508W        W84981  15.146  35.930  14.925
16509W        W84982  42.471  25.007   0.390
16510W        W84983  30.931   4.931  13.322
16511W        W84984  18.555  28.176  12.965
16512W        W84985  39.467  37.860  12.045
16513W        W84986  15.328  40.895  10.012
16514W        W84987  24.677  19.678   3.641
16515W        W84988  24.009  42.986  11.434
16516W        W84989  37.904  28.607  14.845
16517W        W84990  37.520  36.437  10.989
16518W        W84991  19.234  19.552   2.834
16519W        W84992  19.083  22.669  13.933
16520W        W84993  23.618  19.748  12.540
16521W        W84994  36.540  35.593  13.323
16522W        W84995  21.539  10.233   0.375
16523W        W84996  20.646  27.648   1.228
16524W        W84997   0.273  26.135  14.779
16525W        W84998  22.626  25.023   1.870
16526W        W84999  30.431  38.530  13.453
16527W        W85000   6.737  37.390   0.728
16528W        W85001  19.660  39.011  13.514
16529W        W85002  26.134  27.969  10.434
16530W        W85003  11.830  13.605   1.416
16531W        W85004  17.269  37.478  12.525
16532W        W85005   8.828  20.766   0.743
16533W        W85006  33.401  15.203   2.790
16534W        W85007  28.640   4.289   1.894
16535W        W85008  44.815  44.887   0.935
16536W        W85009  11.786   0.429   1.741
16537W        W85010   9.758  29.564   1.922
16538W        W85011  28.661  29.624  13.945
16539W        W85012   2.387  24.198   3.337
16540W        W85013  34.873  38.527   1.273
16541W        W85014  26.010  32.989  11.404
16542W        W85015   0.470  14.306  12.041
16543W        W85016  12.277  12.704   2.813
16544W        W85017  10.210  21.538   4.792
16545W        W85018   9.752  11.212   0.450
16546W        W85019  29.154  27.465   1.220
16547W        W85020  37.502  19.732  12.343
16548W        W85021  12.827  14.195   0.369
16549W        W85022  22.223  36.577   0.912
16550W        W85023  11.312  29.660   0.926
16551W        W85024  41.495  33.430  11.858
16552W        W85025  39.487  20.182   2.387
16553W        W85026  40.978  30.527  12.414
16554W        W85027  24.000  30.489  13.998
16555W        W85028  14.750  41.844   3.830
16556W        W85029  40.447  12.146  11.516
16557W        W85030  11.258  34.439   1.377
16558W        W85031  27.630   0.936  11.125
16559W        W85032  25.646  38.930   4.320
16560W        W85033  10.763  11.355   1.438
16561W        W85034  20.219  12.636   5.319
16562W        W85035  25.672  39.513   0.886
16563W        W85036  11.162   3.335   4.183
16564W        W85037  13.145  42.910   0.782
16565W        W85038  26.460  32.513   2.200
16566W        W85039  42.820  23.086  10.528
16567W        W85040   0.360   1.273  10.428
16568W        W85041  22.549  30.656   3.265
16569W        W85042  43.840  28.999   4.823
16570W        W85043  29.603  20.153   0.392
16571W        W85044  11.169  13.141  12.860
16572W        W85045  11.636   3.455   5.182
16573W        W85046  14.674   4.292   1.890
16574W        W85047   2.758  14.741  13.386
16575W        W85048   8.253  11.733  11.988
16576W        W85049  16.773  26.554  14.368
16577W        W85050  24.481  44.314   5.183
16578W        W85051  34.988  11.651   1.388
16579W        W85052  12.288  19.644  12.947
16580W        W85053  33.569  11.366  13.389
16581W        W85054   8.298  21.055   3.313
16582W        W85055  28.678  42.960   0.817
16583W        W85056  26.094  15.132  14.031
16584W        W85057  22.527  13.671  14.767
16585W        W85058  44.003  33.439  10.993
16586W        W85059   3.262   6.686   3.166
16587W        W85060   3.879  23.023  13.309
16588W        W85061  36.001  37.549  11.126
16589W        W85062  15.297  23.644  14.479
16590W        W85063  12.234  42.900  14.312
16591W        W85064  26.648  13.113  10.902
16592W        W85065   6.264  16.120  12.921
16593W        W85066   2.353  10.683   3.799
16594W        W85067  30.626   6.745  12.879
16595W        W85068  29.958  38.414   3.250
16596W        W85069  18.706  30.626   2.221
16597W        W85070  41.395   9.265   0.834
16598W        W85071  44.343  22.112   0.409
16599W        W85072  21.569  13.767   4.689
16600W        W85073   6.869  43.935   0.329
16601W        W85074   6.365  42.007   4.658
16602W        W85075   8.160  26.168   4.608
16603W        W85076  12.612   7.199  14.414
16604W        W85077  43.790  11.177   0.842
16605W        W85078  12.750   4.353  12.909
16606W        W85079  41.456  17.715  11.877
16607W        W85080  14.226   9.219   4.790
16608W        W85081  30.634  18.607   3.870
16609W        W85082  33.928   8.661   3.870
16610W        W85083  35.922  13.634   4.831
16611W        W85084   1.941  21.649  12.502
16612W        W85085   1.292  24.582  12.846
16613W        W85086  43.890  22.134   1.929
16614W        W85087  13.211  28.096   2.294
16615W        W85088  12.791   3.327   0.873
16616W        W85089   3.885  24.227   2.340
16617W        W85090  18.251   3.307   1.798
16618W        W85091  20.087   9.773  11.873
16619W        W85092  42.980  21.081  12.025
16620W        W85093  29.453  24.128   1.358
16621W        W85094  23.672   9.868  13.372
16622W        W85095  17.796  26.672   2.350
16623W        W85096  12.124   5.432   1.234
16624W        W85097   7.330  33.969  11.112
16625W        W85098  42.348  13.318  14.977
16626W        W85099  43.826  11.143   3.841
16627W        W85100  35.540   9.754  14.489
16628W        W85101  20.740  44.278   2.207
16629W        W85102   0.872  37.349   2.853
16630W        W85103  22.249  10.787   1.831
16631W        W85104  27.970  28.131   2.698
16632W        W85105  19.727  44.310   4.605
16633W        W85106  11.363  31.428  11.932
16634W        W85107  14.335  35.949  13.906
16635W        W85108  21.685   9.301   4.260
16636W        W85109  20.563  34.399  11.066
16637W        W85110  36.593  15.210   0.877
16638W        W85111  11.646  26.596   1.720
16639W        W85112  44.894  21.657   1.746
16640W        W85113  10.324   6.186  13.459
16641W        W85114  18.053  30.030  11.515
16642W        W85115  24.078  20.726   4.344
16643W        W85116  33.948  36.517   3.318
16644W        W85117  14.700  38.915   4.628
16645W        W85118  11.722   1.903   0.950
16646W        W85119  10.374  22.248   0.961
16647W        W85120  13.271  19.093   2.390
16648W        W85121  35.540  29.012  10.445
16649W        W85122  31.062  25.528  11.962
16650W        W85123  26.579  37.557  13.927
16651W        W85124  38.007  15.814   0.960
16652W        W85125  34.062  42.337  11.046
16653W        W85126  40.318  23.181  13.331
16654W        W85127  12.855  26.493  12.457
16655W        W85128  11.208   5.895  14.377
16656W        W85129  39.046  29.555   2.381
16657W        W85130  42.374   2.789   0.429
16658W        W85131  11.294   6.364  11.593
16659W        W85132  18.065  20.166  11.453
16660W        W85133  34.555   9.781  11.089
16661W        W85134  40.047  40.962  10.507
16662W        W85135  31.484  13.744  14.762
16663W        W85136  23.168  12.334  11.947
16664W        W85137  19.598  11.862   1.763
16665W        W85138  35.044  27.673   3.731
16666W        W85139   3.753  19.159   0.906
16667W        W85140  37.060  26.571   2.669
16668W        W85141  38.946  33.462   4.765
16669W        W85142  40.025  43.794   2.383
16670W        W85143  14.238  19.214  11.080
16671W        W85144  39.873  25.209  14.514
16672W        W85145  40.862   9.762  11.495
16673W        W85146  36.862  30.422   1.338
16674W        W85147  24.183  24.709  12.565
16675W        W85148  13.776  24.689   0.369
16676W        W85149  41.413   6.398   1.770
16677W        W85150   5.846  18.659  10.927
16678W        W85151  17.192  16.088   4.190
16679W        W85152  20.712   6.382   3.352
16680W        W85153  38.368  40.948  13.793
16681W        W85154  34.035   7.905   0.375
16682W        W85155  31.080  16.180  14.414
16683W        W85156  27.508  24.182  11.562
16684W        W85157  14.629  14.625   0.782
16685W        W85158  31.480  30.978   2.342
16686W        W85159  31.488   8.303  12.578
16687W        W85160  28.672  30.038   4.747
16688W        W85161   2.857  44.365   4.119
16689W        W85162  30.080  22.220   1.370
16690W        W85163  39.344  40.326  13.507
16691W        W85164  23.599  15.250  10.639
16692W        W85165  26.976   3.257   1.310
16693W        W85166  38.533  23.710  11.857
16694W        W85167   5.834  16.618   9.936
16695W        W85168   9.303   6.906   4.706
16696W        W85169  37.848  22.705  12.429
16697W        W85170  34.422  43.003   3.278
16698W        W85171  31.135  20.268   2.219
16699W        W85172   8.666   3.242  12.494
16700W        W85173   0.974  36.086   2.725
16701W        W85174   2.437  33.514   1.268
16702W        W85175   3.925  33.884  13.059
16703W        W85176   6.348  31.556  11.384
16704W        W85177  29.635   3.325  13.396
16705W        W85178   1.784  22.161  14.957
16706W        W85179  35.490  28.652   1.886
16707W        W85180  24.653  22.107   1.317
16708W        W85181  11.228  15.086   4.737
16709W        W85182   6.821   0.874  10.516
16710W        W85183  40.981   5.254  12.973
16711W        W85184  13.761  17.076   3.793
16712W        W85185   6.841  28.607   1.238
16713W        W85186  34.548  39.414   2.788
16714W        W85187   8.674  23.627   5.248
16715W        W85188  43.903  23.179  14.487
16716W        W85189   2.229  22.631  14.389
16717W        W85190  24.542  21.536   4.213
16718W        W85191  19.203  23.624   1.262
16719W        W85192  43.013  21.089  11.391
16720W        W85193  19.579  32.478  13.836
16721W        W85194  43.017  36.465   1.898
16722W        W85195   6.405  19.543   2.737
16723W        W85196  34.405   7.670  13.838
16724W        W85197  17.080  24.700   0.865
16725W        W85198  36.503  14.167   0.917
16726W        W85199  13.637   9.291  13.435
16727W        W85200  11.655   7.308   0.312
16728W        W85201  20.532  25.203  13.794
16729W        W85202  12.254  39.485   0.385
16730W        W85203  11.132  29.601  13.336
16731W        W85204  38.554  34.505   4.794
16732W        W85205  39.457  24.692   0.818
16733W        W85206  11.753  20.241  14.395
16734W        W85207  30.653  36.498  13.883
16735W        W85208  44.425  43.403  14.014
16736W        W85209   0.749  15.133   1.314
16737W        W85210  40.881  20.620  14.316
16738W        W85211  23.597  39.469  14.296
16739W        W85212  13.303  37.887  10.472
16740W        W85213  17.733  30.915  12.079
16741W        W85214  14.293  35.589   3.709
16742W        W85215  24.190  30.085   3.824
16743W        W85216  25.965  28.956   3.753
16744W        W85217  26.099   0.370  11.399
16745W        W85218  13.736  30.537  12.478
16746W        W85219  37.943  27.099  14.010
16747W        W85220  32.050   0.900  10.576
16748W        W85221  10.694   4.917  10.628
16749W        W85222  34.442  30.923  11.883
16750W        W85223  20.187  22.084   2.778
16751W        W85224  21.142  36.529   3.717
16752W        W85225   1.247  31.573  10.994
16753W        W85226  26.969  26.595   2.692
16754W        W85227   3.326  16.639  13.422
16755W        W85228  39.474  32.404   1.792
16756W        W85229   0.340  39.490   3.149
16757W        W85230  21.623  13.162  14.979
16758W        W85231   2.809  37.845  11.905
16759W        W85232  10.759  15.193  14.896
16760W        W85233  44.827  24.516   0.828
16761W        W85234  30.097  40.935  10.542
16762W        W85235  43.482  41.433  12.841
16763W        W85236  41.846  12.712  10.912
16764W        W85237  39.476  12.310  14.437
16765W        W85238  26.508  16.280   3.839
16766W        W85239  37.447  34.067   1.301
16767W        W85240  15.652  27.974  12.428
16768W        W85241   7.803  35.550  12.514
16769W        W85242  10.855  33.918  14.511
16770W        W85243  44.495   6.723   3.859
16771W        W85244  34.540   3.791  11.439
16772W        W85245  42.855   9.887  13.352
16773W        W85246  15.598   5.781   4.825
16774W        W85247  44.976  13.644   4.222
16775W        W85248  28.630   0.269   3.233
16776W        W85249  19.679  18.242   1.930
16777W        W85250  13.226   9.769  10.892
16778W        W85251  31.934  10.637   2.849
16779W        W85252  10.806  42.320  11.042
16780W        W85253  41.531   0.814  12.466
16781W        W85254   3.453  44.002   1.292
16782W        W85255  18.158   1.466  13.869
16783W        W85256  34.396   7.391   1.289
16784W        W85257   0.813  43.943  10.992
16785W        W85258  42.426  38.425  10.566
16786W        W85259  21.212  29.107  13.411
16787W        W85260  43.374  26.606  13.475
16788W        W85261  10.742   6.193   1.265
16789W        W85262  24.691  35.914   3.168
16790W        W85263  10.632  39.428  10.570
16791W        W85264   6.322  18.759  14.978
16792W        W85265   3.353  42.019  13.917
16793W        W85266  26.115   8.668   3.700
16794W        W85267  30.941   3.875  14.833
16795W        W85268  39.829  17.243   3.227
16796W        W85269  37.833  21.171   0.740
16797W        W85270  39.993  16.749   0.790
16798W        W85271  31.510   0.842   3.672
16799W        W85272  12.722  27.152  12.841
16800W        W85273  34.528  41.480  12.000
16801W        W85274  34.565  20.040   4.782
16802W        W85275  19.164   6.383   3.734
16803W        W85276  15.226  23.120   4.197
16804W        W85277   3.381  14.225   4.816
16805W        W85278  14.785  11.137   4.722
16806W        W85279   4.230  42.785  14.402
16807W        W85280   5.377  26.155  14.789
16808W        W85281  13.802  25.488  12.940
16809W        W85282   0.820  40.987   2.228
16810W        W85283  24.042   9.888   3.870
16811W        W85284  34.878   4.246   3.253
16812W        W85285  39.428   1.422  10.418
16813W        W85286  39.538  30.163  13.978
16814W        W85287  42.013   0.967   3.632
16815W        W85288   7.325   4.710   4.741
16816W        W85289  12.345   3.802  10.528
16817W        W85290  12.151  38.428   3.235
16818W        W85291  40.842  14.225  13.886
16819W        W85292   8.279  10.673  10.477
16820W        W85293  21.748   5.365   1.877
16821W        W85294  18.754   2.752  11.399
16822W        W85295  15.222  44.481  14.918
16823W        W85296  39.904  41.479   0.322
16824W        W85297  42.945  25.968   2.839
16825W        W85298   3.794  44.912   1.727
16826W        W85299  21.529  13.671  11.394
16827W        W85300  44.409  30.550   0.253
16828W        W85301  44.854  14.826   0.266
16829W        W85302  35.086  32.469  14.770
16830W        W85303  39.052  42.508   1.895
16831W        W85304   6.421  20.568  10.980
16832W        W85305  36.592  22.206  14.913
16833W        W85306  36.347  21.584  11.069
16834W        W85307  12.712  10.741   2.884
16835W        W85308  16.590  20.741  11.483
16836W        W85309  10.274   4.297   2.251
16837W        W85310  36.960  41.500  14.350
16838W        W85311  16.144  39.442  11.922
16839W        W85312  15.685  14.142   0.750
16840W        W85313   3.328  43.509  11.117
16841W        W85314  40.501  43.991  10.887
16842W        W85315  28.548  30.118  12.498
16843W        W85316  22.073  35.574  13.346
16844W        W85317  27.147  10.339   2.315
16845W        W85318  31.428  30.440  10.995
16846W        W85319  39.483  17.257  12.884
16847W        W85320  16.295   4.896  11.040
16848W        W85321  22.601  43.018  12.448
16849W        W85322  39.853   7.834   3.363
16850W        W85323  37.424   2.742   2.779
16851W        W85324  31.115  36.424   3.374
16852W        W85325   6.335   4.302   1.746
16853W        W85326  17.239  41.849   0.906
16854W        W85327  24.547  31.138   0.905
16855W        W85328  17.091  25.073  11.864
16856W        W85329  24.654  34.477  10.551
16857W        W85330  18.217  27.681   4.737
16858W        W85331  41.886   9.745  11.034
16859W        W85332  15.262   0.896   2.213
16860W        W85333   6.677  32.937  11.566
16861W        W85334  17.276  35.052  11.119
16862W        W85335   2.445  24.659   1.280
16863W        W85336  21.139  36.391  10.612
16864W        W85337  24.141   9.786   0.466
16865W        W85338  36.955  37.903   4.278
16866W        W85339  28.620  23.118   2.832
16867W        W85340  43.342  13.236   4.773
16868W        W85341  43.375  30.452   3.753
16869W        W85342  23.546   4.247  10.442
16870W        W85343   5.915   7.764  13.355
16871W        W85344  41.010   5.739  14.001
16872W        W85345   1.876   6.806   2.262
16873W        W85346  17.214  37.458   3.643
16874W        W85347  13.729  14.691   2.402
16875W        W85348  33.407  31.434  10.914
16876W        W85349   0.286   3.721   4.223
16877W        W85350   9.359  22.570  10.405
16878W        W85351  30.936   8.186   0.743
16879W        W85352  14.745  10.842  14.927
16880W        W85353  12.776  34.526  13.397
16881W        W85354   3.223   4.799  12.000
16882W        W85355   6.895  26.028   1.761
16883W        W85356  32.920  19.695   3.808
16884W        W85357   2.926  11.810  13.433
16885W        W85358  22.667  34.878  14.427
16886W        W85359  29.093   3.326   1.369
16887W        W85360  24.092  18.178  13.001
16888W        W85361  44.871  27.658   0.967
16889W        W85362  29.054  30.657   0.917
16890W        W85363  32.094  37.491  11.074
16891W        W85364  32.630   0.962   0.376
16892W        W85365  18.748  37.942   1.891
16893W        W85366   7.274   2.830   0.733
16894W        W85367  22.596  31.070  11.962
16895W        W85368  34.517  21.609   3.838
16896W        W85369  15.104  27.169   0.743
16897W        W85370  43.987   6.760   2.360
16898W        W85371  30.488  30.081  13.506
16899W        W85372  28.047  28.956   1.365
16900W        W85373  44.853   7.326   0.460
16901W        W85374  31.061  14.702  14.508
16902W        W85375  35.986   6.379   4.820
16903W        W85376  16.757  31.919  10.603
16904W        W85377  17.070  39.346  11.612
16905W        W85378  26.165  30.557   3.258
16906W        W85379   6.880  16.739   4.214
16907W        W85380  21.253  16.656  14.311
16908W        W85381   2.897   1.265  11.512
16909W        W85382  36.418   0.918  11.981
16910W        W85383   0.918  44.365  13.408
16911W        W85384  14.761  12.851  10.905
16912W        W85385  23.516  23.545   1.440
16913W        W85386  35.563  38.832   4.337
16914W        W85387  29.452  35.919   2.184
16915W        W85388  22.719  11.783   3.799
16916W        W85389   4.753  16.581  11.428
16917W        W85390  20.726  11.187  12.440
16918W        W85391  16.641  17.305   2.837
16919W        W85392   0.261  39.956   1.759
16920W        W85393   5.746  19.659   1.296
16921W        W85394  42.893  34.466  12.434
16922W        W85395  39.846  18.258   3.207
16923W        W85396  22.140  26.113   1.704
16924W        W85397  19.757  23.518  12.440
16925W        W85398   7.333  12.809   0.792
16926W        W85399  41.422  40.985  12.843
16927W        W85400  34.979  13.130  14.994
16928W        W85401  16.673  35.091  13.432
16929W        W85402  10.702  35.361  14.427
16930W        W85403  38.848  10.714  14.452
16931W        W85404   4.858  20.186  14.324
16932W        W85405  40.808  25.988  13.050
16933W        W85406  34.884  20.086  12.496
16934W        W85407  21.086   3.753  11.581
16935W        W85408   4.286   5.808   3.662
16936W        W85409  42.883  41.967   5.298
16937W        W85410  22.603   5.712  14.000
16938W        W85411  22.637  27.492   1.363
16939W        W85412  38.009  30.971  11.382
16940W        W85413   5.854   3.859  14.771
16941W        W85414  43.367  35.385  12.453
16942W        W85415  39.002  27.567   2.697
16943W        W85416   7.296  43.781   2.860
16944W        W85417   0.354  22.079  12.848
16945W        W85418  20.525  44.414   2.779
16946W        W85419   7.795   4.321   5.287
16947W        W85420   2.245  17.626  11.010
16948W        W85421  44.384   3.822  13.836
16949W        W85422   3.839   5.859   1.744
16950W        W85423  24.021  24.088  11.464
16951W        W85424  34.384  35.470  14.274
16952W        W85425  17.650  25.057   0.463
16953W        W85426   5.320   2.884  12.916
16954W        W85427  40.394  38.404   3.179
16955W        W85428  11.140  13.649  11.520
16956W        W85429  36.536  39.441   3.258
16957W        W85430  36.888  18.579   0.342
16958W        W85431  12.648  21.720  11.569
16959W        W85432  42.799  12.707   3.309
16960W        W85433  33.593  26.083  13.054
16961W        W85434   7.902  18.634  14.462
16962W        W85435  12.835  18.651  12.551
16963W        W85436   6.387   1.884  11.516
16964W        W85437  38.355  18.234   3.238
16965W        W85438   5.401   3.222   1.871
16966W        W85439  19.603  12.274  10.565
16967W        W85440   7.803  21.138   1.834
16968W        W85441   7.758  24.187  13.050
16969W        W85442  38.381  14.243   3.697
16970W        W85443  25.652  11.206  12.064
16971W        W85444   5.716  38.411  13.983
16972W        W85445  38.461  34.467   0.367
16973W        W85446   1.294  31.077  11.965
16974W        W85447  27.001  18.245   1.929
16975W        W85448  33.381  32.033   2.216
16976W        W85449  26.096  15.698   0.960
16977W        W85450  39.949   0.261   4.726
16978W        W85451   9.231  32.032  12.942
16979W        W85452   6.882  32.988   2.857
16980W        W85453   1.341   1.868   4.329
16981W        W85454  34.970  14.296   2.283
16982W        W85455   6.343   0.289  12.840
16983W        W85456  37.498  18.756   0.914
16984W        W85457   6.311  31.445   3.807
16985W        W85458  43.433   6.200   4.287
16986W        W85459  10.637  13.824  12.402
16987W        W85460  18.226  18.606   1.416
16988W        W85461  41.306  28.434   4.115
16989W        W85462  33.004  34.900  14.494
16990W        W85463  17.169   9.858  13.310
16991W        W85464  44.326   7.199  10.517
16992W        W85465  30.121  27.510   4.336
16993W        W85466  10.815  41.964   2.280
16994W        W85467   4.410  11.215  13.963
16995W        W85468  42.833  30.140  14.875
16996W        W85469  15.306  16.710   4.717
16997W        W85470  40.900  43.784  10.573
16998W        W85471  17.732  38.480  12.934
16999W        W85472   8.277   8.359   4.123
17000W        W85473  36.440  21.145   4.744
17001W        W85474  43.412  34.546   2.727
17002W        W85475  14.831  32.400  11.492
17003W        W85476   9.656   8.264   3.203
17004W        W85477  21.020  15.262   4.308
17005W        W85478   8.774  40.450   0.368
17006W        W85479  17.609   7.761   4.804
17007W        W85480  20.123   4.397  11.109
17008W        W85481  29.044  25.698   0.829
17009W        W85482  18.685   0.326  13.491
17010W        W85483  29.563  37.927   4.339
17011W        W85484  11.150  15.777   3.284
17012W        W85485  34.018  11.685   3.195
17013W        W85486  15.254   9.226   4.226
17014W        W85487  27.106  22.234  13.926
17015W        W85488  23.082  42.440   0.906
17016W        W85489  17.788  16.780  14.497
17017W        W85490  22.032  17.246  13.014
17018W        W85491   5.199  38.552   4.243
17019W        W85492  34.560  43.451  11.522
17020W        W85493  44.884  11.139  11.478
17021W        W85494   5.796   5.836  12.445
17022W        W85495  28.091  34.575  10.993
17023W        W85496  15.708  40.383  13.342
17024W        W85497  34.963   4.883  11.021
17025W        W85498  29.506   9.724   2.668
17026W        W85499  16.312   0.760  11.907
17027W        W85500   5.790  22.027   2.724
17028W        W85501   9.817  24.190  12.996
17029W        W85502  37.475   2.427   4.675
17030W        W85503  29.614   0.262   0.771
17031W        W85504  43.900   6.697   2.727
17032W        W85505  34.480  43.007   2.873
17033W        W85506  17.578   1.431  14.964
17034W        W85507  12.742  20.241   2.830
17035W        W85508  35.996   2.231   2.814
17036W        W85509   0.315  17.799   1.342
17037W        W85510  39.948  35.929  12.857
17038W        W85511  27.049   1.246  11.866
17039W        W85512  21.752   9.648  11.956
17040W        W85513   3.359  32.941  13.512
17041W        W85514  32.076  32.084   4.208
17042W        W85515  14.237  43.955  12.053
17043W        W85516  23.114  19.215  14.759
17044W        W85517  33.582  28.460   2.285
17045W        W85518   6.718  44.479   2.821
17046W        W85519   7.403  17.250   4.295
17047W        W85520  12.290  28.536   2.190
17048W        W85521  33.887  18.228  12.564
17049W        W85522  12.195  17.182   0.851
17050W        W85523  16.620  41.424   1.845
17051W        W85524  10.792  21.205  13.050
17052W        W85525  25.094  36.942   1.389
17053W        W85526  24.536  32.589   0.831
17054W        W85527  40.534  20.140   4.820
17055W        W85528  14.640  30.146   3.644
17056W        W85529  34.377  32.454  13.968
17057W        W85530  18.732   9.387  13.875
17058W        W85531  18.737  11.159   2.776
17059W        W85532  39.022  19.224   0.434
17060W        W85533  20.680  24.183  10.890
17061W        W85534   2.872  36.988   1.391
17062W        W85535  32.524  23.722  14.432
17063W        W85536  11.207   4.228   1.834
17064W        W85537  16.209  15.311  11.937
17065W        W85538  35.894  10.293   0.252
17066W        W85539   8.403  11.186  11.004
17067W        W85540  43.392  34.120   1.359
17068W        W85541  15.639  12.280  12.570
17069W        W85542   4.379   1.929   2.885
17070W        W85543  23.619  32.073   2.678
17071W        W85544  36.371  16.139  13.062
17072W        W85545  31.607  22.727   2.895
17073W        W85546  10.661  12.783  13.481
17074W        W85547  41.977  28.149   4.344
17075W        W85548  14.710  16.659  11.941
17076W        W85549  27.030   9.296  10.943
17077W        W85550  22.194  36.500   2.256
17078W        W85551  17.650   9.208   2.321
17079W        W85552  10.338  17.088  11.041
17080W        W85553   3.370  43.325   0.366
17081W        W85554  22.556  17.675   4.312
17082W        W85555   8.879  32.593   1.421
17083W        W85556  19.625  30.553  14.318
17084W        W85557  32.029  13.700   1.296
17085W        W85558   6.277   3.926   0.908
17086W        W85559  10.183   8.217  14.395
17087W        W85560  31.022  39.024  11.420
17088W        W85561  31.408   4.357   0.466
17089W        W85562  18.720  23.628  10.644
17090W        W85563  31.640  14.264  14.004
17091W        W85564   8.727  33.042  14.323
17092W        W85565  34.955   6.216  13.381
17093W        W85566  36.841  22.578  10.994
17094W        W85567  39.409   3.327  13.033
17095W        W85568  29.438   6.800   2.753
17096W        W85569  21.051  30.959  14.028
17097W        W85570   2.375  27.495   3.781
17098W        W85571  33.894  11.288   2.279
17099W        W85572  12.279  37.494   4.323
17100W        W85573  39.033   5.287  11.396
17101W        W85574  27.449  17.306   0.309
17102W        W85575  25.502  25.155  13.812
17103W        W85576  35.442  36.447   3.322
17104W        W85577   5.713  23.135  10.961
17105W        W85578  31.565  40.810  10.000
17106W        W85579  41.935  38.913   1.705
17107W        W85580  17.246  18.116  11.974
17108W        W85581  35.083  15.190  10.623
17109W        W85582   6.778   4.867   3.767
17110W        W85583  16.725  14.190  11.392
17111W        W85584  21.703  14.210  13.039
17112W        W85585  20.730  37.959   1.858
17113W        W85586   5.242  31.944   4.661
17114W        W85587   0.913  31.033   0.442
17115W        W85588  43.390   5.881  14.807
17116W        W85589   6.324  24.612  13.472
17117W        W85590   4.372  33.919  14.816
17118W        W85591  31.537   5.749  12.987
17119W        W85592  31.108  13.152  11.479
17120W        W85593  14.632  39.359  14.778
17121W        W85594   1.947   0.924   2.308
17122W        W85595  10.852  12.356  10.908
17123W        W85596  14.762  38.488  13.440
17124W        W85597  37.518  13.622   1.442
17125W        W85598   6.832  19.745  11.563
17126W        W85599  22.198  12.775   5.213
17127W        W85600  30.594  19.773  11.955
17128W        W85601  20.233  34.452   4.719
17129W        W85602   5.409  28.168  10.047
17130W        W85603  30.588  17.577  11.871
17131W        W85604   3.283  21.150  14.376
17132W        W85605  15.610  44.894  11.115
17133W        W85606  34.510  38.551  14.482
17134W        W85607  33.599  33.947  11.088
17135W        W85608  18.730  43.498   4.782
17136W        W85609  29.568  31.437   2.182
17137W        W85610  27.559  36.410   1.256
17138W        W85611  13.733  30.036   3.231
17139W        W85612  24.165  42.914  14.954
17140W        W85613  10.797  21.670  11.564
17141W        W85614  32.483   6.797  14.837
17142W        W85615   5.847  19.114   1.426
17143W        W85616   8.816  23.043   9.567
17144W        W85617  32.443  23.668   1.381
17145W        W85618  37.531  10.634   0.843
17146W        W85619  42.363   1.769  13.344
17147W        W85620   8.205  40.046   2.717
17148W        W85621  15.775  20.030  12.013
17149W        W85622  43.927  12.772  13.037
17150W        W85623  13.112  13.195   3.801
17151W        W85624  10.798  36.517   4.782
17152W        W85625  39.458  28.969   2.853
17153W        W85626  38.884  20.104  10.128
17154W        W85627   2.879  14.246   1.758
17155W        W85628  17.745  14.829  12.880
17156W        W85629  37.015  22.629   2.883
17157W        W85630  12.247  39.039  14.973
17158W        W85631  29.162   1.266   2.322
17159W        W85632  11.802  39.428  13.839
17160W        W85633   7.767  40.320   0.894
17161W        W85634  28.513  28.994  13.907
17162W        W85635  31.934   0.413   0.796
17163W        W85636  27.149   3.287   3.721
17164W        W85637  16.650  42.857   2.684
17165W        W85638  16.622  36.350   2.855
17166W        W85639   2.464  42.860   5.223
17167W        W85640  36.081  10.151   2.874
17168W        W85641  19.746   5.382   4.267
17169W        W85642   8.261   6.200   2.831
17170W        W85643  33.124  20.034  13.879
17171W        W85644  43.969  14.215   1.395
17172W        W85645   7.180  14.276  14.963
17173W        W85646   6.358  32.931  11.052
17174W        W85647  11.366   2.936   0.297
17175W        W85648  26.015  43.892  12.432
17176W        W85649  22.503   4.229   1.393
17177W        W85650  11.253  11.819  14.344
17178W        W85651  31.570  25.482  11.963
17179W        W85652  21.666  11.825  11.535
17180W        W85653   9.822  19.706  12.027
17181W        W85654  40.338   3.423  10.088
17182W        W85655  27.658   7.268  11.393
17183W        W85656  14.809  37.445   3.293
17184W        W85657  27.579  11.746  12.377
17185W        W85658  23.129  31.455  12.952
17186W        W85659  23.036   8.385  14.817
17187W        W85660   6.901  38.557  13.940
17188W        W85661  25.064  42.026   4.726
17189W        W85662  16.146  22.583   1.414
17190W        W85663  23.179  11.294   1.224
17191W        W85664  23.668  20.633   0.268
17192W        W85665   7.906  39.982  10.460
17193W        W85666  43.834  22.506  12.031
17194W        W85667  40.379   7.811  11.545
17195W        W85668  32.143  11.734   3.232
17196W        W85669  10.638  20.155  11.915
17197W        W85670   0.786  13.308   0.766
17198W        W85671  33.964   4.911   4.725
17199W        W85672  25.500  19.154  11.420
17200W        W85673  36.451   4.240  12.354
17201W        W85674  35.023   0.481  13.466
17202W        W85675  17.164   0.902  13.438
17203W        W85676   0.866  27.475   0.457
17204W        W85677  11.321  19.546  11.555
17205W        W85678  44.938   8.871   5.191
17206W        W85679  11.260  42.811   2.872
17207W        W85680   6.293  37.044  10.499
17208W        W85681  37.063  31.405   2.254
17209W        W85682  23.132  28.953   4.731
17210W        W85683  13.284  41.910   1.730
17211W        W85684  13.263  33.920  13.962
17212W        W85685  28.520  37.564  11.082
17213W        W85686  14.716   7.399   4.298
17214W        W85687  19.114  12.729  12.541
17215W        W85688   0.351  18.712   1.699
17216W        W85689  19.069  16.177   0.785
17217W        W85690  18.277   2.346  14.386
17218W        W85691  31.455  11.300  11.937
17219W        W85692  16.641  44.472  12.457
17220W        W85693  29.492   7.771  13.864
17221W        W85694  26.204  29.972  12.418
17222W        W85695  39.403  36.849  11.521
17223W        W85696  37.058   7.337  14.326
17224W        W85697  36.403  32.620  14.942
17225W        W85698  18.788  15.782   3.218
17226W        W85699  22.723  33.601   3.261
17227W        W85700  29.990  30.432   0.372
17228W        W85701  41.507  25.677   3.797
17229W        W85702  12.226  33.018   3.736
17230W        W85703  22.636  38.531   2.374
17231W        W85704  34.558  31.930   2.361
17232W        W85705  37.512  41.422   4.206
17233W        W85706  31.914  32.486  14.295
17234W        W85707   0.342  23.641   4.297
17235W        W85708  34.470  17.082   4.286
17236W        W85709  43.414  10.261   3.644
17237W        W85710   0.770  26.040  11.882
17238W        W85711  17.714  28.045   3.663
17239W        W85712  20.142  40.873   0.267
17240W        W85713  37.019  37.352   2.413
17241W        W85714  33.488  34.391  12.837
17242W        W85715  44.934  38.331  13.392
17243W        W85716  17.122  38.399  12.047
17244W        W85717  15.132  44.842  14.895
17245W        W85718  15.814  42.527   2.723
17246W        W85719  21.078  24.147  12.002
17247W        W85720  11.163   8.678  12.413
17248W        W85721  16.291   7.764   4.310
17249W        W85722  19.057  37.356   1.252
17250W        W85723  30.140  25.585   3.638
17251W        W85724   8.294  25.196  14.903
17252W        W85725   7.351   8.842   2.376
17253W        W85726  28.498  23.724  12.992
17254W        W85727  19.670  31.510   0.481
17255W        W85728  10.201  14.169   0.810
17256W        W85729   2.783   0.757   1.755
17257W        W85730  40.537   8.873   3.662
17258W        W85731  30.144  12.848   3.709
17259W        W85732  36.852  39.457  11.013
17260W        W85733   3.900  10.346  13.915
17261W        W85734  29.620  44.269   2.758
17262W        W85735  19.586  35.995  13.799
17263W        W85736  29.964   4.357  10.460
17264W        W85737  19.661  10.235   4.658
17265W        W85738  18.171  15.633   0.758
17266W        W85739  40.836  30.972   2.729
17267W        W85740  35.531  35.527   3.233
17268W        W85741  42.295  18.152  14.938
17269W        W85742  33.107  44.314   4.761
17270W        W85743  42.965   8.401   0.860
17271W        W85744   7.703  42.419  11.403
17272W        W85745  30.495  21.038  14.420
17273W        W85746  42.483   3.775  12.489
17274W        W85747  39.057   4.730  12.480
17275W        W85748  43.347  25.113  13.327
17276W        W85749   5.400  15.238   0.420
17277W        W85750  17.227   1.303  12.559
17278W        W85751   9.256  44.376  12.546
17279W        W85752  27.018  16.188  11.553
17280W        W85753  25.144  37.924  14.870
17281W        W85754   8.883  38.497  10.985
17282W        W85755  20.120  25.646   0.286
17283W        W85756  33.517  39.026   3.788
17284W        W85757  17.611   0.428  10.504
17285W        W85758  28.436  33.962   4.175
17286W        W85759   1.251   0.248   1.381
17287W        W85760  44.498   3.903   0.467
17288W        W85761  10.779  28.451   4.296
17289W        W85762  14.294   9.756  10.457
17290W        W85763  14.273  42.358   3.772
17291W        W85764  40.345  18.124  12.362
17292W        W85765  32.047  41.801  10.555
17293W        W85766  15.164  38.981   2.799
17294W        W85767  42.460   7.824   4.318
17295W        W85768  23.582   4.387   0.253
17296W        W85769  37.371  40.389   2.270
17297W        W85770  33.392  40.309  11.890
17298W        W85771   7.173  17.649   0.933
17299W        W85772  11.743  36.543   2.259
17300W        W85773  39.833   9.803   1.304
17301W        W85774  28.525  41.886   1.422
17302W        W85775  17.680  11.719  14.962
17303W        W85776  40.815  28.567   0.831
17304W        W85777  30.024  34.602   0.809
17305W        W85778  27.147   8.692  11.410
17306W        W85779   3.766  30.017  14.768
17307W        W85780  19.627  41.414   2.880
17308W        W85781  13.116  32.447   2.786
17309W        W85782   0.425  12.774  12.488
17310W        W85783  28.481  16.277   4.791
17311W        W85784  14.614   1.945  12.381
17312W        W85785  15.264  31.421   3.818
17313W        W85786  41.346  14.100  13.941
17314W        W85787  39.387   5.250  13.808
17315W        W85788   8.307  32.065  10.587
17316W        W85789  12.816  25.099  14.376
17317W        W85790  37.349  38.413   3.717
17318W        W85791  28.551   5.338  12.865
17319W        W85792  20.151   1.825  10.474
17320W        W85793   6.742   6.794  12.500
17321W        W85794  33.451  22.995   1.245
17322W        W85795  30.039   3.367  11.096
17323W        W85796  28.613  25.190   3.800
17324W        W85797  25.679  29.567  13.919
17325W        W85798  11.638  13.241   3.378
17326W        W85799  24.094  19.160  11.517
17327W        W85800  31.530  44.468  14.950
17328W        W85801  24.546  37.422   0.324
17329W        W85802   3.259   7.356   2.229
17330W        W85803  42.805  28.579   4.784
17331W        W85804   7.344  14.321  13.540
17332W        W85805  11.319  37.461  11.060
17333W        W85806  36.019  21.190   2.734
17334W        W85807   4.869   5.787   1.935
17335W        W85808  27.446  25.704  12.454
17336W        W85809  38.971  31.411   3.710
17337W        W85810  33.943  44.480   4.607
17338W        W85811  16.670  38.441  14.953
17339W        W85812  12.618  21.070   0.374
17340W        W85813  23.010  17.767   1.272
17341W        W85814   5.226  16.128   3.191
17342W        W85815   6.270  24.061   1.720
17343W        W85816  43.807  34.039   0.243
17344W        W85817   0.874  15.696   4.788
17345W        W85818  26.481  23.621  10.888
17346W        W85819   0.325  21.606  11.542
17347W        W85820   9.759  39.002   1.862
17348W        W85821  28.963  24.573  14.321
17349W        W85822  20.264   1.461   3.146
17350W        W85823  16.116  44.821   3.282
17351W        W85824  41.446   9.326   1.403
17352W        W85825  38.433  19.657  14.916
17353W        W85826   5.414  12.332  13.435
17354W        W85827   4.880  35.526   4.641
17355W        W85828   8.726   4.924  11.860
17356W        W85829  13.276  13.269   1.342
17357W        W85830  32.902  21.116   4.260
17358W        W85831  20.677   3.906   1.774
17359W        W85832  27.506  38.879   0.781
17360W        W85833  36.872  38.476   4.164
17361W        W85834  15.806  34.968   1.903
17362W        W85835  11.700   4.821  14.410
17363W        W85836   4.216  31.067   3.809
17364W        W85837  17.208  34.468  11.534
17365W        W85838  27.642  39.424   1.308
17366W        W85839  21.725  19.157   1.414
17367W        W85840   3.890  27.953  14.998
17368W        W85841  16.234  18.287   3.212
17369W        W85842  40.359  38.331  13.347
17370W        W85843  16.203  29.139   0.864
17371W        W85844  10.159   2.338  11.920
17372W        W85845  27.618  21.047   3.318
17373W        W85846  20.532  43.790  10.469
17374W        W85847  21.691  14.631  10.404
17375W        W85848  14.658   6.198  13.048
17376W        W85849  26.173  23.046   1.782
17377W        W85850  41.835  43.454  10.580
17378W        W85851  22.173   7.678  14.998
17379W        W85852  12.356  20.083   2.242
17380W        W85853  16.623  24.044  13.482
17381W        W85854  24.498   9.656   2.218
17382W        W85855   0.291  11.674   1.922
17383W        W85856  23.630   6.193  11.930
17384W        W85857  37.066  40.872   2.791
17385W        W85858  22.196  36.014  13.006
17386W        W85859   8.248  40.906   2.663
17387W        W85860  20.595  28.088  11.546
17388W        W85861  39.899  42.513  14.800
17389W        W85862   4.771  16.756  14.864
17390W        W85863  43.485  40.528   2.813
17391W        W85864   9.701  11.854  14.030
17392W        W85865  41.478   9.188  13.851
17393W        W85866  43.297  29.517  14.980
17394W        W85867  12.194  21.722  10.912
17395W        W85868  19.062   9.775  13.797
17396W        W85869  25.030  36.346   0.857
17397W        W85870  41.386   4.226  10.449
17398W        W85871  11.713  14.310  13.840
17399W        W85872  31.947  37.938   0.348
17400W        W85873   1.868  16.147  13.923
17401W        W85874  15.132  25.157   2.227
17402W        W85875  30.427  16.699   1.391
17403W        W85876  27.578  43.017  14.834
17404W        W85877  37.847  22.522   0.831
17405W        W85878  33.622  26.480  14.486
17406W        W85879   4.699  30.444   0.379
17407W        W85880  26.555  41.006  14.949
17408W        W85881  43.003   3.944  14.972
17409W        W85882  44.390  30.021  13.026
17410W        W85883  37.930  41.294   0.851
17411W        W85884   8.237  26.512   3.329
17412W        W85885   4.234  21.212  13.414
17413W        W85886   8.697  36.426   9.460
17414W        W85887  30.578   3.722  11.868
17415W        W85888  33.578  33.929   4.120
17416W        W85889  25.134  22.589  14.838
17417W        W85890   2.267  21.058  12.397
17418W        W85891  28.487  26.555  13.324
17419W        W85892  39.058  25.122   4.780
17420W        W85893  37.843  14.157  12.557
17421W        W85894  35.963  26.490  14.873
17422W        W85895  32.635   6.362  14.863
17423W        W85896  21.724   8.318  12.881
17424W        W85897   0.260   1.467   2.876
17425W        W85898  20.220  20.174   0.739
17426W        W85899  27.082  22.099  11.127
17427W        W85900  36.413   4.449   0.371
17428W        W85901  37.416   3.248   2.803
17429W        W85902  41.014  34.111   3.692
17430W        W85903  25.699  42.993  10.127
17431W        W85904  15.325   0.395   2.803
17432W        W85905  43.839  10.661   0.905
17433W        W85906  18.672  39.537  11.379
17434W        W85907  44.404  37.472  11.024
17435W        W85908  30.555  38.919  10.895
17436W        W85909  29.964  36.496  11.391
17437W        W85910  27.553  28.451   4.193
17438W        W85911   8.294  11.736  14.804
17439W        W85912  34.905  37.836   4.622
17440W        W85913  11.654  42.922   5.302
17441W        W85914   3.313  18.773  14.403
17442W        W85915  19.188  34.049  14.367
17443W        W85916  33.123   4.426   0.824
17444W        W85917   1.369  26.966  13.004
17445W        W85918  38.968  14.227  12.985
17446W        W85919  16.772   9.849   1.269
17447W        W85920  35.498  30.476   1.874
17448W        W85921  41.799  28.977   4.655
17449W        W85922   6.398  11.627  14.400
17450W        W85923  32.403  12.346   0.420
17451W        W85924  17.577  37.042   1.719
17452W        W85925  33.095   5.201  14.456
17453W        W85926  28.038  22.546   3.190
17454W        W85927  20.060  38.837   0.443
17455W        W85928  19.158  24.533   0.731
17456W        W85929  22.197  13.626   0.456
17457W        W85930  44.864  21.590   0.259
17458W        W85931  19.546  41.013   1.828
17459W        W85932  25.095  30.472  13.024
17460W        W85933   3.717   1.482   1.796
17461W        W85934  35.997  41.376  11.952
17462W        W85935   5.315  15.733  13.434
17463W        W85936  25.197  24.013   3.861
17464W        W85937   3.296  14.656  10.940
17465W        W85938  42.977  10.689  10.423
17466W        W85939  15.727  36.084   1.230
17467W        W85940   8.838  17.247   1.231
17468W        W85941  25.468  44.463   4.276
17469W        W85942  11.690  16.146  10.616
17470W        W85943  10.778  12.138   1.323
17471W        W85944   2.386  12.136   0.270
17472W        W85945  37.385  42.899   3.644
17473W        W85946  28.661  43.286  13.502
17474W        W85947   9.844  32.534   0.735
17475W        W85948  13.632   6.296  12.934
17476W        W85949   8.747  11.801   4.349
17477W        W85950  25.571  19.204  13.338
17478W        W85951  22.745  15.113   2.320
17479W        W85952  22.101  41.471   0.467
17480W        W85953  24.023   2.416  12.983
17481W        W85954  14.231  29.007   3.186
17482W        W85955  34.057  16.665  13.520
17483W        W85956  27.538   5.810   1.422
17484W        W85957  29.578  27.994  12.089
17485W        W85958  29.979  44.909  14.433
17486W        W85959  28.597  17.600  10.949
17487W        W85960  25.128  15.742  13.548
17488W        W85961  11.798  37.028   3.837
17489W        W85962  35.902  18.234   3.227
17490W        W85963  18.072  35.060  11.969
17491W        W85964  13.767  44.932   3.859
17492W        W85965  44.883   3.751  11.415
17493W        W85966  33.918  42.506  13.849
17494W        W85967  29.039  10.351  11.554
17495W        W85968  24.222  20.255   0.726
17496W        W85969  40.899  44.324   1.855
17497W        W85970  13.838  17.132  14.849
17498W        W85971  27.960   1.856   4.605
17499W        W85972  17.263   6.684   1.833
17500W        W85973  17.152  12.770  10.079
17501W        W85974   5.252  14.166   3.240
17502W        W85975  20.533  16.171  13.920
17503W        W85976  39.429   6.681  11.398
17504W        W85977  36.429  22.508   1.858
17505W        W85978  24.694  34.868  14.408
17506W        W85979  13.720  41.794   0.465
17507W        W85980   0.743  38.846   2.726
17508W        W85981  16.144   3.457   4.626
17509W        W85982  22.581   7.669   4.710
17510W        W85983  40.492  10.324   2.287
17511W        W85984  43.934  34.485  13.880
17512W        W85985  25.211  43.494   4.315
17513W        W85986  30.104  34.611  14.935
17514W        W85987  42.451  27.990   4.609
17515W        W85988  27.142   1.450   5.675
17516W        W85989  37.532  18.170   1.905
17517W        W85990  44.793  32.568   3.370
17518W        W85991  28.172  12.124  13.488
17519W        W85992   4.900   4.852   4.707
17520W        W85993  23.644  24.993   3.287
17521W        W85994   6.753  10.253  11.943
17522W        W85995  41.330   0.780   0.307
17523W        W85996  33.438  44.781  14.946
17524W        W85997  41.299  39.010  14.455
17525W        W85998   9.350   3.316  11.462
17526W        W85999  37.532  30.538   0.336
17527W        W86000  32.543  35.417  13.473
17528W        W86001  43.783  27.989  11.600
17529W        W86002  11.312  41.882   2.811
17530W        W86003  25.700  19.754   0.818
17531W        W86004   5.342  11.716  14.847
17532W        W86005  18.059  40.440   2.721
17533W        W86006  36.467  32.938   1.923
17534W        W86007  23.008  28.041   9.468
17535W        W86008   9.368  24.503  14.978
17536W        W86009  21.658  10.166   3.324
17537W        W86010  30.090  37.433  13.505
17538W        W86011   3.428   9.730  11.102
17539W        W86012  36.390  25.114  12.472
17540W        W86013   7.251   1.363  14.438
17541W        W86014  27.138  21.597   4.339
17542W        W86015   5.413  38.416  11.505
17543W        W86016  18.575   9.872  11.081
17544W        W86017   9.363  20.074  11.012
17545W        W86018   8.805  12.154   1.431
17546W        W86019  30.920  30.413  12.465
17547W        W86020  35.391  16.161  11.581
17548W        W86021  30.141  23.025   3.695
17549W        W86022   1.739   2.790   1.297
17550W        W86023  26.553  14.672   2.279
17551W        W86024  18.246  14.698   2.183
17552W        W86025  44.262  10.703   0.863
17553W        W86026  24.724  41.815   2.815
17554W        W86027  31.122  10.845  13.547
17555W        W86028  19.193  35.498  13.855
17556W        W86029  14.275   8.168  11.115
17557W        W86030   7.815  30.549  14.820
17558W        W86031   4.724  30.429  14.967
17559W        W86032  16.246  43.321  13.790
17560W        W86033  35.013  37.536   0.931
17561W        W86034  22.712  23.054   3.836
17562W        W86035  25.194  20.636  14.931
17563W        W86036  11.707  15.616   4.834
17564W        W86037  38.969  17.210   3.706
17565W        W86038  36.975  25.505  14.819
17566W        W86039   2.333  21.672   2.883
17567W        W86040  33.071  31.987   3.804
17568W        W86041  33.129  40.411  12.465
17569W        W86042  18.138  22.125   3.799
17570W        W86043  39.966  27.983   2.362
17571W        W86044   8.367  40.520  14.293
17572W        W86045  15.097  31.947  10.408
17573W        W86046  37.467  28.986  12.836
17574W        W86047  22.683  40.948  14.991
17575W        W86048   3.791  26.578  14.874
17576W        W86049  16.613  20.061  14.916
17577W        W86050   0.792  22.549  12.360
17578W        W86051  33.987  42.929  12.416
17579W        W86052   7.825  17.147  11.507
17580W        W86053  18.568  20.530   4.303
17581W        W86054  41.476  32.942  10.497
17582W        W86055  38.479  23.053   4.699
17583W        W86056  20.127   8.359  14.841
17584W        W86057  41.355  34.501  11.053
17585W        W86058  28.661  23.734   1.696
17586W        W86059  27.178  30.590   3.359
17587W        W86060   7.859   3.406  11.120
17588W        W86061  27.539  33.558  12.868
17589W        W86062  25.994  13.110  13.900
17590W        W86063  42.337   1.754   3.273
17591W        W86064   8.183   7.761   3.843
17592W        W86065  27.142   5.812  13.996
17593W        W86066  14.761  43.010  12.887
17594W        W86067  30.557  30.483   2.888
17595W        W86068  20.538  22.038  11.512
17596W        W86069   8.338  38.925  11.937
17597W        W86070  22.170  25.213  13.866
17598W        W86071  13.768  12.178  11.923
17599W        W86072   4.887   3.777  14.805
17600W        W86073  26.609  34.408   4.793
17601W        W86074   3.276   7.334   1.858
17602W        W86075   9.645  19.754  12.963
17603W        W86076  38.951   4.867   0.431
17604W        W86077  20.065  39.489   0.320
17605W        W86078  19.752  13.236   4.213
17606W        W86079  43.275  40.843   1.810
17607W        W86080  40.898  34.034   3.157
17608W        W86081  13.796  40.960  11.102
17609W        W86082   5.711  19.775   1.911
17610W        W86083  25.581  25.665  11.980
17611W        W86084   6.420  26.488  13.407
17612W        W86085  25.005  12.685  13.322
17613W        W86086  12.843  14.282   1.766
17614W        W86087  34.476   9.849   1.352
17615W        W86088  19.040  44.923   0.874
17616W        W86089  18.291   1.936  12.058
17617W        W86090  26.464   1.239   9.581
17618W        W86091  22.045   5.838   4.806
17619W        W86092  30.119   0.257   1.278
17620W        W86093   5.396  23.653  13.960
17621W        W86094  13.183  43.466  12.359
17622W        W86095  21.697  17.167   2.769
17623W        W86096  42.297  26.653   1.328
17624W        W86097  40.921  23.097   4.832
17625W        W86098   1.825  41.883   5.177
17626W        W86099  18.244   1.841  14.926
17627W        W86100   1.963  17.751  12.579
17628W        W86101  20.186  21.564   1.425
17629W        W86102  16.276  29.525  13.815
17630W        W86103  37.013  11.665  11.548
17631W        W86104  14.120  27.943  12.947
17632W        W86105  23.051  36.366   0.335
17633W        W86106  39.997  32.439   0.943
17634W        W86107  31.545   8.799  12.084
17635W        W86108  20.063   5.354  14.496
17636W        W86109  41.918  13.762  10.633
17637W        W86110  36.099  14.303  14.999
17638W        W86111  20.267   0.983  14.371
17639W        W86112  28.079  23.534   3.280
17640W        W86113   5.696   6.399  14.402
17641W        W86114  32.431  18.613  12.021
17642W        W86115   4.816   5.692  14.806
17643W        W86116  32.107  15.274   1.287
17644W        W86117  27.015  43.840  12.091
17645W        W86118  14.146  27.136   3.183
17646W        W86119  19.749   6.253   3.742
17647W        W86120  21.259   2.291   0.967
17648W        W86121  41.014   6.301   0.894
17649W        W86122  39.858   8.185  10.951
17650W        W86123  34.581  35.577  14.986
17651W        W86124  42.384  29.595   4.247
17652W        W86125  26.547  26.597   3.741
17653W        W86126  16.253   8.897  10.507
17654W        W86127  33.415  43.478   3.790
17655W        W86128   0.379  26.619  10.987
17656W        W86129  41.807  25.990  13.800
17657W        W86130  27.053   2.462  12.954
17658W        W86131  37.561  10.150   3.233
17659W        W86132  19.274  22.085  14.925
17660W        W86133  34.447   4.365  11.908
17661W        W86134   8.285   4.265  12.921
17662W        W86135  33.495   4.884  14.923
17663W        W86136  23.718  14.172  12.043
17664W        W86137  41.436  44.763  10.939
17665W        W86138  15.627  27.543  13.935
17666W        W86139  18.056   2.849  12.935
17667W        W86140  17.306   2.233   1.250
17668W        W86141  31.464  37.015  10.546
17669W        W86142  39.350  12.712  12.544
17670W        W86143  24.725   0.836  14.868
17671W        W86144  13.263  35.450  13.911
17672W        W86145  20.269   7.851  12.055
17673W        W86146   6.344  38.362   4.828
17674W        W86147  25.974  32.511  13.794
17675W        W86148   3.290   1.912  11.940
17676W        W86149  42.431  32.600   0.845
17677W        W86150  20.704  39.365  13.333
17678W        W86151  24.590  34.038  12.987
17679W        W86152  18.270  31.068   3.725
17680W        W86153  23.038   4.785  12.022
17681W        W86154  17.607  20.181  11.515
17682W        W86155  18.235  29.489  11.100
17683W        W86156  25.504  23.120   3.681
17684W        W86157  13.600  15.638   0.727
17685W        W86158  20.718  43.004   3.797
17686W        W86159  28.558   9.817   0.861
17687W        W86160   5.912  16.683   1.867
17688W        W86161  39.945  27.102  13.319
17689W        W86162  35.874  18.579  12.088
17690W        W86163  22.538  44.430   2.233
17691W        W86164  35.421  40.819   3.219
17692W        W86165  19.111  44.500  11.051
17693W        W86166  13.327  26.494  13.331
17694W        W86167  24.189   6.314   4.224
17695W        W86168  42.285   8.256   4.333
17696W        W86169  15.821  19.081   0.475
17697W        W86170   7.911  27.072   3.369
17698W        W86171   8.370  28.183   4.276
17699W        W86172  32.481  20.273   0.938
17700W        W86173  22.227   9.882   3.272
17701W        W86174  29.096   2.329  13.500
17702W        W86175  26.059  17.603   1.296
17703W        W86176  36.063   5.430  11.476
17704W        W86177  28.524  38.397  13.546
17705W        W86178  44.330  27.143  13.454
17706W        W86179  18.237  17.621   3.270
17707W        W86180  42.487  16.610   1.372
17708W        W86181  20.611  16.100  11.984
17709W        W86182   4.821  35.520  11.403
17710W        W86183  26.137  29.642  13.042
17711W        W86184  43.856   2.841   2.222
17712W        W86185   2.315  43.355   1.310
17713W        W86186  34.973  12.856   1.443
17714W        W86187  44.900   2.764  13.461
17715W        W86188  14.738  33.571   2.245
17716W        W86189   4.323  30.513   4.296
17717W        W86190  19.270   0.982  13.835
17718W        W86191  16.254   6.715  13.506
17719W        W86192  43.487   9.229  13.039
17720W        W86193  18.556   0.288   2.845
17721W        W86194   8.186   9.299  11.551
17722W        W86195  34.916  14.598  12.386
17723W        W86196  20.094  14.728  14.801
17724W        W86197  26.151  13.624   3.696
17725W        W86198   8.374   7.874  12.370
17726W        W86199  16.153  37.885   4.791
17727W        W86200  18.113   5.381   1.221
17728W        W86201  43.831  22.209   2.681
17729W        W86202   0.371  35.074   4.689
17730W        W86203  13.262  20.716   1.325
17731W        W86204   7.878  40.856  11.943
17732W        W86205   1.272   1.240   3.186
17733W        W86206  18.116  17.794   0.752
17734W        W86207  28.035  39.482   3.765
17735W        W86208  35.493  32.124  10.458
17736W        W86209  38.568  18.227  10.410
17737W        W86210  40.526  22.501   1.915
17738W        W86211   7.417  26.630   3.676
17739W        W86212  24.117  39.405   0.264
17740W        W86213  23.557  22.043  12.573
17741W        W86214  13.807  43.860   2.401
17742W        W86215  24.108  36.572  12.458
17743W        W86216   0.296  14.135   0.966
17744W        W86217  17.654  43.781   3.648
17745W        W86218  35.936  23.241   1.418
17746W        W86219  22.007  24.633   5.750
17747W        W86220  35.077   6.765   3.345
17748W        W86221  17.271  24.015   1.766
17749W        W86222  40.821   2.804   0.285
17750W        W86223   3.716  13.282  12.577
17751W        W86224  29.592  29.003   4.755
17752W        W86225  44.766   0.314   2.375
17753W        W86226   1.408  22.045   0.394
17754W        W86227  43.996  37.958   2.882
17755W        W86228  14.649  18.575   4.631
17756W        W86229   8.883   5.334   4.125
17757W        W86230  10.180  21.121  11.479
17758W        W86231   7.213  13.752  13.049
17759W        W86232  21.692  25.031   3.677
17760W        W86233  37.952   5.933   0.848
17761W        W86234  30.088  10.767  10.982
17762W        W86235  36.404  14.130   1.284
17763W        W86236  15.278  15.092  11.922
17764W        W86237  26.685  35.484  14.507
17765W        W86238  32.596  21.694  12.505
17766W        W86239  38.855   3.869  11.599
17767W        W86240  13.173   6.195  11.394
17768W        W86241   1.429   1.271   4.625
17769W        W86242  18.110  10.372   3.739
17770W        W86243  38.032  19.551   2.359
17771W        W86244  37.500  32.081   0.922
17772W        W86245  22.200  26.482   5.315
17773W        W86246  17.221  25.510   2.706
17774W        W86247  18.791  40.027  11.459
17775W        W86248  25.974  12.156   2.748
17776W        W86249  37.999  20.141   0.404
17777W        W86250  21.619   9.246   3.150
17778W        W86251   5.334  28.539   0.869
17779W        W86252  29.148  44.412   4.320
17780W        W86253  34.373  24.529   3.278
17781W        W86254  17.263  11.841   4.326
17782W        W86255  23.205  25.474   4.691
17783W        W86256   6.321  18.160   3.676
17784W        W86257   0.818  33.427   1.754
17785W        W86258   7.235   8.715  13.818
17786W        W86259  35.088  15.248   1.884
17787W        W86260  19.769  16.282  11.873
17788W        W86261  42.282  17.248   1.422
17789W        W86262  34.524  35.999  12.514
17790W        W86263  30.619  30.489   0.406
17791W        W86264  27.008  34.873   2.855
17792W        W86265  36.435  10.208   0.434
17793W        W86266  29.064  28.964  11.931
17794W        W86267  10.259  25.166  13.971
17795W        W86268  20.048  44.879   4.227
17796W        W86269   1.295  17.282  13.992
17797W        W86270  43.504   9.162   2.354
17798W        W86271  42.463  42.784   3.711
17799W        W86272  14.185  39.948   9.943
17800W        W86273  14.227  41.424  11.956
17801W        W86274  36.587  32.047  14.314
17802W        W86275   9.333  25.554  10.482
17803W        W86276  21.739   9.703   4.712
17804W        W86277  13.717   7.397   1.696
17805W        W86278  26.134   5.696   4.761
17806W        W86279  20.539  12.141   3.650
17807W        W86280  13.687  31.415   4.833
17808W        W86281  39.542   3.255  13.987
17809W        W86282  18.283  38.471   3.726
17810W        W86283  21.020  35.476  12.867
17811W        W86284  18.721   5.933  14.310
17812W        W86285  32.461  18.733   4.809
17813W        W86286  44.417  39.345  14.360
17814W        W86287  22.233  41.933   0.391
17815W        W86288  44.872  30.921   2.778
17816W        W86289  21.229  10.260  14.935
17817W        W86290  23.012  13.807   4.699
17818W        W86291  25.990  13.693   1.831
17819W        W86292  19.110   4.729  13.838
17820W        W86293  29.455  30.601  10.133
17821W        W86294  37.573  42.813   1.913
17822W        W86295  10.785  34.095   2.332
17823W        W86296  35.537  33.020   2.391
17824W        W86297  40.432  26.123   2.744
17825W        W86298  32.924  38.029   0.762
17826W        W86299  29.131  17.795  11.934
17827W        W86300  34.017   5.413  13.810
17828W        W86301   2.860  10.700  10.930
17829W        W86302  31.426  42.023   9.606
17830W        W86303  41.800  15.619  12.967
17831W        W86304  44.476  13.122   5.090
17832W        W86305  17.613  39.872   9.656
17833W        W86306  38.400  16.208  14.761
17834W        W86307  42.375  18.774  14.344
17835W        W86308  23.155  26.581  14.011
17836W        W86309  19.252   2.857   1.447
17837W        W86310  27.991   6.879  11.498
17838W        W86311  16.633  30.531   4.147
17839W        W86312  19.074   8.831   2.346
17840W        W86313   5.778  11.765  12.924
17841W        W86314   3.850  33.384  13.922
17842W        W86315  37.928  40.852   1.348
17843W        W86316  19.743  34.095  12.934
17844W        W86317   6.833   2.846  12.065
17845W        W86318  24.721  16.772  11.934
17846W        W86319   3.920  39.362  12.561
17847W        W86320  14.692  18.245  12.960
17848W        W86321  19.107  11.667  13.335
17849W        W86322   3.378  17.776  10.479
17850W        W86323  30.419  17.785  14.830
17851W        W86324  43.981  43.489  11.007
17852W        W86325  27.002  43.768  14.488
17853W        W86326  20.758  27.986   5.241
17854W        W86327   3.381   3.910   0.275
17855W        W86328  12.825  44.282  14.489
17856W        W86329  41.958   2.837  14.496
17857W        W86330  13.189  30.538   0.462
17858W        W86331  22.239  39.464   4.333
17859W        W86332  28.000  36.466  13.443
17860W        W86333  24.020  21.531   2.248
17861W        W86334  42.487   9.770  12.481
17862W        W86335  34.090  43.789   9.536
17863W        W86336  28.530  21.040   2.675
17864W        W86337  41.480  27.586   3.631
17865W        W86338  28.503   6.803  12.527
17866W        W86339   7.678   3.230   3.224
17867W        W86340  25.980  36.845  11.985
17868W        W86341  43.994   4.730  10.037
17869W        W86342  25.643  15.312  14.496
17870W        W86343  14.723   9.350   0.409
17871W        W86344  38.061  14.755   1.375
17872W        W86345  43.000   4.706   9.971
17873W        W86346  42.376   0.948   2.237
17874W        W86347   3.342  37.578   4.684
17875W        W86348  19.739  21.514  13.061
17876W        W86349  32.026   8.760  12.404
17877W        W86350  40.303  17.134   1.818
17878W        W86351  28.511  40.491   1.438
17879W        W86352  29.425  18.690  13.869
17880W        W86353   0.477   8.172  10.470
17881W        W86354  35.042  12.689  11.522
17882W        W86355  14.688  36.859  10.526
17883W        W86356  18.111  18.734   3.228
17884W        W86357   5.216   9.253   1.316
17885W        W86358  26.668   2.330  14.298
17886W        W86359  39.372  44.912   4.123
17887W        W86360  11.354   1.366   4.731
17888W        W86361  30.548  39.979  11.449
17889W        W86362   0.939  30.547   1.332
17890W        W86363  18.782  27.499   2.706
17891W        W86364  42.017  41.349   9.988
17892W        W86365   5.227  10.294  13.312
17893W        W86366  33.521  32.938  12.452
17894W        W86367  22.251  36.097  11.439
17895W        W86368  28.100  13.829   2.834
17896W        W86369  32.068  36.456  10.563
17897W        W86370   9.374   8.751   0.816
17898W        W86371  12.638   0.409  11.515
17899W        W86372  33.064   4.380   4.625
17900W        W86373  18.594  11.264  11.924
17901W        W86374  32.137  29.549  14.942
17902W        W86375   4.415   1.897  12.439
17903W        W86376  38.944  10.850   3.661
17904W        W86377  30.484  22.709  12.912
17905W        W86378  23.541  21.128   2.778
17906W        W86379   4.337   1.813   3.672
17907W        W86380  37.879  14.601   4.204
17908W        W86381   0.269   2.808   4.797
17909W        W86382  44.931  12.133  12.871
17910W        W86383  13.263  35.466   1.381
17911W        W86384  42.842  24.103  14.461
17912W        W86385  40.044  30.061   2.810
17913W        W86386  10.696   4.897   4.141
17914W        W86387  14.726   1.277  13.000
17915W        W86388  16.631  23.017   0.371
17916W        W86389  22.077  10.369  12.527
17917W        W86390  33.508  39.385   3.860
17918W        W86391   0.489  26.962  14.845
17919W        W86392  13.701  23.557   4.209
17920W        W86393  17.143  39.949  10.021
17921W        W86394   5.390  29.071   2.396
17922W        W86395  44.005  22.620  11.372
17923W        W86396  22.181  24.991  14.299
17924W        W86397  12.152  28.592   1.225
17925W        W86398   8.882  36.410   5.145
17926W        W86399   2.869  35.578  10.931
17927W        W86400   9.274  26.051   5.098
17928W        W86401  38.962  40.915  12.879
17929W        W86402   0.481  32.437   1.736
17930W        W86403  34.877  20.641   2.408
17931W        W86404  27.572   7.712  11.555
17932W        W86405  17.070  23.735   0.415
17933W        W86406   3.388   3.717  14.495
17934W        W86407  41.304  36.449   2.234
17935W        W86408  43.825  25.514  14.917
17936W        W86409  13.667  44.964  13.353
17937W        W86410  32.539   7.666   3.718
17938W        W86411  35.379  17.801   2.745
17939W        W86412  34.601  43.806   2.710
17940W        W86413  41.484  20.621   2.347
17941W        W86414  44.304  19.143  12.396
17942W        W86415  21.205  39.828   4.229
17943W        W86416   5.277  43.438  13.832
17944W        W86417  41.353  41.480  14.997
17945W        W86418   2.850  17.732  11.549
17946W        W86419  15.144  18.654   1.309
17947W        W86420   8.855  29.040  14.979
17948W        W86421  42.784  34.053   0.747
17949W        W86422  10.245  18.557  11.125
17950W        W86423   1.263   5.334   3.357
17951W        W86424  32.980  34.411   1.218
17952W        W86425  43.422  44.361  13.470
17953W        W86426  26.662  36.068   3.766
17954W        W86427  35.021  18.063  13.052
17955W        W86428  41.432  13.165  11.428
17956W        W86429  40.470  31.439   4.215
17957W        W86430  32.117  24.060  11.889
17958W        W86431  32.502  42.410  14.988
17959W        W86432  34.002   9.373  12.508
17960W        W86433   2.724   5.238  12.062
17961W        W86434   2.388   0.292  10.047
17962W        W86435  19.581  38.370  13.055
17963W        W86436   7.327  44.323  11.376
17964W        W86437  42.849  32.608  11.982
17965W        W86438  42.510   6.293   4.658
17966W        W86439  42.844  11.213  12.391
17967W        W86440  43.386  35.418  10.551
17968W        W86441  29.960  37.038   2.803
17969W        W86442  13.642  40.803  14.824
17970W        W86443  29.002  15.168  12.468
17971W        W86444  11.343  30.650  14.344
17972W        W86445  23.595   5.799  13.535
17973W        W86446  12.167  32.049   0.282
17974W        W86447  15.747  44.931  11.860
17975W        W86448   1.456   1.973  14.868
17976W        W86449   2.317  31.973   1.341
17977W        W86450  12.769  36.086   0.848
17978W        W86451  25.122  38.931   1.875
17979W        W86452  31.421  15.200  11.935
17980W        W86453   7.733  19.538  10.100
17981W        W86454   0.986   9.646   0.372
17982W        W86455   7.686  21.754   2.810
17983W        W86456  41.446  42.318  14.399
17984W        W86457  38.960  15.644   1.360
17985W        W86458  16.272  23.006   2.383
17986W        W86459  19.560  16.168  11.590
17987W        W86460  33.875  41.924  12.976
17988W        W86461  23.169  15.091   3.649
17989W        W86462  34.396  27.108   0.431
17990W        W86463   5.433   9.354  14.825
17991W        W86464  15.131  39.855   3.707
17992W        W86465  27.678  26.114   3.303
17993W        W86466  11.863  33.411  12.979
17994W        W86467  19.177  44.488  14.447
17995W        W86468  44.356  31.126   4.279
17996W        W86469  20.641   2.965  12.872
17997W        W86470   9.700   9.704  13.513
17998W        W86471   0.915  16.133   0.344
17999W        W86472  44.408  11.675  13.873
18000W        W86473   5.883  28.037   0.782
18001W        W86474  20.028   4.876  14.451
18002W        W86475  26.067   9.175   0.829
18003W        W86476  31.468  12.850   4.766
18004W        W86477  11.248  43.974  12.049
18005W        W86478   6.263  31.559   4.185
18006W        W86479  11.170  44.469   4.668
18007W        W86480  42.851  26.456   5.257
18008W        W86481  29.437  27.186  12.414
18009W        W86482  10.874  22.152  14.355
18010W        W86483   1.241  34.885  14.393
18011W        W86484  13.773  32.637   2.694
18012W        W86485   0.868  14.135  12.398
18013W        W86486  20.150   6.330  14.787
18014W        W86487   0.985  44.270   3.766
18015W        W86488  44.841  15.799  11.909
18016W        W86489   8.360  19.075   4.156
18017W        W86490   6.785  21.515   3.750
18018W        W86491  18.613  44.420   3.288
18019W        W86492  14.142  39.550   5.156
18020W        W86493  20.644  12.674  12.038
18021W        W86494   9.836  39.422   1.839
18022W        W86495  22.011  11.139  14.888
18023W        W86496  14.613   7.711   3.220
18024W        W86497  17.560  37.990   1.694
18025W        W86498   5.240  16.581   4.167
18026W        W86499  41.493  30.487  11.417
18027W        W86500  29.056  41.372   1.729
18028W        W86501  10.813  27.453   0.820
18029W        W86502   0.261  32.082   5.107
18030W        W86503  22.695   0.961  12.911
18031W        W86504  28.015  44.436   2.898
18032W        W86505  37.568  13.811  10.903
18033W        W86506  11.822  33.480  11.521
18034W        W86507  16.077   4.409  14.021
18035W        W86508  34.600  44.940  12.392
18036W        W86509  10.205  39.042   5.250
18037W        W86510  12.821  16.746  14.427
18038W        W86511  30.975  31.073   3.660
18039W        W86512  19.553  29.497   4.682
18040W        W86513  34.009   5.253  14.939
18041W        W86514  38.391  29.456   2.383
18042W        W86515  32.410   1.415  13.002
18043W        W86516   1.813  39.944   3.667
18044W        W86517  44.987  33.397   3.226
18045W        W86518  40.019   1.939   0.435
18046W        W86519  20.633  35.484   1.421
18047W        W86520  28.059  22.531   2.862
18048W        W86521  32.000  30.443  10.484
18049W        W86522   1.316  37.928  13.026
18050W        W86523  23.118  38.464  14.316
18051W        W86524   7.802  19.181   2.344
18052W        W86525  41.824  44.322   1.237
18053W        W86526  37.997  43.876  14.408
18054W        W86527  12.318  11.763   0.425
18055W        W86528  27.495  31.506   4.641
18056W        W86529  13.309  25.209  11.915
18057W        W86530  15.193  44.337   2.699
18058W        W86531   1.261  40.815  11.980
18059W        W86532  26.958  35.428   0.394
18060W        W86533  35.569  32.119   4.797
18061W        W86534  41.312  32.006  10.939
18062W        W86535  27.556  20.599  11.501
18063W        W86536  10.649  42.993  13.319
18064W        W86537  27.463  31.977   2.399
18065W        W86538  28.504  27.099  14.870
18066W        W86539  27.661   0.781   2.283
18067W        W86540   5.420  12.648   9.943
18068W        W86541  41.829   0.823  11.404
18069W        W86542  28.934  24.696  12.051
18070W        W86543   6.718  10.845  12.360
18071W        W86544  13.845  21.635   2.734
18072W        W86545  36.433  44.354  14.895
18073W        W86546   2.304  12.249  10.513
18074W        W86547  24.177  29.557   3.286
18075W        W86548  13.757   5.800   0.281
18076W        W86549  19.263  29.950   3.761
18077W        W86550  31.408  31.059   2.662
18078W        W86551  16.260  30.938  14.850
18079W        W86552  37.893   6.781   3.364
18080W        W86553   4.322   7.818   2.669
18081W        W86554  40.834  19.254   4.769
18082W        W86555  22.182   8.742  13.797
18083W        W86556  17.107  19.652   2.727
18084W        W86557  16.294  32.926   4.631
18085W        W86558  40.394  32.578  11.878
18086W        W86559  37.879  26.047   3.171
18087W        W86560  20.627  25.134   1.794
18088W        W86561  32.029  21.752  13.805
18089W        W86562  21.241  22.692  10.598
18090W        W86563  30.157  24.643  13.463
18091W        W86564   7.847   7.175  10.016
18092W        W86565  16.708  37.436   2.395
18093W        W86566  41.459  27.196   1.910
18094W        W86567   1.367   6.827  13.044
18095W        W86568   2.271   8.862  12.002
18096W        W86569  23.522  11.133  13.806
18097W        W86570   0.457  42.376  10.467
18098W        W86571  32.567  15.294  14.514
18099W        W86572  19.757  22.558   2.195
18100W        W86573  17.707  31.571  13.958
18101W        W86574  34.908  22.575   2.227
18102W        W86575  15.105  40.009   4.128
18103W        W86576  36.351  19.778  11.036
18104W        W86577  11.143  40.027  10.571
18105W        W86578  29.028  26.965   0.274
18106W        W86579  33.105   5.914  14.411
18107W        W86580  13.208  22.616  14.947
18108W        W86581  44.803  26.548   3.362
18109W        W86582  36.947  26.125  13.422
18110W        W86583  31.915  26.539   2.749
18111W        W86584  19.576  30.147   2.790
18112W        W86585  25.677   0.393   0.440
18113W        W86586  43.314  43.486   3.778
18114W        W86587  26.561   5.765  14.476
18115W        W86588   2.444  18.050  14.815
18116W        W86589  19.642   7.807   4.639
18117W        W86590  12.836  12.857   1.766
18118W        W86591   3.399   8.750  14.361
18119W        W86592  26.025  15.696   0.377
18120W        W86593  44.786   6.234  12.846
18121W        W86594  44.903   9.737   2.863
18122W        W86595  11.839  11.336  14.880
18123W        W86596  22.661  32.556  11.396
18124W        W86597  23.013  13.655  14.780
18125W        W86598  10.738  38.073  11.474
18126W        W86599  39.362  32.601  11.542
18127W        W86600  37.420  12.700  14.363
18128W        W86601  38.397  30.580  11.989
18129W        W86602  18.612   2.806  10.502
18130W        W86603  19.776   1.958   3.840
18131W        W86604  15.626  17.628   1.726
18132W        W86605  41.493   3.439   0.434
18133W        W86606  31.502  28.667  13.386
18134W        W86607  30.923   2.860   3.321
18135W        W86608  28.437  10.217   3.790
18136W        W86609   1.879  39.996  10.507
18137W        W86610   7.742  30.475  10.087
18138W        W86611   4.734  22.745   1.786
18139W        W86612  14.633  27.097  13.843
18140W        W86613  12.332  21.024  12.461
18141W        W86614  14.674  39.000  13.337
18142W        W86615  37.396  31.122   2.789
18143W        W86616  17.562  15.150   2.822
18144W        W86617  19.659  42.377  14.014
18145W        W86618   3.737  39.033   2.689
18146W        W86619  43.786  40.039   1.774
18147W        W86620  29.482  10.320  12.979
18148W        W86621  44.443  36.926  10.572
18149W        W86622  26.500  27.470  12.454
18150W        W86623  28.145  13.121  12.940
18151W        W86624  20.094  16.677  13.832
18152W        W86625  30.608  42.928  10.471
18153W        W86626  42.993  13.629  14.822
18154W        W86627  30.602  20.737   1.797
18155W        W86628  24.062   1.831  14.314
18156W        W86629  26.515  13.264  14.806
18157W        W86630  15.322  29.520  12.539
18158W        W86631  31.985  15.615  14.301
18159W        W86632  23.066  13.125  11.128
18160W        W86633  26.590  41.415   1.404
18161W        W86634  25.116  26.534  14.489
18162W        W86635  19.258  27.690   1.702
18163W        W86636  19.579  36.515  11.908
18164W        W86637  18.704   7.214  12.954
18165W        W86638   6.886  23.735  11.491
18166W        W86639   9.168   3.317   4.285
18167W        W86640  39.836  22.080   4.805
18168W        W86641  24.509  40.383  12.518
18169W        W86642  34.537  23.629  14.352
18170W        W86643   0.468  17.113   3.697
18171W        W86644  30.035  15.679  11.503
18172W        W86645  36.939  44.863  10.503
18173W        W86646  24.014  33.474  11.963
18174W        W86647   1.963  30.130  14.026
18175W        W86648   6.380  42.456   2.384
18176W        W86649  18.548  28.456   0.447
18177W        W86650  29.530  36.457  14.476
18178W        W86651   1.929   7.799   2.698
18179W        W86652  14.293  40.376   5.265
18180W        W86653   5.224  21.609  12.911
18181W        W86654  17.229  28.066  11.448
18182W        W86655  41.426  28.164   5.156
18183W        W86656  14.176  16.749   0.891
18184W        W86657  14.275   3.912   1.865
18185W        W86658  30.610   4.234  13.998
18186W        W86659  28.610  19.162   0.895
18187W        W86660   8.775  15.104   1.844
18188W        W86661   6.863  30.539   3.869
18189W        W86662  42.387  22.086   2.688
18190W        W86663  14.154  37.922  12.850
18191W        W86664  19.590  18.089  14.497
18192W        W86665   8.264   6.202  11.602
18193W        W86666  36.554  30.047   1.239
18194W        W86667  22.732  24.093   1.806
18195W        W86668  42.390   6.792   3.808
18196W        W86669  44.420   8.859   0.936
18197W        W86670  14.602  23.028   2.360
18198W        W86671  41.898  25.531  11.911
18199W        W86672  14.157  23.231   1.325
18200W        W86673  41.859  24.175  12.435
18201W        W86674  11.828   0.780   1.831
18202W        W86675  42.333  28.048  12.968
18203W        W86676  17.556  29.625  10.412
18204W        W86677   8.352  20.714   2.748
18205W        W86678  44.879  10.754   1.223
18206W        W86679  22.584  13.306  13.354
18207W        W86680  31.478  32.553   2.359
18208W        W86681  30.046  32.515   3.652
18209W        W86682  39.465  10.717   3.184
18210W        W86683  30.427   1.759   2.860
18211W        W86684   4.392  19.767  11.483
18212W        W86685   4.767  28.067  14.276
18213W        W86686  17.668   1.920   0.443
18214W        W86687  34.550  22.678   1.338
18215W        W86688   8.187  12.123  11.008
18216W        W86689  42.401   0.472  14.990
18217W        W86690   6.223   4.385  10.484
18218W        W86691  14.195  26.049  14.394
18219W        W86692  43.777  19.104  10.610
18220W        W86693  31.615  11.776   3.822
18221W        W86694  29.451   0.771   3.312
18222W        W86695   2.439   4.431   0.803
18223W        W86696  38.359  26.137  13.957
18224W        W86697  34.939  20.628  14.508
18225W        W86698  30.161   3.915  14.843
18226W        W86699  17.227   0.886   3.192
18227W        W86700  33.925  25.033   2.846
18228W        W86701  42.900  30.948  12.478
18229W        W86702   9.776  30.046   2.720
18230W        W86703  35.902  44.456   1.318
18231W        W86704  12.695  30.513   0.934
18232W        W86705  13.267  35.465  12.408
18233W        W86706  34.481  30.571  14.767
18234W        W86707  38.983  34.002  14.515
18235W        W86708  20.761  25.663  14.482
18236W        W86709  31.014  10.340   0.322
18237W        W86710  31.467  29.122  12.837
18238W        W86711  38.567  14.761  11.070
18239W        W86712  38.497  24.100   1.422
18240W        W86713  33.034  13.142   0.931
18241W        W86714  36.411  24.019   3.630
18242W        W86715   2.840  23.182  10.962
18243W        W86716  20.699  30.143   1.824
18244W        W86717  41.970  35.379   4.223
18245W        W86718  16.716  37.401   0.363
18246W        W86719  27.552  25.569   4.229
18247W        W86720   3.766  33.986  12.470
18248W        W86721  27.023  43.343   1.726
18249W        W86722  21.255  44.892   0.759
18250W        W86723   3.277  35.518  11.579
18251W        W86724   6.185  36.022   0.484
18252W        W86725  31.593  42.368  12.564
18253W        W86726  33.538  19.711   0.880
18254W        W86727  33.569  35.388  11.122
18255W        W86728  27.483   3.773   2.767
18256W        W86729  26.196   7.273   1.931
18257W        W86730   6.871  32.416  10.405
18258W        W86731  33.430   2.348  14.861
18259W        W86732  14.320   6.362  11.945
18260W        W86733   1.448  28.597  13.032
18261W        W86734   3.882  41.374   2.417
18262W        W86735  42.912  13.695  13.379
18263W        W86736  18.636  14.659   0.371
18264W        W86737  22.558   0.334  14.999
18265W        W86738  31.105  13.269  13.915
18266W        W86739  30.116   0.885  14.275
18267W        W86740  34.492  27.654   0.415
18268W        W86741  37.937   4.908  12.500
18269W        W86742   4.382  13.210  12.467
18270W        W86743  35.387  39.860   0.832
18271W        W86744  30.603   5.275  14.995
18272W        W86745  28.147   2.456  13.401
18273W        W86746  28.027  10.691   0.732
18274W        W86747  38.350  19.677   0.293
18275W        W86748   5.813  16.795   0.394
18276W        W86749  27.002  21.716   0.342
18277W        W86750  19.277  13.215  12.513
18278W        W86751  36.391  41.494   4.124
18279W        W86752   3.305  27.546  14.336
18280W        W86753  39.010  38.952  11.914
18281W        W86754  44.894   0.903  10.616
18282W        W86755  11.130  27.662   2.712
18283W        W86756  23.138  34.561  11.483
18284W        W86757  17.767  44.271   3.774
18285W        W86758  31.493  31.968   0.827
18286W        W86759  31.415  44.434  11.584
18287W        W86760   2.851  11.366  13.396
18288W        W86761  31.956  42.029   1.888
18289W        W86762  24.117  34.458  14.909
18290W        W86763  17.122  24.546   0.252
18291W        W86764  37.409  12.797   0.809
18292W        W86765  14.289  29.535  10.915
18293W        W86766  14.832  19.111   2.745
18294W        W86767   8.257  11.679  12.927
18295W        W86768  32.413  38.476  14.297
18296W        W86769  41.976   5.906   1.243
18297W        W86770  38.049   8.330  13.331
18298W        W86771  29.036  10.142  10.942
18299W        W86772  38.895  25.146  11.088
18300W        W86773  39.943  17.708   2.713
18301W        W86774  40.372  34.936   1.351
18302W        W86775  31.497  18.666   1.438
18303W        W86776  32.904  22.039  13.021
18304W        W86777   2.903  40.320   2.743
18305W        W86778  28.531  22.525  10.927
18306W        W86779   9.655  42.315  10.597
18307W        W86780  34.427  26.147   3.185
18308W        W86781  30.923   8.755  14.860
18309W        W86782  29.497   1.431  12.368
18310W        W86783  10.163  43.821   0.809
18311W        W86784  28.171  15.285   0.335
18312W        W86785   1.441   6.825  14.899
18313W        W86786  44.337  41.378  11.552
18314W        W86787  30.566  23.165   4.283
18315W        W86788   2.768   0.761   4.326
18316W        W86789  43.947   1.916  13.946
18317W        W86790  16.722  34.500  14.989
18318W        W86791  18.145  21.175  14.921
18319W        W86792  30.546   8.350   1.885
18320W        W86793  43.973   0.319   4.146
18321W        W86794  28.570   1.819   2.830
18322W        W86795   9.654   6.294  14.004
18323W        W86796  23.160  42.960  14.427
18324W        W86797   4.267  18.571   0.300
18325W        W86798  21.579  38.346  10.442
18326W        W86799  26.983  36.985   1.418
18327W        W86800  18.054  11.830   4.191
18328W        W86801  10.363   7.347   3.866
18329W        W86802  28.012  32.442   2.832
18330W        W86803   2.395   2.236  12.905
18331W        W86804  17.712  28.648   1.232
18332W        W86805   3.240  44.962   0.832
18333W        W86806  21.144  15.763   5.147
18334W        W86807   4.910  28.643  11.962
18335W        W86808   7.348  31.079  12.342
18336W        W86809  40.957  30.002  10.554
18337W        W86810   7.247  44.787  11.909
18338W        W86811  44.381  41.938  10.593
18339W        W86812   1.311  43.994  14.792
18340W        W86813   4.226  26.188  11.904
18341W        W86814  13.250   9.375   1.808
18342W        W86815  40.846  31.435  11.977
18343W        W86816  15.809   6.246   0.243
18344W        W86817  42.872  27.662  13.466
18345W        W86818   6.896  15.133  12.959
18346W        W86819  37.830   9.838  12.899
18347W        W86820  29.532  15.596  14.322
18348W        W86821  40.372  44.814   4.673
18349W        W86822  11.705  19.130  14.286
18350W        W86823  32.454   0.905   1.725
18351W        W86824  37.547  35.002  10.550
18352W        W86825  11.853  27.074  10.989
18353W        W86826  25.051  39.915   1.935
18354W        W86827  13.619  26.667  12.983
18355W        W86828  14.682   0.976  11.049
18356W        W86829   9.666  19.219  10.939
18357W        W86830  38.044  35.939  10.596
18358W        W86831  34.511  24.660  10.528
18359W        W86832  20.125  34.994   1.285
18360W        W86833  44.976  31.445   1.800
18361W        W86834  20.203  24.027   1.431
18362W        W86835  11.330   0.292   4.138
18363W        W86836  24.983  39.941  10.958
18364W        W86837   2.382   4.806   1.348
18365W        W86838  29.492  38.495   2.899
18366W        W86839  40.031  42.855   0.285
18367W        W86840   3.335  13.199  14.784
18368W        W86841  41.354   7.911  13.043
18369W        W86842   5.318  37.027  11.566
18370W        W86843   1.789  34.872  10.978
18371W        W86844   2.235  16.244  10.606
18372W        W86845  16.257  16.618  10.889
18373W        W86846   5.349  24.046   4.637
18374W        W86847  31.975  29.537   1.792
18375W        W86848  19.683  40.867   0.854
18376W        W86849   7.798  29.470  10.955
18377W        W86850  30.149  44.482  12.006
18378W        W86851  24.661  17.765  14.961
18379W        W86852  13.121  34.004   2.378
18380W        W86853  29.495  11.790  10.473
18381W        W86854   2.925   3.735  11.995
18382W        W86855  15.802   4.239   1.816
18383W        W86856  17.161   3.954  10.897
18384W        W86857  26.163  32.488  12.864
18385W        W86858  27.529  20.695   0.341
18386W        W86859  29.934  35.939   3.183
18387W        W86860  18.276   8.891  11.437
18388W        W86861  27.601  10.865   4.736
18389W        W86862  22.134  41.474  11.099
18390W        W86863   4.248  38.830   3.783
18391W        W86864  20.211  11.752   0.351
18392W        W86865  43.444   8.836  11.407
18393W        W86866  10.215  10.322   5.087
18394W        W86867  29.070   0.278  14.454
18395W        W86868  40.972  39.527  12.935
18396W        W86869  30.008  17.254   1.928
18397W        W86870  30.461  18.716   0.860
18398W        W86871  43.890  16.240  12.427
18399W        W86872  39.056  22.167   0.826
18400W        W86873   4.817  43.953   2.818
18401W        W86874  27.080   4.432  11.073
18402W        W86875  31.076  28.461  14.029
18403W        W86876  19.560  16.686  11.872
18404W        W86877  21.260  29.073   3.864
18405W        W86878  39.479  40.023  12.567
18406W        W86879  30.964  43.409   2.218
18407W        W86880  12.147   0.342  11.019
18408W        W86881   3.829  20.029  11.567
18409W        W86882  27.555  21.524   1.438
18410W        W86883  19.281  27.691  11.864
18411W        W86884  27.186  20.035  14.331
18412W        W86885  27.613   6.284   0.398
18413W        W86886  16.580  42.522   1.329
18414W        W86887   6.912  43.975  14.306
18415W        W86888   0.342  40.822   3.699
18416W        W86889  44.842  36.859  14.365
18417W        W86890  26.124  23.701   1.877
18418W        W86891  11.351  26.702   3.675
18419W        W86892  42.857   4.852   5.112
18420W        W86893  23.030   6.257  11.112
18421W        W86894  10.260   8.668   4.734
18422W        W86895  41.797  43.797   4.598
18423W        W86896   2.902  15.250  12.367
18424W        W86897  39.885  27.094  10.410
18425W        W86898  33.914  16.718  13.917
18426W        W86899  25.632  33.011  14.780
18427W        W86900  15.795  22.684   1.223
18428W        W86901   2.459  20.762  12.867
18429W        W86902  38.967  12.148  10.949
18430W        W86903  19.195  16.097  13.056
18431W        W86904   5.842  14.695   2.796
18432W        W86905  26.054  24.544   4.629
18433W        W86906   2.244  17.720  12.893
18434W        W86907  39.933   3.266   0.417
18435W        W86908   8.669  42.417  14.936
18436W        W86909  24.546  44.903   4.624
18437W        W86910   2.371   0.817  12.528
18438W        W86911  18.742  27.456   3.305
18439W        W86912  17.718  43.961   4.832
18440W        W86913   6.299   1.850  10.123
18441W        W86914  12.701  37.526   0.953
18442W        W86915  36.914  41.405   4.250
18443W        W86916  23.217  28.146  10.437
18444W        W86917  14.782  22.717   3.258
18445W        W86918  11.168  44.495   1.917
18446W        W86919   0.314   5.887  13.477
18447W        W86920  44.938  19.741   1.779
18448W        W86921   1.748  10.336  11.483
18449W        W86922  35.958  10.225   3.232
18450W        W86923  27.643  34.953   4.140
18451W        W86924  11.216  36.524  14.890
18452W        W86925  32.119   8.738  11.075
18453W        W86926  40.455  24.188  12.470
18454W        W86927   2.774  30.071  12.563
18455W        W86928  38.982  31.152   9.956
18456W        W86929  38.455  14.170  13.428
18457W        W86930  44.426  17.172   4.209
18458W        W86931  30.965  14.783   4.207
18459W        W86932  17.234  25.205   1.793
18460W        W86933   3.387  43.929   0.405
18461W        W86934   5.409   4.302   2.793
18462W        W86935  17.281   2.856   3.740
18463W        W86936  22.192  27.959   3.160
18464W        W86937  14.777  26.507   3.237
18465W        W86938  28.019  14.151  14.969
18466W        W86939  39.445  12.150   2.784
18467W        W86940   0.390  24.590  14.784
18468W        W86941  14.326  15.309  10.554
18469W        W86942  40.456  44.313   2.888
18470W        W86943  22.630   6.825  14.437
18471W        W86944  39.466  12.682   2.695
18472W        W86945  27.649  11.799   0.314
18473W        W86946  28.551  10.267   0.432
18474W        W86947  37.909  23.121   0.297
18475W        W86948  41.511  44.010  10.560
18476W        W86949  34.582  12.717  11.421
18477W        W86950  14.278   7.786   1.255
18478W        W86951  16.233  37.967   3.752
18479W        W86952   0.357  35.065   2.903
18480W        W86953  21.608  37.343   9.973
18481W        W86954   6.311  26.013   2.311
18482W        W86955  28.477  22.244   0.388
18483W        W86956  42.985   1.422  12.855
18484W        W86957   3.711  13.731   0.952
18485W        W86958  15.169  30.124   3.212
18486W        W86959   5.304   2.370  11.016
18487W        W86960  32.422   1.757   2.842
18488W        W86961  33.020   7.298  10.963
18489W        W86962   8.657  17.650   3.360
18490W        W86963   6.694  20.650   2.274
18491W        W86964  24.546  16.296  12.868
18492W        W86965  10.187  10.802   4.755
18493W        W86966   3.935  36.017   3.368
18494W        W86967  28.638  16.077  10.943
18495W        W86968  18.729  17.640  13.442
18496W        W86969  31.921  11.147   3.690
18497W        W86970  29.546  21.689  14.014
18498W        W86971  34.395  20.080  14.979
18499W        W86972  12.318  12.642  13.480
18500W        W86973   9.204  20.202  10.447
18501W        W86974  12.184  16.209   1.399
18502W        W86975  26.539  38.910   4.734
18503W        W86976  12.204  38.821   3.845
18504W        W86977   7.264  18.178   4.806
18505W        W86978  37.348  38.018  10.441
18506W        W86979  44.463  19.071   1.359
18507W        W86980  33.624  27.500  10.154
18508W        W86981  13.744  11.649  14.969
18509W        W86982   5.711  34.872   1.361
18510W        W86983  13.230  37.348  10.577
18511W        W86984  37.579  40.476   0.745
18512W        W86985  30.487   0.280  11.469
18513W        W86986  35.480  21.110  10.451
18514W        W86987  29.953  26.984   4.306
18515W        W86988   0.964  19.115  14.476
18516W        W86989  33.425   0.304   2.876
18517W        W86990  38.447   3.896   0.838
18518W        W86991  37.540   0.928  14.956
18519W        W86992   0.375  40.831   4.132
18520W        W86993  44.274  38.954  10.644
18521W        W86994  29.460   4.900   3.338
18522W        W86995  24.106  42.318   1.372
18523W        W86996  24.592  30.018  13.469
18524W        W86997  37.015  43.776   4.784
18525W        W86998  11.846  28.005   0.895
18526W        W86999  44.837   1.418  12.465
18527W        W87000  15.281  39.333  14.903
18528W        W87001   8.774  17.131   5.094
18529W        W87002  11.802  42.478  11.385
18530W        W87003  44.000  23.176   2.269
18531W        W87004  33.453  10.262   1.886
18532W        W87005   6.231  12.768   0.330
18533W        W87006  10.857  34.990  11.387
18534W        W87007  27.030  41.957  14.970
18535W        W87008  43.930  35.011  14.303
18536W        W87009   1.877  34.420  12.980
18537W        W87010  42.501   7.240   0.901
18538W        W87011  18.133   5.414   2.744
18539W        W87012   4.866  15.320   4.681
18540W        W87013  13.318  31.493   4.646
18541W        W87014  41.892  27.497   3.785
18542W        W87015  21.670  32.137   0.882
18543W        W87016   1.303  44.325  12.540
18544W        W87017  11.263   5.876   1.770
18545W        W87018   4.742  21.172  11.427
18546W        W87019   9.308  33.047   1.438
18547W        W87020  40.801  40.002  12.519
18548W        W87021   0.861   6.921  14.846
18549W        W87022  40.370   2.372  12.355
18550W        W87023   4.304  10.732   0.341
18551W        W87024  42.369  15.255  13.884
18552W        W87025  19.762  27.116  11.601
18553W        W87026  18.724  42.876   0.432
18554W        W87027  39.406   6.296   3.648
18555W        W87028  31.494   5.875  14.399
18556W        W87029  10.749  34.429   4.747
18557W        W87030  44.460  15.305   1.883
18558W        W87031  44.383  25.166  14.975
18559W        W87032  34.030   9.657  12.826
18560W        W87033  32.619  20.108   3.358
18561W        W87034  22.095   4.271   3.298
18562W        W87035  38.449   8.248   4.786
18563W        W87036  20.670  26.585   0.339
18564W        W87037  15.800  37.025  12.862
18565W        W87038  42.933  21.541   2.353
18566W        W87039   7.735   3.845   1.247
18567W        W87040  30.453  17.778   4.302
18568W        W87041  32.065  20.247  11.391
18569W        W87042  30.114  13.660  13.411
18570W        W87043  27.506   3.282  14.313
18571W        W87044  44.362  34.926   1.345
18572W        W87045   8.851   7.712   1.884
18573W        W87046  26.067  21.064   3.732
18574W        W87047  31.446  15.139  10.997
18575W        W87048  36.874  37.488  14.331
18576W        W87049  24.124  20.102  11.926
18577W        W87050   8.750  34.418   1.282
18578W        W87051  25.519  35.983   3.150
18579W        W87052  14.139  15.266  11.472
18580W        W87053  26.556  26.127   3.671
18581W        W87054  19.582   9.263  14.472
18582W        W87055  41.383  25.601   4.683
18583W        W87056  19.211  39.907   3.699
18584W        W87057   1.841   0.979   0.805
18585W        W87058  29.584  40.435   1.357
18586W        W87059  43.297  32.129  10.969
18587W        W87060  15.261  11.357  13.426
18588W        W87061  44.899  19.579   2.829
18589W        W87062  30.012   7.178  13.952
18590W        W87063  29.163  14.718  10.939
18591W        W87064  31.116   7.753  11.087
18592W        W87065  20.194  13.629   1.337
18593W        W87066  23.623  15.197  14.410
18594W        W87067  31.582  41.534  14.379
18595W        W87068  43.903   5.784   3.295
18596W        W87069  44.447   4.444   0.311
18597W        W87070  32.532  13.752   0.329
18598W        W87071  13.831   9.255   1.211
18599W        W87072  31.048  33.969   1.927
18600W        W87073  31.507  11.349   4.607
18601W        W87074   4.299  44.765   3.836
18602W        W87075   7.684  21.062  12.561
18603W        W87076  42.791  38.421   1.877
18604W        W87077   0.864  23.685   0.391
18605W        W87078  43.938  31.585  10.913
18606W        W87079  30.997   3.803   0.245
18607W        W87080  21.515   9.754  11.059
18608W        W87081  35.546  32.463   2.751
18609W        W87082   0.484  22.027  12.382
18610W        W87083  40.478  37.075   4.727
18611W        W87084   3.390   6.766  14.461
18612W        W87085  44.764  41.847   1.450
18613W        W87086  19.677  29.551  14.859
18614W        W87087  42.014  42.367  12.441
18615W        W87088  32.971   6.740   2.286
18616W        W87089   5.907  15.126   3.190
18617W        W87090   7.347   2.811   1.382
18618W        W87091  21.623   8.853  12.941
18619W        W87092  18.285  12.120   2.332
18620W        W87093  43.989   5.860   2.182
18621W        W87094  17.621  24.180   0.876
18622W        W87095  10.780  30.143   4.598
18623W        W87096   2.401  14.108   4.753
18624W        W87097  43.429  10.154   4.353
18625W        W87098  16.779  32.407   1.218
18626W        W87099  28.459   2.780  12.455
18627W        W87100  42.858  35.892   1.894
18628W        W87101  24.613  39.455   1.891
18629W        W87102  27.634   8.666  12.832
18630W        W87103  25.625  18.130  11.923
18631W        W87104  26.481   2.443  12.552
18632W        W87105  34.464  13.306  14.770
18633W        W87106   6.364  10.363   2.898
18634W        W87107  27.099  38.851  13.877
18635W        W87108  35.041  35.548   2.277
18636W        W87109   6.804  41.880  12.459
18637W        W87110  32.095   3.369  14.812
18638W        W87111   1.400  21.225  11.503
18639W        W87112  36.531  23.058   4.228
18640W        W87113  40.025  30.011  10.951
18641W        W87114  24.158   7.392  12.568
18642W        W87115  18.103  27.088   2.853
18643W        W87116  30.105  37.394   3.754
18644W        W87117  32.123  25.158  12.958
18645W        W87118  16.782  24.073  12.945
18646W        W87119  24.664   8.395  12.346
18647W        W87120  39.502  11.223  14.839
18648W        W87121  21.657  13.778  13.056
18649W        W87122  40.490  16.161   3.271
18650W        W87123   8.391  17.700  10.893
18651W        W87124  29.502  25.203   1.265
18652W        W87125  27.653  29.108  14.425
18653W        W87126  15.752   7.751  14.775
18654W        W87127   7.877  23.549   1.386
18655W        W87128  18.263  41.863  13.946
18656W        W87129  33.408  41.304  14.274
18657W        W87130  28.566  41.467   2.861
18658W        W87131   9.285  12.760   4.222
18659W        W87132  16.163  34.938   4.784
18660W        W87133  25.563  14.132  14.513
18661W        W87134  34.983  43.301  11.526
18662W        W87135  43.347  16.312  13.911
18663W        W87136   4.346  13.728   1.800
18664W        W87137  25.506  26.029  11.888
18665W        W87138  21.651   2.839  12.418
18666W        W87139  15.605  35.568   4.655
18667W        W87140  20.220  40.510   3.693
18668W        W87141  31.154  33.625   9.994
18669W        W87142  44.885  34.394  10.462
18670W        W87143  33.025  31.080  13.027
18671W        W87144  36.399   0.311  12.397
18672W        W87145  41.466  19.656   0.333
18673W        W87146   9.149   3.732   0.287
18674W        W87147  26.586  18.238  14.380
18675W        W87148  27.029  14.182   1.229
18676W        W87149  32.994  17.560  12.874
18677W        W87150  12.771   4.287  14.020
18678W        W87151  21.660  22.208   4.647
18679W        W87152   5.849  19.701  14.321
18680W        W87153  41.370  40.868  12.572
18681W        W87154   9.292  32.519   3.708
18682W        W87155  40.033  12.750  12.900
18683W        W87156  11.646  30.556  12.456
18684W        W87157  10.197   8.259  14.989
18685W        W87158  21.543  13.679   4.270
18686W        W87159  27.963  42.297   1.786
18687W        W87160  22.690  33.025  12.444
18688W        W87161  11.224  17.303  13.918
18689W        W87162   9.715  26.106  11.904
18690W        W87163  20.527  12.183  14.792
18691W        W87164  23.004  39.535  11.473
18692W        W87165  36.428  38.846   2.311
18693W        W87166  24.046  35.460  11.871
18694W        W87167  15.171  33.962  12.092
18695W        W87168   7.368  34.895  13.886
18696W        W87169   6.384  13.782   0.854
18697W        W87170   7.361  41.413  10.938
18698W        W87171  18.765  23.094  10.435
18699W        W87172   6.824  34.477   3.365
18700W        W87173   3.775  21.040  14.442
18701W        W87174   2.846  16.739  11.607
18702W        W87175   7.300  19.535  12.353
18703W        W87176  11.320  27.545   4.193
18704W        W87177  40.464  31.909   3.774
18705W        W87178  11.860  17.281  13.882
18706W        W87179  33.439  28.060   3.197
18707W        W87180  33.954  29.054  12.444
18708W        W87181  11.227   4.303  14.382
18709W        W87182  37.012  24.634  11.965
18710W        W87183  40.823  25.107   2.754
18711W        W87184  42.345  42.432  10.499
18712W        W87185  34.002  22.141  10.527
18713W        W87186  28.608  41.943   2.704
18714W        W87187  10.344  42.839  10.088
18715W        W87188   9.379  33.090   5.662
18716W        W87189  35.510  34.502  11.974
18717W        W87190   9.880   4.893   1.822
18718W        W87191  23.507  32.019  11.896
18719W        W87192  10.639  26.458  12.413
18720W        W87193  39.401  15.204   0.285
18721W        W87194  23.650  10.773  14.965
18722W        W87195  25.527  18.599  11.918
18723W        W87196  19.634  28.088   1.876
18724W        W87197  16.111   0.768   0.958
18725W        W87198  34.876  18.134  14.781
18726W        W87199  18.157   5.873   1.808
18727W        W87200  26.191  11.849  11.487
18728W        W87201  16.189   2.259   3.749
18729W        W87202  33.957  39.002   3.804
18730W        W87203  39.313  24.091   4.605
18731W        W87204  29.602  32.490   2.283
18732W        W87205  17.611  22.689   1.867
18733W        W87206   1.944   5.772  13.526
18734W        W87207   5.780  35.490   2.383
18735W        W87208  17.168  31.438   4.756
18736W        W87209  36.939   7.742  13.928
18737W        W87210  41.978   0.837   1.426
18738W        W87211   7.251  17.152  10.483
18739W        W87212  20.182   0.942  11.904
18740W        W87213  21.254  19.660  14.813
18741W        W87214   5.355  29.482  11.402
18742W        W87215  28.993  32.059  11.096
18743W        W87216  12.262  19.276  14.956
18744W        W87217   0.809  18.296  12.043
18745W        W87218  18.760   4.728  14.463
18746W        W87219   5.324  19.564   4.629
18747W        W87220   5.889  11.353   2.784
18748W        W87221  15.676  42.986   1.263
18749W        W87222  30.909  11.699  13.519
18750W        W87223  26.161  32.046   0.758
18751W        W87224  21.630  23.493  10.518
18752W        W87225  34.981  31.128  12.831
18753W        W87226  17.564  12.777   4.732
18754W        W87227  11.359  25.529   2.902
18755W        W87228  23.558  23.645  10.493
18756W        W87229   4.706   9.324  11.900
18757W        W87230  33.560  34.094  11.908
18758W        W87231  41.295  24.154   0.855
18759W        W87232  28.980   8.792   2.258
18760W        W87233  17.160  17.671   0.279
18761W        W87234  21.629  16.287  11.601
18762W        W87235  24.629  27.516  14.332
18763W        W87236  20.150  37.461   1.742
18764W        W87237  37.389  21.197   2.310
18765W        W87238  26.161  42.866  11.508
18766W        W87239  39.342   8.789   2.789
18767W        W87240  15.266   5.412  13.510
18768W        W87241  41.812  21.633  11.127
18769W        W87242  29.583  39.812  14.022
18770W        W87243  32.451  39.552  14.388
18771W        W87244  41.372  31.099   4.805
18772W        W87245   9.191  23.070  14.905
18773W        W87246  34.553  19.542   1.785
18774W        W87247  42.019  29.956   3.738
18775W        W87248   6.750  35.981  10.582
18776W        W87249   2.355  37.481  13.482
18777W        W87250  24.542   7.193   2.329
18778W        W87251  26.479  33.578   1.388
18779W        W87252  42.366  42.002   3.718
18780W        W87253  12.252  30.656   2.853
18781W        W87254  16.202  40.936   9.574
18782W        W87255  24.202   7.823  14.426
18783W        W87256  28.117  29.554   4.165
18784W        W87257  23.586  14.723  14.965
18785W        W87258   5.262  40.322   0.841
18786W        W87259  24.985  38.397  13.371
18787W        W87260  28.618  29.636  11.922
18788W        W87261  28.613  19.681   4.226
18789W        W87262   9.860  11.257  11.013
18790W        W87263  43.950   3.942   1.906
18791W        W87264  14.137  29.441  12.550
18792W        W87265  14.214  13.169   1.345
18793W        W87266  38.845  30.910  10.414
18794W        W87267  11.128  28.126  13.420
18795W        W87268   1.303  12.255   2.294
18796W        W87269  39.976  20.702  10.992
18797W        W87270  18.682  34.965  14.990
18798W        W87271  27.059  25.165   1.278
18799W        W87272  44.448   8.881   0.345
18800W        W87273   5.791  36.916  13.491
18801W        W87274  28.003  16.178  14.876
18802W        W87275  44.927  10.723  12.060
18803W        W87276   1.431  20.200   0.787
18804W        W87277  31.088  39.880   4.731
18805W        W87278  37.420  37.012  14.414
18806W        W87279   9.741  41.310  14.326
18807W        W87280   6.338  42.417  12.009
18808W        W87281  10.683  13.760  13.388
18809W        W87282  34.967  22.525   4.672
18810W        W87283   3.282  18.282  10.632
18811W        W87284  24.581   9.655   0.793
18812W        W87285  30.932  14.197   1.831
18813W        W87286  10.222  38.053   2.341
18814W        W87287  44.756   9.708  12.371
18815W        W87288  42.325  24.172   4.144
18816W        W87289  20.761   7.702   3.151
18817W        W87290  21.563  25.635  11.025
18818W        W87291  38.908  34.908  14.898
18819W        W87292  42.392   6.868   1.725
18820W        W87293  31.969   3.824  13.382
18821W        W87294   6.313  15.673  14.487
18822W        W87295  17.711  23.052   0.828
18823W        W87296   4.766  22.527   3.210
18824W        W87297  27.537  38.435  14.337
18825W        W87298  20.571   2.228   0.308
18826W        W87299  36.545  23.993   4.234
18827W        W87300   3.762  23.617  11.126
18828W        W87301  29.095  14.627  13.808
18829W        W87302  17.681  11.663   1.872
18830W        W87303  19.722   7.881   2.323
18831W        W87304   1.258  21.161  12.967
18832W        W87305  10.174  21.689   0.399
18833W        W87306  34.039  38.416  11.013
18834W        W87307  10.809   1.879   4.764
18835W        W87308  37.963   0.867  10.560
18836W        W87309  12.717  35.447   3.300
18837W        W87310  44.969   4.913  14.758
18838W        W87311  19.624  42.790  12.096
18839W        W87312  14.111  11.322  13.320
18840W        W87313  37.341  16.146  12.057
18841W        W87314   8.389   4.249   1.793
18842W        W87315  37.010  10.385   0.837
18843W        W87316  30.947  30.468  10.015
18844W        W87317  10.338   3.910  14.446
18845W        W87318  33.599  34.458  11.891
18846W        W87319   8.279  11.750  14.451
18847W        W87320  39.428  26.037   3.775
18848W        W87321  19.050  38.879  12.095
18849W        W87322   6.818  37.870  10.926
18850W        W87323   9.795   3.365  12.424
18851W        W87324  30.521  22.174  14.864
18852W        W87325  21.198  27.488   1.935
18853W        W87326  37.920  34.083  10.900
18854W        W87327  26.479  27.545   2.677
18855W        W87328   0.291  41.820  13.343
18856W        W87329  17.698  42.447  12.430
18857W        W87330  12.202  29.148  11.967
18858W        W87331  25.527   2.749   4.657
18859W        W87332  21.024  23.696   3.658
18860W        W87333   8.792  22.603   3.811
18861W        W87334  37.480   4.214  10.955
18862W        W87335   5.346  43.314   4.779
18863W        W87336  21.605   0.973   2.331
18864W        W87337  32.066  22.619  11.074
18865W        W87338  34.584  17.799   1.735
18866W        W87339   0.344  14.102  14.023
18867W        W87340   1.315  22.131   3.333
18868W        W87341  42.994  22.099   0.397
18869W        W87342  31.521  14.259  11.893
18870W        W87343  24.146  24.105  12.858
18871W        W87344  14.185  24.042   2.297
18872W        W87345  18.157  39.984  13.942
18873W        W87346  37.413  39.929  11.872
18874W        W87347  34.107  29.434  13.820
18875W        W87348  26.518  16.123   0.747
18876W        W87349  37.060  44.960   1.876
18877W        W87350  39.997   9.859  11.570
18878W        W87351  21.139  42.989  12.419
18879W        W87352  13.656  36.988   2.827
18880W        W87353  40.399  35.552   2.808
18881W        W87354  17.669  40.883  11.448
18882W        W87355   9.869  42.337   1.285
18883W        W87356  27.585   3.858  13.484
18884W        W87357  38.852  18.675  11.491
18885W        W87358  28.080  33.517  11.005
18886W        W87359  27.460   1.317   1.446
18887W        W87360  41.443  17.785   4.343
18888W        W87361   6.411  27.979  13.382
18889W        W87362   9.701  42.295  13.933
18890W        W87363  44.925  39.363  14.880
18891W        W87364  15.684  22.144  11.873
18892W        W87365  35.009  29.615  10.413
18893W        W87366  26.099  30.520  14.316
18894W        W87367  37.847  11.671   2.391
18895W        W87368   3.372  43.802   3.850
18896W        W87369   3.763  14.204  14.002
18897W        W87370  20.110  11.839  14.961
18898W        W87371  39.520  17.070   3.718
18899W        W87372   4.280   0.863   0.858
18900W        W87373  40.943  13.617  13.043
18901W        W87374  21.735  40.477   0.399
18902W        W87375   2.442  16.182  14.399
18903W        W87376  24.105  40.038  14.924
18904W        W87377   3.454   0.415   3.173
18905W        W87378  28.468  28.980  10.411
18906W        W87379  13.744  26.535  13.882
18907W        W87380  44.392  12.652   0.951
18908W        W87381  12.348   9.715  12.830
18909W        W87382   8.404  25.129   4.807
18910W        W87383  29.605  44.318   0.297
18911W        W87384  36.524  21.695   0.256
18912W        W87385  42.422  38.860   1.216
18913W        W87386   4.718  26.114   0.328
18914W        W87387  40.366  15.671   9.971
18915W        W87388  35.866  17.662  11.544
18916W        W87389   5.209  42.490   4.677
18917W        W87390  37.935   1.876  14.276
18918W        W87391  17.291  33.940   0.395
18919W        W87392  14.287  29.048   4.719
18920W        W87393  13.217   9.666   4.170
18921W        W87394  39.884  40.942  14.979
18922W        W87395   4.204   6.874   0.482
18923W        W87396  21.675  22.606   0.953
18924W        W87397  37.043  36.532  13.437
18925W        W87398  19.270  13.601  11.538
18926W        W87399  26.168  44.499   3.716
18927W        W87400  39.404  34.404   1.274
18928W        W87401  30.638   8.302   2.893
18929W        W87402  17.275  25.468   4.126
18930W        W87403  35.096   4.277  14.328
18931W        W87404  39.055   7.282  10.432
18932W        W87405  24.061  11.784  10.989
18933W        W87406  13.187  11.335   1.220
18934W        W87407  26.662  34.018  13.902
18935W        W87408   3.937  31.927  13.422
18936W        W87409  28.029  18.209  12.041
18937W        W87410   5.387  33.492   2.894
18938W        W87411   8.773   6.381  14.799
18939W        W87412  36.989  15.759   2.188
18940W        W87413  35.387  12.123   2.895
18941W        W87414  26.190  21.688  14.334
18942W        W87415  27.595   6.819  13.844
18943W        W87416  39.922  28.603   3.253
18944W        W87417  21.662  11.784  12.917
18945W        W87418  38.897  21.564  14.397
18946W        W87419  34.896  34.563  13.840
18947W        W87420  22.529   6.815  11.031
18948W        W87421   4.758  20.256   2.800
18949W        W87422  29.621  25.659  11.977
18950W        W87423  42.383   8.697   0.364
18951W        W87424  28.675  40.832   4.715
18952W        W87425  41.833  30.532  11.858
18953W        W87426   7.668  34.491   2.773
18954W        W87427  27.638   2.301  12.078
18955W        W87428  14.184  24.194   5.165
18956W        W87429   9.692  41.012   4.723
18957W        W87430  41.930  19.597   2.195
18958W        W87431  43.289  18.758   0.481
18959W        W87432  19.705   1.952  11.426
18960W        W87433  31.498   0.342   1.318
18961W        W87434  29.528  18.053  11.857
18962W        W87435  32.060  23.498  11.380
18963W        W87436  28.979   5.373   3.369
18964W        W87437  22.640  41.790  11.988
18965W        W87438  12.203   2.347   3.654
18966W        W87439   9.215  18.653  11.591
18967W        W87440   2.444  41.992   1.800
18968W        W87441  36.027  20.038   0.465
18969W        W87442  33.939   6.773  13.801
18970W        W87443   9.841   6.353  13.042
18971W        W87444  40.348   8.345   2.779
18972W        W87445   6.315  13.651   3.336
18973W        W87446  35.874  37.412   1.274
18974W        W87447  14.708  27.541   0.963
18975W        W87448  35.359  34.383  11.527
18976W        W87449  32.599  40.024  13.858
18977W        W87450  39.430  18.766  12.047
18978W        W87451   0.754  17.265  14.431
18979W        W87452  17.244  28.029   3.794
18980W        W87453  34.494   3.361   4.619
18981W        W87454  20.217  43.497  14.853
18982W        W87455  24.659   6.850   4.660
18983W        W87456   1.900  26.627  14.401
18984W        W87457  13.688  42.981   5.241
18985W        W87458  32.048  33.556  11.870
18986W        W87459   1.961   8.389  11.032
18987W        W87460  26.601  27.972   3.722
18988W        W87461   7.346   6.833   4.672
18989W        W87462  29.433   0.369  12.364
18990W        W87463  13.815  21.211  14.404
18991W        W87464  23.721  44.382   0.828
18992W        W87465  36.442   9.814  14.999
18993W        W87466  13.198  38.893   2.696
18994W        W87467  15.320  24.231   1.383
18995W        W87468  29.021  27.580  13.001
18996W        W87469  18.230   9.202   3.355
18997W        W87470  11.760  40.917  14.388
18998W        W87471  42.783  12.282   0.256
18999W        W87472  42.924  11.135   4.305
19000W        W87473  12.809  24.214   2.760
19001W        W87474   3.429  32.623  11.880
19002W        W87475  14.099  24.634   2.366
19003W        W87476   9.332  44.366  14.360
19004W        W87477  15.676  41.867  11.908
19005W        W87478  38.446   8.850  10.955
19006W        W87479  43.893  19.189   2.351
19007W        W87480  12.350   3.712   1.827
19008W        W87481  19.119  19.720  13.850
19009W        W87482  37.408  21.116   2.832
19010W        W87483  17.227  41.407  10.458
19011W        W87484   3.871   3.341   1.783
19012W        W87485  36.960  44.754   4.718
19013W        W87486  34.582  24.043  13.334
19014W        W87487  17.180  10.209   0.271
19015W        W87488  12.718   6.733  13.800
19016W        W87489  15.105  40.394   3.387
19017W        W87490  32.126  42.407  11.938
19018W        W87491  44.416   0.869  11.567
19019W        W87492  24.660  15.182  14.415
19020W        W87493  15.646  41.313  14.944
19021W        W87494  11.294  14.192   3.284
19022W        W87495  21.723   1.773  13.533
19023W        W87496  41.383  28.497  14.434
19024W        W87497  25.651  22.548   1.932
19025W        W87498  31.617  33.897  10.907
19026W        W87499  26.535  12.219   2.671
19027W        W87500  20.682  24.562   1.322
19028W        W87501  21.544  17.250  12.568
19029W        W87502  29.135  28.169  12.465
19030W        W87503  23.113   0.250  11.463
19031W        W87504  10.219   7.222  11.940
19032W        W87505  38.331  36.996  14.921
19033W        W87506  18.587   8.823  11.878
19034W        W87507  14.175  26.054   0.366
19035W        W87508  21.069  24.048  14.897
19036W        W87509  28.515  25.677  11.967
19037W        W87510  13.107  36.557   0.924
19038W        W87511  26.063  25.062  11.887
19039W        W87512   4.326   3.260   5.194
19040W        W87513  20.067  19.674  12.946
19041W        W87514  32.959  22.636  11.079
19042W        W87515   1.263   7.282  10.547
19043W        W87516  10.333  32.534  12.383
19044W        W87517  41.392  18.749   0.761
19045W        W87518  32.903  29.973  14.345
19046W        W87519  33.407   1.740  11.464
19047W        W87520  11.171  12.695   0.906
19048W        W87521  21.246  23.645   0.297
19049W        W87522  20.714  23.634  14.018
19050W        W87523  12.245  13.777   1.843
19051W        W87524  43.511  37.020  13.793
19052W        W87525  22.527  35.922   3.825
19053W        W87526  44.426  34.515   0.334
19054W        W87527  18.072   3.745   2.748
19055W        W87528   7.251   4.854  12.446
19056W        W87529  23.991  13.165   0.434
19057W        W87530  20.587  20.259   4.136
19058W        W87531   1.849   0.392  13.463
19059W        W87532  41.838  12.827  14.315
19060W        W87533  28.483  11.776  10.562
19061W        W87534  40.973  13.710   3.860
19062W        W87535  21.224  12.145  14.001
19063W        W87536   6.312  29.454   9.958
19064W        W87537  20.536   2.722  10.520
19065W        W87538   8.277  37.446   2.748
19066W        W87539  22.200  15.669  14.032
19067W        W87540  44.302   4.828  11.579
19068W        W87541   1.465  37.538   4.187
19069W        W87542  16.786  37.872  11.404
19070W        W87543   0.339   3.310  14.844
19071W        W87544  13.841  24.018  14.882
19072W        W87545  12.726  28.565  13.820
19073W        W87546  12.729  18.586  13.954
19074W        W87547   1.368  34.947   4.838
19075W        W87548  30.418  24.554   4.266
19076W        W87549  44.971  40.499   4.301
19077W        W87550  40.991  40.050   1.328
19078W        W87551  32.462  18.740   4.168
19079W        W87552  25.983   0.407  11.091
19080W        W87553  28.500  12.290  13.521
19081W        W87554   2.869  32.576   0.340
19082W        W87555  28.509  26.180  11.428
19083W        W87556   2.425  43.318   2.772
19084W        W87557  26.524   4.247   3.668
19085W        W87558  19.616  43.940   0.833
19086W        W87559  26.668  17.130  14.363
19087W        W87560  34.549   7.364  14.989
19088W        W87561  39.808   7.832  12.967
19089W        W87562  24.123   7.742   1.803
19090W        W87563  17.098  19.640  12.406
19091W        W87564   4.774   6.862  14.381
19092W        W87565  27.520   4.354   3.704
19093W        W87566  13.309  22.161  11.526
19094W        W87567   6.222  44.465  13.832
19095W        W87568  40.037  27.043  12.495
19096W        W87569  43.476  30.506  11.479
19097W        W87570   3.435   4.895   4.764
19098W        W87571  26.192  22.214  13.898
19099W        W87572  26.617  41.869  13.936
19100W        W87573  33.439  41.390   5.315
19101W        W87574  15.210  12.788  14.841
19102W        W87575  35.415  28.545   3.666
19103W        W87576  28.950  28.443  11.082
19104W        W87577  37.023  15.696  10.510
19105W        W87578  10.863  38.427   4.289
19106W        W87579  17.116   4.744  12.554
19107W        W87580   1.963  25.012   1.891
19108W        W87581  23.182  29.946  10.608
19109W        W87582  18.145  28.112  12.560
19110W        W87583  39.406  14.707   2.314
19111W        W87584  43.825  35.031   1.309
19112W        W87585  26.089  44.392  11.122
19113W        W87586  44.426  11.245  12.030
19114W        W87587  35.048  32.545  10.629
19115W        W87588  41.339  43.826  11.576
19116W        W87589  22.018  25.216   3.723
19117W        W87590   5.688   3.814   9.518
19118W        W87591  12.642  19.132  11.105
19119W        W87592  12.623   1.274   1.736
19120W        W87593  43.505   7.243   3.851
19121W        W87594   2.727  10.241  12.949
19122W        W87595  13.730  38.958   1.879
19123W        W87596  19.194  34.062   2.662
19124W        W87597  39.514  23.073   3.183
19125W        W87598  13.698  43.277  12.428
19126W        W87599  23.139  22.091  11.039
19127W        W87600  30.031   0.980  11.422
19128W        W87601   2.964   8.377  12.907
19129W        W87602  27.491  30.634   3.325
19130W        W87603  43.469  41.417  14.875
19131W        W87604  20.148  13.240  14.010
19132W        W87605   7.846  17.774  11.443
19133W        W87606  37.482  26.551  10.511
19134W        W87607   2.394  24.153   3.845
19135W        W87608  23.073  40.548   3.763
19136W        W87609   2.385  36.020   0.385
19137W        W87610   6.914  17.175  12.503
19138W        W87611  25.184  28.652  12.395
19139W        W87612  28.617  32.922   0.917
19140W        W87613  39.420  20.768  13.063
19141W        W87614  17.682  13.811   1.341
19142W        W87615  39.515  18.149   3.639
19143W        W87616  41.846   6.320   4.651
19144W        W87617  30.480  38.506   1.219
19145W        W87618  19.762   3.441   3.710
19146W        W87619  32.504   1.430  12.012
19147W        W87620  34.104  32.454   2.206
19148W        W87621   8.820  42.884  10.437
19149W        W87622  32.077  27.103  10.468
19150W        W87623   5.386  15.683   9.960
19151W        W87624  23.210  29.584   0.460
19152W        W87625  16.131   3.442  14.322
19153W        W87626  11.700  44.336   2.730
19154W        W87627  16.109  13.112   0.351
19155W        W87628  35.081  43.416  14.373
19156W        W87629   5.382  40.990  10.634
19157W        W87630  32.024  13.223   5.134
19158W        W87631  39.461   9.193   0.266
19159W        W87632  20.033  17.150  12.507
19160W        W87633  25.005   1.246  13.492
19161W        W87634  28.470  28.526   2.767
19162W        W87635   2.371  19.574  13.336
19163W        W87636  17.559  41.792   3.755
19164W        W87637  27.999  28.962   1.732
19165W        W87638  42.813  19.660   0.263
19166W        W87639  13.827  29.004   4.649
19167W        W87640  39.534   5.709   2.736
19168W        W87641   4.739  35.592   1.303
19169W        W87642   7.841   8.187   0.434
19170W        W87643  28.460  40.421   3.270
19171W        W87644  21.671  22.701   3.733
19172W        W87645  32.982  38.827   3.809
19173W        W87646  29.602  37.419   3.829
19174W        W87647  34.540  10.315  13.387
19175W        W87648  15.664  18.666  14.780
19176W        W87649  44.323  41.985   3.250
19177W        W87650   8.337  39.548   4.671
19178W        W87651  21.180   8.681  12.550
19179W        W87652  33.886  16.227   1.697
19180W        W87653   9.357  43.847   1.713
19181W        W87654  43.934  41.523   4.167
19182W        W87655  44.378  14.597   4.216
19183W        W87656  26.203   4.837   1.442
19184W        W87657  42.828  28.555   1.843
19185W        W87658   1.342  30.483  14.361
19186W        W87659   7.823  24.530   1.399
19187W        W87660  11.640  12.348   2.196
19188W        W87661   9.686  43.297  11.434
19189W        W87662  35.370  41.429   0.397
19190W        W87663  26.005  29.124  10.440
19191W        W87664  13.652  16.644   3.378
19192W        W87665  22.068  15.811  10.984
19193W        W87666  39.006  34.949   4.287
19194W        W87667  24.643  21.569   2.675
19195W        W87668   9.867  39.517  12.933
19196W        W87669  33.392  20.758  10.540
19197W        W87670  44.343   1.322  11.579
19198W        W87671   5.358  19.108  10.910
19199W        W87672  25.622   0.968  14.500
19200W        W87673   5.749  20.066  13.010
19201W        W87674   0.262  13.346  11.982
19202W        W87675  17.097  26.549   3.167
19203W        W87676   7.681  15.585  13.411
19204W        W87677  36.043  30.462   4.162
19205W        W87678  40.855  41.474  10.599
19206W        W87679  44.891  43.918   4.826
19207W        W87680  34.470  41.816  10.614
19208W        W87681  38.376  14.590  13.362
19209W        W87682   0.375   9.223  10.432
19210W        W87683  16.140  11.669   2.757
19211W        W87684  12.269  24.979   5.175
19212W        W87685  44.798   7.708   0.428
19213W        W87686  15.227  39.553  12.341
19214W        W87687  10.734   6.703  14.440
19215W        W87688  25.095  10.177   1.345
19216W        W87689  22.249  39.517   0.338
19217W        W87690  23.132  40.314  14.893
19218W        W87691  26.522  38.384   0.375
19219W        W87692  32.544  36.522  12.422
19220W        W87693  13.207  15.663  10.429
19221W        W87694  19.707  28.600  14.321
19222W        W87695   4.829  34.074   3.703
19223W        W87696  13.242  35.500  12.979
19224W        W87697  28.679  15.171  12.862
19225W        W87698  33.545  37.979  13.473
19226W        W87699   9.820  24.570  13.975
19227W        W87700  24.531   6.677  12.392
19228W        W87701  26.641  33.589  10.947
19229W        W87702  19.661  19.154   2.801
19230W        W87703   6.903  39.358  14.423
19231W        W87704  33.625  40.916   0.249
19232W        W87705   8.901  17.783   0.364
19233W        W87706  20.207   5.734   1.818
19234W        W87707  29.922   9.687   4.613
19235W        W87708  41.968  12.692   0.732
19236W        W87709  29.470  24.629  11.082
19237W        W87710   2.276  13.252   3.345
19238W        W87711   0.293  44.980  13.029
19239W        W87712  43.410  10.712  11.521
19240W        W87713   2.465  18.296  10.548
19241W        W87714  44.362  15.707   2.283
19242W        W87715  15.269  38.005   2.740
19243W        W87716  40.421  20.755  12.580
19244W        W87717   0.935  36.509  12.580
19245W        W87718  32.928   7.731  10.593
19246W        W87719  27.038   8.235  10.543
19247W        W87720  29.529  10.679   0.407
19248W        W87721  43.943  29.075   0.456
19249W        W87722  31.936  29.998  12.550
19250W        W87723  35.502   2.440  12.475
19251W        W87724   7.269  21.174  10.963
19252W        W87725  11.348  39.004   1.258
19253W        W87726   9.817  22.203   0.968
19254W        W87727   3.419  28.638   4.735
19255W        W87728  14.715  27.119  14.987
19256W        W87729   4.929  19.216   1.929
19257W        W87730  12.213  17.709   0.261
19258W        W87731  29.949  11.151   1.421
19259W        W87732   4.362   7.250  14.344
19260W        W87733   4.813  28.129   4.629
19261W        W87734   6.746  41.867   2.748
19262W        W87735  27.538  13.786  12.061
19263W        W87736  33.952   5.752  14.012
19264W        W87737  19.092  14.625   0.927
19265W        W87738  33.960  29.006  12.919
19266W        W87739   8.376  12.632   0.843
19267W        W87740  11.775   1.827  12.875
19268W        W87741  23.656  35.012   2.796
19269W        W87742  33.023   4.789   1.304
19270W        W87743  33.432  25.075   4.721
19271W        W87744  19.220  21.745   1.320
19272W        W87745   9.199   4.240   1.857
19273W        W87746   3.393  14.778  14.774
19274W        W87747  29.568  12.257   4.725
19275W        W87748  34.586  32.935  14.335
19276W        W87749  44.346  39.048  13.308
19277W        W87750  21.082  23.701  12.996
19278W        W87751  42.343   8.820  13.803
19279W        W87752   6.255  10.794   4.836
19280W        W87753   5.926  23.127   3.167
19281W        W87754   7.689  31.467  14.479
19282W        W87755  38.466  40.872   3.777
19283W        W87756   0.353   7.708  11.606
19284W        W87757   8.813  26.692  14.861
19285W        W87758  35.396  22.740  11.563
19286W        W87759  40.800  33.948   4.814
19287W        W87760   7.180  25.539  10.615
19288W        W87761  30.921  21.185  13.905
19289W        W87762  19.054  29.174   3.295
19290W        W87763   4.700  11.766   3.371
19291W        W87764  15.196   4.442  11.603
19292W        W87765  19.684  10.309  12.035
19293W        W87766  31.149  16.584   4.837
19294W        W87767   7.799  33.121  11.087
19295W        W87768   0.922   7.336  10.549
19296W        W87769  13.216   3.913  10.542
19297W        W87770  30.025  39.999  10.988
19298W        W87771   6.211  32.040   1.446
19299W        W87772  14.306   5.313   2.358
19300W        W87773  14.808   5.878   2.885
19301W        W87774  23.163  15.328  12.493
19302W        W87775  38.397  41.502   2.182
19303W        W87776  18.714  31.549   3.155
19304W        W87777  33.953  40.874  11.887
19305W        W87778  30.503  43.856   1.233
19306W        W87779  30.004   2.776  14.786
19307W        W87780   8.252  44.804  14.880
19308W        W87781  33.921  12.308  14.493
19309W        W87782   2.464  42.404   3.292
19310W        W87783  15.255  20.189  11.480
19311W        W87784  38.510  15.236   1.417
19312W        W87785  40.930  41.439  13.519
19313W        W87786  28.086   1.778  10.457
19314W        W87787  16.661  42.921   3.800
19315W        W87788  11.316   1.464  13.869
19316W        W87789  19.580  15.251   4.268
19317W        W87790   2.735  32.998  12.972
19318W        W87791  12.153  10.215  14.775
19319W        W87792  19.752  22.028  14.892
19320W        W87793  40.948  14.118   1.257
19321W        W87794   7.368  40.478  11.931
19322W        W87795  34.525  13.155  10.521
19323W        W87796  41.793  15.237   0.274
19324W        W87797  25.027   2.955   2.663
19325W        W87798  14.598  37.438   4.687
19326W        W87799  43.305  13.191   2.823
19327W        W87800  14.246  15.772   0.837
19328W        W87801  13.187  44.258   0.316
19329W        W87802  11.210  16.681   1.706
19330W        W87803  29.459  14.245  12.973
19331W        W87804  11.622   3.378   3.379
19332W        W87805  39.855  31.492   3.317
19333W        W87806  11.802   7.274  13.438
19334W        W87807  15.146   3.329  10.618
19335W        W87808  25.181  37.855   2.368
19336W        W87809  22.553  16.187  13.459
19337W        W87810  39.416  23.599  14.433
19338W        W87811  31.580   5.264   1.379
19339W        W87812  29.447  14.117  12.521
19340W        W87813  22.569  16.641   3.360
19341W        W87814  23.704  26.499  11.943
19342W        W87815  21.599  34.596  14.833
19343W        W87816  14.641  18.725   2.865
19344W        W87817  17.676  39.843  11.541
19345W        W87818  25.994  39.845  13.872
19346W        W87819  24.616  15.577  11.519
19347W        W87820   5.240   3.268   2.364
19348W        W87821  22.054  16.813   2.230
19349W        W87822  38.020   1.360   1.255
19350W        W87823  11.313  16.630  13.794
19351W        W87824  38.526   7.273   3.690
19352W        W87825  40.382  39.559  12.876
19353W        W87826   8.393  36.591   4.258
19354W        W87827  38.372  42.509   1.867
19355W        W87828   0.250  28.021   1.381
19356W        W87829  38.890  36.529  13.799
19357W        W87830   1.399  31.433   0.462
19358W        W87831  20.206  28.176  10.531
19359W        W87832  20.636  29.473  11.099
19360W        W87833  14.689  38.520   5.744
19361W        W87834   1.864  34.378   4.656
19362W        W87835  10.710  17.301   4.287
19363W        W87836   9.643  16.674   2.728
19364W        W87837  38.506   6.222   1.228
19365W        W87838   4.404  17.087  13.916
19366W        W87839  15.766   6.207   1.708
19367W        W87840  40.403  37.002  12.379
19368W        W87841  25.502   1.404   3.757
19369W        W87842   5.291  42.297   0.728
19370W        W87843  31.932  26.198  11.373
19371W        W87844  25.166   0.847  10.124
19372W        W87845  41.526  19.169   4.199
19373W        W87846  15.292  14.617  14.932
19374W        W87847   8.719   6.875  10.986
19375W        W87848  22.584  13.202  14.794
19376W        W87849  33.430  44.304   4.784
19377W        W87850  30.967  41.957   4.238
19378W        W87851  33.481  37.863   1.315
19379W        W87852  29.000   2.967   4.119
19380W        W87853  20.146  43.014   4.298
19381W        W87854  33.925  15.807  10.442
19382W        W87855  11.788   0.936   0.890
19383W        W87856  41.502  14.620   1.859
19384W        W87857  11.300  10.330   1.285
19385W        W87858  22.578  17.225   0.736
19386W        W87859  41.931  16.102   1.839
19387W        W87860  42.845  34.950   1.704
19388W        W87861  41.012  33.060   0.471
19389W        W87862  32.071   9.814   3.796
19390W        W87863   7.187  44.755   1.224
19391W        W87864  23.117  26.181   2.262
19392W        W87865  40.053  11.137  14.898
19393W        W87866  35.009  40.482  14.345
19394W        W87867  36.481  24.975   1.773
19395W        W87868   6.206  23.687  14.800
19396W        W87869  41.462  17.214  11.074
19397W        W87870   2.422  28.660   3.790
19398W        W87871  17.132  31.602  14.509
19399W        W87872   4.252  18.234   2.890
19400W        W87873  32.111  32.573  12.513
19401W        W87874   2.857  26.657   2.265
19402W        W87875   7.301   6.299   2.406
19403W        W87876  43.954  20.056  13.357
19404W        W87877  32.463  25.657  13.375
19405W        W87878  39.366  16.771   3.179
19406W        W87879  39.057  22.120  11.985
19407W        W87880  25.998  18.263  10.973
19408W        W87881  22.217  26.097  11.057
19409W        W87882  30.087  44.259  11.384
19410W        W87883   7.223  15.167   5.167
19411W        W87884  41.515   1.457   2.792
19412W        W87885   4.273  27.992   3.273
19413W        W87886   3.284  25.610  13.461
19414W        W87887  41.974  17.744   1.890
19415W        W87888  21.517  44.350   1.856
19416W        W87889  22.695  38.008   0.950
19417W        W87890   6.340  23.632  13.399
19418W        W87891   5.727  23.002   1.313
19419W        W87892  43.315  24.710   0.750
19420W        W87893  12.663  14.664  13.807
19421W        W87894  37.940  16.203   4.117
19422W        W87895  44.306   9.267   2.863
19423W        W87896   3.822  28.019  13.892
19424W        W87897  15.642  24.550   3.326
19425W        W87898  27.041  16.663  10.636
19426W        W87899  39.823  21.204  14.025
19427W        W87900   9.767   9.699   4.795
19428W        W87901  17.111   2.755  12.833
19429W        W87902  27.596  27.993   2.784
19430W        W87903   1.939  38.071  13.547
19431W        W87904  14.744  17.660   4.144
19432W        W87905  41.995   0.346   0.346
19433W        W87906  36.565  14.153  14.852
19434W        W87907  43.478  34.400  11.430
19435W        W87908  16.170  24.104  14.350
19436W        W87909  26.676  35.440   3.791
19437W        W87910  24.493  12.740   3.682
19438W        W87911  13.674   5.883  14.871
19439W        W87912  44.334   7.693   1.876
19440W        W87913   6.904  39.404   1.250
19441W        W87914   6.201  15.212  12.963
19442W        W87915  41.312  40.955   2.834
19443W        W87916  40.346  34.979  13.816
19444W        W87917  14.293  43.342   3.172
19445W        W87918  34.870  12.676   3.711
19446W        W87919  17.129  23.535  13.436
19447W        W87920  16.182   9.772  11.533
19448W        W87921  33.436  31.989  11.892
19449W        W87922  23.084  32.124   2.342
19450W        W87923   3.869   9.309   1.724
19451W        W87924   5.799   8.283   0.282
19452W        W87925  41.817  43.462  10.889
19453W        W87926   3.920  38.428  12.454
19454W        W87927  10.660  34.077   0.401
19455W        W87928  21.127  40.329   0.965
19456W        W87929  21.120  20.251  14.313
19457W        W87930   1.883  36.347  13.408
19458W        W87931  29.171  15.263  11.057
19459W        W87932  44.327  24.011   3.846
19460W        W87933  37.918  38.558  11.605
19461W        W87934  26.622  27.612  10.591
19462W        W87935  17.745   6.359  12.926
19463W        W87936  13.737  28.634  12.999
19464W        W87937  39.911  44.365  14.327
19465W        W87938   6.209  38.534   4.168
19466W        W87939  13.696  31.457   1.290
19467W        W87940  17.267  25.710  11.409
19468W        W87941  12.801   9.660  13.328
19469W        W87942   0.405  23.724  11.519
19470W        W87943  28.017   0.347   3.673
19471W        W87944  29.047  34.089   1.868
19472W        W87945  26.657  31.576   4.756
19473W        W87946  28.677  14.606   2.299
19474W        W87947  14.225  44.311   2.695
19475W        W87948  44.285   4.863  14.848
19476W        W87949  11.642  19.225  14.864
19477W        W87950  18.172  24.205  11.494
19478W        W87951   0.321  36.550  12.058
19479W        W87952  37.897  33.518  14.278
19480W        W87953  23.093  15.173   0.414
19481W        W87954  20.257  22.715   3.857
19482W        W87955  34.085   3.342  11.013
19483W        W87956  10.251  22.518  14.768
19484W        W87957  12.287   9.773  14.367
19485W        W87958  41.477   6.880  10.541
19486W        W87959   9.195  11.296   3.802
19487W        W87960  10.827  27.069   0.825
19488W        W87961  27.482   4.802   1.771
19489W        W87962  19.594  12.147   2.289
19490W        W87963  25.150   6.745   3.857
19491W        W87964  12.341  13.272   1.212
19492W        W87965  41.476   2.847  11.947
19493W        W87966  27.068  42.409   3.178
19494W        W87967   7.701  27.554   1.826
19495W        W87968  42.347  19.222  10.959
19496W        W87969   5.900   9.889   4.726
19497W        W87970  37.456  33.127  14.356
19498W        W87971   6.364  22.568  13.000
19499W        W87972   5.869  15.252   1.773
19500W        W87973  20.666  39.548   2.326
19501W        W87974  42.884  34.540  14.439
19502W        W87975  28.962  32.000   1.700
19503W        W87976  29.095  29.082  14.286
19504W        W87977  10.357  38.958  12.057
19505W        W87978  35.562  40.445   2.251
19506W        W87979  44.353  10.717  12.066
19507W        W87980   6.204  21.046  14.306
19508W        W87981  40.978  41.923   4.644
19509W        W87982  36.862   1.401  11.511
19510W        W87983  12.714  11.270   3.223
19511W        W87984  27.172  36.953   3.186
19512W        W87985  25.550   9.772  14.383
19513W        W87986  17.135  32.079   5.249
19514W        W87987   6.307  29.039  13.948
19515W        W87988  38.971  37.078  12.017
19516W        W87989  26.618  41.519  10.618
19517W        W87990  12.652  42.888  11.538
19518W        W87991  44.770  29.966   2.249
19519W        W87992  39.486  32.431  13.962
19520W        W87993  39.013  44.448   0.911
19521W        W87994  44.916  20.187   0.322
19522W        W87995  13.209  21.150  13.949
19523W        W87996   8.275  25.578   0.332
19524W        W87997  35.936   9.189  10.615
19525W        W87998   4.925  17.191  14.338
19526W        W87999  42.365  28.983  12.444
19527W        W88000  42.521  11.780   2.222
19528W        W88001  18.268  34.047   4.243
19529W        W88002   4.274  17.621   3.763
19530W        W88003  43.841   5.903  10.922
19531W        W88004  37.839   5.230  10.889
19532W        W88005  25.511  23.204  11.126
19533W        W88006  20.672  20.650  13.425
19534W        W88007  32.056  26.072   1.745
19535W        W88008  18.094  31.078   4.229
19536W        W88009  43.013  14.741  12.063
19537W        W88010  12.163  19.772  10.460
19538W        W88011  22.044  23.518   4.174
19539W        W88012   2.779  38.935  12.019
19540W        W88013  10.288  27.473  13.366
19541W        W88014  39.461  38.377   2.888
19542W        W88015  19.678  29.082   2.820
19543W        W88016  32.412  18.654  11.106
19544W        W88017   5.721  15.772   4.294
19545W        W88018  40.048  21.675  13.444
19546W        W88019  24.696  24.210   1.889
19547W        W88020  10.664  43.960  12.474
19548W        W88021  11.680   4.774   0.813
19549W        W88022   8.796  37.356   1.862
19550W        W88023   7.804  39.867   0.797
19551W        W88024  33.990  40.843   3.247
19552W        W88025  39.553  31.466   1.720
19553W        W88026  27.554   5.330  11.006
19554W        W88027  25.642  24.649  12.829
19555W        W88028  31.991   7.879   4.718
19556W        W88029  17.567  24.551   1.331
19557W        W88030   5.818  11.231  11.564
19558W        W88031   7.266  32.569   1.233
19559W        W88032  14.673   2.867   4.726
19560W        W88033  22.675  26.504   4.182
19561W        W88034  12.231   3.948  12.370
19562W        W88035  22.106  29.607  10.901
19563W        W88036  26.046  14.156   4.616
19564W        W88037  26.963  13.294  11.529
19565W        W88038  30.523  39.989   3.659
19566W        W88039  18.082  25.637  12.465
19567W        W88040  22.666  33.973  11.106
19568W        W88041   0.444  11.688   4.273
19569W        W88042   9.229  29.616   1.411
19570W        W88043  24.573   6.860   2.805
19571W        W88044  38.968  29.144  12.407
19572W        W88045  31.969  43.855   3.657
19573W        W88046  37.355  18.248   3.146
19574W        W88047   6.814   0.883   2.344
19575W        W88048   1.391  39.346   4.784
19576W        W88049  33.517  37.564   0.362
19577W        W88050  22.716  28.534  10.012
19578W        W88051  38.014  16.750  11.550
19579W        W88052  20.063  44.884  11.409
19580W        W88053  34.588  20.569  10.599
19581W        W88054  35.015  20.214  10.461
19582W        W88055  44.365  17.562   2.878
19583W        W88056  16.314   2.361   3.199
19584W        W88057   7.814   2.816  13.422
19585W        W88058  36.912  41.446  12.391
19586W        W88059  31.635  16.122  12.058
19587W        W88060  17.190   8.748   5.086
19588W        W88061  12.659  43.373   4.224
19589W        W88062   9.881  35.549  11.043
19590W        W88063  23.692  44.487  10.427
19591W        W88064   5.752   2.289  10.497
19592W        W88065   8.843   9.829   3.215
19593W        W88066  39.448  23.138   3.692
19594W        W88067  26.580   2.791   2.261
19595W        W88068  28.678  16.692  12.014
19596W        W88069  14.798  12.720  12.484
19597W        W88070  19.209   1.749   4.138
19598W        W88071  22.727  21.578  11.517
19599W        W88072  25.132   6.744  13.422
19600W        W88073  16.646  21.579   4.747
19601W        W88074   7.213  27.102   0.270
19602W        W88075  39.515  27.519  10.473
19603W        W88076   8.762  23.007   5.639
19604W        W88077  21.128   8.177   0.251
19605W        W88078  39.447  41.428   1.275
19606W        W88079  24.031  34.897  13.876
19607W        W88080  23.068   1.736   4.185
19608W        W88081  10.145   7.759   2.389
19609W        W88082  10.829   3.215   3.324
19610W        W88083  17.296   4.450   0.319
19611W        W88084  40.403  20.105  14.785
19612W        W88085  20.603  41.419  12.886
19613W        W88086  42.851  29.016   0.766
19614W        W88087  44.969  33.995   1.847
19615W        W88088   5.903  25.035   0.838
19616W        W88089  22.583   2.359   0.373
19617W        W88090  20.123  17.703   4.192
19618W        W88091  44.772   4.339  13.422
19619W        W88092  17.658  35.962  11.598
19620W        W88093  24.988   7.211  14.291
19621W        W88094   0.259   6.245   1.363
19622W        W88095  39.496  19.133   4.334
19623W        W88096   8.826  37.553   3.808
19624W        W88097  20.184   3.868  11.384
19625W        W88098  23.735  42.392   4.823
19626W        W88099  25.155  29.505   0.880
19627W        W88100   0.960  41.385  10.628
19628W        W88101  17.640  44.996  10.489
19629W        W88102   1.780  34.897  11.474
19630W        W88103  24.693  40.878   4.120
19631W        W88104  38.408  42.444   2.730
19632W        W88105   9.866  11.334  13.344
19633W        W88106  16.741  13.810   0.918
19634W        W88107  37.935  10.278   1.713
19635W        W88108  44.986   4.909  10.429
19636W        W88109  32.136  21.037   3.870
19637W        W88110   0.364  19.277  13.358
19638W        W88111  42.988  11.266  12.939
19639W        W88112  20.155  21.512  14.441
19640W        W88113  27.036   1.913   2.756
19641W        W88114  30.957  36.540  12.862
19642W        W88115  21.683   2.928   1.700
19643W        W88116  15.731  25.033  12.948
19644W        W88117   6.237  29.661   0.760
19645W        W88118  32.037  35.961   3.798
19646W        W88119  14.307  29.927   2.691
19647W        W88120  23.719  21.047   3.177
19648W        W88121  23.714  12.208   1.904
19649W        W88122   5.226  29.072   3.349
19650W        W88123  18.789   1.251  10.416
19651W        W88124   9.735   6.875  12.351
19652W        W88125   4.763  30.133   4.820
19653W        W88126  23.491  18.686   4.316
19654W        W88127  30.522  25.485  10.114
19655W        W88128   8.810  38.927   2.861
19656W        W88129  44.316  26.674   4.811
19657W        W88130  19.273  39.409  10.551
19658W        W88131  19.042  13.307  13.986
19659W        W88132   6.349  17.076   3.786
19660W        W88133  14.790  44.313  12.035
19661W        W88134  20.061   7.357  11.127
19662W        W88135  37.861  43.303   0.480
19663W        W88136  26.194  17.760  14.393
19664W        W88137  25.207  26.693   4.143
19665W        W88138   8.177  29.628  14.970
19666W        W88139  28.032  13.699   1.870
19667W        W88140   7.871  26.618   2.876
19668W        W88141  20.595  15.716   4.318
19669W        W88142  18.207   2.390  11.456
19670W        W88143  21.589  16.098  10.919
19671W        W88144  33.992   3.334   4.603
19672W        W88145  26.624  42.390   4.832
19673W        W88146  30.464   0.821  13.476
19674W        W88147  16.731   3.323   0.775
19675W        W88148   4.260  14.221  14.276
19676W        W88149  12.129  34.420   4.304
19677W        W88150  40.520  32.563  13.307
19678W        W88151   4.249  40.517   0.383
19679W        W88152  11.781  12.803  10.928
19680W        W88153  44.818   7.356   0.843
19681W        W88154  13.624  33.591  10.405
19682W        W88155  21.051  26.693   4.676
19683W        W88156  10.214  20.628   1.401
19684W        W88157   7.266  33.494  14.941
19685W        W88158   4.888  35.395   0.798
19686W        W88159  42.292  39.945   4.620
19687W        W88160   7.216  31.970   3.288
19688W        W88161  40.415  21.232   0.425
19689W        W88162  44.771  20.138   2.769
19690W        W88163  25.480  39.044  12.426
19691W        W88164  42.300  11.657   0.445
19692W        W88165  11.202  36.514   1.919
19693W        W88166   7.856  41.465   2.730
19694W        W88167   2.225  29.481  13.835
19695W        W88168   4.799  32.536  14.766
19696W        W88169  17.283  37.985  14.348
19697W        W88170  20.218  24.549   1.316
19698W        W88171  13.226   1.239   0.283
19699W        W88172  41.442  30.070  11.532
19700W        W88173  37.538   1.283   3.776
19701W        W88174   6.408  27.597   1.777
19702W        W88175  14.740  15.101  10.454
19703W        W88176  10.176  24.005   2.202
19704W        W88177  38.338  34.577  13.453
19705W        W88178  20.726  10.668  10.437
19706W        W88179   0.783  26.115   1.258
19707W        W88180  40.340  33.889  13.518
19708W        W88181  30.158  41.797  11.050
19709W        W88182  24.122  12.130  10.025
19710W        W88183  36.863  44.444  12.861
19711W        W88184  36.003  11.823   4.671
19712W        W88185  40.860  17.075   4.828
19713W        W88186   1.304  27.538  10.915
19714W        W88187   4.763  44.773   3.698
19715W        W88188  23.224  22.141  13.896
19716W        W88189  35.989  37.352   2.853
19717W        W88190   5.891  17.275   5.112
19718W        W88191  33.991  22.697  13.371
19719W        W88192  32.031   5.223   3.796
19720W        W88193   5.707   9.186   4.272
19721W        W88194   8.679  14.177   3.271
19722W        W88195  18.277   5.721   1.241
19723W        W88196   2.382  43.458   1.795
19724W        W88197  43.804  37.411  11.553
19725W        W88198  39.932  29.516   4.220
19726W        W88199  12.270  37.016   3.198
19727W        W88200   6.185   4.797  10.410
19728W        W88201  31.598  23.489  14.484
19729W        W88202  44.765  12.719   0.943
19730W        W88203  10.228  31.542  13.944
19731W        W88204  44.426  29.108  13.906
19732W        W88205  30.433  12.811  12.844
19733W        W88206  40.909   8.235  12.457
19734W        W88207  40.476  37.360   2.253
19735W        W88208  32.615   9.808  13.504
19736W        W88209   2.865  35.877   0.366
19737W        W88210   3.867  30.631   0.825
19738W        W88211  14.213   4.407  14.323
19739W        W88212  10.369   8.163  11.516
19740W        W88213   9.371  16.200   3.197
19741W        W88214   2.419   8.800   0.906
19742W        W88215  12.155  41.308  14.449
19743W        W88216  13.676   1.881  10.497
19744W        W88217  14.321  18.616  13.432
19745W        W88218   5.406  38.352  12.345
19746W        W88219  22.530  13.630   0.406
19747W        W88220   7.176  42.921  14.831
19748W        W88221   4.357  35.368  13.416
19749W        W88222  42.297  41.986  11.052
19750W        W88223  39.380   9.705  11.576
19751W        W88224   0.409   2.724  11.509
19752W        W88225  17.074  25.487  11.999
19753W        W88226  11.211  19.275  12.908
19754W        W88227  23.229  28.992  14.498
19755W        W88228  39.049   0.764  14.847
19756W        W88229  11.206   1.473  14.886
19757W        W88230  41.297  40.437   0.785
19758W        W88231  43.348  25.965  10.567
19759W        W88232  39.349  40.491   4.351
19760W        W88233   6.791   6.417   2.335
19761W        W88234   9.166  11.329   2.752
19762W        W88235   7.743  11.647   2.271
19763W        W88236   9.654   1.878   4.802
19764W        W88237  18.262   8.355   4.833
19765W        W88238   4.378  14.127  10.024
19766W        W88239  33.091   9.172   1.847
19767W        W88240  18.653  38.832  10.476
19768W        W88241  11.338  19.547  12.078
19769W        W88242  44.856  33.606  11.469
19770W        W88243  21.163  10.305   4.625
19771W        W88244  26.189   2.340   0.965
19772W        W88245  14.263  24.008   1.440
19773W        W88246  43.940   8.686  14.901
19774W        W88247   0.378  23.002  11.128
19775W        W88248   6.836  41.858  11.050
19776W        W88249  10.661  25.110  11.493
19777W        W88250   0.949  10.749  12.552
19778W        W88251   1.390  44.960  14.015
19779W        W88252  44.427  27.587  14.358
19780W        W88253  18.560   4.246  10.928
19781W        W88254   1.329  42.456  10.404
19782W        W88255  27.197  12.840  14.381
19783W        W88256  23.116  31.143  13.335
19784W        W88257  20.732   6.279  13.332
19785W        W88258  14.298  26.591   2.858
19786W        W88259  18.587  40.490   5.319
19787W        W88260  44.398   6.237   3.285
19788W        W88261  28.177  43.008   5.312
19789W        W88262  38.461  38.374   2.850
19790W        W88263  19.690  10.281   0.398
19791W        W88264  23.041   1.785  13.342
19792W        W88265  39.560  21.669  14.444
19793W        W88266  40.986  28.598   0.405
19794W        W88267   6.791  25.544   2.391
19795W        W88268   2.433   0.949  12.898
19796W        W88269  33.927  10.336  11.950
19797W        W88270  14.119  26.153  13.544
19798W        W88271   0.454  40.469  11.423
19799W        W88272  31.141  31.934   0.789
19800W        W88273  15.268  26.974   4.288
19801W        W88274  29.440  38.030  13.447
19802W        W88275  24.220  33.558   1.923
19803W        W88276  23.567  32.541  11.059
19804W        W88277  24.562  31.052  11.095
19805W        W88278  13.250  17.726  10.987
19806W        W88279   9.766  17.688   4.146
19807W        W88280   8.212  41.998  12.092
19808W        W88281   2.790  19.651   3.172
19809W        W88282  28.633  23.110   2.360
19810W        W88283  25.014  19.068  13.866
19811W        W88284   2.800  16.284  10.917
19812W        W88285  35.594  13.774  12.920
19813W        W88286  23.180  28.181   4.831
19814W        W88287  20.037   3.732   2.374
19815W        W88288  11.752  40.999   1.853
19816W        W88289   7.375   4.344  12.436
19817W        W88290  40.377  22.678  10.474
19818W        W88291  40.000  20.664  11.880
19819W        W88292  38.859  30.447   1.850
19820W        W88293   6.800  16.207   1.863
19821W        W88294  37.959  10.697  11.480
19822W        W88295  24.592  21.263  14.027
19823W        W88296   1.788   1.363  14.507
19824W        W88297  14.329  21.632  12.977
19825W        W88298   2.407   2.897  13.414
19826W        W88299   3.407  34.119   2.418
19827W        W88300  42.441  23.603   3.306
19828W        W88301  25.190   4.389   3.862
19829W        W88302  42.803  27.144  12.384
19830W        W88303   1.920  42.957   4.641
19831W        W88304  10.695  28.666  14.879
19832W        W88305  41.938   7.313   0.884
19833W        W88306  13.275  30.496  14.903
19834W        W88307  26.988  24.062   4.609
19835W        W88308   9.802  13.631  11.966
19836W        W88309  33.105  27.966  11.904
19837W        W88310  34.534  13.671  13.042
19838W        W88311  41.848  11.351   0.354
19839W        W88312  19.216   8.890  13.385
19840W        W88313  39.865   4.310  14.920
19841W        W88314  21.214  33.585  13.908
19842W        W88315  14.168  20.125  13.413
19843W        W88316  33.111  22.052   2.179
19844W        W88317  37.370  44.401  10.555
19845W        W88318  40.348  31.131   3.368
19846W        W88319  39.459   9.188  13.918
19847W        W88320  39.368  40.874  14.347
19848W        W88321   0.258   6.841   4.145
19849W        W88322  25.519  28.532  10.989
19850W        W88323   2.773  23.052  12.399
19851W        W88324   0.782  21.140  10.520
19852W        W88325  43.017  10.756   3.652
19853W        W88326  20.274  31.954   3.286
19854W        W88327  27.448  43.845   0.959
19855W        W88328  16.716   2.351  13.930
19856W        W88329  34.030  32.066   3.851
19857W        W88330  44.845  21.225   3.257
19858W        W88331   8.898   2.882  13.839
19859W        W88332  19.238   8.785   3.369
19860W        W88333  37.876  30.556   3.267
19861W        W88334  34.998  28.993  13.406
19862W        W88335  36.099  28.678  14.431
19863W        W88336  40.944  20.137  14.413
19864W        W88337  10.314  20.137  12.549
19865W        W88338  12.669  30.638  12.085
19866W        W88339   7.405  11.230  13.463
19867W        W88340  13.810   0.317   0.809
19868W        W88341  39.436  33.099   2.813
19869W        W88342  22.628  34.558  13.937
19870W        W88343  32.142  26.111   4.607
19871W        W88344  17.123  43.823  12.929
19872W        W88345  43.833  19.706   1.296
19873W        W88346   0.900  40.384   4.259
19874W        W88347  27.106   4.356   2.672
19875W        W88348   0.352  20.538  14.367
19876W        W88349  37.965  18.089  12.825
19877W        W88350   3.393   6.841  13.532
19878W        W88351  23.016  29.993   0.935
19879W        W88352  40.405  30.646   4.304
19880W        W88353  37.871  35.919   5.316
19881W        W88354  21.701   1.807   4.262
19882W        W88355  33.952  10.285  11.406
19883W        W88356  11.373   7.691  10.495
19884W        W88357   1.806  23.552  10.893
19885W        W88358  32.080  14.777  10.950
19886W        W88359   8.663   2.274   1.251
19887W        W88360  35.048  28.034  10.069
19888W        W88361  30.094  26.622   0.930
19889W        W88362  33.051  12.761  14.026
19890W        W88363  12.221  34.406  12.038
19891W        W88364   5.262  17.126  10.992
19892W        W88365  15.090   2.888  13.487
19893W        W88366   7.906  39.403  12.519
19894W        W88367  21.656  42.516   2.188
19895W        W88368  10.840  29.535   2.210
19896W        W88369   0.957  43.383   2.846
19897W        W88370  26.528  22.058  13.386
19898W        W88371  39.822  34.095  10.546
19899W        W88372   5.770  13.165  10.095
19900W        W88373  37.491   8.754  13.325
19901W        W88374   7.779  16.149   2.799
19902W        W88375  16.165  26.043   2.664
19903W        W88376  17.584  20.245   1.812
19904W        W88377  38.471  36.372  12.071
19905W        W88378  18.611  17.747   3.635
19906W        W88379  24.212  11.684   5.127
19907W        W88380  31.450   3.340  14.362
19908W        W88381  28.047  18.712  13.333
19909W        W88382  15.602  37.840  11.371
19910W        W88383  24.511  28.963   4.762
19911W        W88384  35.388   2.819  10.423
19912W        W88385  26.544  26.047   4.154
19913W        W88386  23.189   3.825  12.558
19914W        W88387  23.526  32.041   3.761
19915W        W88388   0.454  22.638   3.146
19916W        W88389  25.056  25.587  14.778
19917W        W88390  40.446  12.834   3.710
19918W        W88391   3.404   7.841  12.427
19919W        W88392   2.740  38.332  13.429
19920W        W88393  19.600  28.492   1.326
19921W        W88394  12.140  11.625   2.900
19922W        W88395  40.547  32.580   2.761
19923W        W88396  26.074  30.508   3.827
19924W        W88397   5.280  36.077  11.071
19925W        W88398  41.532  16.617  12.838
19926W        W88399  11.642  25.185  10.109
19927W        W88400   9.193  33.434   9.673
19928W        W88401  38.060  29.948   0.316
19929W        W88402  41.954  18.060   0.844
19930W        W88403  19.668   8.305  10.485
19931W        W88404   4.253  10.363  12.035
19932W        W88405  44.272  16.115  11.442
19933W        W88406  16.174  17.235  13.511
19934W        W88407  44.406  29.023  10.484
19935W        W88408  42.335  37.352   1.853
19936W        W88409  42.891  20.711  12.450
19937W        W88410  18.704   5.254   0.965
19938W        W88411  28.945   4.257   4.647
19939W        W88412  42.416   8.886  10.930
19940W        W88413  21.591  31.597   2.803
19941W        W88414  43.787  14.188   3.757
19942W        W88415  32.952  24.011  13.468
19943W        W88416  39.391  21.263   3.803
19944W        W88417  33.586  43.957   3.841
19945W        W88418  41.900  21.154   3.696
19946W        W88419  41.999  14.300   1.303
19947W        W88420  38.868  14.734   2.751
19948W        W88421  19.546  20.747  11.447
19949W        W88422  16.610  33.486  12.407
19950W        W88423  25.075  11.180  12.999
19951W        W88424   9.387  32.495   4.346
19952W        W88425  43.509  22.713   2.329
19953W        W88426  43.001  32.571   0.857
19954W        W88427  28.163  39.488  14.419
19955W        W88428  19.634  29.979   3.801
19956W        W88429  22.163  38.024  12.029
19957W        W88430  32.421   7.256   1.852
19958W        W88431   5.886  19.138  13.012
19959W        W88432  21.704  43.804   0.958
19960W        W88433  22.566  12.145  14.490
19961W        W88434  29.507  22.665   0.931
19962W        W88435  28.130  27.085   1.775
19963W        W88436  11.366  13.738  10.908
19964W        W88437  17.269  17.300  14.340
19965W        W88438  16.251   8.793  11.975
19966W        W88439  30.044  26.598  11.583
19967W        W88440  32.895  32.554   4.222
19968W        W88441  38.056  16.698  13.536
19969W        W88442  33.527  14.826  10.537
19970W        W88443  14.628  33.620  13.493
19971W        W88444   2.765  21.700   1.258
19972W        W88445  25.686  17.612   4.346
19973W        W88446  12.824  24.662  12.484
19974W        W88447  42.368  14.281   2.324
19975W        W88448   0.365  38.022   3.150
19976W        W88449  17.158  29.066   0.345
19977W        W88450  22.530  34.414   5.262
19978W        W88451   1.872  31.105   4.215
19979W        W88452  32.584  35.867   3.288
19980W        W88453   8.209   2.726   0.814
19981W        W88454  19.743  26.516  12.927
19982W        W88455  15.144  41.388   3.346
19983W        W88456  14.796   1.940   1.258
19984W        W88457  12.807  17.064  10.418
19985W        W88458  15.635  26.596   2.750
19986W        W88459  17.117  37.038   2.761
19987W        W88460   2.276  35.414  11.955
19988W        W88461  33.109  33.946  13.029
19989W        W88462  16.155  15.783   0.258
19990W        W88463  15.126  15.326   3.800
19991W        W88464  42.984  39.339  12.047
19992W        W88465  18.622  36.045  10.957
19993W        W88466  29.573  25.585   5.598
19994W        W88467  13.306  20.107   1.718
19995W        W88468  44.830  18.766   4.201
19996W        W88469  26.525   6.684   1.863
19997W        W88470  22.672  14.777  13.949
19998W        W88471  28.538  26.066  12.425
19999W        W88472  22.622  23.149  14.514
20000W        W88473  15.815  11.270   3.864
20001W        W88474   6.221  14.762  12.883
20002W        W88475  44.362  40.542   1.319
20003W        W88476  38.035  28.945  14.931
20004W        W88477  41.497  26.635   0.727
20005W        W88478  31.564   9.217  11.115
20006W        W88479  37.889  21.225  14.988
20007W        W88480  39.035   2.263   0.822
20008W        W88481  29.440   7.903   3.770
20009W        W88482  11.743  11.141  11.584
20010W        W88483  14.277   8.165  13.503
20011W        W88484  15.767  15.602   1.898
20012W        W88485  29.447  28.181   3.637
20013W        W88486  27.568  36.956   1.885
20014W        W88487  34.027  17.797   0.440
20015W        W88488  24.550  28.602  14.346
20016W        W88489   7.379  12.704  11.532
20017W        W88490  20.709  13.827  12.045
20018W        W88491   7.847  26.551   2.400
20019W        W88492  25.018  39.888  14.336
20020W        W88493  33.990  35.040  12.916
20021W        W88494  24.623   4.859  11.098
20022W        W88495   9.338  10.654   2.759
20023W        W88496  30.124  33.943   1.782
20024W        W88497   1.268   0.913  11.582
20025W        W88498  43.994  20.617   2.704
20026W        W88499  40.864  17.588   2.698
20027W        W88500  15.746  26.558  11.104
20028W        W88501  17.304  22.740   3.298
20029W        W88502  23.658  29.996  11.390
20030W        W88503  21.142   2.417  12.574
20031W        W88504  29.451   7.901  12.558
20032W        W88505  12.674  33.033  12.096
20033W        W88506  33.976  26.159   1.732
20034W        W88507   0.938  30.056   4.241
20035W        W88508   8.288  18.781   4.793
20036W        W88509  30.529  44.260  12.507
20037W        W88510   9.664   5.233  12.432
20038W        W88511  35.450  35.384   2.672
20039W        W88512  24.648   7.825  12.859
20040W        W88513  31.987  41.393   5.729
20041W        W88514  10.810  29.123  10.591
20042W        W88515  31.122   0.384   4.617
20043W        W88516   3.721  26.678   3.216
20044W        W88517  14.625  27.567   4.301
20045W        W88518  30.025  40.494   4.706
20046W        W88519  28.529  23.674   0.477
20047W        W88520  12.852   5.926   4.156
20048W        W88521  17.251   9.366   4.775
20049W        W88522  43.454   2.397  14.422
20050W        W88523  23.597  17.661   2.281
20051W        W88524  43.846  24.626  14.290
20052W        W88525   9.724  25.551   1.845
20053W        W88526  14.826   4.448  12.863
20054W        W88527  25.054  30.921   3.237
20055W        W88528   6.348   6.744  14.834
20056W        W88529   8.895   9.808  14.858
20057W        W88530  16.748  30.105   3.157
20058W        W88531  43.324  10.374  12.534
20059W        W88532  34.474   8.245  10.563
20060W        W88533  39.002   6.882   3.844
20061W        W88534  42.356  33.072   1.896
20062W        W88535  14.663  40.960  11.488
20063W        W88536  13.288  35.959  14.846
20064W        W88537  28.049  13.623   3.713
20065W        W88538  16.669   7.293  14.420
20066W        W88539  36.017  39.384   2.829
20067W        W88540   9.379  43.349   2.205
20068W        W88541  30.651  24.536  14.443
20069W        W88542  23.673   2.392  11.911
20070W        W88543  29.633   3.752  10.561
20071W        W88544  44.796  42.305  14.494
20072W        W88545  31.554   0.913   1.884
20073W        W88546  36.555  26.973   2.725
20074W        W88547  11.800  36.506   1.736
20075W        W88548  38.844  14.729  11.408
20076W        W88549  23.525  38.945  14.505
20077W        W88550  15.632   5.863   0.761
20078W        W88551  13.630  11.285   2.246
20079W        W88552   8.815  16.189   4.829
20080W        W88553  19.189   6.321  13.851
20081W        W88554   0.357   7.247  11.077
20082W        W88555  21.020  35.366  12.454
20083W        W88556  39.473  31.402  11.990
20084W        W88557  24.694  20.609  11.902
20085W        W88558  20.683  26.642  11.477
20086W        W88559  22.057   5.338  11.613
20087W        W88560  44.992   8.307  11.983
20088W        W88561  39.474  42.519  14.311
20089W        W88562  10.765   7.788  10.518
20090W        W88563  27.448  37.004  13.434
20091W        W88564  17.181  37.386   0.250
20092W        W88565  33.081  44.864  11.030
20093W        W88566  36.020  34.052   0.366
20094W        W88567   3.347  26.156  10.410
20095W        W88568  10.265  29.979  14.392
20096W        W88569  24.719   5.334  12.366
20097W        W88570  22.150  31.904   2.848
20098W        W88571   8.350  37.338   1.251
20099W        W88572  36.854  35.080  10.929
20100W        W88573  42.443   2.265   0.961
20101W        W88574  37.397  24.112  12.402
20102W        W88575  30.550   0.295  12.894
20103W        W88576   8.713  38.957   1.860
20104W        W88577  23.058  22.688  10.976
20105W        W88578  25.688  27.599   4.752
20106W        W88579  37.940   5.431   2.722
20107W        W88580   2.745  27.955   0.249
20108W        W88581   0.422  25.592   1.382
20109W        W88582  23.662  23.160  13.967
20110W        W88583  13.120  21.117   2.672
20111W        W88584  32.576  11.243  11.882
20112W        W88585   2.880   9.650   4.312
20113W        W88586  13.249  38.867  10.505
20114W        W88587  31.024  33.392  13.535
20115W        W88588   6.907   8.681   3.770
20116W        W88589  35.569  32.964   4.802
20117W        W88590  26.086   1.783  14.940
20118W        W88591  10.258   4.721  12.388
20119W        W88592   5.368   9.769  13.942
20120W        W88593  16.295   0.843  10.117
20121W        W88594  24.162  28.951  11.095
20122W        W88595  26.694   0.349  13.820
20123W        W88596   8.364  14.225   2.186
20124W        W88597  23.136   8.204  11.083
20125W        W88598  39.876  26.086  14.425
20126W        W88599  28.130  44.334  14.003
20127W        W88600  33.891  39.878   5.220
20128W        W88601  41.295  43.509  14.966
20129W        W88602  23.180  41.457   1.821
20130W        W88603  26.669  19.265   0.899
20131W        W88604  39.972  17.608   1.337
20132W        W88605   7.877  23.129   2.762
20133W        W88606  24.593  36.486   3.834
20134W        W88607  28.434  38.557  13.050
20135W        W88608   4.256  38.334  13.911
20136W        W88609  34.394   6.243   1.420
20137W        W88610  37.398   5.253   2.847
20138W        W88611  36.500  19.152  14.878
20139W        W88612  36.097   0.838   2.281
20140W        W88613  10.233  38.894   1.707
20141W        W88614  20.195  36.053  14.292
20142W        W88615   1.799  44.867   3.839
20143W        W88616  26.057  43.017  14.988
20144W        W88617  24.126  16.732   2.311
20145W        W88618  31.511   6.745   3.774
20146W        W88619  30.562  23.562  14.871
20147W        W88620  22.622  14.689   3.221
20148W        W88621  33.082   2.340  12.946
20149W        W88622  13.233  38.927  13.498
20150W        W88623   3.324  33.471   3.357
20151W        W88624  43.352  31.932   2.266
20152W        W88625  26.187  31.972   4.799
20153W        W88626  44.941  13.818   2.866
20154W        W88627  25.520  40.328  11.929
20155W        W88628  29.147  27.954  12.916
20156W        W88629  15.298  16.161   3.233
20157W        W88630  44.851  10.294   0.924
20158W        W88631  35.017  29.947  11.907
20159W        W88632  18.725  23.571  12.002
20160W        W88633  33.421  19.745  12.040
20161W        W88634  14.670  23.230  14.858
20162W        W88635  34.608   3.832  10.405
20163W        W88636   7.785  10.328   1.813
20164W        W88637  36.894  14.144  11.060
20165W        W88638   5.702   8.288  13.378
20166W        W88639  35.986  19.728   4.623
20167W        W88640   2.738   0.312   4.622
20168W        W88641  20.173   8.662  13.963
20169W        W88642  24.997  32.596   2.745
20170W        W88643  28.947   0.826   2.897
20171W        W88644   2.819  22.502  11.502
20172W        W88645  29.668  21.756   0.914
20173W        W88646  21.535  29.124  14.823
20174W        W88647  35.385  13.620   2.390
20175W        W88648  17.072  26.640   1.258
20176W        W88649  30.493   9.885  14.426
20177W        W88650  37.572  15.679   5.137
20178W        W88651  22.210  23.140   4.297
20179W        W88652  30.508  16.201   0.848
20180W        W88653  43.454  13.112   3.824
20181W        W88654  31.406  12.623  11.088
20182W        W88655  38.918  25.624  12.035
20183W        W88656  41.950  16.100   0.246
20184W        W88657  28.997  18.603   1.443
20185W        W88658   9.736  35.076  11.094
20186W        W88659  36.849   1.974  10.514
20187W        W88660   7.341  15.777   3.355
20188W        W88661  44.423  25.100   4.650
20189W        W88662  17.766  38.900  13.926
20190W        W88663  11.688   5.348   0.874
20191W        W88664  39.994  17.269  11.549
20192W        W88665   6.804  41.797  10.509
20193W        W88666  38.872   7.344   4.779
20194W        W88667  13.251   0.793   3.646
20195W        W88668  43.367  25.616  14.854
20196W        W88669  16.216   1.256   4.250
20197W        W88670  19.579  34.057   3.300
20198W        W88671  32.080  36.414  12.055
20199W        W88672  28.996   4.445  14.775
20200W        W88673  29.103   2.455   0.403
20201W        W88674   1.321  38.943   1.386
20202W        W88675  28.522  30.957   3.179
20203W        W88676   6.232  24.152   3.228
20204W        W88677  38.872  27.193  12.542
20205W        W88678  11.159  31.648   0.938
20206W        W88679  41.039  28.118   1.892
20207W        W88680  35.515  44.945   2.196
20208W        W88681  17.726  22.699  11.880
20209W        W88682  26.031  21.734  12.837
20210W        W88683  37.024  29.573   4.127
20211W        W88684  10.376  41.040   0.816
20212W        W88685  25.605  12.132   0.455
20213W        W88686   8.220  40.014  14.918
20214W        W88687  22.193   9.774  12.425
20215W        W88688  14.729   1.844  10.536
20216W        W88689  31.583  42.471   4.803
20217W        W88690  17.746   3.775  10.964
20218W        W88691  15.798  38.380   5.255
20219W        W88692  29.043  13.121  14.769
20220W        W88693  11.156  42.450   2.181
20221W        W88694   1.871  16.574  14.789
20222W        W88695   9.820  12.231  14.780
20223W        W88696  34.403  30.147  11.443
20224W        W88697  35.391  13.679   2.768
20225W        W88698  27.475  24.111   0.874
20226W        W88699  29.645  22.565  13.016
20227W        W88700   8.810   8.161  10.456
20228W        W88701   7.791  20.751   2.891
20229W        W88702  22.116  35.559   3.199
20230W        W88703  37.557  35.045   3.736
20231W        W88704  15.723  19.732   4.233
20232W        W88705  11.131  37.074  14.849
20233W        W88706   8.211   5.331   3.759
20234W        W88707   0.809   9.244   1.211
20235W        W88708  34.076   2.880   3.356
20236W        W88709   8.740   9.841  10.981
20237W        W88710  18.701   9.787   4.707
20238W        W88711  11.294   8.826   4.172
20239W        W88712  20.267  11.287   3.367
20240W        W88713  34.912   4.798  14.844
20241W        W88714  41.462   8.332  14.994
20242W        W88715   4.388  34.389  14.801
20243W        W88716   4.440  39.368  13.861
20244W        W88717  36.570  38.918  10.553
20245W        W88718  30.437  31.546   2.739
20246W        W88719   0.813  21.133   1.810
20247W        W88720  39.945  26.459   1.771
20248W        W88721  13.684  18.149   1.332
20249W        W88722  42.447  16.777   2.195
20250W        W88723  36.398  26.458  13.321
20251W        W88724  39.977  22.179  13.337
20252W        W88725   1.465  42.860  11.592
20253W        W88726  20.029  23.186  14.987
20254W        W88727   5.719  18.213   0.423
20255W        W88728  14.334  18.091  11.035
20256W        W88729   2.740  23.227  11.513
20257W        W88730  23.700   0.314   3.699
20258W        W88731  13.701  28.035  14.845
20259W        W88732  16.743  35.924  10.918
20260W        W88733  39.003  10.655  10.969
20261W        W88734  39.821  25.032  14.863
20262W        W88735  42.824   9.782   2.256
20263W        W88736  26.561  36.883   1.731
20264W        W88737  40.540  15.204  10.509
20265W        W88738  11.749  42.840   4.259
20266W        W88739   1.269  18.716   3.703
20267W        W88740  22.165  16.296  13.978
20268W        W88741  17.728  38.390   1.332
20269W        W88742  42.850   6.811   3.314
20270W        W88743  16.251  43.966   1.316
20271W        W88744  10.638   4.408   4.831
20272W        W88745  21.127  26.703   3.705
20273W        W88746  29.073  26.623  14.497
20274W        W88747  27.941   7.256   2.270
20275W        W88748  36.002  27.515   1.346
20276W        W88749  21.591  33.386  14.308
20277W        W88750  13.714  12.650  11.106
20278W        W88751  24.631   6.271   3.340
20279W        W88752   7.739  23.713   3.789
20280W        W88753  15.103  15.593   3.682
20281W        W88754  31.993   0.780  12.520
20282W        W88755  40.328  22.097  11.596
20283W        W88756  15.610   6.781   2.358
20284W        W88757   6.320  15.242  12.412
20285W        W88758   7.334   9.793   4.158
20286W        W88759  10.747  29.463  14.356
20287W        W88760  17.232  35.468   1.414
20288W        W88761  22.554  44.459   5.086
20289W        W88762  43.414   4.266   0.458
20290W        W88763  34.432  32.097   3.156
20291W        W88764  44.413  37.381  12.848
20292W        W88765   0.905   4.876   4.676
20293W        W88766  35.944  44.338  11.478
20294W        W88767  44.875  12.768  10.550
20295W        W88768  25.617   2.753   1.762
20296W        W88769   3.952  41.313   5.313
20297W        W88770  43.359  41.452  13.839
20298W        W88771  17.256  16.120  14.784
20299W        W88772   3.428  28.580  10.978
20300W        W88773   2.229  12.731   4.174
20301W        W88774  22.578  28.678   2.222
20302W        W88775  40.961  17.573   4.641
20303W        W88776   7.255  12.166  14.433
20304W        W88777   2.312  11.782  14.932
20305W        W88778  35.376  17.784  11.476
20306W        W88779  18.250  11.362   0.471
20307W        W88780  14.804  18.626   1.263
20308W        W88781  21.566  40.822   1.235
20309W        W88782  35.018  19.050   1.313
20310W        W88783  21.133  40.994   0.297
20311W        W88784  20.211  18.220  13.353
20312W        W88785  17.188  19.055   3.678
20313W        W88786   5.756  21.565  11.896
20314W        W88787  42.838   6.310  11.461
20315W        W88788   6.380  11.201  10.999
20316W        W88789  26.016   3.894   1.313
20317W        W88790  24.582  19.285   3.377
20318W        W88791  25.618  17.556   1.275
20319W        W88792  16.797   6.794  14.997
20320W        W88793  41.974  28.658  10.904
20321W        W88794  25.526  37.566  12.495
20322W        W88795   6.777   2.787  10.434
20323W        W88796  15.685  34.501   2.842
20324W        W88797  33.474   9.843   1.760
20325W        W88798  41.376  19.080  14.816
20326W        W88799  43.853  37.561  14.004
20327W        W88800  31.512  36.357   2.378
20328W        W88801  15.096  40.041  14.503
20329W        W88802  35.597  32.481  11.390
20330W        W88803  24.111  29.482  12.557
20331W        W88804   8.760  28.617  14.905
20332W        W88805  20.149  14.652  10.550
20333W        W88806   1.266  33.121   4.664
20334W        W88807  44.765  22.635  10.627
20335W        W88808  24.698  16.658  11.544
20336W        W88809   3.901  44.275   1.870
20337W        W88810  36.450  10.844   3.312
20338W        W88811  38.402  24.589  14.002
20339W        W88812  34.453  20.079  12.867
20340W        W88813   0.987  10.775   2.804
20341W        W88814  37.865   7.771   1.229
20342W        W88815  16.151   9.322  12.357
20343W        W88816  40.052  27.049  14.509
20344W        W88817  38.004  11.769   4.235
20345W        W88818  17.748  17.144   4.806
20346W        W88819   2.795  23.121  14.781
20347W        W88820  27.139  36.917   2.180
20348W        W88821   6.809  13.264  14.967
20349W        W88822  39.479  10.250   1.217
20350W        W88823  18.791   0.282   9.981
20351W        W88824  26.107  24.053  13.036
20352W        W88825   0.458  25.698  11.960
20353W        W88826  11.653  19.066   4.829
20354W        W88827  18.078  29.581  11.448
20355W        W88828  12.747  33.967  11.555
20356W        W88829   4.733  12.359   1.780
20357W        W88830   9.685  24.666   3.746
20358W        W88831  23.502   9.770   1.246
20359W        W88832  44.402  38.000  14.857
20360W        W88833  16.312   5.264  10.575
20361W        W88834  31.463  38.835   3.657
20362W        W88835  40.513  29.551  13.393
20363W        W88836  31.971  13.341   4.766
20364W        W88837   1.373   8.204   2.693
20365W        W88838   9.809  39.355   4.337
20366W        W88839  21.579  37.934   1.923
20367W        W88840  20.190  11.769   1.294
20368W        W88841  42.880  23.579   0.359
20369W        W88842  16.185  29.052  11.429
20370W        W88843  41.940  21.049  12.965
20371W        W88844  28.652  35.489  14.983
20372W        W88845  38.349   3.906  10.973
20373W        W88846  43.937  28.087   4.186
20374W        W88847  37.871  29.623   4.695
20375W        W88848  25.674  27.173   4.660
20376W        W88849  24.685  18.068   1.869
20377W        W88850  19.054   0.388   1.806
20378W        W88851  33.449  26.696  10.566
20379W        W88852  13.108  21.239   4.821
20380W        W88853  42.794  37.433  13.849
20381W        W88854   5.924  17.789  11.101
20382W        W88855  35.464  32.577   1.332
20383W        W88856  26.681  37.532  12.858
20384W        W88857  30.112  31.490   0.352
20385W        W88858  40.880  33.910   2.844
20386W        W88859   3.367  22.673  11.988
20387W        W88860  38.483  30.161   0.288
20388W        W88861  42.410  28.102   0.922
20389W        W88862  44.808  17.777   3.147
20390W        W88863   8.311  44.755   3.808
20391W        W88864  14.822   8.277  13.840
20392W        W88865  14.177   8.724  12.903
20393W        W88866  32.045  28.470  11.379
20394W        W88867  18.600  43.440  12.915
20395W        W88868   8.807  32.446  13.922
20396W        W88869  21.078   7.787   1.758
20397W        W88870  27.508  29.046   3.167
20398W        W88871  42.029  18.684  13.503
20399W        W88872  34.958  44.318   1.292
20400W        W88873  21.518   2.397   2.713
20401W        W88874   5.756  16.262   0.896
20402W        W88875  11.634  22.724   2.337
20403W        W88876  37.076  39.823   4.287
20404W        W88877  31.950   2.455   0.401
20405W        W88878  30.063  17.218  12.015
20406W        W88879  37.337  41.296   3.160
20407W        W88880  42.385  30.006   0.457
20408W        W88881  14.246   8.322   4.814
20409W        W88882  10.228  36.089   2.695
20410W        W88883   4.872  18.137   4.697
20411W        W88884  22.645  15.669  10.926
20412W        W88885  32.467  33.897   4.655
20413W        W88886  39.532  15.307   4.239
20414W        W88887  39.556   6.898   3.819
20415W        W88888  13.748  16.633  14.782
20416W        W88889  34.576  42.780  12.857
20417W        W88890   9.153  13.842  11.476
20418W        W88891  37.549   7.273   3.749
20419W        W88892  18.147   3.329  11.492
20420W        W88893  39.357   1.474   2.230
20421W        W88894  43.375  39.430   0.484
20422W        W88895  31.617  13.720   3.682
20423W        W88896  24.708  37.989  12.544
20424W        W88897  27.631  20.031  12.922
20425W        W88898  32.136  26.981   2.389
20426W        W88899  33.995  35.499   1.333
20427W        W88900  10.276  19.208   1.864
20428W        W88901  28.991  14.330  11.904
20429W        W88902  27.679  18.638  13.442
20430W        W88903  37.578  44.497  11.462
20431W        W88904  21.058  33.082   2.348
20432W        W88905  11.269  40.481  13.503
20433W        W88906   5.235  43.792  13.309
20434W        W88907   5.755  33.401  11.880
20435W        W88908  37.343  19.227   0.860
20436W        W88909  28.982  10.811   4.799
20437W        W88910  16.802   3.822   0.804
20438W        W88911  13.224   7.233  10.459
20439W        W88912   9.173  21.128   4.189
20440W        W88913  29.592   0.918   4.640
20441W        W88914  25.148  16.201   4.785
20442W        W88915  20.151  38.364   0.442
20443W        W88916  30.143  29.949   3.643
20444W        W88917  37.908  32.611  12.514
20445W        W88918  29.010  41.020   0.889
20446W        W88919  10.792  25.468  11.117
20447W        W88920  23.629  16.310   2.823
20448W        W88921  28.152  24.192   1.407
20449W        W88922  14.168  39.998   5.203
20450W        W88923   9.157  44.466   3.851
20451W        W88924  35.027   4.825  14.328
20452W        W88925   1.382  30.036   4.232
20453W        W88926  14.163  28.605  14.867
20454W        W88927   7.703  28.083  13.538
20455W        W88928  38.424  15.268   0.383
20456W        W88929  18.566  27.190   1.768
20457W        W88930  18.082  37.362   0.932
20458W        W88931  14.225  42.341   4.193
20459W        W88932  17.626   1.864   2.257
20460W        W88933  34.539  11.277  12.897
20461W        W88934  10.307  36.460  13.009
20462W        W88935  11.826  24.604   0.768
20463W        W88936  36.052  38.872  14.887
20464W        W88937  29.926  44.877  13.913
20465W        W88938  29.501  16.679   2.248
20466W        W88939  18.111  20.608  10.976
20467W        W88940   2.256   8.714   2.302
20468W        W88941  27.166  31.048  13.494
20469W        W88942  44.941  28.460   2.238
20470W        W88943  32.598  19.598  13.062
20471W        W88944   5.690   5.897   1.248
20472W        W88945  35.896  31.548   2.316
20473W        W88946  26.025   5.726  14.877
20474W        W88947  26.599  24.199   3.217
20475W        W88948  44.435  14.735  12.929
20476W        W88949  42.333  18.110   0.941
20477W        W88950  14.825  20.754   0.386
20478W        W88951  39.868  32.957   2.230
20479W        W88952  22.242  18.658  14.449
20480W        W88953  15.086  21.110   0.769
20481W        W88954  27.138  37.570  12.938
20482W        W88955  43.355   4.885  13.548
20483W        W88956   5.925  42.927  12.003
20484W        W88957  14.610  20.155  14.321
20485W        W88958  38.949  21.245  14.279
20486W        W88959   2.370  39.923   4.126
20487W        W88960   3.292  14.235   2.372
20488W        W88961   3.914  19.605  14.940
20489W        W88962  30.910   8.287  11.003
20490W        W88963  37.490  34.489  12.843
20491W        W88964   1.273  21.754   1.405
20492W        W88965  21.239  19.770  11.470
20493W        W88966  20.248  43.834   2.324
20494W        W88967  36.380  13.619   3.664
20495W        W88968  12.799  13.755   0.469
20496W        W88969  16.309  44.855  11.125
20497W        W88970  17.093  41.825   2.781
20498W        W88971  27.544  25.079   1.324
20499W        W88972  25.154  12.202  13.453
20500W        W88973   6.396  31.613  13.467
20501W        W88974  18.601  38.910  11.039
20502W        W88975   4.926  16.198   5.254
20503W        W88976  13.182   3.867  12.010
20504W        W88977  20.552   5.828  11.383
20505W        W88978   9.280  17.770   0.405
20506W        W88979  18.176   2.467   4.803
20507W        W88980  32.507  27.053   4.311
20508W        W88981   2.339  19.258  10.601
20509W        W88982  24.479  12.300   1.333
20510W        W88983   6.241  18.631  14.387
20511W        W88984  11.804   8.368   3.744
20512W        W88985  42.394  11.194  10.611
20513W        W88986  24.526   2.878   2.807
20514W        W88987   3.452  18.106   0.877
20515W        W88988  13.794  16.627  13.994
20516W        W88989   6.190   9.836  14.777
20517W        W88990  41.386   1.930  13.033
20518W        W88991  24.193   7.241   4.617
20519W        W88992   3.854  41.337  10.497
20520W        W88993  38.465  18.283  12.392
20521W        W88994  38.425  43.322   0.881
20522W        W88995  41.331  24.539  11.936
20523W        W88996  37.407  43.998  12.078
20524W        W88997  33.042  34.028  11.496
20525W        W88998  38.024  16.089  11.519
20526W        W88999  23.151  40.896   3.246
20527W        W89000  14.145  33.537   1.853
20528W        W89001  19.125  27.606   2.849
20529W        W89002  27.996  17.650   4.731
20530W        W89003  33.437  37.840   4.665
20531W        W89004   9.276  27.686   3.770
20532W        W89005  13.113  32.569  12.482
20533W        W89006  12.200  29.513   1.336
20534W        W89007   4.370  39.922  14.969
20535W        W89008  40.409  18.732  11.493
20536W        W89009   0.432  41.328  12.469
20537W        W89010  12.677  37.530   3.668
20538W        W89011  25.624  39.430  13.858
20539W        W89012  42.462  32.894   3.266
20540W        W89013  41.809  28.997   3.246
20541W        W89014   6.877  12.727   5.286
20542W        W89015   6.418  33.099   1.235
20543W        W89016  39.054  28.505   4.135
20544W        W89017  19.627   1.949  14.899
20545W        W89018  16.578  43.817  10.540
20546W        W89019  17.129  34.903  10.074
20547W        W89020  41.912  29.614  14.478
20548W        W89021  28.673   2.257  13.415
20549W        W89022   3.388  26.539  13.836
20550W        W89023  31.621  37.551  14.483
20551W        W89024  31.455   6.384  12.460
20552W        W89025   6.216  20.632   0.850
20553W        W89026   1.273  14.225   2.816
20554W        W89027   9.850  42.006  13.888
20555W        W89028   6.692  12.722  14.814
20556W        W89029  34.956   3.242   2.213
20557W        W89030  14.144  11.152  13.819
20558W        W89031   9.247   7.213  10.047
20559W        W89032  18.558  42.364   4.341
20560W        W89033  17.728  17.652  10.985
20561W        W89034  22.659   0.464   0.743
20562W        W89035  29.433   0.984  14.961
20563W        W89036  19.110  24.584   3.784
20564W        W89037  37.433  38.872   1.399
20565W        W89038  21.751  12.805   3.722
20566W        W89039  22.183  43.508   0.421
20567W        W89040  34.526   9.343   0.249
20568W        W89041  36.912   8.339   2.278
20569W        W89042  42.430   2.341   1.908
20570W        W89043   7.671  16.782   1.441
20571W        W89044   9.348  41.816  12.837
20572W        W89045  30.003  14.640   2.853
20573W        W89046  43.504  29.079   3.345
20574W        W89047   5.762  39.361   4.144
20575W        W89048  39.875   6.425   3.212
20576W        W89049   0.355   7.259  13.406
20577W        W89050  41.295  39.324   3.657
20578W        W89051   4.359  15.105  10.153
20579W        W89052  21.105  39.529   0.940
20580W        W89053   4.304  32.118  11.933
20581W        W89054  26.532  36.425  12.465
20582W        W89055  25.036  11.784  13.450
20583W        W89056  44.378  35.553  13.367
20584W        W89057   4.890  26.122  13.461
20585W        W89058  16.734   3.720   1.279
20586W        W89059  22.569   6.734   3.728
20587W        W89060  40.882  17.209  13.450
20588W        W89061  13.181  30.624  12.071
20589W        W89062  43.450  35.972  10.404
20590W        W89063  36.861  15.240  13.977
20591W        W89064  23.229  27.070   2.879
20592W        W89065  16.075  19.081  14.483
20593W        W89066   3.277   7.884  11.524
20594W        W89067  30.569  38.837   2.240
20595W        W89068  25.570  27.961  14.022
20596W        W89069  32.055  21.546   3.303
20597W        W89070  30.914  28.588  14.907
20598W        W89071  13.822  21.543   1.279
20599W        W89072  13.615  30.451   3.231
20600W        W89073  14.740  37.076   0.785
20601W        W89074  26.565   7.845   1.786
20602W        W89075  44.906   5.818   3.285
20603W        W89076  25.655   0.369  13.855
20604W        W89077  27.034  14.774  11.541
20605W        W89078  30.557  24.601  12.851
20606W        W89079  35.412  31.552   1.237
20607W        W89080  27.040  31.517   1.313
20608W        W89081  39.423  20.135   3.298
20609W        W89082  32.992  30.574  13.462
20610W        W89083  21.050  36.491  12.934
20611W        W89084  15.180  27.455  12.370
20612W        W89085   4.800  33.117  14.838
20613W        W89086  17.076  23.187  13.997
20614W        W89087   1.456  34.896   3.862
20615W        W89088   1.334  18.633   0.384
20616W        W89089  10.272  35.512  13.957
20617W        W89090  28.651  35.968  10.957
20618W        W89091  11.292  40.029  14.380
20619W        W89092  40.424   2.329   3.182
20620W        W89093   3.286  16.644   2.255
20621W        W89094  40.857  14.784   0.923
20622W        W89095  44.400  34.864  11.110
20623W        W89096  24.150   7.813   4.676
20624W        W89097  33.503  28.945   0.826
20625W        W89098  18.105  37.508   2.327
20626W        W89099   4.213  19.220   4.703
20627W        W89100   1.915  15.320   3.834
20628W        W89101  21.161  27.552   0.459
20629W        W89102  33.568  19.767   2.852
20630W        W89103   0.988  25.692  12.092
20631W        W89104  18.757   4.740  12.516
20632W        W89105  40.499  11.725   4.710
20633W        W89106  14.734   2.253  10.960
20634W        W89107   2.745   9.168   3.236
20635W        W89108  28.174  16.194   1.253
20636W        W89109  35.362   9.889   3.738
20637W        W89110  40.459   9.206   1.222
20638W        W89111  27.078  29.580  12.413
20639W        W89112  23.511  39.832   3.805
20640W        W89113  20.626  27.165  14.402
20641W        W89114  26.015   5.384  11.517
20642W        W89115   6.285   2.263   1.884
20643W        W89116  19.609   6.694  13.378
20644W        W89117  23.031  18.630  10.589
20645W        W89118  21.757  18.716   1.754
20646W        W89119  29.607   3.955   4.159
20647W        W89120  42.826  41.796   2.412
20648W        W89121  36.003  44.759  13.539
20649W        W89122  12.269   6.266   4.804
20650W        W89123  43.512  34.910   1.898
20651W        W89124  13.187   2.831   4.796
20652W        W89125   5.428  19.580  14.430
20653W        W89126   0.283  30.950   3.784
20654W        W89127  22.641  32.559  12.528
20655W        W89128  32.396   9.235   2.365
20656W        W89129   7.411  34.931   4.820
20657W        W89130   7.815  40.402  11.951
20658W        W89131  30.479  17.256  12.026
20659W        W89132   8.191  16.276  12.458
20660W        W89133  24.974  13.275   4.242
20661W        W89134  25.022   1.870  14.476
20662W        W89135  18.071  35.389   0.781
20663W        W89136  11.185  40.850   4.211
20664W        W89137  22.059  15.597   1.363
20665W        W89138  27.587   4.936  13.829
20666W        W89139  42.885  15.642  13.837
20667W        W89140   5.380  37.582   3.276
20668W        W89141  10.799  34.462   0.271
20669W        W89142  43.885   1.300  12.854
20670W        W89143  18.772  34.097  11.486
20671W        W89144   0.467   6.343  10.630
20672W        W89145   4.847  28.083   4.322
20673W        W89146   5.866  19.284   3.286
20674W        W89147   2.720  17.248  13.522
20675W        W89148  17.695  26.162   3.151
20676W        W89149  26.965  42.827   1.248
20677W        W89150   1.775   6.220  13.321
20678W        W89151  27.952  29.430   0.885
20679W        W89152  34.394  42.797   2.196
20680W        W89153  15.225  26.193  14.893
20681W        W89154  29.092   1.963   4.626
20682W        W89155  31.620   4.908   3.758
20683W        W89156  13.780  29.126  12.040
20684W        W89157  41.790  30.504  14.291
20685W        W89158  36.943  12.709   0.766
20686W        W89159  39.932  41.986  14.286
20687W        W89160  38.009  43.417  10.962
20688W        W89161  27.502  15.198   1.418
20689W        W89162   4.912  22.180  11.376
20690W        W89163  15.816  16.306   3.312
20691W        W89164  32.598  33.473  14.443
20692W        W89165  40.351  13.804   3.246
20693W        W89166  35.048   0.286  12.831
20694W        W89167  17.705  13.263   3.368
20695W        W89168  24.120  33.119  10.496
20696W        W89169   6.182   3.262   2.301
20697W        W89170  36.497   2.373  12.981
20698W        W89171  11.786  35.892   4.693
20699W        W89172   7.223   1.406   4.717
20700W        W89173  15.087  37.073   5.717
20701W        W89174   3.814  29.438   3.163
20702W        W89175   6.717  44.783   0.786
20703W        W89176  28.449  44.363   4.802
20704W        W89177  16.658   7.214   3.374
20705W        W89178   5.394  41.478   5.107
20706W        W89179  35.958  23.578   4.741
20707W        W89180  32.970  10.239  14.332
20708W        W89181  38.057  35.107  13.852
20709W        W89182   5.912  13.834  13.445
20710W        W89183  28.518  43.381   1.808
20711W        W89184  22.510  36.496   1.308
20712W        W89185  31.548  41.807   1.336
20713W        W89186  38.012  28.941  13.371
20714W        W89187  38.373  30.582   1.252
20715W        W89188  16.667  10.340  10.488
20716W        W89189  27.630  41.004   2.728
20717W        W89190  23.033  42.443   1.758
20718W        W89191  11.232  32.408   4.119
20719W        W89192  24.072   1.838   4.266
20720W        W89193  28.124  14.658  13.040
20721W        W89194   4.360  15.221  12.893
20722W        W89195  22.072   0.765  10.629
20723W        W89196  42.314  33.463  14.390
20724W        W89197  42.413  44.949  12.577
20725W        W89198  23.515   0.271   0.779
20726W        W89199  16.780  13.709   4.314
20727W        W89200  29.987  14.133   4.839
20728W        W89201  32.995  17.734  10.634
20729W        W89202  20.046  32.420   0.786
20730W        W89203  39.904  39.868   1.788
20731W        W89204  27.084  12.349  12.093
20732W        W89205  23.137  11.183   1.934
20733W        W89206  12.337  44.489  14.006
20734W        W89207  32.133  28.135  13.028
20735W        W89208  17.077  24.230   4.618
20736W        W89209  38.526  38.897  13.936
20737W        W89210  15.695  39.428  12.499
20738W        W89211  27.006  12.716  14.937
20739W        W89212   9.740  22.699  14.313
20740W        W89213  28.508  26.203   4.721
20741W        W89214  13.186   3.370  12.094
20742W        W89215  34.466  36.367  11.488
20743W        W89216   2.929  13.105  13.962
20744W        W89217  37.983  13.239  11.934
20745W        W89218  34.526  23.186  14.310
20746W        W89219  26.508  27.120   5.231
20747W        W89220  10.829  39.951   2.399
20748W        W89221  14.773  11.818  12.959
20749W        W89222  12.294  20.067  11.475
20750W        W89223  36.556  32.004  12.348
20751W        W89224  17.186  44.439  12.093
20752W        W89225  44.333  35.450   3.630
20753W        W89226  32.109  27.676   0.907
20754W        W89227  13.600   0.256   0.461
20755W        W89228  36.358  43.344   0.306
20756W        W89229  13.676  21.213   1.354
20757W        W89230  29.607  10.785   2.727
20758W        W89231   1.902   5.316   2.716
20759W        W89232  41.399  30.084   4.669
20760W        W89233  14.124  22.528  10.936
20761W        W89234  33.994   4.816   3.762
20762W        W89235  28.179  16.609   2.266
20763W        W89236   7.907  16.135   4.270
20764W        W89237  35.052   0.302   1.809
20765W        W89238  35.400   1.890   4.296
20766W        W89239  13.829  20.588   2.212
20767W        W89240  24.002  22.109  14.908
20768W        W89241  34.889  34.936   4.691
20769W        W89242  15.283   6.883   1.434
20770W        W89243   8.225  25.482  10.488
20771W        W89244   4.368  35.392   1.867
20772W        W89245  12.122   9.832   1.416
20773W        W89246   2.728  26.175  12.560
20774W        W89247  21.718   8.868  13.414
20775W        W89248  31.460  42.524   5.119
20776W        W89249  25.095  17.637   2.351
20777W        W89250   8.752  23.609  12.556
20778W        W89251  12.619   6.883   1.304
20779W        W89252  30.553  15.313  14.351
20780W        W89253  36.867  34.453  13.927
20781W        W89254  38.358  11.286  11.395
20782W        W89255  35.475   8.395  10.472
20783W        W89256  41.495  42.907   1.373
20784W        W89257   6.867   4.808  11.412
20785W        W89258  25.523  21.258  12.069
20786W        W89259   4.445  15.169  13.916
20787W        W89260  41.349   0.460  11.920
20788W        W89261  43.962   1.820   3.722
20789W        W89262  20.155  28.508   3.814
20790W        W89263   6.920  22.078  14.993
20791W        W89264  22.682  12.688  10.965
20792W        W89265  14.697   8.304   3.354
20793W        W89266   9.333  30.096  13.493
20794W        W89267  10.819  37.557  10.597
20795W        W89268  21.136  19.135  10.891
20796W        W89269  24.979  38.053   1.439
20797W        W89270  24.583  25.207   2.753
20798W        W89271  13.255  39.837   4.723
20799W        W89272  24.010  39.954  11.460
20800W        W89273   7.249   4.719   9.539
20801W        W89274  40.049  10.273   4.835
20802W        W89275  26.522  31.949  14.914
20803W        W89276  20.170  21.727  12.536
20804W        W89277  35.895  44.840  14.314
20805W        W89278   3.404  39.466  14.288
20806W        W89279  36.871  22.062   3.191
20807W        W89280   1.404  21.124   0.245
20808W        W89281  14.210  22.561  12.893
20809W        W89282  10.281  14.788  13.928
20810W        W89283   7.897  18.063   4.162
20811W        W89284  22.174  27.461   1.348
20812W        W89285  38.462  35.102  14.989
20813W        W89286  20.549   1.451   0.307
20814W        W89287  18.574  21.606  13.458
20815W        W89288   0.885  19.234   4.613
20816W        W89289  20.089   8.234  13.524
20817W        W89290   6.708  19.056  11.126
20818W        W89291   1.301  10.250   0.845
20819W        W89292  37.868  23.081   4.693
20820W        W89293  40.491  35.484   0.280
20821W        W89294  28.611  39.977  11.375
20822W        W89295   4.833  42.436  14.028
20823W        W89296  44.334  42.460   3.285
20824W        W89297  37.496   5.886   3.642
20825W        W89298   2.311   5.406  14.365
20826W        W89299   3.310   7.221  11.115
20827W        W89300  39.016   6.256   1.267
20828W        W89301  25.162  39.848  11.435
20829W        W89302   8.366  11.326   0.284
20830W        W89303   7.763  27.131  14.909
20831W        W89304   3.791   4.273  12.879
20832W        W89305  13.834  26.651  10.556
20833W        W89306  14.130  37.931   4.705
20834W        W89307  14.776  18.230  10.043
20835W        W89308  40.385   0.279   1.884
20836W        W89309   8.820  36.465   3.813
20837W        W89310  40.544   5.859  13.998
20838W        W89311  11.771  42.334   1.706
20839W        W89312  33.480  15.086  10.941
20840W        W89313  11.759  21.541   0.354
20841W        W89314  28.552   4.328   2.767
20842W        W89315   9.674  38.402  13.546
20843W        W89316  10.692  11.826   2.744
20844W        W89317   5.877  17.555   3.208
20845W        W89318  12.742  25.485   3.706
20846W        W89319  41.476  30.614  14.024
20847W        W89320  12.331   5.730  12.393
20848W        W89321  36.849   4.899   3.778
20849W        W89322   1.777  39.065   3.296
20850W        W89323  26.034  29.560  13.952
20851W        W89324   2.755   1.478  10.639
20852W        W89325   4.388  34.866   0.320
20853W        W89326   3.380   4.267   3.786
20854W        W89327  43.789  31.153  13.441
20855W        W89328  35.416  41.506  14.795
20856W        W89329  38.049  25.577  14.480
20857W        W89330  40.461  36.418  10.535
20858W        W89331  31.554  24.008   3.779
20859W        W89332  22.097  25.046  12.343
20860W        W89333  15.314   6.232  13.399
20861W        W89334  18.167  29.495  14.511
20862W        W89335  34.489  20.102   0.908
20863W        W89336   2.249  41.037   4.260
20864W        W89337   5.842  26.011  14.974
20865W        W89338  27.691   2.408   3.717
20866W        W89339  17.235  35.089  12.054
20867W        W89340   1.362  16.724   1.723
20868W        W89341  32.631  39.384   4.815
20869W        W89342   3.279  17.625   4.135
20870W        W89343  21.147  11.804  13.055
20871W        W89344   7.259  15.819   0.928
20872W        W89345  20.102  37.014   4.649
20873W        W89346  31.980  23.113   2.815
20874W        W89347  29.050  36.496  13.520
20875W        W89348  25.037  25.119  11.420
20876W        W89349  33.986  43.429   5.725
20877W        W89350  15.315   7.288  11.573
20878W        W89351   8.160   8.714   4.713
20879W        W89352  30.061  12.663   4.832
20880W        W89353  29.093  28.985   1.328
20881W        W89354  39.956   3.449  13.909
20882W        W89355  44.289  21.737  12.016
20883W        W89356  19.120   6.322  14.440
20884W        W89357  25.633   7.364  10.611
20885W        W89358  34.113  21.718  14.962
20886W        W89359  37.040  35.981   1.734
20887W        W89360   3.744   0.813  13.317
20888W        W89361  41.803  37.508  13.841
20889W        W89362   5.216  22.689   4.640
20890W        W89363  27.034  36.071   5.236
20891W        W89364  44.469   8.793  12.343
20892W        W89365  42.324  12.850   4.703
20893W        W89366  17.125  27.500   0.410
20894W        W89367  29.934   3.381  12.451
20895W        W89368  31.911  27.565   3.859
20896W        W89369  27.539  32.957  11.876
20897W        W89370  12.217   3.272   0.303
20898W        W89371  11.202  33.571  13.477
20899W        W89372  11.669   9.165   1.274
20900W        W89373  27.135  27.944  11.902
20901W        W89374  18.181   1.882   1.440
20902W        W89375   5.717  29.029  11.915
20903W        W89376  33.450  44.293   3.345
20904W        W89377  22.162  40.338   0.831
20905W        W89378  38.823  35.981  11.460
20906W        W89379  25.963   4.817  11.084
20907W        W89380  41.935  23.602  14.304
20908W        W89381   1.350  42.894   1.421
20909W        W89382   6.294  31.933   1.695
20910W        W89383  35.454   5.418   3.864
20911W        W89384   8.850  25.583  12.946
20912W        W89385   8.790  10.357   4.655
20913W        W89386  16.108  28.462   4.126
20914W        W89387   5.277  34.061   3.318
20915W        W89388  34.047  13.258   2.178
20916W        W89389  18.554  21.718   3.158
20917W        W89390  40.496  44.877  12.447
20918W        W89391  19.575  13.110  10.961
20919W        W89392  43.773   1.338  11.018
20920W        W89393   9.875  36.884   2.828
20921W        W89394  29.658  44.395   1.361
20922W        W89395  27.663  43.447   1.224
20923W        W89396   2.871  41.329  13.883
20924W        W89397  10.172  11.207   1.306
20925W        W89398   3.951  37.999  10.415
20926W        W89399  10.730  13.614  10.429
20927W        W89400  30.422  41.850  10.084
20928W        W89401  38.869  13.265  12.941
20929W        W89402  13.769  37.370   0.728
20930W        W89403   9.295  31.010   3.774
20931W        W89404   1.462   6.874  11.607
20932W        W89405  29.650  37.543  12.022
20933W        W89406   9.228   8.262   1.853
20934W        W89407  43.310  11.685   4.313
20935W        W89408  29.053  40.919  12.975
20936W        W89409  18.171  35.014  10.968
20937W        W89410  37.916   4.418  10.590
20938W        W89411  39.450  31.078  10.946
20939W        W89412  36.074  11.286   2.819
20940W        W89413  15.111  38.529   0.324
20941W        W89414  28.442   4.842  13.963
20942W        W89415  17.724   1.802   4.623
20943W        W89416  43.303  14.102   4.727
20944W        W89417  21.626  43.489  12.381
20945W        W89418  12.189  28.174  11.937
20946W        W89419  43.824  29.441  12.492
20947W        W89420  43.857  32.627  11.392
20948W        W89421  38.075  41.432   0.479
20949W        W89422   2.946   2.755  14.484
20950W        W89423  11.773   0.458   2.803
20951W        W89424   9.785   1.353   3.176
20952W        W89425  34.047   7.830  14.995
20953W        W89426  34.613  40.872  11.535
20954W        W89427  15.135  38.999  13.537
20955W        W89428  36.010  14.635  13.018
20956W        W89429  22.530   1.894  11.459
20957W        W89430  20.671   6.909   2.195
20958W        W89431   3.797  43.937   3.674
20959W        W89432   3.426  16.724   4.607
20960W        W89433  16.577  29.993  12.376
20961W        W89434  32.042  35.591  12.904
20962W        W89435  17.711  44.001  13.519
20963W        W89436  22.536  44.758   1.701
20964W        W89437   3.922   0.852  12.862
20965W        W89438  29.483  21.183   0.387
20966W        W89439  28.013  29.966   0.475
20967W        W89440  32.505  13.228  13.931
20968W        W89441   8.748   1.462   0.422
20969W        W89442  24.992  11.842   2.752
20970W        W89443   1.778  42.492   2.358
20971W        W89444  24.495  11.297   1.854
20972W        W89445  22.669   4.229  14.503
20973W        W89446  31.152   9.791   2.362
20974W        W89447  32.056  22.229   0.245
20975W        W89448  14.662  26.192   2.220
20976W        W89449   3.298  42.019  10.966
20977W        W89450  38.840   0.812   4.701
20978W        W89451  32.005  20.577   1.903
20979W        W89452  10.313  17.648   3.633
20980W        W89453   7.260  20.272  14.903
20981W        W89454  38.882  20.113  11.455
20982W        W89455  41.359  16.214  14.779
20983W        W89456   6.701  32.961   1.392
20984W        W89457   3.860   2.748  14.876
20985W        W89458  18.065  12.775  10.898
20986W        W89459  25.526   8.406  13.351
20987W        W89460  43.443   6.292   9.941
20988W        W89461  37.058  35.990   3.707
20989W        W89462  29.012  32.940  14.500
20990W        W89463   3.828  32.399  13.343
20991W        W89464  34.454  17.068  14.875
20992W        W89465   8.171  44.886   3.276
20993W        W89466  41.349  15.244  10.452
20994W        W89467   3.320  17.584  14.957
20995W        W89468  38.952  13.274  10.969
20996W        W89469  35.975  33.969   3.870
20997W        W89470   8.692   7.756   3.868
20998W        W89471  10.376   9.248   3.835
20999W        W89472  24.543  33.902   3.247
21000W        W89473  12.622  22.179   4.797
21001W        W89474   5.796  37.978  12.427
21002W        W89475  30.938   8.773   1.878
21003W        W89476  14.120  17.625  12.925
21004W        W89477  28.966  14.311   3.867
21005W        W89478  44.878  28.133   3.826
21006W        W89479  14.315  22.609  11.465
21007W        W89480  43.770  28.946  13.449
21008W        W89481  35.065  34.514  11.485
21009W        W89482  15.653  13.805  14.839
21010W        W89483  44.471  30.012  13.901
21011W        W89484   1.745   2.332   0.308
21012W        W89485  23.126  32.908  11.543
21013W        W89486   1.327   7.238   2.675
21014W        W89487  39.839  35.956   3.758
21015W        W89488  35.854  22.592   2.216
21016W        W89489  36.884  27.522  11.521
21017W        W89490  31.934   0.975   2.679
21018W        W89491  20.130  20.715   4.786
21019W        W89492   5.364  11.255  10.913
21020W        W89493  10.876  21.644   4.230
21021W        W89494  22.645   8.362  12.577
21022W        W89495  10.138  10.293  13.792
21023W        W89496   5.747  27.682  11.004
21024W        W89497  25.630  35.564  13.983
21025W        W89498  39.364  31.147   1.256
21026W        W89499   7.887  38.569  10.642
21027W        W89500  26.628  43.409   1.929
21028W        W89501  24.561  36.453  13.330
21029W        W89502  43.960  11.275  13.417
21030W        W89503  12.710  36.462   2.768
21031W        W89504  34.921  32.032  10.908
21032W        W89505  34.913  12.786   3.256
21033W        W89506   4.325   6.331  14.414
21034W        W89507  18.064   6.316  14.363
21035W        W89508  32.999  17.558   2.715
21036W        W89509  42.405  27.582  11.542
21037W        W89510  41.030  29.073   0.765
21038W        W89511  21.715  11.805  12.499
21039W        W89512  44.481   0.933  12.058
21040W        W89513  34.383   0.772   2.681
21041W        W89514   3.721  17.173   3.832
21042W        W89515  29.479  25.527  12.998
21043W        W89516  37.545   9.684   4.791
21044W        W89517   3.271  24.082   0.899
21045W        W89518  21.619  44.777  13.410
21046W        W89519   3.374   1.260  14.321
21047W        W89520  41.339   6.859  14.913
21048W        W89521  28.443  29.928   3.791
21049W        W89522  19.726  33.575   5.296
21050W        W89523  14.815  17.209   0.900
21051W        W89524  41.819  12.768   0.380
21052W        W89525  16.601  27.579  14.380
21053W        W89526  21.668  43.284   2.407
21054W        W89527  27.113  22.087   4.712
21055W        W89528  21.027  26.536   2.891
21056W        W89529   1.461  16.757  12.990
21057W        W89530  35.536  32.599   3.148
21058W        W89531  36.091  27.121  14.359
21059W        W89532  11.306  10.188  11.504
21060W        W89533  31.930  38.492  14.933
21061W        W89534   7.397  43.503   0.357
21062W        W89535  44.328  24.655  11.008
21063W        W89536   7.318   7.250   3.755
21064W        W89537  15.103  15.124   0.849
21065W        W89538  19.282   6.402   3.219
21066W        W89539  39.016  44.397  13.333
21067W        W89540   3.764  12.123   0.407
21068W        W89541  31.636   1.386  13.899
21069W        W89542  34.585  33.946   3.367
21070W        W89543  15.154  18.190  13.900
21071W        W89544   7.770  10.693  10.958
21072W        W89545  12.684  31.022   1.879
21073W        W89546  32.012  28.658  12.845
21074W        W89547  33.476  11.178   3.661
21075W        W89548  15.743  17.794   1.344
21076W        W89549  41.836  42.399  13.534
21077W        W89550  38.877  33.081   0.761
21078W        W89551   9.291  28.122  14.995
21079W        W89552  36.530  34.108   4.339
21080W        W89553   6.895   0.253  13.842
21081W        W89554   6.227   2.858   0.832
21082W        W89555   0.351  17.687   2.184
21083W        W89556  19.276  42.891  10.595
21084W        W89557  38.416  44.790   2.324
21085W        W89558  35.503  22.172  14.414
21086W        W89559  35.091  10.866  12.872
21087W        W89560  40.854  14.162  14.487
21088W        W89561  44.954  25.096   3.807
21089W        W89562   0.852  15.597  11.068
21090W        W89563  40.372  14.241  10.052
21091W        W89564  20.661  35.999   2.277
21092W        W89565  25.064  43.885  12.942
21093W        W89566  11.206  41.313  13.805
21094W        W89567   3.338   1.463  12.939
21095W        W89568  16.250   9.765  13.929
21096W        W89569  22.532  19.723  12.508
21097W        W89570  38.963  18.238  10.414
21098W        W89571  33.491  13.687  14.367
21099W        W89572   4.372  16.072   0.438
21100W        W89573  11.340   7.398   2.753
21101W        W89574  28.503  34.388  12.513
21102W        W89575  31.603  42.288  13.498
21103W        W89576  31.473  40.019   3.674
21104W        W89577   5.722  17.253  12.073
21105W        W89578  36.487  31.503   3.312
21106W        W89579  40.317  11.232   1.366
21107W        W89580  31.139  16.154   0.435
21108W        W89581   8.831   5.885   2.883
21109W        W89582   0.259   3.721   2.748
21110W        W89583  19.191  13.668   2.321
21111W        W89584  39.383   7.758  11.886
21112W        W89585  18.243  41.801  11.455
21113W        W89586  17.104  30.908  14.385
21114W        W89587  34.980   2.806   4.598
21115W        W89588   3.459  37.875  11.410
21116W        W89589   6.878   2.880   1.386
21117W        W89590  30.062  25.201  10.973
21118W        W89591  15.165  31.084  13.836
21119W        W89592  41.468  21.171  13.472
21120W        W89593  24.151  32.057  11.407
21121W        W89594  38.361   0.325   1.721
21122W        W89595   8.228  28.089  12.079
21123W        W89596   8.406  42.900   1.242
21124W        W89597  25.642  17.167   3.239
21125W        W89598  35.040  23.128  13.530
21126W        W89599   7.850  17.271   3.196
21127W        W89600  44.961  13.183  11.390
21128W        W89601  28.517  27.147   3.255
21129W        W89602   8.346  43.859  14.432
21130W        W89603  13.153  27.012   3.748
21131W        W89604   1.820  34.101   4.694
21132W        W89605  33.498  22.553   4.720
21133W        W89606  33.481  17.191  14.359
21134W        W89607  20.651   6.381  11.856
21135W        W89608  21.598  24.657   2.801
21136W        W89609  30.659  44.295  13.449
21137W        W89610  35.486  43.446  13.484
21138W        W89611  43.354   2.936  13.435
21139W        W89612  42.309  37.022  13.498
21140W        W89613   1.880   9.877  10.972
21141W        W89614  43.470  10.796  14.420
21142W        W89615   1.261  36.982   2.411
21143W        W89616  43.866  33.098  11.483
21144W        W89617   8.747  28.657  12.372
21145W        W89618  40.982   4.413  12.075
21146W        W89619  19.183  30.106  12.823
21147W        W89620  13.702   4.269  12.016
21148W        W89621   5.784   0.304   0.395
21149W        W89622   6.860  38.899   1.782
21150W        W89623  32.549  35.382  10.959
21151W        W89624  33.459   9.329   4.205
21152W        W89625  15.781  31.492  13.926
21153W        W89626   1.937  40.417  13.436
21154W        W89627  24.698  29.637   4.825
21155W        W89628   3.322  17.189   3.647
21156W        W89629  10.202  24.078  11.977
21157W        W89630  38.889  18.248  11.372
21158W        W89631  23.112  13.285   2.301
21159W        W89632  22.568   2.408   0.743
21160W        W89633  26.110  34.107   1.227
21161W        W89634  36.003  41.460   0.944
21162W        W89635  10.761  19.130   3.861
21163W        W89636  17.079  44.325   3.750
21164W        W89637  30.530  36.549  11.431
21165W        W89638  10.634  16.222  13.531
21166W        W89639  19.256  15.666   0.900
21167W        W89640  18.272  25.607  13.877
21168W        W89641  39.813   1.362   0.955
21169W        W89642  26.181  41.007   2.705
21170W        W89643   2.771  42.318   0.282
21171W        W89644  14.703  27.057  11.513
21172W        W89645  42.931  35.588  11.120
21173W        W89646  11.750  38.901  14.298
21174W        W89647  17.106  32.044   1.700
21175W        W89648  31.050  36.033   4.187
21176W        W89649  18.287   4.906   3.370
21177W        W89650  35.910  29.553   0.350
21178W        W89651  33.408  13.154   3.769
21179W        W89652  43.782  18.125  13.896
21180W        W89653  38.001  37.509   4.615
21181W        W89654   9.839  25.198   4.770
21182W        W89655   5.823  24.998  10.593
21183W        W89656  19.736  34.420   0.299
21184W        W89657  33.951  38.505   0.284
21185W        W89658  23.033   7.405   1.779
21186W        W89659  41.382  44.341   1.803
21187W        W89660  20.180  32.141   2.720
21188W        W89661  32.021  22.074  14.892
21189W        W89662   3.780   3.869  13.895
21190W        W89663  37.501  18.586  11.970
21191W        W89664  16.749  18.647  13.803
21192W        W89665  34.421  20.264   4.149
21193W        W89666  33.502  14.107  14.453
21194W        W89667  16.603  25.170  13.537
21195W        W89668   2.762  25.964  13.040
21196W        W89669   7.182  19.599   0.243
21197W        W89670  11.859  24.484   0.478
21198W        W89671  16.143   0.492  14.279
21199W        W89672  29.662  40.861   2.294
21200W        W89673  34.599  24.099   0.450
21201W        W89674  10.663  35.591   3.814
21202W        W89675  40.885  16.081   4.114
21203W        W89676   1.321  35.939   0.379
21204W        W89677  44.939  11.305   1.818
21205W        W89678  27.617   7.174  14.856
21206W        W89679  39.887  36.892   2.344
21207W        W89680  18.173  38.411  14.384
21208W        W89681  10.633  15.284   2.269
21209W        W89682  24.120  34.982   4.310
21210W        W89683  25.218  31.949   1.701
21211W        W89684  15.737   2.368   0.405
21212W        W89685   3.797   3.326  12.891
21213W        W89686  32.548  13.112  12.558
21214W        W89687   2.792  18.160   3.640
21215W        W89688   8.874  17.780   2.889
21216W        W89689  34.397  30.572   3.254
21217W        W89690  24.174   4.824   4.184
21218W        W89691  21.203   3.390   2.416
21219W        W89692  34.537  44.948   3.796
21220W        W89693  13.277   8.672   1.372
21221W        W89694  38.345   0.906   4.203
21222W        W89695  35.858  18.782   3.295
21223W        W89696   3.768  41.416   3.857
21224W        W89697   9.872  12.751   0.817
21225W        W89698  22.166   5.329   4.291
21226W        W89699  26.157   7.840   3.243
21227W        W89700   3.805  18.107   3.250
21228W        W89701   0.419  11.202  11.488
21229W        W89702  32.018   6.908   0.843
21230W        W89703   6.912  28.977  12.004
21231W        W89704  29.159   2.444   3.258
21232W        W89705  10.659   1.400  14.373
21233W        W89706  30.590   9.735   3.851
21234W        W89707  25.623  38.920   2.307
21235W        W89708  15.588  13.239  14.295
21236W        W89709   3.860  18.164   0.886
21237W        W89710  27.961  25.098  13.362
21238W        W89711  25.680  20.202   4.246
21239W        W89712  24.036  34.908  12.885
21240W        W89713  28.548  37.484   0.443
21241W        W89714  11.697   3.816   3.753
21242W        W89715  39.853  29.153  12.047
21243W        W89716  26.194  22.647  13.825
21244W        W89717   3.232  42.006   0.310
21245W        W89718  22.545  27.162   1.834
21246W        W89719  43.347  32.107   3.763
21247W        W89720  29.975   8.885  11.553
21248W        W89721  43.844  21.609  13.793
21249W        W89722  15.785  15.748   0.790
21250W        W89723  30.080   7.807   4.797
21251W        W89724  12.331  15.328  11.894
21252W        W89725   0.328   4.336   0.954
21253W        W89726  13.317  40.429  14.313
21254W        W89727  21.181  20.603   1.806
21255W        W89728  16.683  38.424  10.524
21256W        W89729  12.856  30.155  12.512
21257W        W89730  25.030  35.486   2.239
21258W        W89731  38.944  28.596   0.482
21259W        W89732  36.841  39.373   0.352
21260W        W89733  16.589  10.724   0.824
21261W        W89734   1.756  18.106   2.195
21262W        W89735  16.685  17.306   2.340
21263W        W89736  36.969  39.898   0.295
21264W        W89737  40.967  15.277   4.779
21265W        W89738  33.926  29.958  14.903
21266W        W89739  30.941  17.745  14.890
21267W        W89740  32.056  28.624  13.962
21268W        W89741  13.124  30.104   1.334
21269W        W89742  36.844  11.349   1.772
21270W        W89743  18.136  43.824   2.887
21271W        W89744   5.894   4.801   2.261
21272W        W89745   1.318  27.483   3.709
21273W        W89746  26.632  19.132  10.905
21274W        W89747   7.815   4.291  12.371
21275W        W89748  15.166   7.697  10.957
21276W        W89749  25.560  19.551  10.150
21277W        W89750  18.659  42.824   4.747
21278W        W89751  26.054  35.967  13.334
21279W        W89752  35.598  12.612  12.565
21280W        W89753  10.826   3.741  13.861
21281W        W89754   0.484  10.236  12.991
21282W        W89755   7.360   5.204   0.915
21283W        W89756  13.270  36.890  12.380
21284W        W89757  44.475  10.309  10.140
21285W        W89758  33.601  14.331   3.321
21286W        W89759  35.497  36.895   1.722
21287W        W89760  22.045  37.578   4.660
21288W        W89761  13.275  18.077   5.265
21289W        W89762   5.217  17.278  13.910
21290W        W89763  10.708  12.145  14.339
21291W        W89764  24.495  27.103  10.405
21292W        W89765  41.376  17.629   0.296
21293W        W89766  30.086   0.337  11.476
21294W        W89767  21.668   9.775  14.477
21295W        W89768  44.447  42.399  14.369
21296W        W89769  12.761  42.408   4.264
21297W        W89770   6.832  18.583   0.954
21298W        W89771  25.217  10.274  11.566
21299W        W89772  42.940  27.029   4.159
21300W        W89773  10.322  15.279  13.515
21301W        W89774  11.779  24.068  12.527
21302W        W89775   2.827  15.707  11.042
21303W        W89776  19.183   0.458   2.676
21304W        W89777  41.878  17.599  12.352
21305W        W89778  18.749  12.304  10.986
21306W        W89779  42.465  10.381  13.364
21307W        W89780  11.361   3.867  12.500
21308W        W89781  14.256  34.428   1.762
21309W        W89782   0.400  23.677   0.444
21310W        W89783  36.868  22.198   3.668
21311W        W89784   0.486   7.756  13.979
21312W        W89785  42.895  32.630  13.532
21313W        W89786   0.917  28.146   1.236
21314W        W89787  43.897  11.310  11.523
21315W        W89788  43.472   0.360  13.869
21316W        W89789   9.270  21.141  11.527
21317W        W89790  22.597  13.155   3.830
21318W        W89791  28.183  22.596   0.910
21319W        W89792  39.507  14.154   2.325
21320W        W89793   0.865   7.850  14.937
21321W        W89794  42.980  16.211  13.883
21322W        W89795  19.192   6.321  13.523
21323W        W89796  27.604  14.594   4.700
21324W        W89797  36.960  43.351  13.063
21325W        W89798  11.312  25.128   2.821
21326W        W89799  38.009  31.945  13.371
21327W        W89800  13.148  36.971  13.815
21328W        W89801  43.490  16.238  10.497
21329W        W89802   8.806   9.348   4.752
21330W        W89803  37.381   9.202   1.904
21331W        W89804  16.224   7.353   2.812
21332W        W89805  28.993  14.828   3.845
21333W        W89806  43.483  26.050   4.262
21334W        W89807  24.561   6.689  14.964
21335W        W89808  42.308  34.010   0.930
21336W        W89809   7.280  11.638  10.620
21337W        W89810  16.597  43.337   4.175
21338W        W89811  16.314  23.548   4.619
21339W        W89812  21.525  42.441   3.736
21340W        W89813  24.623  29.424   2.388
21341W        W89814   3.908  43.829  14.779
21342W        W89815  23.666   1.759   3.761
21343W        W89816  39.012   2.877   0.307
21344W        W89817  30.160  40.522  12.074
21345W        W89818  27.661   4.834   4.185
21346W        W89819  19.158   4.358  11.593
21347W        W89820  29.960   4.926   1.376
21348W        W89821  19.665  35.540  11.071
21349W        W89822  22.171  30.013   4.155
21350W        W89823  35.946  44.273  13.435
21351W        W89824   6.360  43.401   1.390
21352W        W89825   3.862  10.209   2.369
21353W        W89826  33.405  18.662   2.775
21354W        W89827  13.758  19.680   4.217
21355W        W89828  44.449  29.524   4.183
21356W        W89829   6.739  36.848  11.378
21357W        W89830  33.486   2.735   3.781
21358W        W89831  22.195  37.517   1.851
21359W        W89832  14.744  40.534  13.896
21360W        W89833  21.744  13.674  13.458
21361W        W89834  22.119  42.992   3.341
21362W        W89835  37.892  38.942   2.831
21363W        W89836   8.697  35.437  13.860
21364W        W89837  22.184  43.866  11.523
21365W        W89838  40.375   5.795   2.297
21366W        W89839  31.108   7.740  14.842
21367W        W89840  34.908  17.244  12.479
21368W        W89841  12.855   7.873  13.534
21369W        W89842  12.629  11.829   0.956
21370W        W89843  24.493   3.793  14.919
21371W        W89844   2.233   3.423  10.487
21372W        W89845  34.609  15.729   1.210
21373W        W89846  27.188  11.301  10.976
21374W        W89847  19.134  21.183  13.901
21375W        W89848  27.108   2.834   1.695
21376W        W89849  33.541  40.848  12.913
21377W        W89850  41.517  44.341   2.375
21378W        W89851  26.025   2.798   0.351
21379W        W89852   6.683  41.037   3.823
21380W        W89853  35.852  35.601   3.314
21381W        W89854  38.070  27.567  11.451
21382W        W89855   6.750  26.585   3.692
21383W        W89856   3.806  19.235   1.346
21384W        W89857  28.089  34.912  10.978
21385W        W89858  36.866   8.840   4.302
21386W        W89859  17.788  35.956   4.272
21387W        W89860  29.629  20.566   2.337
21388W        W89861   5.835  14.771  10.080
21389W        W89862  34.510  40.799  13.853
21390W        W89863  33.091  30.486   4.220
21391W        W89864  12.292  41.028  12.955
21392W        W89865  18.760  30.417  13.411
21393W        W89866  44.910   4.442  13.030
21394W        W89867  26.485  25.057   2.415
21395W        W89868  12.176   3.944  13.003
21396W        W89869  22.995  24.652  11.500
21397W        W89870  26.569  44.845  11.901
21398W        W89871  36.055  35.361  11.488
21399W        W89872  25.618  40.512   2.378
21400W        W89873  14.142  33.969  14.026
21401W        W89874  33.055   4.703   4.719
21402W        W89875   7.824   1.819   1.738
21403W        W89876   3.308   7.264  13.911
21404W        W89877  10.694  38.075   2.824
21405W        W89878  24.622  29.985  11.393
21406W        W89879  18.615  17.702   4.293
21407W        W89880  14.160  40.424  14.019
21408W        W89881  14.594  40.909  14.440
21409W        W89882  26.952  35.366  14.476
21410W        W89883  31.091  15.593   2.793
21411W        W89884  24.517  26.492   0.753
21412W        W89885  19.695  24.049  12.359
21413W        W89886  27.030  19.123  14.299
21414W        W89887  34.383  13.187   4.306
21415W        W89888  43.493  38.919   2.716
21416W        W89889   3.798  31.039   2.188
21417W        W89890  37.510  31.027   3.707
21418W        W89891  21.254  17.249   1.441
21419W        W89892   8.232  27.049   1.854
21420W        W89893  36.919  19.193   1.823
21421W        W89894  24.035   2.335  13.927
21422W        W89895  16.684  34.046  14.287
21423W        W89896   2.407   6.848   4.739
21424W        W89897   3.876  21.250  11.959
21425W        W89898  23.552  16.779  10.434
21426W        W89899  11.810  11.203   1.700
21427W        W89900  37.997  39.041   4.172
21428W        W89901  38.980  13.120   0.311
21429W        W89902  34.500  36.959   4.607
21430W        W89903  22.069  23.726   4.625
21431W        W89904  42.347  31.935  12.831
21432W        W89905   4.308   5.835   2.298
21433W        W89906  10.754   5.779   2.842
21434W        W89907  19.282  17.644  12.553
21435W        W89908   5.863  12.823   2.872
21436W        W89909  19.591  40.807  11.063
21437W        W89910   5.773   4.791  13.820
21438W        W89911  31.588  42.898   1.753
21439W        W89912  20.215  31.960   0.268
21440W        W89913  29.966  21.110  10.542
21441W        W89914  40.858  29.173   3.381
21442W        W89915  14.262  26.970  13.927
21443W        W89916  25.136  18.224   1.343
21444W        W89917  36.550  41.851   3.233
21445W        W89918  29.424   2.924  11.513
21446W        W89919   4.905  22.738   5.086
21447W        W89920  23.082  24.107  12.066
21448W        W89921   6.423  26.988   2.725
21449W        W89922  16.154   1.264  12.066
21450W        W89923  20.124  32.918  13.854
21451W        W89924  39.925  35.473  11.380
21452W        W89925   9.853  24.083   3.239
21453W        W89926  42.502  26.608   0.449
21454W        W89927  27.019   4.278   0.337
21455W        W89928  44.485  42.444   3.678
21456W        W89929  15.690  35.369   1.696
21457W        W89930  17.173  36.087  10.047
21458W        W89931   5.777   5.425   4.207
21459W        W89932  31.142  19.651   0.243
21460W        W89933  27.197  44.761  14.404
21461W        W89934  42.950  40.945  13.475
21462W        W89935  33.004  30.153   3.653
21463W        W89936   6.357  38.956  10.638
21464W        W89937  16.085  10.868  11.019
21465W        W89938  27.146   1.912  13.408
21466W        W89939  41.797  23.145   2.353
21467W        W89940   2.450  42.878  12.574
21468W        W89941  20.166   2.319  14.969
21469W        W89942  22.624   7.373  12.966
21470W        W89943  18.712  20.161   3.268
21471W        W89944  30.112  34.875  10.598
21472W        W89945   7.345  44.963   3.366
21473W        W89946  25.690  43.291   3.681
21474W        W89947  14.657   9.716   3.690
21475W        W89948  42.493  41.834   3.200
21476W        W89949   5.740  11.213  12.977
21477W        W89950  30.943  29.481   2.411
21478W        W89951  40.023  38.490   0.967
21479W        W89952  16.283  15.329  12.964
21480W        W89953  27.944  14.318  10.495
21481W        W89954  14.168   8.729  12.478
21482W        W89955  29.094  17.208   0.330
21483W        W89956  29.584  11.185  14.444
21484W        W89957  10.856  20.198  12.877
21485W        W89958   9.295  22.660  13.521
21486W        W89959   6.330  23.732  11.963
21487W        W89960  28.648  44.816   0.931
21488W        W89961  35.055  10.294   2.318
21489W        W89962  17.580  14.254  13.933
21490W        W89963  40.920  37.904  13.798
21491W        W89964  36.047  28.115   1.881
21492W        W89965  39.529   9.793  12.342
21493W        W89966  20.248  16.680   2.811
21494W        W89967  43.860   8.205  13.506
21495W        W89968  11.178  32.955   4.122
21496W        W89969  19.116  38.855  14.317
21497W        W89970   5.892  38.004  14.474
21498W        W89971  14.646  40.854  11.069
21499W        W89972  30.021   5.739  13.463
21500W        W89973  43.782  31.426  14.977
21501W        W89974  13.728  44.865  12.003
21502W        W89975   3.362  42.882  10.422
21503W        W89976  40.956  39.482   2.802
21504W        W89977  22.146  22.098  13.473
21505W        W89978  43.380  15.735  12.028
21506W        W89979   6.260  21.727   0.756
21507W        W89980  30.589  23.120  12.514
21508W        W89981  17.619   3.763  13.996
21509W        W89982  33.612  39.471  14.026
21510W        W89983  14.787  37.546   9.928
21511W        W89984  35.425  12.202  14.346
21512W        W89985  28.503  30.455  13.004
21513W        W89986   8.240  22.552  11.499
21514W        W89987   9.828  25.968   2.328
21515W        W89988  33.955  44.414   1.372
21516W        W89989  20.759  11.331   1.285
21517W        W89990  39.877   2.292  10.554
21518W        W89991  20.669  27.147   0.920
21519W        W89992  28.961  42.942  13.385
21520W        W89993   7.238  27.075  11.985
21521W        W89994  11.150  25.064   1.398
21522W        W89995   5.798  24.032   2.346
21523W        W89996   6.826   0.488   4.284
21524W        W89997  23.711  22.008  13.423
21525W        W89998  20.093  12.743  12.401
21526W        W89999  41.421  40.473   3.224
21527W        W90000  10.749  11.205   3.864
21528W        W90001  35.509  15.131  13.026
21529W        W90002  22.713   5.827   4.123
21530W        W90003   2.403  42.309   2.662
21531W        W90004   3.371   3.310   0.463
21532W        W90005  21.106  15.137   1.315
21533W        W90006  38.073  33.116   0.728
21534W        W90007  42.962  31.596   1.731
21535W        W90008  37.511   8.736   1.220
21536W        W90009  34.575  27.109   3.722
21537W        W90010   5.826  44.922  10.558
21538W        W90011  29.128   2.249  12.081
21539W        W90012   8.161  19.728  13.007
21540W        W90013  21.534  14.173   4.715
21541W        W90014  30.578  12.832   3.701
21542W        W90015   9.253  13.736   2.309
21543W        W90016   6.706  34.887  10.406
21544W        W90017  20.265  29.433  11.985
21545W        W90018  22.071  35.467  13.934
21546W        W90019  30.441   7.236  12.045
21547W        W90020   8.220  37.874  10.927
21548W        W90021   5.876  13.172  13.310
21549W        W90022  27.013  26.512  14.847
21550W        W90023  32.542   4.758   2.859
21551W        W90024   4.415  40.376   4.785
21552W        W90025  29.069  41.830  13.954
21553W        W90026  35.438  39.938   4.827
21554W        W90027  25.044  29.521  12.961
21555W        W90028  38.991   2.874  10.525
21556W        W90029   2.316  44.786  12.530
21557W        W90030  13.196  36.889   0.916
21558W        W90031  29.170  32.600   0.276
21559W        W90032  34.403  44.904   3.180
21560W        W90033  26.033  30.033  11.596
21561W        W90034   2.771   3.299  13.883
21562W        W90035   8.378  23.035   0.370
21563W        W90036  19.664  27.549   4.806
21564W        W90037   0.254  24.197   0.841
21565W        W90038   0.754  40.968  13.440
21566W        W90039  10.689  23.656  10.468
21567W        W90040  20.553  34.605   3.650
21568W        W90041  13.741  30.057  12.549
21569W        W90042   2.383  30.500  12.879
21570W        W90043   0.972  25.964   0.885
21571W        W90044  37.837  22.230  12.843
21572W        W90045  26.079  21.535  11.611
21573W        W90046  27.947  19.218  14.825
21574W        W90047  15.168  21.546  14.487
21575W        W90048  14.141  34.404  10.469
21576W        W90049  15.094   5.927  11.127
21577W        W90050  25.507  23.491   4.118
21578W        W90051  20.692  26.009   5.139
21579W        W90052   3.353  29.040   1.295
21580W        W90053  23.174  42.474   4.780
21581W        W90054  10.300  18.612   4.742
21582W        W90055  18.179  15.732   1.739
21583W        W90056  12.772   7.187   3.848
21584W        W90057   4.289  16.788   3.229
21585W        W90058  37.464  21.226   5.321
21586W        W90059  31.561  44.866  12.934
21587W        W90060  21.686  11.291  13.354
21588W        W90061  12.807   9.349   1.869
21589W        W90062   8.878   4.401  11.909
21590W        W90063  26.564  38.478  14.317
21591W        W90064  22.654  37.020  14.374
21592W        W90065  35.990  34.066  14.366
21593W        W90066  13.724  11.741  11.433
21594W        W90067  22.734   2.304   2.701
21595W        W90068  35.895  38.072   1.213
21596W        W90069  12.731   8.232  10.611
21597W        W90070  17.745  36.061  14.327
21598W        W90071  16.584  11.129   1.881
21599W        W90072  20.748  22.248   3.224
21600W        W90073  24.577   0.279  14.848
21601W        W90074   2.873  43.765   3.250
21602W        W90075   4.444  38.060  12.962
21603W        W90076  36.522   2.804  12.438
21604W        W90077  12.708  36.034   1.312
21605W        W90078  40.016  18.556   3.324
21606W        W90079  25.525  20.211  14.451
21607W        W90080  42.812  42.859  10.085
21608W        W90081   2.374  14.284   3.756
21609W        W90082  39.556  38.949   2.716
21610W        W90083  28.552  17.197  12.838
21611W        W90084  27.487  28.495  12.522
21612W        W90085  18.176  32.477  11.003
21613W        W90086  20.198  25.692  13.484
21614W        W90087  14.319   5.274   3.722
21615W        W90088  22.242  27.041  13.507
21616W        W90089  30.974  28.649   1.902
21617W        W90090  41.321   0.897   0.937
21618W        W90091  11.214  34.871  11.020
21619W        W90092  12.263   4.350  12.055
21620W        W90093   0.376   8.272  11.471
21621W        W90094   4.210  33.942   0.340
21622W        W90095   5.230  34.615  14.431
21623W        W90096   5.434  14.828   5.200
21624W        W90097  11.679  15.769  11.548
21625W        W90098   8.752  28.661   0.283
21626W        W90099  19.191  41.958  14.778
21627W        W90100  36.445  26.606  11.471
21628W        W90101  10.259  21.161  12.028
21629W        W90102   1.967  40.929  12.890
21630W        W90103  27.170  40.486  10.945
21631W        W90104  38.384  12.618  11.465
21632W        W90105  12.758  25.131   1.424
21633W        W90106  20.178   2.310  13.027
21634W        W90107  14.175  39.533   4.794
21635W        W90108  41.997  40.359  12.359
21636W        W90109  12.183  24.541   2.900
21637W        W90110  29.437  17.663  14.822
21638W        W90111  38.472  17.642  11.533
21639W        W90112   8.293  15.794   1.211
21640W        W90113   8.894  18.072  13.494
21641W        W90114  15.093  10.818  11.958
21642W        W90115  24.057  29.013   9.998
21643W        W90116  19.536   2.833  10.520
21644W        W90117  36.458   0.782   3.217
21645W        W90118  22.021  34.585  11.073
21646W        W90119  25.548  20.137   2.820
21647W        W90120   6.402   6.294  14.959
21648W        W90121  23.104   9.234   1.216
21649W        W90122  38.897  23.060   4.648
21650W        W90123  10.150  17.695  12.913
21651W        W90124  21.183   6.276  13.932
21652W        W90125  34.441  37.985   3.813
21653W        W90126  10.239  35.409   2.344
21654W        W90127   3.330  10.868   4.599
21655W        W90128  12.763  21.206   2.387
21656W        W90129  43.791  36.985  13.854
21657W        W90130  42.782  44.307   3.351
21658W        W90131  20.043   1.431   2.327
21659W        W90132  31.545   6.833   0.291
21660W        W90133  14.773  44.818   2.863
21661W        W90134  20.189   5.290  11.091
21662W        W90135  40.503  18.706  11.064
21663W        W90136  44.353   4.745   4.332
21664W        W90137  38.846  28.955   4.213
21665W        W90138   3.730  10.876  12.560
21666W        W90139  20.032  24.544   4.210
21667W        W90140  26.554  38.891   0.332
21668W        W90141   4.756  16.307   4.178
21669W        W90142  15.712  26.060  13.022
21670W        W90143   8.395  15.135  10.441
21671W        W90144  33.101  20.201  12.940
21672W        W90145  44.259  27.452   3.783
21673W        W90146  18.718  38.871   5.087
21674W        W90147   9.695   5.762  12.516
21675W        W90148  16.154  14.616   4.672
21676W        W90149   5.706  12.191  13.970
21677W        W90150  25.593   8.215  11.935
21678W        W90151   8.770   4.270  13.973
21679W        W90152  15.329   4.223   1.844
21680W        W90153   4.395   2.917   3.757
21681W        W90154  27.174  24.230  14.337
21682W        W90155  19.698   6.392   2.383
21683W        W90156  22.547   1.479   4.114
21684W        W90157  13.262  20.741   4.838
21685W        W90158  44.788  44.416  10.567
21686W        W90159   8.336  15.818  11.375
21687W        W90160  23.045  16.628  11.905
21688W        W90161  42.950  10.156   0.826
21689W        W90162   7.720  29.455  12.927
21690W        W90163  43.418   5.320  13.036
21691W        W90164  44.874  39.339  10.462
21692W        W90165  23.168  25.560  14.950
21693W        W90166  31.472  10.267   1.934
21694W        W90167  17.248   6.848  11.064
21695W        W90168   9.199  18.779   4.749
21696W        W90169  31.933  36.585   5.241
21697W        W90170  28.165  11.839  12.868
21698W        W90171  44.000   3.887   0.902
21699W        W90172   5.701   8.755  12.911
21700W        W90173  44.893  26.168  10.531
21701W        W90174  13.261   0.765   2.376
21702W        W90175  44.871  19.206   4.165
21703W        W90176  23.094   8.278   1.440
21704W        W90177  17.075  42.973  10.606
21705W        W90178  31.644  36.926  13.896
21706W        W90179  19.584  23.226   1.869
21707W        W90180  41.007  32.903   3.216
21708W        W90181  24.973  15.797   5.227
21709W        W90182  25.146  41.298   9.920
21710W        W90183   3.369  16.782  10.556
21711W        W90184  20.057  42.842  11.071
21712W        W90185  39.331  38.952  10.533
21713W        W90186  41.865   6.863   0.341
21714W        W90187  31.535  10.786  11.073
21715W        W90188   6.706  20.151   4.327
21716W        W90189  37.482   0.776  13.528
21717W        W90190  14.213  39.916  14.878
21718W        W90191  34.410  38.905   3.304
21719W        W90192  24.604  40.854  11.096
21720W        W90193  44.295  21.098   5.218
21721W        W90194  17.235   2.823   4.755
21722W        W90195   4.742   3.860   0.256
21723W        W90196  36.456  39.843  14.996
21724W        W90197   9.267  31.579  12.416
21725W        W90198  23.496  28.078  10.404
21726W        W90199  32.043  20.541   3.234
21727W        W90200  44.475   1.390  11.997
21728W        W90201  34.109  17.626   4.834
21729W        W90202  10.832   2.961  12.437
21730W        W90203  17.564  26.464  14.767
21731W        W90204  37.835  14.306   0.478
21732W        W90205  20.546  41.820  13.413
21733W        W90206  40.511   4.272   2.804
21734W        W90207  19.614  26.034  12.839
21735W        W90208  34.030  10.145   4.796
21736W        W90209  43.448  25.540  14.019
21737W        W90210  28.135  33.454   2.270
21738W        W90211  44.847  25.195  14.502
21739W        W90212  13.206  38.547  10.446
21740W        W90213  22.530   8.277   1.894
21741W        W90214  23.537  24.990  11.441
21742W        W90215  30.574  40.809  14.450
21743W        W90216  31.546   7.309   4.242
21744W        W90217  16.268  36.944  11.044
21745W        W90218  40.912   8.679  10.903
21746W        W90219  31.576  37.963  14.887
21747W        W90220  37.425  13.617   4.186
21748W        W90221  29.099  10.644  11.017
21749W        W90222  11.701  34.587  14.430
21750W        W90223  23.730  15.171  14.892
21751W        W90224  23.586   8.808  10.959
21752W        W90225  32.903   8.849  13.458
21753W        W90226  43.933  26.548   4.265
21754W        W90227   3.290   4.792   0.294
21755W        W90228  28.494  11.199   2.836
21756W        W90229  10.709  10.301   3.285
21757W        W90230  12.134   9.169  10.575
21758W        W90231   8.379  36.375   2.867
21759W        W90232   4.825  22.686  13.889
21760W        W90233  33.496  37.015   2.886
21761W        W90234  11.702  33.120  13.531
21762W        W90235  31.941   1.357  13.484
21763W        W90236   5.377   0.833   3.655
21764W        W90237   7.770  18.165  13.025
21765W        W90238  34.596   7.778   3.150
21766W        W90239  32.462  30.537   2.795
21767W        W90240  42.009  39.836  14.375
21768W        W90241  14.688  15.223   1.795
21769W        W90242  33.956   1.464   2.805
21770W        W90243  36.370  43.279   3.870
21771W        W90244  43.347  41.798  12.453
21772W        W90245  13.657  38.841  10.999
21773W        W90246  24.677   0.928  10.913
21774W        W90247  14.299  29.490   1.886
21775W        W90248  41.385  43.453   4.254
21776W        W90249  10.319  25.640   4.313
21777W        W90250  19.071  19.777  14.883
21778W        W90251  13.277  34.100   3.765
21779W        W90252   2.317  10.695   4.153
21780W        W90253  18.050  34.560   4.203
21781W        W90254  39.809  43.433  10.418
21782W        W90255  23.068  31.947   3.188
21783W        W90256  15.229  32.531  12.352
21784W        W90257  13.737  37.421   1.755
21785W        W90258   6.714  42.338  10.587
21786W        W90259  40.924  24.110  12.453
21787W        W90260   8.899  42.846   4.120
21788W        W90261  11.291  38.546  10.439
21789W        W90262  17.667  38.964   1.731
21790W        W90263  26.100  21.035  14.999
21791W        W90264  15.260  38.335  14.788
21792W        W90265  28.611  11.275  11.121
21793W        W90266  22.033  37.054   2.674
21794W        W90267   0.839  20.159  10.426
21795W        W90268  38.348   7.360  12.366
21796W        W90269  21.196   6.347   4.728
21797W        W90270  43.426  24.205  12.497
21798W        W90271   8.347  34.554  10.966
21799W        W90272  40.339   4.238   1.715
21800W        W90273  29.045   2.416   3.777
21801W        W90274  40.052  15.584   0.462
21802W        W90275  16.153   5.253  14.955
21803W        W90276  35.086  29.064  12.347
21804W        W90277   7.680  21.166  12.022
21805W        W90278  43.427   6.260  10.605
21806W        W90279  39.950  17.121   4.156
21807W        W90280   6.698   1.479  11.562
21808W        W90281  25.708  29.536   2.898
21809W        W90282  29.971  26.028   0.447
21810W        W90283   6.222   5.745  14.959
21811W        W90284  17.703  38.055  14.947
21812W        W90285  30.933  11.370  14.791
21813W        W90286  30.614  26.096  12.028
21814W        W90287  25.063  28.469   4.746
21815W        W90288  17.157  15.251  11.499
21816W        W90289  28.680  21.250  14.018
21817W        W90290  23.652   5.371  13.513
21818W        W90291  29.519   3.221  12.842
21819W        W90292   4.305   4.910   2.845
21820W        W90293  37.478  39.042   0.883
21821W        W90294  23.197  43.809  12.934
21822W        W90295  21.652  24.662  14.890
21823W        W90296   8.767  36.880   2.677
21824W        W90297  44.394  41.992   2.731
21825W        W90298  12.301  18.778   1.229
21826W        W90299  15.181   8.820   3.258
21827W        W90300  11.366  28.675  14.031
21828W        W90301  22.613   2.860  14.985
21829W        W90302  43.433  34.916  12.512
21830W        W90303  38.361  41.315   0.740
21831W        W90304  20.097  16.796  13.019
21832W        W90305   9.709  11.809   2.831
21833W        W90306  14.186  23.625  13.498
21834W        W90307  12.738  32.549   1.407
21835W        W90308  13.301  12.140  10.982
21836W        W90309  25.205  37.860   1.746
21837W        W90310  29.499  17.305  14.285
21838W        W90311   2.446  27.965  14.292
21839W        W90312  23.009  26.975   1.757
21840W        W90313  32.526  17.204  12.523
21841W        W90314  13.156  23.183  12.863
21842W        W90315  41.035  40.826   0.275
21843W        W90316  36.010  37.884   3.277
21844W        W90317  31.439  26.621   4.731
21845W        W90318  33.016  24.704   2.726
21846W        W90319  33.110  30.611   3.631
21847W        W90320  40.383  39.851   4.833
21848W        W90321  38.470  37.052   2.819
21849W        W90322  24.609  17.248   4.149
21850W        W90323  38.821  41.979   1.896
21851W        W90324  20.165  10.846   2.254
21852W        W90325  14.600  44.310  12.471
21853W        W90326  12.171  14.632  12.536
21854W        W90327  39.874  10.726  13.499
21855W        W90328  12.202  12.655  11.596
21856W        W90329  37.951   3.305   1.830
21857W        W90330  22.226  10.877   1.449
21858W        W90331  36.372  14.227   3.329
21859W        W90332  15.255  35.470   2.291
21860W        W90333  23.733  33.455   1.396
21861W        W90334  10.245   0.906   4.617
21862W        W90335  24.227   0.307  11.476
21863W        W90336  24.038  31.037   1.273
21864W        W90337  10.842  41.492  14.321
21865W        W90338  22.535  17.145  12.071
21866W        W90339   9.751  19.048  13.320
21867W        W90340  36.053  10.742   1.270
21868W        W90341  10.769  38.357   3.711
21869W        W90342  27.660   9.877  13.319
21870W        W90343  22.726  24.715   3.197
21871W        W90344  30.647  43.333  14.366
21872W        W90345  32.557  39.825  11.538
21873W        W90346  25.684  18.755  12.894
21874W        W90347  25.140  17.697   4.264
21875W        W90348  24.075  14.125   2.756
21876W        W90349  31.526  16.790   0.800
21877W        W90350   4.411  26.600  11.870
21878W        W90351  32.543  30.943  14.025
21879W        W90352  22.053   6.186   2.339
21880W        W90353  42.494  13.113  10.633
21881W        W90354  37.879   6.191   0.912
21882W        W90355  23.216  34.379   1.908
21883W        W90356   2.784  15.708  12.953
21884W        W90357   5.203  20.062   3.713
21885W        W90358   6.291  42.469  14.852
21886W        W90359   5.409  21.163  10.122
21887W        W90360  11.177  34.939   4.285
21888W        W90361  31.512  26.005   2.352
21889W        W90362   5.345  30.984   0.397
21890W        W90363  21.084  16.717  13.803
21891W        W90364  38.946  43.281   3.841
21892W        W90365   8.265   5.306   5.140
21893W        W90366  34.872  11.652   0.333
21894W        W90367   5.352  16.140   2.736
21895W        W90368  14.814  38.341  10.623
21896W        W90369   2.428   8.275  12.547
21897W        W90370  22.200   6.380  11.952
21898W        W90371   4.831  19.041  11.910
21899W        W90372   2.812  30.542  14.004
21900W        W90373  18.753  44.974  14.915
21901W        W90374  25.062   3.337  11.941
21902W        W90375  23.161   2.467  14.947
21903W        W90376  31.607  30.148   2.696
21904W        W90377  15.197  26.124   4.335
21905W        W90378   3.282  25.152   3.851
21906W        W90379  20.145   2.814   3.225
21907W        W90380  38.469   4.873  12.831
21908W        W90381  25.976  20.546  12.075
21909W        W90382  24.134  32.497   0.402
21910W        W90383  18.609  24.099   3.166
21911W        W90384  42.003  43.832  13.859
21912W        W90385   4.839  17.135  12.396
21913W        W90386   5.389  16.570   2.400
21914W        W90387  42.397   7.377  14.276
21915W        W90388  31.437  36.376  11.944
21916W        W90389  17.670  34.996  11.089
21917W        W90390  21.682  17.255  13.467
21918W        W90391   0.836   1.409   2.227
21919W        W90392  24.509  13.747   3.182
21920W        W90393  16.754  17.587  11.471
21921W        W90394  40.018  26.614   2.180
21922W        W90395   1.963   4.855   3.237
21923W        W90396  44.489  11.242   5.223
21924W        W90397   7.306   0.448  12.048
21925W        W90398   7.185  27.123  14.491
21926W        W90399   6.810   4.229   5.626
21927W        W90400  33.423  15.157   1.292
21928W        W90401  19.775  38.849  11.940
21929W        W90402  23.605  12.693   3.849
21930W        W90403  11.844   6.310   3.813
21931W        W90404  26.458  13.759   4.718
21932W        W90405  29.642  19.586   3.333
21933W        W90406  33.920  33.924   2.806
21934W        W90407  43.281  17.222   3.248
21935W        W90408  34.592  29.080  14.954
21936W        W90409  37.369  15.639   4.193
21937W        W90410  14.115   3.306   3.209
21938W        W90411  10.784   4.286   3.329
21939W        W90412  29.145  30.055  12.876
21940W        W90413  40.815   5.889   1.750
21941W        W90414  40.344  29.463   2.362
21942W        W90415  29.111  22.577  13.391
21943W        W90416  38.485  21.636  14.778
21944W        W90417  31.612  28.042  10.597
21945W        W90418   0.276  12.628   1.258
21946W        W90419  37.981  36.392   4.134
21947W        W90420   8.295  40.989   3.181
21948W        W90421  34.375  18.766  10.583
21949W        W90422  33.079  11.736   1.750
21950W        W90423   5.900   3.398   0.377
21951W        W90424  30.527   3.887   2.343
21952W        W90425   7.233  21.681   2.786
21953W        W90426  12.162  30.506  11.010
21954W        W90427   9.193   9.384  13.045
21955W        W90428  20.113  41.421  12.034
21956W        W90429  14.758  40.525  13.474
21957W        W90430   5.831   8.337   1.925
21958W        W90431  12.839  21.232   4.654
21959W        W90432  31.546  21.178   9.921
21960W        W90433  39.349  42.994   2.386
21961W        W90434   4.847  22.638  14.920
21962W        W90435  40.501  14.301  10.483
21963W        W90436   6.864  12.245   3.376
21964W        W90437  25.206   8.243   4.734
21965W        W90438  27.094   2.339   2.231
21966W        W90439  41.796  29.585  11.050
21967W        W90440  12.667  16.247   0.301
21968W        W90441  23.057  18.735  11.928
21969W        W90442  24.168   9.306  14.340
21970W        W90443  11.818  24.531  13.466
21971W        W90444  31.946  36.447   3.264
21972W        W90445  42.359  40.917  11.857
21973W        W90446  18.595  39.328   4.188
21974W        W90447  17.139  31.119   4.755
21975W        W90448  22.563  35.109  13.923
21976W        W90449   4.346  33.410  14.451
21977W        W90450   9.672  34.103   5.222
21978W        W90451  34.947  24.216   5.136
21979W        W90452  33.414  37.876  10.075
21980W        W90453  31.467  43.948   0.906
21981W        W90454   5.846  31.133   4.338
21982W        W90455  25.137   2.867   3.736
21983W        W90456  14.296   6.738  12.476
21984W        W90457  14.289  32.495  10.520
21985W        W90458  23.554  17.198  11.502
21986W        W90459  12.361  23.125   4.347
21987W        W90460  11.372  32.449  10.445
21988W        W90461  38.363  27.094  14.759
21989W        W90462   4.704  25.977   5.102
21990W        W90463  12.781  27.466   1.407
21991W        W90464  24.486  31.417  13.957
21992W        W90465  21.109  42.377  11.969
21993W        W90466  27.682  40.315   1.883
21994W        W90467  30.602  33.425   1.296
21995W        W90468   4.832  20.241   0.757
21996W        W90469  19.237  29.003  12.514
21997W        W90470  26.014  28.159   1.767
21998W        W90471  31.440  26.528  10.093
21999W        W90472  18.285   8.783  12.462
22000W        W90473  24.140  33.065   2.811
22001W        W90474   7.335  30.489  13.987
22002W        W90475  42.283  21.153   0.857
22003W        W90476   0.297  25.694   3.844
22004W        W90477  37.422  24.074  11.417
22005W        W90478   8.222  14.643   3.681
22006W        W90479  24.641   0.444  12.493
22007W        W90480  43.451  34.076  12.578
22008W        W90481  22.586  31.977   2.818
22009W        W90482   5.193  17.156   2.796
22010W        W90483  38.430  21.698   2.392
22011W        W90484  28.104  41.382  12.091
22012W        W90485  10.787  40.840   1.441
22013W        W90486  41.002  41.376   0.319
22014W        W90487  42.010  44.915  14.963
22015W        W90488  30.629  40.320  11.452
22016W        W90489  44.339  37.904   1.353
22017W        W90490  37.480  11.302   1.369
22018W        W90491  19.749  33.397   3.726
22019W        W90492  39.327  29.983  14.275
22020W        W90493  24.601  39.054   3.324
22021W        W90494  40.935  22.237  12.896
22022W        W90495  26.492  27.143  11.873
22023W        W90496  43.443  18.618  12.864
22024W        W90497   2.378  11.651  10.491
22025W        W90498   1.400  31.979  13.826
22026W        W90499  34.447  10.158  10.511
22027W        W90500   5.856  24.042  14.003
22028W        W90501  37.980  11.774  12.394
22029W        W90502  34.086  17.705  11.061
22030W        W90503  12.346  42.918   3.206
22031W        W90504  14.645  24.096   3.267
22032W        W90505  37.367  43.959  11.036
22033W        W90506  20.581  17.635   3.292
22034W        W90507  28.126  28.095   9.984
22035W        W90508  15.724  17.661   0.301
22036W        W90509  29.009  25.167  13.909
22037W        W90510  15.264  26.204  12.030
22038W        W90511  14.806  44.959   4.226
22039W        W90512  32.437   6.301   1.321
22040W        W90513  22.077  13.117   1.259
22041W        W90514  43.293   5.196  11.551
22042W        W90515  19.171  19.681   4.758
22043W        W90516  15.721  28.062  12.938
22044W        W90517  35.568  25.579   1.312
22045W        W90518  41.885  23.721   2.398
22046W        W90519  32.010  37.455   2.887
22047W        W90520  25.644   5.210  12.575
22048W        W90521  13.243   9.852   2.334
22049W        W90522  33.879   5.699  10.562
22050W        W90523  26.671  30.118  10.889
22051W        W90524  35.399   1.476  12.939
22052W        W90525  22.192  19.160   0.454
22053W        W90526  23.578  35.935  14.841
22054W        W90527  10.684  10.694  11.513
22055W        W90528   4.277  19.567  13.815
22056W        W90529  42.352  30.028   1.697
22057W        W90530  33.982   1.913  13.886
22058W        W90531  36.049   6.209   0.249
22059W        W90532  26.594   9.800  11.101
22060W        W90533   7.854  13.639   4.802
22061W        W90534  42.813  25.966   1.382
22062W        W90535  43.445  38.051   3.786
22063W        W90536   6.234  36.506   3.765
22064W        W90537  25.567  26.980  13.864
22065W        W90538   7.694  24.069  13.378
22066W        W90539  43.822   2.367  13.437
22067W        W90540  11.824  40.377  11.578
22068W        W90541  26.668   5.799   5.313
22069W        W90542  31.506  24.592  13.315
22070W        W90543  15.146  33.903  14.432
22071W        W90544  34.380  19.577  12.577
22072W        W90545  13.799  38.405  14.960
22073W        W90546  44.870  31.475  12.831
22074W        W90547   7.791  40.912  13.438
22075W        W90548  30.511   7.395   1.397
22076W        W90549  29.992   5.743   4.207
22077W        W90550   8.361  14.278  10.983
22078W        W90551  21.127  26.130  11.474
22079W        W90552  32.025  23.529   1.249
22080W        W90553  26.474  39.476   3.831
22081W        W90554   2.357  33.066   1.699
22082W        W90555  22.528  20.117   4.756
22083W        W90556  41.391  35.940   0.925
22084W        W90557  26.512  14.716  10.619
22085W        W90558  21.571  35.502   0.375
22086W        W90559  42.371  10.209   3.299
22087W        W90560  18.206  16.228   0.303
22088W        W90561   4.417  35.909   3.768
22089W        W90562  44.764  27.511   3.797
22090W        W90563  34.518  32.514  11.966
22091W        W90564   3.715  44.797  14.501
22092W        W90565  42.332   1.944   0.264
22093W        W90566   2.312  29.538  13.485
22094W        W90567  35.545  22.178  11.585
22095W        W90568   9.262   2.285  12.419
22096W        W90569  34.958  27.681   2.753
22097W        W90570  26.139  25.040  12.918
22098W        W90571   9.822   1.378  11.960
22099W        W90572  11.754  38.893  12.902
22100W        W90573  41.956  22.528  11.394
22101W        W90574  32.115  31.507   1.379
22102W        W90575  20.092   7.173   1.395
22103W        W90576   4.205  23.642  14.917
22104W        W90577   4.228  25.105  11.969
22105W        W90578  22.250   8.684   3.231
22106W        W90579  14.233  32.610   0.333
22107W        W90580  42.351  32.051  10.594
22108W        W90581   0.905  10.360   0.443
22109W        W90582  26.180  31.454  11.872
22110W        W90583   6.912   5.406  11.414
22111W        W90584  16.107   1.421   4.670
22112W        W90585   8.209  14.164   1.340
22113W        W90586  37.932   8.297   1.377
22114W        W90587  17.677  21.725   1.332
22115W        W90588  42.320  28.174  11.874
22116W        W90589  15.194  11.634  11.115
22117W        W90590  10.728  17.219  14.924
22118W        W90591  38.443  21.058  13.385
22119W        W90592  36.558  25.165   0.891
22120W        W90593  21.757  22.046  11.102
22121W        W90594  24.719  31.125   2.810
22122W        W90595  15.087  42.956   2.893
22123W        W90596  14.325  39.938   1.289
22124W        W90597   5.360  21.201  10.981
22125W        W90598   9.753  44.956  14.318
22126W        W90599  44.409  39.887   1.883
22127W        W90600  33.620  20.150  12.527
22128W        W90601   5.733  40.335   3.766
22129W        W90602  14.246  26.618  13.531
22130W        W90603  22.640  31.590  14.846
22131W        W90604  20.523  34.877   3.799
22132W        W90605   6.395   8.234  11.543
22133W        W90606  37.906   4.758  13.532
22134W        W90607  29.928   2.353  11.429
22135W        W90608  31.050  29.153  12.936
22136W        W90609  11.169   2.395  11.897
22137W        W90610  29.670  13.304   3.850
22138W        W90611  30.604  15.282   2.882
22139W        W90612  42.820   7.189   1.364
22140W        W90613   7.277   8.801   2.864
22141W        W90614  22.684  20.661  12.466
22142W        W90615   5.244   4.866   4.198
22143W        W90616  28.969  34.103   1.357
22144W        W90617  30.419  28.580   2.859
22145W        W90618  14.145  18.211   2.185
22146W        W90619  26.054   5.807   2.719
22147W        W90620  12.298  22.110  14.291
22148W        W90621  25.538  17.138   2.703
22149W        W90622  14.111  18.556  10.900
22150W        W90623  23.017  42.402  12.864
22151W        W90624  17.702  35.890  14.985
22152W        W90625   7.905  13.635   2.339
22153W        W90626  35.035  10.329  14.900
22154W        W90627  14.787  29.158   0.258
22155W        W90628   5.887   4.734   4.172
22156W        W90629  35.552  20.544   1.212
22157W        W90630  42.354  27.684  11.022
22158W        W90631  33.490  16.313   2.368
22159W        W90632  16.284   6.819  10.605
22160W        W90633  19.066   7.211   0.355
22161W        W90634  38.456  13.291   0.459
22162W        W90635  19.128   5.730  12.343
22163W        W90636   5.736  12.668   4.349
22164W        W90637  40.527  35.995  10.030
22165W        W90638  40.898  37.842   0.259
22166W        W90639  35.397  30.601   3.289
22167W        W90640  32.961   5.304  11.113
22168W        W90641  35.466  34.878   0.456
22169W        W90642   7.698   2.292  14.888
22170W        W90643  32.108  23.609  10.554
22171W        W90644   2.352  10.848  12.039
22172W        W90645  40.356  32.063  11.451
22173W        W90646  21.162  11.149  12.049
22174W        W90647  36.563  27.489   0.947
22175W        W90648  20.176  44.755  12.830
22176W        W90649  37.957   0.804  14.979
22177W        W90650  36.441   1.790   1.303
22178W        W90651  42.413  12.786  11.606
22179W        W90652  36.075   5.785   3.651
22180W        W90653  24.147  38.046  13.419
22181W        W90654  29.609  44.387  10.554
22182W        W90655  32.042  25.556   0.791
22183W        W90656   6.696  40.875  14.942
22184W        W90657  20.217  26.995   2.845
22185W        W90658  11.714  42.425   4.347
22186W        W90659   8.239  33.975   3.336
22187W        W90660  15.821  17.733   3.767
22188W        W90661  15.801  38.948  14.783
22189W        W90662  20.047  38.915   1.782
22190W        W90663  43.884  23.023  10.507
22191W        W90664  40.512  36.379   4.764
22192W        W90665  16.221   2.729   1.447
22193W        W90666  29.144  17.228  11.486
22194W        W90667   5.874   3.362  11.507
22195W        W90668  41.887   3.724   4.330
22196W        W90669  29.043  14.163  11.475
22197W        W90670   3.459   0.783   3.787
22198W        W90671   6.252  26.464  14.010
22199W        W90672  40.955   0.917   1.847
22200W        W90673  15.579  12.848  10.431
22201W        W90674   6.195   0.387   0.782
22202W        W90675  13.155  18.573   2.746
22203W        W90676  18.204  40.546  11.571
22204W        W90677   5.301  19.537   0.370
22205W        W90678  41.033   0.350  12.394
22206W        W90679  32.548  31.102  10.476
22207W        W90680   8.670  30.436   3.752
22208W        W90681   1.863  21.078  13.923
22209W        W90682  36.051  42.924  14.366
22210W        W90683  38.864  43.938  12.444
22211W        W90684  31.945  26.462   5.207
22212W        W90685  23.224  25.099   0.894
22213W        W90686  44.501   5.906   4.160
22214W        W90687   8.678  17.201  13.328
22215W        W90688  12.209   7.321   2.373
22216W        W90689  31.586   3.262  14.856
22217W        W90690  39.894  16.150   4.335
22218W        W90691  27.647  19.617   2.868
22219W        W90692  26.961  40.323  14.429
22220W        W90693  22.590  11.686   4.767
22221W        W90694  31.925  21.050   2.741
22222W        W90695   3.307  12.340   4.292
22223W        W90696  10.305   7.755  12.379
22224W        W90697   7.293  17.182   0.906
22225W        W90698   2.301  22.614  12.375
22226W        W90699   6.244  22.739  11.494
22227W        W90700  43.358  35.487  12.980
22228W        W90701  37.948  27.950   0.808
22229W        W90702  31.647  20.061  13.447
22230W        W90703   6.202  33.601   3.338
22231W        W90704  28.965  43.871   2.830
22232W        W90705  29.970  24.089   2.257
22233W        W90706  44.418  35.415  10.433
22234W        W90707  30.480  23.644   0.773
22235W        W90708   2.777  39.900  14.442
22236W        W90709  25.471   9.178   4.802
22237W        W90710  26.635  24.029   0.316
22238W        W90711  22.630  16.269   2.342
22239W        W90712  21.585  12.206   2.257
22240W        W90713  17.077  40.502   4.651
22241W        W90714  26.137  33.532  12.902
22242W        W90715  10.833  29.940   0.825
22243W        W90716   2.768   8.845   1.334
22244W        W90717  38.052  37.405  12.053
22245W        W90718   9.173  13.669   0.294
22246W        W90719  41.965  43.957  10.507
22247W        W90720  21.595  29.109   4.216
22248W        W90721  12.788   0.789   2.886
22249W        W90722   4.221  15.228   3.354
22250W        W90723  42.463  17.755   1.308
22251W        W90724  33.489  28.037  10.589
22252W        W90725   5.844  34.025   0.747
22253W        W90726   4.722  17.575   2.393
22254W        W90727  20.054  28.595   4.134
22255W        W90728  24.017  33.462  11.119
22256W        W90729   8.659  40.438  12.875
22257W        W90730   8.320  40.906  12.844
22258W        W90731  42.330  11.638  14.482
22259W        W90732  40.880  11.845  10.618
22260W        W90733  12.207   5.393  14.874
22261W        W90734   6.254  42.439  14.384
22262W        W90735   1.295  33.407  14.888
22263W        W90736  34.514  39.498   4.808
22264W        W90737  24.658  19.624   2.865
22265W        W90738  32.599  33.927   0.248
22266W        W90739   6.734  26.493   5.149
22267W        W90740   8.687   8.374   2.790
22268W        W90741   4.896  32.932   9.964
22269W        W90742  35.518   1.439  12.031
22270W        W90743  21.194  16.314   1.430
22271W        W90744  35.595  10.346   2.859
22272W        W90745   4.219  19.072  12.082
22273W        W90746  11.748  41.324   2.784
22274W        W90747  37.982   3.843  12.855
22275W        W90748  16.694  23.578  13.371
22276W        W90749  23.234   5.886  12.519
22277W        W90750  42.330   1.935  14.449
22278W        W90751  30.036  27.654   3.805
22279W        W90752  13.702  11.303  11.406
22280W        W90753   7.230  18.559   2.261
22281W        W90754  10.228   0.475  12.045
22282W        W90755   2.270   1.255  11.601
22283W        W90756  25.651  40.427  12.452
22284W        W90757  10.781  35.963  13.038
22285W        W90758   1.732  18.206  10.496
22286W        W90759   6.706   9.324   2.206
22287W        W90760  38.959  39.055   5.187
22288W        W90761  28.018  39.395  14.860
22289W        W90762   6.230   8.893   3.685
22290W        W90763  23.179  42.014  14.968
22291W        W90764  38.370  44.947   1.869
22292W        W90765  36.024  38.431  10.609
22293W        W90766  41.977   3.836   0.311
22294W        W90767  12.744  10.676  12.356
22295W        W90768  24.642  39.480   0.386
22296W        W90769  31.617  40.025  10.513
22297W        W90770  25.593  18.778  13.401
22298W        W90771  21.060  25.545   5.643
22299W        W90772  38.449  11.238  14.863
22300W        W90773  43.941  15.161   3.655
22301W        W90774  20.098   6.230  13.377
22302W        W90775   7.689  38.343  13.982
22303W        W90776  18.283   9.212  14.873
22304W        W90777  30.907   2.757  14.350
22305W        W90778  34.891  42.797   0.843
22306W        W90779  21.184  32.105  13.456
22307W        W90780  18.139  18.756  11.526
22308W        W90781  35.088  21.607   2.351
22309W        W90782  28.543  26.627   4.209
22310W        W90783   9.285  19.690   4.182
22311W        W90784  15.269  36.922  13.042
22312W        W90785  24.093  30.116   4.660
22313W        W90786  40.854  28.592  13.545
22314W        W90787   2.792  19.188   3.220
22315W        W90788  13.168  16.781   1.853
22316W        W90789  43.459  41.442   3.666
22317W        W90790  42.017   5.420  13.934
22318W        W90791  38.891  31.952   2.213
22319W        W90792  39.018  32.111  13.816
22320W        W90793  28.033  10.231   2.706
22321W        W90794  21.062  13.690   2.208
22322W        W90795   1.395  31.555  13.370
22323W        W90796  28.644  33.512   4.737
22324W        W90797  11.816  26.126  10.575
22325W        W90798  43.434  12.296   4.630
22326W        W90799  34.582   7.844   2.881
22327W        W90800   0.315  37.454  10.616
22328W        W90801  35.909  16.160   4.300
22329W        W90802  12.775   8.796  14.296
22330W        W90803  30.433  28.588   1.233
22331W        W90804  29.940   1.416  11.914
22332W        W90805   2.945  31.561  13.968
22333W        W90806  23.091  11.291   2.816
22334W        W90807  30.518  44.296   5.212
22335W        W90808  39.064  20.093  14.511
22336W        W90809   2.318  34.886  10.411
22337W        W90810  34.446  21.677   4.352
22338W        W90811  19.217  11.201   2.186
22339W        W90812  34.466  25.046   0.793
22340W        W90813   4.700  41.457  13.495
22341W        W90814  41.875   9.685   1.241
22342W        W90815  25.097  39.047  11.875
22343W        W90816  21.164   5.196  13.447
22344W        W90817  43.300  29.161  14.948
22345W        W90818  24.029  27.078   0.889
22346W        W90819  16.141  16.222  12.464
22347W        W90820  39.823  27.127  11.401
22348W        W90821  20.137  22.998  12.071
22349W        W90822   6.233   5.404   3.745
22350W        W90823  41.512   1.259  10.960
22351W        W90824  36.989   0.811  14.414
22352W        W90825  16.677   1.816  10.902
22353W        W90826  23.546   3.237  11.994
22354W        W90827  38.830   3.948   0.415
22355W        W90828  25.487  23.541  12.015
22356W        W90829  32.406  42.825   2.760
22357W        W90830  24.987   6.778  14.298
22358W        W90831  40.891  22.224  12.542
22359W        W90832   5.821   1.346   0.250
22360W        W90833  10.199  17.694  11.611
22361W        W90834  38.471  26.550   4.761
22362W        W90835   7.707  32.026  10.984
22363W        W90836   7.341  30.569   4.297
22364W        W90837  35.496  20.064   4.193
22365W        W90838   1.438  12.806  11.544
22366W        W90839  42.894   7.900   5.085
22367W        W90840  43.385  30.055  13.858
22368W        W90841  41.899  30.561  14.961
22369W        W90842  21.551  44.462   2.229
22370W        W90843  26.028  39.856   2.809
22371W        W90844  38.914  34.019  10.590
22372W        W90845  19.597   3.288   1.916
22373W        W90846  36.356  24.492   4.341
22374W        W90847  14.792  34.108   2.740
22375W        W90848  19.221   3.255   3.176
22376W        W90849  20.107  44.946   2.879
22377W        W90850  21.517  44.347  10.624
22378W        W90851  13.253  22.581   0.414
22379W        W90852  39.341  34.520  11.471
22380W        W90853  27.149  20.149   2.678
22381W        W90854  43.404   2.443   0.284
22382W        W90855  23.496   9.237   3.848
22383W        W90856  44.402  25.572  14.359
22384W        W90857  16.656  22.243   2.343
22385W        W90858  30.651   8.679  14.482
22386W        W90859  16.179  27.589  11.475
22387W        W90860  11.785  17.092  11.078
22388W        W90861   8.686  35.413  11.471
22389W        W90862   4.436   0.761   3.733
22390W        W90863  44.352  24.629  11.450
22391W        W90864  39.408   5.905  11.085
22392W        W90865  15.258  14.699   1.818
22393W        W90866   9.346   1.955   0.431
22394W        W90867  12.207  19.634   3.170
22395W        W90868  31.916   6.192  14.430
22396W        W90869  16.665  20.679  13.378
22397W        W90870  27.536  41.379  13.463
22398W        W90871   3.274  35.012   3.339
22399W        W90872  24.683  21.215   1.720
22400W        W90873  22.054  38.538   2.829
22401W        W90874  13.125  10.878  11.043
22402W        W90875  24.184  39.500  14.509
22403W        W90876  23.644  27.952  10.000
22404W        W90877  36.898  26.593  12.468
22405W        W90878  18.568  26.702   4.728
22406W        W90879  24.114  36.353   2.853
22407W        W90880  29.127  24.075  14.493
22408W        W90881  18.282  31.648   0.411
22409W        W90882  43.006   7.312  13.472
22410W        W90883  35.513  36.955  11.105
22411W        W90884  12.252  30.987  11.997
22412W        W90885  36.465  40.412  13.901
22413W        W90886   6.762  36.421   2.757
22414W        W90887   5.345  10.866   4.304
22415W        W90888   3.297  33.437  12.063
22416W        W90889  12.766  11.781  11.477
22417W        W90890  18.707  37.851   0.287
22418W        W90891  25.658  39.471  14.819
22419W        W90892  33.021  41.856  10.436
22420W        W90893  42.821  43.309   0.933
22421W        W90894  37.884  37.881   1.716
22422W        W90895  15.309   3.780   4.209
22423W        W90896  32.123  14.644  14.845
22424W        W90897  20.746  17.129  12.039
22425W        W90898  41.981   5.396   2.846
22426W        W90899  39.046  21.633   2.800
22427W        W90900  11.284  11.824  10.429
22428W        W90901  23.532  10.377   3.706
22429W        W90902   7.893  37.060  12.343
22430W        W90903  34.948  13.785   1.847
22431W        W90904  43.977  38.404   1.767
22432W        W90905  42.978  22.116   3.845
22433W        W90906  44.837   9.298   1.881
22434W        W90907  19.235  39.873   2.273
22435W        W90908   6.218   2.747  12.918
22436W        W90909  20.756   1.860  14.897
22437W        W90910  28.466  14.784   1.775
22438W        W90911  33.529  11.813  11.414
22439W        W90912  41.430  19.188  13.925
22440W        W90913  18.152  31.057  12.342
22441W        W90914  35.899   3.228  10.145
22442W        W90915  20.052  35.038  12.392
22443W        W90916  10.341  30.573   1.299
22444W        W90917  27.677  10.223   3.724
22445W        W90918  18.776  25.151   3.811
22446W        W90919  40.546  39.980  10.975
22447W        W90920   3.218  12.311   3.266
22448W        W90921  11.863  35.442   3.856
22449W        W90922   0.299  35.513  10.443
22450W        W90923  23.578  11.777   2.760
22451W        W90924  19.540  10.710   4.828
22452W        W90925   6.852  20.725  13.999
22453W        W90926  39.394  14.708  11.950
22454W        W90927  29.958  31.019   0.378
22455W        W90928  41.796   5.335  10.624
22456W        W90929  35.578  20.034  13.407
22457W        W90930  30.627  21.204  11.980
22458W        W90931   9.229   5.332  14.370
22459W        W90932  41.922   4.799   3.729
22460W        W90933  26.702  36.069   2.244
22461W        W90934  36.855  19.184  14.024
22462W        W90935   0.846  25.010   3.172
22463W        W90936  30.448   0.766  10.474
22464W        W90937  10.789  24.610   1.719
22465W        W90938  32.458  16.615  12.510
22466W        W90939   1.875   6.299   3.384
22467W        W90940  43.965  20.525  13.855
22468W        W90941   7.862  39.316  13.401
22469W        W90942  43.429   1.328  13.927
22470W        W90943  11.674   5.836  12.442
22471W        W90944  12.800  10.785  12.020
22472W        W90945  39.493   9.644  10.461
22473W        W90946  15.690  32.495   3.275
22474W        W90947   3.741   1.771   3.724
22475W        W90948  15.798  38.991  12.578
22476W        W90949   4.728  29.612   5.309
22477W        W90950  20.203   0.419  12.362
22478W        W90951  36.956  13.332   3.272
22479W        W90952  24.200  22.548  13.399
22480W        W90953   3.385   6.404   2.202
22481W        W90954  23.594  28.030   3.671
22482W        W90955  41.918  33.597   5.116
22483W        W90956  39.479  15.668  14.000
22484W        W90957  18.711  23.038   2.843
22485W        W90958   4.911  29.074  14.400
22486W        W90959  17.650  14.160  11.066
22487W        W90960  33.432  31.910  12.908
22488W        W90961  11.141  29.668   2.308
22489W        W90962  23.182  20.544  12.479
22490W        W90963  19.596  43.397  10.956
22491W        W90964  41.314  29.594  13.481
22492W        W90965  43.459  11.340   1.709
22493W        W90966  30.504  19.650  14.908
22494W        W90967  26.042  10.694   1.783
22495W        W90968  17.196  16.742   4.795
22496W        W90969  18.179   5.799   0.399
22497W        W90970  10.239   5.392  14.405
22498W        W90971  38.972  43.822   0.403
22499W        W90972  19.181  27.607  14.925
22500W        W90973   1.237  14.197   3.238
22501W        W90974  39.904  20.271  12.017
22502W        W90975  21.027  18.079  14.899
22503W        W90976  36.899  20.053  11.532
22504W        W90977  41.910  19.148   3.203
22505W        W90978   3.844  33.580   2.215
22506W        W90979  23.091  12.814   4.334
22507W        W90980  28.119  12.750  11.954
22508W        W90981  15.188   5.283   0.780
22509W        W90982   9.262  17.256   1.264
22510W        W90983  23.003  44.839   2.704
22511W        W90984  22.034  13.312  14.364
22512W        W90985  14.660  29.424  11.110
22513W        W90986  10.650  19.068  12.877
22514W        W90987  16.645  37.910  12.531
22515W        W90988  31.013  21.186  10.541
22516W        W90989  13.835  20.085   4.763
22517W        W90990  10.276  11.852  13.437
22518W        W90991  43.862  33.548  12.028
22519W        W90992  40.513  27.560   1.894
22520W        W90993  22.708  24.499  12.036
22521W        W90994  32.130  44.316  10.966
22522W        W90995   6.193  39.502   3.271
22523W        W90996  12.650  35.066  11.943
22524W        W90997  33.492  35.960  13.039
22525W        W90998   9.263  38.845   4.797
22526W        W90999  31.106  28.463  10.442
22527W        W91000  12.834  24.209  14.902
22528W        W91001  22.135  28.516   0.735
22529W        W91002  31.557  26.595   5.241
22530W        W91003  11.633  25.121   1.324
22531W        W91004  31.479  29.600  10.432
22532W        W91005  36.427  39.971   3.642
22533W        W91006   0.855  15.793   0.925
22534W        W91007  41.444   4.742   1.821
22535W        W91008  24.171  39.898   1.262
22536W        W91009   8.739   0.415  10.066
22537W        W91010  20.101  31.924   0.737
22538W        W91011   0.748  23.183  12.374
22539W        W91012  29.599   2.929   3.366
22540W        W91013  11.718  41.299  10.920
22541W        W91014  32.095   9.884  11.947
22542W        W91015  38.823  20.764   0.839
22543W        W91016  30.072  41.484   0.278
22544W        W91017  13.791  19.593   0.852
22545W        W91018  32.558  21.213  12.001
22546W        W91019  26.974  32.473   3.677
22547W        W91020  42.858  23.599  13.930
22548W        W91021  10.800   0.456  13.889
22549W        W91022  14.737  20.163  14.967
22550W        W91023   7.262   1.774   1.721
22551W        W91024   7.390  29.971   3.816
22552W        W91025  34.420   0.845  12.929
22553W        W91026  11.129   0.459  14.031
22554W        W91027  28.931  26.030  13.977
22555W        W91028  44.793  11.708   4.262
22556W        W91029  39.418  24.492   0.386
22557W        W91030  15.778   4.401   4.789
22558W        W91031   3.347  32.997   0.927
22559W        W91032  42.900  36.453  14.459
22560W        W91033  27.013  41.401   1.416
22561W        W91034  34.087  17.676  13.985
22562W        W91035  22.104   0.457   4.658
22563W        W91036  19.209  17.150   0.946
22564W        W91037  37.859  33.013   2.330
22565W        W91038  39.856   0.842   4.797
22566W        W91039   1.358  30.954  12.381
22567W        W91040  39.392  38.954   9.939
22568W        W91041  37.472  22.524   2.871
22569W        W91042  20.763   3.844   3.214
22570W        W91043  25.194  15.703  10.575
22571W        W91044  33.993  29.104  11.049
22572W        W91045  22.671   7.677  12.934
22573W        W91046  20.091  24.043  13.374
22574W        W91047  43.790  20.094  10.528
22575W        W91048  15.290  25.063  12.453
22576W        W91049   7.335  10.281  10.459
22577W        W91050   6.405  23.673   2.266
22578W        W91051  22.553  29.027  11.859
22579W        W91052  44.876  34.954   3.346
22580W        W91053  39.555  37.377   4.655
22581W        W91054  39.362  39.390  14.318
22582W        W91055  35.468   0.957  14.450
22583W        W91056  22.576   3.367  11.093
22584W        W91057  21.729   4.316  13.871
22585W        W91058   1.977  37.424  13.438
22586W        W91059   6.390  32.093   3.811
22587W        W91060  21.036   3.319  12.504
22588W        W91061  18.613  14.616   0.909
22589W        W91062  15.654  32.395   2.764
22590W        W91063   1.445  19.285  13.365
22591W        W91064  19.142   5.934  13.055
22592W        W91065   0.403  31.011  10.903
22593W        W91066  12.834  10.847   0.951
22594W        W91067  21.599  30.137   0.291
22595W        W91068   1.297  32.444   3.267
22596W        W91069   7.739  25.144  12.827
22597W        W91070  43.890  21.626  11.882
22598W        W91071  43.343  21.590   3.303
22599W        W91072  28.507   7.891  11.095
22600W        W91073  38.043  30.503  12.914
22601W        W91074   0.888  29.933   0.265
22602W        W91075  32.572  23.573  13.545
22603W        W91076  21.077  37.490   3.826
22604W        W91077  24.681   4.899   2.355
22605W        W91078  36.959  32.137   0.736
22606W        W91079   1.895  14.621   4.823
22607W        W91080  32.469  26.994  12.836
22608W        W91081  23.563  33.993   2.663
22609W        W91082  43.852  12.224  12.876
22610W        W91083   3.762  25.182   0.343
22611W        W91084  15.595  21.150  11.407
22612W        W91085  20.679  17.578  12.493
22613W        W91086  20.729   6.777  12.997
22614W        W91087  32.425  44.789  13.422
22615W        W91088  22.013  41.495   4.232
22616W        W91089  29.958  39.009  10.605
22617W        W91090  18.767   7.269  14.419
22618W        W91091  11.829  39.467   3.334
22619W        W91092   3.294  13.655   0.803
22620W        W91093  18.736  24.665  11.484
22621W        W91094  34.405   6.285  14.855
22622W        W91095  12.282  17.638   1.848
22623W        W91096  16.296  36.863   5.247
22624W        W91097  29.516  11.175   1.746
22625W        W91098  32.891  17.655   4.164
22626W        W91099  43.890  38.940  14.878
22627W        W91100  35.447  44.971   4.256
22628W        W91101  19.258  41.931  10.560
22629W        W91102   7.881   9.326  14.478
22630W        W91103  21.589  23.575  12.957
22631W        W91104  11.634  38.340  10.577
22632W        W91105  22.742  38.476   0.479
22633W        W91106  41.974  17.257   4.314
22634W        W91107  29.430  17.683  11.395
22635W        W91108  27.491  26.553   5.086
22636W        W91109  21.736  12.323   9.619
22637W        W91110   6.714  25.063  14.459
22638W        W91111  15.300  35.956   3.332
22639W        W91112   5.734   6.908   5.302
22640W        W91113   7.383   1.393  11.552
22641W        W91114  11.773   1.340  11.524
22642W        W91115  28.013  42.905   1.759
22643W        W91116  26.179  34.563  11.518
22644W        W91117  31.486   6.188   2.270
22645W        W91118  40.465  31.924   4.117
22646W        W91119   6.301  44.432  10.517
22647W        W91120  24.718  26.107  13.361
22648W        W91121  35.537  29.154  13.955
22649W        W91122  41.944  44.006  12.415
22650W        W91123  37.863   5.380  12.547
22651W        W91124  24.085  33.401   2.377
22652W        W91125  24.632  34.586  11.916
22653W        W91126  28.125  31.591  10.905
22654W        W91127  17.198  39.479  12.850
22655W        W91128  22.215  23.629  11.064
22656W        W91129  22.161  16.309   2.803
22657W        W91130  30.581   0.766   0.750
22658W        W91131  30.029  21.609   4.130
22659W        W91132  21.041  10.296   3.327
22660W        W91133  35.578  15.601  11.512
22661W        W91134   1.781  15.599  14.332
22662W        W91135  12.691  38.530  12.872
22663W        W91136  12.249   7.774   3.303
22664W        W91137  26.563  40.335   2.697
22665W        W91138   8.687  25.540  14.936
22666W        W91139  17.270   2.893  12.503
22667W        W91140  17.186  24.046   0.810
22668W        W91141  22.546  17.084   2.677
22669W        W91142  25.596   8.260   3.306
22670W        W91143   4.887  25.995   3.672
22671W        W91144  27.563  38.399  13.372
22672W        W91145  34.989  28.099   3.276
22673W        W91146  28.151   1.259  14.324
22674W        W91147   0.494  24.099  14.380
22675W        W91148  26.621  29.557  11.568
22676W        W91149  12.788  24.065   2.377
22677W        W91150  30.955  34.976   4.303
22678W        W91151  23.688  16.292   4.262
22679W        W91152  20.680   8.357   3.650
22680W        W91153  22.009  24.487  10.947
22681W        W91154  17.567  10.875  11.049
22682W        W91155  19.762   0.388   3.341
22683W        W91156  43.860  33.055  12.426
22684W        W91157   1.435  26.579   4.803
22685W        W91158  40.800  41.909   0.779
22686W        W91159   4.766  15.626  11.395
22687W        W91160  37.881  10.859  10.556
22688W        W91161  34.117   0.863  14.000
22689W        W91162  22.098  21.147  13.853
22690W        W91163  17.149   2.271  13.351
22691W        W91164  32.913  26.493   2.361
22692W        W91165  43.836  30.936   1.285
22693W        W91166  40.902  19.195  14.810
22694W        W91167  11.722  16.652   2.391
22695W        W91168  14.267  12.157  11.955
22696W        W91169  14.239   0.340  11.929
22697W        W91170   0.915  18.703  11.446
22698W        W91171   6.313  16.669  10.548
22699W        W91172  20.736  15.639   1.269
22700W        W91173   7.389   9.842   3.637
22701W        W91174  18.788  18.190  14.850
22702W        W91175  10.646  10.378   3.752
22703W        W91176  10.322   5.880   0.765
22704W        W91177  17.635  33.087  13.486
22705W        W91178  19.654  30.590   4.228
22706W        W91179  28.176  39.029  12.501
22707W        W91180  18.118  23.696  14.494
22708W        W91181  33.116  26.103  12.388
22709W        W91182   5.756  20.078   4.600
22710W        W91183  27.186   1.311   3.789
22711W        W91184  36.940  19.759   4.748
22712W        W91185  24.109  17.222  13.387
22713W        W91186  23.159  35.966  14.449
22714W        W91187   8.387  44.488  13.802
22715W        W91188   4.394  17.117   4.344
22716W        W91189  42.803  10.674   1.355
22717W        W91190  27.622  29.463   3.702
22718W        W91191  20.188   4.755   3.216
22719W        W91192  13.239  30.460   5.086
22720W        W91193  13.323   8.721  13.051
22721W        W91194  37.971  19.259  11.378
22722W        W91195  35.861  35.451  12.045
22723W        W91196  26.082   9.363   4.218
22724W        W91197   3.443  38.482  10.929
22725W        W91198  39.872   3.321   1.329
22726W        W91199  37.887  24.160  10.933
22727W        W91200  15.182  32.033  13.329
22728W        W91201   6.203  14.158  14.797
22729W        W91202  27.943  22.746   1.436
22730W        W91203  16.577  35.060  14.331
22731W        W91204  41.821  43.991   0.339
22732W        W91205  22.546  23.599   0.344
22733W        W91206  28.536  33.549   1.838
22734W        W91207  36.499   2.826  13.376
22735W        W91208   3.883   6.300  11.005
22736W        W91209  15.096  12.762  13.459
22737W        W91210  34.390  27.540  13.999
22738W        W91211  24.680  15.285   2.767
22739W        W91212  28.963  43.478   0.317
22740W        W91213   8.834   1.795   3.152
22741W        W91214  17.171  42.351  13.886
22742W        W91215   9.843  11.861   2.408
22743W        W91216  31.417   0.932   4.341
22744W        W91217  41.904   4.256   0.295
22745W        W91218  17.751  13.216  10.408
22746W        W91219  16.276  14.696   1.327
22747W        W91220  23.171  13.147   0.741
22748W        W91221   4.257  20.560  11.960
22749W        W91222  40.485  30.603   1.814
22750W        W91223   1.243  17.143  11.102
22751W        W91224  13.144  12.307   0.808
22752W        W91225  31.564   9.305  12.412
22753W        W91226  23.067  26.981   3.778
22754W        W91227  30.071  23.525   4.756
22755W        W91228  11.279   6.883  12.381
22756W        W91229  44.941  38.943   0.376
22757W        W91230  11.189  25.501   4.718
22758W        W91231  34.431  32.476  11.474
22759W        W91232  33.399  26.504  10.943
22760W        W91233  20.649  36.989   1.819
22761W        W91234  23.043   5.334   0.377
22762W        W91235  35.876  40.454   3.157
22763W        W91236  43.764  20.682  13.434
22764W        W91237  10.743   8.384  10.543
22765W        W91238  17.185  21.635   2.755
22766W        W91239  37.871  30.026  14.281
22767W        W91240  43.345  24.660  10.960
22768W        W91241  18.729  18.574   1.823
22769W        W91242  20.231   0.922   0.729
22770W        W91243  23.113   9.191  14.508
22771W        W91244   8.372   9.681   0.902
22772W        W91245  30.473  32.519  10.485
22773W        W91246  41.460   8.743  13.391
22774W        W91247  12.855  25.077   4.302
22775W        W91248  40.543  41.014   0.387
22776W        W91249  35.411  17.645  13.338
22777W        W91250  34.976  27.942   3.762
22778W        W91251  32.602  14.693   0.918
22779W        W91252  17.702   6.304  13.421
22780W        W91253  25.181  33.015   3.192
22781W        W91254  17.193   3.827   1.444
22782W        W91255  33.425  38.941   2.215
22783W        W91256  41.516  24.605  13.389
22784W        W91257   6.385  25.698   2.870
22785W        W91258  43.403   1.253   3.311
22786W        W91259  17.171  36.556   3.291
22787W        W91260  28.086  35.501  12.513
22788W        W91261  42.910  40.497  13.330
22789W        W91262  25.104  12.778  10.492
22790W        W91263  30.010  25.627  13.960
22791W        W91264  35.048  21.225  13.908
22792W        W91265  20.682  36.083   4.664
22793W        W91266   9.379  26.661   1.232
22794W        W91267  40.529  19.208  11.432
22795W        W91268  29.519  18.766  12.550
22796W        W91269  29.165  11.666  13.962
22797W        W91270   1.813  38.388   3.168
22798W        W91271   1.279  26.139   4.159
22799W        W91272  35.582  13.112   3.367
22800W        W91273  11.272  31.125  12.426
22801W        W91274  14.254  35.576   4.124
22802W        W91275  18.102   2.787  13.820
22803W        W91276  31.991  20.602  11.014
22804W        W91277   6.262  39.810   2.182
22805W        W91278  36.045   8.706  14.010
22806W        W91279   0.304  19.754   3.217
22807W        W91280  37.839  41.043  12.904
22808W        W91281  25.157  38.467   3.737
22809W        W91282  19.085  16.161  11.455
22810W        W91283  21.185  41.377   3.382
22811W        W91284  26.987  37.568   2.860
22812W        W91285  38.508   6.842   0.323
22813W        W91286  36.080   3.799   3.762
22814W        W91287  31.982  33.103   2.351
22815W        W91288  27.622  22.544   4.644
22816W        W91289  24.511  25.665  10.982
22817W        W91290  31.967  41.458   2.215
22818W        W91291  33.597  27.674   2.780
22819W        W91292  39.817  26.168   0.814
22820W        W91293   1.483  37.394  14.783
22821W        W91294  27.456  44.885   2.201
22822W        W91295  15.117  17.101   2.292
22823W        W91296   8.256   8.316   1.755
22824W        W91297  41.887  40.010   4.806
22825W        W91298  36.412   6.303  11.047
22826W        W91299   6.923  35.466  13.002
22827W        W91300   8.273   1.891  13.922
22828W        W91301   1.744  18.156   1.864
22829W        W91302  15.734  43.516  13.890
22830W        W91303  34.977   7.789   2.262
22831W        W91304   5.881  44.384   3.358
22832W        W91305   0.874  28.987   0.771
22833W        W91306  43.398  43.780   0.410
22834W        W91307   4.731  27.497   2.773
22835W        W91308  31.025  42.919   4.804
22836W        W91309  10.866   7.768  12.833
22837W        W91310  33.493  44.845   2.251
22838W        W91311   5.317  16.080  11.939
22839W        W91312  38.008  23.069  11.017
22840W        W91313  11.801  10.176   2.276
22841W        W91314  32.104  33.538   4.757
22842W        W91315   9.655  32.033   3.730
22843W        W91316  42.966   8.901  14.759
22844W        W91317  40.463   7.189  10.962
22845W        W91318  35.465  10.684  11.519
22846W        W91319  24.221  20.582   3.242
22847W        W91320   0.924  24.216  13.922
22848W        W91321  32.088   1.355  14.969
22849W        W91322   7.784   6.806   2.377
22850W        W91323  39.379  12.269   0.322
22851W        W91324  12.698   7.763   1.420
22852W        W91325   3.258  40.039   4.813
22853W        W91326  40.939  31.050  11.983
22854W        W91327  17.301  35.372  13.536
22855W        W91328  26.622   4.223   4.743
22856W        W91329  37.393  27.180  14.444
22857W        W91330  19.630  22.139  13.870
22858W        W91331  13.152  19.770   3.178
22859W        W91332  32.104   5.773   2.884
22860W        W91333  11.307  25.110   3.721
22861W        W91334  10.137  18.182   0.856
22862W        W91335  29.110  19.741  14.861
22863W        W91336   9.211   0.475  11.065
22864W        W91337  30.935  32.573   1.865
22865W        W91338  30.655   3.399  11.482
22866W        W91339   8.338   2.325   1.357
22867W        W91340   5.424  23.533   4.759
22868W        W91341  25.565  11.158   4.710
22869W        W91342  11.750   2.801  10.471
22870W        W91343   1.909   8.376  13.858
22871W        W91344  36.966  19.213  12.456
22872W        W91345  10.357   1.309  12.957
22873W        W91346  42.420  35.464   1.305
22874W        W91347  41.346   2.258   3.162
22875W        W91348  19.271  43.358   3.765
22876W        W91349   3.308   9.867   4.790
22877W        W91350  30.466  26.026   1.332
22878W        W91351   5.864   9.254   0.277
22879W        W91352  13.758  28.440  12.063
22880W        W91353   1.972   3.732  12.901
22881W        W91354  33.975   3.916  11.566
22882W        W91355   8.716  26.134  11.055
22883W        W91356  12.233  28.563   4.809
22884W        W91357  24.195  29.121  12.347
22885W        W91358  22.542  25.713  14.871
22886W        W91359  20.254   9.150   2.843
22887W        W91360  30.460  43.973  11.523
22888W        W91361  41.822  12.613  12.943
22889W        W91362  39.338  33.036   3.199
22890W        W91363  30.583  30.415  13.915
22891W        W91364  38.380  43.988   4.681
22892W        W91365  25.199  15.088  13.543
22893W        W91366  35.019  41.310  13.445
22894W        W91367  21.651  42.952   1.719
22895W        W91368  33.028  11.848   2.363
22896W        W91369   8.301   4.818   5.201
22897W        W91370  27.999   8.716   3.643
22898W        W91371  33.096  35.104  11.895
22899W        W91372   0.880   2.964  11.115
22900W        W91373  28.646   8.199   0.801
22901W        W91374  11.300  27.176  11.551
22902W        W91375   4.366  35.053  11.867
22903W        W91376  13.219  20.177   3.254
22904W        W91377  39.877  11.745  12.994
22905W        W91378  10.357  15.795  14.766
22906W        W91379  18.725  18.203  13.515
22907W        W91380  15.232  42.794   0.867
22908W        W91381  39.903  35.369   1.418
22909W        W91382  38.441  31.115  11.120
22910W        W91383  43.289   6.794   0.732
22911W        W91384   1.896  11.272  12.980
22912W        W91385  32.499   4.262   2.898
22913W        W91386   6.685  19.127  13.795
22914W        W91387   3.856  18.155  12.467
22915W        W91388  30.943  17.635  12.849
22916W        W91389   5.907   4.859   1.334
22917W        W91390   4.271  12.611  11.908
22918W        W91391  22.063  21.569   4.612
22919W        W91392  14.311  13.662  13.813
22920W        W91393  40.951   7.223  11.376
22921W        W91394  12.332  39.838  11.869
22922W        W91395  16.097  11.221  12.492
22923W        W91396  19.220  16.186  10.893
22924W        W91397   6.725  15.103   4.143
22925W        W91398   7.684  21.621   3.351
22926W        W91399  27.621  25.567   3.670
22927W        W91400  32.534   4.305   4.811
22928W        W91401   5.387  17.694  12.956
22929W        W91402  32.138   5.357  10.989
22930W        W91403  15.087  40.398   4.780
22931W        W91404   0.478  17.586   4.631
22932W        W91405  25.218  20.555  10.073
22933W        W91406   7.359   5.883  12.345
22934W        W91407   3.908   0.461   4.335
22935W        W91408  12.147  29.490  11.045
22936W        W91409  34.949   2.280  12.506
22937W        W91410  28.164  34.914  10.510
22938W        W91411  42.510  42.885  10.908
22939W        W91412   7.827  16.734   0.330
22940W        W91413  16.639  40.860   1.735
22941W        W91414  26.133  44.469  12.023
22942W        W91415   1.366  31.526  12.555
22943W        W91416   9.182  39.361  10.544
22944W        W91417   5.424   2.932  12.348
22945W        W91418   5.919  13.802   2.270
22946W        W91419  33.568  23.192  10.909
22947W        W91420   5.764  31.464   0.892
22948W        W91421  18.613   0.248   3.184
22949W        W91422  43.326   0.815  10.445
22950W        W91423   0.775  33.885  13.806
22951W        W91424  43.511  40.388  11.543
22952W        W91425  10.639   9.349   4.715
22953W        W91426  23.645  33.445   2.385
22954W        W91427  32.996  32.117  12.981
22955W        W91428  44.844  18.183   0.733
22956W        W91429  32.534  23.151   0.324
22957W        W91430  34.078   3.746  14.874
22958W        W91431  32.631  27.504   3.851
22959W        W91432  39.422  12.359  11.372
22960W        W91433   1.236  13.742  12.367
22961W        W91434  18.160  22.729   2.261
22962W        W91435  41.041  36.091  12.498
22963W        W91436  40.944  12.242   3.149
22964W        W91437  11.202   2.351   1.337
22965W        W91438  42.313  21.081   2.385
22966W        W91439  23.725  43.384  14.864
22967W        W91440  34.468  12.310   4.258
22968W        W91441  29.106  23.151  12.393
22969W        W91442  22.645  12.730  12.512
22970W        W91443  16.224   9.371  12.968
22971W        W91444  35.972  31.487   0.867
22972W        W91445  33.386  24.490   3.761
22973W        W91446   3.460  34.887  13.410
22974W        W91447  17.696   6.281   3.742
22975W        W91448  17.106  18.143   0.772
22976W        W91449  16.593  10.798  14.842
22977W        W91450  37.557  19.213  12.930
22978W        W91451  19.190  38.488  12.020
22979W        W91452  42.888  18.245   0.288
22980W        W91453  34.478  28.628  12.509
22981W        W91454  31.633   8.253  12.003
22982W        W91455  27.978  19.193   3.704
22983W        W91456  21.206   9.861  12.516
22984W        W91457  15.252  10.272  12.967
22985W        W91458  18.187  44.316  11.566
22986W        W91459   3.343  12.151  14.276
22987W        W91460  38.016  43.808   0.272
22988W        W91461  44.364  13.209   2.668
22989W        W91462  18.280   0.457  10.587
22990W        W91463  23.113  35.892   0.863
22991W        W91464  40.363  34.077   4.127
22992W        W91465   5.757   8.665   0.833
22993W        W91466  38.549  25.030   2.802
22994W        W91467  34.936  26.462  12.554
22995W        W91468   2.322   1.877  13.042
22996W        W91469  32.075  15.643   9.979
22997W        W91470   7.713  21.126  12.839
22998W        W91471  21.628  19.619  14.369
22999W        W91472  26.982  26.658   1.284
23000W        W91473  16.729  13.115   1.899
23001W        W91474  33.495  24.108   0.782
23002W        W91475  15.798  39.542   4.210
23003W        W91476  14.682  23.222   2.898
23004W        W91477  14.224  39.883   3.276
23005W        W91478  38.948   1.756  13.446
23006W        W91479   0.941  26.518   5.188
23007W        W91480  30.016  34.960  11.532
23008W        W91481  17.194   3.252  13.421
23009W        W91482   3.277   9.650   9.949
23010W        W91483   0.484  44.307   2.744
23011W        W91484   2.910   8.166   2.376
23012W        W91485  31.543  17.283  12.402
23013W        W91486  16.735  16.181   2.370
23014W        W91487  10.221   9.333   3.227
23015W        W91488  31.421   8.261   3.253
23016W        W91489   9.386   1.844  11.486
23017W        W91490  23.990  42.883   3.302
23018W        W91491  21.721   3.846  13.861
23019W        W91492  31.966  15.317  10.637
23020W        W91493  43.886   8.223   2.387
23021W        W91494  37.018  39.373  13.032
23022W        W91495   7.250  42.382   4.164
23023W        W91496   7.885  23.531   0.785
23024W        W91497  12.185   7.376   1.841
23025W        W91498  14.716   8.312  14.882
23026W        W91499  34.594  11.626   2.792
23027W        W91500  33.440  34.086  13.337
23028W        W91501  41.387   4.890  14.795
23029W        W91502   8.223  35.423  14.867
23030W        W91503  21.666  10.769  14.901
23031W        W91504  10.672  35.023   1.390
23032W        W91505  18.153   8.227   0.894
23033W        W91506   0.871  41.316  11.577
23034W        W91507  40.894  42.879   0.826
23035W        W91508  10.168  19.251   2.797
23036W        W91509  44.459  16.158   3.841
23037W        W91510  44.835  26.487  11.026
23038W        W91511  31.093  34.883  14.321
23039W        W91512   1.292   9.285  12.413
23040W        W91513   3.389  29.150  10.930
23041W        W91514   6.788   5.398   0.284
23042W        W91515  27.186  17.205   4.767
23043W        W91516  30.552  12.346  11.405
23044W        W91517   0.288  11.232  14.941
23045W        W91518   0.399  38.039  13.503
23046W        W91519  26.969  35.467  13.405
23047W        W91520  17.679  31.087   0.768
23048W        W91521  44.979   9.272   4.175
23049W        W91522  22.548  10.213  13.851
23050W        W91523  25.140   8.394  13.040
23051W        W91524  39.882  34.063  11.574
23052W        W91525  41.500  32.006   2.275
23053W        W91526  13.315   0.987  14.824
23054W        W91527  40.311  31.544   2.393
23055W        W91528  30.605  11.343  11.407
23056W        W91529  41.401  21.198  14.304
23057W        W91530  23.078  16.711   0.873
23058W        W91531  39.553  39.508   0.295
23059W        W91532  12.790  33.887   3.754
23060W        W91533   8.289  18.690   0.316
23061W        W91534  28.153  42.923   0.338
23062W        W91535  28.633  11.801  14.367
23063W        W91536   2.265  23.613  14.499
23064W        W91537  39.364   7.803   3.359
23065W        W91538  40.905  44.974   4.763
23066W        W91539  31.933  44.847  13.388
23067W        W91540  39.557   3.356   0.914
23068W        W91541  32.913   9.313  11.912
23069W        W91542  24.604  41.880   1.259
23070W        W91543   4.708  37.074   4.288
23071W        W91544  41.008   4.286  14.467
23072W        W91545   3.860  37.414  13.510
23073W        W91546  44.799   6.897  11.536
23074W        W91547  26.992  30.986  11.876
23075W        W91548  30.991  44.771  13.469
23076W        W91549  22.072  10.801  10.630
23077W        W91550  18.122  34.869   1.927
23078W        W91551  16.604   1.246  13.815
23079W        W91552  39.023  38.944  12.834
23080W        W91553  42.894  16.163   0.785
23081W        W91554  12.174  40.411   0.323
23082W        W91555  33.494  33.002   1.913
23083W        W91556  37.400  23.241  11.975
23084W        W91557  19.144  44.471   0.476
23085W        W91558   9.296  19.711  14.934
23086W        W91559  12.325  38.860  12.073
23087W        W91560  38.858   3.712   4.635
23088W        W91561  31.911  30.118  12.947
23089W        W91562  24.069  34.568   2.749
23090W        W91563  13.315  16.077   3.664
23091W        W91564  21.703  10.220   2.893
23092W        W91565  22.623   5.901  11.967
23093W        W91566  42.008  12.713   1.709
23094W        W91567  22.221  17.292   1.778
23095W        W91568  12.747  15.584  11.905
23096W        W91569  14.318  29.447   0.790
23097W        W91570  21.703   1.280  10.895
23098W        W91571   2.778   8.654  10.496
23099W        W91572  38.439   5.348  14.941
23100W        W91573  38.070   6.187  14.326
23101W        W91574  19.159   6.846   4.747
23102W        W91575  25.062  18.586   1.822
23103W        W91576  12.755  19.239   3.382
23104W        W91577   6.899   2.793   0.738
23105W        W91578  17.668   7.348  11.977
23106W        W91579  29.039  35.514  13.322
23107W        W91580  25.494  34.494  12.852
23108W        W91581  26.178  10.869  10.441
23109W        W91582  44.328  28.124   0.960
23110W        W91583  31.441  33.563  11.882
23111W        W91584  20.615  25.192  14.884
23112W        W91585  40.962  42.940  10.993
23113W        W91586   8.816  41.938   4.325
23114W        W91587  36.433  22.062  12.887
23115W        W91588  40.967  15.194  12.929
23116W        W91589  32.994  24.601   0.764
23117W        W91590  23.112  22.645   3.213
23118W        W91591  31.896  12.328   2.251
23119W        W91592  18.616   0.470  11.041
23120W        W91593  32.055   8.751  11.434
23121W        W91594  37.548  14.797  13.940
23122W        W91595  17.137   6.760   0.342
23123W        W91596   9.842  27.964   0.279
23124W        W91597  22.655  14.640  13.498
23125W        W91598  18.094  39.967   3.258
23126W        W91599  17.222   4.750   1.258
23127W        W91600   2.284   1.332   0.428
23128W        W91601  22.132  36.877  10.492
23129W        W91602  13.647  30.134   4.682
23130W        W91603   2.339  31.469  13.431
23131W        W91604   9.256  24.169  12.376
23132W        W91605   2.777   5.768   4.301
23133W        W91606  43.774  15.785  13.381
23134W        W91607  28.666   0.978   0.353
23135W        W91608   6.426  37.076  13.987
23136W        W91609   3.430  28.173  13.934
23137W        W91610   1.384  40.526   2.246
23138W        W91611   5.280  13.658  13.419
23139W        W91612  44.345  30.645  12.060
23140W        W91613  34.071  39.471  11.035
23141W        W91614  40.379  21.087  11.898
23142W        W91615  43.963  23.633  14.822
23143W        W91616  41.408  15.297   3.271
23144W        W91617  20.527  39.451   0.329
23145W        W91618  34.562   0.763  14.996
23146W        W91619  26.973  42.478  13.311
23147W        W91620   5.906  40.929  12.512
23148W        W91621  44.888  40.034  11.065
23149W        W91622  42.338   6.282   4.349
23150W        W91623  20.766  26.510  14.988
23151W        W91624  22.015  30.930  12.559
23152W        W91625  33.886  23.534  12.349
23153W        W91626  11.719  12.665   9.952
23154W        W91627  19.622  17.165  12.458
23155W        W91628  22.682   4.390   0.478
23156W        W91629  33.394  24.585  14.024
23157W        W91630  14.146  22.999  13.985
23158W        W91631  16.075  38.441   0.935
23159W        W91632  27.980  15.263   0.798
23160W        W91633  34.496  35.890  11.476
23161W        W91634   8.290  22.534   2.682
23162W        W91635  41.975  43.847  12.870
23163W        W91636   1.810   1.740  13.511
23164W        W91637  31.614  27.608  11.111
23165W        W91638   2.799   6.249  10.946
23166W        W91639  13.208  22.547   4.666
23167W        W91640  38.955  25.614   1.888
23168W        W91641  31.558  30.588  12.391
23169W        W91642  28.049  36.522  10.408
23170W        W91643   3.927  11.679  10.614
23171W        W91644  15.182  11.840   1.295
23172W        W91645  25.519  32.054   2.244
23173W        W91646  26.183  28.581   2.777
23174W        W91647   9.189  40.368  14.403
23175W        W91648  43.501  28.569  13.418
23176W        W91649  25.575  23.604   3.338
23177W        W91650  37.928  12.627  10.921
23178W        W91651   3.934   9.321   2.256
23179W        W91652  38.466   9.681  12.870
23180W        W91653  10.649  24.078  10.511
23181W        W91654  19.067  24.174   1.744
23182W        W91655  37.889  26.094  13.342
23183W        W91656   5.311  36.423  10.973
23184W        W91657  33.436  30.997   3.309
23185W        W91658  23.611  39.021   2.889
23186W        W91659  27.067   1.797  14.303
23187W        W91660  24.170  18.788  14.303
23188W        W91661  15.796   0.827  13.942
23189W        W91662  27.154  35.021   1.816
23190W        W91663  15.614  34.038  10.902
23191W        W91664   8.827  23.145  13.972
23192W        W91665  27.480  13.771   2.339
23193W        W91666  32.083   9.170   1.379
23194W        W91667  35.601  26.574   2.765
23195W        W91668  17.798  28.571  11.380
23196W        W91669  34.578  44.326   1.766
23197W        W91670  31.597   5.913   2.676
23198W        W91671  34.410  18.249  10.586
23199W        W91672  39.404  41.528  13.841
23200W        W91673  34.387   6.887  12.388
23201W        W91674   8.296  41.434   0.954
23202W        W91675  15.800   4.209  12.832
23203W        W91676   4.736  26.481   4.725
23204W        W91677  13.211  30.145  11.866
23205W        W91678  44.930   1.407   0.289
23206W        W91679   7.669  19.079   0.810
23207W        W91680  29.616  27.555  14.347
23208W        W91681  27.067  25.135  11.999
23209W        W91682   5.269  24.529   2.778
23210W        W91683  17.232  20.270  12.012
23211W        W91684  23.201  17.695   0.932
23212W        W91685  13.643  34.998  13.534
23213W        W91686  15.809  11.682  10.949
23214W        W91687  17.300  44.942   0.779
23215W        W91688  23.519  26.067  10.592
23216W        W91689  11.806  19.540   4.673
23217W        W91690  31.441  17.638   0.761
23218W        W91691  33.478  34.498  12.491
23219W        W91692  21.726   2.413   1.289
23220W        W91693  26.957  27.485   1.694
23221W        W91694  10.269  14.298  10.621
23222W        W91695   8.681  28.044  13.449
23223W        W91696  27.069  38.043  10.912
23224W        W91697   1.923  29.670  11.899
23225W        W91698  15.170   3.770   2.401
23226W        W91699  33.531  33.606  13.412
23227W        W91700  12.824   9.149  10.455
23228W        W91701  34.964  41.437  10.517
23229W        W91702   3.441   4.299   1.258
23230W        W91703   2.421  11.747   1.920
23231W        W91704  36.442  37.577   4.182
23232W        W91705  38.501  39.388  13.841
23233W        W91706  13.124  37.440   5.237
23234W        W91707  42.452  16.181  13.836
23235W        W91708  42.926  12.287  11.887
23236W        W91709  23.517  19.215   3.856
23237W        W91710  11.782  17.732  10.921
23238W        W91711  16.781  10.670   2.880
23239W        W91712  39.396   0.335   4.267
23240W        W91713  22.092  31.542  11.931
23241W        W91714  14.732   7.870   2.771
23242W        W91715  40.827  43.308  12.453
23243W        W91716  36.499  24.068  14.462
23244W        W91717  11.235  11.289   1.924
23245W        W91718  42.293  34.512   3.832
23246W        W91719  39.480  19.749   2.692
23247W        W91720  31.033  44.870  11.381
23248W        W91721  35.956   0.756   3.715
23249W        W91722  43.362  24.489  11.974
23250W        W91723  34.601   1.433  11.030
23251W        W91724   2.390  13.180  11.119
23252W        W91725   7.237  43.843  14.847
23253W        W91726   4.841  36.391  14.448
23254W        W91727   7.380   1.885   4.661
23255W        W91728  34.914  17.236  14.288
23256W        W91729   7.811  25.973   1.349
23257W        W91730  10.704   4.405  12.491
23258W        W91731  11.648   6.268  10.052
23259W        W91732  35.982  21.739  10.449
23260W        W91733   6.749  13.347  13.927
23261W        W91734  13.799  14.104   1.898
23262W        W91735  14.171  10.261  11.076
23263W        W91736  18.095  22.725  12.418
23264W        W91737  32.119  38.512   0.270
23265W        W91738  11.824   2.939   3.224
23266W        W91739  29.464  38.982  11.511
23267W        W91740  34.402  27.946   1.717
23268W        W91741  21.606  29.641  12.961
23269W        W91742  42.496  43.416  13.860
23270W        W91743  33.090  20.212  14.400
23271W        W91744  37.902  10.343   2.376
23272W        W91745  37.481  23.657  13.387
23273W        W91746  10.300  28.050   1.309
23274W        W91747   7.863   6.772   1.848
23275W        W91748  28.112   3.331   1.341
23276W        W91749   1.464  32.077  13.346
23277W        W91750   8.666  13.140  13.367
23278W        W91751  26.170   0.322  12.347
23279W        W91752  29.101  10.257   1.786
23280W        W91753   5.784  30.020  14.405
23281W        W91754  43.767  31.463   1.867
23282W        W91755  38.480  18.699  13.386
23283W        W91756   1.393  33.010   4.274
23284W        W91757  30.517  42.949   4.128
23285W        W91758  20.733  12.360   1.215
23286W        W91759  16.089  42.847  10.042
23287W        W91760  37.880  44.285  12.870
23288W        W91761   9.721  15.143   3.288
23289W        W91762  38.002  31.970   1.406
23290W        W91763   2.767  13.189   0.480
23291W        W91764  10.262  11.866   1.763
23292W        W91765   0.462   8.689  11.458
23293W        W91766   9.161  37.088   1.858
23294W        W91767   8.709  16.600   0.382
23295W        W91768  22.211  33.537   4.161
23296W        W91769  35.504  32.101  14.347
23297W        W91770  21.620   3.428  11.374
23298W        W91771   6.822   3.833  12.082
23299W        W91772   1.316   5.741   3.831
23300W        W91773  11.868   3.822  12.510
23301W        W91774  28.957  27.579  10.556
23302W        W91775   5.282  13.347   3.156
23303W        W91776   7.750   6.239   0.328
23304W        W91777  12.621   0.373   3.378
23305W        W91778  14.301   3.223   5.102
23306W        W91779  20.611  13.110  12.984
23307W        W91780  12.156   2.873   3.168
23308W        W91781  28.620  41.464  12.991
23309W        W91782  20.200  30.009   4.323
23310W        W91783   5.771  34.541   1.239
23311W        W91784  31.074  37.560  10.911
23312W        W91785  44.759   2.928   0.811
23313W        W91786  43.012   0.488   4.701
23314W        W91787   9.156  13.220   0.951
23315W        W91788  16.088   0.374   2.263
23316W        W91789  30.626   9.838   1.335
23317W        W91790  35.922  39.455   3.835
23318W        W91791  24.030   0.397   1.332
23319W        W91792   8.204  33.027  12.515
23320W        W91793  34.907  23.116   3.705
23321W        W91794  36.393  32.911  13.471
23322W        W91795  33.607  26.676   1.914
23323W        W91796   4.716  14.194   2.788
23324W        W91797  43.872  37.869   4.326
23325W        W91798  23.986  41.473   1.776
23326W        W91799   8.663  10.142   0.816
23327W        W91800  38.941  21.563  13.378
23328W        W91801  22.549   0.963   4.769
23329W        W91802  33.443  17.756   3.330
23330W        W91803  12.622  41.964  14.415
23331W        W91804  11.223  24.641   0.302
23332W        W91805  26.621   8.892   3.826
23333W        W91806  37.503  43.934  11.583
23334W        W91807  16.264  12.674   1.247
23335W        W91808   8.746   7.877   4.183
23336W        W91809  18.227  20.136   3.287
23337W        W91810   1.744  39.493   4.773
23338W        W91811  34.444  43.327   1.300
23339W        W91812  13.766  23.179   1.241
23340W        W91813  36.479   1.473  13.339
23341W        W91814  17.719   3.269  12.002
23342W        W91815   7.262  23.695  12.396
23343W        W91816  13.774  40.458  14.014
23344W        W91817  20.071  41.495   0.893
23345W        W91818  27.541   4.252  10.425
23346W        W91819  33.569   0.385  14.822
23347W        W91820  22.591  15.640  14.506
23348W        W91821  43.440   7.333   1.298
23349W        W91822  17.221   5.700   1.316
23350W        W91823  36.562  10.785   4.664
23351W        W91824  25.981  21.022  12.899
23352W        W91825  27.478  12.681  11.989
23353W        W91826   3.263  13.768   2.354
23354W        W91827   3.411   9.677   2.694
23355W        W91828  25.203  14.650  12.995
23356W        W91829  40.467  29.033  12.089
23357W        W91830   5.335  42.998   1.748
23358W        W91831  31.000  38.506   2.667
23359W        W91832  34.387  34.437  11.085
23360W        W91833   4.716   2.351   3.191
23361W        W91834  12.250   0.827   4.238
23362W        W91835   1.321   0.865  11.096
23363W        W91836  29.163  43.328  14.484
23364W        W91837   3.238  33.523  10.600
23365W        W91838  36.044  40.393  14.334
23366W        W91839   5.405   1.745   3.147
23367W        W91840  42.848  42.398   3.826
23368W        W91841  44.493  13.664  12.060
23369W        W91842  10.833  25.472   5.163
23370W        W91843  29.612   2.373   3.860
23371W        W91844  29.554  43.971   1.324
23372W        W91845  40.413  12.231  10.944
23373W        W91846  21.701   7.314  12.463
23374W        W91847  41.996  18.200  13.893
23375W        W91848  35.456   9.725  11.606
23376W        W91849   4.805   7.763   5.154
23377W        W91850  28.966  43.799  13.510
23378W        W91851  25.191  33.387  12.520
23379W        W91852  34.483  26.650   2.256
23380W        W91853   6.838   9.780  14.777
23381W        W91854   7.795  20.592   1.696
23382W        W91855  24.016   6.346   4.836
23383W        W91856   6.715   4.740  11.059
23384W        W91857  25.091  27.595   2.735
23385W        W91858  26.142  39.885   0.420
23386W        W91859   0.410  19.537   4.149
23387W        W91860  34.011  19.091   3.851
23388W        W91861  17.639   4.698  11.076
23389W        W91862  26.967   9.282   3.720
23390W        W91863  16.283  22.249   3.801
23391W        W91864  40.436   0.837  11.905
23392W        W91865  20.190  36.934  10.532
23393W        W91866  18.745  41.789  11.405
23394W        W91867  31.018  31.070   4.198
23395W        W91868  10.657  32.096  14.853
23396W        W91869  20.686   0.756  14.289
23397W        W91870  29.531  44.979  10.898
23398W        W91871  36.408  42.915  11.561
23399W        W91872  21.516  28.172   0.799
23400W        W91873  41.033  10.379   1.737
23401W        W91874  21.159  12.157  11.861
23402W        W91875  33.524  15.184   3.794
23403W        W91876  24.668  23.499   0.813
23404W        W91877  15.219   9.263  10.613
23405W        W91878  11.207  19.557  12.902
23406W        W91879  33.435  13.842   1.245
23407W        W91880  26.557  42.994   0.368
23408W        W91881  26.657  10.171  13.465
23409W        W91882  35.517  29.112   4.781
23410W        W91883  10.738  21.032  13.422
23411W        W91884  37.453   5.216  10.510
23412W        W91885  38.563  33.079  14.417
23413W        W91886  18.741  33.519  10.905
23414W        W91887  40.014  21.714  13.982
23415W        W91888  27.000  35.095  11.048
23416W        W91889  36.063   1.854   0.919
23417W        W91890  32.939  31.118   0.965
23418W        W91891  23.493  19.284   1.777
23419W        W91892  41.442  23.090  10.923
23420W        W91893  11.710   6.893  13.874
23421W        W91894  22.051  21.689  11.441
23422W        W91895  32.990  18.601  13.978
23423W        W91896  12.746  31.564  12.031
23424W        W91897  11.722  35.477  11.430
23425W        W91898  15.283  24.026  12.081
23426W        W91899  24.670  14.154  12.376
23427W        W91900   9.863   6.806   3.837
23428W        W91901  20.131   5.434   0.780
23429W        W91902  20.136  14.820   1.828
23430W        W91903  18.218  35.083   0.875
23431W        W91904  21.200  26.965  10.045
23432W        W91905  34.446   9.869   0.302
23433W        W91906   8.863  31.502  11.082
23434W        W91907  20.131  27.064   2.262
23435W        W91908  32.636  17.729  14.293
23436W        W91909  34.442  29.444   1.929
23437W        W91910  15.605   1.942  13.892
23438W        W91911  28.985  32.453   3.183
23439W        W91912   5.375  38.929   2.250
23440W        W91913   5.371  37.556  10.514
23441W        W91914  14.294  35.358  11.531
23442W        W91915   9.172  16.144   4.309
23443W        W91916  32.891  39.421   2.707
23444W        W91917   7.857  37.046   0.912
23445W        W91918  24.559  15.735   4.647
23446W        W91919  26.170  11.753  13.058
23447W        W91920  14.304   4.913  10.567
23448W        W91921   1.389  40.849   3.685
23449W        W91922   4.241  23.139   3.783
23450W        W91923   3.417  24.197  13.431
23451W        W91924  18.274  19.149  14.763
23452W        W91925  11.143  14.664  14.953
23453W        W91926   6.711  10.819   0.919
23454W        W91927   2.890  10.720   1.867
23455W        W91928   8.282  21.756  12.072
23456W        W91929   9.839  11.287  12.381
23457W        W91930  31.452  37.435  13.509
23458W        W91931  34.426  31.955  14.032
23459W        W91932  44.961  13.839   3.678
23460W        W91933  40.399  26.020   0.402
23461W        W91934  19.214  15.183   4.609
23462W        W91935   4.943  36.043  14.289
23463W        W91936   2.895  32.126   5.093
23464W        W91937  20.265  12.668  14.357
23465W        W91938   7.188   8.298   3.184
23466W        W91939  19.162   6.382   1.433
23467W        W91940  20.208  35.905  13.050
23468W        W91941  43.502  24.076   3.225
23469W        W91942  10.722  39.934   0.829
23470W        W91943  27.014  37.929   0.810
23471W        W91944   3.310  35.419   4.145
23472W        W91945  31.986   7.334  11.391
23473W        W91946  13.162  39.061   3.865
23474W        W91947   1.821  34.580  11.466
23475W        W91948   0.372  31.902  13.331
23476W        W91949  22.524   0.896  13.452
23477W        W91950   0.948   6.262   5.263
23478W        W91951  34.441  21.172  10.543
23479W        W91952  37.394  28.617   1.784
23480W        W91953  35.904  14.215   3.215
23481W        W91954  33.005   2.357  11.916
23482W        W91955   2.324  29.599   3.214
23483W        W91956  13.257  42.435   4.160
23484W        W91957  37.870  13.669   1.430
23485W        W91958   7.269  19.275  13.005
23486W        W91959  12.196  32.437   4.652
23487W        W91960  25.990  31.404   2.368
23488W        W91961  41.861  39.368  14.388
23489W        W91962   0.468   7.410   4.337
23490W        W91963   3.351   0.283  12.901
23491W        W91964  22.009  42.477   2.331
23492W        W91965  28.965  29.566  10.966
23493W        W91966  19.269  26.476  10.424
23494W        W91967  42.482  13.633  10.542
23495W        W91968  22.609  40.438   1.292
23496W        W91969  34.426  27.606   0.869
23497W        W91970  12.124   3.265   5.237
23498W        W91971   8.206   6.846   3.340
23499W        W91972  43.431  22.731   3.270
23500W        W91973  12.186   2.330  12.925
23501W        W91974   9.269   0.307  13.517
23502W        W91975  34.059  27.557   4.610
23503W        W91976  33.889   7.837   4.312
23504W        W91977  22.582   2.303   1.350
23505W        W91978  25.110  21.242  14.879
23506W        W91979  38.346  22.712   2.217
23507W        W91980  34.436  25.180   1.250
23508W        W91981   7.292  28.558  12.857
23509W        W91982  17.252  31.600  13.975
23510W        W91983  28.083  16.135   0.846
23511W        W91984  39.974   0.409   2.744
23512W        W91985  12.288  18.700   3.668
23513W        W91986  17.284  11.727  10.626
23514W        W91987  19.775   8.841  12.427
23515W        W91988   7.273  26.675  13.951
23516W        W91989  37.085  20.220   0.776
23517W        W91990  16.650  44.438   2.265
23518W        W91991  33.497  22.102  12.913
23519W        W91992   1.815   9.865   0.950
23520W        W91993  10.217   3.423   3.220
23521W        W91994  17.272  33.619  11.604
23522W        W91995  14.720  31.149  12.464
23523W        W91996  18.673   9.822   0.742
23524W        W91997  17.580   0.924  12.543
23525W        W91998   8.293  44.450  10.963
23526W        W91999  36.949  32.407   3.205
23527W        W92000  40.953  23.512  12.454
23528W        W92001  17.781   9.325  10.406
23529W        W92002   6.720  23.182   0.291
23530W        W92003  36.495  16.165  10.960
23531W        W92004  29.582  41.914   0.731
23532W        W92005  26.473  32.473   4.780
23533W        W92006   2.418  41.870   0.805
23534W        W92007  26.029  10.333   0.753
23535W        W92008   1.812  35.431  14.959
23536W        W92009  26.655  17.146  11.499
23537W        W92010  29.617   1.339   1.744
23538W        W92011  39.375  29.658   3.220
23539W        W92012   0.772  23.587  12.987
23540W        W92013   0.816  44.782   4.637
23541W        W92014  15.667  21.623  11.979
23542W        W92015  44.899  42.296  11.928
23543W        W92016   3.241  23.702  13.945
23544W        W92017  22.548  16.269   1.793
23545W        W92018  16.656  30.453  13.036
23546W        W92019  11.832  24.002  12.830
23547W        W92020  24.112  41.915   0.959
23548W        W92021  42.866   0.903   3.292
23549W        W92022  17.178  12.702  14.408
23550W        W92023  20.611  33.877   2.259
23551W        W92024   8.754  10.775  11.507
23552W        W92025   6.834   3.910  10.076
23553W        W92026  30.627  27.481  10.488
23554W        W92027  19.651  13.685   2.185
23555W        W92028  39.059  31.079   2.238
23556W        W92029  17.086  25.573   3.806
23557W        W92030  35.984  24.697   0.436
23558W        W92031  44.857  20.573  12.539
23559W        W92032  23.066  40.311   3.149
23560W        W92033   9.812  11.141   1.925
23561W        W92034  22.202   6.765   3.274
23562W        W92035  18.236  14.774   1.831
23563W        W92036  14.155  15.650  12.481
23564W        W92037  41.389   5.825  14.015
23565W        W92038  43.438  41.995   4.157
23566W        W92039  32.593   2.289   2.311
23567W        W92040  37.013  30.514  11.593
23568W        W92041  13.232  32.118   5.238
23569W        W92042  42.303   6.745  11.958
23570W        W92043  17.258   7.286   1.271
23571W        W92044  33.934  30.650  12.388
23572W        W92045  27.989  17.178   1.369
23573W        W92046  22.678  45.000  14.959
23574W        W92047  30.576   7.904   4.297
23575W        W92048  34.516  21.065   4.324
23576W        W92049  16.581   9.650   4.130
23577W        W92050  37.914  38.442   2.817
23578W        W92051   9.167   0.972  11.907
23579W        W92052  26.119  10.169  12.462
23580W        W92053  35.401  15.229   4.124
23581W        W92054   4.296  38.017   1.380
23582W        W92055  18.280  16.734  14.955
23583W        W92056  27.644   1.276   2.210
23584W        W92057  30.933  14.253   5.130
23585W        W92058  33.611  14.125   1.306
23586W        W92059   5.438   8.760   2.789
23587W        W92060   1.386  29.451  12.932
23588W        W92061  40.030  32.939   2.697
23589W        W92062  16.803  35.508  13.944
23590W        W92063   5.895  33.033  13.859
23591W        W92064  22.151   1.841   2.888
23592W        W92065  18.115  31.951   4.637
23593W        W92066  16.643  36.592   3.344
23594W        W92067   2.755   9.746   3.262
23595W        W92068  42.440  42.920  13.051
23596W        W92069  15.641  31.088   0.888
23597W        W92070  11.352  39.847   4.119
23598W        W92071  31.036  27.015   2.180
23599W        W92072  27.557  33.383   4.342
23600W        W92073  32.399  11.771  13.967
23601W        W92074  37.478  26.637   4.143
23602W        W92075   1.240  44.893  11.859
23603W        W92076  22.105   4.388  11.513
23604W        W92077   5.344  36.850   0.863
23605W        W92078   7.340  28.466  11.036
23606W        W92079  10.357  29.967  13.976
23607W        W92080  22.584   7.818  10.476
23608W        W92081  17.569  18.654   0.333
23609W        W92082   2.397  10.351   3.698
23610W        W92083  44.984   4.861  12.895
23611W        W92084  21.079  43.480   1.353
23612W        W92085   0.457  22.684   3.860
23613W        W92086  22.621  12.752  11.531
23614W        W92087  33.910  16.136  14.354
23615W        W92088  28.941  40.355  11.572
23616W        W92089  25.990  20.210  14.766
23617W        W92090   0.965  22.608  10.469
23618W        W92091  22.165  17.583   3.203
23619W        W92092  36.947   5.707  12.357
23620W        W92093  41.967  38.452   2.733
23621W        W92094   4.775   8.399   0.283
23622W        W92095  20.723  41.934   0.285
23623W        W92096  38.060  13.620  11.507
23624W        W92097  10.679  10.153   4.611
23625W        W92098  31.424  10.282   9.931
23626W        W92099   4.699  42.360   1.424
23627W        W92100  36.574   4.215  10.464
23628W        W92101   1.418  21.154  10.964
23629W        W92102   3.309  28.607  14.918
23630W        W92103  21.734  41.416  14.823
23631W        W92104  35.048   2.315   1.894
23632W        W92105  19.243  34.541   4.763
23633W        W92106  24.027  33.613   5.296
23634W        W92107  26.456  31.421  14.489
23635W        W92108   4.427  38.541   1.324
23636W        W92109  16.168  36.471  13.969
23637W        W92110  18.123  34.959  10.551
23638W        W92111  43.015  36.986   3.218
23639W        W92112  30.612   2.272   2.364
23640W        W92113  34.380   9.875   4.175
23641W        W92114   3.802  32.997   4.336
23642W        W92115   5.354  39.955   5.104
23643W        W92116  24.661  32.019   2.355
23644W        W92117  11.622  23.569  10.581
23645W        W92118  12.637   9.864  14.827
23646W        W92119   3.842  42.926  14.358
23647W        W92120  13.168  37.573  14.315
23648W        W92121  33.530  27.556  14.965
23649W        W92122   8.683  35.906   3.300
23650W        W92123  13.614   3.723   3.753
23651W        W92124  27.025  33.882   4.251
23652W        W92125  25.572  36.367   4.633
23653W        W92126  15.312  40.853   3.658
23654W        W92127  44.414  20.105   0.768
23655W        W92128  43.498  10.373  10.992
23656W        W92129  23.997  37.086   3.337
23657W        W92130  33.466   7.185   0.928
23658W        W92131  39.490   3.233  10.625
23659W        W92132  36.947  24.683  14.324
23660W        W92133  12.236  18.627  10.935
23661W        W92134   6.767  26.476   1.848
23662W        W92135  28.160  34.894  12.895
23663W        W92136   6.920  36.422   1.886
23664W        W92137  31.999   1.365   2.274
23665W        W92138  33.970  32.976   1.873
23666W        W92139  31.962   7.301   1.368
23667W        W92140  40.504  42.906  14.993
23668W        W92141  28.080  25.557  14.388
23669W        W92142  42.372  36.514  12.972
23670W        W92143  21.689  42.430   4.275
23671W        W92144  22.647   1.291   3.701
23672W        W92145  16.149  32.445   2.875
23673W        W92146  19.230   2.835  11.881
23674W        W92147  36.370  32.511   0.438
23675W        W92148  41.983  44.350   4.678
23676W        W92149  23.221  32.938   3.762
23677W        W92150   1.745  16.254   0.318
23678W        W92151  21.693  18.691   2.816
23679W        W92152  22.608  29.961   4.298
23680W        W92153  32.109   5.321  14.030
23681W        W92154  29.173  29.535  11.555
23682W        W92155   7.882  37.450   0.281
23683W        W92156   7.402   4.871  14.352
23684W        W92157  20.583  24.649   0.738
23685W        W92158   4.890  21.056   0.795
23686W        W92159   5.780   6.707  14.311
23687W        W92160  16.218  26.542  12.444
23688W        W92161  17.789   2.950   3.269
23689W        W92162   4.376   1.422   0.858
23690W        W92163  11.660  38.908  11.128
23691W        W92164  41.978  29.669   1.740
23692W        W92165  29.623   5.847  13.026
23693W        W92166   6.773   1.962  12.500
23694W        W92167   2.362  12.332   4.199
23695W        W92168  16.208   2.833  12.863
23696W        W92169   3.940  20.667  10.958
23697W        W92170  17.135  25.185   1.221
23698W        W92171  10.733  37.447  11.494
23699W        W92172  11.750   8.900   0.284
23700W        W92173  11.215  39.559   0.389
23701W        W92174  31.499  34.078  13.875
23702W        W92175  34.601  32.628   2.865
23703W        W92176  38.956  24.492   4.230
23704W        W92177  35.030  25.503   2.350
23705W        W92178   2.924  41.973   1.256
23706W        W92179  10.179  33.109   1.408
23707W        W92180  29.989  29.941  13.022
23708W        W92181  22.216  35.523  11.497
23709W        W92182  37.965  25.131  14.392
23710W        W92183  13.273  21.636  13.921
23711W        W92184  10.338  19.755  10.028
23712W        W92185  34.108   6.774   3.840
23713W        W92186  26.629   0.785   0.403
23714W        W92187  12.780  32.586   1.709
23715W        W92188   7.333   5.330   3.382
23716W        W92189   1.247  35.599   1.715
23717W        W92190   9.203  21.556  13.407
23718W        W92191  13.690  39.358  13.930
23719W        W92192  22.556  18.143   3.696
23720W        W92193  15.743  19.730  13.351
23721W        W92194  15.237  36.943   5.197
23722W        W92195  14.120  37.568   0.875
23723W        W92196   7.906  25.575   0.342
23724W        W92197  26.653  20.098   2.804
23725W        W92198  12.262  20.667   2.676
23726W        W92199   2.746  24.096  13.929
23727W        W92200  23.490  15.596  14.357
23728W        W92201  27.984  38.023   1.765
23729W        W92202  11.716   7.877   1.254
23730W        W92203  23.572  39.875   0.911
23731W        W92204   5.264  15.306  10.616
23732W        W92205  43.391  37.407  14.377
23733W        W92206   3.782  30.955  11.413
23734W        W92207   3.412   1.299  11.405
23735W        W92208  34.408  21.066  11.510
23736W        W92209  31.952  27.091  14.946
23737W        W92210   9.749  12.269  13.041
23738W        W92211  30.606  32.102  14.394
23739W        W92212  14.691  13.168   1.728
23740W        W92213   6.698   3.302   2.823
23741W        W92214  30.104  44.837  12.849
23742W        W92215   6.857  41.004  12.927
23743W        W92216  10.165   1.878  10.982
23744W        W92217  42.390  16.315   2.792
23745W        W92218   3.719  23.196  12.998
23746W        W92219  29.558  38.525  11.981
23747W        W92220  28.995  27.516  10.950
23748W        W92221  26.016   1.266   1.935
23749W        W92222  37.979  26.678   3.738
23750W        W92223   7.770  37.047  11.912
23751W        W92224  28.940  10.701  14.391
23752W        W92225  26.036   0.812   9.573
23753W        W92226  29.541  28.523  11.600
23754W        W92227   4.701  39.953   1.214
23755W        W92228  17.725  11.694  11.397
23756W        W92229  24.650  11.210  11.608
23757W        W92230   2.326   1.345   4.659
23758W        W92231  27.599   0.442   0.300
23759W        W92232  36.942  23.569   4.815
23760W        W92233  27.985  29.973  14.477
23761W        W92234   2.452  14.310  14.779
23762W        W92235   9.755  43.812   2.331
23763W        W92236  31.444  31.057   4.666
23764W        W92237  15.234   7.323  13.520
23765W        W92238  31.561  41.805  11.889
23766W        W92239  12.242   1.389  14.783
23767W        W92240  25.516  33.586   3.160
23768W        W92241   8.898  18.237   0.362
23769W        W92242  32.475  25.140  12.080
23770W        W92243  42.482  12.717  10.590
23771W        W92244   0.773  10.167   1.727
23772W        W92245  32.915  38.072  13.819
23773W        W92246  27.610  33.592   3.324
23774W        W92247   9.158   3.840   4.735
23775W        W92248  42.422   1.412   2.753
23776W        W92249  33.592  27.452  10.599
23777W        W92250  32.583  34.502  12.453
23778W        W92251  20.113  31.605  13.832
23779W        W92252  29.476  28.481   4.313
23780W        W92253  25.119  41.314  12.457
23781W        W92254   9.753  22.733   4.167
23782W        W92255  10.748  18.634  11.107
23783W        W92256  18.095   9.329   0.395
23784W        W92257  14.766  42.397  14.455
23785W        W92258  35.432  42.842   2.185
23786W        W92259  42.944  11.352   3.781
23787W        W92260  21.552  38.391   4.240
23788W        W92261  22.009  18.203   1.270
23789W        W92262  39.903   7.677  11.869
23790W        W92263   8.228  40.861  11.906
23791W        W92264  32.005   4.334  13.064
23792W        W92265   5.804   6.257   0.881
23793W        W92266  18.092  16.755  13.937
23794W        W92267  42.934   8.843   4.660
23795W        W92268  44.946  35.383   3.747
23796W        W92269  15.279  31.919   1.431
23797W        W92270  26.656   9.656   0.321
23798W        W92271  17.288  38.470  12.518
23799W        W92272   6.692  20.576  13.543
23800W        W92273  14.644  44.418   0.295
23801W        W92274  24.174  18.100   0.340
23802W        W92275  32.889  22.154   3.830
23803W        W92276  12.235  23.518  14.370
23804W        W92277  36.979  41.422   0.320
23805W        W92278  32.963  13.211  11.435
23806W        W92279  38.329  38.820  13.359
23807W        W92280  41.889  20.702  14.438
23808W        W92281  23.652  43.910  10.521
23809W        W92282  37.408  25.618   5.113
23810W        W92283  22.029  24.605   2.719
23811W        W92284   5.420   8.340  13.469
23812W        W92285  30.022  25.973   9.606
23813W        W92286  44.763  10.252  11.941
23814W        W92287  26.977  10.318  14.322
23815W        W92288   4.794  25.656   4.140
23816W        W92289  37.049  16.160  14.802
23817W        W92290  17.709  43.437   0.352
23818W        W92291  28.498  27.563   3.868
23819W        W92292  14.123  14.218  11.609
23820W        W92293  42.504   5.237  10.427
23821W        W92294   0.445   7.382   0.364
23822W        W92295  41.389  27.626  14.897
23823W        W92296   5.333  18.271  12.485
23824W        W92297  22.747  16.285   0.368
23825W        W92298  23.513  43.289  11.442
23826W        W92299  33.437  15.772   0.858
23827W        W92300  25.040  14.231   4.779
23828W        W92301  17.130  39.347   0.378
23829W        W92302  41.533  23.562   0.850
23830W        W92303  13.784  34.512   4.256
23831W        W92304   9.757  25.135  13.503
23832W        W92305  35.049  11.354  12.028
23833W        W92306  42.918  34.439  11.007
23834W        W92307  25.544   4.821  10.640
23835W        W92308  33.006  42.813   0.941
23836W        W92309  32.131  21.164   1.440
23837W        W92310   8.310  14.806  11.896
23838W        W92311   8.347  10.325   5.220
23839W        W92312  28.037  43.792  11.372
23840W        W92313   9.649  41.021   2.205
23841W        W92314  37.548  24.631   0.447
23842W        W92315  21.075  33.504  13.036
23843W        W92316   2.751  38.502  14.474
23844W        W92317   8.659   6.314   4.258
23845W        W92318  32.485  34.406  14.346
23846W        W92319   9.344   1.327   0.383
23847W        W92320  25.702  37.386   4.644
23848W        W92321  11.744   7.406  11.532
23849W        W92322  31.575  36.857   4.267
23850W        W92323  32.986   3.398   5.247
23851W        W92324   6.193  43.898  13.381
23852W        W92325  41.409  22.708  10.560
23853W        W92326  12.838   1.876   1.292
23854W        W92327  38.949  12.174   3.857
23855W        W92328  18.669  40.943   1.742
23856W        W92329   0.948  27.101   1.364
23857W        W92330  14.283   7.186  14.001
23858W        W92331  33.944  34.964   1.866
23859W        W92332  29.482  19.544  12.536
23860W        W92333  26.014   0.314   0.755
23861W        W92334   5.812  31.509   3.199
23862W        W92335   3.255  27.083   2.875
23863W        W92336   6.882  18.680   3.791
23864W        W92337   5.399  18.231   3.369
23865W        W92338  38.024  32.634   3.154
23866W        W92339   8.661  17.279   3.342
23867W        W92340  28.968  34.378   3.255
23868W        W92341  33.616   8.397  11.497
23869W        W92342  42.286  37.514  14.908
23870W        W92343  28.531  10.643   3.765
23871W        W92344  24.029   5.295   3.862
23872W        W92345   3.767  26.138  11.040
23873W        W92346   2.291  29.067   3.717
23874W        W92347   9.262  42.492  11.443
23875W        W92348  19.114  23.617  13.530
23876W        W92349   8.364   5.843   0.248
23877W        W92350  20.227  18.077  12.890
23878W        W92351   8.308  19.243  12.002
23879W        W92352  37.831   8.889  11.027
23880W        W92353  13.780   0.430  10.611
23881W        W92354   8.817  33.428  10.575
23882W        W92355  39.327  19.733  11.890
23883W        W92356   5.768  44.470  12.417
23884W        W92357  29.642  14.333  10.100
23885W        W92358   1.951  38.944   2.778
23886W        W92359  16.620  39.880  12.399
23887W        W92360  35.439  21.742  13.320
23888W        W92361  28.617  30.604  13.939
23889W        W92362   3.446  13.269   4.229
23890W        W92363  19.769  27.093   1.902
23891W        W92364  32.455  25.477  13.831
23892W        W92365  32.500  40.921  14.338
23893W        W92366  21.262  31.145   2.207
23894W        W92367  37.451   7.236  11.509
23895W        W92368  12.226   2.315  14.410
23896W        W92369  20.572   4.879   1.867
23897W        W92370  31.072  39.936  13.899
23898W        W92371  38.958  43.364   2.414
23899W        W92372   3.220  40.960   1.343
23900W        W92373   0.415  36.008   0.883
23901W        W92374   6.884  28.671   0.483
23902W        W92375  12.785  28.022   1.908
23903W        W92376  29.993  26.540   2.222
23904W        W92377  42.359  28.966   0.470
23905W        W92378  42.804  35.878   1.310
23906W        W92379   5.383   5.712   0.806
23907W        W92380  27.144  21.616  12.430
23908W        W92381  33.414   0.875   4.240
23909W        W92382  12.126  27.676  14.338
23910W        W92383  11.656  37.993   4.628
23911W        W92384  37.476  31.103  14.393
23912W        W92385  26.573  32.964  10.106
23913W        W92386  35.566  15.170  11.596
23914W        W92387  11.773  29.458   0.798
23915W        W92388  40.808  19.727  14.440
23916W        W92389  25.027  25.647  10.597
23917W        W92390  28.587  36.081   4.149
23918W        W92391  31.981  29.495   0.456
23919W        W92392  25.133   4.309  14.422
23920W        W92393  19.061  16.591  12.571
23921W        W92394  26.200  40.523   0.309
23922W        W92395   5.277  27.657   3.254
23923W        W92396  10.813  33.526   4.673
23924W        W92397  16.280  44.891   0.801
23925W        W92398  19.042  19.081  11.405
23926W        W92399  34.596   9.200   2.737
23927W        W92400   0.351   9.157   4.130
23928W        W92401  29.929  12.623  14.309
23929W        W92402  14.821  39.445  10.489
23930W        W92403   8.807   1.447  11.122
23931W        W92404  12.219  31.501  14.349
23932W        W92405   0.307  17.712  11.522
23933W        W92406  22.245  18.631   3.715
23934W        W92407  16.641  40.916   2.799
23935W        W92408  42.850  25.590  13.319
23936W        W92409   3.239  38.343  13.547
23937W        W92410  27.656  39.489  11.503
23938W        W92411  31.097  29.608  14.823
23939W        W92412  27.112  16.686  11.869
23940W        W92413  12.842  19.630  11.030
23941W        W92414  10.642  19.708   4.610
23942W        W92415  30.120  10.737  14.461
23943W        W92416  19.066  21.110  12.513
23944W        W92417  44.405  43.410   1.235
23945W        W92418  40.525  40.831  12.007
23946W        W92419  22.626  40.848   3.292
23947W        W92420   2.368  12.311   4.613
23948W        W92421  11.769   9.741  10.460
23949W        W92422  36.406  22.642   2.794
23950W        W92423  30.920  12.735   1.222
23951W        W92424  17.635  40.508   0.849
23952W        W92425   8.771  21.599   1.820
23953W        W92426  18.190   7.285   4.802
23954W        W92427  31.959  41.022  13.886
23955W        W92428  43.295  38.948  13.917
23956W        W92429   3.349  42.447   0.941
23957W        W92430  22.572   5.377  12.439
23958W        W92431   4.285   8.404  11.378
23959W        W92432  31.565   4.891  13.945
23960W        W92433  11.744   1.827  12.436
23961W        W92434  14.788  11.242  12.558
23962W        W92435  33.468  28.678  13.869
23963W        W92436   9.299   2.427   1.288
23964W        W92437  33.504  22.738   1.845
23965W        W92438  16.614  35.856   0.759
23966W        W92439  14.599   2.934   2.379
23967W        W92440  17.780  34.947  14.357
23968W        W92441   9.662  13.243  13.939
23969W        W92442  16.111  20.742   3.664
23970W        W92443   9.247  37.348   4.290
23971W        W92444  41.970  23.694   2.812
23972W        W92445  29.957  41.842   1.834
23973W        W92446  15.733  18.653   4.678
23974W        W92447   0.337  11.235   1.852
23975W        W92448  10.773  25.584   0.733
23976W        W92449   8.256  42.886   0.460
23977W        W92450  19.777  34.927   3.204
23978W        W92451  15.678   7.414  12.957
23979W        W92452  14.268  26.494   0.731
23980W        W92453  13.801   8.816  13.469
23981W        W92454  14.299  12.196  11.581
23982W        W92455  44.886  35.097   2.388
23983W        W92456  20.217  39.008  10.600
23984W        W92457  34.391  26.488   0.253
23985W        W92458  37.047  38.402   0.279
23986W        W92459  37.986  20.657   4.833
23987W        W92460  16.099  38.504  14.411
23988W        W92461  33.525  41.505   4.120
23989W        W92462  40.871  22.236  14.020
23990W        W92463   8.856  18.053  11.903
23991W        W92464  43.905  23.601   2.757
23992W        W92465  39.482  13.222   3.292
23993W        W92466   7.865  27.953   0.301
23994W        W92467  39.065   8.263   4.833
23995W        W92468   2.392  37.985  13.882
23996W        W92469  22.596  18.746  14.935
23997W        W92470  44.393  23.634   3.765
23998W        W92471   4.261   6.734   4.763
23999W        W92472  26.601  19.116  11.529
24000W        W92473  32.430   8.901  11.857
24001W        W92474  36.008  16.641   2.730
24002W        W92475  19.547  12.791  14.904
24003W        W92476   4.821  15.203  13.880
24004W        W92477  34.517   0.464  11.451
24005W        W92478  24.619  25.497  14.763
24006W        W92479   9.755  18.727  14.357
24007W        W92480  24.664   9.724   1.793
24008W        W92481   9.879  24.648  11.894
24009W        W92482   9.735  10.649  10.591
24010W        W92483   9.174  31.594   1.301
24011W        W92484  38.070  13.297  11.438
24012W        W92485  30.532  16.114  13.464
24013W        W92486  28.112  11.329  12.397
24014W        W92487   7.886  42.803  14.489
24015W        W92488  29.945  34.377  14.425
24016W        W92489  39.418   7.701   0.444
24017W        W92490   1.746  14.144   1.755
24018W        W92491  43.804  36.043  14.979
24019W        W92492  14.621  33.596   2.895
24020W        W92493  25.094   8.860   4.222
24021W        W92494  28.984  24.683  11.575
24022W        W92495  33.065  11.831   4.289
24023W        W92496   1.275  35.978  11.110
24024W        W92497   4.241  15.701  10.533
24025W        W92498   2.271   8.314   0.369
24026W        W92499  31.535   8.776   2.676
24027W        W92500  42.911   8.671  10.577
24028W        W92501  16.741  20.749  14.942
24029W        W92502   9.865  23.721   1.355
24030W        W92503  22.234  22.626   0.780
24031W        W92504   3.460   2.856  13.948
24032W        W92505  26.562  17.767  14.030
24033W        W92506  38.341  33.077   4.615
24034W        W92507   9.170  38.382  12.522
24035W        W92508  35.544  40.967  12.563
24036W        W92509   9.824  19.714   4.233
24037W        W92510  12.613  23.602  11.107
24038W        W92511   3.821  24.196  11.072
24039W        W92512  42.345  43.962  10.916
24040W        W92513  20.067  15.137   4.254
24041W        W92514  14.802  43.485  12.874
24042W        W92515  17.142  10.177   0.854
24043W        W92516   1.409  17.666   0.740
24044W        W92517  23.013  27.622   3.304
24045W        W92518   5.934  29.549  13.847
24046W        W92519  24.209  14.684   2.796
24047W        W92520  13.339   2.296  14.424
24048W        W92521  35.424  34.958   4.259
24049W        W92522  16.758  44.440  11.959
24050W        W92523  38.344   7.272  14.275
24051W        W92524  27.686  18.665  11.927
24052W        W92525  35.059  17.571   1.293
24053W        W92526  32.988   7.387   3.655
24054W        W92527  36.063  39.551  12.527
24055W        W92528   8.751  12.762   2.689
24056W        W92529  18.215   7.900   0.327
24057W        W92530  38.500  14.719  14.936
24058W        W92531  42.780  33.470   5.191
24059W        W92532  10.320   2.451  11.028
24060W        W92533  36.371  31.085   4.736
24061W        W92534  34.872  44.892  11.438
24062W        W92535   5.275  15.747   2.794
24063W        W92536  42.510  34.510  12.008
24064W        W92537  32.432   5.226  10.522
24065W        W92538  18.723  19.618   0.477
24066W        W92539   5.830  29.645   3.352
24067W        W92540  39.013  42.003  11.108
24068W        W92541  43.340  10.741   3.648
24069W        W92542  12.351   1.770   3.231
24070W        W92543   1.477  17.675   4.602
24071W        W92544  38.506  20.548   4.707
24072W        W92545   7.728  40.979  14.295
24073W        W92546  40.447  13.733  14.980
24074W        W92547  34.474  22.571   1.867
24075W        W92548   8.809   2.235   3.176
24076W        W92549  19.768  28.061  13.816
24077W        W92550  34.525  25.980  12.370
24078W        W92551  21.236  35.922   3.352
24079W        W92552  11.689  33.512   4.802
24080W        W92553   8.190  39.414  13.876
24081W        W92554  39.412  36.348   1.907
24082W        W92555  24.538  32.904  10.539
24083W        W92556  44.807   9.680  10.422
24084W        W92557   3.245  13.627   3.689
24085W        W92558  31.445  33.388   2.728
24086W        W92559  31.602  42.373   2.901
24087W        W92560  27.987  17.108  11.059
24088W        W92561   6.771  13.818   4.234
24089W        W92562  32.518  12.274  11.540
24090W        W92563  26.974   8.232  11.040
24091W        W92564  34.071  44.313  13.329
24092W        W92565  17.206  26.587  12.483
24093W        W92566   3.902  22.543   3.298
24094W        W92567  42.813  41.511  14.837
24095W        W92568  22.544  17.207  13.419
24096W        W92569  37.389  44.814   2.400
24097W        W92570  12.248  20.658   4.307
24098W        W92571  42.317  12.674  14.356
24099W        W92572  32.088  11.158  14.308
24100W        W92573  44.441  16.152  10.563
24101W        W92574  10.220  24.700   0.267
24102W        W92575  44.001  37.862   3.824
24103W        W92576  10.646  43.508  13.307
24104W        W92577  33.574  42.309   2.230
24105W        W92578  11.333  27.606  11.404
24106W        W92579   8.355  27.644   3.721
24107W        W92580  32.601   8.721   4.644
24108W        W92581  29.589  44.300  14.467
24109W        W92582  12.151  37.531  12.541
24110W        W92583  34.387   3.852  14.910
24111W        W92584  36.395   4.868  14.958
24112W        W92585   3.248  24.030   2.205
24113W        W92586   5.821  20.118   3.796
24114W        W92587  25.566  22.186   1.309
24115W        W92588  44.338  21.642  10.457
24116W        W92589  15.171   6.749   2.183
24117W        W92590  34.110  34.593   0.847
24118W        W92591   7.814  41.826  13.872
24119W        W92592  24.070   8.231  14.343
24120W        W92593  15.678   3.279   1.409
24121W        W92594  11.846  40.042  11.068
24122W        W92595  16.687  15.754  12.339
24123W        W92596   2.364   8.728  12.871
24124W        W92597   7.707  19.063   4.702
24125W        W92598  13.704  12.319  10.640
24126W        W92599   6.393   4.891   1.770
24127W        W92600   2.814  17.170  10.425
24128W        W92601  16.627   6.799   0.913
24129W        W92602  20.742  38.412  11.543
24130W        W92603  15.090  34.490   4.273
24131W        W92604  35.478   0.366   2.223
24132W        W92605  19.155   5.291  12.982
24133W        W92606  29.559  34.582  10.436
24134W        W92607   4.266  20.689   3.763
24135W        W92608   0.949  40.053  12.489
24136W        W92609  13.760  40.512   1.915
24137W        W92610  30.951   6.223  14.479
24138W        W92611  31.534  23.551  13.034
24139W        W92612   3.887  41.974  14.855
24140W        W92613  12.690  22.031  10.987
24141W        W92614   7.319  26.571   0.280
24142W        W92615   9.270  17.146   9.950
24143W        W92616  24.063  13.151  11.104
24144W        W92617  40.814  37.469  12.984
24145W        W92618   3.356  16.183  13.045
24146W        W92619  25.504  29.580   0.464
24147W        W92620  22.663  15.104  13.521
24148W        W92621   2.379  20.596  12.514
24149W        W92622  30.150  15.680  13.861
24150W        W92623  20.631   1.834   1.793
24151W        W92624  28.126  42.398  11.415
24152W        W92625   8.406  14.605   2.761
24153W        W92626   8.193  38.916   4.729
24154W        W92627  18.614  12.705   1.245
24155W        W92628  10.373  23.083  10.627
24156W        W92629  15.241  26.680   4.329
24157W        W92630  37.984  24.175  12.449
24158W        W92631  16.631  26.702   1.404
24159W        W92632  28.985  32.604  14.882
24160W        W92633  39.816  11.341   0.461
24161W        W92634  17.618  38.947   9.985
24162W        W92635  19.762  39.396  13.351
24163W        W92636   0.855  20.567   4.713
24164W        W92637  24.228  11.754  13.458
24165W        W92638   0.347  29.541   0.893
24166W        W92639  29.071  41.801   2.718
24167W        W92640  22.243  12.760  10.142
24168W        W92641  27.585   1.334  12.394
24169W        W92642  34.019  39.427   3.262
24170W        W92643  24.002  36.917   0.823
24171W        W92644   8.257  13.272  11.551
24172W        W92645  42.962  15.164  11.396
24173W        W92646  26.568  13.645   0.447
24174W        W92647  44.473  31.436   0.339
24175W        W92648  41.309   7.895  10.456
24176W        W92649  31.591  44.494   1.921
24177W        W92650  25.536  19.670  11.061
24178W        W92651  41.897  23.031   1.376
24179W        W92652  11.642  13.815   0.248
24180W        W92653   7.781  15.633  10.117
24181W        W92654  14.789   7.749   4.216
24182W        W92655  28.640  33.074   2.192
24183W        W92656  22.203  22.717  14.946
24184W        W92657  27.483  33.420  14.858
24185W        W92658  29.533  15.305   0.855
24186W        W92659   8.751  21.704  11.047
24187W        W92660  31.965  34.401  10.042
24188W        W92661  28.563  22.169   0.842
24189W        W92662  42.472   6.871   0.321
24190W        W92663   0.318  10.766   4.607
24191W        W92664  42.023  21.752  10.621
24192W        W92665  43.359  23.587  12.509
24193W        W92666  18.620  23.169   3.306
24194W        W92667   7.752  35.972   5.137
24195W        W92668   0.823  20.035  14.934
24196W        W92669  30.436  26.643   1.852
24197W        W92670   2.378  13.825   0.905
24198W        W92671   2.764  18.660  11.885
24199W        W92672   7.186  35.550   9.491
24200W        W92673  29.114  11.229  10.515
24201W        W92674   7.749  34.596   9.503
24202W        W92675  27.681  38.841  11.866
24203W        W92676  28.667  31.039  12.055
24204W        W92677  14.790  39.917   3.355
24205W        W92678  33.006  12.175  13.888
24206W        W92679  31.461  43.318  14.357
24207W        W92680  44.295  37.944   3.277
24208W        W92681  20.636  11.742   0.737
24209W        W92682  38.334  28.606   2.872
24210W        W92683  23.555  18.785   0.817
24211W        W92684  28.590  42.910  11.379
24212W        W92685   8.685  32.893   1.834
24213W        W92686  25.540   7.361   1.879
24214W        W92687   5.302  22.669   2.886
24215W        W92688  18.219  13.311   0.886
24216W        W92689  42.995  34.047   4.303
24217W        W92690  44.389  24.133  12.387
24218W        W92691  13.305  17.621   0.771
24219W        W92692  10.639   4.392  13.487
24220W        W92693  26.616  13.307  12.491
24221W        W92694  24.719   8.357   3.223
24222W        W92695   7.904  19.284   0.434
24223W        W92696  19.140  29.483   4.299
24224W        W92697  29.074   6.393   2.285
24225W        W92698  34.026  43.865   4.202
24226W        W92699   8.851   6.888   3.785
24227W        W92700  19.599  33.033   1.218
24228W        W92701  39.408   5.902  13.320
24229W        W92702   3.832  31.028  14.377
24230W        W92703  15.217   3.749   2.766
24231W        W92704   4.380   7.219   3.795
24232W        W92705  18.295  40.339   1.402
24233W        W92706  13.222  38.433  13.419
24234W        W92707  21.109   8.687   5.285
24235W        W92708   6.297  36.905  14.387
24236W        W92709  25.978  23.681   0.870
24237W        W92710  19.088   0.295  10.428
24238W        W92711  17.796  20.578   3.328
24239W        W92712   4.841  40.466  13.364
24240W        W92713  28.121  14.115  11.032
24241W        W92714  10.776   3.810  11.613
24242W        W92715  23.539  25.556   1.390
24243W        W92716  21.733  35.911  14.827
24244W        W92717  35.434  40.956   4.338
24245W        W92718  39.397  36.943  10.449
24246W        W92719  35.533  33.602  12.457
24247W        W92720  35.522  26.136  10.620
24248W        W92721  37.985  18.099   4.162
24249W        W92722  30.532  29.427  13.806
24250W        W92723   2.373  36.060   1.377
24251W        W92724  35.922  26.459  10.586
24252W        W92725   9.325  11.767   1.754
24253W        W92726  31.120  12.612  14.985
24254W        W92727  33.410  42.952  12.828
24255W        W92728  17.152  19.661   1.330
24256W        W92729  26.576  10.262   2.242
24257W        W92730  14.123  32.548  13.432
24258W        W92731   3.841  40.544  10.547
24259W        W92732  29.140  28.585   3.714
24260W        W92733  18.669  43.844   1.365
24261W        W92734  41.524  44.378   0.728
24262W        W92735   3.937  35.996   4.258
24263W        W92736  14.220  16.572  11.529
24264W        W92737  27.446  14.221   4.600
24265W        W92738  29.094   8.689  11.569
24266W        W92739  20.113  30.137   3.183
24267W        W92740  30.090  39.386  11.941
24268W        W92741  15.201  10.723   2.299
24269W        W92742  34.953  42.796   1.761
24270W        W92743  34.382  42.809  13.376
24271W        W92744  44.274  21.695  14.356
24272W        W92745   1.842  27.497  11.433
24273W        W92746  32.621  21.214   3.327
24274W        W92747  16.197  35.389   2.727
24275W        W92748  26.552  12.661  11.090
24276W        W92749  11.344  38.559  13.440
24277W        W92750  33.448   3.339   3.246
24278W        W92751   2.302  25.145  10.562
24279W        W92752  37.346  43.909  13.979
24280W        W92753  18.123  32.529   4.241
24281W        W92754  39.514  23.160  13.808
24282W        W92755  10.259  17.214  13.405
24283W        W92756   5.352   6.677  10.084
24284W        W92757   9.309  12.741  11.486
24285W        W92758  24.164  41.030  13.366
24286W        W92759  21.695  10.147  12.522
24287W        W92760  30.005  39.474  10.603
24288W        W92761   2.244  12.270  11.375
24289W        W92762  21.676  19.576  11.972
24290W        W92763  20.617  11.240   3.668
24291W        W92764   6.281  26.464  12.855
24292W        W92765  38.508  21.756  12.066
24293W        W92766  33.511  38.426  11.496
24294W        W92767   4.900  35.541  14.459
24295W        W92768  36.934  43.398   4.810
24296W        W92769  43.431  34.402   3.196
24297W        W92770  39.490  24.626  14.975
24298W        W92771  12.635  12.261   2.344
24299W        W92772   0.315  27.182  12.490
24300W        W92773  37.887  38.946  14.502
24301W        W92774  34.523  44.448  13.919
24302W        W92775  21.729  10.208  10.516
24303W        W92776  31.409  27.012   4.718
24304W        W92777  29.119  38.468   2.836
24305W        W92778  26.463  26.667  11.960
24306W        W92779  13.773   5.750   4.245
24307W        W92780   0.344  24.095   4.183
24308W        W92781   9.833  27.569  11.447
24309W        W92782   2.948  40.352  14.404
24310W        W92783  38.013  20.661  13.983
24311W        W92784  31.962  13.292   2.403
24312W        W92785  11.169  38.410  11.905
24313W        W92786  30.594   6.738  11.975
24314W        W92787  16.652  27.486   1.853
24315W        W92788  28.150  25.011   3.282
24316W        W92789  42.014  18.076   1.271
24317W        W92790   6.299  37.866   0.375
24318W        W92791  41.432  41.982  11.888
24319W        W92792  13.294  11.691  12.395
24320W        W92793  10.828   6.685  12.486
24321W        W92794  41.999  21.685  14.858
24322W        W92795  12.642  40.845   4.803
24323W        W92796  19.095  18.267   4.601
24324W        W92797  30.640  10.141  12.882
24325W        W92798  15.123  18.593   4.719
24326W        W92799   9.845  12.691  12.012
24327W        W92800   0.777  31.016  11.487
24328W        W92801  33.099  43.941   3.261
24329W        W92802  30.042   3.296   0.289
24330W        W92803  42.001  19.245   1.832
24331W        W92804  31.507  33.498   4.126
24332W        W92805  13.175   8.665   1.868
24333W        W92806  22.008  22.042  13.958
24334W        W92807  38.948  27.193  14.425
24335W        W92808  42.474  38.453  14.484
24336W        W92809   3.927   7.199   1.871
24337W        W92810   4.400  19.577  14.885
24338W        W92811  42.961  33.407  13.953
24339W        W92812   6.854  26.470  12.563
24340W        W92813  24.482  22.724   0.360
24341W        W92814  24.151  14.298  12.083
24342W        W92815  13.728   8.238   3.211
24343W        W92816  44.287  12.794   4.689
24344W        W92817  42.477  42.804   0.837
24345W        W92818  17.248  22.087  10.405
24346W        W92819   8.397   7.338   1.722
24347W        W92820   1.245  40.823   3.382
24348W        W92821   8.280  24.077   4.277
24349W        W92822   0.477  10.321  12.032
24350W        W92823  29.964  26.674  10.898
24351W        W92824  11.806  25.000  13.939
24352W        W92825  19.743  23.023   0.297
24353W        W92826  36.511  18.191  12.555
24354W        W92827  25.700  31.905   1.811
24355W        W92828  30.502   1.823   2.279
24356W        W92829   1.468  21.580   2.693
24357W        W92830  27.585   6.419   3.322
24358W        W92831   7.826  27.594  14.469
24359W        W92832  19.154  43.955  14.497
24360W        W92833  16.661  14.747   1.438
24361W        W92834  14.196   5.843  13.894
24362W        W92835   6.411   5.266   0.285
24363W        W92836   1.391  10.360  11.890
24364W        W92837  18.642   6.231   4.260
24365W        W92838   0.479  17.775   0.874
24366W        W92839  25.062  40.393  10.898
24367W        W92840  38.983  10.678  14.826
24368W        W92841  36.513  34.408  11.999
24369W        W92842  10.805  29.019  11.470
24370W        W92843  18.291  34.929   3.221
24371W        W92844  41.025   6.799  14.904
24372W        W92845  14.095  34.092   1.832
24373W        W92846  14.675  26.133  14.951
24374W        W92847  32.501  37.437   2.353
24375W        W92848  12.781  39.046  14.769
24376W        W92849  39.382  37.851   0.263
24377W        W92850   8.751  25.071  12.361
24378W        W92851  26.564  22.134  10.942
24379W        W92852  25.200  27.185  14.397
24380W        W92853  31.434   1.937   3.195
24381W        W92854  19.597   2.805   3.841
24382W        W92855   1.362  34.484  11.395
24383W        W92856  18.791   8.402   3.751
24384W        W92857  15.320  41.841   0.413
24385W        W92858  12.160  11.248   1.236
24386W        W92859   2.375   5.277   4.226
24387W        W92860  25.040  21.059  10.959
24388W        W92861   4.927  31.908   3.317
24389W        W92862  35.967  38.478  12.070
24390W        W92863   4.344  30.953  12.966
24391W        W92864  10.837  39.367   2.415
24392W        W92865  25.130  41.491   2.386
24393W        W92866   8.196  24.478   2.271
24394W        W92867  18.626  29.923  12.395
24395W        W92868  44.997   3.378   0.791
24396W        W92869  23.015  31.648   2.197
24397W        W92870  20.758  12.683   2.323
24398W        W92871  22.104  33.032   1.704
24399W        W92872  36.358  39.908  13.038
24400W        W92873  43.899  43.437   1.310
24401W        W92874  44.437   6.828  12.033
24402W        W92875  10.722  40.816   4.597
24403W        W92876  21.202  32.522  11.901
24404W        W92877  31.521  34.978   4.126
24405W        W92878   2.258  23.642   2.804
24406W        W92879  16.239  10.667   1.338
24407W        W92880  41.337   8.718  13.948
24408W        W92881  22.064  18.583  14.823
24409W        W92882  13.812  19.262   3.360
24410W        W92883  13.782  17.689  13.004
24411W        W92884  18.725  25.620   4.787
24412W        W92885   8.402  38.062  14.914
24413W        W92886  23.604  44.830  14.427
24414W        W92887  28.140   5.746  14.900
24415W        W92888   2.461  28.039   4.176
24416W        W92889  35.468  44.444   4.697
24417W        W92890   6.851  37.503   3.312
24418W        W92891  31.433  40.842   4.190
24419W        W92892  44.949   6.232  12.548
24420W        W92893  17.571  17.638   2.665
24421W        W92894  39.959  17.192  14.461
24422W        W92895  39.444   8.381   1.388
24423W        W92896  23.012  18.654  14.912
24424W        W92897  25.989  32.059  12.339
24425W        W92898  20.266  40.415   4.626
24426W        W92899  23.537  11.172   2.745
24427W        W92900  39.442  40.882  11.945
24428W        W92901  32.566  32.061   1.798
24429W        W92902  23.586   1.851   0.919
24430W        W92903   2.396  20.621  10.499
24431W        W92904   3.761  14.198  10.140
24432W        W92905  40.009  13.601  14.399
24433W        W92906  22.223  18.687  10.633
24434W        W92907  39.818  42.329   4.322
24435W        W92908  19.535   9.304   4.602
24436W        W92909   6.302   9.739  12.925
24437W        W92910  44.937  35.905   3.356
24438W        W92911  26.003  39.510  10.990
24439W        W92912  43.931  28.550  14.499
24440W        W92913  34.994  24.141  10.549
24441W        W92914  39.046  20.588   3.314
24442W        W92915  18.075  10.815  11.563
24443W        W92916   1.880   2.422  10.975
24444W        W92917  21.048  30.564  12.023
24445W        W92918   3.935  18.242   5.158
24446W        W92919  33.080   4.417   2.268
24447W        W92920  34.561  11.754  13.812
24448W        W92921  14.757   7.763  14.333
24449W        W92922  25.517  44.447   0.960
24450W        W92923  44.328  39.344   4.280
24451W        W92924   5.347  28.437  12.080
24452W        W92925  31.486   5.789  13.363
24453W        W92926  27.980  16.667  12.407
24454W        W92927  41.855   0.431   1.389
24455W        W92928  41.426  20.732   3.152
24456W        W92929  34.584  35.406   0.747
24457W        W92930  41.339  41.304  13.975
24458W        W92931  29.429  17.138  12.430
24459W        W92932  30.434  35.511   0.323
24460W        W92933  14.826  13.691  13.311
24461W        W92934   7.769  38.476  14.299
24462W        W92935   3.783  34.021   1.851
24463W        W92936  15.815   2.960   1.899
24464W        W92937  27.115  17.775   1.815
24465W        W92938   0.807   7.377  12.946
24466W        W92939  19.720  30.602   3.223
24467W        W92940  17.723  25.618  14.475
24468W        W92941  41.295  18.572   3.232
24469W        W92942   7.699  41.818  14.830
24470W        W92943  10.670  42.828   1.712
24471W        W92944   9.728  18.164  11.091
24472W        W92945  38.058   1.292   1.803
24473W        W92946  14.758   5.863   3.783
24474W        W92947  21.080  26.598   1.346
24475W        W92948   6.250  24.162  13.421
24476W        W92949  28.458  34.087   4.823
24477W        W92950  13.771  36.378  11.435
24478W        W92951  18.150  31.134   2.243
24479W        W92952  15.823  28.646   1.925
24480W        W92953  16.208   9.783   0.737
24481W        W92954  13.809  16.265   2.258
24482W        W92955  23.159  43.442  11.070
24483W        W92956  39.549   5.758   4.747
24484W        W92957  35.547  35.917  14.828
24485W        W92958  27.618  32.916   1.224
24486W        W92959  28.168  29.133  11.483
24487W        W92960   2.449  26.170   0.783
24488W        W92961  20.054  27.663  12.033
24489W        W92962  42.030   4.402  11.074
24490W        W92963  33.554  27.120  11.571
24491W        W92964  29.974  40.356  13.806
24492W        W92965  39.318  24.510   3.190
24493W        W92966  15.696  37.040   3.631
24494W        W92967  28.634   1.761  11.089
24495W        W92968  13.155  16.113   1.263
24496W        W92969  29.525  10.654   2.407
24497W        W92970   0.917   3.820  14.854
24498W        W92971  30.055  23.208  14.924
24499W        W92972  17.645  24.665  10.527
24500W        W92973  34.558  34.571  12.048
24501W        W92974  16.717  26.074   3.690
24502W        W92975  13.114  44.297   1.842
24503W        W92976  44.286  29.592  11.449
24504W        W92977   6.426  17.628   0.821
24505W        W92978  28.086  17.612   3.681
24506W        W92979  42.374   0.989   1.838
24507W        W92980  21.261  36.381   4.172
24508W        W92981  17.680   1.948   1.739
24509W        W92982  24.088   0.849   2.880
24510W        W92983  44.837  12.229   4.324
24511W        W92984  21.710  38.829  10.120
24512W        W92985   0.369   8.840  13.506
24513W        W92986   7.778  17.698   0.359
24514W        W92987   4.208   0.795  12.508
24515W        W92988  28.562  28.121  14.485
24516W        W92989   8.820  31.973   0.919
24517W        W92990  19.582  31.149   2.739
24518W        W92991  32.094  42.858   2.780
24519W        W92992   3.327  35.864  10.917
24520W        W92993  36.842   5.721  11.507
24521W        W92994  15.605   8.375   0.912
24522W        W92995  14.224   9.674  10.923
24523W        W92996  35.580  12.762  11.995
24524W        W92997  21.668  26.614  10.616
24525W        W92998   7.891  22.164  12.966
24526W        W92999  42.987  16.652  14.991
24527W        W93000   7.793  41.537   1.889
24528W        W93001   5.296   6.693  10.545
24529W        W93002   0.494  26.646   4.825
24530W        W93003   0.974  34.539  13.956
24531W        W93004   2.798   3.935   2.783
24532W        W93005  20.626  28.565   3.220
24533W        W93006  40.819  27.064   3.295
24534W        W93007  24.051  17.142   5.122
24535W        W93008   1.844  14.788  12.461
24536W        W93009   6.303   7.791   1.851
24537W        W93010  34.376  29.963   2.812
24538W        W93011  28.512  14.311  13.820
24539W        W93012  41.404  20.235   3.316
24540W        W93013  23.717  44.985   4.638
24541W        W93014  24.138  26.533   4.827
24542W        W93015   3.822  22.237   4.684
24543W        W93016   1.878  38.830   0.463
24544W        W93017   5.243   6.428  11.987
24545W        W93018  23.623  16.787   0.916
24546W        W93019   9.863  12.253   2.304
24547W        W93020  28.453  25.022   3.364
24548W        W93021  10.293  44.338  13.966
24549W        W93022  32.484  14.698  12.045
24550W        W93023  42.352   7.721   3.209
24551W        W93024   7.381   1.921  14.276
24552W        W93025  26.974  15.699   2.412
24553W        W93026  14.612  25.023   4.665
24554W        W93027  19.260  37.403  13.878
24555W        W93028  34.591  12.219  14.992
24556W        W93029  16.305  21.686   1.846
24557W        W93030  38.357  30.423   0.398
24558W        W93031  10.255  18.077  13.817
24559W        W93032  18.097  19.208   2.845
24560W        W93033  11.729  44.289  10.954
24561W        W93034  33.941   5.848  11.913
24562W        W93035  39.411  21.127  14.465
24563W        W93036   7.260   5.901   4.161
24564W        W93037  32.895  17.288   3.857
24565W        W93038  43.007  10.199  14.020
24566W        W93039  25.997  20.729  11.115
24567W        W93040  28.544  22.115  11.511
24568W        W93041  34.028  44.813  14.950
24569W        W93042  31.586  30.970  11.406
24570W        W93043   9.834  19.780   0.324
24571W        W93044  26.100  14.664   0.910
24572W        W93045   3.879  40.978  14.302
24573W        W93046  24.008  21.242  11.979
24574W        W93047  22.168  35.459   3.854
24575W        W93048   0.405   9.294  11.959
24576W        W93049  37.397  40.400  10.474
24577W        W93050  11.171  21.698   4.235
24578W        W93051  21.690  44.405   0.870
24579W        W93052  23.236  39.985  14.481
24580W        W93053  40.824  22.642   3.698
24581W        W93054   0.810   1.420  12.995
24582W        W93055   5.391  25.120   2.674
24583W        W93056  32.605  11.765   9.991
24584W        W93057  28.105   2.472  10.968
24585W        W93058  31.951  33.038   1.730
24586W        W93059  39.836  34.413  11.056
24587W        W93060  28.980  17.754   0.289
24588W        W93061  41.338  14.789   2.381
24589W        W93062  12.735  17.633  13.828
24590W        W93063   7.822  28.611  11.467
24591W        W93064   1.757  36.054  13.468
24592W        W93065   2.356  19.545   1.927
24593W        W93066  33.415  39.010  14.299
24594W        W93067  32.496  38.951  13.803
24595W        W93068  27.582  32.035   2.781
24596W        W93069  35.855  32.475  12.903
24597W        W93070   1.863  12.305   3.368
24598W        W93071  28.969  22.124   2.224
24599W        W93072  24.530  27.501   4.143
24600W        W93073   3.295  31.154   0.837
24601W        W93074  43.014  37.053   3.836
24602W        W93075  37.432  32.953   1.806
24603W        W93076  34.579  16.623   3.639
24604W        W93077  23.697  20.655   2.182
24605W        W93078  37.499  13.270  14.317
24606W        W93079  27.044  40.877   1.332
24607W        W93080   2.255  18.269  14.366
24608W        W93081  39.883  24.180   4.804
24609W        W93082  42.332   7.803   0.825
24610W        W93083  35.944   1.389   1.370
24611W        W93084  27.106  17.079  11.086
24612W        W93085  44.371   5.858   2.236
24613W        W93086   7.753  31.040   2.307
24614W        W93087   9.226  21.152  10.445
24615W        W93088  16.241  42.985  14.377
24616W        W93089  38.447  13.112   3.714
24617W        W93090  16.164  29.953  14.006
24618W        W93091  43.910  37.019   1.224
24619W        W93092  33.116  44.283  13.933
24620W        W93093  36.418  22.214  13.941
24621W        W93094   7.321  13.817   3.354
24622W        W93095  22.143  25.502   0.745
24623W        W93096   1.768  44.489  11.479
24624W        W93097  42.299  34.018  10.478
24625W        W93098  32.614   3.363  13.310
24626W        W93099  27.122  41.444  13.043
24627W        W93100  36.517  34.549   1.707
24628W        W93101   9.785  32.956   2.284
24629W        W93102  29.138  38.875  12.002
24630W        W93103   2.399  35.954  10.442
24631W        W93104  22.155  18.206   1.826
24632W        W93105  12.177  13.629   1.356
24633W        W93106  42.988  27.650   1.898
24634W        W93107   8.705  40.509   2.872
24635W        W93108  21.224  14.588  12.427
24636W        W93109  15.624  18.159   1.283
24637W        W93110  35.999  35.575   1.917
24638W        W93111  29.153  18.182   0.387
24639W        W93112  22.699  32.579  12.916
24640W        W93113  15.288  35.480  10.440
24641W        W93114   6.822   6.731  14.434
24642W        W93115   1.313  17.617   1.909
24643W        W93116  11.772  43.845   1.419
24644W        W93117  10.827   0.279   4.301
24645W        W93118  25.111  24.176   3.206
24646W        W93119  25.017  15.753  11.896
24647W        W93120  37.528  32.100  14.758
24648W        W93121  15.203  19.166  13.014
24649W        W93122   9.197  44.949  10.951
24650W        W93123  24.131  31.648   2.663
24651W        W93124  33.500  22.068  12.042
24652W        W93125  19.223  18.594   0.307
24653W        W93126  36.378  15.329  13.547
24654W        W93127  27.949   2.941   2.886
24655W        W93128  13.661   9.371  10.494
24656W        W93129  10.715  33.417  11.863
24657W        W93130  30.119  34.997   1.766
24658W        W93131  30.613  25.970   0.249
24659W        W93132  25.171  21.592   2.265
24660W        W93133   8.238   5.712  12.043
24661W        W93134  33.384  11.820  12.543
24662W        W93135  11.227  34.026  12.561
24663W        W93136  33.591   8.323   4.194
24664W        W93137   8.806  30.472   0.358
24665W        W93138  33.570  21.059  13.960
24666W        W93139   3.222  26.183  11.467
24667W        W93140  34.386  36.044   1.384
24668W        W93141   3.756   8.889  13.949
24669W        W93142  15.181  22.238   2.194
24670W        W93143   9.847  16.124   4.164
24671W        W93144  33.536  23.687  10.534
24672W        W93145  37.053  39.487  12.427
24673W        W93146  38.565  15.244  11.417
24674W        W93147  19.226  37.831  11.433
24675W        W93148  11.238  18.239   2.295
24676W        W93149  30.632  26.968  13.003
24677W        W93150  37.442  25.563   4.189
24678W        W93151  31.957  19.183   3.832
24679W        W93152  39.512  37.412   1.922
24680W        W93153  28.032   8.749   1.295
24681W        W93154  42.990  20.682   0.834
24682W        W93155  29.560  20.708   3.700
24683W        W93156  12.830  13.691   2.817
24684W        W93157  20.110  41.854  11.865
24685W        W93158   7.269  41.008   0.389
24686W        W93159  34.465  33.090   4.236
24687W        W93160  33.041   7.859  13.858
24688W        W93161  35.930  28.018   4.709
24689W        W93162   7.349  37.360  14.010
24690W        W93163  28.153   0.394   0.861
24691W        W93164  40.858  17.201   1.415
24692W        W93165  15.093  42.019  11.954
24693W        W93166   3.799  29.091   4.195
24694W        W93167  28.955  44.925  12.454
24695W        W93168  37.083  42.894  11.508
24696W        W93169   1.973   6.242   1.284
24697W        W93170   8.276  36.474   1.905
24698W        W93171  19.756  30.096  12.509
24699W        W93172  23.722  37.026  11.864
24700W        W93173  11.670   9.770   3.673
24701W        W93174   7.217  10.733  13.471
24702W        W93175  15.284  11.150   2.351
24703W        W93176  35.399  27.948  14.804
24704W        W93177  12.191   8.708  13.399
24705W        W93178  31.583  33.932  14.945
24706W        W93179  39.996   8.211  12.001
24707W        W93180  12.728   3.287  11.575
24708W        W93181  36.465  26.485  11.862
24709W        W93182  33.987  31.515   2.368
24710W        W93183  32.618  10.269   4.716
24711W        W93184  22.602  35.108   3.739
24712W        W93185  44.809   2.767  13.894
24713W        W93186  16.314  13.341   2.711
24714W        W93187  23.515  35.988   1.704
24715W        W93188   7.728  35.400  11.985
24716W        W93189  22.503  42.312   1.795
24717W        W93190  13.639  14.725   2.746
24718W        W93191  42.288  16.751   3.360
24719W        W93192  23.143   7.293  10.501
24720W        W93193  14.770  34.498  12.438
24721W        W93194  15.288   1.762   3.284
24722W        W93195  33.432  17.065   0.398
24723W        W93196   3.239  40.865  10.445
24724W        W93197  23.674   8.750   3.186
24725W        W93198  17.165  20.656  11.062
24726W        W93199  15.263  43.392  10.542
24727W        W93200  36.941  27.669   1.267
24728W        W93201  36.880  10.370  11.016
24729W        W93202  13.318  34.034   0.843
24730W        W93203   7.290  19.544  14.344
24731W        W93204  31.100  20.255  10.480
24732W        W93205   4.811  14.190  10.534
24733W        W93206   8.817  12.750  10.013
24734W        W93207  40.016  40.343   2.703
24735W        W93208  20.029  15.137  12.431
24736W        W93209  39.036  18.641   0.245
24737W        W93210  34.523   1.734  14.782
24738W        W93211   2.794  36.987   0.262
24739W        W93212   9.877  12.741   4.712
24740W        W93213   6.319   1.336  12.521
24741W        W93214   5.720  27.098  10.460
24742W        W93215  36.498  17.632  11.901
24743W        W93216   4.384  34.947  14.798
24744W        W93217   3.774   6.779   4.240
24745W        W93218  17.281  10.729   3.642
24746W        W93219   7.729  16.609  13.938
24747W        W93220  41.489  11.852  11.601
24748W        W93221  38.432   1.917  10.972
24749W        W93222  31.004  37.042  14.872
24750W        W93223  13.135  12.785   3.197
24751W        W93224  32.958  13.316  12.469
24752W        W93225  18.105  27.162  14.456
24753W        W93226  28.559   3.954  13.798
24754W        W93227   0.877  35.972   1.424
24755W        W93228  40.003  18.152   3.766
24756W        W93229  20.727   3.455   2.210
24757W        W93230  12.682  38.361  11.477
24758W        W93231  10.366  22.509   2.839
24759W        W93232  44.502   1.947   4.352
24760W        W93233  18.553  41.487  11.924
24761W        W93234  38.500  16.743  10.628
24762W        W93235  15.635  17.267   1.878
24763W        W93236  35.407  25.546   1.705
24764W        W93237  40.367  19.585  10.414
24765W        W93238  26.176  38.011  12.862
24766W        W93239  35.393  20.590   2.279
24767W        W93240   2.849  38.849   2.416
24768W        W93241  26.497  24.531  13.308
24769W        W93242  38.983   7.705  14.309
24770W        W93243   2.752   3.377   4.113
24771W        W93244  13.702   2.781  12.445
24772W        W93245  41.818  10.707  11.980
24773W        W93246  42.802  33.011   2.862
24774W        W93247  40.872   9.237   1.932
24775W        W93248  42.852  32.032   3.366
24776W        W93249  19.157  20.529  14.353
24777W        W93250   8.179   4.272  14.770
24778W        W93251  22.224  33.542  10.521
24779W        W93252  44.900  32.995   1.779
24780W        W93253  32.927   4.203  12.537
24781W        W93254   7.858  38.986   9.989
24782W        W93255  10.856  10.675  13.901
24783W        W93256  25.995  30.588  13.978
24784W        W93257   1.276  21.555   4.138
24785W        W93258  40.503  14.722   2.858
24786W        W93259  23.708  26.195  14.827
24787W        W93260  34.952  10.785  10.489
24788W        W93261  23.545   1.348  10.519
24789W        W93262  10.718  11.681  11.474
24790W        W93263  43.849  12.734   0.810
24791W        W93264  24.034   5.814   2.253
24792W        W93265   0.887  15.104   3.865
24793W        W93266  18.236  36.387   0.434
24794W        W93267  37.007   4.246  14.987
24795W        W93268  35.471  10.194   4.812
24796W        W93269  23.156  38.966   2.739
24797W        W93270   5.828  31.418   3.672
24798W        W93271   2.354   4.819  10.505
24799W        W93272   3.340  40.951  12.440
24800W        W93273  14.755  14.136   3.662
24801W        W93274  18.546  37.383   0.462
24802W        W93275  28.036  31.028   1.287
24803W        W93276  26.982  37.948   2.697
24804W        W93277   4.806  40.833   0.943
24805W        W93278  34.395  42.001   3.165
24806W        W93279  21.225  37.479   1.429
24807W        W93280  13.730  40.475  10.893
24808W        W93281  31.570   3.917   0.949
24809W        W93282  16.721   7.189  12.567
24810W        W93283   9.662   6.259  11.411
24811W        W93284   8.347  17.139   2.239
24812W        W93285   7.235  27.574   2.230
24813W        W93286  28.617   7.398  13.878
24814W        W93287  25.547   5.232  13.349
24815W        W93288  13.341  28.612  11.605
24816W        W93289  14.116  37.086  12.479
24817W        W93290  29.565   6.229  12.011
24818W        W93291  40.415  21.180  12.946
24819W        W93292  30.156  15.767  11.914
24820W        W93293  36.450  15.086  14.386
24821W        W93294  32.515  17.295   2.751
24822W        W93295  37.564  31.412   1.796
24823W        W93296  14.678  16.165  10.571
24824W        W93297  18.081  39.551  10.943
24825W        W93298  39.839  35.039  12.861
24826W        W93299  36.401   4.728  10.462
24827W        W93300   9.701  43.993   3.753
24828W        W93301  40.516  19.709   3.237
24829W        W93302  30.929  34.869  13.440
24830W        W93303  11.187  17.631  13.506
24831W        W93304  24.064  12.796   2.861
24832W        W93305  39.023  35.944   0.478
24833W        W93306  44.974   6.740  10.445
24834W        W93307  10.332  43.970   4.295
24835W        W93308  22.149  43.777   4.833
24836W        W93309  14.717  21.232   3.290
24837W        W93310   6.281  15.755   1.255
24838W        W93311  28.138  28.535  10.510
24839W        W93312   0.300  40.033   3.175
24840W        W93313  17.576  21.575   0.284
24841W        W93314  33.418  35.578   4.703
24842W        W93315  17.787  40.840   2.844
24843W        W93316   3.227  13.154  13.527
24844W        W93317  15.714  28.668   2.368
24845W        W93318   3.800  30.451  13.503
24846W        W93319  37.509  42.823  12.447
24847W        W93320  34.552  20.666   1.929
24848W        W93321  31.033  34.110  10.445
24849W        W93322  32.558  11.842   4.275
24850W        W93323  21.617   5.858   3.168
24851W        W93324  40.323  34.082  14.817
24852W        W93325  27.109  22.037  12.911
24853W        W93326  24.593   5.402  13.794
24854W        W93327  22.219  13.619   4.218
24855W        W93328  36.541  41.819   3.664
24856W        W93329   2.809  22.018  12.088
24857W        W93330   4.938  38.934   3.365
24858W        W93331  17.282   8.654   4.132
24859W        W93332  42.353   9.365   2.374
24860W        W93333  43.329  26.698  12.463
24861W        W93334  25.474  17.176  14.029
24862W        W93335  38.508  31.439  13.976
24863W        W93336  41.794   0.763  10.057
24864W        W93337  20.758  27.079  12.926
24865W        W93338  19.735  29.601  11.957
24866W        W93339  17.089  37.489  14.390
24867W        W93340   7.734  34.517   1.891
24868W        W93341  10.330  21.637   3.362
24869W        W93342  12.320  39.905   3.349
24870W        W93343  21.204  15.250  13.051
24871W        W93344   3.866  25.484   0.927
24872W        W93345   4.842   6.208  11.442
24873W        W93346  26.494  33.991  12.067
24874W        W93347  29.617  14.340  11.538
24875W        W93348   5.689  23.601   4.265
24876W        W93349  41.967  14.737   3.658
24877W        W93350  16.093  38.505   2.844
24878W        W93351  35.860  34.514  10.601
24879W        W93352  26.694   5.209   2.273
24880W        W93353  42.396  29.111   1.748
24881W        W93354  18.156   4.858   2.676
24882W        W93355  21.091  43.852  13.343
24883W        W93356  12.830  10.327   2.785
24884W        W93357  37.942  30.457   4.222
24885W        W93358  18.715   9.326  12.443
24886W        W93359  12.709  28.972   2.313
24887W        W93360   5.917  23.162  13.339
24888W        W93361   4.438  43.330   2.231
24889W        W93362  19.770  11.686   2.335
24890W        W93363   2.228   7.859  13.947
24891W        W93364   9.209   0.768   3.851
24892W        W93365  18.558   5.259  11.890
24893W        W93366  14.798  30.986  10.493
24894W        W93367  32.887  36.372   3.179
24895W        W93368   0.454  25.113   3.182
24896W        W93369   6.789  32.936   2.414
24897W        W93370   7.734  15.255   2.821
24898W        W93371  11.763  25.504  10.986
24899W        W93372  27.023  30.127  12.367
24900W        W93373  23.501  33.612  13.331
24901W        W93374  19.677  41.791   2.362
24902W        W93375   6.301  37.527   4.763
24903W        W93376  20.659  23.595  11.520
24904W        W93377  11.737  28.619  12.913
24905W        W93378  10.316  30.535  14.506
24906W        W93379  18.154  30.425   4.274
24907W        W93380  29.008  22.503   0.830
24908W        W93381  32.070   4.704  11.977
24909W        W93382  12.270   4.803   2.787
24910W        W93383  34.601  13.274  14.431
24911W        W93384  20.244  12.172   2.326
24912W        W93385  21.663  26.175  13.468
24913W        W93386  34.523  39.532   1.341
24914W        W93387  14.760  28.481  12.408
24915W        W93388  20.721  23.707   4.761
24916W        W93389   9.724   2.463  12.853
24917W        W93390  41.888  39.505  12.528
24918W        W93391  17.177   4.870   1.863
24919W        W93392  14.209  12.711   3.154
24920W        W93393  42.777   0.884   1.898
24921W        W93394  26.129  38.427   3.349
24922W        W93395   5.696  23.701   2.218
24923W        W93396   6.252  23.165  14.275
24924W        W93397   1.831  19.091  12.366
24925W        W93398  20.697  13.112  11.029
24926W        W93399  24.621  12.249   4.230
24927W        W93400   4.716   2.463   0.873
24928W        W93401  44.265  20.725   4.214
24929W        W93402  19.161   9.713   2.348
24930W        W93403  23.145  43.486   4.149
24931W        W93404   6.323  23.057   2.400
24932W        W93405  43.299   4.206  10.505
24933W        W93406  38.987  42.426  14.334
24934W        W93407  34.029   4.385  11.007
24935W        W93408  14.761   2.762   3.301
24936W        W93409  15.176   1.852   2.731
24937W        W93410  44.477  30.649   1.251
24938W        W93411   0.920   0.984  12.867
24939W        W93412  40.946  16.231   2.886
24940W        W93413  28.666  30.023  14.368
24941W        W93414   7.829  16.307   3.739
24942W        W93415  15.246  14.720  12.032
24943W        W93416  33.616  28.063   2.867
24944W        W93417  33.082   2.871   4.298
24945W        W93418  31.937  25.118   0.845
24946W        W93419  18.246   6.427   1.892
24947W        W93420  18.678  43.313  10.452
24948W        W93421  28.558   1.870  13.824
24949W        W93422  37.532  28.157   0.915
24950W        W93423   1.970   6.256   3.740
24951W        W93424   0.914  13.349  13.540
24952W        W93425  27.055  34.940  13.423
24953W        W93426  21.185  30.478   3.699
24954W        W93427  37.467  40.810   1.915
24955W        W93428  44.849  34.498   4.699
24956W        W93429  16.190  43.382   1.394
24957W        W93430   1.859   7.792   1.257
24958W        W93431  30.529   8.832  12.460
24959W        W93432  37.394  34.055   1.860
24960W        W93433  37.004   2.414   3.839
24961W        W93434  16.693  24.110   0.311
24962W        W93435   3.330  26.503  14.494
24963W        W93436  39.341  34.966   4.641
24964W        W93437  28.157   9.785  11.438
24965W        W93438  20.201  44.303   2.736
24966W        W93439  15.633  18.620   2.849
24967W        W93440   6.279  38.850   0.419
24968W        W93441  15.303   9.828   4.252
24969W        W93442   8.777  19.063   3.655
24970W        W93443  24.636  33.549   4.272
24971W        W93444  23.094  21.070  11.110
24972W        W93445  40.427  22.510  13.490
24973W        W93446  34.479  24.507   1.428
24974W        W93447  29.470  40.045  13.476
24975W        W93448  33.549   7.729   1.351
24976W        W93449  14.206  19.117   2.707
24977W        W93450  39.924  32.465  13.502
24978W        W93451  20.249  26.999  12.048
24979W        W93452  35.873  11.855  11.407
24980W        W93453  20.152  19.545   1.390
24981W        W93454  44.817  26.547   0.930
24982W        W93455  30.563  14.749   1.866
24983W        W93456  31.486  18.147  13.913
24984W        W93457   1.299  39.838   2.359
24985W        W93458  19.709  19.739  10.575
24986W        W93459  39.034  11.685  11.883
24987W        W93460  41.354  12.802   4.230
24988W        W93461   9.860  40.412  12.057
24989W        W93462   4.385   5.209   2.766
24990W        W93463  24.496  41.035   0.876
24991W        W93464  16.682  28.481   1.778
24992W        W93465  30.079  40.866  14.864
24993W        W93466  24.989  40.956   1.430
24994W        W93467  15.665  19.601   1.790
24995W        W93468   8.279  12.798   1.378
24996W        W93469  14.826  32.112   4.706
24997W        W93470  13.294  16.183   4.645
24998W        W93471  17.618  44.305  14.446
24999W        W93472   6.397  17.690  10.407
25000W        W93473  20.747  20.076   2.198
25001W        W93474  20.599  22.031  10.603
25002W        W93475  17.285  16.204   3.692
25003W        W93476  30.913  15.318  14.387
25004W        W93477   8.830  13.702   4.659
25005W        W93478  32.950  18.269  11.416
25006W        W93479   2.286   1.848  11.526
25007W        W93480  43.452  40.327  14.418
25008W        W93481  38.844  25.701  11.529
25009W        W93482  18.271   0.417   3.297
25010W        W93483   1.336  34.978  12.401
25011W        W93484  27.069  33.506  12.352
25012W        W93485   8.167   9.288  12.568
25013W        W93486  24.110  18.671   1.835
25014W        W93487   1.243  12.278   0.363
25015W        W93488  16.191  31.991  14.939
25016W        W93489  19.064  14.314   0.264
25017W        W93490  43.012   7.859  13.034
25018W        W93491   8.890   3.755   3.790
25019W        W93492  13.290  36.544   4.730
25020W        W93493  34.014  29.667  14.770
25021W        W93494  16.749  25.146  11.046
25022W        W93495   4.726  20.638  10.608
25023W        W93496  36.946   0.981  12.457
25024W        W93497  31.529   6.802  11.411
25025W        W93498   0.932  44.421  14.950
25026W        W93499  31.537   3.333  12.976
25027W        W93500  18.176  22.617  10.425
25028W        W93501   7.710  35.523   1.854
25029W        W93502  11.358  41.850  11.593
25030W        W93503  28.542  33.965  13.475
25031W        W93504  18.708  42.310   4.797
25032W        W93505   0.297  23.153   0.808
25033W        W93506   4.701  43.437  14.283
25034W        W93507   7.732  20.198  10.557
25035W        W93508  33.057   9.671   4.195
25036W        W93509  25.057  23.733  12.407
25037W        W93510  38.490  42.286  14.424
25038W        W93511  15.236  17.780  11.379
25039W        W93512  28.660  36.038  11.559
25040W        W93513  33.968  39.966   3.702
25041W        W93514  22.596  13.780   2.818
25042W        W93515  15.102  24.506   1.712
25043W        W93516   5.282  33.897  12.926
25044W        W93517  36.585  29.941  12.962
25045W        W93518   1.265  32.887  12.434
25046W        W93519  39.966  36.404   2.768
25047W        W93520  34.602  31.510   3.660
25048W        W93521  13.638  37.551  11.555
25049W        W93522  44.429   6.230   2.194
25050W        W93523   4.907  21.052   1.433
25051W        W93524  24.136  31.492  12.566
25052W        W93525  38.537  25.588  11.434
25053W        W93526  29.977  21.556  11.581
25054W        W93527  34.561  35.052   3.350
25055W        W93528   5.850  25.525   3.756
25056W        W93529  35.069  42.408   0.271
25057W        W93530  26.556   0.464   1.916
25058W        W93531  17.785  35.029  10.629
25059W        W93532  39.906  36.900   4.617
25060W        W93533  24.551  24.101  12.391
25061W        W93534   8.396  11.864   0.756
25062W        W93535  21.158  43.437   4.648
25063W        W93536  33.048  15.146  13.050
25064W        W93537  37.443  20.612   3.212
25065W        W93538  10.358  12.178  11.415
25066W        W93539  40.029  19.706  14.800
25067W        W93540  23.078  12.305  14.781
25068W        W93541   0.266   3.317   2.814
25069W        W93542  13.110  37.970   0.461
25070W        W93543  11.797   4.255   2.754
25071W        W93544  31.410  39.921  14.472
25072W        W93545   3.834  20.630  13.540
25073W        W93546   8.793   7.794   0.292
25074W        W93547  23.580   2.813   2.234
25075W        W93548  43.469  10.664   1.263
25076W        W93549   2.373  39.058   1.769
25077W        W93550  30.910  17.112  13.322
25078W        W93551   3.394  27.602   0.335
25079W        W93552  11.291  27.188  10.499
25080W        W93553  40.538   8.768   1.399
25081W        W93554  17.696   6.724  10.520
25082W        W93555  43.937  43.850  13.058
25083W        W93556   3.225   4.800  12.551
25084W        W93557  41.922  21.564   1.861
25085W        W93558  17.152  22.009  10.142
25086W        W93559  33.060  16.297   3.349
25087W        W93560  14.189   2.471  13.918
25088W        W93561  12.816  31.525   0.936
25089W        W93562   8.669  34.879   5.198
25090W        W93563  28.564  27.458   4.325
25091W        W93564  39.471   3.841  12.867
25092W        W93565  11.366  39.442  12.937
25093W        W93566  35.527  24.594  14.817
25094W        W93567  21.754  27.958  14.811
25095W        W93568  14.708  42.407   2.781
25096W        W93569  33.068  42.348   2.252
25097W        W93570  15.690  13.137   4.683
25098W        W93571  36.369  38.346  13.862
25099W        W93572  15.215   8.351  11.856
25100W        W93573  43.369  29.662   4.623
25101W        W93574  25.569  25.480   3.830
25102W        W93575  13.604  35.465   2.843
25103W        W93576  29.477  15.099  11.862
25104W        W93577   8.306   5.399   3.337
25105W        W93578   4.340  12.788  14.978
25106W        W93579  34.536  43.293  12.012
25107W        W93580  14.782  24.623   0.278
25108W        W93581  34.379  22.632  14.277
25109W        W93582  26.175   0.252  12.882
25110W        W93583  22.107  24.008   1.765
25111W        W93584  16.730  28.485  11.873
25112W        W93585   6.296  24.650   4.311
25113W        W93586   7.361  44.396   3.740
25114W        W93587  34.451  39.458   0.354
25115W        W93588  39.493  34.883   3.330
25116W        W93589   7.698   0.825   2.286
25117W        W93590  18.573  29.503  12.426
25118W        W93591   3.811  16.308   5.084
25119W        W93592  42.406  25.067   0.930
25120W        W93593  39.868  31.108   4.813
25121W        W93594  28.441  33.902  11.881
25122W        W93595  17.800  25.045  11.860
25123W        W93596  33.935  14.280  13.469
25124W        W93597  28.471  25.116  12.917
25125W        W93598  31.090  20.032  13.911
25126W        W93599  21.640   6.817  14.342
25127W        W93600  23.181  28.164  11.493
25128W        W93601  35.975  29.080   4.643
25129W        W93602   8.189  28.610  14.287
25130W        W93603  44.790   1.916   0.291
25131W        W93604  19.562  42.022  14.845
25132W        W93605   0.367  22.682   1.308
25133W        W93606  19.650  23.587   1.218
25134W        W93607  42.286  21.726   2.197
25135W        W93608  29.596  33.396   0.450
25136W        W93609  12.126  15.254   3.336
25137W        W93610  32.031   9.798  13.903
25138W        W93611   6.263   1.766  13.063
25139W        W93612  38.899  29.945   2.852
25140W        W93613   3.711  12.783   0.810
25141W        W93614   8.675  10.697  12.377
25142W        W93615  26.018  22.187   0.326
25143W        W93616  38.847  12.712  11.535
25144W        W93617  23.152  27.061   1.418
25145W        W93618  18.058  19.689   2.417
25146W        W93619  12.827   0.884  12.843
25147W        W93620   6.424  33.128   0.935
25148W        W93621  34.991  39.047  12.495
25149W        W93622  37.558  35.602  12.828
25150W        W93623  39.549   0.296  13.308
25151W        W93624  34.120  43.329  11.585
25152W        W93625  14.098  44.901   3.781
25153W        W93626  36.445  22.661  14.975
25154W        W93627   1.354   9.783   0.391
25155W        W93628  30.472   3.771   3.233
25156W        W93629  27.105  44.804   1.313
25157W        W93630  34.935   3.293  14.007
25158W        W93631  34.440   9.827   4.672
25159W        W93632  19.152  44.285  13.941
25160W        W93633  12.197  19.722   1.861
25161W        W93634  25.574   5.867  11.561
25162W        W93635  39.389  40.836  12.855
25163W        W93636  39.365   6.694   3.240
25164W        W93637  22.556  25.691  13.460
25165W        W93638  11.243  31.067   4.143
25166W        W93639  21.619  19.590   3.737
25167W        W93640  10.710  20.634   3.740
25168W        W93641  12.208  42.387  14.014
25169W        W93642  39.330  19.282  11.985
25170W        W93643  41.035  21.199   2.867
25171W        W93644  23.061   8.173  12.059
25172W        W93645  37.983  44.410  14.875
25173W        W93646  24.047  36.080   1.825
25174W        W93647   4.419  36.901  12.397
25175W        W93648  33.623  37.567   2.792
25176W        W93649  43.861  20.526   2.353
25177W        W93650   3.934  26.196  12.046
25178W        W93651  11.700  16.775   0.243
25179W        W93652  23.018  39.842  11.107
25180W        W93653   6.871  20.099   0.310
25181W        W93654  32.534  11.235   0.841
25182W        W93655  22.235  17.222   2.353
25183W        W93656  37.395  41.949  12.924
25184W        W93657  38.981  28.994   3.634
25185W        W93658  36.521  30.067   4.176
25186W        W93659  29.154   9.842   3.796
25187W        W93660  14.120  29.155  12.439
25188W        W93661  32.008  25.592  13.334
25189W        W93662  14.255   8.186   4.263
25190W        W93663  14.680  14.097   0.371
25191W        W93664  13.110   7.380   0.863
25192W        W93665  25.480  41.388  11.979
25193W        W93666  26.527  41.878  11.116
25194W        W93667  28.039  32.039   1.804
25195W        W93668   6.423   2.819   2.182
25196W        W93669  40.508  16.688   1.797
25197W        W93670  44.883  16.587  12.436
25198W        W93671  22.237   4.293   4.283
25199W        W93672  36.522   0.272  10.446
25200W        W93673  35.560  36.464   1.728
25201W        W93674  11.818  14.240   0.324
25202W        W93675  43.008   3.909   2.778
25203W        W93676  10.769   5.205  11.504
25204W        W93677  33.054  29.131  12.077
25205W        W93678  15.611  14.210   0.335
25206W        W93679  11.330  10.195  14.336
25207W        W93680  24.498   5.823   3.241
25208W        W93681   5.316  21.257  13.519
25209W        W93682  24.493   2.421   1.435
25210W        W93683  16.791  31.028  11.433
25211W        W93684  37.440  40.928   4.262
25212W        W93685  33.581  12.797  12.861
25213W        W93686  25.497   4.379   3.214
25214W        W93687  13.835   2.337  12.410
25215W        W93688  15.167  26.068  11.507
25216W        W93689   8.817  18.276   1.844
25217W        W93690   4.756  44.374  11.430
25218W        W93691  16.730  11.848   4.673
25219W        W93692  42.007  36.381   4.298
25220W        W93693  31.494  42.951   3.265
25221W        W93694  22.090  27.666   1.934
25222W        W93695  30.965  17.776   2.179
25223W        W93696  43.802  29.035  10.504
25224W        W93697  34.424  37.971   2.836
25225W        W93698   0.458  31.960   2.184
25226W        W93699  18.099   6.703   4.752
25227W        W93700   7.310   0.755  13.856
25228W        W93701  22.132  11.244   2.712
25229W        W93702   3.232  41.384  14.867
25230W        W93703  22.230  22.095  12.385
25231W        W93704   0.754  39.455   3.725
25232W        W93705   6.342   8.820   3.332
25233W        W93706  25.057  37.369  11.076
25234W        W93707  11.719  12.168  10.933
25235W        W93708   7.318  36.557  13.819
25236W        W93709  38.538   5.720   4.809
25237W        W93710   6.845   4.393  12.549
25238W        W93711  26.026   2.947   0.941
25239W        W93712  22.574  28.648   4.325
25240W        W93713  27.091  43.017  10.033
25241W        W93714   6.809  13.218   4.159
25242W        W93715  19.060  38.034  11.060
25243W        W93716  14.256  41.430   4.652
25244W        W93717  28.174  39.329   4.741
25245W        W93718  26.509  13.660  13.473
25246W        W93719  42.404  13.761  12.445
25247W        W93720   9.853   3.761   2.693
25248W        W93721  16.308   2.423  14.813
25249W        W93722  23.682  40.810  11.924
25250W        W93723  26.079   8.878   0.884
25251W        W93724  15.771   6.317  14.791
25252W        W93725  18.282  39.927  11.944
25253W        W93726  18.584  41.357   4.213
25254W        W93727   4.331   9.868  11.085
25255W        W93728  36.936  27.556   2.299
25256W        W93729  24.997   8.720   3.710
25257W        W93730   1.377  27.064   2.745
25258W        W93731  26.536  25.697   1.418
25259W        W93732  29.940  28.136   1.217
25260W        W93733  17.303  37.485  10.937
25261W        W93734  36.094  21.157  11.523
25262W        W93735  16.185  15.188   2.388
25263W        W93736  41.957  13.737   0.380
25264W        W93737  34.043  41.881   2.196
25265W        W93738  39.853  22.503  12.523
25266W        W93739  22.555  28.655   2.793
25267W        W93740  29.926   1.923  14.862
25268W        W93741  17.249   3.394   4.649
25269W        W93742  35.939   0.428  11.542
25270W        W93743  30.105  28.461  14.436
25271W        W93744   7.773  15.581   2.778
25272W        W93745   3.778  33.402  12.384
25273W        W93746   0.362  27.998  12.450
25274W        W93747  19.744   3.237  14.839
25275W        W93748  17.289  26.476   1.773
25276W        W93749  21.536  15.142   0.825
25277W        W93750  31.424  38.407   4.691
25278W        W93751  37.405  44.375  14.483
25279W        W93752  19.639  14.748  10.956
25280W        W93753  28.157  40.965  14.437
25281W        W93754   8.885  11.151   1.831
25282W        W93755  41.892  24.133  10.613
25283W        W93756  24.502  30.606  14.297
25284W        W93757  19.741  41.885   0.378
25285W        W93758  32.391   9.796   3.681
25286W        W93759  21.541  12.237  11.555
25287W        W93760   0.808  36.949   1.889
25288W        W93761  40.802  40.535  14.861
25289W        W93762  13.108  22.629   2.672
25290W        W93763  22.586   3.305  12.574
25291W        W93764  39.887  13.232   1.311
25292W        W93765  20.125  22.696  13.417
25293W        W93766  21.631  25.599   3.151
25294W        W93767  17.228  13.614   4.632
25295W        W93768  42.927   7.775   1.314
25296W        W93769   6.774  36.011  12.517
25297W        W93770  21.746  36.870   4.714
25298W        W93771   2.768   4.439   3.803
25299W        W93772  36.883  40.832   0.432
25300W        W93773  33.898  23.195  13.987
25301W        W93774   8.893  35.888  14.516
25302W        W93775  37.061  38.342   4.688
25303W        W93776  26.092  23.625  14.808
25304W        W93777  33.921  17.285   0.271
25305W        W93778  26.193   0.844   5.687
25306W        W93779  43.866  11.804  13.033
25307W        W93780   2.820  18.773  14.818
25308W        W93781  39.340  38.509  14.350
25309W        W93782   0.908  37.881  14.507
25310W        W93783   2.755  37.862   0.262
25311W        W93784  25.563  29.003   3.642
25312W        W93785  22.598  44.888  11.390
25313W        W93786   6.302  33.998   1.701
25314W        W93787  24.612  23.153   4.252
25315W        W93788  11.717   5.839   2.282
25316W        W93789   5.385   4.865   5.282
25317W        W93790  22.181  32.494  10.596
25318W        W93791   9.190  16.217  12.459
25319W        W93792   7.690  28.670   0.925
25320W        W93793  41.460   9.725   1.432
25321W        W93794  23.168  15.764  14.979
25322W        W93795  35.525  15.781  10.606
25323W        W93796   2.812  26.982   0.306
25324W        W93797   1.269  41.888  11.373
25325W        W93798  36.846  36.983  13.459
25326W        W93799  34.911   8.263  14.890
25327W        W93800   7.350  25.512  12.960
25328W        W93801  44.849  23.057  14.843
25329W        W93802  18.098  31.412   3.638
25330W        W93803  42.812  13.743  12.545
25331W        W93804  36.947  34.118  12.897
25332W        W93805  36.528  10.682  14.794
25333W        W93806  26.642  22.025   0.953
25334W        W93807  28.518  37.037   4.267
25335W        W93808  43.945  39.556   2.719
25336W        W93809  20.643  39.013  13.845
25337W        W93810  35.997  14.206   0.272
25338W        W93811  39.955  40.841  14.413
25339W        W93812  10.695  44.373   2.369
25340W        W93813   5.435  14.103  12.917
25341W        W93814  39.844  10.315   0.871
25342W        W93815  41.945  32.418  10.412
25343W        W93816  23.106  44.263  11.879
25344W        W93817   1.268  27.990   1.802
25345W        W93818  15.263  43.872  14.275
25346W        W93819  37.500  25.714   2.194
25347W        W93820   0.300   7.786  13.506
25348W        W93821  32.095  38.846  11.117
25349W        W93822   4.278  27.074  10.598
25350W        W93823  43.482  25.997  14.290
25351W        W93824  27.098  23.585   2.899
25352W        W93825  21.051  18.148  11.855
25353W        W93826  13.766  35.908  14.874
25354W        W93827  11.842  17.666   4.626
25355W        W93828  36.452  22.655  13.462
25356W        W93829  30.997  26.977   4.749
25357W        W93830  21.124   6.719  12.573
25358W        W93831  13.313   2.327   1.785
25359W        W93832   7.264  40.982   0.901
25360W        W93833  40.303  28.135   1.315
25361W        W93834   5.760  16.772   0.867
25362W        W93835  24.230  14.125  14.968
25363W        W93836   3.923  42.489   2.845
25364W        W93837  14.713  43.474  11.017
25365W        W93838  22.098  37.969  13.975
25366W        W93839  21.564  34.444  12.436
25367W        W93840   2.939  21.683   3.216
25368W        W93841  35.063  28.034   4.601
25369W        W93842  18.137   4.747  13.434
25370W        W93843  18.714   4.729  10.525
25371W        W93844   1.473  18.187  14.885
25372W        W93845  16.650   9.230   4.833
25373W        W93846  21.049  39.012  11.909
25374W        W93847  30.150  30.640  12.007
25375W        W93848  44.428   0.404   5.308
25376W        W93849  23.690  28.090   4.653
25377W        W93850  39.461  29.922  11.445
25378W        W93851  27.512   1.430  10.990
25379W        W93852  42.924  41.828   4.178
25380W        W93853  13.695  32.901   0.441
25381W        W93854  30.974  11.821   2.225
25382W        W93855  27.061  44.756  12.418
25383W        W93856  31.949  15.750  13.057
25384W        W93857  36.581   1.902   3.786
25385W        W93858  23.223  18.695   4.624
25386W        W93859  37.984   1.773  11.868
25387W        W93860  33.883  36.388  12.480
25388W        W93861  15.180   6.778  12.987
25389W        W93862  44.302   2.371   3.159
25390W        W93863  43.833   6.411   2.902
25391W        W93864   0.971  36.477  10.954
25392W        W93865  10.365  18.557   5.089
25393W        W93866  38.914  30.021   4.135
25394W        W93867  20.202  19.541  11.039
25395W        W93868  32.516  40.523   2.677
25396W        W93869  20.110  44.423   2.285
25397W        W93870   0.328  39.974  12.888
25398W        W93871   2.836  12.723   0.897
25399W        W93872  20.143   3.301   1.831
25400W        W93873  17.707  27.173   0.326
25401W        W93874  24.696  13.275  13.853
25402W        W93875  44.754  17.291  10.939
25403W        W93876  27.167  39.036  11.611
25404W        W93877  13.602  11.757   4.147
25405W        W93878  12.667   0.850  14.789
25406W        W93879   7.799  36.533   0.271
25407W        W93880  33.572  36.001  10.568
25408W        W93881  38.443   4.270  10.496
25409W        W93882   1.332  39.314  14.457
25410W        W93883  31.909  40.436  13.882
25411W        W93884   0.487  35.865  13.833
25412W        W93885   6.235   8.756  11.422
25413W        W93886  18.665  41.024  13.846
25414W        W93887  22.660  40.357  13.898
25415W        W93888  11.144  13.810  12.547
25416W        W93889  28.524  22.174   1.252
25417W        W93890  32.534   6.301  12.062
25418W        W93891  27.132   6.678   0.936
25419W        W93892  26.000   7.227   4.251
25420W        W93893  18.050  22.635   1.823
25421W        W93894  27.026  24.017  11.561
25422W        W93895  29.104  41.786  14.397
25423W        W93896  42.379  13.624  13.380
25424W        W93897  11.738  23.107   0.287
25425W        W93898  18.618   4.868  11.119
25426W        W93899  26.662  39.985   0.477
25427W        W93900  34.941  11.785  11.468
25428W        W93901  39.945   1.374  12.398
25429W        W93902   3.424   3.356  14.352
25430W        W93903  25.580  40.507   1.711
25431W        W93904  21.661  25.156   2.196
25432W        W93905  39.944   9.189  11.910
25433W        W93906  43.500  41.956  12.916
25434W        W93907  25.632  36.957  12.906
25435W        W93908  34.525  12.813   1.384
25436W        W93909  33.613  28.643   4.806
25437W        W93910   8.356   4.315   3.670
25438W        W93911  29.962  29.995   3.279
25439W        W93912  18.133  44.912   4.259
25440W        W93913  32.907  15.777   2.381
25441W        W93914   1.410   2.788   3.711
25442W        W93915  13.227  17.217   3.368
25443W        W93916   3.381  23.123  10.527
25444W        W93917   4.705  44.985  11.602
25445W        W93918  37.398  12.675   0.324
25446W        W93919  18.144  34.428  11.529
25447W        W93920  21.724  40.879  10.544
25448W        W93921  16.105   6.830  11.386
25449W        W93922  26.469  28.630   2.189
25450W        W93923  44.442  16.639  13.431
25451W        W93924   6.308  17.800   3.338
25452W        W93925  35.993  31.146   3.727
25453W        W93926  22.039  27.075   4.619
25454W        W93927  37.362  37.399   1.350
25455W        W93928  41.394  18.083   4.240
25456W        W93929  19.703   5.899  13.823
25457W        W93930   1.282  27.087   3.762
25458W        W93931   8.205  32.028  13.456
25459W        W93932  23.140  28.110  14.910
25460W        W93933  36.042   8.673   2.352
25461W        W93934   8.301  16.087  10.588
25462W        W93935  19.713  33.506   1.415
25463W        W93936  19.664   6.737   3.297
25464W        W93937  25.672  35.414   0.772
25465W        W93938  33.473   7.171  11.937
25466W        W93939  31.957  15.137  13.035
25467W        W93940  22.072  31.143   4.645
25468W        W93941   2.372   8.363  13.496
25469W        W93942  32.492  40.308   1.330
25470W        W93943  38.925  24.114  12.341
25471W        W93944  23.555  26.096  13.480
25472W        W93945  16.582   5.727   4.345
25473W        W93946  29.492  12.153  13.895
25474W        W93947   4.306  42.471   0.319
25475W        W93948   9.258  44.995   4.208
25476W        W93949  40.016   1.938  11.060
25477W        W93950  38.486  32.404  14.880
25478W        W93951  33.044  40.349  11.570
25479W        W93952   3.349  13.191  12.061
25480W        W93953  12.175  31.097  11.504
25481W        W93954  26.538  15.811  14.379
25482W        W93955  32.034  32.003  14.458
25483W        W93956  38.380  19.268   1.381
25484W        W93957   7.292  32.080   2.389
25485W        W93958  23.041  21.672  12.400
25486W        W93959  34.560  19.667  14.345
25487W        W93960  43.012  15.309  12.410
25488W        W93961  15.169  38.350  13.389
25489W        W93962  19.565   2.834  12.925
25490W        W93963  15.169  37.868   0.935
25491W        W93964  39.508  20.194   2.860
25492W        W93965  36.065  12.249   4.115
25493W        W93966  37.057   4.732  12.952
25494W        W93967   4.934   4.792  14.447
25495W        W93968  40.407  34.093   1.749
25496W        W93969  25.537  28.488   1.372
25497W        W93970  29.633  28.527   2.787
25498W        W93971  21.262  22.698   4.771
25499W        W93972  18.723  44.380  14.513
25500W        W93973  28.438  41.503  11.914
25501W        W93974  25.609  13.182   4.616
25502W        W93975  20.171  37.976  12.569
25503W        W93976  14.316  14.799   3.653
25504W        W93977  17.141   5.690  12.037
25505W        W93978  27.642   8.805  10.560
25506W        W93979  15.761  29.170   4.210
25507W        W93980  10.144   3.389  13.499
25508W        W93981  30.484   4.427   4.304
25509W        W93982  42.004  30.985   1.928
25510W        W93983  32.486  12.296   1.307
25511W        W93984   4.702  12.749  11.919
25512W        W93985  30.918  25.148   1.886
25513W        W93986   9.815  33.913   9.653
25514W        W93987   7.832  20.217   1.925
25515W        W93988   7.378   5.217  10.156
25516W        W93989  16.299  20.565  14.320
25517W        W93990  14.757   4.918   4.641
25518W        W93991   7.807  39.560  12.036
25519W        W93992  36.442   6.795   1.305
25520W        W93993  41.990  13.746  13.500
25521W        W93994  42.967   3.941   1.806
25522W        W93995  15.108  17.584   2.753
25523W        W93996   5.416  22.184   2.895
25524W        W93997  23.197  21.733   2.261
25525W        W93998   8.823  43.332  11.531
25526W        W93999  23.717  36.058  10.998
25527W        W94000  36.422   4.235   4.728
25528W        W94001  44.753  22.157   2.808
25529W        W94002  14.686  42.865   3.719
25530W        W94003   4.816   6.405  13.411
25531W        W94004  19.598   1.789  14.392
25532W        W94005   3.456  40.511  14.340
25533W        W94006   6.702  13.345   3.807
25534W        W94007  35.915  36.978   0.783
25535W        W94008  35.557  10.280   1.694
25536W        W94009  28.178  19.043   2.669
25537W        W94010  15.150  37.954  11.413
25538W        W94011  15.281  43.486  11.115
25539W        W94012  36.067   3.434  12.559
25540W        W94013  29.173  26.553  13.963
25541W        W94014  40.380  43.837   1.825
25542W        W94015  26.474  16.569  12.935
25543W        W94016   7.719  31.953  13.986
25544W        W94017   9.733   5.883  14.778
25545W        W94018  43.302   5.211   2.681
25546W        W94019  24.605   9.254  13.376
25547W        W94020   7.826  14.716   0.400
25548W        W94021  25.048  35.038   2.195
25549W        W94022   0.341  31.500  14.990
25550W        W94023  29.447  29.588   2.208
25551W        W94024  28.607  21.686  10.925
25552W        W94025   5.875   4.782   1.725
25553W        W94026  13.631   6.405   4.116
25554W        W94027  33.531  24.661  11.062
25555W        W94028  34.866  15.087   4.683
25556W        W94029   4.701   2.239  13.818
25557W        W94030  38.025  11.626   1.247
25558W        W94031  13.169   5.711  10.580
25559W        W94032  12.155   7.361  10.603
25560W        W94033  36.418  41.429   4.831
25561W        W94034  17.679  41.478  13.803
25562W        W94035   6.275   4.790   2.223
25563W        W94036   1.785  41.470  11.029
25564W        W94037   8.195  16.292  13.919
25565W        W94038  20.549  37.876  12.067
25566W        W94039   5.782   6.368  14.838
25567W        W94040  20.619  15.298  12.491
25568W        W94041  29.648  36.017   4.768
25569W        W94042  28.102   0.975  13.509
25570W        W94043  32.136  16.667  10.945
25571W        W94044   9.222   1.955   2.856
25572W        W94045  34.940   3.396  10.932
25573W        W94046  36.560  29.636   4.285
25574W        W94047  22.589  24.685   1.711
25575W        W94048  33.623   1.468  11.554
25576W        W94049  21.735   8.684   2.682
25577W        W94050   4.424   5.268  12.385
25578W        W94051  25.692  33.582  14.297
25579W        W94052   8.777  44.862  13.462
25580W        W94053  39.870  17.211  11.928
25581W        W94054  16.567   2.893  13.355
25582W        W94055  26.166  32.504   2.820
25583W        W94056   2.439  29.554   2.806
25584W        W94057  25.637  32.111  12.535
25585W        W94058  13.195  34.493   4.795
25586W        W94059  41.937   2.456   2.380
25587W        W94060  14.198  23.127  12.870
25588W        W94061  21.184  34.895  13.540
25589W        W94062   4.825  38.534  10.042
25590W        W94063   4.941  17.798  10.938
25591W        W94064  29.597  41.357  12.403
25592W        W94065  13.144  27.680  10.412
25593W        W94066  34.098  44.330  12.898
25594W        W94067  23.126  24.007   1.899
25595W        W94068  23.642  16.789  14.302
25596W        W94069  22.711  15.285   3.786
25597W        W94070  18.140  13.764  12.540
25598W        W94071  36.587  37.935  13.990
25599W        W94072  12.684  10.681   2.371
25600W        W94073  17.168  23.584   1.765
25601W        W94074  14.736  40.335   0.406
25602W        W94075  16.655  28.647  12.995
25603W        W94076  10.867  44.393  13.319
25604W        W94077  32.062  38.324   1.366
25605W        W94078   5.788  25.122  12.008
25606W        W94079  33.493  26.532  13.808
25607W        W94080  23.149   4.360   0.787
25608W        W94081   7.794  39.440  14.996
25609W        W94082   9.691  14.323   1.836
25610W        W94083  21.101  39.384   0.382
25611W        W94084  29.578  26.168  11.891
25612W        W94085  27.117  31.140  10.427
25613W        W94086   0.385  15.671   2.765
25614W        W94087  36.372  42.324  14.378
25615W        W94088  33.024  29.648   4.754
25616W        W94089   1.839  31.432  13.974
25617W        W94090  23.565  24.694   0.898
25618W        W94091  31.914  24.191   5.185
25619W        W94092  28.468   9.367   1.340
25620W        W94093  12.249   7.299  12.352
25621W        W94094  17.170  30.978   1.794
25622W        W94095   2.466  36.965  11.488
25623W        W94096   7.790  33.524  13.060
25624W        W94097  34.572  11.306  12.068
25625W        W94098  14.139  40.350  11.872
25626W        W94099  22.693   5.396   1.924
25627W        W94100  16.809  29.023   0.424
25628W        W94101  43.457  19.136  13.368
25629W        W94102  41.447  26.530   3.782
25630W        W94103  18.278   3.352  12.879
25631W        W94104  44.322  28.136  10.498
25632W        W94105  44.005  15.277  10.629
25633W        W94106  10.225   7.329  12.983
25634W        W94107  26.124   7.265  13.316
25635W        W94108  15.287  43.893  13.819
25636W        W94109  34.998  14.792   4.713
25637W        W94110  15.184   4.768   0.846
25638W        W94111  13.343  26.557  12.880
25639W        W94112  16.226  19.220   0.730
25640W        W94113  34.587   5.253  10.936
25641W        W94114  27.019  36.471  13.853
25642W        W94115   6.676  43.994  12.350
25643W        W94116  44.876  44.965  13.319
25644W        W94117  36.017  22.124  14.484
25645W        W94118   3.342  17.193  12.538
25646W        W94119  15.811  30.942   3.721
25647W        W94120  14.625  42.898   4.688
25648W        W94121  37.975  42.992   2.351
25649W        W94122  27.178  28.480   3.666
25650W        W94123  37.009  26.584  13.507
25651W        W94124  37.974  23.612   2.390
25652W        W94125  25.591  30.950   1.316
25653W        W94126  43.832   4.928   4.708
25654W        W94127  41.868  25.174   3.211
25655W        W94128  36.902   4.217   2.316
25656W        W94129  34.393  15.132  11.986
25657W        W94130  41.393   6.840   3.257
25658W        W94131  24.548   2.413   2.699
25659W        W94132  32.411  30.512   3.373
25660W        W94133  33.084  37.351  14.869
25661W        W94134   9.311  24.555  14.402
25662W        W94135  17.282  44.316   1.271
25663W        W94136   3.335  40.346  12.951
25664W        W94137  23.655  19.178  11.995
25665W        W94138  10.771  11.761  14.312
25666W        W94139  17.564  41.851   4.202
25667W        W94140  40.484  44.791   2.242
25668W        W94141  13.124   0.743  11.097
25669W        W94142  38.372  13.253   1.838
25670W        W94143  18.278  33.026  11.547
25671W        W94144   2.231   0.858   4.735
25672W        W94145   3.948  12.684   1.696
25673W        W94146   6.227  41.419  12.361
25674W        W94147  35.500  25.008  12.030
25675W        W94148   8.887  24.201  13.030
25676W        W94149   2.923  31.615   2.412
25677W        W94150  30.111  21.681  10.629
25678W        W94151  43.017  40.516  10.991
25679W        W94152  17.727  19.056  11.856
25680W        W94153  11.189  19.243  11.444
25681W        W94154  30.020   8.318   4.281
25682W        W94155  36.509   4.787  12.413
25683W        W94156  18.613  27.508  11.398
25684W        W94157   7.877  40.051   4.240
25685W        W94158  19.556  10.339  12.447
25686W        W94159  21.113  31.481   3.687
25687W        W94160  40.378  31.969   2.315
25688W        W94161  15.101  38.519  14.464
25689W        W94162  44.394   5.376   9.962
25690W        W94163  33.114  40.535   2.374
25691W        W94164  15.196  11.661   2.416
25692W        W94165  42.812  35.477   1.438
25693W        W94166  43.918  38.504   2.179
25694W        W94167  16.589  36.421  11.949
25695W        W94168  23.061  26.999  13.016
25696W        W94169  28.034  35.944  14.329
25697W        W94170  33.393  20.600  12.004
25698W        W94171   2.389   6.426   3.677
25699W        W94172  15.194   9.680  13.525
25700W        W94173  16.175  29.508   4.259
25701W        W94174  21.734  16.656   1.359
25702W        W94175   8.282  32.894  13.884
25703W        W94176   0.430  40.857   3.283
25704W        W94177  27.175  38.853   2.896
25705W        W94178  35.041  29.463  13.956
25706W        W94179  36.931  16.746   4.831
25707W        W94180  13.729  40.437  14.459
25708W        W94181  33.909  23.013  12.353
25709W        W94182   8.195  23.190  14.997
25710W        W94183  19.113  15.596  10.914
25711W        W94184  21.569  27.023   2.740
25712W        W94185   9.869  17.080   1.813
25713W        W94186  11.855  13.269   0.399
25714W        W94187  32.930  32.547   1.897
25715W        W94188   2.838  40.309   1.236
25716W        W94189  27.944  18.259   9.934
25717W        W94190  39.356   2.757  14.816
25718W        W94191  42.777  10.165   5.121
25719W        W94192  29.989  30.153  11.867
25720W        W94193   1.358   5.420   0.768
25721W        W94194  11.198  21.245   3.836
25722W        W94195  23.537   3.814  10.523
25723W        W94196   1.319  41.015   1.860
25724W        W94197  34.955   7.711   4.659
25725W        W94198  26.199  42.803  12.837
25726W        W94199  37.052   2.251   3.328
25727W        W94200   8.706   4.368  12.350
25728W        W94201  26.639  20.143  10.914
25729W        W94202   8.391   3.875  12.397
25730W        W94203   7.209  44.853   2.379
25731W        W94204  33.525  39.862  13.860
25732W        W94205  26.138  14.241  14.883
25733W        W94206  20.680  30.585  13.365
25734W        W94207  31.502  42.913  10.567
25735W        W94208   1.325  13.645  11.413
25736W        W94209  37.896  39.987   4.809
25737W        W94210  13.171  44.271   1.411
25738W        W94211  38.925   6.313  13.868
25739W        W94212  42.500  43.884   2.737
25740W        W94213  44.826  41.474  13.009
25741W        W94214  29.154  44.798   4.811
25742W        W94215  10.696  17.216  12.344
25743W        W94216  19.674   2.338  13.415
25744W        W94217  15.654  23.088   2.230
25745W        W94218  19.061  40.902  14.447
25746W        W94219  31.598  38.032  10.630
25747W        W94220  32.441  13.795   4.788
25748W        W94221   4.705  28.522  12.840
25749W        W94222  26.682  20.153   1.262
25750W        W94223  29.559  43.495  14.856
25751W        W94224  10.230   3.771   0.793
25752W        W94225  24.229  36.067  14.965
25753W        W94226   7.821  12.610   5.185
25754W        W94227  43.464  37.559   1.739
25755W        W94228  23.563  36.062  13.836
25756W        W94229  17.639   5.239  12.904
25757W        W94230  25.083  36.884  12.985
25758W        W94231  23.132   0.843  14.878
25759W        W94232   1.770  42.801   2.189
25760W        W94233  24.691   6.736  10.506
25761W        W94234  36.528  39.973   4.178
25762W        W94235   9.376   1.851  12.952
25763W        W94236  19.085  23.241  13.331
25764W        W94237  42.441  15.272   3.284
25765W        W94238  34.111   7.677  12.052
25766W        W94239   9.854  33.445   1.864
25767W        W94240  29.964  31.016   2.209
25768W        W94241  34.540  21.616  11.382
25769W        W94242  25.686  34.081   4.263
25770W        W94243   8.309  13.115   0.816
25771W        W94244  38.860   7.310  11.948
25772W        W94245  41.413  13.701   1.834
25773W        W94246  14.181  37.510  11.992
25774W        W94247  20.637  34.944   1.234
25775W        W94248  16.218  21.120  12.827
25776W        W94249  12.250   4.748   0.442
25777W        W94250  23.019  11.841  13.929
25778W        W94251  25.003  12.167   3.696
25779W        W94252   0.248   4.421   1.355
25780W        W94253  18.574  44.992   1.317
25781W        W94254   0.785   5.702  12.450
25782W        W94255   8.764  24.110   2.353
25783W        W94256  33.412  32.056   3.310
25784W        W94257   8.744  39.379   2.410
25785W        W94258  22.549  12.786   4.311
25786W        W94259  37.857  35.396   1.327
25787W        W94260  28.026  22.054   3.261
25788W        W94261  12.285  36.889  11.482
25789W        W94262  19.053  43.890  10.514
25790W        W94263   5.863  30.078  12.932
25791W        W94264  22.218  23.123  13.537
25792W        W94265  15.583   7.756   3.768
25793W        W94266  36.393   9.825  14.495
25794W        W94267   5.302  27.108   3.667
25795W        W94268  18.279   4.918   0.815
25796W        W94269  26.693   1.740  11.870
25797W        W94270  12.759   2.796   3.769
25798W        W94271  25.487   1.954  14.786
25799W        W94272  29.982   8.720  14.468
25800W        W94273  22.547  43.945  13.395
25801W        W94274  18.678  41.390  11.606
25802W        W94275  11.317  20.530   2.322
25803W        W94276  34.406  16.163   3.669
25804W        W94277  15.803   1.300   4.814
25805W        W94278  40.809  16.114   0.247
25806W        W94279  21.134   6.795   4.615
25807W        W94280  12.679  23.007   3.804
25808W        W94281  12.198  28.624  13.841
25809W        W94282  11.680  27.065  14.768
25810W        W94283  36.877  13.270   2.821
25811W        W94284   0.803  15.754  10.582
25812W        W94285  42.957   1.428  11.580
25813W        W94286  44.324  18.603  14.942
25814W        W94287  24.603   1.309  14.313
25815W        W94288  39.922  11.244  10.537
25816W        W94289  34.032  37.399   1.727
25817W        W94290  41.865  38.958  12.048
25818W        W94291  25.056  40.354  11.472
25819W        W94292  31.033  18.088  14.984
25820W        W94293  39.469  11.866  10.109
25821W        W94294  30.936  14.190  12.949
25822W        W94295  16.243   0.901  13.420
25823W        W94296  23.010  20.618  10.529
25824W        W94297  14.611   4.333   1.252
25825W        W94298  27.465  20.199  11.079
25826W        W94299  34.569  39.942  12.013
25827W        W94300  42.998  35.917  12.877
25828W        W94301   6.712  22.577  10.990
25829W        W94302  34.025   1.267  12.497
25830W        W94303  20.751  30.083   2.197
25831W        W94304  20.664  16.709  12.969
25832W        W94305  13.128  38.068   4.757
25833W        W94306  29.616  40.447   2.303
25834W        W94307   7.685  25.213   3.748
25835W        W94308  11.350  22.664  11.119
25836W        W94309  21.588   9.882   1.242
25837W        W94310  20.711  18.117   3.650
25838W        W94311  18.279   0.748  11.937
25839W        W94312  17.583  37.014  12.408
25840W        W94313   8.801  16.262  14.383
25841W        W94314   0.446  36.884   0.463
25842W        W94315  40.006   0.902  14.779
25843W        W94316  43.503  20.194   4.755
25844W        W94317  30.502  23.535  11.443
25845W        W94318  36.403  14.625  11.858
25846W        W94319  17.600  10.754   4.599
25847W        W94320  12.309  25.092  11.579
25848W        W94321  34.531  17.193  13.395
25849W        W94322  16.217  12.305   4.195
25850W        W94323  23.075   1.853   0.358
25851W        W94324   2.300   7.175  10.106
25852W        W94325  22.509  11.182   3.738
25853W        W94326  12.660  21.748   0.932
25854W        W94327  27.600  27.652   0.958
25855W        W94328  14.708  35.508  10.554
25856W        W94329  32.892  41.495  13.496
25857W        W94330  27.472  38.436   2.396
25858W        W94331  24.568   5.319   3.732
25859W        W94332  20.526  26.613  14.307
25860W        W94333  37.353   1.782   0.959
25861W        W94334  40.383  41.503  11.581
25862W        W94335  16.748  22.195  10.554
25863W        W94336   3.939  40.894  11.432
25864W        W94337  32.496  29.608  12.850
25865W        W94338  29.026  14.790  12.535
25866W        W94339   6.772   9.255   0.252
25867W        W94340  22.125  42.297  14.008
25868W        W94341  26.660   0.763   2.397
25869W        W94342   1.293  43.388   1.896
25870W        W94343  22.208   1.977   2.283
25871W        W94344   1.760  26.465  10.920
25872W        W94345  42.520  19.609   1.450
25873W        W94346   1.819  31.129  12.560
25874W        W94347  36.508  42.960  13.420
25875W        W94348  19.549  11.642  11.423
25876W        W94349  39.050  44.938   0.879
25877W        W94350  11.136  34.416   5.767
25878W        W94351  20.621  43.774   2.853
25879W        W94352  18.153  11.709  13.519
25880W        W94353   8.376  41.830  10.511
25881W        W94354  34.991  17.580   4.247
25882W        W94355   5.255  36.440  12.438
25883W        W94356  10.877  34.465   3.712
25884W        W94357  39.386  35.446  14.997
25885W        W94358  36.582   0.947   2.310
25886W        W94359  24.641  32.564  14.493
25887W        W94360   2.750  42.880   1.210
25888W        W94361  16.682  24.976   1.320
25889W        W94362  41.385  43.411   3.725
25890W        W94363  16.236   8.834   0.821
25891W        W94364   6.311  40.463   1.894
25892W        W94365  26.505   3.832   1.426
25893W        W94366  21.742   5.431  13.490
25894W        W94367  15.808   4.922   3.335
25895W        W94368  14.114  21.170   2.235
25896W        W94369   8.780  39.991  13.024
25897W        W94370  11.333  20.753  12.572
25898W        W94371  14.832   4.943  11.943
25899W        W94372  23.041   8.667   4.281
25900W        W94373  14.165  27.456  10.414
25901W        W94374  26.174  44.920  11.042
25902W        W94375   9.353   5.384  13.826
25903W        W94376   4.374  30.576  10.926
25904W        W94377  17.657   4.720   1.326
25905W        W94378  26.164   7.400  11.888
25906W        W94379  42.294  41.519  11.085
25907W        W94380  14.639  22.603   1.834
25908W        W94381  10.701  14.690   3.334
25909W        W94382  36.033  23.529  10.585
25910W        W94383  31.559  30.005   1.320
25911W        W94384  21.702  13.641  11.073
25912W        W94385   3.377  17.246   4.783
25913W        W94386  35.394  37.972  14.930
25914W        W94387  21.636  30.511  14.002
25915W        W94388  25.654   4.733  13.033
25916W        W94389  11.702  15.799  14.908
25917W        W94390  19.566  35.451  12.007
25918W        W94391  13.226   1.454   1.222
25919W        W94392   9.208  12.337   3.253
25920W        W94393   8.713   3.369   3.841
25921W        W94394   9.249  25.486  14.867
25922W        W94395  27.152  39.940  11.441
25923W        W94396  41.952  33.078  13.052
25924W        W94397  16.109  28.045  10.607
25925W        W94398  20.268  42.471   4.721
25926W        W94399  34.614   5.227  14.307
25927W        W94400   1.737  42.938   3.709
25928W        W94401   1.896  24.022   5.248
25929W        W94402   9.686  19.167   3.349
25930W        W94403  18.787  33.036   2.723
25931W        W94404   6.413   6.321   2.727
25932W        W94405  29.550  29.130  12.484
25933W        W94406  14.166  44.993  12.509
25934W        W94407  27.962  29.468  11.416
25935W        W94408  36.431  20.265  14.454
25936W        W94409  16.576  20.547  11.949
25937W        W94410   5.363  31.620   0.770
25938W        W94411  15.709  40.829  13.495
25939W        W94412  18.091  24.643   4.307
25940W        W94413  44.007  40.548   2.706
25941W        W94414   8.771   9.856  12.062
25942W        W94415   1.738  13.264   4.680
25943W        W94416  28.591   4.732  12.893
25944W        W94417   9.249  26.189  10.561
25945W        W94418  14.770  44.929   3.639
25946W        W94419  43.007  32.001  12.369
25947W        W94420   6.330  27.134  10.635
25948W        W94421  14.702  15.234  11.571
25949W        W94422  13.254  10.316   0.400
25950W        W94423  16.113  42.334  12.963
25951W        W94424  44.377  13.718   0.318
25952W        W94425  17.602  11.223  13.418
25953W        W94426  32.457  43.416  10.434
25954W        W94427  11.790  31.096   1.780
25955W        W94428   9.390  34.572  13.464
25956W        W94429  40.430   7.381   4.123
25957W        W94430  12.329  25.005   3.733
25958W        W94431  43.401   2.777  12.925
25959W        W94432  20.709   7.771   1.696
25960W        W94433  35.024  39.016  11.931
25961W        W94434   2.966  24.038   2.259
25962W        W94435  13.670  10.194  11.942
25963W        W94436  26.587  28.479  11.457
25964W        W94437  30.547  29.929  14.491
25965W        W94438  41.963  21.646  13.869
25966W        W94439  18.632  38.355  10.947
25967W        W94440  12.695  16.075   2.183
25968W        W94441  19.604   0.293  14.922
25969W        W94442  30.120  30.984   3.258
25970W        W94443  35.009  11.156   2.317
25971W        W94444  20.131   6.210  12.529
25972W        W94445   3.293  14.758   1.922
25973W        W94446  36.395  25.653  10.569
25974W        W94447  16.691   5.375   0.919
25975W        W94448  27.545  21.179   0.426
25976W        W94449  14.598  40.481  12.345
25977W        W94450   0.311  20.710  14.899
25978W        W94451   1.856   3.445   0.465
25979W        W94452   5.304  11.173   4.618
25980W        W94453  22.679   2.724  12.828
25981W        W94454   6.321  39.896  11.894
25982W        W94455   6.400   0.266   2.247
25983W        W94456   1.483  17.298  14.845
25984W        W94457  32.941  15.758   2.668
25985W        W94458  33.057   4.702  13.446
25986W        W94459   1.462  10.293  14.379
25987W        W94460   8.666  21.226   0.310
25988W        W94461  31.022  30.986  12.876
25989W        W94462  13.271   9.298   2.750
25990W        W94463   4.254  19.776   4.746
25991W        W94464  17.561  41.804  11.563
25992W        W94465  19.761   9.686  12.483
25993W        W94466  30.044  11.725  14.464
25994W        W94467  13.266  44.445   2.241
25995W        W94468   4.938   1.474  13.358
25996W        W94469  21.017  16.680   3.325
25997W        W94470   7.795   3.797  11.125
25998W        W94471   0.478   2.720   2.746
25999W        W94472  37.005  34.560   2.697
26000W        W94473  36.573  25.550  14.998
26001W        W94474   5.372  13.762   4.764
26002W        W94475  28.663  40.012   0.359
26003W        W94476  43.443  37.582  11.439
26004W        W94477  10.381   8.812  13.975
26005W        W94478  16.749   9.180  10.915
26006W        W94479  42.816  40.867  12.883
26007W        W94480  12.294   0.935  13.309
26008W        W94481  12.812  38.424   0.449
26009W        W94482   3.338   9.254   2.764
26010W        W94483  31.001   7.865   1.292
26011W        W94484  26.549  15.119  12.901
26012W        W94485  22.193  10.232  11.038
26013W        W94486  22.587  26.967  10.581
26014W        W94487  37.501   1.912  13.049
26015W        W94488  26.124  42.336   2.847
26016W        W94489  27.553  30.548  14.370
26017W        W94490   7.338  23.139   0.893
26018W        W94491  40.822  14.647  12.372
26019W        W94492   0.351  18.191   1.283
26020W        W94493   9.246   1.833   1.442
26021W        W94494  40.980  34.465  13.823
26022W        W94495  25.707  42.905   1.835
26023W        W94496  22.533  37.890   3.341
26024W        W94497  18.100   0.950   4.256
26025W        W94498  40.965  41.338   1.923
26026W        W94499  28.477  22.591  13.051
26027W        W94500   9.215  37.356  10.905
26028W        W94501  23.491   5.434   4.156
26029W        W94502  14.716  29.520  13.511
26030W        W94503  41.448   3.855  13.942
26031W        W94504  36.919  34.002  10.546
26032W        W94505  34.865  39.934  10.029
26033W        W94506  21.698  24.224  13.889
26034W        W94507  41.934  41.894  12.386
26035W        W94508   5.711  39.003   4.325
26036W        W94509   2.445  25.066  11.976
26037W        W94510  44.850  25.966  13.415
26038W        W94511   2.313  43.811   4.689
26039W        W94512  23.022  37.453   1.219
26040W        W94513  22.179  41.983  11.855
26041W        W94514  44.793  18.095   4.834
26042W        W94515   9.739  20.541   3.321
26043W        W94516   3.768   7.398   0.777
26044W        W94517  25.159  34.877  10.513
26045W        W94518  17.147  28.116   4.827
26046W        W94519  26.059  42.932   4.204
26047W        W94520  31.976  25.987   0.290
26048W        W94521  23.038  17.196  11.457
26049W        W94522   5.221  17.227  12.091
26050W        W94523  12.789   5.704   2.807
26051W        W94524   8.404  13.795   1.227
26052W        W94525  13.190  42.419   2.760
26053W        W94526  11.753  21.166   3.812
26054W        W94527   9.378  18.728   2.398
26055W        W94528  18.128   9.832  13.901
26056W        W94529  29.458  33.451  12.045
26057W        W94530  24.182  11.196   4.146
26058W        W94531  13.235  38.498  12.390
26059W        W94532  25.206  34.601   4.349
26060W        W94533  25.679  14.663  11.600
26061W        W94534  34.454  16.786  10.405
26062W        W94535  26.570  38.833  12.575
26063W        W94536   9.722   5.291  11.898
26064W        W94537  41.944  17.607   4.828
26065W        W94538  44.930  11.736  12.418
26066W        W94539   2.409  33.433   4.181
26067W        W94540   9.281  24.636  12.001
26068W        W94541   6.276  31.139   0.957
26069W        W94542  13.131  37.891   1.860
26070W        W94543   2.921  14.208  13.933
26071W        W94544   6.794  16.217  13.518
26072W        W94545   4.917   5.437  11.436
26073W        W94546  30.914  16.566   2.411
26074W        W94547  34.066   7.355   5.194
26075W        W94548  27.580  27.627   4.113
26076W        W94549  27.684   6.695   2.375
26077W        W94550   2.924  42.784   3.387
26078W        W94551  18.182  42.930  12.473
26079W        W94552  11.207  24.129   4.193
26080W        W94553   3.795  30.590  14.458
26081W        W94554  10.730   3.874  14.984
26082W        W94555  27.692  12.615   2.751
26083W        W94556   0.346  27.500  13.049
26084W        W94557  31.623  28.541   0.798
26085W        W94558  11.773  22.623  11.095
26086W        W94559   2.362  34.951   4.805
26087W        W94560  23.202  41.409  13.821
26088W        W94561  37.355  11.370   1.742
26089W        W94562  31.605   7.813   0.789
26090W        W94563   1.854  29.951  11.375
26091W        W94564   0.262   4.838   0.777
26092W        W94565   8.340  41.382  12.931
26093W        W94566   1.953   0.818  14.365
26094W        W94567  16.746  12.766   1.846
26095W        W94568  32.529  31.443  10.586
26096W        W94569  35.475  19.064   3.327
26097W        W94570  38.448  22.079   4.751
26098W        W94571  16.757  32.962   0.385
26099W        W94572   5.412  41.348  11.488
26100W        W94573   6.722  24.189  13.898
26101W        W94574  35.407   2.804   3.286
26102W        W94575  41.807  25.138   4.831
26103W        W94576  35.083  22.718   5.283
26104W        W94577  28.078  33.381   3.203
26105W        W94578  31.994  44.383  10.584
26106W        W94579  23.693  35.363   3.870
26107W        W94580   5.888  18.625  13.369
26108W        W94581  42.935  39.523  10.608
26109W        W94582   7.213   1.910   2.793
26110W        W94583   7.289  40.385  12.842
26111W        W94584  19.570  40.309   1.320
26112W        W94585  22.640   3.950  13.362
26113W        W94586  29.069  22.184  14.295
26114W        W94587  23.554  38.335  13.061
26115W        W94588  29.623  40.051  11.072
26116W        W94589  34.955  30.014   4.822
26117W        W94590   8.782  38.029  13.857
26118W        W94591   6.423  35.378  14.411
26119W        W94592  43.488  15.774   4.814
26120W        W94593   7.256  17.565  13.511
26121W        W94594   7.716  31.496   1.370
26122W        W94595   0.438  23.725   2.898
26123W        W94596   1.342   4.698   4.667
26124W        W94597  39.429  13.794  12.974
26125W        W94598   0.333  44.796   0.739
26126W        W94599  17.733   6.754  14.779
26127W        W94600   5.837   4.759  14.781
26128W        W94601   5.799  33.956  10.593
26129W        W94602  31.443  26.047   2.848
26130W        W94603  35.054  33.487   0.428
26131W        W94604  32.551   0.248  12.068
26132W        W94605  10.206  27.688  12.399
26133W        W94606  27.148  13.672   1.917
26134W        W94607  12.639  33.995  14.294
26135W        W94608  29.657   2.889  11.907
26136W        W94609  18.134  37.358  11.381
26137W        W94610   0.920  30.632  11.418
26138W        W94611  15.280  39.993  14.786
26139W        W94612  17.293  43.365  14.793
26140W        W94613  44.861  31.038  10.988
26141W        W94614  10.668  26.960  10.962
26142W        W94615  19.701  26.999   1.288
26143W        W94616  30.158   6.192  11.988
26144W        W94617  16.798   3.784   2.671
26145W        W94618  15.233  29.922   1.414
26146W        W94619   6.690  32.541   0.964
26147W        W94620  31.078   8.279   0.303
26148W        W94621  11.187  36.501   4.736
26149W        W94622  11.151  14.274   4.148
26150W        W94623   6.397  10.250  14.489
26151W        W94624  27.683  13.138   3.307
26152W        W94625   4.888  16.138  12.390
26153W        W94626   8.376  44.392  14.952
26154W        W94627   0.937   3.316  10.546
26155W        W94628  21.742  11.198   2.856
26156W        W94629  24.694  29.568  13.329
26157W        W94630   3.391  23.639  12.864
26158W        W94631  16.076  26.683   4.267
26159W        W94632  27.005  20.553  14.994
26160W        W94633  17.103  33.018  13.967
26161W        W94634   2.433  34.579   1.338
26162W        W94635  31.545   3.774   3.747
26163W        W94636   6.737  11.250   1.273
26164W        W94637  24.027  26.060   9.624
26165W        W94638  23.130  12.626  11.466
26166W        W94639  12.157  41.023  10.624
26167W        W94640   7.190  37.841  13.959
26168W        W94641   9.761  36.871   4.822
26169W        W94642  40.338   7.248  14.456
26170W        W94643   4.300  42.863   1.752
26171W        W94644  29.942  42.465  14.482
26172W        W94645  21.752  38.944  10.631
26173W        W94646  42.490  19.282  13.535
26174W        W94647  28.932  43.848   2.331
26175W        W94648   0.332  38.885  11.939
26176W        W94649  20.036  23.509  14.987
26177W        W94650   4.901  11.236  12.071
26178W        W94651   7.182  15.794   2.806
26179W        W94652  12.193  10.241  12.890
26180W        W94653  44.892  32.028  10.073
26181W        W94654  31.406   8.404  10.411
26182W        W94655  16.796   8.739  12.537
26183W        W94656  37.000  38.331  14.874
26184W        W94657   8.871  32.523   0.261
26185W        W94658  26.474   3.845  10.436
26186W        W94659  24.003  11.750   2.775
26187W        W94660  22.673  27.040   2.353
26188W        W94661  34.371  32.062   0.380
26189W        W94662  26.016   3.292  10.565
26190W        W94663  12.759  42.312  14.896
26191W        W94664  22.237   8.379  13.054
26192W        W94665  42.398  26.687   1.762
26193W        W94666  41.955   6.322   0.328
26194W        W94667  21.234  42.429   4.133
26195W        W94668  37.893  15.090   4.720
26196W        W94669  43.789  37.380  12.835
26197W        W94670  31.075  34.503  10.435
26198W        W94671   4.430  21.707   3.832
26199W        W94672   5.928  39.384   2.198
26200W        W94673  22.059  22.026   1.313
26201W        W94674  12.360  34.996  13.535
26202W        W94675  15.176  24.043   4.697
26203W        W94676  19.196  11.634  11.519
26204W        W94677   8.759  34.907  14.957
26205W        W94678  43.881  23.552  10.409
26206W        W94679  19.594   7.768   4.251
26207W        W94680  17.304  23.655  11.895
26208W        W94681  32.974  33.448  12.856
26209W        W94682  10.729  27.583  12.072
26210W        W94683  44.418  26.957   1.924
26211W        W94684   0.896  28.968  14.967
26212W        W94685  42.782  28.623  13.963
26213W        W94686  30.080   7.301   4.682
26214W        W94687   2.797  36.590   3.304
26215W        W94688  13.206  25.988   2.782
26216W        W94689  43.351  11.825   4.720
26217W        W94690  15.610   7.872   1.761
26218W        W94691   4.850  41.889   4.194
26219W        W94692  26.205  22.246  11.595
26220W        W94693  19.589   3.799  14.962
26221W        W94694  11.703  15.675   5.231
26222W        W94695   5.374  13.621  11.075
26223W        W94696  18.651  29.586   0.386
26224W        W94697  12.358   4.731  12.095
26225W        W94698   2.430   5.888   3.706
26226W        W94699  35.996  44.269  12.505
26227W        W94700  14.780  14.172  11.553
26228W        W94701   3.779  26.644   3.790
26229W        W94702  24.688  44.434  10.091
26230W        W94703  17.286  27.178  12.018
26231W        W94704  11.209   2.431  10.597
26232W        W94705  42.799  31.511  13.466
26233W        W94706  14.783   9.798  11.383
26234W        W94707  29.009  18.638  13.416
26235W        W94708  41.806   8.698   4.750
26236W        W94709  42.989  23.585   3.633
26237W        W94710   4.386  35.385  10.967
26238W        W94711  16.620  40.971   3.805
26239W        W94712  14.696  30.982  13.827
26240W        W94713  31.632  11.224  13.465
26241W        W94714   1.936  12.216  14.280
26242W        W94715  28.083  17.797  13.381
26243W        W94716  23.583  36.401  13.434
26244W        W94717  33.390  21.589  11.117
26245W        W94718  29.151  20.552   2.890
26246W        W94719  41.483  25.181   3.162
26247W        W94720   5.826  11.137  14.324
26248W        W94721   9.751  39.391   3.713
26249W        W94722   9.792  31.647   4.747
26250W        W94723   8.304  43.870   3.336
26251W        W94724   2.869   1.739   1.419
26252W        W94725  32.593  28.976  11.566
26253W        W94726  40.884  24.197  10.917
26254W        W94727  20.552  21.717   3.179
26255W        W94728  29.560  23.168  14.880
26256W        W94729  18.225  28.434  11.425
26257W        W94730  20.614  14.775   4.618
26258W        W94731  43.274  40.524  11.119
26259W        W94732  32.042  12.286   0.891
26260W        W94733  44.391  22.199  10.912
26261W        W94734  27.130  43.839   5.257
26262W        W94735  11.315   5.354   4.774
26263W        W94736  25.584  14.115  10.945
26264W        W94737  19.586   4.762   0.371
26265W        W94738  14.644  19.780   3.264
26266W        W94739   7.815  11.622   1.372
26267W        W94740  14.126  32.544   4.155
26268W        W94741  10.341   1.398   4.150
26269W        W94742  11.198  44.970   1.711
26270W        W94743  26.493  32.965  10.564
26271W        W94744  11.139  40.879   3.302
26272W        W94745   0.881   8.884   4.164
26273W        W94746  27.460   9.872   1.893
26274W        W94747  41.392   4.905  12.083
26275W        W94748   1.455   9.734  12.529
26276W        W94749  42.866  44.963  13.053
26277W        W94750  35.473  37.438   3.707
26278W        W94751   4.774  11.296   1.806
26279W        W94752  33.046  28.995   4.144
26280W        W94753  17.283  20.682   0.429
26281W        W94754  31.638  41.316  10.606
26282W        W94755  14.694  36.079  11.529
26283W        W94756  29.550  38.560  14.332
26284W        W94757  23.046  22.040  12.508
26285W        W94758  42.946  37.378  12.890
26286W        W94759   4.806  24.699   2.409
26287W        W94760  12.760  37.385  12.571
26288W        W94761   3.324  38.389   1.745
26289W        W94762  29.653  32.072   3.260
26290W        W94763  31.430   1.881   4.646
26291W        W94764  19.761  17.075  12.085
26292W        W94765   6.785  29.517   2.743
26293W        W94766  26.472  24.636   3.220
26294W        W94767   1.969  27.129   1.289
26295W        W94768  32.409  25.493   1.394
26296W        W94769  13.746  12.128   2.410
26297W        W94770  10.661   9.668  14.932
26298W        W94771  16.688  11.830  10.549
26299W        W94772  13.703  38.844  14.501
26300W        W94773  22.523  37.886   0.403
26301W        W94774  19.694  36.383  14.941
26302W        W94775  24.215  17.576   1.929
26303W        W94776  12.204   8.218   2.393
26304W        W94777  38.463  14.120   1.324
26305W        W94778   6.896  22.196   0.270
26306W        W94779  22.626   9.316  12.534
26307W        W94780  38.964  35.955   3.352
26308W        W94781  10.751  41.855   4.716
26309W        W94782  43.021  27.044   0.350
26310W        W94783  38.966  21.714   1.288
26311W        W94784   1.254  18.164   1.824
26312W        W94785  22.597   4.807   1.239
26313W        W94786  42.318  34.903  11.467
26314W        W94787  19.049   0.857   2.240
26315W        W94788  20.591   0.354   2.214
26316W        W94789   6.341  39.536   4.238
26317W        W94790  25.615   9.689  13.509
26318W        W94791   5.915  16.645  13.360
26319W        W94792  13.603   7.227  12.090
26320W        W94793  44.843  41.300  11.445
26321W        W94794   0.442  23.576   3.829
26322W        W94795   5.284  44.495  10.560
26323W        W94796  37.572  30.417  12.490
26324W        W94797  13.227  37.470   0.944
26325W        W94798  24.128   2.300   0.481
26326W        W94799  32.422  23.234  13.460
26327W        W94800  21.626   3.329  10.622
26328W        W94801  36.983  39.339   0.836
26329W        W94802  11.290  19.202   4.698
26330W        W94803  13.139  11.285   3.773
26331W        W94804  18.169   4.835   1.916
26332W        W94805  15.745   2.960  13.905
26333W        W94806  10.860  42.784  12.370
26334W        W94807   4.345  29.025  11.543
26335W        W94808  44.414  44.820  11.425
26336W        W94809  39.047   6.736   2.272
26337W        W94810  40.852  16.712   2.791
26338W        W94811  39.544   1.310   0.355
26339W        W94812  40.311   8.721  13.357
26340W        W94813   5.705   7.755  14.964
26341W        W94814  42.803  35.981  10.481
26342W        W94815  42.021  17.166  11.926
26343W        W94816  21.142  43.454  14.997
26344W        W94817   6.728  15.643  11.063
26345W        W94818  18.683  37.382  14.974
26346W        W94819  37.548  40.463  11.568
26347W        W94820  15.287  27.096  12.422
26348W        W94821   2.368  17.193  11.924
26349W        W94822  27.106  21.732  11.085
26350W        W94823  28.045  38.441  12.368
26351W        W94824  33.597  21.665  12.526
26352W        W94825  20.085  25.209   2.798
26353W        W94826  36.938  35.870  13.468
26354W        W94827  12.256  41.322  12.510
26355W        W94828  40.831  26.088  11.903
26356W        W94829  24.006  39.812   1.803
26357W        W94830  11.310  11.152  14.356
26358W        W94831  44.939  38.048   4.254
26359W        W94832  14.289  28.167   3.739
26360W        W94833  19.550  29.533  13.447
26361W        W94834  41.291  39.891   0.853
26362W        W94835   3.268   2.280   4.610
26363W        W94836  37.532  42.346  13.972
26364W        W94837  30.060   1.338   3.332
26365W        W94838   7.185  41.864   1.766
26366W        W94839   6.732  28.553  12.872
26367W        W94840  30.120   5.899   1.330
26368W        W94841  19.126  41.433   2.374
26369W        W94842  40.443  24.152   3.853
26370W        W94843  17.566  11.772   0.791
26371W        W94844  32.886   3.718   2.419
26372W        W94845  22.032   5.840  10.942
26373W        W94846  16.113  28.625  13.536
26374W        W94847  26.478  40.506  12.940
26375W        W94848   6.356  13.655   5.687
26376W        W94849  37.994  24.512   3.749
26377W        W94850  13.123  20.532  13.894
26378W        W94851  29.927  19.673  13.832
26379W        W94852  23.037  33.555  10.576
26380W        W94853  11.739  36.529   0.387
26381W        W94854   2.441  15.317   2.801
26382W        W94855  23.133   1.292   1.754
26383W        W94856  36.563  26.186   0.304
26384W        W94857  40.418  24.525  11.065
26385W        W94858  43.945  36.971  13.022
26386W        W94859  35.048  14.132  13.827
26387W        W94860   3.808  41.944   1.813
26388W        W94861  19.780  34.397  11.060
26389W        W94862  36.539  41.925  14.784
26390W        W94863   4.395  18.684  14.019
26391W        W94864  17.719  39.541   4.159
26392W        W94865   0.253  38.499   1.428
26393W        W94866  16.790  26.571  13.440
26394W        W94867   4.374  27.688  12.495
26395W        W94868   7.402  24.653  10.951
26396W        W94869  20.761  25.020  12.545
26397W        W94870   0.914  33.127   2.860
26398W        W94871  23.032  25.061   4.264
26399W        W94872  16.612  25.997  11.871
26400W        W94873  40.319  37.418  13.796
26401W        W94874   6.254   1.257  11.049
26402W        W94875   0.255   8.353   4.204
26403W        W94876  30.549  11.638  12.419
26404W        W94877   5.846  22.242  14.875
26405W        W94878   6.203  42.830   2.714
26406W        W94879  28.065  44.333   3.758
26407W        W94880   2.931   1.379  13.408
26408W        W94881  17.101  20.572   2.765
26409W        W94882  11.299   4.764  13.976
26410W        W94883  39.837   0.388  13.008
26411W        W94884   7.718  18.557  11.413
26412W        W94885  34.064  35.435  10.937
26413W        W94886  42.516   1.831   4.671
26414W        W94887  24.606   2.300  14.333
26415W        W94888  20.274  31.139  12.981
26416W        W94889  43.862   5.892   3.696
26417W        W94890  19.588  19.638  11.061
26418W        W94891  13.253  32.952   1.730
26419W        W94892  40.360  11.321  12.858
26420W        W94893   7.385  40.979  11.105
26421W        W94894  18.080   9.865   0.933
26422W        W94895  33.081  17.211  14.896
26423W        W94896  11.710  40.500   3.744
26424W        W94897  17.160  37.511  14.865
26425W        W94898  10.308  11.830  13.844
26426W        W94899  37.491   1.368   4.775
26427W        W94900  16.079  29.126   0.462
26428W        W94901  11.796  11.642  13.995
26429W        W94902  11.756  16.798   3.334
26430W        W94903  27.625  32.960   0.403
26431W        W94904  37.544  25.158  13.993
26432W        W94905  21.250  34.109  13.534
26433W        W94906  20.560  20.647   2.818
26434W        W94907  22.530  23.596  10.944
26435W        W94908  19.735  41.795  10.589
26436W        W94909  33.936  36.068   1.743
26437W        W94910   0.477  19.616   0.470
26438W        W94911   7.861  14.786   1.905
26439W        W94912  17.242  21.159  11.572
26440W        W94913  22.020  21.161  10.978
26441W        W94914  35.036  38.421   3.845
26442W        W94915  32.136  19.677   0.385
26443W        W94916  38.832  35.402  11.513
26444W        W94917   2.945   9.327   1.775
26445W        W94918  42.514  42.966   1.723
26446W        W94919  20.622  10.699   0.791
26447W        W94920  18.249  22.008  10.936
26448W        W94921  14.167  38.532  11.435
26449W        W94922  39.017   7.315   2.265
26450W        W94923  23.031  35.029   1.320
26451W        W94924  39.360  38.352  14.030
26452W        W94925  35.898  44.863  12.391
26453W        W94926  12.630  41.921   2.810
26454W        W94927  14.716  43.004   2.366
26455W        W94928  43.403  37.899   4.282
26456W        W94929  25.174   2.301   1.882
26457W        W94930   6.835  24.694  13.442
26458W        W94931   3.792  20.646  12.555
26459W        W94932  12.263  44.810  13.923
26460W        W94933  29.557   7.202   0.734
26461W        W94934  18.189  16.223   3.668
26462W        W94935  39.878  27.001   0.309
26463W        W94936  14.667   4.822   2.868
26464W        W94937  26.629  17.095  11.954
26465W        W94938  20.268  14.312   2.409
26466W        W94939  33.908  39.477  14.277
26467W        W94940  31.556  23.221   1.914
26468W        W94941  41.016  29.433  13.450
26469W        W94942  30.500  35.567   2.286
26470W        W94943   3.893   6.909  14.364
26471W        W94944  29.618   6.771  10.912
26472W        W94945  29.514  21.078  14.771
26473W        W94946   5.887   2.256   1.930
26474W        W94947   3.929  44.957   3.368
26475W        W94948  39.403   7.862  13.366
26476W        W94949  19.154  22.223  13.388
26477W        W94950  36.468   9.749  12.404
26478W        W94951  41.974  37.410   3.667
26479W        W94952  26.975  37.413  14.499
26480W        W94953  12.721  38.066   1.216
26481W        W94954  33.594  14.797   0.777
26482W        W94955  42.519  31.432   1.857
26483W        W94956  10.144  24.029   3.274
26484W        W94957  23.504  41.487   4.261
26485W        W94958   4.424  32.588  11.989
26486W        W94959  28.054  39.332   3.357
26487W        W94960  12.807  18.571  11.386
26488W        W94961  31.486  18.742  10.507
26489W        W94962  17.760  38.002   1.405
26490W        W94963  26.474  21.722  13.001
26491W        W94964  32.614  37.582   3.651
26492W        W94965  29.965  28.107  10.610
26493W        W94966  13.683  19.070  13.010
26494W        W94967  28.174  23.724  12.949
26495W        W94968  44.479  23.733  11.087
26496W        W94969  28.163  41.412  10.414
26497W        W94970  15.793  36.865   2.234
26498W        W94971  14.776  15.203  14.291
26499W        W94972  26.530  18.163  13.940
26500W        W94973  29.516  24.622   2.341
26501W        W94974   3.806  24.535   1.394
26502W        W94975  20.672   4.239   1.259
26503W        W94976  30.926  33.502   1.865
26504W        W94977  10.146   5.390  11.488
26505W        W94978   3.799  33.966   1.369
26506W        W94979  17.262   1.380  10.985
26507W        W94980  41.353  31.614  13.492
26508W        W94981  23.715  19.129   2.344
26509W        W94982   1.914  42.344  14.983
26510W        W94983  35.951   9.651   0.897
26511W        W94984  22.526  36.029  12.000
26512W        W94985   2.842   7.728  10.518
26513W        W94986  36.857  32.038   3.746
26514W        W94987   5.908  12.190   1.253
26515W        W94988  24.090   6.289  10.919
26516W        W94989  11.238   6.746  12.941
26517W        W94990   5.419   7.276   3.784
26518W        W94991  30.113  18.710  11.952
26519W        W94992  39.871  40.460   4.174
26520W        W94993   2.764  11.670  12.843
26521W        W94994  38.408  27.675  10.468
26522W        W94995  30.505  40.047   3.332
26523W        W94996  28.980   9.774   4.805
26524W        W94997  28.005  18.766  12.834
26525W        W94998  25.698  36.016  13.341
26526W        W94999  27.468  32.420  11.101
26527W        W95000   8.282  14.639   1.376
26528W        W95001   4.738  10.350   4.820
26529W        W95002   7.836  24.592   0.387
26530W        W95003  19.635  30.633  14.856
26531W        W95004  21.722  27.527  10.422
26532W        W95005   5.762  27.966   0.250
26533W        W95006  27.575  31.627   0.752
26534W        W95007  23.125  30.141   2.739
26535W        W95008  20.127  18.657  14.903
26536W        W95009   9.151  44.460   1.225
26537W        W95010  44.933  22.151   1.734
26538W        W95011  44.448  42.328   2.348
26539W        W95012  13.650  40.340   0.782
26540W        W95013   3.722  14.790   9.965
26541W        W95014  39.422  30.618   4.780
26542W        W95015   2.803  36.550   3.838
26543W        W95016   4.760  35.498  11.950
26544W        W95017   5.893   1.872  11.954
26545W        W95018  43.857   9.274  13.374
26546W        W95019  33.120   1.966  13.927
26547W        W95020  17.243  31.139  12.962
26548W        W95021  15.284  21.719   3.821
26549W        W95022   5.293  26.687   2.857
26550W        W95023  23.075  41.979  12.943
26551W        W95024   8.188  22.176  14.851
26552W        W95025  33.534  18.260   3.203
26553W        W95026  38.025  43.293  13.004
26554W        W95027  35.587   3.232   3.292
26555W        W95028  34.386   5.767   3.815
26556W        W95029   4.800  33.107   1.728
26557W        W95030   0.838  37.506  12.360
26558W        W95031  42.397  43.917  14.416
26559W        W95032  42.309  41.965   4.133
26560W        W95033  40.898  11.805  11.509
26561W        W95034   1.776  15.138   3.218
26562W        W95035  14.099  37.033  14.348
26563W        W95036  19.142  10.329   1.431
26564W        W95037  13.347  10.661  13.928
26565W        W95038   1.891  34.608   1.246
26566W        W95039  12.614  17.135   1.253
26567W        W95040   8.395  31.422   2.794
26568W        W95041   2.366  30.436   0.451
26569W        W95042  29.032  23.654   2.794
26570W        W95043  23.132   2.745   3.269
26571W        W95044  40.517   8.782   0.451
26572W        W95045  44.410  31.582   0.945
26573W        W95046  29.043  33.980   4.304
26574W        W95047   1.253  15.748  14.768
26575W        W95048  17.079  27.562   2.383
26576W        W95049  27.468  39.520  13.818
26577W        W95050  10.735  31.601   3.635
26578W        W95051   3.361   4.427  10.442
26579W        W95052  32.438  37.000   3.819
26580W        W95053   3.932  40.924  12.385
26581W        W95054  12.128  16.231  11.123
26582W        W95055   8.275  12.664  10.951
26583W        W95056  36.984  11.280  14.387
26584W        W95057   8.304   5.423   9.551
26585W        W95058   8.792  12.699   4.652
26586W        W95059  30.099   4.238   0.432
26587W        W95060  29.478  39.814  14.912
26588W        W95061  29.065  12.134  11.493
26589W        W95062  31.460   8.803  13.334
26590W        W95063  26.184  29.167  13.464
26591W        W95064   2.831  31.074   4.697
26592W        W95065  10.747  44.461  11.970
26593W        W95066  40.969  35.032   2.777
26594W        W95067   2.289  15.822  13.323
26595W        W95068  37.339   1.465  12.830
26596W        W95069  21.755  36.904   4.276
26597W        W95070  44.457  26.020  13.982
26598W        W95071  44.769  32.443  12.462
26599W        W95072  18.274  37.441   2.668
26600W        W95073  22.081   2.400  14.492
26601W        W95074  18.613   0.754  14.922
26602W        W95075   1.918  10.270   0.822
26603W        W95076  39.043  16.740  14.790
26604W        W95077  34.899  31.425   4.682
26605W        W95078  44.977  39.488  13.867
26606W        W95079  16.788  21.547   1.381
26607W        W95080  12.193  36.053  10.955
26608W        W95081   1.353  37.849   2.201
26609W        W95082  22.186  26.658  12.914
26610W        W95083   1.243  10.834   1.336
26611W        W95084   8.857  26.172   0.935
26612W        W95085   3.273  11.845   3.260
26613W        W95086   0.398  34.938  11.089
26614W        W95087  20.590   7.357  10.528
26615W        W95088  43.382   8.865  12.492
26616W        W95089  16.284  16.239  10.908
26617W        W95090  39.423  41.027   0.398
26618W        W95091  28.482  40.850  13.881
26619W        W95092  22.654   5.774  11.081
26620W        W95093  13.601  24.525   2.787
26621W        W95094  10.735  13.114   4.755
26622W        W95095  44.297  11.353  14.924
26623W        W95096  20.724  39.379   4.636
26624W        W95097  44.361  38.960   3.342
26625W        W95098  39.972   1.463   1.884
26626W        W95099  28.146  35.424  11.951
26627W        W95100  18.148  20.594   2.847
26628W        W95101  38.035  19.250   4.339
26629W        W95102  24.534  36.421   1.337
26630W        W95103   4.939  13.327   0.845
26631W        W95104  41.804  20.685  13.447
26632W        W95105  34.572  43.481   1.801
26633W        W95106  41.516  23.666   2.738
26634W        W95107  29.458  15.173  10.607
26635W        W95108  17.293  38.512  11.118
26636W        W95109  29.976   6.747  11.429
26637W        W95110  29.955  34.073  14.310
26638W        W95111   6.190  36.859   0.255
26639W        W95112  28.574  23.205  14.458
26640W        W95113  20.721   5.844   4.708
26641W        W95114  10.331  23.634  12.011
26642W        W95115   8.317  27.168  11.520
26643W        W95116  13.624   2.365  14.895
26644W        W95117  44.436  42.983   2.661
26645W        W95118  19.603  40.471  12.858
26646W        W95119   9.663  36.973  10.898
26647W        W95120  43.509  15.208   4.311
26648W        W95121  33.406  21.076  13.452
26649W        W95122  25.496  37.077   2.866
26650W        W95123  32.940  20.647  13.063
26651W        W95124  24.705   9.672   0.293
26652W        W95125  19.665  40.828  10.628
26653W        W95126   6.197  40.337   2.712
26654W        W95127   7.749  10.202  11.113
26655W        W95128  39.523  11.709  14.365
26656W        W95129  19.152  37.902   3.335
26657W        W95130   6.302  27.534  12.998
26658W        W95131  19.195   6.409  10.500
26659W        W95132   2.271  21.527   1.400
26660W        W95133   3.778  38.527   0.274
26661W        W95134  36.928  35.521   0.373
26662W        W95135  18.243  33.597  13.462
26663W        W95136  10.185  31.932   4.345
26664W        W95137  24.079  38.851  11.962
26665W        W95138   0.791  32.937   3.229
26666W        W95139  40.839  39.450   4.723
26667W        W95140  41.314  37.439  13.885
26668W        W95141  32.113  33.511  10.411
26669W        W95142  42.297  13.288   4.719
26670W        W95143  18.652  27.446  12.403
26671W        W95144  11.773  29.071  13.343
26672W        W95145   4.795   8.313  11.979
26673W        W95146  28.021  20.063  11.379
26674W        W95147  30.460  11.638   0.923
26675W        W95148  40.805  25.101  12.908
26676W        W95149   3.806  35.430   4.837
26677W        W95150  11.256   6.876  13.833
26678W        W95151   6.281  38.521   2.674
26679W        W95152   9.252  17.075  12.074
26680W        W95153  15.259  43.378   0.728
26681W        W95154   1.279  25.650   2.224
26682W        W95155  42.322  43.859  14.833
26683W        W95156   0.419  36.873  14.836
26684W        W95157  34.490   4.880   1.331
26685W        W95158  38.507  39.530   1.745
26686W        W95159  24.670   7.304   0.260
26687W        W95160  25.197   8.729  10.491
26688W        W95161  18.183  20.667  11.553
26689W        W95162  27.660  30.473  11.029
26690W        W95163  42.975  15.127   4.827
26691W        W95164  39.905  24.080  14.316
26692W        W95165  10.747  21.547   2.820
26693W        W95166  17.231   5.912  12.429
26694W        W95167   0.778  39.849   0.335
26695W        W95168  19.681  14.200  14.019
26696W        W95169   3.814  23.194  14.893
26697W        W95170  36.002  42.884  12.537
26698W        W95171   6.914   6.791  13.382
26699W        W95172   1.956   7.345  14.454
26700W        W95173  20.156  41.932  14.022
26701W        W95174  34.377   9.776  10.470
26702W        W95175  22.660  19.196   1.834
26703W        W95176  18.699  27.534   4.736
26704W        W95177   9.302   1.904   3.694
26705W        W95178   8.814  34.437  13.886
26706W        W95179  33.439   9.780   1.261
26707W        W95180  35.942  39.833   4.186
26708W        W95181  23.560  25.982   1.930
26709W        W95182  27.637  25.132   2.816
26710W        W95183  22.203  12.355   3.338
26711W        W95184  26.155  29.628   2.730
26712W        W95185  38.870  39.529  13.312
26713W        W95186  42.433  37.923   3.798
26714W        W95187  20.737  24.038  14.001
26715W        W95188  26.990  21.703  12.974
26716W        W95189  19.780   8.220  12.834
26717W        W95190  43.461  15.682  13.016
26718W        W95191  14.790  24.050  14.797
26719W        W95192  43.389  24.517   2.337
26720W        W95193  17.614  30.524  11.576
26721W        W95194  27.471  21.634   0.859
26722W        W95195  26.951  14.621   3.290
26723W        W95196  32.113   5.202  13.335
26724W        W95197  24.185  12.812   2.367
26725W        W95198  38.524  28.564  10.554
26726W        W95199  26.148  16.577  14.014
26727W        W95200   4.881  25.572   3.296
26728W        W95201  11.339  36.991   2.418
26729W        W95202   4.309  26.087  13.465
26730W        W95203   2.819   9.162   4.676
26731W        W95204  43.420  36.365   4.139
26732W        W95205   9.688   0.837  13.924
26733W        W95206  36.442  34.609  14.391
26734W        W95207  24.050  35.978  13.822
26735W        W95208  23.520  37.528  10.980
26736W        W95209  19.534  29.531   5.112
26737W        W95210  44.900  26.183   0.302
26738W        W95211   6.217  24.570  11.040
26739W        W95212  29.021  17.273   1.751
26740W        W95213  18.194   6.910   1.694
26741W        W95214  26.143  16.304  13.905
26742W        W95215  35.971   0.453  12.902
26743W        W95216   7.316  19.777   2.671
26744W        W95217  11.680  44.879  13.846
26745W        W95218  39.329  39.339   3.209
26746W        W95219   7.183  33.077  10.430
26747W        W95220  17.149   8.228  13.878
26748W        W95221   1.803   0.315  11.492
26749W        W95222  13.285   5.900   0.830
26750W        W95223  27.111  38.072   3.181
26751W        W95224  37.914  13.286   0.757
26752W        W95225  44.861  14.736  13.051
26753W        W95226  11.334  19.688   0.812
26754W        W95227  41.402  39.506   0.413
26755W        W95228   7.878  36.054   3.165
26756W        W95229  13.756  16.251   4.813
26757W        W95230  27.029  20.080   1.858
26758W        W95231   5.363  28.016  12.963
26759W        W95232  41.381   4.768  10.461
26760W        W95233  33.953   4.858  10.157
26761W        W95234  42.957   6.808   4.186
26762W        W95235  43.325  37.957   1.923
26763W        W95236  43.980  22.576  14.785
26764W        W95237  11.756  10.635   3.685
26765W        W95238  10.285  16.249   0.768
26766W        W95239  23.993  42.892   3.729
26767W        W95240   4.870  27.110  10.442
26768W        W95241  44.844   0.423  14.463
26769W        W95242  27.656  13.180  12.837
26770W        W95243  39.937  14.744   4.754
26771W        W95244  28.185  38.557   2.236
26772W        W95245   4.412   5.374  10.417
26773W        W95246   8.769  21.156  10.499
26774W        W95247   4.715  17.662   3.350
26775W        W95248  36.551  12.223  12.341
26776W        W95249  34.531  14.185   3.259
26777W        W95250  19.676  30.514  13.434
26778W        W95251  40.893  29.489  12.865
26779W        W95252  18.639  15.186   1.781
26780W        W95253  12.333  27.052   1.765
26781W        W95254   7.311  14.116   1.311
26782W        W95255  11.287   7.865   2.341
26783W        W95256  10.308  34.941  10.003
26784W        W95257   8.722   7.675   0.955
26785W        W95258  14.261  20.563   1.390
26786W        W95259  14.603  42.964   5.267
26787W        W95260  38.384  40.855  14.891
26788W        W95261  44.962  16.726  11.949
26789W        W95262  13.620  27.164   4.310
26790W        W95263  26.502  26.956   1.695
26791W        W95264  27.680   1.961  14.836
26792W        W95265  16.306  37.468  11.505
26793W        W95266  30.615  14.314   0.946
26794W        W95267  40.353  20.053   0.799
26795W        W95268  42.519  29.039  14.918
26796W        W95269  35.437  18.616  11.444
26797W        W95270  23.517  33.524   3.153
26798W        W95271  30.015  18.261  13.931
26799W        W95272  29.069  19.540   2.307
26800W        W95273  15.782  39.880   5.289
26801W        W95274  36.424  42.313  13.852
26802W        W95275   8.686  32.462  13.063
26803W        W95276  38.855  34.005   2.806
26804W        W95277  14.317   8.741  10.545
26805W        W95278   8.297  24.615  11.493
26806W        W95279  19.092  42.808  14.876
26807W        W95280  43.927  44.796   2.850
26808W        W95281  17.610  26.147  11.427
26809W        W95282  29.946  32.910  13.335
26810W        W95283  26.962  30.917   1.828
26811W        W95284   4.296  24.712   3.695
26812W        W95285  44.916  35.078   2.719
26813W        W95286  20.657  29.467   0.312
26814W        W95287  32.047  25.487   3.719
26815W        W95288   8.802   4.699   5.228
26816W        W95289  26.675  26.042  14.943
26817W        W95290  29.474  19.644  11.022
26818W        W95291  38.894   9.375  12.519
26819W        W95292   8.339  25.977   0.290
26820W        W95293  40.810  20.533  12.384
26821W        W95294  14.109  22.658   3.365
26822W        W95295   2.265   7.887   4.787
26823W        W95296  19.266   3.358   0.922
26824W        W95297  14.109  19.535  11.060
26825W        W95298   4.423  29.633   3.355
26826W        W95299  10.230  31.507  11.907
26827W        W95300  44.789  44.407   2.218
26828W        W95301   5.731  25.672  11.955
26829W        W95302   0.466  11.197  13.875
26830W        W95303   0.847  28.152   3.688
26831W        W95304   7.178  10.365  14.997
26832W        W95305  43.440  39.466  10.470
26833W        W95306  40.317  18.122  14.366
26834W        W95307  39.422   8.336  12.918
26835W        W95308  38.070   0.846   4.757
26836W        W95309  18.617  43.010  10.621
26837W        W95310  17.187  43.324   1.732
26838W        W95311  22.635   3.335   3.154
26839W        W95312  31.409   2.385   0.275
26840W        W95313  16.771  18.647   0.835
26841W        W95314  27.000  28.961   2.885
26842W        W95315  19.232  15.268  13.503
26843W        W95316  20.064  10.831   3.352
26844W        W95317  40.915  27.002   2.751
26845W        W95318   6.196  22.558  10.141
26846W        W95319   9.648   9.284  12.908
26847W        W95320  11.172   8.167  12.566
26848W        W95321  29.597  12.360   3.182
26849W        W95322  12.819  10.811  13.943
26850W        W95323  39.323  22.533  11.550
26851W        W95324   7.826  24.211  10.934
26852W        W95325   6.216  31.931  12.568
26853W        W95326  35.024  32.953   2.300
26854W        W95327   6.759  16.671  11.869
26855W        W95328  44.327  32.561  12.093
26856W        W95329   9.875   6.397   3.700
26857W        W95330  18.548  39.896  14.829
26858W        W95331  18.216   9.373   2.241
26859W        W95332   5.746  20.121   0.310
26860W        W95333   5.316  41.421  10.466
26861W        W95334  17.757  42.866   4.307
26862W        W95335  39.385  18.633   4.249
26863W        W95336  43.935  33.048   1.923
26864W        W95337   6.874  10.155  13.872
26865W        W95338   5.761  34.117  12.468
26866W        W95339  19.112  44.458   1.213
26867W        W95340   8.682  40.036   4.119
26868W        W95341  36.087  33.933   1.753
26869W        W95342  28.064  39.013  13.847
26870W        W95343  12.340  37.366   3.796
26871W        W95344  34.611  33.062  13.475
26872W        W95345   9.282  36.456   4.126
26873W        W95346  22.633   3.802   0.298
26874W        W95347  10.333  26.630   4.135
26875W        W95348  41.984   6.237   1.694
26876W        W95349  21.676  40.844  13.343
26877W        W95350   1.807  41.947   0.966
26878W        W95351  12.295  39.475   1.922
26879W        W95352  24.144  30.954  12.534
26880W        W95353  26.041  43.850   0.434
26881W        W95354  38.336  42.926   4.821
26882W        W95355  25.632  41.314  10.623
26883W        W95356   1.238  18.220   4.298
26884W        W95357  15.294   4.815   4.678
26885W        W95358  40.893  39.481  11.966
26886W        W95359  18.091  39.508   3.239
26887W        W95360  15.762  14.751   2.179
26888W        W95361  26.157  22.212   2.814
26889W        W95362  44.891  15.324  14.911
26890W        W95363  39.546   0.836   2.331
26891W        W95364  12.135  35.924   3.185
26892W        W95365  30.567   7.701   1.794
26893W        W95366  31.085  38.959   2.278
26894W        W95367  31.996  13.708   1.749
26895W        W95368   6.422  38.392  12.905
26896W        W95369  25.963  42.342   1.795
26897W        W95370   9.180   8.193   0.857
26898W        W95371  36.579  30.485   4.197
26899W        W95372  31.459  18.193  11.010
26900W        W95373  20.688   1.965   4.296
26901W        W95374   1.471  23.511  13.968
26902W        W95375  25.501  22.585  11.888
26903W        W95376   8.269  15.780  11.967
26904W        W95377  16.089  15.673  10.998
26905W        W95378  14.638  28.439  12.072
26906W        W95379  44.939  21.019  11.385
26907W        W95380  28.071  27.654   4.209
26908W        W95381   3.728  23.000   3.673
26909W        W95382  12.247  38.030   2.831
26910W        W95383  15.150  43.905  12.840
26911W        W95384  20.229  21.092   0.248
26912W        W95385  39.001  31.482   4.294
26913W        W95386  15.089  40.981  12.579
26914W        W95387  25.202  18.629  13.009
26915W        W95388  21.201   5.690   2.358
26916W        W95389  24.682  13.351   4.618
26917W        W95390   3.823  26.145   4.224
26918W        W95391  16.234   8.761   0.392
26919W        W95392  28.173   8.728   4.175
26920W        W95393  37.582   2.314  10.921
26921W        W95394   0.869   1.452  11.466
26922W        W95395  42.371  22.246   1.336
26923W        W95396  41.415  26.561  13.416
26924W        W95397  34.378  12.184   3.199
26925W        W95398  20.066  34.473   3.847
26926W        W95399  29.561  31.971   2.355
26927W        W95400  26.557  12.150   4.605
26928W        W95401   4.890  20.699   2.248
26929W        W95402  16.148  28.535   0.480
26930W        W95403  12.805  20.756  12.488
26931W        W95404  29.470  21.214  10.626
26932W        W95405   7.380  32.031   2.825
26933W        W95406  38.348  44.756   0.930
26934W        W95407   3.371  42.512  14.913
26935W        W95408  13.717  10.351   0.448
26936W        W95409  10.145  30.456  11.000
26937W        W95410  30.627   4.700  14.379
26938W        W95411  33.572  41.363   4.751
26939W        W95412  38.988  24.214   9.992
26940W        W95413  18.555  22.576   1.728
26941W        W95414   6.237  30.982  11.068
26942W        W95415  26.003   5.700  12.948
26943W        W95416  37.010   2.309   2.227
26944W        W95417  13.189  22.101   1.761
26945W        W95418   1.249  44.308   4.798
26946W        W95419   0.926   8.183  14.353
26947W        W95420  40.971   7.205   2.368
26948W        W95421  23.577  12.734   5.711
26949W        W95422  22.200  27.141  14.341
26950W        W95423  21.106  13.180  11.860
26951W        W95424  39.902  19.738  13.797
26952W        W95425  28.504  24.612   2.852
26953W        W95426  24.151   0.408   1.764
26954W        W95427   3.840  33.480  14.897
26955W        W95428  29.650  41.955  12.378
26956W        W95429  42.833  21.063  13.436
26957W        W95430  31.048  38.973  12.362
26958W        W95431  36.081   3.310  13.379
26959W        W95432   8.829  34.052   4.662
26960W        W95433  40.366  29.517   1.412
26961W        W95434   6.821   3.798  13.447
26962W        W95435  15.728  20.144   2.801
26963W        W95436  39.351  41.493   3.678
26964W        W95437  41.825   3.372  13.416
26965W        W95438  44.810  12.338  10.559
26966W        W95439  43.503   7.851   4.185
26967W        W95440  25.478  11.693   1.717
26968W        W95441  27.017  11.225   3.333
26969W        W95442   9.680  34.033  11.402
26970W        W95443  20.063  37.410  12.496
26971W        W95444  37.572  42.015   1.409
26972W        W95445  40.950   2.883  14.860
26973W        W95446  27.669  44.917   5.167
26974W        W95447  44.011  11.126  12.009
26975W        W95448  22.224  20.607   3.721
26976W        W95449  39.331  34.393  12.390
26977W        W95450  39.980  37.025   1.216
26978W        W95451   2.753   3.757   4.322
26979W        W95452   6.892   5.852   4.817
26980W        W95453  39.404  25.168   3.851
26981W        W95454  36.379  23.618   1.701
26982W        W95455  37.361  38.325  11.083
26983W        W95456  10.706  39.839   4.679
26984W        W95457   7.821  38.325  11.032
26985W        W95458  21.046  21.022   0.456
26986W        W95459  36.479  18.165   3.175
26987W        W95460  14.279  27.129  12.021
26988W        W95461  34.967  23.530   3.636
26989W        W95462  14.253  16.676   4.817
26990W        W95463  44.275  15.644  14.928
26991W        W95464   9.166  44.278   4.305
26992W        W95465   0.818   0.786  14.020
26993W        W95466  24.211  16.631   3.350
26994W        W95467  26.477   1.768  13.022
26995W        W95468  29.970  30.537   3.306
26996W        W95469  38.036  44.877  13.310
26997W        W95470  38.481  17.713   1.823
26998W        W95471   0.891   0.368   1.244
26999W        W95472   8.712  21.588  11.381
27000W        W95473  35.517  30.418   0.920
27001W        W95474  43.851   3.335  12.005
27002W        W95475  28.974  18.134   3.822
27003W        W95476  21.125  41.497  11.903
27004W        W95477   9.666  34.881  14.960
27005W        W95478   2.893  31.991  10.048
27006W        W95479   1.842  18.769  13.370
27007W        W95480   3.398  12.303  13.359
27008W        W95481  23.092  18.661  11.392
27009W        W95482  18.741  24.494  11.032
27010W        W95483  17.096  17.134  10.994
27011W        W95484  40.307  24.557  14.818
27012W        W95485   0.259   6.275   4.671
27013W        W95486  40.439   7.307   0.924
27014W        W95487  27.155  11.633  12.951
27015W        W95488  21.164   6.407   4.133
27016W        W95489  21.713  36.857  11.392
27017W        W95490  19.097  26.054   4.264
27018W        W95491  36.453   6.813  13.370
27019W        W95492   1.867  14.756  11.436
27020W        W95493  38.824  12.273   4.278
27021W        W95494  20.663  40.476  13.430
27022W        W95495  11.737  13.791   3.151
27023W        W95496   3.371   7.823   2.730
27024W        W95497  37.029  44.320  11.074
27025W        W95498   9.171   9.307  10.966
27026W        W95499  17.687   3.359   4.807
27027W        W95500  22.054  34.531   1.317
27028W        W95501  33.937  31.933  11.392
27029W        W95502   4.252  14.106   2.261
27030W        W95503  27.945  19.274  10.610
27031W        W95504  17.792   0.909  11.049
27032W        W95505  24.705  23.000  10.638
27033W        W95506   1.377  42.393  13.975
27034W        W95507  12.353  42.402   0.428
27035W        W95508  12.298  33.910  12.040
27036W        W95509  16.118   6.385   2.200
27037W        W95510  14.689   5.809  12.974
27038W        W95511  35.061  44.002  14.942
27039W        W95512  25.642  33.594  14.958
27040W        W95513  29.922  16.242  13.985
27041W        W95514  26.677   3.904   3.151
27042W        W95515  10.341   7.385   1.884
27043W        W95516   6.770  31.641   0.928
27044W        W95517  27.460  19.113   4.354
27045W        W95518  12.706   9.724   4.258
27046W        W95519  41.420  11.153  11.456
27047W        W95520  36.529   4.713  10.155
27048W        W95521  32.461  23.611  10.987
27049W        W95522  22.062  40.878   3.344
27050W        W95523   4.761   9.853  14.924
27051W        W95524  28.943  44.925   0.282
27052W        W95525  44.755  29.093  11.012
27053W        W95526  42.499  38.380   3.209
27054W        W95527  42.880  24.025  10.528
27055W        W95528  26.694  30.015   0.419
27056W        W95529  15.317  14.221   0.778
27057W        W95530  23.114  27.062  10.988
27058W        W95531  44.332  23.002   4.146
27059W        W95532  40.963  36.373   0.822
27060W        W95533  12.784  25.635   4.682
27061W        W95534  29.606  13.151  14.784
27062W        W95535   0.817  20.188   3.208
27063W        W95536  12.634  31.575  13.886
27064W        W95537  14.311  33.430   3.229
27065W        W95538  33.894   6.831   0.318
27066W        W95539  21.199  10.815  12.970
27067W        W95540  41.982  21.218  14.884
27068W        W95541  11.148   3.871  14.367
27069W        W95542  29.498   1.269  14.473
27070W        W95543  10.202   7.686   0.254
27071W        W95544   2.457  39.904   9.992
27072W        W95545  16.762  17.781  10.539
27073W        W95546   3.286  11.744  12.951
27074W        W95547  42.378  20.565   1.230
27075W        W95548   5.410   3.724   1.270
27076W        W95549  14.318  13.320  10.542
27077W        W95550  19.777  43.807   0.348
27078W        W95551  12.831  28.961  12.870
27079W        W95552  25.704  30.417  13.438
27080W        W95553   4.334  44.287   0.388
27081W        W95554  37.364  13.295   4.767
27082W        W95555  23.019  12.642   9.545
27083W        W95556  18.152   6.768   0.271
27084W        W95557  32.036  43.925  13.410
27085W        W95558  43.442  40.328   4.729
27086W        W95559   2.881  40.529  10.896
27087W        W95560  11.653  33.958   3.870
27088W        W95561  27.542   2.434   1.713
27089W        W95562  36.993   3.946   3.194
27090W        W95563  16.693   0.394   0.804
27091W        W95564  35.067  33.559  10.585
27092W        W95565  11.655   4.844   1.905
27093W        W95566  30.950  23.135  12.554
27094W        W95567  41.898  40.982  12.830
27095W        W95568   4.820  28.667  14.388
27096W        W95569  35.370  34.467  12.464
27097W        W95570  42.826  44.771   3.701
27098W        W95571  26.675  29.944   1.330
27099W        W95572   0.467   6.248  14.402
27100W        W95573  25.018  18.717   4.649
27101W        W95574  42.911  19.566   2.801
27102W        W95575   5.893  21.045  12.551
27103W        W95576  26.518   8.693  14.814
27104W        W95577  24.546  27.602   3.227
27105W        W95578  30.138   4.328   2.321
27106W        W95579  20.167   2.398   1.420
27107W        W95580  34.957  33.567   1.801
27108W        W95581  13.199   3.852   1.220
27109W        W95582  15.578  28.053   2.316
27110W        W95583  35.533   5.797   3.677
27111W        W95584  24.628   5.877  10.459
27112W        W95585  30.110  32.622  12.417
27113W        W95586  14.804  16.296   1.274
27114W        W95587  24.481   0.955   5.565
27115W        W95588  44.267  42.870   5.233
27116W        W95589   0.984  33.464   2.325
27117W        W95590   7.197   1.894  14.966
27118W        W95591  35.556   4.417   0.336
27119W        W95592  38.383  37.471   2.875
27120W        W95593  23.185  28.934  12.093
27121W        W95594   2.310  27.530   4.309
27122W        W95595  26.499  41.426  12.827
27123W        W95596  42.500  18.709   2.180
27124W        W95597  19.144   6.713   2.709
27125W        W95598   0.875  24.104  13.058
27126W        W95599  31.910  35.559   0.459
27127W        W95600  42.892   4.754  12.442
27128W        W95601  36.486  15.667   1.907
27129W        W95602  12.646  17.633   4.135
27130W        W95603  32.549   6.884  10.923
27131W        W95604  23.500  17.791  11.407
27132W        W95605  19.635  18.207   1.325
27133W        W95606  29.666  30.014   0.266
27134W        W95607  19.732  42.516  14.477
27135W        W95608  19.051  12.730  10.417
27136W        W95609   4.258  38.878   3.199
27137W        W95610  30.142  21.261   0.470
27138W        W95611   3.822  21.638  14.763
27139W        W95612  17.606  34.902   3.709
27140W        W95613   5.754  20.666   0.407
27141W        W95614  29.542  44.962  13.485
27142W        W95615  39.924  41.892   1.860
27143W        W95616  25.106  20.690   0.270
27144W        W95617  25.550   6.253   4.314
27145W        W95618  25.599  25.193  14.830
27146W        W95619  39.431  10.756  12.878
27147W        W95620  44.835  15.810  13.026
27148W        W95621  27.110   7.896   2.205
27149W        W95622   1.410  21.718  11.390
27150W        W95623   0.326  11.839   2.848
27151W        W95624  21.187   9.811  12.069
27152W        W95625  34.457   6.680  14.298
27153W        W95626  11.655  39.909  11.887
27154W        W95627  40.903  24.081   3.347
27155W        W95628   0.917   0.956   2.893
27156W        W95629  10.803  44.793   0.735
27157W        W95630   4.783  37.445   3.764
27158W        W95631   9.713  11.780   4.643
27159W        W95632  37.878  14.770  13.518
27160W        W95633  14.160  15.197   2.885
27161W        W95634  43.433  44.435   0.785
27162W        W95635  14.830  29.039   4.837
27163W        W95636  19.210  34.945   0.798
27164W        W95637  14.688  43.376  10.439
27165W        W95638  35.885  24.500   1.817
27166W        W95639   0.475  26.087   2.731
27167W        W95640  39.815  32.607   3.664
27168W        W95641  21.218  14.220   1.225
27169W        W95642  27.038  16.783  11.096
27170W        W95643  42.408   3.310  13.894
27171W        W95644  20.258   0.375   4.693
27172W        W95645  40.342  10.868  10.422
27173W        W95646  43.292  44.875  12.853
27174W        W95647  30.558  22.140   4.725
27175W        W95648  40.482   2.769   1.860
27176W        W95649   1.421  27.005  10.900
27177W        W95650  28.099  29.945  11.503
27178W        W95651  12.144  27.562   4.165
27179W        W95652  24.520  37.025   2.387
27180W        W95653   1.943  25.075   3.649
27181W        W95654   2.774  31.583   4.151
27182W        W95655  41.818  30.592  10.068
27183W        W95656  32.978   8.754  13.978
27184W        W95657   2.349  35.879   9.954
27185W        W95658  44.770   6.691  13.439
27186W        W95659   9.888  18.697   3.311
27187W        W95660  17.668  39.431   1.924
27188W        W95661  22.510   4.907  12.039
27189W        W95662  11.792  33.074  14.965
27190W        W95663  23.614  44.463   1.294
27191W        W95664  24.981  37.870  13.507
27192W        W95665   7.251   7.703   0.418
27193W        W95666  28.502  12.826  10.553
27194W        W95667   7.279  15.176  10.962
27195W        W95668  30.055  29.091  11.009
27196W        W95669  33.540   7.205   3.779
27197W        W95670  18.105   8.739  14.779
27198W        W95671  40.418  43.927  11.989
27199W        W95672   5.243  27.172   4.763
27200W        W95673  19.626  42.989   1.391
27201W        W95674  13.315  13.122   9.950
27202W        W95675   3.298  27.537   3.209
27203W        W95676  35.436  25.538   4.123
27204W        W95677  36.459  42.871  12.956
27205W        W95678  32.948  33.129  13.477
27206W        W95679  20.753  36.531  13.339
27207W        W95680  12.240  32.411   0.726
27208W        W95681   8.225  14.712  11.481
27209W        W95682   0.448  14.799  10.635
27210W        W95683  39.438  25.160  10.485
27211W        W95684  36.956   7.245   3.368
27212W        W95685  43.425  42.342  14.338
27213W        W95686   3.795  23.175   4.153
27214W        W95687  13.139  41.467   0.860
27215W        W95688  23.565   0.297  12.518
27216W        W95689   2.882   4.820  11.029
27217W        W95690  26.592  21.154  14.319
27218W        W95691   9.854   0.408   0.398
27219W        W95692   5.761  22.143   4.636
27220W        W95693   2.820   3.771   0.387
27221W        W95694  11.189  31.015  14.325
27222W        W95695  40.798  44.376  11.889
27223W        W95696   2.784   4.938   2.234
27224W        W95697  33.423   7.898   3.311
27225W        W95698   4.910  37.451  12.404
27226W        W95699  22.219   0.833  13.405
27227W        W95700  27.573   1.815   4.745
27228W        W95701  29.176  32.069  13.983
27229W        W95702  38.364  12.690  12.002
27230W        W95703  34.504  12.310  11.012
27231W        W95704  31.515  26.701   9.616
27232W        W95705   5.705  33.924   2.215
27233W        W95706  19.143  15.124   3.790
27234W        W95707  42.010  20.671  10.974
27235W        W95708  23.550  39.864  10.985
27236W        W95709  30.499   8.217  11.453
27237W        W95710  16.622  29.524   0.466
27238W        W95711  15.172   3.766  12.065
27239W        W95712   5.200   5.866   2.267
27240W        W95713   7.902   2.938   4.208
27241W        W95714  33.618  19.680   1.840
27242W        W95715   7.825  12.142   2.795
27243W        W95716  20.263  23.681   0.865
27244W        W95717  12.688  18.075   0.435
27245W        W95718  42.959  44.775   4.165
27246W        W95719   2.460  10.762  10.889
27247W        W95720  10.734  14.779  10.576
27248W        W95721   3.800  35.459   4.143
27249W        W95722  43.397   1.914  11.428
27250W        W95723  10.658  24.022   3.749
27251W        W95724  10.205  16.714   4.685
27252W        W95725  29.061  43.407   1.418
27253W        W95726  32.108  10.656  13.526
27254W        W95727  25.542   3.791  10.460
27255W        W95728   7.318  41.497  10.585
27256W        W95729   1.434  33.055  14.352
27257W        W95730  14.640  36.989   3.696
27258W        W95731   4.897   6.401   1.807
27259W        W95732  20.250  43.939  12.888
27260W        W95733  22.598  19.771   2.241
27261W        W95734  10.221  24.527   3.282
27262W        W95735  42.027   4.422   1.319
27263W        W95736  30.422  25.502  13.488
27264W        W95737  42.943  31.969   0.450
27265W        W95738  12.145   1.893  11.947
27266W        W95739  33.625  19.142   2.778
27267W        W95740  30.642  22.637  11.912
27268W        W95741  42.524  16.697  12.055
27269W        W95742  41.490  22.146  11.878
27270W        W95743  40.482  16.136  12.061
27271W        W95744  26.697  41.413  12.381
27272W        W95745  33.449  41.371  10.415
27273W        W95746  44.892  15.303  12.341
27274W        W95747   9.248  38.881   0.391
27275W        W95748  32.603  32.478   4.802
27276W        W95749  14.644  10.297  13.343
27277W        W95750  22.522  36.440  11.049
27278W        W95751  23.727  14.757   9.948
27279W        W95752  35.526   0.964  11.421
27280W        W95753   1.299  23.564  10.574
27281W        W95754  17.254  15.735   4.597
27282W        W95755   4.715  32.493   2.756
27283W        W95756  38.070   2.240   2.204
27284W        W95757   4.725  39.905   4.762
27285W        W95758   6.708  23.165  13.344
27286W        W95759  23.637  40.833   3.283
27287W        W95760   6.280   7.221   4.726
27288W        W95761  40.461  42.834  13.051
27289W        W95762  30.004  36.038  10.926
27290W        W95763  37.961  26.696  10.473
27291W        W95764   4.308  29.662   4.257
27292W        W95765   9.394  44.779  10.541
27293W        W95766  35.579  41.487   3.631
27294W        W95767  34.913  21.637   1.695
27295W        W95768  41.827   2.781  11.505
27296W        W95769   8.388  30.613   0.483
27297W        W95770  13.292   3.331  12.926
27298W        W95771  41.438  12.753  12.044
27299W        W95772  40.503   6.733  12.527
27300W        W95773  41.369   6.191  12.897
27301W        W95774  32.886  27.195  13.061
27302W        W95775   9.346  35.911   3.702
27303W        W95776  44.912  20.052   4.273
27304W        W95777  42.955  25.579  11.415
27305W        W95778  22.236   8.816   2.344
27306W        W95779   7.676   2.953   0.902
27307W        W95780   2.967  14.298   3.263
27308W        W95781  37.505  24.101  12.876
27309W        W95782  18.102  27.144   3.337
27310W        W95783  15.756  11.813  11.388
27311W        W95784   2.731   2.797  11.531
27312W        W95785  16.145  38.554  10.442
27313W        W95786  36.355  25.195   3.858
27314W        W95787   6.716   9.177  13.919
27315W        W95788  24.197   3.451  11.454
27316W        W95789   0.830  34.597  12.410
27317W        W95790  22.522  43.487   3.646
27318W        W95791  14.710  18.688   1.745
27319W        W95792  16.155  10.347  10.454
27320W        W95793  13.799   4.352  12.364
27321W        W95794  38.392  29.443   3.761
27322W        W95795  42.441  10.632  14.340
27323W        W95796  32.509   9.314   3.846
27324W        W95797  12.803   9.236   1.348
27325W        W95798  15.710  27.995  14.420
27326W        W95799  44.334  38.404   1.395
27327W        W95800  14.808  23.730  11.866
27328W        W95801  29.057  33.574   0.845
27329W        W95802  21.099  32.448   3.646
27330W        W95803  30.507  19.676   1.254
27331W        W95804  32.479   9.233   3.358
27332W        W95805  34.583  17.691  14.447
27333W        W95806  37.910   4.417   0.277
27334W        W95807  23.517  31.402   2.767
27335W        W95808  20.550  23.189   2.751
27336W        W95809   3.732  31.044  12.983
27337W        W95810  32.087   1.898   0.311
27338W        W95811  40.489  18.265   4.197
27339W        W95812   6.762  39.409  11.882
27340W        W95813  42.929   1.745   1.376
27341W        W95814  41.465  35.061  11.914
27342W        W95815  32.136  17.166  13.336
27343W        W95816   7.790  40.004   3.804
27344W        W95817   1.382   7.833   1.889
27345W        W95818  32.560  35.019   1.898
27346W        W95819   2.856  38.339   1.436
27347W        W95820  38.858  35.457  12.921
27348W        W95821  24.485  24.675  14.842
27349W        W95822  34.512  16.595  11.005
27350W        W95823  33.510   5.814   2.692
27351W        W95824  13.654  44.949   4.185
27352W        W95825  14.280  22.137  13.006
27353W        W95826  18.181  14.714  12.912
27354W        W95827   2.303   3.394   0.801
27355W        W95828   1.911   4.723  14.963
27356W        W95829  11.349   0.395   3.703
27357W        W95830   6.716  21.753  11.886
27358W        W95831  40.833  19.071  12.458
27359W        W95832  38.994  33.431  11.001
27360W        W95833  37.026  28.518   4.340
27361W        W95834  16.649  43.903   2.693
27362W        W95835  25.153  18.579  11.939
27363W        W95836  27.642   7.765   2.256
27364W        W95837  42.489  35.991   4.145
27365W        W95838  40.438  34.492  12.920
27366W        W95839  10.239  37.374  14.514
27367W        W95840   4.280  31.009  10.466
27368W        W95841  36.031  11.675   4.330
27369W        W95842  34.564  19.244  13.926
27370W        W95843   0.348  15.632  11.091
27371W        W95844   6.781   5.402   1.804
27372W        W95845  26.583   7.400   2.348
27373W        W95846  20.208  42.900  12.887
27374W        W95847  32.117  37.422   4.702
27375W        W95848  29.669  41.973   4.209
27376W        W95849  38.031  18.186  14.833
27377W        W95850  31.024   4.790   1.395
27378W        W95851  33.595  18.551   2.324
27379W        W95852  39.909  10.849   1.786
27380W        W95853  10.715  31.416  10.983
27381W        W95854   0.970   5.195  10.523
27382W        W95855  33.515  30.958   4.299
27383W        W95856  37.435  14.754  10.612
27384W        W95857  36.989  25.971   3.729
27385W        W95858  37.531  42.941   2.245
27386W        W95859  31.646  36.901   0.811
27387W        W95860  41.820  17.577   4.123
27388W        W95861  12.319  35.560  11.110
27389W        W95862  39.823  42.778  10.540
27390W        W95863  33.554  12.709  14.945
27391W        W95864  38.908  15.292   0.345
27392W        W95865  31.514  24.636   0.745
27393W        W95866   3.314  18.769   5.207
27394W        W95867  44.792  24.149  10.988
27395W        W95868  24.104  20.617  14.918
27396W        W95869  11.278   3.789   2.255
27397W        W95870  12.132  17.225   1.276
27398W        W95871  28.975   7.911   0.262
27399W        W95872  38.454  33.876   4.701
27400W        W95873   8.162  30.520   2.219
27401W        W95874  29.036  42.849   0.758
27402W        W95875   4.824   6.894   1.325
27403W        W95876  40.468  40.954  13.523
27404W        W95877  30.539  14.227  13.975
27405W        W95878  17.202  27.098   3.312
27406W        W95879  20.541  20.106   4.803
27407W        W95880  16.309   7.354   1.299
27408W        W95881  20.589   4.928  14.008
27409W        W95882  14.162  10.358   3.346
27410W        W95883  34.993  44.919   3.287
27411W        W95884  30.078   5.397  11.453
27412W        W95885   2.738  16.223   1.365
27413W        W95886  19.696  40.812   1.419
27414W        W95887   0.875  13.249   4.194
27415W        W95888  16.650  34.447  14.390
27416W        W95889  44.387  21.118   2.411
27417W        W95890  24.654  40.332  11.882
27418W        W95891  10.147  12.752  10.928
27419W        W95892  20.175  20.695  12.382
27420W        W95893  32.951   9.178  10.898
27421W        W95894  41.479  31.954   1.310
27422W        W95895  39.813   5.399  12.900
27423W        W95896  11.647  29.150   2.674
27424W        W95897   8.898   2.732  12.524
27425W        W95898  22.661   5.928  10.425
27426W        W95899  42.379  11.630   3.641
27427W        W95900  16.093  44.265  12.445
27428W        W95901  38.848  30.496  13.432
27429W        W95902   4.244  26.604  14.848
27430W        W95903  12.628  38.515   2.866
27431W        W95904  31.057  29.079   1.746
27432W        W95905  35.569  31.482  14.353
27433W        W95906   3.793  14.295   3.697
27434W        W95907  35.920  20.737   0.400
27435W        W95908  18.657  34.087   1.328
27436W        W95909  44.352   0.294  13.907
27437W        W95910  21.569  34.924  11.972
27438W        W95911   2.805   5.713  11.119
27439W        W95912  31.438  23.064   2.668
27440W        W95913  12.735  16.793   1.791
27441W        W95914  31.426  15.166   2.252
27442W        W95915  42.842  14.755  13.451
27443W        W95916  33.107  22.017  13.531
27444W        W95917  20.681   5.195  11.463
27445W        W95918  24.197  30.028   4.209
27446W        W95919  37.049  31.944  12.942
27447W        W95920  28.018   9.836  10.105
27448W        W95921  36.977  18.224  11.951
27449W        W95922  31.505   4.401  13.466
27450W        W95923  20.572   5.803   3.714
27451W        W95924  12.287   5.273   4.128
27452W        W95925  17.100  13.684  14.948
27453W        W95926   7.750   3.336   0.254
27454W        W95927  16.763   2.835  14.836
27455W        W95928  35.388  25.477  13.311
27456W        W95929   7.381  23.694   3.824
27457W        W95930   8.736  17.686   1.371
27458W        W95931  37.875  15.164   1.362
27459W        W95932   0.800  27.123  13.409
27460W        W95933  22.610  36.081  11.468
27461W        W95934  20.663   0.278  12.935
27462W        W95935  16.613  22.612  11.091
27463W        W95936  21.242  28.010   1.702
27464W        W95937  18.656  20.204  14.977
27465W        W95938  38.013   9.811   4.180
27466W        W95939  22.698   2.281   4.349
27467W        W95940  32.895  29.964   2.767
27468W        W95941  18.287   0.259  11.066
27469W        W95942  40.414   8.213  14.819
27470W        W95943  29.004   3.721  12.060
27471W        W95944  37.843  28.121   3.672
27472W        W95945  14.182  34.407  12.995
27473W        W95946  43.453  42.962   1.278
27474W        W95947  25.525  44.811   4.136
27475W        W95948   0.363  32.530  14.353
27476W        W95949  36.420  40.052  11.878
27477W        W95950  24.103  41.014   1.347
27478W        W95951  23.596  10.245  11.941
27479W        W95952  22.709  20.551  13.522
27480W        W95953  44.790  42.368  10.424
27481W        W95954  42.312   9.383   0.350
27482W        W95955  24.495  12.712   2.417
27483W        W95956   4.327  26.625  11.449
27484W        W95957  43.395  11.707  10.603
27485W        W95958  28.446   9.732  13.026
27486W        W95959  43.453  11.221  13.947
27487W        W95960  30.566   9.875   1.814
27488W        W95961  42.964  21.719   0.301
27489W        W95962  10.815   6.201  11.078
27490W        W95963  34.376  15.114  12.843
27491W        W95964  43.859   3.742  14.335
27492W        W95965   4.286  18.225  11.569
27493W        W95966  12.214  24.646   3.318
27494W        W95967  44.886   2.429   3.782
27495W        W95968  29.059  12.636  12.860
27496W        W95969  30.633  19.159   4.609
27497W        W95970  36.528  40.999   3.675
27498W        W95971  18.201   4.358  12.988
27499W        W95972  33.917  26.170  12.067
27500W        W95973  33.487  29.008  10.559
27501W        W95974  11.170   9.806   3.715
27502W        W95975  14.094  21.559   4.247
27503W        W95976   5.251   6.887   2.846
27504W        W95977  15.154  39.916   2.318
27505W        W95978   8.345  25.962  11.916
27506W        W95979  41.385  11.220  10.511
27507W        W95980  41.480  10.818   1.391
27508W        W95981   2.361  18.092  12.078
27509W        W95982  18.251   8.848   0.779
27510W        W95983  27.654   6.255  13.804
27511W        W95984  21.248  40.334   2.871
27512W        W95985  11.300  19.066   2.786
27513W        W95986  22.659  32.053   1.220
27514W        W95987  43.002  29.555   5.314
27515W        W95988   4.892  37.905   0.918
27516W        W95989   0.258  33.069  13.437
27517W        W95990  28.550   3.368   0.259
27518W        W95991  24.015  22.567   3.690
27519W        W95992  24.143  42.497  12.502
27520W        W95993   7.294  13.110   0.820
27521W        W95994  40.433  34.598   2.752
27522W        W95995  14.816   9.793  12.531
27523W        W95996  12.305  41.989   0.333
27524W        W95997  11.765  40.035  11.587
27525W        W95998  22.213  39.809   3.335
27526W        W95999  30.551  27.113  14.435
27527W        W96000   0.788  40.966  11.475
27528W        W96001  38.001  23.168  11.905
27529W        W96002  32.120  15.203  11.903
27530W        W96003  10.359  11.821  11.995
27531W        W96004  33.983  38.054  11.960
27532W        W96005  37.549  18.711  11.591
27533W        W96006   4.378   2.916   2.224
27534W        W96007  10.305   8.226   4.610
27535W        W96008   7.350  42.815  13.939
27536W        W96009   2.313  32.141   0.840
27537W        W96010  13.203  13.836  10.557
27538W        W96011  10.236   2.911  12.494
27539W        W96012  36.472  42.289  12.520
27540W        W96013  37.580  32.067   3.768
27541W        W96014  41.985   9.391  13.542
27542W        W96015   7.180  36.530  12.013
27543W        W96016  34.061  23.667  13.004
27544W        W96017   2.838  26.053  11.484
27545W        W96018  10.199   9.778   2.298
27546W        W96019  24.013  42.887  10.471
27547W        W96020  23.152  16.754   3.812
27548W        W96021  35.962  40.333   4.151
27549W        W96022  30.145  37.006  11.112
27550W        W96023  11.215  30.444  13.357
27551W        W96024  19.756  18.615  12.512
27552W        W96025  12.785  39.957  14.924
27553W        W96026  28.132  34.599   4.835
27554W        W96027  35.571  44.308  10.499
27555W        W96028  26.977  12.740   3.326
27556W        W96029   4.239  22.105   0.339
27557W        W96030  23.235   5.265  11.015
27558W        W96031  28.517  10.155   4.773
27559W        W96032  23.604  11.821   1.312
27560W        W96033  32.135  20.697  13.483
27561W        W96034   9.384  44.368  14.959
27562W        W96035  18.093  41.000  14.418
27563W        W96036  32.919  42.282   3.253
27564W        W96037  41.021   6.377  10.600
27565W        W96038  42.852   4.891  14.293
27566W        W96039   3.224  30.002   0.352
27567W        W96040  38.369  31.448  14.921
27568W        W96041   1.424   2.931   1.359
27569W        W96042  33.100   9.873   4.642
27570W        W96043   8.806   6.899  14.956
27571W        W96044  26.597  19.567  11.868
27572W        W96045   2.941  20.102   3.825
27573W        W96046  32.953  23.551  14.935
27574W        W96047  39.521   1.453   3.260
27575W        W96048   1.264  13.301   4.765
27576W        W96049  11.281  13.173   1.400
27577W        W96050  25.515   0.356  11.113
27578W        W96051  38.405   0.970   2.840
27579W        W96052  43.012  12.189   2.269
27580W        W96053  24.033  33.552   2.843
27581W        W96054  26.007  16.133  11.126
27582W        W96055  34.983  30.994   0.266
27583W        W96056   7.908   0.281  13.405
27584W        W96057   4.892  10.765  12.469
27585W        W96058  21.240  13.789  14.322
27586W        W96059  20.656  39.416   2.866
27587W        W96060  43.408  31.631  11.506
27588W        W96061  10.864  40.800   2.712
27589W        W96062  36.980   5.386  12.932
27590W        W96063  36.482  19.093  13.896
27591W        W96064  22.623  25.692  14.468
27592W        W96065  11.218   6.201  11.946
27593W        W96066  30.632   2.844  13.952
27594W        W96067  27.587  15.743   3.314
27595W        W96068   9.345  36.841   1.389
27596W        W96069   8.310  10.193   2.872
27597W        W96070   1.382  26.974  14.296
27598W        W96071   8.243  36.075   0.458
27599W        W96072  23.533  31.045  12.409
27600W        W96073  21.106   4.314   5.315
27601W        W96074  37.069  44.924   0.397
27602W        W96075  20.028  15.265  13.416
27603W        W96076   9.336   9.237   0.957
27604W        W96077   5.791  18.152   4.344
27605W        W96078  41.043  13.750   1.225
27606W        W96079   1.904   0.379   1.812
27607W        W96080  42.897  32.116  12.047
27608W        W96081  32.925  41.331   9.988
27609W        W96082  31.948   9.825   2.189
27610W        W96083  10.863  16.702  10.475
27611W        W96084  42.819   4.327  13.389
27612W        W96085  24.147  22.081   2.896
27613W        W96086   2.833  33.946  10.925
27614W        W96087  11.215   9.670   0.273
27615W        W96088  13.124   7.778   4.838
27616W        W96089   9.155   6.324   4.636
27617W        W96090   3.341  27.086   3.827
27618W        W96091   2.285  10.145  13.416
27619W        W96092  19.744  10.810   2.860
27620W        W96093  36.361  14.274  13.400
27621W        W96094   2.825   7.281   1.340
27622W        W96095  16.137   0.364  12.465
27623W        W96096  30.622   2.427   4.645
27624W        W96097   4.800   6.860  13.336
27625W        W96098  36.962  16.772   2.771
27626W        W96099  29.043  43.398  11.461
27627W        W96100  44.964   0.751   0.904
27628W        W96101  34.904  24.543   4.825
27629W        W96102   2.278  33.097   2.184
27630W        W96103   4.254  25.074  13.353
27631W        W96104  36.910  34.548   0.280
27632W        W96105  42.996  20.101  11.515
27633W        W96106   4.367  33.045  13.810
27634W        W96107  17.082  23.604  10.054
27635W        W96108   8.273   4.251   5.094
27636W        W96109  31.005  13.817   0.293
27637W        W96110  12.629  22.174   4.159
27638W        W96111  17.084  25.059   3.333
27639W        W96112  23.183  28.014   3.804
27640W        W96113  35.979  33.611   4.829
27641W        W96114  42.461  36.881  11.994
27642W        W96115  43.846   6.762  11.410
27643W        W96116  14.285  17.139  13.330
27644W        W96117  17.572  32.473   3.319
27645W        W96118  25.538  14.817   3.188
27646W        W96119  27.614  28.185  10.022
27647W        W96120  20.660  26.519   9.514
27648W        W96121  29.644  11.179   2.241
27649W        W96122  35.947  15.133   0.460
27650W        W96123  14.738  15.766  14.485
27651W        W96124  24.524   8.663   1.418
27652W        W96125  33.625  19.687   2.179
27653W        W96126  22.502  26.147   3.162
27654W        W96127  21.200  21.066   3.757
27655W        W96128  22.019  16.075  10.480
27656W        W96129  33.092  39.934  12.530
27657W        W96130  21.665  39.373   4.344
27658W        W96131  29.645  10.816  13.958
27659W        W96132  25.057  25.166   3.641
27660W        W96133  15.209  24.982  11.512
27661W        W96134   5.868  37.990  14.824
27662W        W96135  24.586  13.132   1.254
27663W        W96136  23.609  32.065  14.906
27664W        W96137   8.315  25.058   9.587
27665W        W96138  17.068  26.135   1.325
27666W        W96139  24.122   4.391   0.468
27667W        W96140  24.630  25.592   4.663
27668W        W96141  36.087  15.690   1.932
27669W        W96142  18.688  21.240   3.193
27670W        W96143  21.744  38.344   2.403
27671W        W96144  17.283   2.725  14.340
27672W        W96145   2.351  35.462   4.692
27673W        W96146  39.504   2.825  11.909
27674W        W96147   8.335  13.160   1.812
27675W        W96148  34.995  18.149  12.429
27676W        W96149  26.529   7.865   3.652
27677W        W96150  27.691   8.255   1.243
27678W        W96151  14.781  30.423   1.390
27679W        W96152  23.624  36.055   3.775
27680W        W96153  16.699  20.215   1.249
27681W        W96154  37.022  18.752  11.906
27682W        W96155  44.959  12.359   3.328
27683W        W96156  21.545   6.397  12.561
27684W        W96157  43.322  21.252   4.822
27685W        W96158   4.816   1.910   3.674
27686W        W96159  41.969  40.523  13.467
27687W        W96160  40.353   0.809   1.846
27688W        W96161  36.995   2.312   4.609
27689W        W96162  31.616   7.723   2.762
27690W        W96163  44.418  32.889  10.559
27691W        W96164  13.223   6.820  12.385
27692W        W96165   6.852   1.959  13.050
27693W        W96166  13.781  42.430  12.971
27694W        W96167  44.498  12.696  14.031
27695W        W96168  30.460  15.752   2.902
27696W        W96169  22.510  24.704   4.779
27697W        W96170  27.948   6.234  13.942
27698W        W96171  35.464   4.868  14.990
27699W        W96172  16.102   2.456   2.325
27700W        W96173  13.617   6.367   0.889
27701W        W96174  29.964  22.565  11.403
27702W        W96175  24.039   1.474   4.797
27703W        W96176   0.353  18.176  10.934
27704W        W96177   1.926  20.131   3.291
27705W        W96178  34.882  13.761   2.700
27706W        W96179  16.653  41.974   3.332
27707W        W96180   3.313  41.531  12.023
27708W        W96181   9.151  41.793  12.357
27709W        W96182  30.023   5.257  12.880
27710W        W96183  44.273   0.868  14.507
27711W        W96184   2.849  32.955   2.717
27712W        W96185   6.695   1.760  14.838
27713W        W96186  24.482  31.935   1.259
27714W        W96187  14.162  19.700  11.487
27715W        W96188   0.925   4.258   4.772
27716W        W96189  44.285  10.326  12.431
27717W        W96190   2.400  39.925   4.741
27718W        W96191  28.619  33.385  11.928
27719W        W96192   9.872  39.463   1.308
27720W        W96193  16.578  24.703  12.983
27721W        W96194  17.629  40.486  13.959
27722W        W96195  40.800   3.851  12.879
27723W        W96196  22.693  20.629  12.997
27724W        W96197   9.281  40.488   0.321
27725W        W96198  37.066  36.413  11.516
27726W        W96199  18.710   9.333   2.333
27727W        W96200  11.369  44.929  12.541
27728W        W96201  20.124  18.070   1.223
27729W        W96202  15.652   0.846  11.100
27730W        W96203  28.122  36.527   2.262
27731W        W96204  28.505  16.759   4.772
27732W        W96205  17.288   7.400  10.458
27733W        W96206   4.384  34.981   4.317
27734W        W96207   4.329  25.556   0.278
27735W        W96208  34.476  13.692   0.409
27736W        W96209  15.296  16.798   3.695
27737W        W96210  15.277  15.795  11.998
27738W        W96211  18.713  26.152  12.526
27739W        W96212  30.117  32.491  13.977
27740W        W96213   6.283  44.773   3.324
27741W        W96214   2.304   9.711   3.236
27742W        W96215   8.699  35.441  14.941
27743W        W96216  10.374  41.350  13.028
27744W        W96217  15.281  12.146   3.176
27745W        W96218  36.380  24.021  10.892
27746W        W96219  40.032  33.880   2.757
27747W        W96220  17.252   7.743  12.086
27748W        W96221  38.445  16.264  13.956
27749W        W96222   7.668  13.643  10.115
27750W        W96223  19.616  10.324  13.818
27751W        W96224   4.267   5.740   0.466
27752W        W96225   4.813  16.282  12.991
27753W        W96226  38.465  31.144   4.296
27754W        W96227  31.465  30.626   0.408
27755W        W96228  42.030  29.137  11.986
27756W        W96229  38.032  23.197  11.443
27757W        W96230   6.283  26.548   3.196
27758W        W96231   5.395  34.605   3.707
27759W        W96232  18.172  41.483   0.751
27760W        W96233  44.005  33.403   4.680
27761W        W96234   6.861  18.586  11.428
27762W        W96235  19.607  23.045  10.978
27763W        W96236  18.595   4.827   0.444
27764W        W96237  15.309  30.608   4.300
27765W        W96238  33.456  25.095  11.591
27766W        W96239  11.663  33.078   3.275
27767W        W96240  21.102  20.563   3.735
27768W        W96241  17.640  35.413  11.589
27769W        W96242  38.959   9.769  13.990
27770W        W96243  22.678  22.625  12.035
27771W        W96244  41.507  31.945   4.290
27772W        W96245  18.675  33.128   3.797
27773W        W96246  35.581   5.290   2.321
27774W        W96247  40.981  37.367   2.352
27775W        W96248  18.288  26.466  12.834
27776W        W96249  31.122  37.370   0.759
27777W        W96250  41.494  31.434   1.270
27778W        W96251  18.721  15.156   3.365
27779W        W96252   4.800  40.310   0.850
27780W        W96253  14.730  17.177  10.550
27781W        W96254  37.912   5.303  14.956
27782W        W96255  32.533   7.364  11.372
27783W        W96256  23.562   6.916   2.275
27784W        W96257  39.947  12.618  12.487
27785W        W96258   7.791  36.431  13.544
27786W        W96259  10.188  10.821  10.490
27787W        W96260  25.580  43.823  11.933
27788W        W96261  41.298  37.958  14.894
27789W        W96262  36.546  33.506  10.519
27790W        W96263  31.601  14.595   1.831
27791W        W96264   4.818  41.969   3.866
27792W        W96265  21.103  25.475   0.374
27793W        W96266   5.207  33.053   1.883
27794W        W96267  25.134  15.115  11.966
27795W        W96268  13.753   4.327   4.663
27796W        W96269  37.422  30.041   1.720
27797W        W96270  37.006  27.107   2.407
27798W        W96271  21.034   8.716  13.375
27799W        W96272  32.955   4.940   2.810
27800W        W96273  24.675  10.185   0.729
27801W        W96274  19.778  14.266  12.982
27802W        W96275  22.747  19.156  13.046
27803W        W96276  43.900  17.133  14.955
27804W        W96277  13.708  32.436   1.768
27805W        W96278  21.195  19.127  11.400
27806W        W96279  25.034  14.731   4.315
27807W        W96280   2.796  31.632   0.483
27808W        W96281   9.834  26.700  12.547
27809W        W96282  28.997  25.037   9.499
27810W        W96283  21.632  19.677  13.484
27811W        W96284  15.205  37.987  10.450
27812W        W96285  39.548  23.126  13.027
27813W        W96286   3.399  11.210   3.646
27814W        W96287   3.367  36.875  13.850
27815W        W96288  28.638  40.400   1.746
27816W        W96289  32.962  38.326   4.170
27817W        W96290  19.580  22.188  12.023
27818W        W96291  21.211  25.146   3.841
27819W        W96292  22.134   1.415   4.830
27820W        W96293  11.734  14.677  10.525
27821W        W96294   8.335  29.025  14.789
27822W        W96295  10.838  32.577   1.267
27823W        W96296   1.268  30.068   1.217
27824W        W96297  31.536  18.184  14.473
27825W        W96298  37.967   5.724  11.068
27826W        W96299  10.812  20.764   0.330
27827W        W96300   1.476  22.115   4.694
27828W        W96301  32.124  27.509   0.469
27829W        W96302  32.535  10.217   3.202
27830W        W96303  11.167  18.097   3.651
27831W        W96304  14.619   6.349   1.909
27832W        W96305  24.095  22.013  13.466
27833W        W96306  27.588   2.785   2.664
27834W        W96307   4.756  13.801  10.997
27835W        W96308  14.715  39.952  12.057
27836W        W96309  40.865  42.292  14.349
27837W        W96310  36.439  12.816  14.841
27838W        W96311  19.659  22.191  11.069
27839W        W96312  38.020  26.460   3.280
27840W        W96313  30.580  16.629   2.697
27841W        W96314  28.658  27.105   3.673
27842W        W96315  35.449  39.947   2.297
27843W        W96316  36.027  35.530  12.390
27844W        W96317  23.704  31.084  10.450
27845W        W96318  42.336  44.469  13.866
27846W        W96319  32.596  25.554  14.406
27847W        W96320  10.222  14.784   1.869
27848W        W96321   0.866   9.331   4.294
27849W        W96322   2.461  25.068  10.063
27850W        W96323  16.154  15.814  12.917
27851W        W96324  38.941  11.345  13.539
27852W        W96325  11.244  40.959  13.044
27853W        W96326   1.769  21.606  10.912
27854W        W96327  14.264  17.130   3.862
27855W        W96328  14.235  16.702  10.562
27856W        W96329  14.241  39.536   4.130
27857W        W96330  15.166  17.731   4.309
27858W        W96331  17.219  18.269   4.710
27859W        W96332  20.247   4.879   1.716
27860W        W96333  24.135  24.030  14.967
27861W        W96334   8.345  21.046  12.386
27862W        W96335  14.648   3.322   1.814
27863W        W96336  16.631  33.461   0.431
27864W        W96337  10.769  27.550   4.176
27865W        W96338   4.382  30.653  10.558
27866W        W96339  30.964  43.828  13.417
27867W        W96340   6.362  42.965  13.842
27868W        W96341  14.096   3.449   4.169
27869W        W96342   7.717  30.658   1.782
27870W        W96343  31.901  30.162  10.944
27871W        W96344   5.404  24.169   2.293
27872W        W96345  14.202   7.243  11.878
27873W        W96346  26.693   0.759   1.873
27874W        W96347   4.214   3.729  14.383
27875W        W96348   1.747  33.476   1.923
27876W        W96349  34.967  38.353  11.873
27877W        W96350   2.463  42.483  13.381
27878W        W96351  15.656  28.622  10.502
27879W        W96352  38.415  34.992  13.812
27880W        W96353  10.658  15.581  13.865
27881W        W96354  34.005  19.102  13.398
27882W        W96355  39.514   6.331  10.023
27883W        W96356  42.886  27.955  13.007
27884W        W96357   0.800  21.576   1.318
27885W        W96358  14.224   2.941   0.926
27886W        W96359  38.953  25.520  13.833
27887W        W96360  36.893  18.251  12.534
27888W        W96361  29.135  37.484   0.347
27889W        W96362  34.022  10.756  12.421
27890W        W96363  35.386  36.091   2.287
27891W        W96364   9.149  37.872   4.829
27892W        W96365  29.601   7.885  13.394
27893W        W96366   1.754  37.484  10.982
27894W        W96367   7.896  24.546  13.345
27895W        W96368  32.486  17.095  14.005
27896W        W96369  31.600   6.867   1.248
27897W        W96370   6.754   8.230   0.735
27898W        W96371  21.751   8.253  13.390
27899W        W96372  44.785  13.806  12.994
27900W        W96373  12.207  12.812   0.962
27901W        W96374  19.650  30.916  10.418
27902W        W96375   6.405  36.028   2.343
27903W        W96376  36.493  35.587   2.212
27904W        W96377  15.707  36.994  13.537
27905W        W96378  33.122  31.599  14.934
27906W        W96379  18.256   4.706   0.327
27907W        W96380   5.753  34.970   3.193
27908W        W96381   1.364  29.146  12.011
27909W        W96382  40.399  25.665   3.201
27910W        W96383  23.537  33.086  10.480
27911W        W96384  30.558  13.151   0.387
27912W        W96385  39.930   8.880  14.955
27913W        W96386  15.715  44.381   2.898
27914W        W96387  26.040  16.613  13.042
27915W        W96388  26.624  28.465  14.939
27916W        W96389   5.256  33.112  12.572
27917W        W96390  17.149  35.460   3.244
27918W        W96391   6.760  29.560   3.646
27919W        W96392   1.871  32.421  14.451
27920W        W96393   4.272  27.073   4.281
27921W        W96394   2.464  31.589  14.877
27922W        W96395  29.921   2.439  11.983
27923W        W96396   3.446  41.794  14.427
27924W        W96397  20.709  12.786   3.313
27925W        W96398  36.410  34.905  13.367
27926W        W96399  37.075   4.699  12.395
27927W        W96400  35.049   9.194  11.875
27928W        W96401   1.747   5.307  10.542
27929W        W96402  17.571  12.777  13.540
27930W        W96403  18.276  39.828   3.720
27931W        W96404  22.650  41.979  13.003
27932W        W96405   7.225  20.089  10.924
27933W        W96406  31.459  18.659  12.967
27934W        W96407   4.220  22.747  14.362
27935W        W96408  37.491   4.205  14.371
27936W        W96409  40.438  38.857  12.426
27937W        W96410   3.319  15.702  14.845
27938W        W96411  16.746  12.349   3.261
27939W        W96412  16.142  37.903   4.145
27940W        W96413  10.648  18.666  12.499
27941W        W96414  21.174  21.692   3.683
27942W        W96415  17.150  12.792  14.860
27943W        W96416  32.983  29.170   3.321
27944W        W96417  35.985  18.673   0.312
27945W        W96418   3.744  12.615   5.221
27946W        W96419  43.306  20.184  13.310
27947W        W96420  36.397  12.355  13.942
27948W        W96421  24.689  40.848  14.944
27949W        W96422   4.900  26.156  11.970
27950W        W96423  32.931  37.453   2.207
27951W        W96424  16.112  31.560   3.740
27952W        W96425  13.627  36.025  11.994
27953W        W96426  16.756  28.499   3.699
27954W        W96427  26.053  32.957  11.076
27955W        W96428  44.993  18.230  13.921
27956W        W96429  20.083  40.510  12.039
27957W        W96430   6.274  16.777  13.410
27958W        W96431  31.116  16.632  10.440
27959W        W96432  25.608  12.687   5.256
27960W        W96433  23.726  27.195   4.298
27961W        W96434  19.704   2.734  14.956
27962W        W96435  36.912  12.119  12.460
27963W        W96436   1.864  32.999   3.359
27964W        W96437  33.597  26.114  12.470
27965W        W96438   3.840  20.738  11.960
27966W        W96439   5.812  22.156  12.485
27967W        W96440  33.902  32.513  11.515
27968W        W96441   6.825   3.249  12.055
27969W        W96442  11.687  43.798  12.937
27970W        W96443  36.421  37.070  12.967
27971W        W96444  31.410  21.658  10.443
27972W        W96445   3.422  22.252  13.972
27973W        W96446   9.349  15.186   0.736
27974W        W96447  32.101  13.155   1.382
27975W        W96448  20.255  35.363  11.411
27976W        W96449  25.129  34.012   1.248
27977W        W96450  15.674  34.058   4.314
27978W        W96451  15.158   2.380  11.856
27979W        W96452  24.194  40.538  11.378
27980W        W96453  34.080  38.893  14.981
27981W        W96454  24.147  17.104   3.251
27982W        W96455   4.417  24.638   0.431
27983W        W96456  11.739  35.089   0.472
27984W        W96457  32.443  31.095  11.103
27985W        W96458   2.230  14.177  11.877
27986W        W96459  42.000   4.799  10.027
27987W        W96460   6.858  35.936   4.234
27988W        W96461  13.827  12.683   3.159
27989W        W96462  23.142  31.015   1.831
27990W        W96463   9.769  20.079   4.199
27991W        W96464  20.181  16.694  11.125
27992W        W96465  43.332  37.517  13.409
27993W        W96466  36.041  38.458  14.382
27994W        W96467  37.999  12.821  12.912
27995W        W96468  19.718  41.994  13.902
27996W        W96469  29.468  38.969  12.872
27997W        W96470  21.560  40.822  12.890
27998W        W96471  32.977  40.346   2.838
27999W        W96472   6.843  26.577  14.877
28000W        W96473  29.942  30.143   1.914
28001W        W96474   9.205   5.856   4.743
28002W        W96475  22.733  43.960   1.856
28003W        W96476  33.443  41.868  12.980
28004W        W96477  32.528  38.483  10.536
28005W        W96478  33.088   2.957   1.365
28006W        W96479  36.505  26.600  10.462
28007W        W96480   9.238  22.661  10.070
28008W        W96481  24.988  31.445  11.508
28009W        W96482  40.342   4.792  14.400
28010W        W96483  30.152  15.699  12.558
28011W        W96484  10.835  13.291  13.311
28012W        W96485  20.162  13.184  11.436
28013W        W96486   2.454  27.544   1.329
28014W        W96487  16.254  35.985   4.735
28015W        W96488  15.093  40.828   5.705
28016W        W96489  40.313  24.706   4.289
28017W        W96490  22.699  24.644   2.871
28018W        W96491  10.219  26.046   2.675
28019W        W96492  40.028  27.518   3.304
28020W        W96493   1.256  39.957  11.572
28021W        W96494  17.669   1.482   2.724
28022W        W96495  28.977  34.104   4.698
28023W        W96496  34.460   6.309   0.443
28024W        W96497  10.694  42.310   4.601
28025W        W96498  34.875   6.908  12.529
28026W        W96499   5.768  24.185  14.328
28027W        W96500  34.870  29.625  13.469
28028W        W96501  42.330  39.434   0.392
28029W        W96502  30.984  11.711  11.599
28030W        W96503   7.839  27.675  13.049
28031W        W96504  20.052  39.494  13.864
28032W        W96505  40.931  36.390   1.413
28033W        W96506  25.645  10.345   1.328
28034W        W96507  28.031  28.598  13.404
28035W        W96508  13.649  17.263  12.437
28036W        W96509   4.860   9.861   3.241
28037W        W96510  17.107  23.576  11.108
28038W        W96511  22.675  35.874   0.440
28039W        W96512  26.659   6.196   1.747
28040W        W96513  23.237  38.824  13.051
28041W        W96514  44.000   3.858   2.734
28042W        W96515   5.711  22.525  13.309
28043W        W96516  35.499   6.847   1.213
28044W        W96517  33.513   3.869  12.833
28045W        W96518  15.311  30.927   1.771
28046W        W96519  17.170  12.691   1.720
28047W        W96520   0.848  41.891  11.405
28048W        W96521  25.080   7.342   3.752
28049W        W96522  32.521  18.714   0.821
28050W        W96523  21.106   2.330   5.085
28051W        W96524  39.339   7.241   5.294
28052W        W96525  38.949  21.161  10.624
28053W        W96526   5.780   8.185   2.257
28054W        W96527  10.834  38.860  10.089
28055W        W96528  17.686  20.565  11.454
28056W        W96529  33.013   3.875   1.821
28057W        W96530  11.245  29.949  12.868
28058W        W96531  33.601  43.391   5.146
28059W        W96532  23.572  39.526   1.911
28060W        W96533   2.331  39.412   3.344
28061W        W96534  19.635   5.924   3.717
28062W        W96535  27.034  14.746  12.868
28063W        W96536   2.310  44.405  11.857
28064W        W96537  23.711  39.928  12.979
28065W        W96538   7.682  10.744   4.694
28066W        W96539  19.279  38.525   0.740
28067W        W96540   9.212  14.166  12.438
28068W        W96541  15.717   0.397   1.411
28069W        W96542   7.688   6.891   3.304
28070W        W96543  22.115  32.399   2.683
28071W        W96544   3.257   9.888  12.833
28072W        W96545  27.660  16.152   0.340
28073W        W96546  16.595  27.967   2.269
28074W        W96547  37.883  27.654  12.522
28075W        W96548  11.707  39.360   0.441
28076W        W96549   0.331  13.256  13.898
28077W        W96550  14.597  33.910   3.350
28078W        W96551   8.374  32.142  11.415
28079W        W96552  22.503  29.616   0.873
28080W        W96553  28.469  30.511   3.287
28081W        W96554  20.600  34.580   1.911
28082W        W96555  15.737  25.661  14.394
28083W        W96556  22.643  44.471  13.052
28084W        W96557  35.007  43.781  11.908
28085W        W96558  34.497  37.346  13.022
28086W        W96559  40.955  12.821   4.655
28087W        W96560  37.565   9.344  10.905
28088W        W96561  10.344  38.363   0.257
28089W        W96562   8.740  40.001  14.490
28090W        W96563  25.026  29.965   0.368
28091W        W96564  16.114  40.480   9.964
28092W        W96565   4.808   8.862   5.321
28093W        W96566  12.817  39.408   3.663
28094W        W96567  32.055   7.317  11.118
28095W        W96568   7.787  34.946   3.757
28096W        W96569  21.713  25.510   4.307
28097W        W96570  24.648  44.888   4.154
28098W        W96571   0.310  21.113   2.231
28099W        W96572  43.334  20.164  12.427
28100W        W96573  27.970  36.864  12.360
28101W        W96574  33.540  18.708  12.052
28102W        W96575   8.734  29.542  11.585
28103W        W96576  21.717  15.791  13.816
28104W        W96577  17.208  19.177  12.069
28105W        W96578  32.126  31.427  13.497
28106W        W96579  38.513  12.625  13.400
28107W        W96580   7.678   9.794   0.887
28108W        W96581  10.283  32.591   0.251
28109W        W96582   5.336  32.937  10.947
28110W        W96583  33.580  43.988   1.262
28111W        W96584  34.995  18.576   4.211
28112W        W96585  36.513  19.090   2.350
28113W        W96586  31.523  11.817  10.485
28114W        W96587  26.176   8.404  14.451
28115W        W96588  35.401  27.166   4.261
28116W        W96589  16.100  42.864  11.955
28117W        W96590  30.439  23.701  12.456
28118W        W96591   2.884   4.437   1.297
28119W        W96592  34.530  15.823   3.338
28120W        W96593  38.522  17.068   4.148
28121W        W96594  17.588  41.333   1.353
28122W        W96595  25.008   2.830   4.691
28123W        W96596   7.227   0.427   2.829
28124W        W96597  31.599  40.488  12.395
28125W        W96598  10.650  21.754  14.433
28126W        W96599  34.470   8.701  11.592
28127W        W96600  22.600  44.407  10.450
28128W        W96601  30.578  38.359   4.779
28129W        W96602   0.827  30.991  10.474
28130W        W96603  43.431  34.453   1.904
28131W        W96604  41.515  26.687   3.254
28132W        W96605  21.239  41.330  13.828
28133W        W96606  29.958  32.029   0.445
28134W        W96607  27.159  11.623   4.832
28135W        W96608  23.646   0.317   3.250
28136W        W96609  16.781  29.995   4.347
28137W        W96610  15.194  23.217  12.507
28138W        W96611  36.982   0.433   3.376
28139W        W96612  20.146  25.570   4.743
28140W        W96613  12.325   2.309  14.921
28141W        W96614  26.686  21.565  10.476
28142W        W96615   8.166  21.200  14.286
28143W        W96616  27.110  40.009  13.969
28144W        W96617  38.970   1.782  12.833
28145W        W96618  25.650  30.489  12.353
28146W        W96619  25.036  24.492  14.818
28147W        W96620  29.665   0.755  10.588
28148W        W96621  23.216  14.110  11.987
28149W        W96622  30.631   6.257  11.442
28150W        W96623  43.516  23.132   0.749
28151W        W96624  30.938  20.211  13.033
28152W        W96625   6.775   3.841  14.025
28153W        W96626   4.874  10.306  12.403
28154W        W96627  25.041  16.649  14.860
28155W        W96628  21.535  26.955  11.001
28156W        W96629  28.023  27.587  13.348
28157W        W96630   2.757   5.815  11.598
28158W        W96631   1.775  43.821   1.924
28159W        W96632  39.814  14.593  12.558
28160W        W96633  25.179  14.738  13.440
28161W        W96634   1.963  27.601   3.831
28162W        W96635  32.947  20.130  14.784
28163W        W96636  36.016  16.245   4.752
28164W        W96637  20.256   5.853   0.392
28165W        W96638   5.349   8.892  10.932
28166W        W96639   4.732  33.966   0.410
28167W        W96640  29.073  40.519   0.285
28168W        W96641  27.494  38.041  10.537
28169W        W96642  42.832  29.645   4.304
28170W        W96643  12.831   2.233   0.824
28171W        W96644  30.491  33.497   4.220
28172W        W96645   2.439  28.637  10.540
28173W        W96646  27.546  33.030   4.812
28174W        W96647  13.291  24.610   1.309
28175W        W96648  34.024  20.213   1.767
28176W        W96649  38.958  33.953   2.299
28177W        W96650  33.435  38.852   0.823
28178W        W96651  21.172  31.101  14.907
28179W        W96652   0.746  42.921  12.466
28180W        W96653  11.315  15.294  13.944
28181W        W96654   6.402  41.833   3.665
28182W        W96655   3.267  25.691  14.761
28183W        W96656  40.799  20.605  13.498
28184W        W96657   7.399  13.211   5.087
28185W        W96658  44.934  14.145  14.307
28186W        W96659  14.619  41.300  11.024
28187W        W96660  28.089   3.760  11.474
28188W        W96661   8.172  34.868  13.353
28189W        W96662  25.193   3.455  14.787
28190W        W96663  17.734  29.543   0.789
28191W        W96664   7.884   1.423  14.801
28192W        W96665  14.199  17.723   2.780
28193W        W96666   6.804   0.342   0.442
28194W        W96667  36.405  33.482   2.837
28195W        W96668  22.014  27.999  12.870
28196W        W96669   0.297  12.312   2.785
28197W        W96670   3.311  40.385   2.262
28198W        W96671  13.295  20.039   2.229
28199W        W96672  35.380  34.539   2.848
28200W        W96673  44.817  43.395  13.019
28201W        W96674  33.564  19.570  12.823
28202W        W96675   4.410   6.233   5.640
28203W        W96676  24.139  13.727  12.404
28204W        W96677  36.561  37.573  11.948
28205W        W96678  13.308  18.557   4.147
28206W        W96679   0.849  27.078   4.188
28207W        W96680  29.988  25.110   3.194
28208W        W96681   8.710  39.403   4.674
28209W        W96682  13.644  30.910   4.758
28210W        W96683  43.878   8.708   1.885
28211W        W96684  22.027  10.251  12.016
28212W        W96685  18.697  32.466  12.558
28213W        W96686  29.033   7.774  13.020
28214W        W96687   2.425  24.591   0.770
28215W        W96688  26.082  29.139   4.704
28216W        W96689   5.852  24.679   1.864
28217W        W96690   8.398   4.703   1.851
28218W        W96691  30.647  22.561   4.292
28219W        W96692  14.185  20.155  10.556
28220W        W96693  17.671  26.128   4.124
28221W        W96694  22.227  18.702   2.752
28222W        W96695   5.398  17.181   0.903
28223W        W96696   1.807  20.674  13.988
28224W        W96697   5.206  15.577   0.752
28225W        W96698   1.731   1.802   1.320
28226W        W96699  11.777  40.339  13.490
28227W        W96700  43.990  36.431  14.016
28228W        W96701  41.882  33.527   4.705
28229W        W96702  13.793   0.928   4.263
28230W        W96703  41.431  10.326  14.389
28231W        W96704  26.989  15.282   0.780
28232W        W96705   8.400  10.259   0.290
28233W        W96706  27.619  22.162   1.337
28234W        W96707  26.147  20.624   4.324
28235W        W96708  34.600  17.259  10.999
28236W        W96709   0.268   2.795   3.303
28237W        W96710  24.003  15.083  13.495
28238W        W96711  44.887   0.756  14.417
28239W        W96712  38.031  19.195  13.816
28240W        W96713   4.357  42.299  10.477
28241W        W96714  30.143  32.554   2.350
28242W        W96715  43.423   6.393   4.790
28243W        W96716  26.038   0.793  14.776
28244W        W96717   2.371  16.224   3.156
28245W        W96718  11.668   7.668   0.463
28246W        W96719  13.763   9.806   4.144
28247W        W96720   5.902   1.287   4.252
28248W        W96721   4.851  18.192   3.197
28249W        W96722  25.686  36.946  11.037
28250W        W96723  17.113  25.064  10.997
28251W        W96724  43.789  43.016   3.849
28252W        W96725   4.929  30.029  13.983
28253W        W96726  16.734  30.938   4.631
28254W        W96727  34.397  35.023  14.888
28255W        W96728  24.585  16.792  14.859
28256W        W96729  25.048   3.753  14.955
28257W        W96730  17.292  43.768  13.514
28258W        W96731  34.933  29.087  14.951
28259W        W96732  44.998  34.869  12.435
28260W        W96733  36.026   0.865  12.025
28261W        W96734   7.694   5.352   4.754
28262W        W96735  38.461  39.930  11.571
28263W        W96736   5.360   7.218   0.391
28264W        W96737  24.006  34.467   2.302
28265W        W96738  35.956  30.000   1.291
28266W        W96739   2.848   0.454   1.906
28267W        W96740  42.290  16.242   4.808
28268W        W96741  42.008  24.013  11.016
28269W        W96742   4.424  15.661  12.500
28270W        W96743  24.595  27.983  12.447
28271W        W96744  40.032  39.815   2.710
28272W        W96745   1.874  11.688   2.310
28273W        W96746  38.408  17.696   1.402
28274W        W96747  38.926  24.526   2.234
28275W        W96748  43.445  10.679  12.427
28276W        W96749  41.356  14.653  12.009
28277W        W96750  26.606  29.078   1.901
28278W        W96751  25.157  23.068  13.481
28279W        W96752   1.421  12.738   0.916
28280W        W96753  28.507  40.498  10.438
28281W        W96754   0.784  28.935   3.672
28282W        W96755  19.137  38.427  13.503
28283W        W96756  24.218  14.335   0.458
28284W        W96757  26.100   9.335  14.899
28285W        W96758  36.410  15.230  14.775
28286W        W96759  31.505   9.198   1.861
28287W        W96760  28.561  36.908  12.345
28288W        W96761  28.032  15.145  13.023
28289W        W96762  38.414  34.876   0.871
28290W        W96763  41.503  33.984  13.511
28291W        W96764  37.547  38.508  14.929
28292W        W96765  32.019  28.987   2.230
28293W        W96766  23.635   5.419  14.782
28294W        W96767  41.897   7.866   1.860
28295W        W96768   8.193  26.200  12.556
28296W        W96769  16.742   5.777   2.334
28297W        W96770   2.423  27.002  13.496
28298W        W96771  22.661  35.506   2.281
28299W        W96772   7.692  29.928   3.806
28300W        W96773  33.474  28.604  11.862
28301W        W96774   1.352  33.461   1.331
28302W        W96775  38.949  44.813   1.422
28303W        W96776  12.274  13.805  13.981
28304W        W96777  13.754  30.058   3.861
28305W        W96778  17.205  20.731  10.423
28306W        W96779  28.030  37.466   3.757
28307W        W96780  22.624  36.089   1.283
28308W        W96781  28.612  20.208   3.335
28309W        W96782  41.791  41.024  12.350
28310W        W96783  36.350  18.739   2.885
28311W        W96784  17.790   7.288   3.225
28312W        W96785  15.768  18.626  13.357
28313W        W96786  18.100   6.395   2.196
28314W        W96787  35.890  14.761  10.949
28315W        W96788   0.939  12.223   3.774
28316W        W96789   1.862  18.555   0.401
28317W        W96790  23.565   7.396   0.466
28318W        W96791  39.927  14.133   4.679
28319W        W96792  20.645   3.862   0.866
28320W        W96793  30.633  26.581  10.898
28321W        W96794  27.090  11.317   0.403
28322W        W96795  17.243  34.916   5.139
28323W        W96796  44.781  24.532   4.663
28324W        W96797  13.159  26.000  13.872
28325W        W96798  29.646   2.265   5.097
28326W        W96799   7.737  25.056  14.417
28327W        W96800  38.991   2.771   5.263
28328W        W96801   2.816  38.340   4.630
28329W        W96802  11.335   1.321   3.306
28330W        W96803  16.235  18.768  13.958
28331W        W96804   8.245  11.740  10.903
28332W        W96805  35.451  30.131   1.851
28333W        W96806   3.922  14.800   3.260
28334W        W96807  30.950   2.374  10.498
28335W        W96808  33.459  26.459  11.416
28336W        W96809  15.121  19.640   4.731
28337W        W96810  16.301  22.097   0.765
28338W        W96811  37.908  13.322   0.459
28339W        W96812  28.019  19.559   0.330
28340W        W96813  28.032  24.624   4.137
28341W        W96814  34.500   1.784  11.040
28342W        W96815   9.288  14.304  11.411
28343W        W96816   4.343  13.795   3.646
28344W        W96817  14.264  12.306   0.739
28345W        W96818  35.391  19.717   1.242
28346W        W96819  14.287  19.122   1.770
28347W        W96820  32.120  15.225   3.352
28348W        W96821  14.270  29.489  11.888
28349W        W96822  21.171  31.022   1.721
28350W        W96823  30.027  11.286   2.221
28351W        W96824   2.404  35.108  14.870
28352W        W96825   5.276  35.556  13.866
28353W        W96826  37.546   7.233   3.381
28354W        W96827  12.764  19.183  11.995
28355W        W96828  41.347  25.536   2.859
28356W        W96829  30.037  43.891  13.441
28357W        W96830  12.794   3.859  11.444
28358W        W96831  41.332  33.454  13.378
28359W        W96832   8.745  30.161   1.754
28360W        W96833   7.829  13.229  11.064
28361W        W96834  35.404  35.564  11.910
28362W        W96835  15.795  24.070  14.890
28363W        W96836  20.596  40.382  13.037
28364W        W96837  10.658  35.879  14.785
28365W        W96838  20.053  13.805  12.056
28366W        W96839  10.845  44.890  14.860
28367W        W96840   8.710  41.456  14.977
28368W        W96841  31.406  39.489   1.776
28369W        W96842  36.049  31.402   3.334
28370W        W96843  23.987  23.637   1.866
28371W        W96844  10.258  35.408  10.521
28372W        W96845  37.352   7.912   1.351
28373W        W96846  30.556  14.188  11.114
28374W        W96847   2.957   6.702   1.269
28375W        W96848  34.940  32.975  13.408
28376W        W96849  31.506  29.542   1.785
28377W        W96850  19.201   7.340  12.853
28378W        W96851  24.214  14.685   5.165
28379W        W96852  38.919  35.598   2.247
28380W        W96853  17.228   1.460  13.445
28381W        W96854  29.026  20.128  10.498
28382W        W96855  19.533  35.921   2.351
28383W        W96856   2.769  18.599  11.106
28384W        W96857  11.731   5.193   2.414
28385W        W96858   6.804  10.691  10.901
28386W        W96859  24.219  41.944  15.000
28387W        W96860  20.737   8.353   3.188
28388W        W96861   1.963  42.867  14.344
28389W        W96862   4.390  14.825  10.524
28390W        W96863  37.355  28.982   4.301
28391W        W96864  41.862  35.436   2.722
28392W        W96865  16.314  16.757  11.603
28393W        W96866  30.613  12.116  14.375
28394W        W96867  40.924  38.062   4.776
28395W        W96868  32.448  14.168   3.676
28396W        W96869  16.655  16.581  14.276
28397W        W96870  13.317  43.427   4.689
28398W        W96871  44.501  30.484  10.976
28399W        W96872  19.191  40.873   0.399
28400W        W96873  31.445   6.201  11.514
28401W        W96874  25.677  34.461   2.404
28402W        W96875  24.529  40.420  14.495
28403W        W96876  31.107   2.462   2.797
28404W        W96877   7.410  41.947  13.473
28405W        W96878  36.023   4.894  14.307
28406W        W96879  24.694  18.062   3.342
28407W        W96880   4.900  28.110   2.849
28408W        W96881  10.268  28.460   2.709
28409W        W96882  31.584  36.534   2.772
28410W        W96883  44.344   0.879  14.876
28411W        W96884  18.648  17.662   2.793
28412W        W96885   4.416  33.397  10.639
28413W        W96886  40.455  37.479  11.451
28414W        W96887  25.183  39.391   1.377
28415W        W96888   4.899  20.678   0.409
28416W        W96889  33.085   0.491   1.903
28417W        W96890  25.588  34.406  11.406
28418W        W96891   0.324   9.698  12.393
28419W        W96892   4.781  38.351   2.215
28420W        W96893  28.595  13.318   0.794
28421W        W96894  20.737  25.964  13.400
28422W        W96895  25.615   5.915   1.322
28423W        W96896   1.406  15.592  13.911
28424W        W96897  21.554  43.403  13.897
28425W        W96898   8.756  30.615  14.907
28426W        W96899  24.109  16.617   0.811
28427W        W96900  12.756  28.517   3.672
28428W        W96901  41.348  30.612   2.251
28429W        W96902  26.500  37.842   1.800
28430W        W96903   3.791  34.408  10.467
28431W        W96904   4.300  34.536   0.347
28432W        W96905  31.029  14.594  12.982
28433W        W96906   8.331  32.898  14.460
28434W        W96907  39.375   9.395  11.065
28435W        W96908  16.731  33.997   1.929
28436W        W96909  26.534  39.365   0.831
28437W        W96910   5.282   0.826  13.034
28438W        W96911  14.652  13.788  11.612
28439W        W96912   4.713  44.879   2.219
28440W        W96913  27.473  33.951  14.857
28441W        W96914  23.191  10.726  13.852
28442W        W96915  25.197  35.604   2.673
28443W        W96916  22.504   6.291  12.339
28444W        W96917   2.358  10.820  11.535
28445W        W96918   6.394  43.863  11.600
28446W        W96919   4.398  14.754   5.238
28447W        W96920  28.671  44.277   1.742
28448W        W96921  11.844  39.352   3.810
28449W        W96922  17.568  23.525  12.354
28450W        W96923  14.634   4.937   1.890
28451W        W96924  20.760  26.565   3.298
28452W        W96925  40.510   6.905  13.881
28453W        W96926  27.118  26.544   3.205
28454W        W96927  24.589  21.649  13.857
28455W        W96928   0.830  42.940   0.336
28456W        W96929  42.323  22.676  11.047
28457W        W96930  28.609  23.558  14.809
28458W        W96931   0.414  25.034   1.267
28459W        W96932  21.525  29.173  10.888
28460W        W96933   0.782   3.943   1.788
28461W        W96934  22.564  22.613  12.485
28462W        W96935   6.761  24.113  13.516
28463W        W96936  17.800  40.901   3.162
28464W        W96937  15.127  22.722  10.931
28465W        W96938  14.773   2.237   2.419
28466W        W96939  27.541  28.603   1.866
28467W        W96940  21.523  40.915   4.325
28468W        W96941  10.814  36.974  11.108
28469W        W96942  44.342  17.081   1.440
28470W        W96943  39.820  42.510  10.971
28471W        W96944   0.799  20.251   1.443
28472W        W96945  38.373  33.550   9.990
28473W        W96946  32.102  17.787  11.545
28474W        W96947   7.322  21.216  13.904
28475W        W96948  22.745  42.809  13.479
28476W        W96949   9.814  42.011  11.507
28477W        W96950  37.927   4.918   4.138
28478W        W96951  24.162  24.214  12.420
28479W        W96952  24.697  24.045   2.843
28480W        W96953   7.777  16.736  12.890
28481W        W96954  37.483  31.072  10.932
28482W        W96955  42.513  41.838  13.389
28483W        W96956  20.046  39.556  12.482
28484W        W96957  13.317  33.962  10.899
28485W        W96958  14.119  26.201   3.836
28486W        W96959  35.504  25.706   3.837
28487W        W96960  35.063  40.529  12.850
28488W        W96961  24.499  42.475  14.929
28489W        W96962  41.851  44.305   3.198
28490W        W96963   2.441  27.077   4.668
28491W        W96964  10.188  24.691  12.400
28492W        W96965  26.157  29.552  10.960
28493W        W96966  19.226  29.555  13.405
28494W        W96967  36.546   7.732   3.787
28495W        W96968  10.369  28.999   4.690
28496W        W96969  34.510  27.590  11.110
28497W        W96970  16.787  34.985   3.666
28498W        W96971  16.314  20.098  11.965
28499W        W96972  13.715  35.072   1.776
28500W        W96973  33.963   0.942  11.439
28501W        W96974  41.018   8.354  10.591
28502W        W96975  10.853  10.685  13.398
28503W        W96976   3.873  42.970   3.252
28504W        W96977  38.988   2.817   3.382
28505W        W96978  33.003  12.125   1.695
28506W        W96979  13.726  34.087  10.456
28507W        W96980  29.922  20.726  11.029
28508W        W96981  23.204  27.507  12.418
28509W        W96982  21.123  30.556   2.786
28510W        W96983  40.802  27.633   3.324
28511W        W96984  11.367  36.542   0.280
28512W        W96985  32.132  22.188   4.256
28513W        W96986  16.076  34.600  14.450
28514W        W96987  28.464  25.156  14.897
28515W        W96988  24.677  42.872   4.286
28516W        W96989   9.305  14.702  12.856
28517W        W96990  40.391  38.048   3.868
28518W        W96991  40.891  21.253  13.039
28519W        W96992  31.627  29.054   1.897
28520W        W96993  27.073  31.517   3.252
28521W        W96994  26.071  43.275   4.809
28522W        W96995  18.749  34.078  13.427
28523W        W96996  11.174  13.299   4.242
28524W        W96997   0.457  29.593  14.345
28525W        W96998   9.786  22.720  12.885
28526W        W96999  28.022  34.523  13.891
28527W        W97000  11.218   0.981   0.433
28528W        W97001  25.044   5.787   0.900
28529W        W97002  25.615  10.334  11.481
28530W        W97003  26.479   8.656  14.293
28531W        W97004  12.347  15.325  12.959
28532W        W97005  27.995  10.746  14.323
28533W        W97006  21.133  41.819  11.025
28534W        W97007  39.814  27.073   4.206
28535W        W97008  28.470   0.835   1.359
28536W        W97009  23.082  16.073  10.533
28537W        W97010  44.808   3.238   2.765
28538W        W97011  14.730  30.644   2.717
28539W        W97012  14.757  35.885  10.621
28540W        W97013  38.067  27.160   4.310
28541W        W97014  16.230   6.410   3.788
28542W        W97015  43.411  36.421  12.885
28543W        W97016  40.928  29.464   4.780
28544W        W97017  30.145  13.620   2.869
28545W        W97018  26.995  29.050  13.928
28546W        W97019  38.428  35.983   0.949
28547W        W97020  40.022   6.894  12.833
28548W        W97021  20.222  36.451   1.341
28549W        W97022  19.094   3.946   0.767
28550W        W97023  29.042  10.357  13.548
28551W        W97024  23.206  10.365   2.901
28552W        W97025   7.300   9.744  11.608
28553W        W97026   9.819   6.865  10.546
28554W        W97027  31.488  32.904  12.562
28555W        W97028  43.889  29.623   3.147
28556W        W97029   6.393  28.933  14.397
28557W        W97030  41.370  18.189  11.425
28558W        W97031  13.769  30.057   0.398
28559W        W97032   8.388  16.259  14.786
28560W        W97033  40.025  12.704  11.107
28561W        W97034  43.845  21.146   4.163
28562W        W97035   2.723  30.104   0.728
28563W        W97036  40.339  26.536  11.023
28564W        W97037  36.925  13.816  11.424
28565W        W97038  32.007   2.783   1.298
28566W        W97039  15.286   9.704   1.431
28567W        W97040  24.658   7.715  10.617
28568W        W97041  13.302   7.206   4.761
28569W        W97042  43.945   9.172   3.827
28570W        W97043  16.280   9.323  14.309
28571W        W97044  41.443  28.566   2.767
28572W        W97045  25.046  28.946   2.290
28573W        W97046  20.626  28.547   1.268
28574W        W97047  24.156  29.951  12.072
28575W        W97048  43.357  39.441  14.408
28576W        W97049  14.306  13.664   4.723
28577W        W97050  43.784  34.498   1.347
28578W        W97051  15.767  40.896   4.658
28579W        W97052   1.404  16.706   4.194
28580W        W97053  32.138  19.590   2.416
28581W        W97054   9.785   4.382  12.059
28582W        W97055  15.805  18.766   3.749
28583W        W97056  34.613  34.970  11.976
28584W        W97057  38.974  23.224  12.520
28585W        W97058  29.491  26.207   3.729
28586W        W97059  17.800  28.455   3.374
28587W        W97060   6.363   6.183   2.243
28588W        W97061  20.526   8.266  11.998
28589W        W97062  18.154  33.934  13.807
28590W        W97063  16.146  37.569  13.903
28591W        W97064  39.371  33.909   4.166
28592W        W97065  44.300   7.213  10.917
28593W        W97066  38.899  18.073  14.978
28594W        W97067  14.724  39.333   3.738
28595W        W97068  20.619  19.138  14.869
28596W        W97069  25.557  27.564  12.923
28597W        W97070  17.144  34.377  11.964
28598W        W97071  18.660   2.312  12.498
28599W        W97072  39.938  23.037  12.964
28600W        W97073   2.861   5.859   1.819
28601W        W97074  42.411  20.243  12.063
28602W        W97075   8.276  32.605   2.335
28603W        W97076   0.445  26.544   0.329
28604W        W97077  22.555  14.180   1.223
28605W        W97078  25.963  24.168  10.413
28606W        W97079  39.827  28.973   0.806
28607W        W97080   5.321  10.162   3.317
28608W        W97081  33.957  14.774  14.950
28609W        W97082  38.460  40.526  11.112
28610W        W97083   9.840  18.251  10.547
28611W        W97084  19.753  38.836   4.205
28612W        W97085   9.191  40.972  11.018
28613W        W97086  32.902  26.068   0.827
28614W        W97087  26.117  31.968   1.317
28615W        W97088  13.783  23.576  12.385
28616W        W97089  25.188  26.157  10.405
28617W        W97090  35.538  15.629   3.842
28618W        W97091  26.515  23.669  11.920
28619W        W97092  10.805  33.100   2.745
28620W        W97093  33.404   4.811   3.307
28621W        W97094  35.396  23.710   1.905
28622W        W97095  25.624  33.935   4.837
28623W        W97096  35.433  41.967   3.787
28624W        W97097  35.073  12.712  13.322
28625W        W97098   3.724  44.768  14.013
28626W        W97099   5.697  38.337   2.220
28627W        W97100  35.475   8.347  12.978
28628W        W97101  39.473  16.103  11.021
28629W        W97102  17.591  38.918   3.237
28630W        W97103   7.885   8.833   0.824
28631W        W97104  40.317  26.004   1.274
28632W        W97105  40.423  15.246  12.429
28633W        W97106   0.904  29.506   2.413
28634W        W97107   3.458  30.560   1.825
28635W        W97108  34.996  17.656  12.438
28636W        W97109  42.338  17.615  12.350
28637W        W97110  12.166  20.554   1.382
28638W        W97111   5.432  25.554   4.635
28639W        W97112  32.408   2.237   1.848
28640W        W97113  25.658  13.239   0.792
28641W        W97114  43.454  17.246  11.081
28642W        W97115  21.250  21.043  10.618
28643W        W97116  13.312  37.385   3.647
28644W        W97117  15.793   6.303   4.706
28645W        W97118  37.413  24.646   4.162
28646W        W97119  15.110   7.197   3.346
28647W        W97120  44.757   6.853   0.314
28648W        W97121  12.210  18.653   2.275
28649W        W97122   3.928   3.391  14.821
28650W        W97123  33.958  22.572  14.322
28651W        W97124   1.363  38.001  12.090
28652W        W97125  42.343  33.001  11.488
28653W        W97126   5.413  17.243  14.476
28654W        W97127  41.003  34.570  13.035
28655W        W97128  41.862  43.419   0.361
28656W        W97129  24.026  33.040  10.967
28657W        W97130  39.497  41.492   0.313
28658W        W97131  41.343  10.733  10.956
28659W        W97132   5.348  18.561  10.997
28660W        W97133  31.951  42.964   3.280
28661W        W97134  24.079  22.719   2.860
28662W        W97135  28.606  23.660   3.275
28663W        W97136   0.378   7.252  12.025
28664W        W97137   9.748  19.749  11.023
28665W        W97138  42.879  35.561  14.958
28666W        W97139  23.196  38.426   2.858
28667W        W97140  23.543  33.425   4.828
28668W        W97141  31.074  13.671   4.274
28669W        W97142  10.742  12.810   0.389
28670W        W97143  29.643  28.151   2.335
28671W        W97144  38.523   3.762   4.309
28672W        W97145  17.235  23.550  10.576
28673W        W97146  38.442  30.559  13.965
28674W        W97147  35.031  22.049   4.306
28675W        W97148  41.479   3.846   4.818
28676W        W97149  37.033  16.775   0.402
28677W        W97150  21.104  34.072  12.882
28678W        W97151  39.434  34.371  13.063
28679W        W97152  34.543  12.317   4.742
28680W        W97153  38.377  31.103  12.025
28681W        W97154  26.652   7.702  12.926
28682W        W97155  34.099  14.784   1.308
28683W        W97156  39.515  26.016   3.261
28684W        W97157  15.770  17.181   2.770
28685W        W97158  19.753  35.435  14.443
28686W        W97159   9.731   0.905   3.245
28687W        W97160  21.706  27.611  12.019
28688W        W97161  19.633  22.595  10.605
28689W        W97162   7.330   8.305  11.093
28690W        W97163  41.826  31.137   0.736
28691W        W97164  30.485  37.973   4.116
28692W        W97165   3.924   3.324  14.500
28693W        W97166  36.485  33.951   0.326
28694W        W97167   5.397  30.165   1.418
28695W        W97168   1.326  14.662  10.571
28696W        W97169   9.223  23.616   3.644
28697W        W97170  19.533  41.807  12.463
28698W        W97171  34.393  38.847   4.693
28699W        W97172  34.893  17.757  14.983
28700W        W97173  40.388   3.787  13.846
28701W        W97174  39.898  13.740  12.444
28702W        W97175  27.978   5.423   0.853
28703W        W97176  13.165  34.863  13.037
28704W        W97177   8.703  37.424   2.393
28705W        W97178  40.898   0.905  13.449
28706W        W97179   6.284  39.390  11.390
28707W        W97180  20.623  43.824   0.379
28708W        W97181  13.198  32.392   1.363
28709W        W97182   5.718  40.898  13.476
28710W        W97183  40.922  42.404   3.296
28711W        W97184  17.274   6.723   4.696
28712W        W97185   9.838  17.103   3.326
28713W        W97186   3.282  32.034  12.538
28714W        W97187   4.375   0.980   2.350
28715W        W97188  27.104  29.437  10.494
28716W        W97189  41.521   7.412   4.831
28717W        W97190  19.696  32.477  14.392
28718W        W97191   9.353  36.063  11.567
28719W        W97192  41.820   6.277  13.351
28720W        W97193  44.788  42.283   1.899
28721W        W97194   8.266  20.634   0.463
28722W        W97195  39.471  24.590  10.556
28723W        W97196  32.067  39.457   0.852
28724W        W97197  20.700   0.793  12.055
28725W        W97198  17.275  37.025  11.883
28726W        W97199  43.882  24.111  10.904
28727W        W97200  37.379  35.476  10.421
28728W        W97201  31.027  34.870  14.987
28729W        W97202  38.514  32.409   3.318
28730W        W97203  13.800  41.857  10.895
28731W        W97204  11.645   5.734  10.574
28732W        W97205  38.430  21.640  11.464
28733W        W97206  26.144  10.259  13.366
28734W        W97207   1.295   7.730  11.911
28735W        W97208  18.176  24.220   4.151
28736W        W97209   6.425  34.970   4.827
28737W        W97210  15.666  42.897  12.940
28738W        W97211  22.242  26.110   5.249
28739W        W97212  28.014  31.954  11.437
28740W        W97213   1.783  38.922   2.357
28741W        W97214  41.450  21.672   2.823
28742W        W97215  40.338  29.171  13.849
28743W        W97216  18.625  40.484   1.374
28744W        W97217   9.837  33.480  10.909
28745W        W97218  27.049  10.641  11.898
28746W        W97219  33.417  32.489  11.991
28747W        W97220  32.044  39.828  13.832
28748W        W97221  17.727  26.657  11.029
28749W        W97222  34.933  42.999  12.397
28750W        W97223  33.008  20.562  11.120
28751W        W97224   4.864  25.151  13.852
28752W        W97225  24.698   8.302   4.325
28753W        W97226  32.109  29.058  13.001
28754W        W97227  27.029  44.868   5.279
28755W        W97228   4.390   8.729  10.560
28756W        W97229  38.327  35.603   0.883
28757W        W97230  32.989   6.420  14.023
28758W        W97231  23.241  24.495   0.757
28759W        W97232   4.740  38.518  12.834
28760W        W97233  28.030  24.557  11.406
28761W        W97234  28.486  27.044   0.887
28762W        W97235  13.779  19.217  14.425
28763W        W97236  38.928  32.390  12.923
28764W        W97237  19.133  13.757  14.769
28765W        W97238   3.320  31.439  14.924
28766W        W97239  36.445   0.263   2.377
28767W        W97240  17.678  44.899   1.435
28768W        W97241   1.432   4.810  13.828
28769W        W97242   1.882  14.267  12.570
28770W        W97243   3.753  11.701  12.959
28771W        W97244   4.255  31.117  11.570
28772W        W97245  29.983  35.104  13.835
28773W        W97246  40.046  21.175  12.980
28774W        W97247  31.456  14.824   2.272
28775W        W97248   1.964   3.944  10.533
28776W        W97249  42.845  37.897  13.053
28777W        W97250   7.842  28.653  11.099
28778W        W97251   4.290  12.175   4.808
28779W        W97252   2.322   5.202   1.813
28780W        W97253  23.125  41.981  13.980
28781W        W97254  19.162  33.461   4.816
28782W        W97255  25.034  25.681  13.377
28783W        W97256   0.783  17.283  14.821
28784W        W97257  33.615  12.796  11.041
28785W        W97258  29.614  20.242   3.225
28786W        W97259  25.532  18.122   4.686
28787W        W97260  42.411  18.590   4.813
28788W        W97261   9.855  32.900   5.304
28789W        W97262  16.696  37.845  13.886
28790W        W97263  18.096  41.448   2.721
28791W        W97264  12.705  34.525   0.943
28792W        W97265  18.201   7.771   2.850
28793W        W97266  33.555  11.216   0.439
28794W        W97267  21.706  21.713   3.171
28795W        W97268  21.644  18.179  14.443
28796W        W97269  13.679  15.696  14.474
28797W        W97270  26.974   5.224   0.449
28798W        W97271  12.208   7.402  14.495
28799W        W97272  16.581  23.687  14.821
28800W        W97273  25.649   3.773  13.886
28801W        W97274  33.544  20.598  12.464
28802W        W97275   7.792  42.508  12.024
28803W        W97276  43.436  37.916  13.350
28804W        W97277  17.261  17.283   0.442
28805W        W97278   3.266  41.322   1.305
28806W        W97279  32.608  29.963   2.360
28807W        W97280  26.029   3.301   2.860
28808W        W97281  37.470  11.216  14.861
28809W        W97282  25.207  29.496   4.709
28810W        W97283  41.826  24.584  14.322
28811W        W97284  16.097  43.015   4.293
28812W        W97285  39.362  10.330   0.482
28813W        W97286  40.965  25.706  13.526
28814W        W97287  29.658   8.200   3.157
28815W        W97288   7.731  18.292   1.440
28816W        W97289  37.480  23.649   3.806
28817W        W97290  13.220  19.273   0.380
28818W        W97291  35.490  43.816   4.185
28819W        W97292  38.022  31.059  13.448
28820W        W97293  10.808  36.578  10.451
28821W        W97294   5.763  10.312  13.914
28822W        W97295   7.322  28.519  11.468
28823W        W97296  29.145  24.149   0.849
28824W        W97297   6.411   3.375   9.963
28825W        W97298  17.063  18.068  13.851
28826W        W97299  29.658  25.061  11.377
28827W        W97300  43.973   5.366  12.997
28828W        W97301  33.082  21.755   2.206
28829W        W97302  38.036  39.061  14.864
28830W        W97303  15.610   8.687   1.770
28831W        W97304  35.991   4.269  10.573
28832W        W97305  40.927   0.986   2.774
28833W        W97306  26.087   4.223  11.434
28834W        W97307  30.950  19.255   3.842
28835W        W97308  21.592  31.102   4.699
28836W        W97309  42.906  38.368   0.957
28837W        W97310  31.047  26.042  10.950
28838W        W97311  13.248  15.148   0.302
28839W        W97312  16.301  36.429  11.881
28840W        W97313  17.711  23.646   2.662
28841W        W97314  10.234  19.764  11.373
28842W        W97315  17.618  38.386   2.191
28843W        W97316   7.319  18.554  14.931
28844W        W97317  22.009   2.804  12.551
28845W        W97318  40.992  33.086  13.427
28846W        W97319   4.359  36.946   0.330
28847W        W97320  31.597  26.203  14.513
28848W        W97321  25.177  14.761  14.936
28849W        W97322   4.347  29.658   1.364
28850W        W97323  40.823  35.361   4.122
28851W        W97324  19.095  39.552  12.355
28852W        W97325  18.218  16.789  10.450
28853W        W97326  16.296  43.771   3.837
28854W        W97327  15.208  10.739   1.843
28855W        W97328   3.231   4.917   3.837
28856W        W97329  35.915  15.092  13.816
28857W        W97330  20.102  26.542   2.320
28858W        W97331  31.580   2.306   2.670
28859W        W97332  38.363  19.047  12.938
28860W        W97333  12.644  39.436   3.249
28861W        W97334  24.036   5.814  12.968
28862W        W97335  24.008   2.905   2.737
28863W        W97336   4.426  18.134   1.770
28864W        W97337  42.892  34.971  10.903
28865W        W97338  17.072   3.297   3.254
28866W        W97339  22.515  17.208  10.008
28867W        W97340  13.175  30.543   2.390
28868W        W97341  34.080   1.349  10.510
28869W        W97342  27.048  40.919   0.877
28870W        W97343  40.447  44.489   0.833
28871W        W97344  34.897  36.548   1.857
28872W        W97345   2.243  15.296   1.251
28873W        W97346   8.807  13.638  12.979
28874W        W97347  42.791  36.036   3.313
28875W        W97348  42.941   3.888  13.826
28876W        W97349   0.462  14.789  11.046
28877W        W97350   1.239  31.951   3.222
28878W        W97351  36.064  23.074   1.711
28879W        W97352  26.047  25.647   1.722
28880W        W97353  39.480   6.907  14.871
28881W        W97354   6.721   5.892   1.347
28882W        W97355  15.801  36.968  14.431
28883W        W97356   3.407  37.370  13.959
28884W        W97357   4.879   1.334   2.900
28885W        W97358  11.176  23.054  14.490
28886W        W97359  25.665   1.394   4.177
28887W        W97360  36.957  32.482  12.412
28888W        W97361  20.644   0.353   3.259
28889W        W97362  11.274  11.331  10.424
28890W        W97363  32.135  27.481   1.722
28891W        W97364  33.033  28.663   3.292
28892W        W97365  35.524   9.162  12.533
28893W        W97366  15.128  39.401  11.879
28894W        W97367  43.515  27.499  14.029
28895W        W97368  15.681  33.571   4.643
28896W        W97369  33.982  34.536   3.659
28897W        W97370   7.849  43.981  14.777
28898W        W97371  37.863   4.349   3.710
28899W        W97372  44.479  28.129  11.952
28900W        W97373  40.930  38.506  14.448
28901W        W97374  40.910  33.556  14.003
28902W        W97375  15.782  35.023  11.109
28903W        W97376  32.473  43.475  13.321
28904W        W97377   1.789  34.870   4.817
28905W        W97378  23.090   2.901  12.880
28906W        W97379  33.390  14.825  11.113
28907W        W97380   4.869  19.190  10.617
28908W        W97381   9.670  17.591  14.420
28909W        W97382  27.459  10.738   3.638
28910W        W97383   8.248  39.479  12.362
28911W        W97384  26.953  41.837  10.455
28912W        W97385   4.730  27.088   4.680
28913W        W97386  30.976  39.542   4.676
28914W        W97387   2.864  44.773   4.288
28915W        W97388   7.231   3.268  13.023
28916W        W97389  35.890  21.530   2.180
28917W        W97390  37.835  10.637   3.710
28918W        W97391  12.805  33.561  11.009
28919W        W97392   3.300  34.417   3.836
28920W        W97393   1.266   3.955  12.420
28921W        W97394  20.223  10.346  14.839
28922W        W97395   3.404   8.269  12.476
28923W        W97396  27.508  33.412  10.581
28924W        W97397   2.801  44.844   4.609
28925W        W97398  39.900   3.721   3.759
28926W        W97399  34.025  10.312   0.422
28927W        W97400  40.913  20.058  11.445
28928W        W97401   2.768   0.908   0.445
28929W        W97402  32.483   8.226   4.819
28930W        W97403  44.504   8.729   4.740
28931W        W97404  43.443  34.877  14.474
28932W        W97405  32.631  15.739  12.915
28933W        W97406  27.652  39.949   4.258
28934W        W97407   1.443  40.311   4.290
28935W        W97408   8.720  34.873  13.503
28936W        W97409  10.295  18.121  10.548
28937W        W97410   8.662  32.569  13.411
28938W        W97411  11.353  26.037   1.780
28939W        W97412  36.855   1.911   2.723
28940W        W97413  18.050   6.225  13.804
28941W        W97414  23.043   6.252  11.961
28942W        W97415  36.542  40.013   1.716
28943W        W97416  41.436   7.855   3.756
28944W        W97417  10.704   5.897  10.411
28945W        W97418   4.434  10.665   1.347
28946W        W97419  20.522  17.211  11.376
28947W        W97420  26.604  22.129  12.406
28948W        W97421  23.147   3.222   3.639
28949W        W97422  41.501  23.039   4.140
28950W        W97423  18.776  27.041   0.753
28951W        W97424  39.532  21.730  11.572
28952W        W97425  16.211  33.949   4.707
28953W        W97426  23.107   0.317   4.268
28954W        W97427  31.479  10.382  12.958
28955W        W97428  32.005  38.418  11.921
28956W        W97429   5.801  13.281   1.276
28957W        W97430  18.179  34.457   0.942
28958W        W97431  18.683  21.639   0.331
28959W        W97432   9.259  16.315  10.994
28960W        W97433  40.991  27.141  14.933
28961W        W97434  36.483  42.379   2.785
28962W        W97435  17.191  34.058   2.210
28963W        W97436  32.033  44.501   3.730
28964W        W97437  34.611   9.201   4.781
28965W        W97438  30.068  25.046  14.962
28966W        W97439  20.248  18.122  11.055
28967W        W97440  12.361  17.699   2.889
28968W        W97441   1.430   0.260   4.213
28969W        W97442   1.949  41.979  12.069
28970W        W97443  35.032  38.871   0.877
28971W        W97444  18.647  42.482  12.432
28972W        W97445  32.886   7.304  14.426
28973W        W97446  12.840  29.616  14.331
28974W        W97447  26.157  36.515   3.761
28975W        W97448   6.378  24.571   2.878
28976W        W97449  18.199   5.288   1.839
28977W        W97450  24.211  33.927   2.345
28978W        W97451   4.753  16.315   5.797
28979W        W97452  16.204  39.507  12.940
28980W        W97453   9.167  40.030   3.264
28981W        W97454  17.224  25.076   0.766
28982W        W97455  37.465  17.663  14.418
28983W        W97456  29.641   1.410  11.862
28984W        W97457  40.525  39.370   1.375
28985W        W97458  11.212  24.488   3.731
28986W        W97459  33.989   9.653  12.354
28987W        W97460  41.903  23.562   0.446
28988W        W97461  20.702  39.921   2.342
28989W        W97462  42.480  18.286   1.842
28990W        W97463  40.010   3.911   0.469
28991W        W97464  26.595  35.053   4.153
28992W        W97465  33.510   6.887   2.709
28993W        W97466  13.835  39.366  14.460
28994W        W97467  11.864  32.103   1.264
28995W        W97468   0.971   0.414  12.903
28996W        W97469  37.458   9.291  10.569
28997W        W97470  24.172  15.802  10.992
28998W        W97471  21.650  10.664  11.010
28999W        W97472   5.849  24.656   0.912
29000W        W97473   7.298  10.273  13.882
29001W        W97474  41.867  38.375   4.820
29002W        W97475  14.651  20.267  13.411
29003W        W97476  33.536  37.011  14.940
29004W        W97477  17.664   1.960  14.473
29005W        W97478  24.170  16.588   1.760
29006W        W97479  37.457  42.445   2.811
29007W        W97480   5.927  40.546  14.952
29008W        W97481   8.402   4.762   4.656
29009W        W97482   7.381  16.688  10.599
29010W        W97483  28.002   7.666  11.897
29011W        W97484   6.382  16.756   1.807
29012W        W97485  24.503  14.109   1.387
29013W        W97486   1.483   7.783   3.297
29014W        W97487   0.978  21.159   1.228
29015W        W97488  38.947   4.847  10.604
29016W        W97489  26.699  11.246  11.121
29017W        W97490  25.634  41.453   5.225
29018W        W97491   3.454  11.752  14.386
29019W        W97492   7.822  38.949   0.796
29020W        W97493  34.597  38.498   0.731
29021W        W97494  18.087  42.355  11.598
29022W        W97495   2.254  39.871   1.280
29023W        W97496  44.856  29.534  13.993
29024W        W97497  25.082   2.867  14.810
29025W        W97498   2.839  28.992   2.332
29026W        W97499  18.284   4.350  11.073
29027W        W97500  26.478  27.152   2.401
29028W        W97501  26.203  31.961   3.273
29029W        W97502   2.941  15.211   3.147
29030W        W97503  22.105  11.159   2.292
29031W        W97504  42.809  44.453  10.486
29032W        W97505  36.919  28.153  11.873
29033W        W97506   4.865  35.057   4.786
29034W        W97507   2.953   0.296   3.808
29035W        W97508  18.790  13.126  11.467
29036W        W97509  13.196  23.494   1.272
29037W        W97510  25.972   2.959  11.532
29038W        W97511  23.078  34.104  12.998
29039W        W97512  21.167  25.041   4.171
29040W        W97513  23.647  24.202   1.801
29041W        W97514  34.003  23.997   4.254
29042W        W97515  42.007  31.419   2.232
29043W        W97516  38.035   6.745  12.845
29044W        W97517  20.755  43.791   4.182
29045W        W97518   2.893  16.741  13.450
29046W        W97519  39.352  17.774  13.449
29047W        W97520  28.548  30.955  14.392
29048W        W97521   7.236  20.183  11.531
29049W        W97522  25.672  23.225   2.219
29050W        W97523  19.091  32.403   3.820
29051W        W97524   9.389   3.345  11.935
29052W        W97525  12.118  31.468   0.841
29053W        W97526  37.364  24.584  11.007
29054W        W97527  26.958  44.768  10.907
29055W        W97528  21.619  28.153  13.457
29056W        W97529   2.430   2.814  11.021
29057W        W97530   0.347   9.181   4.758
29058W        W97531  20.553  35.593   2.307
29059W        W97532  35.950  38.976  14.283
29060W        W97533   5.397  41.400   3.284
29061W        W97534  10.694   4.436  14.481
29062W        W97535   8.322  19.264  10.991
29063W        W97536  20.647  32.035   3.826
29064W        W97537  14.649  22.240  12.842
29065W        W97538  39.964  30.637  14.946
29066W        W97539  26.147   3.774  11.509
29067W        W97540  25.607   1.873   0.386
29068W        W97541  22.183  40.869  10.406
29069W        W97542  32.068  41.356   3.154
29070W        W97543  31.076  13.333  11.959
29071W        W97544  16.278  33.954  14.281
29072W        W97545  15.106  44.322  14.317
29073W        W97546  17.202  29.953   4.745
29074W        W97547   6.880  44.941   4.807
29075W        W97548  10.209  33.583   3.789
29076W        W97549  11.737   6.748  11.417
29077W        W97550  36.402   1.280  14.399
29078W        W97551   4.935  40.460  13.057
29079W        W97552  18.681   5.770  12.535
29080W        W97553  36.063  41.389  10.579
29081W        W97554  16.186  27.029  14.973
29082W        W97555  16.190  27.164   4.311
29083W        W97556  23.691  18.724  11.463
29084W        W97557  15.632  16.717   2.770
29085W        W97558  32.565  17.648  12.921
29086W        W97559  42.888  39.338   0.327
29087W        W97560  16.300   2.337  12.485
29088W        W97561   2.316   8.812   5.284
29089W        W97562  16.088   1.308   2.709
29090W        W97563   6.233  18.118  13.521
29091W        W97564  10.718   7.177  12.511
29092W        W97565  19.155  30.968   1.703
29093W        W97566   8.756  20.136   3.721
29094W        W97567  23.098  17.688  13.932
29095W        W97568   3.813  25.594  14.408
29096W        W97569  30.071  28.467  10.900
29097W        W97570  25.041  28.104  12.035
29098W        W97571  23.600  10.378  12.467
29099W        W97572  39.356  25.977   2.248
29100W        W97573  11.829   6.708   4.119
29101W        W97574  42.524  38.007   0.264
29102W        W97575  12.213  41.348  10.501
29103W        W97576  13.198  27.462   2.852
29104W        W97577  36.579   2.738   0.804
29105W        W97578  34.490  25.218  12.379
29106W        W97579  31.911   5.869   0.368
29107W        W97580  29.975   1.809   4.810
29108W        W97581  42.434  11.793  10.890
29109W        W97582   8.289  36.090  13.464
29110W        W97583  36.844  24.154   2.667
29111W        W97584  32.003  22.057   1.210
29112W        W97585  26.175  25.652  11.560
29113W        W97586   8.251  18.168   3.247
29114W        W97587  22.118  27.650  12.512
29115W        W97588   9.663  25.183   0.833
29116W        W97589  22.200   7.346   4.635
29117W        W97590  19.778   7.846   0.870
29118W        W97591  28.481  37.551  12.344
29119W        W97592  40.969  30.924   4.679
29120W        W97593   2.753  21.161   0.349
29121W        W97594  29.640  34.548  14.421
29122W        W97595   7.903  41.393  10.556
29123W        W97596  39.432  40.531  10.615
29124W        W97597  37.910  10.686   1.736
29125W        W97598  43.839  32.017  13.032
29126W        W97599  37.436  13.681  12.978
29127W        W97600   1.780  34.522   3.214
29128W        W97601   4.430  25.042   4.166
29129W        W97602   4.720  21.156  10.527
29130W        W97603   3.294  42.389   3.702
29131W        W97604  11.234  29.169  11.612
29132W        W97605  25.565  22.028  10.969
29133W        W97606  28.128  11.280  14.508
29134W        W97607   2.409  39.333  10.427
29135W        W97608   3.237  13.113  12.839
29136W        W97609  25.544   1.941  11.592
29137W        W97610   6.216   6.783   3.768
29138W        W97611  15.678  33.488  14.000
29139W        W97612  10.206  31.600   2.386
29140W        W97613  34.406  23.536   1.891
29141W        W97614  29.632  15.197  13.798
29142W        W97615  14.212  13.772   1.921
29143W        W97616  41.471   5.222  14.922
29144W        W97617  24.993  19.695  14.435
29145W        W97618   8.204  21.674  10.410
29146W        W97619  12.191   3.890  11.512
29147W        W97620   7.199  22.561   1.815
29148W        W97621  24.605  44.434   2.331
29149W        W97622  31.950  29.592   4.135
29150W        W97623  24.631   1.336  14.769
29151W        W97624  11.768   2.823   1.882
29152W        W97625  28.986  16.110   4.269
29153W        W97626  39.368  12.702   1.333
29154W        W97627  24.618  33.533  14.822
29155W        W97628   4.910  34.573   0.767
29156W        W97629  44.476  29.120   1.916
29157W        W97630  34.924   0.955   4.613
29158W        W97631  25.969  16.618  11.486
29159W        W97632   3.425  27.975  13.333
29160W        W97633  32.994  37.919  10.520
29161W        W97634  20.745   0.293   0.824
29162W        W97635  13.241  19.085   0.898
29163W        W97636  30.078   2.322  12.847
29164W        W97637  33.103  18.616   1.901
29165W        W97638  11.190  15.679  12.578
29166W        W97639  13.689  28.967   1.714
29167W        W97640  43.004  16.102   3.810
29168W        W97641  30.066  23.643  12.857
29169W        W97642  24.691  16.184  10.555
29170W        W97643  31.018  33.474  10.541
29171W        W97644  30.922   5.222  13.828
29172W        W97645   4.283  24.013   4.137
29173W        W97646   8.210   5.866   0.886
29174W        W97647  33.885  26.162   4.179
29175W        W97648  25.033  38.391   3.272
29176W        W97649  32.088  29.040   9.973
29177W        W97650  28.531  20.195  14.920
29178W        W97651  11.278  27.472   3.789
29179W        W97652  43.438   5.884   1.864
29180W        W97653  30.968  35.489   3.214
29181W        W97654  32.413  36.882   4.156
29182W        W97655  39.459  25.476   1.236
29183W        W97656  18.140  43.915   3.829
29184W        W97657  35.376  22.211  11.075
29185W        W97658  15.780  25.014  14.766
29186W        W97659  24.556  36.932   4.146
29187W        W97660   3.418   8.881   0.910
29188W        W97661  10.734  34.936   0.820
29189W        W97662  43.381  31.632  12.353
29190W        W97663  15.577  33.903  13.448
29191W        W97664  20.592  25.577   3.800
29192W        W97665  36.904  12.747   1.910
29193W        W97666  25.510  18.217   1.383
29194W        W97667  24.093   9.839   4.127
29195W        W97668  30.945  42.418   4.234
29196W        W97669  29.608   0.848  13.536
29197W        W97670  24.700   0.392   2.180
29198W        W97671  29.964  27.125   1.342
29199W        W97672  34.983   9.705  13.828
29200W        W97673  28.482  25.208   0.928
29201W        W97674  31.094   4.411   1.782
29202W        W97675  43.312  21.552  14.843
29203W        W97676   6.818  16.294   5.652
29204W        W97677  43.807  24.642  14.029
29205W        W97678  44.382   1.455   2.377
29206W        W97679  44.948  17.603   4.613
29207W        W97680   8.392  42.494  11.464
29208W        W97681  29.600   6.744  12.380
29209W        W97682  21.024  14.768  13.885
29210W        W97683  30.994  40.361   4.158
29211W        W97684   6.692  33.054  12.573
29212W        W97685  13.288  19.231   2.799
29213W        W97686  19.673  18.720   2.760
29214W        W97687  42.402  40.838  13.346
29215W        W97688  20.233  22.708  11.449
29216W        W97689  34.040  42.316  13.497
29217W        W97690  19.687   2.875   0.795
29218W        W97691  42.887  36.555   1.227
29219W        W97692  23.021  14.098  13.915
29220W        W97693  14.132  30.457  14.491
29221W        W97694  43.371   5.883  10.976
29222W        W97695  26.197  37.848  11.586
29223W        W97696  43.840  23.521  13.345
29224W        W97697  27.473  13.827  13.520
29225W        W97698   0.932  41.306  14.411
29226W        W97699  24.128   7.406   0.918
29227W        W97700  17.710   2.318  11.498
29228W        W97701  13.236  42.309  12.086
29229W        W97702  28.931  42.833   2.886
29230W        W97703   9.260  44.782   2.305
29231W        W97704  35.976   5.336   1.780
29232W        W97705   8.234  28.483  12.538
29233W        W97706   3.373  31.045  13.938
29234W        W97707   1.293  35.560  14.421
29235W        W97708  33.607  21.032  14.842
29236W        W97709   8.838  39.873   2.682
29237W        W97710   3.877  33.549   1.712
29238W        W97711  28.654  34.533   1.825
29239W        W97712  35.987   9.682  11.498
29240W        W97713  13.141   8.804   3.824
29241W        W97714   5.217  18.170   0.450
29242W        W97715  22.669  19.633  12.096
29243W        W97716  25.622  38.900  10.567
29244W        W97717   2.932  25.679   1.356
29245W        W97718  39.526  34.863   1.383
29246W        W97719  44.925  15.688   1.242
29247W        W97720   9.823  16.750  13.897
29248W        W97721  11.705  34.029  12.480
29249W        W97722  16.241   2.761  14.858
29250W        W97723  26.591  10.276  11.870
29251W        W97724   1.830  10.728   4.816
29252W        W97725  33.011   3.915   0.814
29253W        W97726   7.817   6.685   4.641
29254W        W97727   9.857  41.909   3.232
29255W        W97728   9.784  22.152  11.973
29256W        W97729  15.645   7.398   3.210
29257W        W97730  15.286  19.668  13.042
29258W        W97731  44.327   6.211  13.843
29259W        W97732  32.536  20.117  14.395
29260W        W97733  11.354  15.164   0.463
29261W        W97734  33.499  26.066  13.825
29262W        W97735   5.389  34.902   3.841
29263W        W97736  29.971  30.630   2.416
29264W        W97737  15.231  38.500  12.004
29265W        W97738  29.624  44.805   3.319
29266W        W97739  18.671  19.118  14.988
29267W        W97740   8.324  42.903  14.298
29268W        W97741  26.043  17.617   2.233
29269W        W97742  40.508   7.759   1.920
29270W        W97743  10.742  15.637   4.749
29271W        W97744  32.978   2.965   3.162
29272W        W97745   3.381  15.694   4.211
29273W        W97746   7.693  37.906   0.768
29274W        W97747  41.981  20.598  13.912
29275W        W97748  20.558  22.510  12.865
29276W        W97749  37.939  43.879   1.749
29277W        W97750   7.236  38.421   0.856
29278W        W97751   3.329   9.326   3.179
29279W        W97752  21.061  20.170   3.329
29280W        W97753   8.194  20.252   1.375
29281W        W97754   0.275  44.353   0.881
29282W        W97755  19.577  33.932  13.433
29283W        W97756  42.855  18.072  14.768
29284W        W97757  28.531  18.283  13.405
29285W        W97758  30.484  24.980  13.412
29286W        W97759  22.114  18.227  10.430
29287W        W97760   1.302  38.546  12.408
29288W        W97761  44.925  27.612  12.020
29289W        W97762  23.629  32.439  13.055
29290W        W97763  22.157   9.376   1.404
29291W        W97764  35.944  22.251  11.044
29292W        W97765  36.498   1.850  14.901
29293W        W97766  17.198  13.212  13.540
29294W        W97767  12.338  32.949  11.570
29295W        W97768  30.125  41.939  10.496
29296W        W97769  27.617  42.480   0.262
29297W        W97770  26.536   4.905  10.561
29298W        W97771  42.812  18.186  11.869
29299W        W97772  26.151  23.635   4.761
29300W        W97773  38.360   1.348   1.759
29301W        W97774  44.949   0.850  13.045
29302W        W97775  26.175  35.466   4.675
29303W        W97776  21.173  11.279   1.699
29304W        W97777  19.586   1.342   4.296
29305W        W97778  37.899   1.301   0.395
29306W        W97779  38.329  26.104  14.478
29307W        W97780  36.470   7.353  12.382
29308W        W97781  35.022  43.462   2.898
29309W        W97782  29.478  26.603   0.356
29310W        W97783  31.110  13.118   0.268
29311W        W97784  17.224  28.113  10.416
29312W        W97785  26.088  18.572  10.981
29313W        W97786  38.537  24.587  14.294
29314W        W97787  37.015  27.448   3.735
29315W        W97788  36.554  29.083  13.338
29316W        W97789  34.444  38.863  12.027
29317W        W97790  22.573   8.808  10.630
29318W        W97791  18.679  43.945   0.861
29319W        W97792   6.382  14.272   4.324
29320W        W97793  18.560  25.488   1.920
29321W        W97794  40.798  17.066  12.450
29322W        W97795  12.786  43.983  14.355
29323W        W97796  13.743  35.582  11.060
29324W        W97797   0.933  28.178  13.393
29325W        W97798  39.911  23.123   1.299
29326W        W97799  24.141  32.404  13.459
29327W        W97800  17.742  19.553   1.915
29328W        W97801   5.195   5.378  11.522
29329W        W97802  26.560   1.465   0.256
29330W        W97803  13.212  22.686  13.464
29331W        W97804   7.335  16.147  13.886
29332W        W97805  35.488  12.247   3.772
29333W        W97806  20.077  21.526   2.748
29334W        W97807  10.784  27.457  11.539
29335W        W97808  38.503   0.839   3.346
29336W        W97809  25.100  28.448   0.878
29337W        W97810  37.395  19.057  14.292
29338W        W97811  21.753   3.904  12.367
29339W        W97812  39.412  25.552   0.875
29340W        W97813   2.296  20.700   2.180
29341W        W97814   8.877  35.374   3.793
29342W        W97815  14.206  11.664  10.933
29343W        W97816   9.722  19.560  14.458
29344W        W97817  17.103  11.352   1.910
29345W        W97818  11.770  34.465   1.811
29346W        W97819   5.398   2.248  13.482
29347W        W97820  25.174  42.471   0.775
29348W        W97821  20.580   1.421  10.977
29349W        W97822   2.894  38.531  10.620
29350W        W97823  32.902   7.178  12.057
29351W        W97824  27.031   8.897   2.263
29352W        W97825   4.753   3.435   2.287
29353W        W97826  40.851  19.589  13.944
29354W        W97827  31.447  41.345  11.504
29355W        W97828  14.730  15.297   1.311
29356W        W97829  34.589  37.509   1.267
29357W        W97830  40.523  32.097   1.924
29358W        W97831  28.603  11.794   4.200
29359W        W97832  32.627  29.459  13.372
29360W        W97833   8.383  22.563   1.780
29361W        W97834  33.906   0.371   3.200
29362W        W97835  33.572   9.887  12.411
29363W        W97836   3.278  28.135   2.179
29364W        W97837  22.066  20.548  12.463
29365W        W97838  12.834  19.662   2.821
29366W        W97839   1.965  20.721  12.015
29367W        W97840   5.351  36.541  14.410
29368W        W97841  32.938  34.014  14.951
29369W        W97842  41.020   1.919  13.431
29370W        W97843  31.550  32.964   4.233
29371W        W97844  42.805  32.063   2.673
29372W        W97845   0.335  37.037  11.445
29373W        W97846  17.612  15.230   3.363
29374W        W97847  17.182  12.824   0.423
29375W        W97848   7.375  17.556   2.309
29376W        W97849   1.862  12.361  11.888
29377W        W97850   7.720   2.276  10.587
29378W        W97851  31.460   7.211  14.953
29379W        W97852  42.447  25.198  12.413
29380W        W97853  33.936   4.253   2.798
29381W        W97854  14.282  26.154  11.066
29382W        W97855   9.712  39.494   0.472
29383W        W97856  30.046  19.643  12.423
29384W        W97857  24.150  40.514  10.137
29385W        W97858  25.987  10.262   0.334
29386W        W97859  26.539   5.246   1.444
29387W        W97860   9.730  19.052  13.059
29388W        W97861  23.694  44.769  11.583
29389W        W97862  22.697  36.552  13.486
29390W        W97863  40.348  43.881  13.842
29391W        W97864   9.706  29.542   4.755
29392W        W97865  23.226  18.750   2.836
29393W        W97866  41.368   5.709   0.425
29394W        W97867  27.146   1.394   2.270
29395W        W97868  18.719  40.978   3.669
29396W        W97869  44.424  44.361  13.836
29397W        W97870  27.626  24.090   3.804
29398W        W97871  10.358  25.642   1.775
29399W        W97872  13.620  25.968   0.422
29400W        W97873  15.745  33.126  14.006
29401W        W97874  19.761  10.366   4.239
29402W        W97875  43.974  26.601  11.998
29403W        W97876  23.140  40.410   0.340
29404W        W97877   0.415  26.546   1.881
29405W        W97878  43.397  18.734   3.652
29406W        W97879  20.246  38.077  13.408
29407W        W97880  40.865  16.580   4.186
29408W        W97881  19.741  13.340   0.257
29409W        W97882  25.173  44.320  10.578
29410W        W97883  24.589  33.970  12.013
29411W        W97884  16.714   9.771  12.503
29412W        W97885   2.375  42.912  10.121
29413W        W97886  28.533   2.760  14.338
29414W        W97887  33.103  22.561  11.453
29415W        W97888  28.047  10.196  13.954
29416W        W97889  41.931  40.853   0.299
29417W        W97890  32.418  42.347  13.408
29418W        W97891   2.964  21.052   2.836
29419W        W97892  17.791  26.565   4.641
29420W        W97893   5.851   3.714  11.414
29421W        W97894  20.543  33.032   2.699
29422W        W97895  29.059  28.626   3.189
29423W        W97896  28.503   6.289   1.224
29424W        W97897  41.516  19.248  12.861
29425W        W97898   8.302  29.432   1.292
29426W        W97899   3.918  17.711  11.008
29427W        W97900  12.832   6.770  14.455
29428W        W97901  21.228  18.648   3.737
29429W        W97902  43.967  20.042   4.782
29430W        W97903  13.740   1.907  12.994
29431W        W97904  34.522  31.966  13.311
29432W        W97905  25.522  29.443  13.416
29433W        W97906  12.670  33.468   2.213
29434W        W97907  24.164  38.920  11.420
29435W        W97908  42.898  41.352   2.892
29436W        W97909  10.788   8.804   4.341
29437W        W97910  36.896  25.999   2.251
29438W        W97911  44.263  13.141   2.255
29439W        W97912  35.437  43.328   1.821
29440W        W97913  35.868  37.919   1.802
29441W        W97914  30.941  25.120  13.062
29442W        W97915   4.903   6.222   3.386
29443W        W97916   4.886  42.951  10.041
29444W        W97917  10.353  22.192   1.814
29445W        W97918  15.325  41.334  10.533
29446W        W97919   1.932  16.175   4.780
29447W        W97920  13.738  12.288   2.736
29448W        W97921  26.031  27.992   1.431
29449W        W97922  11.767   1.429  10.447
29450W        W97923   3.811  39.400   4.748
29451W        W97924   1.964  19.534  10.902
29452W        W97925  32.585   7.230  10.443
29453W        W97926  27.976  43.336   4.304
29454W        W97927  33.915  15.605  13.863
29455W        W97928  16.810  37.444   4.206
29456W        W97929  27.641   0.290   1.396
29457W        W97930  38.434  19.200   2.782
29458W        W97931  39.321   3.255  11.987
29459W        W97932  44.879  33.391  12.957
29460W        W97933  25.110  41.879  11.476
29461W        W97934  12.171  10.324   3.742
29462W        W97935  43.505  29.005   4.139
29463W        W97936  38.977  29.137  14.956
29464W        W97937  39.821  31.016   3.377
29465W        W97938   0.477  11.300   4.765
29466W        W97939  14.814  31.494   1.790
29467W        W97940  11.337  39.336  10.890
29468W        W97941   0.358   3.281   1.785
29469W        W97942  10.724  12.827  10.513
29470W        W97943  25.028  24.017  11.910
29471W        W97944  16.717  26.663   0.821
29472W        W97945   7.232  34.900   2.832
29473W        W97946  37.403   1.375  13.972
29474W        W97947   0.337  29.513   3.278
29475W        W97948   7.214   5.404   0.399
29476W        W97949  40.516  17.605   2.216
29477W        W97950   6.261  29.989  11.114
29478W        W97951  39.448  27.019   1.443
29479W        W97952  16.666  21.716  11.943
29480W        W97953  26.010  38.943  12.389
29481W        W97954   2.470   3.946  13.816
29482W        W97955  16.678  25.610  14.385
29483W        W97956  36.477  15.780   5.216
29484W        W97957  44.500   0.352  14.506
29485W        W97958  10.237  44.761  11.558
29486W        W97959  17.769  25.017  13.803
29487W        W97960  40.964  20.166  12.525
29488W        W97961  28.153   3.944   3.718
29489W        W97962  44.886  32.602   4.338
29490W        W97963  17.673  28.101   0.844
29491W        W97964  36.515  31.550   0.352
29492W        W97965  31.508   3.773   1.353
29493W        W97966  20.590  36.018   0.826
29494W        W97967  35.567   8.838   1.763
29495W        W97968  17.607  34.005   4.160
29496W        W97969  32.115  16.288   4.189
29497W        W97970  16.083  34.996  13.978
29498W        W97971  10.826   4.923  11.909
29499W        W97972  38.828  37.474   3.841
29500W        W97973  10.647  25.191   0.779
29501W        W97974  12.613  13.648  14.011
29502W        W97975  44.493  22.114  10.635
29503W        W97976  33.108  23.022  11.488
29504W        W97977  15.741  10.156   2.206
29505W        W97978  18.639   2.833  14.028
29506W        W97979  34.042  21.162   4.230
29507W        W97980  34.023  39.039   3.179
29508W        W97981   4.243  21.040   3.646
29509W        W97982  33.586  25.698   4.647
29510W        W97983  11.209  17.648   2.178
29511W        W97984  13.755  17.731   3.195
29512W        W97985  24.167  14.770  10.641
29513W        W97986  21.028  18.064  10.080
29514W        W97987  15.101  20.046  12.008
29515W        W97988  16.211   5.398  11.585
29516W        W97989  27.138  33.950  10.999
29517W        W97990  19.047   7.223  14.015
29518W        W97991  35.381   7.269  10.970
29519W        W97992   0.926  23.653  13.537
29520W        W97993  39.988  44.781   3.723
29521W        W97994  29.542  11.865  12.451
29522W        W97995  29.144  28.532  12.942
29523W        W97996  13.193  28.083  13.320
29524W        W97997  17.227   4.770  13.933
29525W        W97998   1.421  42.999   4.287
29526W        W97999   5.255   6.803   5.269
29527W        W98000   3.747  42.442  13.332
29528W        W98001   4.797  25.541   2.385
29529W        W98002  30.934  22.736  13.993
29530W        W98003  35.556  38.484   1.317
29531W        W98004  26.586  12.838   4.354
29532W        W98005  42.415  14.601  11.856
29533W        W98006  22.106  25.665   5.587
29534W        W98007  19.779  33.565  14.492
29535W        W98008  35.414  20.642   1.730
29536W        W98009  24.512  41.039  10.579
29537W        W98010  37.834  23.186  12.568
29538W        W98011  42.348  14.246   2.867
29539W        W98012  21.226  39.894  10.136
29540W        W98013  33.421  18.649  14.408
29541W        W98014  38.875  37.842  11.033
29542W        W98015  12.620  27.000   3.723
29543W        W98016  44.847  39.978  14.868
29544W        W98017  30.080   0.788   4.679
29545W        W98018  30.125  24.669  14.370
29546W        W98019  36.547  20.753  13.047
29547W        W98020  40.351  15.690   3.302
29548W        W98021  21.074  37.059  11.984
29549W        W98022  38.386   9.176   0.907
29550W        W98023  30.140  38.499   0.261
29551W        W98024   5.229  13.671  10.034
29552W        W98025  34.405  16.745   2.680
29553W        W98026  32.977  42.865   2.820
29554W        W98027  34.989   5.350   2.227
29555W        W98028  42.910   1.838  11.563
29556W        W98029  15.154   2.888   2.756
29557W        W98030  43.345  17.746   1.814
29558W        W98031  14.788  43.497  13.495
29559W        W98032  25.476   3.230  13.490
29560W        W98033  15.777   3.870  11.062
29561W        W98034  24.551  30.956  10.520
29562W        W98035  29.597  19.156   4.787
29563W        W98036  38.554  35.995  12.360
29564W        W98037  35.384  40.871   2.736
29565W        W98038   6.188  34.915  14.000
29566W        W98039   3.287  22.534  12.992
29567W        W98040   6.208  41.863  14.795
29568W        W98041   3.727  25.999   4.681
29569W        W98042   2.905  12.271  11.012
29570W        W98043  24.120   9.766  14.933
29571W        W98044   4.784  12.316   3.818
29572W        W98045   0.954  42.420  11.605
29573W        W98046  29.079  23.538  13.861
29574W        W98047  20.543  21.059  13.021
29575W        W98048  38.866  10.737   0.302
29576W        W98049  42.301  30.105  13.355
29577W        W98050   2.904  37.433   3.652
29578W        W98051  43.900  25.184  14.454
29579W        W98052   8.322  24.599   4.836
29580W        W98053  29.644  28.952  13.399
29581W        W98054  36.434  25.636   4.234
29582W        W98055  28.184  10.179  10.417
29583W        W98056  10.297  31.549   4.711
29584W        W98057  31.498  24.480  14.762
29585W        W98058   1.948  18.159  14.356
29586W        W98059  10.797  18.292   1.363
29587W        W98060  11.726  24.174   0.449
29588W        W98061  19.157  26.466   3.870
29589W        W98062   8.884   2.320  14.383
29590W        W98063  32.544   1.290   0.897
29591W        W98064  40.844  38.494   4.306
29592W        W98065  21.154  34.387  10.554
29593W        W98066  36.350  10.270   2.827
29594W        W98067  20.756  22.613  10.447
29595W        W98068   8.256  18.182   2.739
29596W        W98069  33.938  34.875   3.676
29597W        W98070   9.887  26.550   1.909
29598W        W98071  39.041  16.110  14.364
29599W        W98072   1.396  10.872  14.327
29600W        W98073  12.658   8.756  13.999
29601W        W98074   5.818   5.825   2.710
29602W        W98075  11.740   9.337  10.636
29603W        W98076   0.358  22.736   0.860
29604W        W98077  30.645  33.494  11.916
29605W        W98078  20.605  15.645  10.604
29606W        W98079   8.823   7.351   2.744
29607W        W98080  24.070  27.678  14.899
29608W        W98081  30.959  31.151   0.806
29609W        W98082  11.134  27.507   0.445
29610W        W98083  10.282  44.462  10.448
29611W        W98084  44.793  43.319  12.564
29612W        W98085   2.769   6.914  14.399
29613W        W98086  15.085  12.835  11.451
29614W        W98087   7.401  14.693   1.366
29615W        W98088  13.297  37.926  12.463
29616W        W98089   1.790  11.247   4.194
29617W        W98090  39.872  20.606   0.368
29618W        W98091  29.560   8.689  12.042
29619W        W98092  12.152  42.916   0.927
29620W        W98093  10.668  24.172  11.418
29621W        W98094  19.672  15.623  10.967
29622W        W98095  42.894   0.438  12.391
29623W        W98096  11.163   5.208  14.305
29624W        W98097  41.425  15.276   0.269
29625W        W98098   4.899   3.366   1.332
29626W        W98099   4.225  16.582   4.290
29627W        W98100  17.180  42.317   0.388
29628W        W98101  40.054   6.880   2.373
29629W        W98102  28.142   0.912  14.945
29630W        W98103  35.916  13.615  10.589
29631W        W98104  31.039  29.653   1.770
29632W        W98105   4.719  18.105   3.740
29633W        W98106  25.709  43.384  12.560
29634W        W98107  17.612  38.917   5.772
29635W        W98108  10.861   1.882   0.408
29636W        W98109  27.948  17.238  11.483
29637W        W98110   0.469  39.369   2.681
29638W        W98111   1.280  13.321  12.938
29639W        W98112   3.725  41.527  14.280
29640W        W98113  18.745  29.541   4.778
29641W        W98114  10.830   0.921   1.920
29642W        W98115  33.417  27.478  13.543
29643W        W98116  13.214  22.507   1.320
29644W        W98117  12.833  24.582   2.295
29645W        W98118  35.547   1.764  12.039
29646W        W98119  32.571  40.817  12.525
29647W        W98120   8.668   8.306   3.357
29648W        W98121  15.268  21.660  13.063
29649W        W98122  40.002  44.308   0.457
29650W        W98123  38.951  14.803  12.427
29651W        W98124  18.563   0.385  13.809
29652W        W98125  18.571   1.264   0.371
29653W        W98126   2.743  18.186   0.294
29654W        W98127  36.948  33.944   2.309
29655W        W98128  11.197  32.530  12.443
29656W        W98129  27.050  24.480   0.859
29657W        W98130   2.294  10.846  12.488
29658W        W98131  38.530  10.821   1.900
29659W        W98132  29.074  17.098   4.196
29660W        W98133  40.930   9.324   3.681
29661W        W98134  24.552   5.859  12.885
29662W        W98135  11.708  26.488  12.829
29663W        W98136  24.080   0.410  14.002
29664W        W98137  31.968  24.573   1.843
29665W        W98138  32.434  40.311   2.322
29666W        W98139  32.121  29.991  14.881
29667W        W98140  43.457  12.139  13.043
29668W        W98141   4.748  18.692  10.979
29669W        W98142  20.616  35.503  11.394
29670W        W98143  41.883  35.455   0.399
29671W        W98144  37.055  15.246   1.785
29672W        W98145  18.150  39.472   1.772
29673W        W98146  16.233  24.065   1.303
29674W        W98147   3.395  10.809   4.158
29675W        W98148   5.746  16.574  12.035
29676W        W98149  25.970  12.844   2.804
29677W        W98150  10.637  18.671   3.301
29678W        W98151  34.071  28.658   1.220
29679W        W98152  21.145  37.472  14.852
29680W        W98153   6.767   9.372  14.450
29681W        W98154  23.553  27.571   2.216
29682W        W98155  41.029  21.213  11.600
29683W        W98156  36.568  25.068   2.366
29684W        W98157  41.025  31.933   4.627
29685W        W98158  43.420   6.705  11.447
29686W        W98159  26.457  13.276  10.425
29687W        W98160  42.425  26.691  14.474
29688W        W98161  16.590  18.192   1.754
29689W        W98162  29.947  21.750   2.672
29690W        W98163  21.690   1.360   3.184
29691W        W98164   6.266  39.529   0.810
29692W        W98165  25.970   9.179  13.501
29693W        W98166  39.011   5.928   1.407
29694W        W98167  37.903  28.649   3.303
29695W        W98168  20.084  36.037  13.890
29696W        W98169  20.543  44.753   1.841
29697W        W98170   6.187  34.912  12.424
29698W        W98171   1.304   6.761   4.697
29699W        W98172  18.771  41.889  13.829
29700W        W98173   0.965  24.480   3.161
29701W        W98174  16.764  43.929  11.873
29702W        W98175  30.062  23.556   4.240
29703W        W98176  42.915  41.930  11.873
29704W        W98177  15.320  35.879  12.074
29705W        W98178   3.802   7.177   4.801
29706W        W98179  35.942  17.196  14.781
29707W        W98180  22.090   5.891   2.771
29708W        W98181   8.672  33.535   1.766
29709W        W98182  29.129  34.468  13.434
29710W        W98183  33.525  23.714   0.798
29711W        W98184  37.937   2.896  14.886
29712W        W98185   8.194  24.993   2.877
29713W        W98186  30.598  44.912  14.898
29714W        W98187  37.406  40.534   1.902
29715W        W98188  19.253  43.501  11.471
29716W        W98189  19.573   6.400   0.906
29717W        W98190  37.429  25.141  11.000
29718W        W98191   9.858  21.200   2.346
29719W        W98192  43.448  32.400   1.878
29720W        W98193  12.817   4.206  13.486
29721W        W98194  17.229   4.901  13.420
29722W        W98195  43.384   7.375  11.407
29723W        W98196  23.493  37.350   1.210
29724W        W98197   8.834  30.982  14.875
29725W        W98198   3.947  17.725  13.524
29726W        W98199  25.978  15.263  11.894
29727W        W98200  20.641  18.258  11.885
29728W        W98201  35.083  17.215   1.921
29729W        W98202  44.755  43.406   1.704
29730W        W98203  25.126  13.680   4.173
29731W        W98204  24.196  11.743  11.536
29732W        W98205  28.049  17.695  14.018
29733W        W98206  44.405  40.968  10.085
29734W        W98207  15.729   8.720   4.795
29735W        W98208  38.977  37.420  14.813
29736W        W98209   3.277  14.691   1.275
29737W        W98210  44.332  24.986  13.803
29738W        W98211  23.188  21.577   4.194
29739W        W98212  32.138   1.939  12.925
29740W        W98213   8.185  43.940  12.912
29741W        W98214   6.413   6.359  10.641
29742W        W98215  15.258  21.665   2.314
29743W        W98216  28.641  10.683  11.463
29744W        W98217  33.970  10.756  10.602
29745W        W98218  31.966   4.241   1.427
29746W        W98219  41.440  30.529   1.835
29747W        W98220  10.348  37.977  11.871
29748W        W98221  29.584  12.673  14.855
29749W        W98222   1.470   6.427   3.798
29750W        W98223  25.647  37.409   2.672
29751W        W98224  33.976   8.691  12.420
29752W        W98225  29.546  14.290   4.241
29753W        W98226  30.629  39.423   4.764
29754W        W98227   7.394  28.486   4.187
29755W        W98228   2.758  22.053   1.873
29756W        W98229  23.103  43.323  12.052
29757W        W98230  40.398   6.911   1.930
29758W        W98231  32.594  26.001   4.826
29759W        W98232  43.463   1.349  11.092
29760W        W98233  12.331  28.542   2.711
29761W        W98234  11.656  23.699  13.334
29762W        W98235  35.414  25.548  12.507
29763W        W98236  16.190  27.655   3.647
29764W        W98237  28.562  31.413   0.309
29765W        W98238  41.411   7.854   0.908
29766W        W98239  20.533  14.150   9.939
29767W        W98240  38.395  23.239   0.254
29768W        W98241  38.848  26.490   4.779
29769W        W98242  33.466  10.844   0.833
29770W        W98243  42.911  23.627  11.086
29771W        W98244  38.385   6.920   1.227
29772W        W98245  19.658  37.527  14.929
29773W        W98246  23.620   0.890  11.383
29774W        W98247  19.114   3.311  10.888
29775W        W98248   1.282  29.545   1.233
29776W        W98249  36.079  25.503  14.794
29777W        W98250  20.769  43.983   3.729
29778W        W98251  17.731  23.712   1.351
29779W        W98252  15.143  18.155   3.157
29780W        W98253  13.759  21.108   3.831
29781W        W98254  18.280  28.153   3.362
29782W        W98255  40.007  44.467   4.318
29783W        W98256  15.273  13.757   0.355
29784W        W98257   9.804  22.529   3.323
29785W        W98258  20.243  15.793  10.585
29786W        W98259  27.506  26.618   2.194
29787W        W98260  40.834  32.935   4.781
29788W        W98261   1.418  42.308  12.455
29789W        W98262   5.393  10.695   1.326
29790W        W98263  35.091  28.532  14.441
29791W        W98264   9.341  17.621   4.726
29792W        W98265  43.447  37.957  12.571
29793W        W98266  27.001  23.551   3.797
29794W        W98267   9.849   0.255   4.789
29795W        W98268  25.499  30.953  14.937
29796W        W98269  34.121  43.888   1.319
29797W        W98270   8.667  41.456  10.949
29798W        W98271  44.768  16.582   1.933
29799W        W98272  25.702  37.938  13.806
29800W        W98273  40.529  24.036  11.379
29801W        W98274  11.260  21.133  10.920
29802W        W98275  29.918  18.787   3.806
29803W        W98276   4.892   2.791   2.256
29804W        W98277   7.832  32.921   2.808
29805W        W98278  41.454  32.636  11.887
29806W        W98279  34.054  34.051  14.979
29807W        W98280  29.985  41.298   4.775
29808W        W98281  19.061  44.440  10.504
29809W        W98282  33.973  42.964   2.745
29810W        W98283   2.803  35.582   4.713
29811W        W98284   2.463  32.469   1.789
29812W        W98285  41.003   5.899   4.208
29813W        W98286  25.114  33.111   3.854
29814W        W98287  19.583  30.619  10.641
29815W        W98288  36.019  22.212   0.329
29816W        W98289  37.482   8.835   0.750
29817W        W98290  28.147  39.916   3.263
29818W        W98291  22.685  18.704   4.201
29819W        W98292  31.908  18.559   0.939
29820W        W98293  26.199  15.591  14.845
29821W        W98294  21.063  42.307   4.762
29822W        W98295  33.075  27.640  13.875
29823W        W98296  10.859  17.077   0.957
29824W        W98297  24.684  36.053  11.421
29825W        W98298   0.289  41.886   3.858
29826W        W98299  23.494  15.588   1.841
29827W        W98300  18.701  13.614   2.733
29828W        W98301  39.556   6.209  11.486
29829W        W98302  26.493  28.998  13.354
29830W        W98303  18.562   1.739   0.362
29831W        W98304  41.415  38.997  11.607
29832W        W98305  42.853  33.893   4.821
29833W        W98306   5.897   5.743   3.162
29834W        W98307  22.195  25.693  12.920
29835W        W98308  14.195  37.935  10.066
29836W        W98309  30.998  27.170   3.716
29837W        W98310  44.400  40.397  12.848
29838W        W98311  26.024  10.818  12.559
29839W        W98312   1.900  14.104   0.283
29840W        W98313   0.331   7.223   1.251
29841W        W98314  35.054   1.297   2.708
29842W        W98315  38.370  35.459   1.917
29843W        W98316  12.785  21.228   1.930
29844W        W98317  14.691  25.662  13.933
29845W        W98318  44.790  34.883  13.991
29846W        W98319  17.223  28.002   9.954
29847W        W98320  30.543  33.019  12.516
29848W        W98321  42.508  25.501  11.489
29849W        W98322  29.129  14.697  10.533
29850W        W98323  10.247  30.129  11.412
29851W        W98324  38.984   3.827   2.365
29852W        W98325  12.300  18.264   3.735
29853W        W98326  36.071  23.540   1.758
29854W        W98327  13.824   4.736   2.323
29855W        W98328  12.306   2.440  12.389
29856W        W98329  38.486  19.604  13.490
29857W        W98330  23.109  42.450  11.001
29858W        W98331   5.698  38.514   4.639
29859W        W98332  18.684  40.545  13.350
29860W        W98333  24.600  23.695  11.006
29861W        W98334  40.388   7.814  11.927
29862W        W98335  30.960  36.041   4.729
29863W        W98336  23.994   5.316  10.963
29864W        W98337  20.653  14.269  14.291
29865W        W98338  24.125  27.513   0.453
29866W        W98339  18.730   2.460   0.912
29867W        W98340  43.420   5.764  10.434
29868W        W98341  28.610  13.203  11.014
29869W        W98342  18.088  25.191   4.729
29870W        W98343  10.213  14.189   4.760
29871W        W98344  36.498  33.012  14.957
29872W        W98345   9.692  31.026  14.781
29873W        W98346  43.898   8.393  13.003
29874W        W98347  23.005  13.763  12.003
29875W        W98348  15.147   2.726   4.116
29876W        W98349  39.848  24.559  12.494
29877W        W98350  31.417  29.000   2.859
29878W        W98351  27.678  15.190   4.645
29879W        W98352   0.423  11.729  10.411
29880W        W98353  32.509  22.671  11.523
29881W        W98354  40.448  33.022  14.866
29882W        W98355  42.962   4.835   1.860
29883W        W98356   9.325  36.020  11.009
29884W        W98357  30.910  27.035  13.317
29885W        W98358  28.173  20.651   1.762
29886W        W98359  28.970  20.744  12.578
29887W        W98360  22.632  20.142  13.377
29888W        W98361  42.866  22.058   2.344
29889W        W98362  32.934  29.124  11.112
29890W        W98363  30.163   1.948   1.915
29891W        W98364  10.820  36.545   2.849
29892W        W98365  26.522   9.264   1.761
29893W        W98366  35.062   3.381  14.407
29894W        W98367  20.603  38.417   4.833
29895W        W98368   1.950   2.299  12.945
29896W        W98369  37.441  26.134   2.830
29897W        W98370  31.122  18.602  11.997
29898W        W98371  31.014  10.221  12.416
29899W        W98372   2.877   6.697  10.608
29900W        W98373  39.340  11.209   2.224
29901W        W98374  36.062   8.350  14.408
29902W        W98375  41.951  35.547   3.366
29903W        W98376   2.941  40.410   4.660
29904W        W98377  44.785  15.821   2.273
29905W        W98378  36.878  34.108  12.091
29906W        W98379  15.210   1.831  12.382
29907W        W98380   5.332  33.567   1.441
29908W        W98381  28.146  18.628   4.159
29909W        W98382  44.486  21.691   3.151
29910W        W98383  38.008  11.194  14.762
29911W        W98384   1.313  12.219   4.618
29912W        W98385  10.275  23.578  11.071
29913W        W98386  20.527   7.252  12.013
29914W        W98387  14.124   7.261   0.397
29915W        W98388  16.776  25.118  10.458
29916W        W98389  14.109   0.301  10.620
29917W        W98390  21.156  26.194   5.083
29918W        W98391   3.771   1.286  10.954
29919W        W98392   0.919   0.969  12.555
29920W        W98393  19.181  42.491  12.029
29921W        W98394  14.714   9.253   3.272
29922W        W98395  10.252   2.342   0.333
29923W        W98396  22.193  15.262   5.790
29924W        W98397   5.791  44.267   1.753
29925W        W98398  27.555   0.464   9.567
29926W        W98399  10.737  40.979   1.761
29927W        W98400  33.442  40.316  14.390
29928W        W98401   5.704   6.250  13.816
29929W        W98402  19.750  18.236  10.919
29930W        W98403  12.228  30.118  12.870
29931W        W98404  38.431   2.746   2.765
29932W        W98405  31.443   7.384   3.866
29933W        W98406  37.084  10.380  11.445
29934W        W98407  39.892   2.277  11.011
29935W        W98408  20.613   3.752   3.666
29936W        W98409   3.258  40.856  13.913
29937W        W98410  24.676  14.714   9.968
29938W        W98411  30.430  12.770   0.297
29939W        W98412  41.343  28.178  14.987
29940W        W98413   2.945   2.956  12.877
29941W        W98414   8.754  22.210   5.306
29942W        W98415  39.407  24.041   1.411
29943W        W98416  25.612   6.758  11.952
29944W        W98417  39.815  35.109   3.266
29945W        W98418  13.753  10.327  11.465
29946W        W98419  22.563   9.669   1.210
29947W        W98420  29.958  44.806  14.917
29948W        W98421  28.555  27.953   1.379
29949W        W98422  14.307  43.820   3.179
29950W        W98423  15.181  40.840  13.461
29951W        W98424   1.379  31.413   1.228
29952W        W98425  11.856  44.429  14.370
29953W        W98426  36.030  15.151  10.887
29954W        W98427  33.046  37.985  10.923
29955W        W98428  40.947  22.193   4.155
29956W        W98429  24.191  35.411   0.412
29957W        W98430  19.073  12.356  11.463
29958W        W98431  30.105  23.653   2.179
29959W        W98432   6.204  17.064   0.270
29960W        W98433   3.391  44.485  10.517
29961W        W98434  35.025  39.883   4.265
29962W        W98435  23.637  28.587  14.945
29963W        W98436   8.781  12.731  12.917
29964W        W98437  41.036   6.848   2.256
29965W        W98438  14.822  30.010   1.271
29966W        W98439  11.640   6.778   1.768
29967W        W98440  13.158  23.144  10.519
29968W        W98441  10.380   0.384  10.001
29969W        W98442  10.784   1.780   3.758
29970W        W98443  33.597  32.015   9.991
29971W        W98444   5.904  19.135  10.419
29972W        W98445  15.707   1.789  12.987
29973W        W98446   4.352   8.687  14.941
29974W        W98447  20.199  16.684   1.270
29975W        W98448  33.976  40.989  13.052
29976W        W98449   9.371  35.093   2.208
29977W        W98450  39.952  42.797   1.327
29978W        W98451  26.495   7.200   0.299
29979W        W98452  28.036  12.281   4.805
29980W        W98453  12.713  17.156   1.884
29981W        W98454  28.011  12.237   0.835
29982W        W98455   0.319  34.016  13.309
29983W        W98456   2.942  15.233   2.414
29984W        W98457  42.478   9.351   2.901
29985W        W98458  11.746  25.181   0.764
29986W        W98459  39.534  29.478   0.351
29987W        W98460  36.961  23.141  14.351
29988W        W98461  21.067  12.252  14.351
29989W        W98462  41.009  34.955   4.254
29990W        W98463  18.250  19.178   0.297
29991W        W98464   0.782  11.176   0.386
29992W        W98465  35.545  43.321   2.253
29993W        W98466  16.800  13.340   4.814
29994W        W98467   6.356  44.939   4.735
29995W        W98468   0.475  42.958  10.558
29996W        W98469  11.667   9.377   3.705
29997W        W98470  30.548  43.873   9.593
29998W        W98471   1.249  36.068   3.663
29999W        W98472  25.593  28.572   3.168
30000W        W98473  27.061  22.193   0.868
30001W        W98474  27.012  36.570  14.810
30002W        W98475  40.029  44.340   2.214
30003W        W98476  16.607   8.797   3.169
30004W        W98477  25.615  39.991   4.151
30005W        W98478   2.816  27.534   1.363
30006W        W98479  37.475   0.854   3.680
30007W        W98480   6.833   8.233  11.405
30008W        W98481  17.284  35.973   3.236
30009W        W98482  19.776  17.154  12.976
30010W        W98483  16.183  39.050  10.131
30011W        W98484  39.815  10.226  14.775
30012W        W98485  42.818  36.957   4.765
30013W        W98486  27.082  28.459  11.953
30014W        W98487  20.641  44.412  12.384
30015W        W98488  12.184  44.949   4.126
30016W        W98489   2.302  16.258   4.315
30017W        W98490  17.117  15.667   1.882
30018W        W98491   2.425   9.271   2.392
30019W        W98492   9.169  12.186  10.914
30020W        W98493   2.318  31.412   2.219
30021W        W98494  38.049   6.808  10.436
30022W        W98495  17.660   8.686   1.703
30023W        W98496  21.565  16.248   3.736
30024W        W98497  40.007  18.677  12.416
30025W        W98498   5.900  38.907   2.327
30026W        W98499  19.567   6.846  14.334
30027W        W98500  17.299  18.577   0.865
30028W        W98501  39.322   4.255  13.492
30029W        W98502  17.106  19.724  10.889
30030W        W98503  29.424  11.256   3.806
30031W        W98504  15.122   5.351   2.799
30032W        W98505  28.671  27.578   3.196
30033W        W98506   5.802  11.373   1.839
30034W        W98507  39.370   8.677   0.915
30035W        W98508  20.611   2.305  10.512
30036W        W98509  21.542  32.890   1.223
30037W        W98510  39.397  24.590  12.951
30038W        W98511  43.406  29.005   9.950
30039W        W98512  23.676  25.532   3.304
30040W        W98513   5.697  43.824   1.420
30041W        W98514  11.281  30.616   3.724
30042W        W98515  32.574  37.384   0.414
30043W        W98516  19.695  41.426  10.937
30044W        W98517  12.785   0.832   0.881
30045W        W98518  19.651   9.199  13.985
30046W        W98519  32.127   8.843   0.928
30047W        W98520  43.422  24.051   0.922
30048W        W98521  21.616   1.397   4.149
30049W        W98522  40.482  32.420  12.848
30050W        W98523  33.503  25.543   3.274
30051W        W98524  39.558  26.146  13.446
30052W        W98525   3.268  31.403   2.847
30053W        W98526  15.745  24.144   2.848
30054W        W98527  22.212   6.401  14.032
30055W        W98528  21.738  12.282  14.462
30056W        W98529   9.724  37.432  12.539
30057W        W98530  24.638   3.737  11.016
30058W        W98531  16.242  10.744  14.350
30059W        W98532  29.993  33.088  11.008
30060W        W98533  24.725  30.069   4.124
30061W        W98534  42.953  23.001   2.190
30062W        W98535  37.040  40.513   0.838
30063W        W98536  13.750  20.040   1.365
30064W        W98537  29.571  34.543   4.717
30065W        W98538  32.072   9.713  12.371
30066W        W98539  16.251  32.418   0.467
30067W        W98540   1.753  25.604   1.925
30068W        W98541  38.892   0.822   2.280
30069W        W98542  42.478  37.579  14.455
30070W        W98543  14.246   7.863  11.487
30071W        W98544  17.062  40.866   1.349
30072W        W98545  24.035  37.386  13.868
30073W        W98546  26.502  37.043  11.430
30074W        W98547   3.315  44.971   3.236
30075W        W98548   4.840  29.078  13.956
30076W        W98549   0.963  27.137   2.881
30077W        W98550  35.587  12.827   4.729
30078W        W98551   7.669  33.915  14.770
30079W        W98552   4.905   1.817  14.494
30080W        W98553  43.488   1.337   1.449
30081W        W98554  21.047  44.968   1.881
30082W        W98555  23.678   0.832  12.429
30083W        W98556   4.318  17.780   1.427
30084W        W98557   7.214  23.503   1.385
30085W        W98558  34.584   4.353   2.345
30086W        W98559  27.125  39.476   2.817
30087W        W98560  15.677  13.161   3.855
30088W        W98561  34.504  22.027   0.753
30089W        W98562  34.429  25.203  13.394
30090W        W98563  13.746   4.777   1.714
30091W        W98564  43.912   7.185  11.057
30092W        W98565  38.062  36.572  10.500
30093W        W98566  21.122  17.301  14.423
30094W        W98567  31.607  22.571   0.924
30095W        W98568   4.264  14.737   2.697
30096W        W98569   4.710   4.736   1.839
30097W        W98570  35.856  10.152  14.421
30098W        W98571  19.600   0.467  14.360
30099W        W98572  31.962  26.000  11.923
30100W        W98573  38.930   7.793   0.266
30101W        W98574   6.271   3.840   2.699
30102W        W98575  26.957   7.330  12.828
30103W        W98576  35.099  15.270  12.827
30104W        W98577  44.791  11.349  14.973
30105W        W98578  39.348  14.817   3.251
30106W        W98579  15.806  36.382   3.348
30107W        W98580  15.788  43.358  12.401
30108W        W98581  33.070  36.459   4.649
30109W        W98582  41.363  39.470  11.428
30110W        W98583   8.686   9.203  13.060
30111W        W98584  43.324  16.751  14.456
30112W        W98585  39.394   2.423   3.267
30113W        W98586  31.955  33.879  12.498
30114W        W98587  27.944  13.689  10.577
30115W        W98588  18.288   1.278  12.047
30116W        W98589  34.449  17.164  13.964
30117W        W98590  19.175   9.855  13.476
30118W        W98591  23.620  44.419  14.888
30119W        W98592  41.376   8.881   4.313
30120W        W98593  38.419   8.833   4.717
30121W        W98594  36.529  34.540   3.185
30122W        W98595  23.123  21.057  11.584
30123W        W98596  13.205  21.565   2.222
30124W        W98597   3.281  43.903  12.954
30125W        W98598  18.251  32.033   4.121
30126W        W98599  18.685   9.650   3.869
30127W        W98600   0.884  31.129   4.710
30128W        W98601  40.532  24.102  10.414
30129W        W98602  15.704  21.071  12.841
30130W        W98603  40.867  24.082   0.432
30131W        W98604   5.917   7.319   2.258
30132W        W98605  44.813  39.529   4.250
30133W        W98606  15.661  15.778   3.803
30134W        W98607  10.203  13.336   2.754
30135W        W98608  22.026  24.091  13.402
30136W        W98609   2.908   1.394   0.945
30137W        W98610   2.818  41.916   4.165
30138W        W98611   3.236   2.847   4.307
30139W        W98612  36.385  12.764  11.580
30140W        W98613  40.307  17.245   2.785
30141W        W98614  25.571  21.569  10.911
30142W        W98615   2.745  18.146  13.059
30143W        W98616  38.400  27.648   0.760
30144W        W98617  17.594  22.209  14.297
30145W        W98618  22.735  23.023   2.720
30146W        W98619  16.207  10.350   1.395
30147W        W98620  30.125   0.381   2.181
30148W        W98621  16.647  25.676  12.505
30149W        W98622  12.811  11.311   2.385
30150W        W98623  30.413  37.556   3.748
30151W        W98624  32.493  35.038  10.638
30152W        W98625  40.903  38.002  13.396
30153W        W98626  20.169  36.433   0.943
30154W        W98627  31.093   9.308  11.371
30155W        W98628  25.044   6.742   1.760
30156W        W98629  33.131  25.636  13.018
30157W        W98630  34.886  14.704   1.922
30158W        W98631   0.267   9.658  11.875
30159W        W98632   7.890  34.077  12.566
30160W        W98633   2.833  12.838  14.962
30161W        W98634  21.026  41.926   3.677
30162W        W98635  24.661  41.874  13.898
30163W        W98636  33.607  14.164   4.114
30164W        W98637  12.707  43.904  11.990
30165W        W98638   7.669  15.577   3.370
30166W        W98639  29.459  12.690  11.405
30167W        W98640   9.680  41.009  12.033
30168W        W98641  29.652  18.727   1.278
30169W        W98642  21.603   1.291   2.849
30170W        W98643  32.634  26.621  10.537
30171W        W98644  35.931  29.036  11.969
30172W        W98645  43.330  36.076   3.691
30173W        W98646  25.668  36.354   0.913
30174W        W98647  13.763  17.143   1.781
30175W        W98648  23.124  40.519   4.795
30176W        W98649   0.963  41.871  13.961
30177W        W98650  14.315  21.082   1.745
30178W        W98651  14.185  10.691   2.413
30179W        W98652  23.210  37.426   4.666
30180W        W98653  36.378  21.551   3.307
30181W        W98654  27.082  25.663  12.526
30182W        W98655  25.488  42.929  14.355
30183W        W98656  44.269  17.276   4.720
30184W        W98657  42.334  13.803  12.912
30185W        W98658  21.130  42.797   0.817
30186W        W98659  38.972   8.285   1.395
30187W        W98660  14.296  27.065   3.866
30188W        W98661   8.326  21.756  10.928
30189W        W98662  12.273  17.161   3.258
30190W        W98663  32.564  42.992   0.825
30191W        W98664  17.600  27.116   3.376
30192W        W98665  32.134  41.956   4.749
30193W        W98666  19.571  43.312   0.275
30194W        W98667   5.818  16.219  14.903
30195W        W98668  13.159   3.337   4.738
30196W        W98669  28.995  22.610   2.257
30197W        W98670   0.419  27.548  11.080
30198W        W98671  32.994  11.345  11.894
30199W        W98672  23.210   7.723   2.897
30200W        W98673   7.275   6.255  11.432
30201W        W98674  18.752  18.773   0.753
30202W        W98675   8.876   2.313  12.911
30203W        W98676  30.022  29.144  13.482
30204W        W98677  25.155   5.384  12.973
30205W        W98678  29.102   0.474   0.868
30206W        W98679  44.763  16.262   3.369
30207W        W98680  32.096  20.186   0.732
30208W        W98681  44.319  34.107  12.377
30209W        W98682  18.774  13.144  13.054
30210W        W98683  26.184   9.703   3.830
30211W        W98684  13.311  11.857  10.143
30212W        W98685  20.737   5.410   2.289
30213W        W98686  28.461  40.488  11.428
30214W        W98687   2.300  14.599  11.431
30215W        W98688  41.436  38.334  11.495
30216W        W98689  12.124  25.029   4.321
30217W        W98690  17.648  15.586   3.646
30218W        W98691  31.565  28.554  11.106
30219W        W98692  37.516  10.666  11.006
30220W        W98693  11.780  12.816  10.604
30221W        W98694  18.161  20.203   1.373
30222W        W98695  25.518  19.692  13.412
30223W        W98696  36.576  29.656   1.707
30224W        W98697   7.867   0.348  13.861
30225W        W98698  35.975  20.560   1.739
30226W        W98699  25.691  38.986  14.418
30227W        W98700   8.846   8.758   1.702
30228W        W98701   5.315  43.425   1.253
30229W        W98702  31.051  12.241   4.300
30230W        W98703   4.438  35.907   3.341
30231W        W98704  22.602  21.237   0.866
30232W        W98705  14.711  11.772  10.424
30233W        W98706  23.630  34.106  11.087
30234W        W98707  32.001  36.911  14.991
30235W        W98708   0.270   0.491  10.953
30236W        W98709  26.078   4.769  12.910
30237W        W98710  41.441  32.087   4.804
30238W        W98711  25.142  21.562  13.884
30239W        W98712  30.644  26.589  13.919
30240W        W98713  42.960  25.149  13.868
30241W        W98714   0.777  37.535  12.057
30242W        W98715  28.010  43.287   2.673
30243W        W98716  11.804  21.051  10.442
30244W        W98717  29.565  37.835  11.008
30245W        W98718   5.809  10.381  14.846
30246W        W98719   5.850  16.167   1.794
30247W        W98720   6.687   7.834   0.934
30248W        W98721  28.539  11.807   2.727
30249W        W98722   3.726  41.467   3.294
30250W        W98723  27.643  35.965  13.842
30251W        W98724  21.728   2.410   1.719
30252W        W98725   9.772  14.306  14.504
30253W        W98726  17.094  10.707   0.446
30254W        W98727  41.296  23.180   1.913
30255W        W98728  44.447  38.949   1.908
30256W        W98729   2.430  37.080  12.471
30257W        W98730   5.427  14.606  12.511
30258W        W98731  21.085  36.865  11.437
30259W        W98732  22.565  15.764   2.251
30260W        W98733   5.391  23.702   1.381
30261W        W98734   9.843  40.025   0.478
30262W        W98735  36.533  40.353   4.124
30263W        W98736  10.276   4.385  11.125
30264W        W98737  44.504  18.157  12.852
30265W        W98738  40.836   4.295   3.163
30266W        W98739  30.611  31.483   3.835
30267W        W98740   0.935  37.354  13.024
30268W        W98741  24.606  18.069  14.839
30269W        W98742  24.178  16.210   3.227
30270W        W98743  19.689  18.226  12.958
30271W        W98744  32.515  26.660  12.978
30272W        W98745  12.319  12.172   3.253
30273W        W98746  17.715  30.553  13.467
30274W        W98747  21.660  26.612   1.920
30275W        W98748  27.126  22.558   2.371
30276W        W98749  25.663  42.355  14.760
30277W        W98750  16.629  42.281  14.383
30278W        W98751  19.627  28.152   5.260
30279W        W98752  29.484  39.843   0.956
30280W        W98753  37.836  38.038   4.633
30281W        W98754  10.217  28.532  14.359
30282W        W98755   2.372  26.509  11.957
30283W        W98756  14.593   6.379   0.946
30284W        W98757  29.005   8.882  12.455
30285W        W98758  42.845  28.951   4.809
30286W        W98759   9.167  34.523   0.853
30287W        W98760  37.368  18.190  14.843
30288W        W98761  14.321   3.720   0.956
30289W        W98762  27.965   6.292  12.369
30290W        W98763   8.406  18.719  14.309
30291W        W98764   2.897  27.681   4.823
30292W        W98765  38.937  41.974  12.853
30293W        W98766  13.807  23.119  14.474
30294W        W98767  25.481  38.569   3.651
30295W        W98768  36.967  20.148  12.018
30296W        W98769  12.806  21.699  10.955
30297W        W98770   4.944  19.543  10.147
30298W        W98771  32.035   4.930  14.380
30299W        W98772  44.300  33.623  10.561
30300W        W98773  31.557  38.330   3.303
30301W        W98774  23.702  32.615  11.526
30302W        W98775   0.983  29.057  13.056
30303W        W98776  22.069  34.064  11.988
30304W        W98777  23.111  16.765   2.317
30305W        W98778  30.468  41.928  13.809
30306W        W98779  35.541  28.060   1.295
30307W        W98780  29.010  43.311   1.906
30308W        W98781  44.452  13.109   0.249
30309W        W98782  37.542  15.180  11.089
30310W        W98783  15.676  28.120  12.081
30311W        W98784  36.398  38.879   9.921
30312W        W98785  43.348   5.880   4.800
30313W        W98786   5.242  28.462  13.548
30314W        W98787  21.103  41.364  12.416
30315W        W98788  28.121  29.460   2.324
30316W        W98789   9.313  22.174  12.421
30317W        W98790  35.091  13.685  12.390
30318W        W98791   2.779  23.161  14.382
30319W        W98792  21.609  41.500   0.814
30320W        W98793   9.747  22.068  13.509
30321W        W98794  44.298  40.308   3.305
30322W        W98795  29.020  22.251   3.805
30323W        W98796  38.326  22.223   1.794
30324W        W98797  21.121  13.204   2.329
30325W        W98798  29.652  43.477  13.509
30326W        W98799  41.370   7.344  11.458
30327W        W98800  27.116  26.182   2.192
30328W        W98801  23.595  28.051  11.467
30329W        W98802  34.079  39.816   2.722
30330W        W98803   8.280   3.876   2.853
30331W        W98804  36.411  22.213   1.308
30332W        W98805  10.857  12.251  12.863
30333W        W98806   8.679  19.580   2.364
30334W        W98807  13.235  22.243   4.184
30335W        W98808  44.354   0.829   5.320
30336W        W98809  15.806   7.801  11.003
30337W        W98810  43.933   0.261  10.594
30338W        W98811   7.716  21.729  13.988
30339W        W98812   2.743  30.973   4.275
30340W        W98813   9.240  36.387   5.261
30341W        W98814   4.820  10.648  14.970
30342W        W98815  30.495  30.089  14.800
30343W        W98816  37.984  39.822  13.053
30344W        W98817   6.383  16.659  10.933
30345W        W98818   8.202  35.017  14.277
30346W        W98819   1.945   5.913  13.947
30347W        W98820   6.809  43.976   1.351
30348W        W98821  21.196   3.945   1.707
30349W        W98822  39.326  29.156  12.504
30350W        W98823   6.734   4.291   1.322
30351W        W98824  27.072   9.317  14.782
30352W        W98825  27.961  30.126   2.786
30353W        W98826  42.432   8.690   0.948
30354W        W98827  39.909   9.782  14.999
30355W        W98828   4.921  29.428   3.295
30356W        W98829  10.686  29.048   1.220
30357W        W98830   6.192  30.651   0.262
30358W        W98831   0.939  13.664   3.325
30359W        W98832   2.343   3.387   3.669
30360W        W98833  35.441  16.799   0.756
30361W        W98834  21.176  42.368   1.866
30362W        W98835  34.098  33.046  11.542
30363W        W98836  28.976  27.460   3.182
30364W        W98837  32.088   1.418  12.419
30365W        W98838  19.630  39.543  12.856
30366W        W98839  38.073  31.471  14.294
30367W        W98840  10.167  14.671   0.857
30368W        W98841  12.853   0.772   2.267
30369W        W98842   2.266  11.783  12.966
30370W        W98843  12.787  15.622   0.842
30371W        W98844  12.126  20.253  10.553
30372W        W98845   7.778  30.119   2.811
30373W        W98846  43.857  33.387  14.872
30374W        W98847   6.242  38.023  11.877
30375W        W98848  21.230  43.850  11.007
30376W        W98849  12.743  21.682   3.799
30377W        W98850   5.831  35.446   3.227
30378W        W98851   9.795  37.399   0.302
30379W        W98852  43.932  20.214   1.903
30380W        W98853   4.851  13.700  13.978
30381W        W98854  14.620   6.236  12.486
30382W        W98855  39.976  19.086   0.396
30383W        W98856  20.687  44.354  13.049
30384W        W98857  16.117  40.973   5.589
30385W        W98858  29.483  32.046   1.212
30386W        W98859   2.299  23.108  11.113
30387W        W98860  15.256  28.055   1.244
30388W        W98861  41.956  19.558   3.744
30389W        W98862  39.045  22.614   2.302
30390W        W98863  19.216  19.100   1.377
30391W        W98864  19.095  42.930   4.310
30392W        W98865  20.639  40.832  13.386
30393W        W98866  27.992  19.778   5.206
30394W        W98867  27.014  32.457   0.955
30395W        W98868  37.459  16.277   0.314
30396W        W98869   1.388   8.757   1.350
30397W        W98870  42.843  30.496  10.938
30398W        W98871  28.523   1.832   3.688
30399W        W98872  19.150  37.460  12.039
30400W        W98873  11.670   1.750  13.946
30401W        W98874   7.251  41.427  13.360
30402W        W98875   5.256  40.501  14.827
30403W        W98876  27.134   8.675   1.860
30404W        W98877  25.526   0.981   0.728
30405W        W98878  43.458   2.751  14.869
30406W        W98879  16.771  18.644  13.508
30407W        W98880   3.388  30.162  11.537
30408W        W98881   2.887   2.737   4.257
30409W        W98882  41.306  35.901  12.040
30410W        W98883   7.778  36.493  11.951
30411W        W98884  14.309  12.770   0.730
30412W        W98885  30.122  42.452   0.251
30413W        W98886  31.606  25.966  12.954
30414W        W98887  36.853  21.540  14.792
30415W        W98888  18.601   7.195   5.145
30416W        W98889   5.794  29.991  10.976
30417W        W98890  23.672  26.505  14.373
30418W        W98891  30.971  13.823  12.846
30419W        W98892  11.717  36.442  10.544
30420W        W98893  19.660  15.791   0.811
30421W        W98894   1.267  27.947   0.890
30422W        W98895  11.682   6.700   3.226
30423W        W98896  25.217  33.428   2.322
30424W        W98897   0.902  22.074  14.961
30425W        W98898  14.261  39.333   3.356
30426W        W98899  29.993  15.737   1.932
30427W        W98900  18.222  43.298   3.842
30428W        W98901  17.582   5.193   0.954
30429W        W98902  34.436  17.106  10.537
30430W        W98903  32.545  23.582  10.440
30431W        W98904  36.055  23.005  10.474
30432W        W98905  15.220  38.830  14.341
30433W        W98906  33.547  37.066   1.311
30434W        W98907  36.564  38.419  10.528
30435W        W98908  16.602  30.508  10.409
30436W        W98909  42.524  31.441  14.914
30437W        W98910  12.835  12.225   0.924
30438W        W98911  29.920  42.929  12.544
30439W        W98912  11.774  16.159  11.899
30440W        W98913   9.655  17.631   0.424
30441W        W98914  35.079   5.693  13.830
30442W        W98915   5.363  35.955  13.508
30443W        W98916  16.735   2.877   1.727
30444W        W98917  39.059  30.505   5.251
30445W        W98918   5.422  35.469   0.288
30446W        W98919  19.189  36.501  13.353
30447W        W98920  34.106  18.222  11.910
30448W        W98921  39.507   8.661  11.880
30449W        W98922  11.206   9.335  14.845
30450W        W98923  18.225   5.269  14.934
30451W        W98924  43.400   5.380   3.154
30452W        W98925  37.389  30.151   3.838
30453W        W98926  37.463  13.245  10.547
30454W        W98927  17.644  25.060   4.808
30455W        W98928   4.881   8.865  11.395
30456W        W98929  35.995  25.160   4.756
30457W        W98930  17.226  36.915   3.853
30458W        W98931  41.519   4.797  13.481
30459W        W98932  30.612  29.606   2.891
30460W        W98933  21.665   7.341  13.010
30461W        W98934  26.652  22.616  12.040
30462W        W98935  37.996  11.227   3.852
30463W        W98936   6.817  15.730  13.910
30464W        W98937  25.064  33.380   1.750
30465W        W98938  28.028  36.515   4.682
30466W        W98939   8.385  24.156  13.438
30467W        W98940  41.421  42.845   4.804
30468W        W98941   4.721  31.013   2.781
30469W        W98942  43.018  21.185   4.199
30470W        W98943  36.484  34.539  12.919
30471W        W98944  32.493  36.857  11.541
30472W        W98945  10.857  32.049   0.379
30473W        W98946  26.168  35.015  10.463
30474W        W98947  32.505   6.822   3.200
30475W        W98948  34.422  12.175  11.398
30476W        W98949  17.673  14.647   3.670
30477W        W98950   8.312  38.899  10.447
30478W        W98951  27.945   7.735   2.309
30479W        W98952  12.341  40.016   4.753
30480W        W98953   4.842  13.341  12.898
30481W        W98954  33.564   8.838   0.846
30482W        W98955  21.633  22.240   2.253
30483W        W98956   8.779  32.141  13.482
30484W        W98957  13.793  43.766  14.439
30485W        W98958  10.170  18.102   3.662
30486W        W98959   8.165  22.520   3.752
30487W        W98960  14.723  28.003  12.857
30488W        W98961   7.863  20.215  14.776
30489W        W98962   5.877   4.904   2.891
30490W        W98963   2.738  25.707  13.493
30491W        W98964  44.364  35.083   3.639
30492W        W98965   3.259   5.321  13.824
30493W        W98966   9.350   2.920  13.323
30494W        W98967  30.028   3.294   1.934
30495W        W98968  44.803   1.853   3.782
30496W        W98969  31.969   3.433  11.502
30497W        W98970  20.193  28.980   1.769
30498W        W98971  11.733  24.514   1.320
30499W        W98972  27.599  40.316   3.328
30500W        W98973  28.672  17.793  10.542
30501W        W98974  30.158   5.200  13.853
30502W        W98975   4.431  43.890  12.416
30503W        W98976  15.620  42.860  13.324
30504W        W98977  14.774   2.409   4.711
30505W        W98978  41.448  21.130  14.988
30506W        W98979   6.779  24.630  12.993
30507W        W98980  30.950  26.073   9.919
30508W        W98981  24.102  18.553  11.584
30509W        W98982   6.801  40.802  13.841
30510W        W98983  17.091  38.068   3.652
30511W        W98984  32.615  42.895   0.438
30512W        W98985  10.797   8.741  12.019
30513W        W98986  40.461  22.081  13.949
30514W        W98987   9.278  38.974  12.448
30515W        W98988  33.551  19.751   3.190
30516W        W98989  34.074  15.235   1.808
30517W        W98990  41.911   5.771   2.902
30518W        W98991  30.549  21.536   1.266
30519W        W98992  27.670  19.153  10.978
30520W        W98993  27.148  29.608   2.370
30521W        W98994  19.738  28.945   4.834
30522W        W98995  33.386  29.554  12.037
30523W        W98996  10.295  37.960   3.278
30524W        W98997  24.150  13.637   0.866
30525W        W98998  20.552  15.764   0.859
30526W        W98999  44.433  14.139  13.887
30527W        W99000  19.133  18.188  12.490
30528W        W99001  21.115   2.892   4.809
30529W        W99002  33.450  44.943   2.808
30530W        W99003  28.036  42.422   3.364
30531W        W99004   5.689  22.129  11.032
30532W        W99005  37.954  11.275   0.926
30533W        W99006  38.372  24.024   3.832
30534W        W99007  16.199  42.369   3.360
30535W        W99008   4.881  24.719  10.973
30536W        W99009  36.493  27.976  13.528
30537W        W99010  20.127  18.628   1.897
30538W        W99011  33.959  32.574   4.181
30539W        W99012   8.713  36.593  14.910
30540W        W99013  42.358  40.486  11.382
30541W        W99014  41.504  26.980  12.358
30542W        W99015   1.931   9.856  11.400
30543W        W99016  18.109  36.494  12.375
30544W        W99017  26.112  40.453   0.895
30545W        W99018   3.812   8.732  11.432
30546W        W99019  23.687  44.927   1.710
30547W        W99020  12.335  35.604   0.399
30548W        W99021   6.211  44.760  12.040
30549W        W99022   0.834   2.788   4.194
30550W        W99023  10.757  22.695  10.035
30551W        W99024  27.969   6.424   1.780
30552W        W99025  22.681   6.183  11.077
30553W        W99026  23.023  17.667   4.640
30554W        W99027  22.550  18.569  11.024
30555W        W99028   2.889  12.204   4.749
30556W        W99029   7.887  35.045  12.553
30557W        W99030  15.252  12.211  14.299
30558W        W99031  20.720  14.633   0.824
30559W        W99032   9.803   8.359   0.339
30560W        W99033   4.287  39.809  12.446
30561W        W99034   2.899   4.701  12.992
30562W        W99035  44.812  20.152  10.432
30563W        W99036  21.613   6.186   3.765
30564W        W99037   1.245   0.457  14.447
30565W        W99038  39.401  24.196  14.863
30566W        W99039   1.819  25.661   4.803
30567W        W99040   7.271   2.376  14.443
30568W        W99041  44.803  31.900   2.765
30569W        W99042  31.466  39.433  13.427
30570W        W99043  13.753  16.151  12.568
30571W        W99044  11.791  40.395  13.940
30572W        W99045  10.183  19.241   1.267
30573W        W99046  10.806  14.144  13.535
30574W        W99047  27.959  44.463  10.528
30575W        W99048  33.625  19.249  12.580
30576W        W99049   7.340   3.455   4.126
30577W        W99050  23.501  17.757  14.383
30578W        W99051  13.190  33.927  11.885
30579W        W99052   9.729  44.921   2.192
30580W        W99053  25.609  13.242  14.971
30581W        W99054   6.335  40.329  14.837
30582W        W99055  28.031  16.228  10.638
30583W        W99056   9.744  21.680   4.307
30584W        W99057  43.305  35.889   4.729
30585W        W99058  36.380   2.768   3.199
30586W        W99059  30.580  32.423   2.848
30587W        W99060  43.935  22.517   1.420
30588W        W99061  17.223  13.839  13.312
30589W        W99062  36.538  35.028   4.669
30590W        W99063  14.729  27.941   3.796
30591W        W99064  21.125  28.623   2.400
30592W        W99065  17.105   4.937  11.480
30593W        W99066  39.500   4.913   0.780
30594W        W99067  13.653  12.751  13.804
30595W        W99068  42.380  22.535   0.952
30596W        W99069  42.387  32.929  12.441
30597W        W99070  21.137  38.362   4.323
30598W        W99071   4.810   0.985  14.511
30599W        W99072   8.351   3.246   0.774
30600W        W99073  17.602  12.230   0.353
30601W        W99074   2.301  39.455  10.905
30602W        W99075  35.376  19.116  14.484
30603W        W99076  15.713  12.212   2.385
30604W        W99077  43.873  42.810   2.683
30605W        W99078  28.576  19.197  12.861
30606W        W99079  11.677  36.525  11.432
30607W        W99080   9.668   8.805   3.169
30608W        W99081   2.914   8.824   0.812
30609W        W99082  29.153   0.358  13.406
30610W        W99083  13.809   9.700   4.787
30611W        W99084  38.545  44.266   0.447
30612W        W99085   0.405  14.279  12.444
30613W        W99086   3.312  18.590  12.406
30614W        W99087  37.028  43.973  12.850
30615W        W99088  38.989  43.453  10.563
30616W        W99089  33.587   7.768   2.292
30617W        W99090   0.805  39.545  10.967
30618W        W99091  41.506  40.833   0.376
30619W        W99092   6.297  22.173  12.823
30620W        W99093  43.890   1.318  14.462
30621W        W99094   1.274  17.756  12.833
30622W        W99095  35.860   9.818  14.778
30623W        W99096  19.752  28.501  13.995
30624W        W99097   7.712   8.756  13.513
30625W        W99098  21.515  43.985   3.258
30626W        W99099  34.951   8.800  11.402
30627W        W99100  36.856  18.095   4.690
30628W        W99101   0.410  31.417  13.357
30629W        W99102   8.401   8.352   0.428
30630W        W99103  26.048   2.452   3.857
30631W        W99104  15.221  27.960   4.334
30632W        W99105   6.204   3.300   2.738
30633W        W99106  17.673  41.957  10.968
30634W        W99107  10.666  15.720   0.250
30635W        W99108   5.928  33.993   0.382
30636W        W99109  19.276  24.158  12.992
30637W        W99110  40.467   3.288   2.415
30638W        W99111  16.711  29.051   2.273
30639W        W99112  21.560   8.263   2.897
30640W        W99113  36.549  16.812  11.993
30641W        W99114  18.601  44.481   2.748
30642W        W99115  34.599  17.237  12.837
30643W        W99116  44.870  38.065   2.419
30644W        W99117  13.758  13.828  11.982
30645W        W99118  22.562  24.543   4.272
30646W        W99119  44.975  31.501  10.560
30647W        W99120   2.853   3.838  14.317
30648W        W99121  23.054  13.608   2.281
30649W        W99122  33.458  37.429  13.465
30650W        W99123   7.384  37.839  10.587
30651W        W99124  32.455   3.389  12.535
30652W        W99125  41.976   9.266  14.853
30653W        W99126  44.451   7.691   1.397
30654W        W99127  35.002  19.729   1.410
30655W        W99128  30.094  20.584  13.027
30656W        W99129  35.557  14.245  11.413
30657W        W99130  29.602  23.587  13.827
30658W        W99131  42.337  22.054   3.226
30659W        W99132   6.877  12.234   2.693
30660W        W99133   8.879  24.086   4.166
30661W        W99134  18.665  35.361  12.094
30662W        W99135  21.593  42.852  12.888
30663W        W99136  32.564  23.510   5.594
30664W        W99137  11.722  27.101   4.277
30665W        W99138  28.597  24.705   4.300
30666W        W99139   4.224   4.701  11.034
30667W        W99140  19.062  13.113   0.394
30668W        W99141  21.178  26.084   3.862
30669W        W99142  38.952   8.868   0.265
30670W        W99143  10.378  29.037   0.287
30671W        W99144  39.353   7.174  14.402
30672W        W99145  16.673  25.636  13.536
30673W        W99146   6.225   7.698  10.547
30674W        W99147  12.728   5.350  11.024
30675W        W99148  15.106   2.269   3.309
30676W        W99149  39.382  22.154   2.280
30677W        W99150  16.807  16.212  13.414
30678W        W99151  24.689  29.068   4.289
30679W        W99152  13.683  14.278   2.301
30680W        W99153   3.233  15.323   1.240
30681W        W99154  35.068  22.086  13.797
30682W        W99155  35.572  34.942  13.426
30683W        W99156  29.100  19.546  13.027
30684W        W99157  19.610  27.041  13.933
30685W        W99158   8.216   9.271   1.344
30686W        W99159  12.637   1.330  14.349
30687W        W99160  30.007  29.647  11.537
30688W        W99161  18.204  12.163  10.927
30689W        W99162   8.846  18.287   3.828
30690W        W99163  12.664  34.119  12.364
30691W        W99164  40.441  37.571   3.251
30692W        W99165  10.653  32.945  11.859
30693W        W99166  24.185  33.910  11.538
30694W        W99167  16.239  13.827   1.215
30695W        W99168  21.570  15.233   2.746
30696W        W99169   7.686  27.173  10.628
30697W        W99170  11.783   2.338   3.828
30698W        W99171   9.300  13.135  13.533
30699W        W99172  11.789  43.322   0.325
30700W        W99173  43.343  35.037  10.595
30701W        W99174  17.221  33.421  11.001
30702W        W99175   2.345  16.648  10.952
30703W        W99176  24.578  26.006   1.394
30704W        W99177  11.703  22.685  10.013
30705W        W99178   1.963  11.299  14.949
30706W        W99179   7.694  32.574  14.462
30707W        W99180  17.210  27.047  10.995
30708W        W99181  26.116  26.561   2.800
30709W        W99182  40.010  36.876  13.797
30710W        W99183  19.143  17.148  14.392
30711W        W99184  32.511  31.402  12.048
30712W        W99185  20.197  32.483   4.751
30713W        W99186  12.774  44.331  12.374
30714W        W99187   2.940   7.273  11.577
30715W        W99188  22.037  13.838   1.766
30716W        W99189   9.270  29.045  13.040
30717W        W99190  23.687  25.580   9.475
30718W        W99191  36.001  27.195  11.473
30719W        W99192  33.473  28.590   3.638
30720W        W99193  11.707  16.194   1.405
30721W        W99194   0.904   2.444  14.406
30722W        W99195   9.259   7.842  13.909
30723W        W99196   6.183  30.648   4.733
30724W        W99197  30.453  20.062   0.299
30725W        W99198  15.607  14.208  12.862
30726W        W99199  44.760  14.636   1.450
30727W        W99200  41.314  30.558  10.431
30728W        W99201   9.699  18.641  12.994
30729W        W99202   8.770  26.188  12.474
30730W        W99203  26.995  12.669  11.542
30731W        W99204  28.523  37.394   2.756
30732W        W99205  22.505  22.121  11.912
30733W        W99206  27.058  25.167  14.455
30734W        W99207  23.620  14.114   4.296
30735W        W99208  32.488  40.485   3.795
30736W        W99209  18.206   7.189  11.891
30737W        W99210  14.823  16.616  14.395
30738W        W99211   6.843  21.658   2.353
30739W        W99212   4.426  18.785  10.909
30740W        W99213  18.637  25.515  11.559
30741W        W99214  18.296  30.473  11.124
30742W        W99215  29.037  19.119   2.214
30743W        W99216  24.506  36.410  10.415
30744W        W99217  11.306   4.708  12.512
30745W        W99218  19.069  34.514  13.366
30746W        W99219  42.386  15.323   2.327
30747W        W99220  14.725  24.648  11.490
30748W        W99221  21.725  36.580  14.954
30749W        W99222  39.878  33.424   0.857
30750W        W99223   4.879  10.723   3.684
30751W        W99224  38.516  18.247  14.862
30752W        W99225  36.371  13.308  10.911
30753W        W99226  41.913   0.960  12.454
30754W        W99227  36.071  26.017  14.456
30755W        W99228  29.546  20.042   4.734
30756W        W99229  33.975   1.804   1.237
30757W        W99230  21.162  16.675   2.409
30758W        W99231  36.559  15.126   2.247
30759W        W99232   1.352  22.610   2.334
30760W        W99233  18.590  30.463  10.126
30761W        W99234  28.550   3.712  11.040
30762W        W99235   7.733  11.173  12.555
30763W        W99236   5.230  28.535  14.783
30764W        W99237   3.815  35.597  13.963
30765W        W99238  17.704  10.761  11.461
30766W        W99239  37.449  11.864  10.972
30767W        W99240  19.249  42.022  11.397
30768W        W99241  14.142  10.330  12.429
30769W        W99242  31.571   5.220   4.674
30770W        W99243  16.083  19.244   1.309
30771W        W99244  29.982  37.582  13.805
30772W        W99245  43.796  23.515  12.577
30773W        W99246  44.483  20.549   4.757
30774W        W99247  14.256  17.186  11.859
30775W        W99248  15.809   0.424   2.324
30776W        W99249  34.940  19.589  12.065
30777W        W99250  36.498  39.043   0.306
30778W        W99251   6.286  12.708   4.816
30779W        W99252  21.138  26.498   2.191
30780W        W99253  39.835  29.956   0.875
30781W        W99254  20.107  44.358  14.423
30782W        W99255  21.612   5.888   1.720
30783W        W99256  41.374   6.837  12.476
30784W        W99257  36.461  27.527  12.010
30785W        W99258  41.497   2.452   1.253
30786W        W99259  11.750   4.926   5.294
30787W        W99260  29.443   7.200   4.349
30788W        W99261  32.610  32.415   0.937
30789W        W99262  42.858  42.779  11.097
30790W        W99263  42.398   5.247  11.961
30791W        W99264  36.484  18.130   4.781
30792W        W99265  33.566   3.248   3.852
30793W        W99266  12.116  39.828  10.639
30794W        W99267  17.239  16.683   0.322
30795W        W99268   1.410  25.654   4.604
30796W        W99269  11.627  21.647  14.431
30797W        W99270   7.792  35.912   0.444
30798W        W99271  42.523   1.807   1.771
30799W        W99272  18.159  34.460   1.723
30800W        W99273  11.361  30.134  12.442
30801W        W99274  22.717  14.778   3.847
30802W        W99275  19.098  22.015   1.897
30803W        W99276  44.494  14.328   2.342
30804W        W99277  22.162  26.070   3.741
30805W        W99278  21.260  38.349   3.679
30806W        W99279  31.435  32.565  11.874
30807W        W99280  21.637  23.182  13.523
30808W        W99281  25.612   2.274  11.580
30809W        W99282  25.589  11.142   3.857
30810W        W99283  38.424  40.957  10.643
30811W        W99284  39.520  22.666  14.437
30812W        W99285   5.196  44.271  11.922
30813W        W99286   1.275  16.305  14.759
30814W        W99287   2.402  39.514  13.011
30815W        W99288  15.707  30.156   2.850
30816W        W99289  24.128  27.659   1.296
30817W        W99290  20.544  28.080  11.077
30818W        W99291  12.326   6.191  11.569
30819W        W99292  28.605  44.907   1.867
30820W        W99293  21.679  13.725  12.455
30821W        W99294  37.957  31.149   1.720
30822W        W99295   7.171  44.286  10.956
30823W        W99296  42.395  25.173   3.657
30824W        W99297  23.193  43.406  12.846
30825W        W99298  35.889   5.792  13.932
30826W        W99299  17.284  13.193   3.163
30827W        W99300  39.418  35.005  14.490
30828W        W99301   3.435  33.470  14.988
30829W        W99302  41.835  24.513  11.997
30830W        W99303  42.991  43.868   0.925
30831W        W99304  11.262  43.341  10.503
30832W        W99305  13.773  24.012   1.752
30833W        W99306  24.033  21.626  12.887
30834W        W99307  21.711  17.623  11.411
30835W        W99308  26.157  12.756   0.839
30836W        W99309  43.877  36.562  11.443
30837W        W99310  16.075   9.733   1.875
30838W        W99311  40.393  17.156   5.302
30839W        W99312  25.016  21.561  14.437
30840W        W99313  28.010  13.655  13.818
30841W        W99314  36.075  17.566  10.597
30842W        W99315   6.335  13.226   3.678
30843W        W99316  27.988  25.498  14.856
30844W        W99317   9.728  16.234   2.212
30845W        W99318  37.030  10.724  10.608
30846W        W99319  41.306  39.365  12.944
30847W        W99320   3.842  11.343   3.271
30848W        W99321  24.566  12.629  14.903
30849W        W99322  25.509  31.437   1.911
30850W        W99323  39.000  43.850  13.458
30851W        W99324   9.731  29.134   2.412
30852W        W99325  18.129  44.865   0.785
30853W        W99326  34.614  25.558   0.353
30854W        W99327  42.922   1.462  12.383
30855W        W99328  30.075  10.841  13.970
30856W        W99329   7.862  36.550   2.262
30857W        W99330  10.315   6.677   3.665
30858W        W99331   0.801  36.435   2.302
30859W        W99332  22.098  42.011   4.829
30860W        W99333  44.823  29.005   3.835
30861W        W99334   7.378  10.213   4.209
30862W        W99335  14.296  31.923  11.496
30863W        W99336  40.035   5.749   4.814
30864W        W99337   9.243   2.893  10.996
30865W        W99338  19.114  30.150   0.382
30866W        W99339  12.822   7.239   4.819
30867W        W99340  30.623  28.544   0.358
30868W        W99341  11.342   0.382   3.277
30869W        W99342  42.803   3.882   3.757
30870W        W99343  23.658  29.510   1.401
30871W        W99344  27.571   1.329  14.479
30872W        W99345  33.614  14.708   5.283
30873W        W99346  26.034   7.281  14.759
30874W        W99347   1.938  25.646  14.374
30875W        W99348  39.439  34.061   0.893
30876W        W99349  44.473  14.600   1.382
30877W        W99350  18.249  32.486  11.463
30878W        W99351   8.788  27.155   0.361
30879W        W99352   9.728   5.306   1.365
30880W        W99353   3.318  32.044   0.953
30881W        W99354  31.564  24.650   3.739
30882W        W99355  44.890  34.101  14.898
30883W        W99356  39.030  40.412   4.725
30884W        W99357  32.512  35.078   1.392
30885W        W99358  43.370   1.325   2.273
30886W        W99359  25.526  42.320   1.336
30887W        W99360  40.541  34.878   1.785
30888W        W99361  26.680  33.968  11.098
30889W        W99362  41.452  25.978   0.730
30890W        W99363  12.332  37.931   3.345
30891W        W99364  24.504   7.756  13.901
30892W        W99365  40.542  14.691  13.969
30893W        W99366  37.537  34.563  14.516
30894W        W99367  10.257  13.201   4.237
30895W        W99368   9.703  16.195  12.421
30896W        W99369  27.666  41.416  10.906
30897W        W99370  44.431  25.533  11.593
30898W        W99371  31.031  18.762  12.480
30899W        W99372   0.933   4.841  13.522
30900W        W99373  19.712  28.119   3.870
30901W        W99374  23.170  40.413   2.272
30902W        W99375  44.277  21.035   0.372
30903W        W99376  26.490  21.050  11.017
30904W        W99377  25.162  30.119  10.446
30905W        W99378   3.375  38.841   4.793
30906W        W99379  29.663  17.577   3.649
30907W        W99380   4.924   0.822   3.304
30908W        W99381   5.872  33.562   3.748
30909W        W99382   0.980  44.271   2.706
30910W        W99383  28.467   3.224   1.291
30911W        W99384  30.598   8.768   1.928
30912W        W99385  23.183  40.410   0.953
30913W        W99386  38.549  11.346   3.155
30914W        W99387   6.704  29.161  10.512
30915W        W99388  23.506   6.415   4.719
30916W        W99389  12.851  37.508  11.968
30917W        W99390  13.205  28.048   3.742
30918W        W99391   5.777  34.914   4.319
30919W        W99392  43.965   9.756   4.770
30920W        W99393  33.526  34.001   2.298
30921W        W99394   3.412  38.386   2.820
30922W        W99395   8.713  25.504   3.770
30923W        W99396  40.048  26.149   0.463
30924W        W99397  40.906   5.234  12.414
30925W        W99398  23.022  27.589   2.734
30926W        W99399  22.193  13.139   0.244
30927W        W99400  27.686  37.927  11.903
30928W        W99401   8.230  37.889  13.929
30929W        W99402  32.973  35.934   2.347
30930W        W99403  37.443  20.193   3.636
30931W        W99404  24.120  44.931   0.895
30932W        W99405  35.423  14.700   3.765
30933W        W99406  15.646  38.951   0.902
30934W        W99407  25.670  29.957   2.353
30935W        W99408   4.894  21.566   3.630
30936W        W99409  15.805  32.400   4.813
30937W        W99410  22.106  32.965  10.582
30938W        W99411  15.660  42.806   1.843
30939W        W99412  26.100   5.254   1.451
30940W        W99413  31.637  30.144   3.172
30941W        W99414  24.059   2.285   1.321
30942W        W99415   6.215  32.020  14.419
30943W        W99416  36.408  43.788  13.417
30944W        W99417   4.772  18.132  13.934
30945W        W99418   1.353  23.006   1.288
30946W        W99419  12.238  24.078   3.814
30947W        W99420   2.848  13.233  10.921
30948W        W99421  13.621  11.627  12.513
30949W        W99422  20.660  26.577   5.115
30950W        W99423  10.275   5.226   1.697
30951W        W99424   8.789   9.308  14.769
30952W        W99425  43.414  20.737  12.881
30953W        W99426  10.311  41.438  13.902
30954W        W99427  43.830   1.458   4.224
30955W        W99428  13.611  29.620  13.994
30956W        W99429  28.176  35.093   0.267
30957W        W99430   2.426   8.696  12.434
30958W        W99431  43.362   5.749   0.831
30959W        W99432   2.231  22.572   4.355
30960W        W99433  13.230   2.391   2.290
30961W        W99434  31.029  27.954   2.400
30962W        W99435  38.850  43.369   3.241
30963W        W99436   1.922  19.043  14.796
30964W        W99437  41.819  14.767   2.834
30965W        W99438  24.490   9.261   2.265
30966W        W99439  11.729  40.381  10.530
30967W        W99440   7.874  35.480   9.501
30968W        W99441  36.476  20.746   3.146
30969W        W99442  13.302  32.498  12.958
30970W        W99443  17.225  14.275  13.873
30971W        W99444   6.811   8.282   2.789
30972W        W99445  14.715   5.253  14.450
30973W        W99446  25.484   9.195  13.004
30974W        W99447  22.735   7.340  10.037
30975W        W99448   6.230   6.854   2.298
30976W        W99449   3.394  12.715  14.383
30977W        W99450  40.351   9.260  10.985
30978W        W99451  30.465  26.060   1.834
30979W        W99452  17.293  35.513  10.618
30980W        W99453   7.182  19.777  13.543
30981W        W99454  32.993  42.023   4.246
30982W        W99455   9.281  43.838  12.861
30983W        W99456   6.392   8.894   4.718
30984W        W99457  34.449  44.835  11.866
30985W        W99458  42.498   2.737   3.234
30986W        W99459   3.350  26.523   1.827
30987W        W99460  13.831  13.193  12.046
30988W        W99461   1.353  19.601  14.321
30989W        W99462  15.115  14.299  14.301
30990W        W99463  21.148  37.369   0.476
30991W        W99464  41.018   4.870   3.262
30992W        W99465  11.641  33.003   3.848
30993W        W99466  15.104  28.949   2.289
30994W        W99467  17.164   4.249   3.662
30995W        W99468   5.815  37.012   0.817
30996W        W99469  20.084  28.495  13.328
30997W        W99470  40.820  22.618  11.064
30998W        W99471   5.235  39.417   0.844
30999W        W99472   5.253  40.859   2.895
31000W        W99473  10.163  37.563  11.611
31001W        W99474   7.693  37.890   1.885
31002W        W99475  16.666  34.903  13.873
31003W        W99476  32.996  31.647  13.926
31004W        W99477   8.380  35.888  14.397
31005W        W99478  20.253  22.623   1.729
31006W        W99479  24.194  28.001  10.043
31007W        W99480  34.968  12.736  14.334
31008W        W99481  31.629  39.487   4.185
31009W        W99482   4.331  29.496   0.359
31010W        W99483  32.064  41.530   2.791
31011W        W99484  36.576  11.838  14.367
31012W        W99485  34.971  23.615  10.493
31013W        W99486  23.530   5.792  14.403
31014W        W99487  31.620  15.817  13.477
31015W        W99488  24.573   9.667   3.797
31016W        W99489   0.887   7.715   4.337
31017W        W99490  40.525  37.830   4.794
31018W        W99491  28.936  11.806   2.885
31019W        W99492  12.308  23.110   3.316
31020W        W99493  10.146  28.597   2.249
31021W        W99494  39.442  29.560  11.559
31022W        W99495  43.445  25.126   4.826
31023W        W99496  28.553  44.417  12.878
31024W        W99497   4.299  16.640  13.801
31025W        W99498  27.163  12.645  11.960
31026W        W99499   9.860   2.720  11.083
31027W        W99500   1.307  21.197  14.790
31028W        W99501  22.997  25.699  13.409
31029W        W99502  21.175  16.721   4.238
31030W        W99503  41.961  14.122  10.641
31031W        W99504   7.781  14.133  13.322
31032W        W99505  31.618  22.671   1.346
31033W        W99506  35.551  15.103  12.077
31034W        W99507  31.520   9.305   3.355
31035W        W99508  38.059  14.116   1.752
31036W        W99509  39.430  28.001   2.804
31037W        W99510  36.895  32.886   2.280
31038W        W99511  40.536  20.192  10.425
31039W        W99512   2.790  39.033  10.887
31040W        W99513   3.308  38.930  10.901
31041W        W99514  26.470  35.898   4.159
31042W        W99515   7.277  24.154  13.942
31043W        W99516  22.574   2.423   4.647
31044W        W99517  39.386  43.015  12.463
31045W        W99518  11.195  13.244  14.917
31046W        W99519  42.814  41.449  11.012
31047W        W99520  31.079  33.874   4.664
31048W        W99521  17.642   6.392   1.341
31049W        W99522  17.091  27.481   3.238
31050W        W99523   6.265   9.346  12.927
31051W        W99524  37.967  35.027  14.765
31052W        W99525  18.196  40.364  13.982
31053W        W99526   0.894   9.329  13.002
31054W        W99527  33.045   8.399   3.856
31055W        W99528   8.301  26.461  13.505
31056W        W99529  41.396   2.324   0.763
31057W        W99530  32.539   4.763  14.776
31058W        W99531  44.851  14.782  11.102
31059W        W99532  13.735  10.691   0.477
31060W        W99533  17.096  13.317  14.987
31061W        W99534   4.747   8.185   2.338
31062W        W99535  18.119  20.526   3.221
31063W        W99536  31.586  11.787   2.818
31064W        W99537  22.619  22.527  10.555
31065W        W99538   2.353  18.122   0.359
31066W        W99539  16.686   1.966   2.828
31067W        W99540  26.502   2.922  11.017
31068W        W99541   5.250  30.908  11.911
31069W        W99542   6.266  20.109   1.373
31070W        W99543  13.773  16.780  13.351
31071W        W99544  20.106   5.239   3.868
31072W        W99545  30.467   8.160  10.624
31073W        W99546   5.845  42.463   2.758
31074W        W99547  22.611  40.420   4.274
31075W        W99548  33.399   5.888  13.492
31076W        W99549   9.768  32.957   2.885
31077W        W99550   3.909  17.636  13.937
31078W        W99551  30.416  34.395  10.436
31079W        W99552  20.681  44.925  10.456
31080W        W99553  30.007  20.077   1.741
31081W        W99554  20.743  36.355  11.506
31082W        W99555  20.755  33.116   0.470
31083W        W99556   7.699  39.898   2.896
31084W        W99557  44.794  25.031   2.377
31085W        W99558  21.233  10.324  12.054
31086W        W99559  27.574   4.795   0.386
31087W        W99560  26.487  12.769  12.918
31088W        W99561   3.738  17.568   1.277
31089W        W99562  16.807  14.689   4.131
31090W        W99563  41.446  20.190   2.820
31091W        W99564  42.522  44.418   3.334
31092W        W99565   2.231  13.256   0.948
31093W        W99566  13.679  39.469   3.787
31094W        W99567  44.772  23.593   2.829
31095W        W99568  15.318  26.630   3.791
31096W        W99569  40.844   2.749   4.732
31097W        W99570  38.925   6.302  12.933
31098W        W99571  35.995  44.913   1.224
31099W        W99572  23.728  13.675   3.789
31100W        W99573   4.930  42.823  10.584
31101W        W99574   9.360   7.416   2.833
31102W        W99575   4.941  34.087  13.846
31103W        W99576  13.143  24.155  10.948
31104W        W99577  12.728   5.730   0.422
31105W        W99578  26.525  33.964  12.574
31106W        W99579  23.086  44.406   4.728
31107W        W99580  33.067  29.509  11.483
31108W        W99581  10.381  41.908   5.253
31109W        W99582   7.693  17.102   2.191
31110W        W99583  35.586  36.002   1.341
31111W        W99584  13.640  28.173   1.240
31112W        W99585  36.510  36.577  11.960
31113W        W99586  20.652  22.634   1.334
31114W        W99587  35.976   6.910  11.535
31115W        W99588   0.886   2.907  12.979
31116W        W99589  24.509  35.929  14.891
31117W        W99590  29.490   0.333  14.350
31118W        W99591  32.035  33.396  13.358
31119W        W99592  27.512  15.164  14.868
31120W        W99593  23.037   3.384   3.204
31121W        W99594   5.312  28.015  12.447
31122W        W99595   7.781  29.491   1.303
31123W        W99596  31.540  26.528  13.929
31124W        W99597  24.549  20.136  13.798
31125W        W99598  41.789  38.561  13.910
31126W        W99599   5.740   1.858   1.758
31127W        W99600   1.461   5.355  13.837
31128W        W99601  13.687   4.894   4.118
31129W        W99602  10.205  37.550   3.147
31130W        W99603  31.578  40.988  13.799
31131W        W99604   1.438   9.267  13.445
31132W        W99605   1.270  15.763  12.088
31133W        W99606   7.286  25.591   3.148
31134W        W99607  42.446  36.042   3.766
31135W        W99608  40.453  40.481   2.782
31136W        W99609  39.361  16.610  14.761
31137W        W99610   2.320   0.963   4.210
31138W        W99611   6.222   7.726  12.974
31139W        W99612  40.811  26.473   3.341
31140W        W99613  28.114  21.160   4.202
31141W        W99614  38.073   4.784   2.271
31142W        W99615  23.045  10.769  11.971
31143W        W99616  33.972  38.848   4.278
31144W        W99617  23.146   0.269   3.837
31145W        W99618  32.589   0.384  10.944
31146W        W99619  37.523  37.019   1.773
31147W        W99620  18.646   1.787   2.373
31148W        W99621   9.819  14.809   1.228
31149W        W99622  41.530  24.156  12.579
31150W        W99623   4.897  15.612  10.112
31151W        W99624  22.691  28.594   5.630
31152W        W99625   3.376  20.073   4.655
31153W        W99626  35.882  19.693  11.120
31154W        W99627  17.721  10.173   3.713
31155W        W99628   2.366  24.689  11.374
31156W        W99629  30.630  25.033  14.284
31157W        W99630  28.168  30.999   1.775
31158W        W99631  25.142  40.023   0.735
31159W        W99632  22.201  25.645  10.094
31160W        W99633  30.470  23.695   1.354
31161W        W99634  40.968   4.216  11.065
31162W        W99635  24.505   3.411   4.753
31163W        W99636  29.967  34.898   2.234
31164W        W99637  22.151  33.079   0.875
31165W        W99638  39.009  26.998   1.736
31166W        W99639  24.135  15.091   0.259
31167W        W99640  35.397  17.692   0.867
31168W        W99641  32.636  28.468  14.929
31169W        W99642  28.656  10.321  14.508
31170W        W99643  30.563  35.512  10.485
31171W        W99644   1.745  19.724   3.723
31172W        W99645  23.162  35.518  11.096
31173W        W99646  24.639  28.135   0.839
31174W        W99647  20.543  41.871   0.907
31175W        W99648   0.252  40.950   0.967
31176W        W99649  38.537  21.653   0.257
31177W        W99650  12.680  13.697  12.935
31178W        W99651  35.457  30.983   0.855
31179W        W99652  38.347   4.795  10.494
31180W        W99653  24.985  20.749   3.251
31181W        W99654   3.328  29.488  10.626
31182W        W99655  40.538   3.292   3.757
31183W        W99656  34.435   3.886   4.772
31184W        W99657  35.005  26.970  13.993
31185W        W99658  37.837  28.075  11.883
31186W        W99659  35.425  42.842  11.540
31187W        W99660  25.539  14.771   0.373
31188W        W99661  29.968  36.432   2.249
31189W        W99662  11.692  11.706   2.188
31190W        W99663  40.022  28.074   4.653
31191W        W99664  31.984  11.794  11.868
31192W        W99665  43.377  23.663  13.330
31193W        W99666  32.441  24.507   4.733
31194W        W99667   7.735  40.902   2.797
31195W        W99668  36.077  39.811   2.339
31196W        W99669  39.536  16.306   2.829
31197W        W99670  36.990   7.336   1.308
31198W        W99671  29.524   6.780  13.490
31199W        W99672  43.319   9.696   4.322
31200W        W99673  21.563   3.276   4.613
31201W        W99674  12.340  26.607  12.932
31202W        W99675  37.541  36.947   4.186
31203W        W99676  19.159  36.441   1.876
31204W        W99677  16.278   9.255  14.794
31205W        W99678  11.344   9.193  13.340
31206W        W99679  11.715  14.710  13.908
31207W        W99680  23.591   8.232  10.567
31208W        W99681   6.910  32.478   2.369
31209W        W99682  14.304  33.429  10.503
31210W        W99683   2.918  34.414  13.380
31211W        W99684   8.323  12.690   2.195
31212W        W99685  41.919   3.391   0.281
31213W        W99686  10.200  35.566   2.677
31214W        W99687  19.039   0.780   1.858
31215W        W99688  38.047  23.083   1.741
31216W        W99689  24.590  39.325   4.664
31217W        W99690  32.534   0.400  10.628
31218W        W99691   0.372  42.337   1.886
31219W        W99692  15.634  43.425  10.585
31220W        W99693   0.274  44.310   1.298
31221W        W99694   1.321   5.236   1.868
31222W        W99695  12.710  22.028   3.765
31223W        W99696  23.120  22.175  11.390
31224W        W99697  12.736  44.314   3.335
31225W        W99698  38.930  38.480  11.447
31226W        W99699   8.671  21.515   2.687
31227W        W99700   4.336  30.038   0.291
31228W        W99701  10.253  35.513  14.286
31229W        W99702  21.114  44.814  12.485
31230W        W99703   2.727  29.062   3.683
31231W        W99704  37.851  18.778  11.033
31232W        W99705   8.745  43.271  12.345
31233W        W99706  36.422  19.645   1.304
31234W        W99707  32.946  15.648  11.601
31235W        W99708  27.995  10.260  12.488
31236W        W99709  40.827  36.029  14.393
31237W        W99710   1.405  24.033   0.734
31238W        W99711  38.881  14.279  13.541
31239W        W99712   3.260   5.231   1.448
31240W        W99713   3.907  15.810   0.392
31241W        W99714  14.813  40.032   5.125
31242W        W99715   5.253  17.556   1.265
31243W        W99716  39.918  31.997   4.198
31244W        W99717  13.313  23.602   3.789
31245W        W99718  29.946  19.226  12.053
31246W        W99719  24.483   9.732   3.162
31247W        W99720  10.259  15.808  12.344
31248W        W99721  32.624   4.426  10.477
31249W        W99722   1.930  32.915   4.124
31250W        W99723  35.943  34.119   4.759
31251W        W99724  24.096   2.775   3.311
31252W        W99725  20.693  39.484  11.041
31253W        W99726   3.922  12.696  14.994
31254W        W99727  21.229   6.239   2.301
31255W        W99728  24.503   2.732  11.514
31256W        W99729  10.285  35.575  13.309
31257W        W99730  42.396  40.463   0.953
31258W        W99731  12.688  15.268  12.518
31259W        W99732  36.037  37.539  11.875
31260W        W99733   2.834  22.127   3.753
31261W        W99734  27.524  10.820  10.459
31262W        W99735  26.571  19.164   4.170
31263W        W99736  28.099  27.666   1.275
31264W        W99737  12.239  39.879   0.767
31265W        W99738   1.483  20.071  11.598
31266W        W99739  29.456  41.029  14.418
31267W        W99740   5.784  41.829  12.047
31268W        W99741  44.477  33.934  13.820
31269W        W99742  23.684  11.328  11.923
31270W        W99743   6.914  42.825   2.326
31271W        W99744  37.345  16.111   4.227
31272W        W99745  36.366  41.318   5.122
31273W        W99746  41.810  38.932   0.462
31274W        W99747  14.740  11.339  13.027
31275W        W99748  12.784  13.259  14.818
31276W        W99749  19.713  11.355  14.500
31277W        W99750  36.844  40.843  10.992
31278W        W99751  20.120  35.870   1.914
31279W        W99752  13.759  13.659   0.260
31280W        W99753   6.797  37.410  14.297
31281W        W99754  25.040  34.507  11.126
31282W        W99755  32.634  39.011   3.791
31283W        W99756   7.885  21.134  13.821
31284W        W99757  18.174   5.920   2.741
31285W        W99758   6.384   1.803  10.438
31286W        W99759  14.167  37.579  12.860
31287W        W99760  26.639  23.680  12.870
31288W        W99761  26.003  17.697  10.482
31289W        W99762  38.332  27.190   2.767
31290W        W99763  26.109  19.204  12.526
31291W        W99764  44.468   6.332  12.520
31292W        W99765  31.547   9.759   3.775
31293W        W99766  24.093  14.199   2.358
31294W        W99767  10.278  14.137  10.093
31295W        W99768  38.933  40.896  14.847
31296W        W99769  28.626  25.967  13.819
31297W        W99770   2.276  43.325   4.758
31298W        W99771  43.290   2.870  10.537
31299W        W99772  10.321  39.007   3.239
31300W        W99773   8.759  37.460   3.334
31301W        W99774  28.639  36.065  14.305
31302W        W99775  29.030  44.311  11.608
31303W        W99776  15.590   6.765   1.338
31304W        W99777  39.057  30.517  12.060
31305W        W99778  36.591  39.529  13.813
31306W        W99779  17.683  19.750   4.724
31307W        W99780  18.730  34.938   0.921
31308W        W99781  20.114  39.367   1.910
31309W        W99782  14.827  19.162   0.448
31310W        W99783  12.254  36.974   0.758
31311W        W99784  18.641   1.966   1.309
31312W        W99785   2.388  35.544  11.101
31313W        W99786   6.805  24.005  11.415
31314W        W99787  11.164  26.026   3.296
31315W        W99788  17.599  13.789  12.022
31316W        W99789  24.149   7.788  13.059
31317W        W99790   8.845  10.796  14.911
31318W        W99791   4.699  21.746   3.261
31319W        W99792  33.468  33.044  14.469
31320W        W99793  11.179  40.903   1.409
31321W        W99794  43.353   4.758  11.500
31322W        W99795   9.175  29.538  12.897
31323W        W99796  41.966   8.792   2.737
31324W        W99797  24.659  35.962  10.489
31325W        W99798  21.678  27.559   3.287
31326W        W99799  27.591  31.424   1.302
31327W        W99800  22.034  22.229  13.053
31328W        W99801  11.184  40.818  13.527
31329W        W99802  11.275  31.904  10.931
31330W        W99803   6.868   0.392  12.993
31331W        W99804  37.063  20.232  12.387
31332W        W99805  40.035  15.098  13.041
31333W        W99806   4.847  43.924   1.409
31334W        W99807   5.424  24.666  14.492
31335W        W99808   3.456  20.765   0.747
31336W        W99809   0.445  39.921   2.897
31337W        W99810  29.534  40.327  12.483
31338W        W99811  40.002  33.966  11.910
31339W        W99812  34.072  25.141   3.317
31340W        W99813  21.592  14.705   3.318
31341W        W99814  38.355  10.723  12.873
31342W        W99815  22.725  43.426   1.833
31343W        W99816  25.058  27.943   4.279
31344W        W99817   9.718  41.352   4.298
31345W        W99818  31.154   6.301  13.833
31346W        W99819  20.122  43.270  13.332
31347W        W99820  21.758  25.599  10.525
31348W        W99821  18.224  38.042  14.774
31349W        W99822  44.412  22.606   2.288
31350W        W99823  30.921  24.200   5.216
31351W        W99824  30.909  19.157   2.667
31352W        W99825  24.109  37.079  14.984
31353W        W99826  37.998  27.505   1.339
31354W        W99827  19.123  43.283  10.896
31355W        W99828  26.682  16.123  11.926
31356W        W99829  34.969  13.788   4.212
31357W        W99830   3.783  31.142  11.005
31358W        W99831  24.150  17.779   3.377
31359W        W99832   3.951  37.487  10.134
31360W        W99833  44.276  18.095   1.725
31361W        W99834  21.693  10.223  11.540
31362W        W99835  27.465   8.850   2.347
31363W        W99836   7.344  31.930  12.963
31364W        W99837  32.396  36.355   3.374
31365W        W99838   4.356  28.969   2.263
31366W        W99839  35.425  44.478   2.701
31367W        W99840   5.386  35.857   0.956
31368W        W99841  23.701   0.456   2.304
31369W        W99842   0.369  31.506   2.262
31370W        W99843   5.316  44.377   1.422
31371W        W99844  33.014  11.170   0.964
31372W        W99845   2.367  35.473   1.252
31373W        W99846  43.001   2.338  13.406
31374W        W99847  29.974  26.090  11.482
31375W        W99848   2.735  14.300   2.722
31376W        W99849  38.983  34.523  10.959
31377W        W99850  33.534  29.641  14.420
31378W        W99851  11.660  34.907  10.988
31379W        W99852   6.859  22.087   3.816
31380W        W99853   0.322   1.240  13.336
31381W        W99854  20.245  34.379   5.232
31382W        W99855  31.415   7.679   0.388
31383W        W99856  33.061  36.381   3.800
31384W        W99857   2.908  18.170  11.406
31385W        W99858   3.357  24.097  11.078
31386W        W99859  18.051  19.132   1.334
31387W        W99860   3.379   6.872   2.250
31388W        W99861   9.316  20.244   2.872
31389W        W99862  22.652  24.646   0.365
31390W        W99863   1.251   4.447   0.482
31391W        W99864  44.452  37.892  13.510
31392W        W99865   8.209  34.901  10.116
31393W        W99866  37.349  14.758  12.577
31394W        W99867  26.613  41.434  14.853
31395W        W99868  13.802  36.588   3.754
31396W        W99869  33.099  13.210  14.372
31397W        W99870  43.487  25.146  13.855
31398W        W99871   1.890  35.895   3.171
31399W        W99872  28.179  25.983   0.246
31400W        W99873   8.813  30.132   4.656
31401W        W99874  43.785   2.721  14.939
31402W        W99875  33.036  21.689   3.630
31403W        W99876  23.604  24.638  13.868
31404W        W99877   6.425  34.069  12.364
31405W        W99878   7.822   8.163   3.814
31406W        W99879  31.556  42.351  14.344
31407W        W99880  25.601  39.874   5.274
31408W        W99881  41.900  41.803  11.060
31409W        W99882  28.043  36.952  13.837
31410W        W99883  11.643  35.990  10.117
31411W        W99884  12.341  14.676   1.300
31412W        W99885  32.044   5.815  11.488
31413W        W99886  42.492  16.099  14.289
31414W        W99887   1.911  21.109  10.635
31415W        W99888  25.613  39.870  12.578
31416W        W99889  11.716  28.529  11.966
31417W        W99890  36.576  29.477   5.165
31418W        W99891   4.205  28.989  13.006
31419W        W99892  12.669  13.315   3.280
31420W        W99893  35.592   9.325   2.749
31421W        W99894   4.358   0.931   4.736
31422W        W99895   4.707  37.963   4.275
31423W        W99896   1.828  28.453   4.619
31424W        W99897  20.527  30.970  12.469
31425W        W99898  27.602  22.212   3.190
31426W        W99899  39.046   8.267   3.320
31427W        W99900  28.491   1.963  12.345
31428W        W99901  34.397  22.051  10.417
31429W        W99902  12.239  34.466  13.938
31430W        W99903  23.676  41.795   0.368
31431W        W99904  16.248  20.664   2.828
31432W        W99905  24.594  43.954  13.062
31433W        W99906  38.996  13.657   3.667
31434W        W99907  26.527  39.030   2.337
31435W        W99908   8.693   0.344  14.433
31436W        W99909  31.121  33.502   2.247
31437W        W99910  36.546   6.805  12.390
31438W        W99911  10.864  32.619   0.249
31439W        W99912  22.039  37.498  13.451
31440W        W99913  23.572  25.678   2.360
31441W        W99914  37.970  15.127  12.396
31442W        W99915  36.048   6.814   0.961
31443W        W99916  11.328  37.475  13.350
31444W        W99917  37.359  39.496  10.460
31445W        W99918  42.777  21.515  13.955
31446W        W99919  29.618  44.371  12.411
31447W        W99920  15.188  35.372  12.096
31448W        W99921  44.966  32.963  10.938
31449W        W99922  40.400  22.213   0.872
31450W        W99923  31.595  25.973  11.552
31451W        W99924  15.263   8.724  11.066
31452W        W99925  29.612  18.066   0.257
31453W        W99926   3.859  44.268  14.916
31454W        W99927  43.934   4.757  11.482
31455W        W99928  39.854   9.861   4.725
31456W        W99929   7.748  38.473  12.838
31457W        W99930   2.257  22.147  12.868
31458W        W99931  22.721  26.985  12.569
31459W        W99932  14.635  17.580  13.848
31460W        W99933  44.349   0.381   2.807
31461W        W99934  33.034   8.803   5.216
31462W        W99935  14.636  22.530   4.331
31463W        W99936   3.924  27.563   1.385
31464W        W99937  31.577  20.571  13.538
31465W        W99938   0.343  31.556   0.459
31466W        W99939  41.362  17.287   0.250
31467W        W99940  38.942   2.402   1.273
31468W        W99941  20.561  24.582   1.760
31469W        W99942   3.328   2.266   3.749
31470W        W99943  22.033  38.549   4.226
31471W        W99944  15.315  28.010   4.620
31472W        W99945   2.957   3.863   0.859
31473W        W99946  17.581  43.889  13.953
31474W        W99947  27.080  20.166   3.817
31475W        W99948  25.081  17.279  12.360
31476W        W99949  39.338  14.634  13.029
31477W        W99950  19.769  43.449   4.719
31478W        W99951   9.771   4.862  14.316
31479W        W99952  43.503  11.768  10.119
31480W        W99953  33.962  41.410   1.249
31481W        W99954   3.237  38.511   4.323
31482W        W99955  14.670  38.330  14.886
31483W        W99956  36.951  42.917   3.734
31484W        W99957  37.901  44.412   4.829
31485W        W99958  34.592  43.861   4.626
31486W        W99959   1.461  37.885   3.832
31487W        W99960  32.546  17.273  14.877
31488W        W99961   3.457  41.947   3.736
31489W        W99962  11.209   7.336  12.084
31490W        W99963  17.090  44.917   2.304
31491W        W99964   3.343   2.385   4.170
31492W        W99965  34.096  29.132   4.786
31493W        W99966  43.930   1.295   3.331
31494W        W99967  23.534  27.535  12.350
31495W        W99968  16.811  30.608   3.346
31496W        W99969  21.634  23.167  10.513
31497W        W99970  42.997   6.299   3.703
31498W        W99971  16.175  37.355  14.946
31499W        W99972  42.850  38.365  12.364
31500W        W99973  30.614  20.055   3.808
31501W        W99974  22.014   6.872  11.520
31502W        W99975  18.553  29.071   0.837
31503W        W99976  36.008  11.341   4.120
31504W        W99977  12.300  18.254   2.396
31505W        W99978  40.835  28.005  13.975
31506W        W99979   8.719  38.469   1.745
31507W        W99980   0.288  43.871   1.728
31508W        W99981   3.253  23.051   1.414
31509W        W99982  16.788  17.589  14.832
31510W        W99983  32.539  13.659  13.047
31511W        W99984  22.583  39.931   2.735
31512W        W99985  15.225  33.578   1.420
31513W        W99986   5.925  38.861  12.938
31514W        W99987  36.436  31.466   4.694
31515W        W99988  31.968   8.211  11.379
31516W        W99989  37.472  28.478   3.370
31517W        W99990  20.691  23.016   2.363
31518W        W99991  29.522  10.674  14.392
31519W        W99992  34.088  41.834  11.430
31520W        W99993  43.779  37.417   1.449
31521W        W99994  31.441  35.411  12.441
31522W        W99995   2.790   9.828  13.449
31523W        W99996  16.226  23.237  13.966
31524W        W99997   3.881   2.963  12.019
31525W        W99998  11.713  14.634   0.438
31526W        W99999  35.016  40.820   1.258
31527W        W    0  36.932  18.291   0.848
31528W        W    1   8.275  26.598  10.978
31529W        W    2   3.830  35.384   0.893
31530W        W    3  28.660  24.588   3.367
31531W        W    4  28.485  25.978  11.129
31532W        W    5  22.526   0.321  12.915
31533W        W    6  10.705  35.055   4.833
31534W        W    7  16.120   2.734  12.021
31535W        W    8  25.605  25.711   0.430
31536W        W    9  10.784  37.431   3.376
31537W        W   10  31.511  19.743   3.210
31538W        W   11  40.501  22.078  13.369
31539W        W   12   7.699  42.859  11.022
31540W        W   13   2.747  10.326  11.604
31541W        W   14  30.126   1.768  13.380
31542W        W   15  24.566  15.329   2.245
31543W        W   16  44.938  32.089   0.743
31544W        W   17  29.455  30.517   0.742
31545W        W   18  14.707  25.545  11.444
31546W        W   19  33.938   2.400   1.351
31547W        W   20  25.171  32.955  12.905
31548W        W   21  26.608  26.027  12.999
31549W        W   22  25.704  34.393   5.247
31550W        W   23  30.423  24.167   2.713
31551W        W   24  14.144  17.763  14.485
31552W        W   25  26.663  11.761  12.536
31553W        W   26  25.106  25.213  10.486
31554W        W   27  37.474  33.576  11.582
31555W        W   28   3.767  18.669  12.418
31556W        W   29   3.223   2.402   5.097
31557W        W   30  42.838  12.294  13.944
31558W        W   31  13.323  21.752  12.543
31559W        W   32  27.124  21.627   2.666
31560W        W   33  20.212  43.966  12.020
31561W        W   34   5.839   5.278   0.426
31562W        W   35   0.755  25.970  11.014
31563W        W   36  34.078  38.507  14.496
31564W        W   37  22.744  12.697  12.007
31565W        W   38  31.523  17.589   1.721
31566W        W   39  24.994  33.565  11.480
31567W        W   40  10.311  34.105   5.262
31568W        W   41  21.060  11.726  13.809
31569W        W   42   4.804  36.399   1.792
31570W        W   43  20.187   3.920   4.680
31571W        W   44  14.104   4.423  13.481
31572W        W   45  15.193  12.220  13.958
31573W        W   46  23.604  44.297   2.841
31574W        W   47  44.387   8.206   0.902
31575W        W   48  43.383  25.023  10.588
31576W        W   49   1.847  24.639  10.918
31577W        W   50  41.029   0.956  14.355
31578W        W   51  17.689   1.957   2.668
31579W        W   52  41.037  30.117  11.122
31580W        W   53  29.580  11.294  11.555
31581W        W   54  28.057  12.231  13.989
31582W        W   55  30.945  21.202   4.723
31583W        W   56  20.034   8.867  14.962
31584W        W   57  41.852  12.636  10.488
31585W        W   58  20.719  41.791   4.636
31586W        W   59   8.180   6.714   0.446
31587W        W   60  15.182  15.165  10.634
31588W        W   61  32.112  22.036  14.453
31589W        W   62  18.219  41.307   4.765
31590W        W   63  24.640  30.000   0.440
31591W        W   64  43.830  14.645   2.196
31592W        W   65   3.215   2.252  13.310
31593W        W   66  32.981  12.333   3.152
31594W        W   67  11.823  38.011  13.328
31595W        W   68  22.147  15.197  10.898
31596W        W   69  16.801  25.040   0.848
31597W        W   70  35.946  23.500   0.904
31598W        W   71   2.338   9.758   4.237
31599W        W   72   2.337  19.059  11.394
31600W        W   73  25.524  18.557   0.409
31601W        W   74  19.059   9.274  10.951
31602W        W   75  12.719   4.407   1.446
31603W        W   76  44.454  40.941  10.424
31604W        W   77  23.061  40.997   1.284
31605W        W   78   3.384  37.927  10.940
31606W        W   79  27.572  10.246   3.175
31607W        W   80  28.438   4.923  11.390
31608W        W   81  43.369  39.956   1.798
31609W        W   82  28.497  12.724   1.886
31610W        W   83   0.913  41.866  13.062
31611W        W   84   2.395  10.350  14.914
31612W        W   85  13.140   2.271   2.815
31613W        W   86  39.314  43.477  13.976
31614W        W   87  17.733   9.825  12.847
31615W        W   88  36.436  23.172   1.828
31616W        W   89  19.644  34.450   4.300
31617W        W   90  19.643  34.584   3.169
31618W        W   91  13.691  39.996  12.944
31619W        W   92   8.755  21.119  14.284
31620W        W   93  25.674  14.799   4.767
31621W        W   94  15.629   1.377   1.436
31622W        W   95  38.378  36.919  14.481
31623W        W   96  39.488  16.586  11.892
31624W        W   97   3.935  15.689  14.918
31625W        W   98  18.649  39.000   4.269
31626W        W   99   5.924   0.409  13.893
31627W        W  100   4.357  28.019  13.517
31628W        W  101  22.113   2.908   2.248
31629W        W  102   6.814  28.548  12.390
31630W        W  103   1.257  26.653   0.427
31631W        W  104  38.419  18.624   1.871
31632W        W  105   7.179   9.341  13.361
31633W        W  106  15.149  17.185  14.357
31634W        W  107  38.384  41.810   2.891
31635W        W  108  16.113  19.562  11.930
31636W        W  109   5.265  18.561   4.203
31637W        W  110  35.981  26.476  10.898
31638W        W  111  12.279   3.821  11.856
31639W        W  112  25.672  25.485  11.409
31640W        W  113  24.168  23.721   4.765
31641W        W  114  16.763  27.942  13.388
31642W        W  115  19.183  16.575  12.028
31643W        W  116   2.945  32.137  11.450
31644W        W  117  27.083  32.481  14.028
31645W        W  118   5.758   0.306   3.784
31646W        W  119  34.542   0.895   4.214
31647W        W  120  34.086  21.222   1.381
31648W        W  121  34.471  18.710  12.507
31649W        W  122  18.234  16.213  13.871
31650W        W  123  16.717  38.054   2.316
31651W        W  124  19.778  19.618   3.185
31652W        W  125   4.699   8.751   4.283
31653W        W  126  42.459   2.348  14.414
31654W        W  127  37.395  11.797   2.387
31655W        W  128  32.117  26.130  13.357
31656W        W  129  21.619  33.945  13.464
31657W        W  130  25.608  11.184   3.262
31658W        W  131  23.048  36.953  14.341
31659W        W  132   3.440  23.144   0.466
31660W        W  133  14.764  28.153   4.697
31661W        W  134   4.342   9.154  11.044
31662W        W  135  16.174  17.693   2.673
31663W        W  136  12.688   2.903   0.476
31664W        W  137  37.884   6.233  12.932
31665W        W  138  39.914   2.398  11.495
31666W        W  139  29.090  12.222   2.740
31667W        W  140  25.982  22.153   4.748
31668W        W  141  10.162  38.528   4.291
31669W        W  142  37.462   5.722   2.720
31670W        W  143  42.523   0.268  12.438
31671W        W  144  30.528  20.195  14.345
31672W        W  145   5.727  44.447  13.336
31673W        W  146  10.144  12.122   3.673
31674W        W  147  36.853  40.310   0.309
31675W        W  148  28.115   4.204   1.356
31676W        W  149  43.497   6.326  14.395
31677W        W  150  38.474   7.224   2.269
31678W        W  151  41.347  14.280  13.526
31679W        W  152  27.559  42.979   2.765
31680W        W  153  42.780   2.354  10.435
31681W        W  154  43.970  18.115  10.497
31682W        W  155  16.750  33.399   4.301
31683W        W  156  20.143  42.986   1.879
31684W        W  157  19.697   2.743   4.134
31685W        W  158   1.335  26.182  10.586
31686W        W  159  42.944   2.314   0.941
31687W        W  160   6.281   7.224   3.847
31688W        W  161   7.897  30.642   3.743
31689W        W  162  22.712  30.133   2.344
31690W        W  163  31.631  34.872   0.251
31691W        W  164  10.839   3.784   3.652
31692W        W  165   5.868  18.634   4.779
31693W        W  166  35.478  25.979   0.328
31694W        W  167  40.025  18.202  12.030
31695W        W  168   5.362  43.935   2.756
31696W        W  169  20.601   4.862   1.245
31697W        W  170  10.748  34.438   1.358
31698W        W  171   5.773  10.862  11.079
31699W        W  172   1.447  19.544   4.754
31700W        W  173  33.477  21.757  13.974
31701W        W  174  24.523  23.105   0.464
31702W        W  175   4.352  43.972  14.022
31703W        W  176  38.834  39.454   3.268
31704W        W  177  22.605  39.508  11.880
31705W        W  178  17.586  38.984   2.221
31706W        W  179   2.871  31.519  12.572
31707W        W  180  18.548  25.990  14.848
31708W        W  181  35.041   0.954   4.154
31709W        W  182  25.562  19.051   3.740
31710W        W  183  40.528   9.215   2.772
31711W        W  184  38.981  36.994   1.256
31712W        W  185  37.066  16.198  12.355
31713W        W  186  42.327   7.794   2.193
31714W        W  187  29.480  35.979  14.494
31715W        W  188  16.137  31.909   0.903
31716W        W  189   3.787  44.370  13.918
31717W        W  190   1.928  30.956   2.894
31718W        W  191  17.211  23.116   0.291
31719W        W  192  32.040   6.198  14.978
31720W        W  193  42.017  19.716  10.515
31721W        W  194  22.696  27.681   0.776
31722W        W  195  40.936  17.143   1.777
31723W        W  196  16.791  21.573  11.573
31724W        W  197  34.378  27.117  13.000
31725W        W  198  40.462  34.034  11.005
31726W        W  199  44.428   1.282   1.339
31727W        W  200  12.164  42.428  14.826
31728W        W  201   1.794  26.594  14.863
31729W        W  202  24.667  44.417   2.762
31730W        W  203  29.101  41.885   4.678
31731W        W  204   6.708  35.998   1.900
31732W        W  205  18.198  25.178   3.158
31733W        W  206   7.778  20.689  12.543
31734W        W  207  12.781  10.337   4.329
31735W        W  208  43.303  28.098  13.362
31736W        W  209  10.731   0.759  11.535
31737W        W  210  34.873  44.440  13.398
31738W        W  211  36.864   4.747  13.319
31739W        W  212  38.381  39.386   3.196
31740W        W  213  36.850   2.842   2.741
31741W        W  214  18.066  36.993   2.674
31742W        W  215  44.965   2.404  10.914
31743W        W  216  44.431  42.935   2.349
31744W        W  217  43.792   8.788  13.307
31745W        W  218  40.887  20.757  10.572
31746W        W  219  38.887  27.631  12.034
31747W        W  220  35.410   6.393   2.389
31748W        W  221  10.151  15.097  10.941
31749W        W  222   3.780  10.740   2.788
31750W        W  223  38.854  19.246  11.984
31751W        W  224   0.882  25.138  10.147
31752W        W  225  42.431  14.751  12.367
31753W        W  226  26.532  25.582  13.312
31754W        W  227  29.458  34.888  11.004
31755W        W  228  44.950  12.689   3.311
31756W        W  229   0.252  32.498  14.861
31757W        W  230  29.083   1.748  12.577
31758W        W  231  10.747   2.836  13.415
31759W        W  232  18.687  18.066   4.730
31760W        W  233  10.829  42.423  11.512
31761W        W  234   5.336   7.417   1.857
31762W        W  235  18.714  34.965  13.884
31763W        W  236  16.786  29.099   4.198
31764W        W  237  16.649  40.044  10.490
31765W        W  238  21.209  25.494   9.964
31766W        W  239  22.627  28.968   2.187
31767W        W  240   9.228  35.076   3.178
31768W        W  241  17.796  11.645   1.222
31769W        W  242  13.235  29.942   1.808
31770W        W  243  35.861  35.856  10.625
31771W        W  244   5.209  30.013  13.910
31772W        W  245  38.829  26.541   3.665
31773W        W  246  10.261   5.228  10.941
31774W        W  247  32.637  13.726   3.823
31775W        W  248  38.917   3.905   4.165
31776W        W  249  31.139   6.800   4.633
31777W        W  250  24.519  38.960  10.986
31778W        W  251  40.925  26.635   1.408
31779W        W  252  44.808  29.984   4.187
31780W        W  253  19.660  23.073   4.831
31781W        W  254  13.276  44.837  13.474
31782W        W  255  12.772   0.399   0.878
31783W        W  256  39.454  10.142  11.103
31784W        W  257  32.460  18.641  12.983
31785W        W  258  13.283   7.177   4.229
31786W        W  259  44.990  31.064  13.829
31787W        W  260  22.220  36.566  14.495
31788W        W  261   0.481  36.440  14.993
31789W        W  262  23.018  35.448  11.394
31790W        W  263  34.376  29.439   2.885
31791W        W  264  12.657  23.588   3.170
31792W        W  265   1.317   4.406   2.394
31793W        W  266  15.805  28.981  11.062
31794W        W  267  41.024  11.751  14.288
31795W        W  268  29.963  42.867   4.783
31796W        W  269  37.408   8.214  11.022
31797W        W  270  12.123   7.362  10.980
31798W        W  271  31.900   2.963   2.294
31799W        W  272  13.816  40.494   0.477
31800W        W  273  29.639  28.677  13.904
31801W        W  274  36.073  36.377  10.553
31802W        W  275  28.615  19.077  10.413
31803W        W  276  13.115   9.172   4.236
31804W        W  277  32.463  20.135   1.218
31805W        W  278   2.905   9.687   0.956
31806W        W  279  43.019   1.797  13.430
31807W        W  280   5.228  24.225  13.463
31808W        W  281  21.516   9.692  14.029
31809W        W  282   7.671   5.411  10.454
31810W        W  283  34.440  40.909  11.858
31811W        W  284  39.560  12.690  11.913
31812W        W  285  31.975  13.610  13.476
31813W        W  286  41.378  37.369  12.896
31814W        W  287  10.279  22.068  12.418
31815W        W  288  28.458  33.926   0.388
31816W        W  289  35.456  25.469   0.307
31817W        W  290  44.285  37.877   2.192
31818W        W  291  38.480  43.290   4.351
31819W        W  292  24.547  29.154  14.936
31820W        W  293  16.635  42.999  12.383
31821W        W  294  20.672   3.356   2.813
31822W        W  295  14.732  19.256   0.772
31823W        W  296  21.149  32.441  14.964
31824W        W  297  34.583  14.734   3.808
31825W        W  298  44.865   0.763  10.962
31826W        W  299  31.920  24.633   0.735
31827W        W  300  30.094   6.429  10.503
31828W        W  301  18.548   7.202  10.132
31829W        W  302   7.324  39.439   3.801
31830W        W  303  11.679  40.041   1.242
31831W        W  304  39.885  23.102  14.952
31832W        W  305  16.121  20.230  14.394
31833W        W  306  14.239   6.312  13.861
31834W        W  307  19.659  20.686   2.265
31835W        W  308  26.972  20.214  13.375
31836W        W  309   9.285  25.006  10.448
31837W        W  310  23.037  35.496  13.389
31838W        W  311  12.149  36.090  12.467
31839W        W  312  29.063  43.497   3.672
31840W        W  313  13.612  43.914   3.166
31841W        W  314  14.643  13.637   3.311
31842W        W  315  13.786  26.106   1.420
31843W        W  316  35.359  36.524   0.757
31844W        W  317  43.479  27.014   2.295
31845W        W  318  39.036  17.765  13.345
31846W        W  319  16.645   5.721  13.986
31847W        W  320  26.969  21.153   2.236
31848W        W  321  40.454  44.851  13.465
31849W        W  322  34.913  31.501   0.334
31850W        W  323  21.649  23.007   3.183
31851W        W  324  44.473  25.172  11.598
31852W        W  325  15.114   9.797  10.963
31853W        W  326  22.006  44.944   3.784
31854W        W  327  30.122  33.051   3.660
31855W        W  328  10.170  16.093   2.186
31856W        W  329   6.710   2.432  12.953
31857W        W  330  26.461  15.269   0.836
31858W        W  331   9.724  26.141  14.493
31859W        W  332   0.773  20.551   1.241
31860W        W  333  27.148  21.585  11.456
31861W        W  334  25.708  34.049  12.344
31862W        W  335  32.959  20.146   0.385
31863W        W  336  44.381  42.997   4.166
31864W        W  337  38.821  11.126  12.460
31865W        W  338  18.073  18.660  10.460
31866W        W  339   9.694  32.911   0.381
31867W        W  340  30.937  39.527   2.262
31868W        W  341  37.491  26.990  10.950
31869W        W  342   5.824  21.640  13.520
31870W        W  343  44.435  14.269   0.409
31871W        W  344  18.129  32.065   0.260
31872W        W  345  17.615  16.642   2.883
31873W        W  346   8.299  13.816   2.283
31874W        W  347  25.688  17.109  11.933
31875W        W  348  25.697  38.066   4.284
31876W        W  349  30.639  24.490   4.779
31877W        W  350  21.726   6.906   4.828
31878W        W  351  21.704  10.717   2.732
31879W        W  352  24.071  34.094   0.793
31880W        W  353  36.887   6.696  14.281
31881W        W  354   0.909  39.407   4.294
31882W        W  355  24.045  31.010  13.817
31883W        W  356   3.726  41.425   1.765
31884W        W  357  14.785  37.847  13.017
31885W        W  358  12.796  35.550   4.616
31886W        W  359  26.207  12.237  12.894
31887W        W  360   9.761   0.890  13.063
31888W        W  361  22.586  14.107   4.831
31889W        W  362   2.842  37.508   4.210
31890W        W  363  26.674  37.349  10.980
31891W        W  364  18.193   7.296   2.860
31892W        W  365  31.485  22.068   3.248
31893W        W  366   7.327  28.621  10.550
31894W        W  367  37.956  38.901  10.411
31895W        W  368  41.489  43.775  10.953
31896W        W  369   9.364  36.586  11.514
31897W        W  370   5.425   0.279   2.771
31898W        W  371  35.396   1.837   2.319
31899W        W  372  21.584   7.246   3.857
31900W        W  373  10.857  22.693   1.743
31901W        W  374  38.419  13.201  14.386
31902W        W  375  28.671  40.825  12.579
31903W        W  376   3.448  36.522  11.050
31904W        W  377   6.713  32.493  11.871
31905W        W  378  10.281  12.668   2.679
31906W        W  379  32.412  40.849  14.813
31907W        W  380  28.049  22.197  13.903
31908W        W  381  11.282  14.707  12.365
31909W        W  382  15.717  10.818  12.949
31910W        W  383  39.478  14.138   5.218
31911W        W  384   9.197   4.871   4.332
31912W        W  385  43.810   4.388   1.879
31913W        W  386  23.112  44.458   1.384
31914W        W  387   8.779  44.812  12.830
31915W        W  388  41.026  14.781  14.438
31916W        W  389  29.507  26.968   3.795
31917W        W  390  15.708  11.731  12.475
31918W        W  391  35.002  23.527   1.739
31919W        W  392  28.548  28.038  10.565
31920W        W  393  19.158  14.685  11.597
31921W        W  394  23.007  40.991  12.940
31922W        W  395  30.093  43.852  14.461
31923W        W  396  28.948  30.566   1.798
31924W        W  397  24.088  11.302  12.494
31925W        W  398  37.865  37.063  13.475
31926W        W  399  23.165  29.962   4.699
31927W        W  400   4.746   9.231  11.580
31928W        W  401  36.077  10.859   2.359
31929W        W  402   3.367   6.226  12.847
31930W        W  403  16.591  30.445   0.843
31931W        W  404  24.019   5.208   4.723
31932W        W  405   3.814  43.936   0.947
31933W        W  406  27.051  40.921  14.772
31934W        W  407   3.862  21.110  13.952
31935W        W  408   7.391  12.679   4.330
31936W        W  409   8.693  11.711  14.386
31937W        W  410  15.298   1.850  11.391
31938W        W  411  22.252  13.330  11.899
31939W        W  412   9.837  24.700  13.525
31940W        W  413   7.752  28.448  11.919
31941W        W  414  44.379   2.294  13.058
31942W        W  415  39.528   4.321   0.739
31943W        W  416  29.145  34.868   4.601
31944W        W  417  17.272  29.617   1.699
31945W        W  418  43.842  17.125   0.354
31946W        W  419  19.573  19.746  13.956
31947W        W  420   1.866   5.908  11.391
31948W        W  421  26.617  34.987  12.428
31949W        W  422  27.458  31.968  11.053
31950W        W  423  29.628  31.996  11.533
31951W        W  424   4.322   1.845  13.433
31952W        W  425  18.055  33.098   2.701
31953W        W  426  31.558  34.021   1.349
31954W        W  427  27.452  22.649  10.999
31955W        W  428  20.052  23.214  11.581
31956W        W  429  28.006  32.458   4.291
31957W        W  430  16.583  12.338  11.389
31958W        W  431  23.055  16.261  14.896
31959W        W  432   0.828  33.540  12.827
31960W        W  433  12.341  43.455   4.182
31961W        W  434  24.083  27.618  10.408
31962W        W  435   8.245  40.926   1.366
31963W        W  436   0.491  35.507   4.282
31964W        W  437  40.540  18.706  12.873
31965W        W  438  44.990  39.442  14.434
31966W        W  439  40.881  20.716   1.212
31967W        W  440  37.038  29.454  13.506
31968W        W  441  43.828   2.734  11.422
31969W        W  442  34.881  27.158   3.385
31970W        W  443  40.490  26.626  14.392
31971W        W  444  10.789  30.622  13.963
31972W        W  445  28.621  27.512   1.858
31973W        W  446  27.541   9.822  12.374
31974W        W  447  26.152  18.788  13.373
31975W        W  448  16.739  41.436  11.374
31976W        W  449  38.519  26.004  13.022
31977W        W  450  12.705   8.749  14.826
31978W        W  451  29.990  26.172  14.970
31979W        W  452  19.637  30.526   1.215
31980W        W  453  18.263  40.519   0.938
31981W        W  454   4.299   6.824   0.837
31982W        W  455   9.326  27.492  14.797
31983W        W  456   4.939  41.899  13.049
31984W        W  457   6.748  29.485   0.955
31985W        W  458  21.595   8.705   4.640
31986W        W  459   7.208  26.548   4.658
31987W        W  460  13.717  10.788  12.002
31988W        W  461  10.817   3.244  14.946
31989W        W  462  33.108   6.301   0.303
31990W        W  463  39.844   1.279  13.819
31991W        W  464  11.634   1.941  13.401
31992W        W  465  34.566  41.434   4.334
31993W        W  466   9.870  14.135  13.391
31994W        W  467  31.953  43.288  11.952
31995W        W  468  35.487   4.213   0.752
31996W        W  469  23.734  18.662  13.383
31997W        W  470  24.197  12.740  10.890
31998W        W  471   5.733  33.025  10.925
31999W        W  472  31.020   8.716   5.211
32000W        W  473  34.511   8.727  14.933
32001W        W  474   0.384  19.611  14.023
32002W        W  475   2.839  14.592   3.352
32003W        W  476  39.479  36.418   3.275
32004W        W  477  40.516   2.295   3.643
32005W        W  478   0.807  19.778  13.439
32006W        W  479   6.783  22.588  11.489
32007W        W  480  14.777  14.828   4.158
32008W        W  481  21.636  38.065   1.396
32009W        W  482  41.928  43.992  13.387
32010W        W  483  10.712  33.502   4.275
32011W        W  484  33.560  24.075   4.337
32012W        W  485  36.584   9.353   0.946
32013W        W  486  29.643   7.674  11.042
32014W        W  487   9.293  31.961  11.929
32015W        W  488  25.668  40.472   4.688
32016W        W  489  12.322   6.278   0.910
32017W        W  490  20.530   3.363  11.449
32018W        W  491  35.860  19.547   1.731
32019W        W  492  40.821  28.680   2.186
32020W        W  493  19.712   5.843   1.861
32021W        W  494  34.977  37.411  10.037
32022W        W  495   0.320   9.673  14.815
32023W        W  496  19.237  39.990  14.800
32024W        W  497  10.159  35.603  11.612
32025W        W  498  18.596   2.295   3.271
32026W        W  499   7.252  38.825   1.883
32027W        W  500  22.090   0.892  14.496
32028W        W  501  16.231  42.782   1.795
32029W        W  502   2.903  30.023   1.337
32030W        W  503  19.739   4.742  14.873
32031W        W  504  40.486  13.759  13.960
32032W        W  505  20.610  22.017  14.849
32033W        W  506  23.514  35.571  11.543
32034W        W  507  16.258  31.040   4.161
32035W        W  508   9.233  21.599  12.469
32036W        W  509   0.261  20.535  12.408
32037W        W  510  24.153  26.694   5.668
32038W        W  511  19.130  32.125   4.226
32039W        W  512   2.322  37.957   3.643
32040W        W  513  37.039  23.211  13.410
32041W        W  514   0.429  26.464  11.397
32042W        W  515  44.914  29.926  10.930
32043W        W  516  42.497   8.780  10.475
32044W        W  517  30.556  32.925  11.964
32045W        W  518  16.567   7.850   2.890
32046W        W  519  24.547  21.714   3.853
32047W        W  520  18.127  25.002  12.377
32048W        W  521  30.638   5.415   2.900
32049W        W  522  12.203  11.291   4.318
32050W        W  523  30.508  33.625  12.918
32051W        W  524  17.646  27.626  12.923
32052W        W  525   4.241  18.129   4.336
32053W        W  526  31.405  33.904   1.869
32054W        W  527  15.624  37.426   4.830
32055W        W  528  10.344  32.049  11.440
32056W        W  529  32.978  12.819   4.787
32057W        W  530  22.246   6.857   0.883
32058W        W  531  11.164  39.453  13.961
32059W        W  532  32.515  44.460  10.930
32060W        W  533  20.765  14.191   0.400
32061W        W  534  26.482  19.752  11.543
32062W        W  535   8.347  35.427   5.800
32063W        W  536  29.997  38.346  13.933
32064W        W  537  13.293  44.422  10.075
32065W        W  538  37.042   5.313  14.358
32066W        W  539   4.824  25.631   0.400
32067W        W  540  31.632  37.441   2.756
32068W        W  541  31.967   8.712  14.513
32069W        W  542  36.507  30.935  14.465
32070W        W  543   9.739  35.602   0.396
32071W        W  544  15.794   1.462  12.385
32072W        W  545  23.663  18.187   2.789
32073W        W  546  43.403  20.084  11.559
32074W        W  547   1.753   1.354   0.319
32075W        W  548  27.055  37.845   1.268
32076W        W  549   8.211  36.902   1.395
32077W        W  550  38.945   1.295   0.471
32078W        W  551   5.701  27.961   3.727
32079W        W  552  14.294  38.962   4.669
32080W        W  553   1.284  35.899  13.994
32081W        W  554  15.682  41.344  12.990
32082W        W  555  36.479  42.961   3.197
32083W        W  556   6.326  27.498   4.687
32084W        W  557  11.625   6.413   3.326
32085W        W  558  10.800  31.070   1.388
32086W        W  559  20.683  13.189   2.207
32087W        W  560  32.448  44.339   1.450
32088W        W  561   9.176   5.405   4.600
32089W        W  562  10.802   5.358   4.152
32090W        W  563   5.773  41.369   1.267
32091W        W  564  30.431  40.391  10.954
32092W        W  565  38.553   6.873   3.741
32093W        W  566  34.524  39.343   3.834
32094W        W  567  11.258   2.827   4.731
32095W        W  568   9.770  15.786  11.115
32096W        W  569  25.653  15.183   0.795
32097W        W  570  39.337   4.377   1.449
32098W        W  571  42.779  35.103   3.245
32099W        W  572  29.030  39.348  13.048
32100W        W  573  35.097  19.238  14.908
32101W        W  574   7.773  28.517  10.409
32102W        W  575  10.740   0.753  13.443
32103W        W  576  25.617   1.355  14.480
32104W        W  577  42.408  33.035   4.829
32105W        W  578  29.531  30.413  10.457
32106W        W  579  13.262  33.497   4.698
32107W        W  580  44.315  25.680   2.815
32108W        W  581  10.380  24.143   1.818
32109W        W  582  12.677  11.281   3.647
32110W        W  583  31.121  27.025   9.967
32111W        W  584   5.227  19.140   3.292
32112W        W  585  11.248  18.295   1.363
32113W        W  586  21.720  22.244   0.411
32114W        W  587  42.809   6.280   2.684
32115W        W  588  34.480   6.237   2.218
32116W        W  589  29.995   8.355  11.469
32117W        W  590  43.836  35.015   4.656
32118W        W  591   9.643  44.983   3.280
32119W        W  592   6.419  20.599  13.920
32120W        W  593  15.319  16.774  12.077
32121W        W  594  17.288  19.147  13.056
32122W        W  595   8.384  27.688  14.838
32123W        W  596  29.018   2.736   4.704
32124W        W  597  16.805  35.090   3.331
32125W        W  598  37.008  34.376  12.506
32126W        W  599   2.434   6.689  11.864
32127W        W  600  28.457  28.044  10.926
32128W        W  601  42.974  34.068  12.996
32129W        W  602   5.834  10.269   3.859
32130W        W  603  14.655  43.934  13.437
32131W        W  604  11.207   5.402  13.410
32132W        W  605  33.991  10.853   4.733
32133W        W  606  18.149   8.682   0.463
32134W        W  607   8.872  37.362   1.320
32135W        W  608  14.290  14.250   0.877
32136W        W  609   0.781  23.615  11.410
32137W        W  610  40.908   2.403   3.755
32138W        W  611  36.356  18.717   4.240
32139W        W  612   8.744  20.712  12.400
32140W        W  613  31.484  41.971  10.112
32141W        W  614  42.312  42.485   2.809
32142W        W  615   6.311  16.275   2.238
32143W        W  616   3.414  13.621  10.490
32144W        W  617  39.514  35.465   3.229
32145W        W  618  43.846  44.363  13.937
32146W        W  619  35.001  23.130  14.497
32147W        W  620  41.865  42.870  10.442
32148W        W  621  18.665  42.898  10.981
32149W        W  622  33.940  40.812   0.337
32150W        W  623  30.519  24.144  10.464
32151W        W  624  25.170  29.988   1.772
32152W        W  625   4.313  14.629   3.369
32153W        W  626  21.545   2.434  11.412
32154W        W  627  31.607   9.724  13.046
32155W        W  628  14.698   3.452   2.671
32156W        W  629  14.602  26.539  13.492
32157W        W  630  42.949  27.632   3.803
32158W        W  631  11.746   9.232   3.238
32159W        W  632  40.518   7.847   2.819
32160W        W  633  13.314   0.440  10.552
32161W        W  634  16.170  34.503   4.645
32162W        W  635   2.949  28.027  11.485
32163W        W  636  32.037  39.529  12.892
32164W        W  637  42.859  25.601   2.216
32165W        W  638   2.244  40.897  12.969
32166W        W  639  27.161  26.050   2.762
32167W        W  640  24.690  27.178  11.489
32168W        W  641  28.538  23.194   0.421
32169W        W  642   2.847  13.609  12.869
32170W        W  643  12.195  37.073  10.558
32171W        W  644   1.732  40.365  12.540
32172W        W  645  36.416  37.899   2.732
32173W        W  646  11.652  40.885  11.522
32174W        W  647  43.456  24.191  13.346
32175W        W  648  17.218   4.818   4.678
32176W        W  649  15.595  19.766  10.606
32177W        W  650  44.865  37.903   3.827
32178W        W  651  41.347  31.134   3.804
32179W        W  652  28.017  26.981  12.512
32180W        W  653  14.830  22.193  10.581
32181W        W  654  29.142   4.893   1.913
32182W        W  655  38.848  34.591  13.947
32183W        W  656  22.188  43.996  10.473
32184W        W  657   0.917  16.708  14.492
32185W        W  658  17.284  29.604   3.730
32186W        W  659   4.919  34.903  11.457
32187W        W  660  11.768  43.483   1.814
32188W        W  661   9.217  32.894  10.017
32189W        W  662  39.316  39.378  11.398
32190W        W  663  44.370  25.512  11.020
32191W        W  664  29.446   7.327  14.817
32192W        W  665   3.927   5.322  14.803
32193W        W  666   3.874  38.060   1.250
32194W        W  667  11.253  44.404   0.731
32195W        W  668  39.404  26.500   2.709
32196W        W  669  36.984  38.034   2.727
32197W        W  670  40.009  13.236  13.859
32198W        W  671  15.123   9.833  10.408
32199W        W  672  12.287  24.198   1.782
32200W        W  673  14.247   9.309   5.161
32201W        W  674  24.483   3.929  13.849
32202W        W  675  26.119   2.906  12.471
32203W        W  676  10.184  32.090   3.156
32204W        W  677   1.387   5.203  10.504
32205W        W  678  38.466  14.163   3.383
32206W        W  679  33.891  18.245   1.885
32207W        W  680  20.118   3.733   1.916
32208W        W  681  25.542   7.867   2.291
32209W        W  682  29.594  36.981  12.577
32210W        W  683  38.907  23.002  12.853
32211W        W  684  39.942  34.533  11.392
32212W        W  685  38.545  23.023   0.871
32213W        W  686   7.369  42.926   0.311
32214W        W  687  44.837  15.137  10.597
32215W        W  688  21.107  30.057   0.733
32216W        W  689  13.323  39.507  11.079
32217W        W  690  23.549  33.440  11.554
32218W        W  691  43.331   6.217   1.800
32219W        W  692  37.883   2.432   3.847
32220W        W  693  31.153   9.284   4.829
32221W        W  694  37.035   4.392   3.716
32222W        W  695   3.247   9.220   0.357
32223W        W  696   4.746  30.534   0.919
32224W        W  697  23.735  31.557  12.570
32225W        W  698  15.093  20.605   0.750
32226W        W  699   0.982  40.010   3.769
32227W        W  700  37.517  23.564  11.898
32228W        W  701  20.172  23.566   3.370
32229W        W  702  31.548   6.358   2.717
32230W        W  703  35.066  17.222   3.206
32231W        W  704  38.364  16.646   2.699
32232W        W  705  38.543   0.746  10.425
32233W        W  706  35.029   6.320   4.142
32234W        W  707  16.599  22.169  13.060
32235W        W  708  43.829  15.230  14.867
32236W        W  709  11.289  23.189  13.495
32237W        W  710  16.248   0.393   0.364
32238W        W  711  34.055  13.679   4.678
32239W        W  712  29.523  10.349   1.239
32240W        W  713   0.462  26.131  13.899
32241W        W  714  23.002  10.715   3.842
32242W        W  715  33.966   3.868  12.876
32243W        W  716  33.470  44.314  11.572
32244W        W  717   9.216   3.430  10.640
32245W        W  718  33.488  31.050  11.593
32246W        W  719  11.215   4.747  12.095
32247W        W  720   1.291  16.110  12.845
32248W        W  721   7.731   6.904   0.928
32249W        W  722  26.677  21.638   3.306
32250W        W  723   4.252   8.792  12.484
32251W        W  724   4.310  18.600   4.135
32252W        W  725  38.982  42.899   0.384
32253W        W  726  15.205  17.688   0.372
32254W        W  727  41.858  37.956  14.385
32255W        W  728  17.233   7.838  13.999
32256W        W  729  41.329  34.389   0.766
32257W        W  730  17.226  28.077  14.326
32258W        W  731  25.132  19.133  10.967
32259W        W  732   5.720  33.466   4.210
32260W        W  733  43.275  19.195  11.500
32261W        W  734   9.363  13.276  14.999
32262W        W  735  44.826   5.323  10.496
32263W        W  736   5.335   4.786  13.892
32264W        W  737  32.486   4.290   0.859
32265W        W  738   0.368  23.619  12.556
32266W        W  739  24.542  20.685   0.963
32267W        W  740   4.402  30.487   3.324
32268W        W  741  16.597  22.613  10.494
32269W        W  742  35.991  27.018  12.396
32270W        W  743  35.897  39.936  11.971
32271W        W  744  36.983  27.502  13.346
32272W        W  745   7.720   1.962  12.370
32273W        W  746   5.770   2.438   1.227
32274W        W  747  43.457  18.666  11.887
32275W        W  748  15.323   2.956  11.014
32276W        W  749  13.325  39.449   1.763
32277W        W  750  27.125  25.585  10.468
32278W        W  751  11.710  24.530   4.812
32279W        W  752  23.636  41.472  13.846
32280W        W  753  14.682   5.777  10.529
32281W        W  754  30.620  10.728   4.185
32282W        W  755  28.659   9.810   0.468
32283W        W  756   0.796  22.097   1.271
32284W        W  757  20.689   9.856   3.376
32285W        W  758   2.238   8.664  13.480
32286W        W  759   8.750  32.401   3.660
32287W        W  760  39.956  12.853  13.989
32288W        W  761  30.071  40.830  12.844
32289W        W  762  17.208  23.045  10.433
32290W        W  763  25.046   8.363  12.086
32291W        W  764  42.284  15.163  13.416
32292W        W  765  34.996  20.272   2.234
32293W        W  766  31.012  31.080   2.293
32294W        W  767  25.190  15.135   2.816
32295W        W  768  29.648  24.105   1.920
32296W        W  769  26.549  28.658  13.992
32297W        W  770  34.068   9.168   1.771
32298W        W  771  25.168  44.264  12.407
32299W        W  772  37.073  33.572   4.184
32300W        W  773  25.072   9.722   3.198
32301W        W  774   1.393   3.778   4.615
32302W        W  775  28.111  11.640   4.736
32303W        W  776   1.855   0.977   2.857
32304W        W  777  33.056  30.019   0.454
32305W        W  778  14.621  23.016  13.362
32306W        W  779  36.384  37.515   0.864
32307W        W  780  26.630  25.592   5.168
32308W        W  781   6.397   1.462   2.276
32309W        W  782  12.247  24.211   3.206
32310W        W  783  20.198  35.906  14.876
32311W        W  784   0.348   6.759  11.088
32312W        W  785  38.421   0.891   3.661
32313W        W  786  36.568  44.983   1.919
32314W        W  787  43.297  36.429  14.503
32315W        W  788  41.370  33.977  14.307
32316W        W  789  29.066  26.543  11.092
32317W        W  790  31.499  41.027   5.666
32318W        W  791   1.941  32.508   4.655
32319W        W  792  44.455  41.302   4.739
32320W        W  793  33.958   9.743  13.958
32321W        W  794  39.858   1.249  11.435
32322W        W  795  30.621  39.374  12.883
32323W        W  796  22.567  29.517   2.878
32324W        W  797  25.128  12.819   2.708
32325W        W  798  28.957  38.845   4.355
32326W        W  799  14.711  30.547   3.172
32327W        W  800  33.971  25.054   4.838
32328W        W  801  21.756   2.773   4.837
32329W        W  802  15.734  23.079  13.951
32330W        W  803  35.098  10.175   3.274
32331W        W  804  44.467   9.369   0.431
32332W        W  805  32.110  28.014  14.841
32333W        W  806  29.575  37.448   4.117
32334W        W  807  18.130  23.989  10.476
32335W        W  808   7.403   3.844   3.183
32336W        W  809   0.842  44.887  14.786
32337W        W  810   4.914  15.243   0.414
32338W        W  811  16.169  14.658  14.434
32339W        W  812  31.083  42.370   3.676
32340W        W  813  14.785  35.398  11.079
32341W        W  814  23.104  14.753   0.386
32342W        W  815  27.543  42.895   0.907
32343W        W  816  31.609  44.281   1.282
32344W        W  817  18.063  17.581   2.259
32345W        W  818   9.211  12.650  13.540
32346W        W  819  18.606   6.393  11.390
32347W        W  820  35.574  27.037  13.896
32348W        W  821  14.592   7.348   0.927
32349W        W  822  13.158   8.687   4.729
32350W        W  823  13.707  33.495  12.955
32351W        W  824  24.620  24.618  12.902
32352W        W  825  32.415  38.867  11.419
32353W        W  826  35.881  16.662   4.717
32354W        W  827  44.842  16.595   4.187
32355W        W  828  27.972  22.698  11.954
32356W        W  829  30.622  44.386   0.844
32357W        W  830  27.941   0.875   0.847
32358W        W  831  42.955  23.029  11.994
32359W        W  832   1.423  15.259   4.634
32360W        W  833   8.808  14.700  12.076
32361W        W  834  27.578   9.351  10.971
32362W        W  835  31.648  33.091  12.026
32363W        W  836   1.338   2.328   3.709
32364W        W  837  29.983  38.050   0.952
32365W        W  838  19.215   9.389  14.379
32366W        W  839   9.179   4.741  11.996
32367W        W  840   3.848  31.011   1.425
32368W        W  841  22.712  30.094   4.656
32369W        W  842   7.343  18.788  10.530
32370W        W  843   9.338  27.142   4.295
32371W        W  844  13.120  28.971  14.447
32372W        W  845  11.279  30.921  14.849
32373W        W  846  40.877  36.434   0.328
32374W        W  847  33.579   6.913   4.711
32375W        W  848   8.820  22.040  10.567
32376W        W  849  35.595  15.172  14.807
32377W        W  850  41.791  17.106   5.244
32378W        W  851  20.062   0.856  12.459
32379W        W  852  27.453  24.629  11.083
32380W        W  853   6.817  10.198  10.458
32381W        W  854   9.855   1.869  11.031
32382W        W  855  15.134   8.354  11.415
32383W        W  856  24.137   5.896   3.636
32384W        W  857  37.954  35.032  13.536
32385W        W  858   8.892  22.204   2.272
32386W        W  859  27.667  43.816   1.322
32387W        W  860  26.956  34.433   4.781
32388W        W  861   8.237   3.249  11.515
32389W        W  862  43.287  34.050  13.475
32390W        W  863  40.398  19.104  12.403
32391W        W  864  13.145   2.965   0.345
32392W        W  865  10.226  13.642  12.354
32393W        W  866   5.826  26.513   3.659
32394W        W  867  15.626  32.520   1.388
32395W        W  868  35.427  30.534  13.344
32396W        W  869  23.663  16.732  11.585
32397W        W  870  19.197   6.771  12.456
32398W        W  871   0.373  42.524   2.893
32399W        W  872  25.136  31.521   0.852
32400W        W  873  31.515  18.148  12.534
32401W        W  874   9.718  20.569  12.059
32402W        W  875  27.166  26.115  14.923
32403W        W  876  11.814  14.639   2.661
32404W        W  877   6.746  10.313   4.247
32405W        W  878  38.954  10.217  12.468
32406W        W  879  28.564  32.479   3.847
32407W        W  880  34.580   6.754  11.510
32408W        W  881  30.021  41.403  14.284
32409W        W  882  28.944  26.996  13.528
32410W        W  883  43.274  41.881   2.220
32411W        W  884  44.819   2.272  14.882
32412W        W  885  16.747   3.754  13.063
32413W        W  886  14.645  14.284   2.898
32414W        W  887  35.869   9.221   4.335
32415W        W  888   5.230  43.309   2.262
32416W        W  889  12.300   9.687  13.508
32417W        W  890   5.837  36.918  13.038
32418W        W  891  10.146  24.633  10.446
32419W        W  892  19.247  14.169   1.929
32420W        W  893  44.321  28.518  11.495
32421W        W  894  22.009  31.554  12.870
32422W        W  895  41.858  43.372  12.074
32423W        W  896   7.379  28.100   1.731
32424W        W  897  24.496  33.585  10.912
32425W        W  898   1.342  19.139   0.800
32426W        W  899   4.901  23.017   0.955
32427W        W  900  24.502  22.143  10.506
32428W        W  901  36.518  31.940   1.229
32429W        W  902   9.858  42.363  11.545
32430W        W  903  30.976  42.970  11.894
32431W        W  904  10.339  11.191  11.111
32432W        W  905  16.567  25.678   3.658
32433W        W  906  16.766  30.121  13.547
32434W        W  907  35.852  35.390   3.655
32435W        W  908   6.901  13.296  10.452
32436W        W  909  20.656  22.146   4.185
32437W        W  910  31.574  42.852  14.760
32438W        W  911   8.683   3.447  13.444
32439W        W  912   9.740  27.560  13.506
32440W        W  913  44.991   1.453  13.355
32441W        W  914   3.360  33.955  14.297
32442W        W  915  12.757   2.924   2.843
32443W        W  916  42.915  20.579   1.315
32444W        W  917  13.680  32.538   3.168
32445W        W  918  38.070   6.921  11.948
32446W        W  919  22.216  36.962  14.452
32447W        W  920  40.467  28.144  13.954
32448W        W  921  26.054  29.980  11.063
32449W        W  922  33.406   0.384   3.787
32450W        W  923  26.162  13.646   1.332
32451W        W  924  29.631  39.328   0.864
32452W        W  925  34.494  26.087   1.440
32453W        W  926   8.395  18.781  11.491
32454W        W  927  12.305  30.002  13.387
32455W        W  928  31.520   7.241  13.942
32456W        W  929  34.047  40.445   2.883
32457W        W  930  40.337  14.133  12.832
32458W        W  931   4.859   8.793   2.817
32459W        W  932  20.214   1.948   0.482
32460W        W  933  11.308   0.762  10.627
32461W        W  934  36.392   9.365  14.493
32462W        W  935   9.815  23.173   5.615
32463W        W  936  10.285   2.435  12.413
32464W        W  937  26.152   7.681   3.826
32465W        W  938  28.168  33.905  11.932
32466W        W  939  13.714   9.235  14.855
32467W        W  940  34.041  33.079  14.878
32468W        W  941  43.270  28.530   4.613
32469W        W  942  31.922   2.354   4.730
32470W        W  943   1.314  35.085   4.346
32471W        W  944   9.309  25.675  10.131
32472W        W  945  21.653  23.047   1.739
32473W        W  946   6.401  34.896   0.360
32474W        W  947  37.933   6.862  13.338
32475W        W  948   3.388   4.379  11.990
32476W        W  949  37.429  24.052   0.728
32477W        W  950  22.234   7.323  11.976
32478W        W  951  22.065  40.798   0.280
32479W        W  952  14.616  33.051   3.748
32480W        W  953  11.716  15.093  14.773
32481W        W  954   3.399  24.210   0.406
32482W        W  955  17.739  42.780  13.921
32483W        W  956   4.869  39.384   2.777
32484W        W  957   6.249  23.990  14.906
32485W        W  958  13.789   4.810   4.610
32486W        W  959  34.373   8.329   0.361
32487W        W  960  25.202  41.791  11.045
32488W        W  961  35.100  13.798   4.622
32489W        W  962  20.627   8.281  13.989
32490W        W  963   7.230   9.208  14.959
32491W        W  964  41.518   4.700  12.520
32492W        W  965  26.698  14.824   4.715
32493W        W  966  11.659  22.543   2.713
32494W        W  967   8.895  42.886  12.395
32495W        W  968  35.098  16.245  13.806
32496W        W  969  36.954   3.298  14.463
32497W        W  970  44.346  17.606  12.471
32498W        W  971   0.914  12.325  12.021
32499W        W  972  42.499  37.340  13.412
32500W        W  973  10.321  40.011   4.185
32501W        W  974  24.006  14.190   9.671
32502W        W  975  27.055  34.044   0.415
32503W        W  976  11.791  17.745   2.193
32504W        W  977  15.759   4.718   4.761
32505W        W  978  17.598  21.135  11.427
32506W        W  979  16.211   4.429  14.446
32507W        W  980  14.647  29.628  10.425
32508W        W  981  36.472  16.691  13.375
32509W        W  982   0.752  30.060   3.257
32510W        W  983  38.420  20.164   2.726
32511W        W  984   2.933  10.346   2.341
32512W        W  985  23.172   7.223   4.665
32513W        W  986  11.838  41.896  14.472
32514W        W  987   8.203  30.929  14.030
32515W        W  988  12.649  23.195   0.398
32516W        W  989  16.186  44.480  14.030
32517W        W  990  22.059   0.742  12.027
32518W        W  991  21.526  23.510   0.465
32519W        W  992  14.603  16.567   0.811
32520W        W  993  41.469  37.346  10.484
32521W        W  994   2.347   3.276  14.766
32522W        W  995   8.375  26.190  13.048
32523W        W  996  34.594  19.172   4.693
32524W        W  997   7.690   7.209  14.448
32525W        W  998  38.379   7.382   1.804
32526W        W  999  18.120  30.095   3.777
32527W        W 1000   8.693   0.933  12.456
32528W        W 1001  40.534  32.527   4.680
32529W        W 1002  17.685  22.130   4.319
32530W        W 1003  27.157  14.765  12.503
32531W        W 1004   7.908  17.677  10.894
32532W        W 1005  37.367  24.582  13.399
32533W        W 1006  18.212   7.277   0.746
32534W        W 1007   9.357   0.801  14.986
32535W        W 1008  31.974  25.580  14.910
32536W        W 1009  41.033   6.686   4.696
32537W        W 1010   1.454  35.058  10.952
32538W        W 1011   6.268  11.666  10.992
32539W        W 1012  32.535   5.713   0.439
32540W        W 1013  11.311  32.949   3.244
32541W        W 1014   2.815   2.832   0.814
32542W        W 1015   9.766  23.128  11.397
32543W        W 1016  42.393   5.755  12.344
32544W        W 1017  38.382  38.570   3.718
32545W        W 1018   8.663  27.640   3.867
32546W        W 1019  28.478  44.370  13.910
32547W        W 1020   2.901  38.520   0.395
32548W        W 1021  31.006  23.519  13.060
32549W        W 1022   6.722  33.948  11.538
32550W        W 1023  43.867  10.227  10.961
32551W        W 1024  38.951  21.546   4.311
32552W        W 1025  24.629  13.843   2.744
32553W        W 1026  38.508  31.930  10.896
32554W        W 1027  14.733  36.892   1.437
32555W        W 1028  43.945  16.672   1.357
32556W        W 1029  11.714  37.513  14.400
32557W        W 1030  12.280  28.543  11.402
32558W        W 1031  27.670   9.760  14.370
32559W        W 1032  14.618  33.046   0.852
32560W        W 1033  11.807   1.374   0.855
32561W        W 1034  28.115  19.692   4.133
32562W        W 1035  15.327   5.762   3.218
32563W        W 1036   5.798   9.320   2.309
32564W        W 1037  17.198  44.297   0.299
32565W        W 1038  26.173  35.422  13.863
32566W        W 1039   5.876   1.478  13.051
32567W        W 1040   6.829  39.459   2.740
32568W        W 1041  11.137  31.404  11.382
32569W        W 1042  25.560   0.873   4.275
32570W        W 1043   2.782  20.128  13.028
32571W        W 1044  27.005  27.498   0.783
32572W        W 1045  12.709  42.850   2.217
32573W        W 1046  28.179   3.393  11.098
32574W        W 1047  43.956  18.589   0.738
32575W        W 1048  29.431  31.450  11.969
32576W        W 1049  13.309  10.176   1.434
32577W        W 1050  23.159   7.666  14.888
32578W        W 1051  33.044   6.812   2.862
32579W        W 1052  11.737  39.026  10.098
32580W        W 1053  23.621  28.930  14.402
32581W        W 1054  33.065   7.673   2.784
32582W        W 1055  32.439   6.286  13.998
32583W        W 1056  36.071   7.399  10.942
32584W        W 1057  17.629  15.292  11.466
32585W        W 1058  23.513  15.657  13.988
32586W        W 1059  31.062   1.862  14.976
32587W        W 1060  13.129  42.943  13.333
32588W        W 1061  31.934  44.474   2.334
32589W        W 1062  42.863  16.167   2.873
32590W        W 1063  16.697   0.774  14.982
32591W        W 1064  16.301  25.049  13.858
32592W        W 1065  17.703   7.897   2.797
32593W        W 1066  37.509  27.647   0.941
32594W        W 1067  26.179  36.852   0.785
32595W        W 1068  25.173   2.451   0.380
32596W        W 1069   7.369  22.712   4.193
32597W        W 1070  20.558  36.567   2.297
32598W        W 1071  35.461  32.629   3.644
32599W        W 1072  37.487  25.036  14.897
32600W        W 1073  28.028  37.014  13.061
32601W        W 1074  37.339  41.817   3.198
32602W        W 1075   2.917  13.294  12.830
32603W        W 1076  29.033  44.979  13.506
32604W        W 1077  43.472  18.259  11.524
32605W        W 1078   4.206  28.514  14.834
32606W        W 1079  24.684  23.034  13.893
32607W        W 1080  24.139  11.227  11.580
32608W        W 1081   6.244  35.913  14.482
32609W        W 1082  39.940  16.673   2.727
32610W        W 1083  38.938  44.820   9.985
32611W        W 1084  43.343  22.109   1.344
32612W        W 1085   8.659  24.512   2.774
32613W        W 1086  14.260  33.496  12.959
32614W        W 1087  18.090   8.744  14.346
32615W        W 1088  34.942  11.799  13.999
32616W        W 1089  13.714  27.064   0.794
32617W        W 1090   9.362  29.105  11.466
32618W        W 1091  28.616  36.353   1.728
32619W        W 1092   0.377   3.921   0.793
32620W        W 1093  15.586  44.992   2.690
32621W        W 1094  36.025  19.221   4.259
32622W        W 1095  19.218  31.050   3.189
32623W        W 1096  15.740  22.253   5.111
32624W        W 1097  10.747   7.231   2.712
32625W        W 1098   0.924  11.629   4.331
32626W        W 1099  21.720  43.360   1.738
32627W        W 1100  22.546   1.834  12.507
32628W        W 1101   3.715  18.753  13.851
32629W        W 1102  34.104  42.343   9.509
32630W        W 1103  34.422  28.540   0.436
32631W        W 1104   5.901   0.922  14.364
32632W        W 1105   5.305  19.202  13.366
32633W        W 1106  29.976  13.687   1.722
32634W        W 1107  10.777   0.394  12.397
32635W        W 1108   5.241  23.010   2.750
32636W        W 1109  12.125  39.813   1.332
32637W        W 1110  16.311  26.999  12.057
32638W        W 1111  29.624   2.339   4.748
32639W        W 1112  16.679  15.745   2.869
32640W        W 1113  15.801   6.870  12.915
32641W        W 1114  13.346  43.368  12.907
32642W        W 1115  23.186  27.577   5.102
32643W        W 1116  12.234  32.095  11.897
32644W        W 1117  39.320  13.167   0.750
32645W        W 1118   7.318  38.062   4.162
32646W        W 1119   4.843  14.628   1.298
32647W        W 1120  25.509  35.549   3.375
32648W        W 1121  31.130   6.834   1.803
32649W        W 1122   1.377   9.653  12.942
32650W        W 1123  37.837  35.908  12.018
32651W        W 1124  27.612  26.980   2.265
32652W        W 1125  21.120  35.060   3.166
32653W        W 1126   0.332   4.738   3.228
32654W        W 1127   3.231  14.721   4.690
32655W        W 1128   5.426  20.635   2.752
32656W        W 1129  21.083  25.057  14.395
32657W        W 1130  13.771  27.979   1.788
32658W        W 1131  38.556  25.058  12.564
32659W        W 1132  24.028  15.275  13.853
32660W        W 1133  41.348   8.665  11.418
32661W        W 1134  27.560  27.012  13.467
32662W        W 1135   5.197   6.298  11.558
32663W        W 1136  17.146  12.362   0.311
32664W        W 1137  11.696   1.417   1.746
32665W        W 1138  35.991  22.170   1.815
32666W        W 1139   8.318  13.799  11.104
32667W        W 1140   3.762  10.275  10.989
32668W        W 1141  29.454  20.167   2.722
32669W        W 1142   2.356  12.630  12.073
32670W        W 1143  28.051  35.893   2.887
32671W        W 1144  34.926  24.657  13.973
32672W        W 1145  10.770  11.363  11.042
32673W        W 1146   6.265  25.710  11.578
32674W        W 1147   4.942  19.695  13.481
32675W        W 1148  26.202  37.563   3.355
32676W        W 1149  32.141  40.907   2.405
32677W        W 1150  27.979  40.380   4.261
32678W        W 1151  26.082   6.801   4.805
32679W        W 1152  19.711  31.456   1.261
32680W        W 1153  43.961  31.035   4.665
32681W        W 1154  15.226  16.259  14.511
32682W        W 1155  34.966  13.210  10.981
32683W        W 1156  31.931   4.275  10.913
32684W        W 1157  29.588  41.494   1.252
32685W        W 1158  24.580   8.872  10.550
32686W        W 1159  17.772  12.617   1.324
32687W        W 1160  28.982  41.861  10.466
32688W        W 1161  38.911  38.528  11.028
32689W        W 1162   3.349  13.309  12.469
32690W        W 1163  24.084  29.558   0.392
32691W        W 1164  38.343   6.301   3.261
32692W        W 1165  28.513  38.401  14.784
32693W        W 1166  24.003   7.763   4.162
32694W        W 1167  22.526  15.265   4.632
32695W        W 1168   2.254  27.977  11.949
32696W        W 1169   9.384  23.211  13.983
32697W        W 1170  34.439  34.087   0.947
32698W        W 1171  39.896   5.405  14.498
32699W        W 1172  42.886   2.464  14.295
32700W        W 1173  26.541  43.943   0.859
32701W        W 1174  11.829  10.291   3.782
32702W        W 1175  32.574  21.147  12.938
32703W        W 1176   3.380  39.442  12.865
32704W        W 1177   9.841  10.755  14.426
32705W        W 1178   4.328  15.594  13.926
32706W        W 1179  10.692  12.707  14.445
32707W        W 1180  23.155  25.962   1.331
32708W        W 1181  24.224  13.766  13.502
32709W        W 1182  27.158   1.766  11.413
32710W        W 1183   7.761  18.126  12.455
32711W        W 1184  15.215  20.547  12.427
32712W        W 1185  23.673   4.295   2.354
32713W        W 1186  27.520  40.401  12.527
32714W        W 1187  28.533  26.977   4.635
32715W        W 1188   4.773  10.654  10.463
32716W        W 1189  11.813  35.403   5.249
32717W        W 1190  16.619   8.165   3.689
32718W        W 1191  44.777  31.956   3.353
32719W        W 1192  25.001  42.962   0.853
32720W        W 1193  10.728  23.715  11.598
32721W        W 1194  13.275   0.414  13.377
32722W        W 1195   8.674  38.526  11.375
32723W        W 1196  43.407   5.332  13.857
32724W        W 1197  12.814   9.804  11.869
32725W        W 1198  32.545  43.401  13.858
32726W        W 1199  44.979   3.736   2.773
32727W        W 1200  39.453  39.493   4.791
32728W        W 1201  33.044   8.845   2.297
32729W        W 1202  29.048  16.130   0.737
32730W        W 1203   6.781  20.621   4.691
32731W        W 1204   6.751   6.910   3.333
32732W        W 1205  32.454   3.349  10.626
32733W        W 1206  14.789   2.406  13.367
32734W        W 1207  31.021  23.028   4.240
32735W        W 1208  32.028  26.615  10.439
32736W        W 1209   4.412  25.610  14.905
32737W        W 1210   3.829  40.518  11.081
32738W        W 1211  42.910  23.497  11.528
32739W        W 1212  35.935  25.036   4.121
32740W        W 1213  41.517  18.184   0.759
32741W        W 1214  43.422  30.947   4.680
32742W        W 1215  24.149  21.037  10.996
32743W        W 1216  43.359  17.116   1.709
32744W        W 1217  44.269   7.885   2.181
32745W        W 1218  32.993  41.926  10.925
32746W        W 1219  38.035  14.294  10.534
32747W        W 1220   1.239   1.777   3.660
32748W        W 1221  42.002  38.476  12.068
32749W        W 1222  29.506   4.242  10.916
32750W        W 1223  41.531  15.616   0.337
32751W        W 1224  22.182  10.310   2.778
32752W        W 1225  27.668  42.355  12.874
32753W        W 1226  24.052  10.647  11.933
32754W        W 1227   2.374   0.362  14.811
32755W        W 1228   3.955  14.306  13.398
32756W        W 1229  33.902  12.339   1.748
32757W        W 1230  19.549  39.417   3.705
32758W        W 1231   2.314   6.243   3.356
32759W        W 1232  32.469  10.232  12.823
32760W        W 1233  20.602  31.937  14.338
32761W        W 1234  29.939   9.798   0.889
32762W        W 1235  42.818  24.629   1.322
32763W        W 1236  18.740  41.312  14.892
32764W        W 1237  32.451  26.974  12.462
32765W        W 1238   3.368   7.225  10.453
32766W        W 1239  12.187  10.717  11.930
32767W        W 1240  44.864  29.141   1.819
32768W        W 1241  14.692  41.911   1.781
32769W        W 1242  12.192   4.298   0.305
32770W        W 1243   4.331  27.512   4.233
32771W        W 1244  13.824  39.457  11.062
32772W        W 1245   8.224  10.653   2.744
32773W        W 1246  16.182   4.820   2.895
32774W        W 1247  20.737  41.936   3.256
32775W        W 1248  44.369  29.154  10.912
32776W        W 1249  20.600  14.683  14.407
32777W        W 1250  14.310  26.691  10.571
32778W        W 1251  34.530  42.830  12.474
32779W        W 1252  22.532  19.105  13.931
32780W        W 1253   4.741  14.761   2.668
32781W        W 1254  34.972  40.885   2.217
32782W        W 1255  22.700   6.737  13.051
32783W        W 1256  39.030  42.416  12.462
32784W        W 1257   0.804  32.488  11.056
32785W        W 1258  33.411  25.641  14.961
32786W        W 1259  42.393  36.940  14.338
32787W        W 1260   2.469  12.637  12.422
32788W        W 1261  27.631   5.897  13.539
32789W        W 1262  10.324  28.527  14.939
32790W        W 1263   1.263   7.273  12.487
32791W        W 1264   9.660  32.572  12.384
32792W        W 1265  34.905  10.269  12.945
32793W        W 1266   0.819  16.276  14.286
32794W        W 1267   9.157  20.262  13.026
32795W        W 1268  12.152  36.548   4.833
32796W        W 1269  44.387  36.948  11.423
32797W        W 1270   3.446  40.493   3.821
32798W        W 1271  32.944  33.502  14.031
32799W        W 1272   3.839  20.041  12.558
32800W        W 1273  10.713   4.902   9.989
32801W        W 1274  13.350  39.388   1.258
32802W        W 1275   3.319  30.589  12.541
32803W        W 1276  26.676  11.354   0.291
32804W        W 1277  20.085   1.902   2.211
32805W        W 1278  26.517  25.117   3.789
32806W        W 1279  37.876   2.756  12.848
32807W        W 1280   1.346  25.121   4.233
32808W        W 1281  10.331  40.500  14.384
32809W        W 1282   3.428   6.188  13.914
32810W        W 1283  27.001  36.993  10.496
32811W        W 1284  26.121   5.210  10.595
32812W        W 1285  24.634  26.488  11.582
32813W        W 1286  30.117  43.882   3.272
32814W        W 1287  16.671  19.639   3.832
32815W        W 1288   5.883  27.982   2.391
32816W        W 1289   7.180  10.177   3.655
32817W        W 1290  19.284   7.685   3.233
32818W        W 1291  11.652  26.205   4.691
32819W        W 1292  31.013  37.495   4.130
32820W        W 1293  11.809  43.016  11.607
32821W        W 1294  39.359  42.823   5.315
32822W        W 1295  39.842  22.715  14.003
32823W        W 1296   7.310  21.027   4.796
32824W        W 1297  13.698  27.972  10.427
32825W        W 1298  14.604  13.720  14.994
32826W        W 1299  41.336  38.510   1.720
32827W        W 1300   6.704  24.586   2.256
32828W        W 1301  22.550  42.465  10.629
32829W        W 1302  35.107  18.056   3.296
32830W        W 1303   8.267  23.224   4.671
32831W        W 1304   8.404  29.937   0.732
32832W        W 1305  13.351  32.933   1.315
32833W        W 1306  22.252  18.277   0.924
32834W        W 1307   1.432   2.424  11.478
32835W        W 1308  37.551  13.320  13.027
32836W        W 1309   4.257  24.017   2.360
32837W        W 1310  13.247  31.980   1.221
32838W        W 1311  37.394  41.396   0.786
32839W        W 1312  37.495  15.756   3.667
32840W        W 1313  43.984  12.332   1.819
32841W        W 1314  36.047  20.654  14.960
32842W        W 1315  33.063  19.161  14.511
32843W        W 1316  10.257   9.876  12.370
32844W        W 1317  28.660  21.719   2.345
32845W        W 1318  12.355  44.806  10.509
32846W        W 1319  24.142  24.084  13.891
32847W        W 1320  25.560  39.449  12.399
32848W        W 1321  22.685  43.837   0.290
32849W        W 1322  18.169  38.538  11.604
32850W        W 1323  30.465  21.053   4.331
32851W        W 1324  30.563  40.829   3.248
32852W        W 1325   3.939  10.643   1.268
32853W        W 1326   3.323  22.673   2.282
32854W        W 1327   5.922  11.634  12.527
32855W        W 1328   6.879  33.006  12.864
32856W        W 1329  32.072   2.242  11.901
32857W        W 1330   1.387  27.452  13.383
32858W        W 1331  44.984  43.830   1.890
32859W        W 1332  22.165  27.664   0.252
32860W        W 1333  39.497  18.118  12.383
32861W        W 1334   0.370  23.135   3.166
32862W        W 1335  34.080  13.619  13.408
32863W        W 1336  42.300  24.006   3.198
32864W        W 1337  36.421  30.920  11.462
32865W        W 1338  35.586   6.416   3.170
32866W        W 1339  29.499  30.934   0.251
32867W        W 1340  10.864  19.613   0.292
32868W        W 1341   9.879  20.044  13.865
32869W        W 1342   7.380  42.289   4.616
32870W        W 1343   1.743  30.458  12.947
32871W        W 1344  30.017   4.927   0.820
32872W        W 1345  13.665  43.877   1.861
32873W        W 1346  20.657  11.751  12.943
32874W        W 1347  35.439  11.209  14.293
32875W        W 1348  43.010   2.466  13.819
32876W        W 1349   7.765   3.354  10.619
32877W        W 1350  33.109  30.014  12.040
32878W        W 1351  30.068  11.647   4.694
32879W        W 1352   6.184  38.512  11.608
32880W        W 1353  36.471  44.796  13.433
32881W        W 1354  17.753   9.830   3.151
32882W        W 1355  13.309  42.395  11.411
32883W        W 1356  13.661   0.967   0.409
32884W        W 1357  13.718  14.094   2.756
32885W        W 1358  21.673  27.968  11.048
32886W        W 1359  37.998  10.323   0.417
32887W        W 1360   3.728   7.282  14.387
32888W        W 1361   2.859  10.841  14.992
32889W        W 1362  36.552  31.101  14.030
32890W        W 1363  22.713   3.450  10.564
32891W        W 1364  16.622   8.391  14.355
32892W        W 1365   6.776  44.943  13.458
32893W        W 1366   2.935  31.133  14.809
32894W        W 1367   5.357   0.263   3.865
32895W        W 1368  21.636  40.517   2.198
32896W        W 1369  41.877  16.703  14.922
32897W        W 1370  42.901  40.461   3.808
32898W        W 1371  22.713  35.371   0.298
32899W        W 1372  23.542  23.684   4.733
32900W        W 1373  38.433  26.631   4.253
32901W        W 1374  10.811  18.551  13.461
32902W        W 1375  42.302  36.058  14.472
32903W        W 1376   6.347  16.717  12.902
32904W        W 1377   2.935  41.844  10.988
32905W        W 1378  36.522  17.226   3.307
32906W        W 1379  30.577  42.396  10.634
32907W        W 1380  16.568  35.079  12.883
32908W        W 1381  37.415  39.342   3.242
32909W        W 1382   2.758  36.478  14.384
32910W        W 1383  22.666   9.331  12.066
32911W        W 1384  14.268  16.679   0.448
32912W        W 1385  21.617  32.402  12.972
32913W        W 1386  20.711   1.270   2.816
32914W        W 1387  43.427  39.556  14.790
32915W        W 1388   1.385  36.428   1.335
32916W        W 1389  25.506  30.140   2.848
32917W        W 1390  17.108  19.740  13.449
32918W        W 1391   1.330  43.443   3.267
32919W        W 1392  16.768  41.023  12.564
32920W        W 1393  41.868  17.645   0.481
32921W        W 1394   1.399  23.715  12.525
32922W        W 1395  38.375  23.162  10.636
32923W        W 1396  37.995  24.650   4.615
32924W        W 1397  10.345   9.690   0.747
32925W        W 1398  14.689   3.347   3.634
32926W        W 1399  30.525   5.437  13.394
32927W        W 1400   5.859  42.524   4.200
32928W        W 1401   0.941  19.605   2.342
32929W        W 1402  30.608  10.857  10.586
32930W        W 1403  33.450  12.133   2.704
32931W        W 1404   6.423  29.485  13.841
32932W        W 1405   2.447  12.734  14.380
32933W        W 1406  28.133   0.337  13.852
32934W        W 1407  43.815  44.881   1.872
32935W        W 1408  20.126  13.241   4.802
32936W        W 1409  17.127  38.890  11.515
32937W        W 1410  21.533  33.887  12.551
32938W        W 1411  27.529  36.512   3.773
32939W        W 1412  34.379   0.331   3.164
32940W        W 1413  15.593  40.814  10.636
32941W        W 1414  31.028   5.783  11.051
32942W        W 1415  32.530  27.947   2.286
32943W        W 1416  11.853   0.276   1.283
32944W        W 1417  31.519  20.058  11.504
32945W        W 1418   6.750   8.353   1.743
32946W        W 1419  29.001  35.603  12.555
32947W        W 1420  33.451   8.747  13.392
32948W        W 1421  31.523  19.749  13.425
32949W        W 1422  22.142  34.968  12.482
32950W        W 1423  13.770  20.565  12.978
32951W        W 1424   1.934   7.697  11.378
32952W        W 1425  43.942   2.227   2.860
32953W        W 1426   9.177  32.424   2.331
32954W        W 1427   9.786  10.264   4.678
32955W        W 1428   8.277  12.786   1.821
32956W        W 1429   4.748  13.238   2.697
32957W        W 1430   0.834  10.260   0.865
32958W        W 1431  38.492  25.663   2.267
32959W        W 1432  35.865   7.690   4.778
32960W        W 1433  28.017  40.875   3.690
32961W        W 1434  16.585  11.854   3.662
32962W        W 1435  15.269  18.607   3.328
32963W        W 1436   0.797  41.305   3.837
32964W        W 1437   4.763  30.159   3.834
32965W        W 1438  40.396  14.676   1.838
32966W        W 1439  43.445  35.602  11.538
32967W        W 1440  14.156  25.009   0.887
32968W        W 1441  40.049  15.678  12.885
32969W        W 1442   3.746  13.678   3.750
32970W        W 1443  41.481  31.442  10.894
32971W        W 1444  26.552  28.611   0.341
32972W        W 1445  39.446  44.342  13.323
32973W        W 1446  38.856  38.566  13.464
32974W        W 1447  13.332  10.325   3.753
32975W        W 1448  21.617  21.231   4.676
32976W        W 1449  21.615  19.689   1.728
32977W        W 1450   3.777  22.999   0.859
32978W        W 1451  31.631  26.464   3.160
32979W        W 1452  35.920  24.111   5.246
32980W        W 1453   1.911   6.297  12.853
32981W        W 1454  19.600  18.089   2.185
32982W        W 1455  11.699  18.546   4.279
32983W        W 1456  29.958  21.634  11.954
32984W        W 1457  35.563   3.344   2.676
32985W        W 1458  26.619  25.641  12.438
32986W        W 1459  27.944  29.073  13.802
32987W        W 1460  17.560  43.511  13.987
32988W        W 1461   1.848  19.577   0.854
32989W        W 1462  41.506  44.265  11.557
32990W        W 1463  16.768  22.096  11.525
32991W        W 1464  38.009  32.929  11.937
32992W        W 1465  35.589  22.537  14.350
32993W        W 1466  41.915  38.406   1.274
32994W        W 1467  33.502  37.430   2.360
32995W        W 1468   1.834  24.087   2.844
32996W        W 1469  32.455   6.843  13.365
32997W        W 1470  40.884  43.891  10.960
32998W        W 1471  42.341  32.044  14.946
32999W        W 1472  11.281   5.859  10.622
33000W        W 1473   9.799  19.249   1.855
33001W        W 1474  21.754  30.992  13.344
33002W        W 1475  42.284   2.942   3.762
33003W        W 1476  43.915  19.167   3.785
33004W        W 1477   2.275  35.601  13.821
33005W        W 1478  32.416  10.817  11.999
33006W        W 1479  25.138   0.757  14.415
33007W        W 1480   7.191  11.851  12.487
33008W        W 1481   6.881  37.084   0.729
33009W        W 1482   2.337  26.656   0.772
33010W        W 1483  30.588  10.169  10.896
33011W        W 1484  37.020  37.019  14.981
33012W        W 1485  20.132  34.020  13.865
33013W        W 1486   2.230   7.733   1.383
33014W        W 1487   9.791  15.323   1.420
33015W        W 1488  33.120  11.318   1.343
33016W        W 1489  44.478   6.421  11.418
33017W        W 1490  22.196   3.296   4.269
33018W        W 1491  36.909   9.827  13.024
33019W        W 1492   9.869  36.012   5.622
33020W        W 1493  44.994  12.223   0.338
33021W        W 1494  34.865  36.432   1.307
33022W        W 1495  42.009  39.060   1.402
33023W        W 1496  12.686  32.938  10.562
33024W        W 1497  44.394  35.475   0.804
33025W        W 1498  11.276  27.949  12.069
33026W        W 1499  14.601  26.694   5.096
33027W        W 1500   3.261  27.179  10.427
33028W        W 1501   3.904   2.265   1.765
33029W        W 1502  17.741  35.078   2.676
33030W        W 1503  12.713  14.254  13.322
33031W        W 1504  36.585   8.356   0.924
33032W        W 1505   8.656  13.268   1.421
33033W        W 1506  40.021   1.369  12.008
33034W        W 1507  42.904  33.071   1.271
33035W        W 1508  28.573  43.501   2.408
33036W        W 1509  36.926  13.192  11.527
33037W        W 1510  21.743  16.670  13.047
33038W        W 1511  30.509  18.726  14.884
33039W        W 1512   1.477  25.591   1.714
33040W        W 1513  38.063  43.980   4.644
33041W        W 1514  21.053  20.114   0.727
33042W        W 1515   5.228  18.267  14.959
33043W        W 1516  25.208   0.314   4.725
33044W        W 1517  13.165  25.185  14.437
33045W        W 1518  27.588  37.401  13.979
33046W        W 1519  20.548  42.365  14.417
33047W        W 1520   6.294  34.110  10.893
33048W        W 1521  26.694   1.302  13.037
33049W        W 1522  24.122   4.767  10.609
33050W        W 1523  15.106  12.164   0.456
33051W        W 1524  21.080  11.720   2.723
33052W        W 1525  39.953  20.239  10.524
33053W        W 1526  19.124  39.054  12.530
33054W        W 1527  40.517  10.354   0.320
33055W        W 1528   2.723  21.244   3.234
33056W        W 1529  22.008  30.067   2.318
33057W        W 1530  42.429   4.259  14.902
33058W        W 1531  38.029  33.535  14.876
33059W        W 1532  34.891  33.050  10.892
33060W        W 1533  41.441  10.638   4.304
33061W        W 1534  40.475  15.746   4.274
33062W        W 1535   4.405  32.923   3.817
33063W        W 1536  32.431  36.363   2.311
33064W        W 1537  20.133   8.245  10.586
33065W        W 1538  13.812   9.866   1.426
33066W        W 1539  20.547   3.331  12.063
33067W        W 1540  22.206  31.005   0.290
33068W        W 1541  22.115  34.489  12.962
33069W        W 1542   4.867  39.063  13.510
33070W        W 1543  41.357  21.521  11.893
33071W        W 1544  16.206  15.293   3.755
33072W        W 1545  25.969  40.043   1.219
33073W        W 1546  15.647  16.715  14.391
33074W        W 1547  12.259   5.228   0.738
33075W        W 1548  31.569  34.484  13.438
33076W        W 1549  13.176  19.091  10.518
33077W        W 1550   2.294  20.130   4.187
33078W        W 1551  35.894  25.161  10.948
33079W        W 1552  21.141  19.767   3.719
33080W        W 1553  27.585  31.607  14.302
33081W        W 1554  21.191  20.264  11.386
33082W        W 1555  43.273  24.672  14.342
33083W        W 1556  44.889  29.934   2.881
33084W        W 1557  20.243  42.479  10.434
33085W        W 1558  19.778  28.498   1.773
33086W        W 1559  36.086  24.985   3.150
33087W        W 1560  39.900  41.336   4.207
33088W        W 1561  29.528  29.627   0.318
33089W        W 1562  23.222  35.906  11.413
33090W        W 1563  13.225  24.501  12.967
33091W        W 1564  13.226  21.602   2.726
33092W        W 1565  23.711   1.242  10.965
33093W        W 1566  41.034   4.843  10.482
33094W        W 1567  42.926  32.067   4.243
33095W        W 1568  21.155  14.834   2.265
33096W        W 1569  14.315  24.507   4.748
33097W        W 1570  14.286   3.394  11.411
33098W        W 1571  18.779  21.692  14.473
33099W        W 1572  43.825  38.052  10.492
33100W        W 1573  43.493  12.118  14.961
33101W        W 1574   0.269  16.749   4.289
33102W        W 1575  15.304  23.242   3.149
33103W        W 1576  10.214  17.677   0.925
33104W        W 1577  34.613  30.589  11.391
33105W        W 1578  23.522  13.176   9.982
33106W        W 1579  22.223   3.940   3.868
33107W        W 1580  37.911  43.494  12.403
33108W        W 1581  24.522  43.515   2.848
33109W        W 1582   3.844  16.698   3.198
33110W        W 1583  37.021  31.959  14.510
33111W        W 1584   5.705  18.144  12.467
33112W        W 1585  18.673  11.244   0.750
33113W        W 1586  44.828  38.419  12.061
33114W        W 1587  14.716  11.688   3.859
33115W        W 1588  11.702  32.111  14.381
33116W        W 1589  10.334  36.586   4.258
33117W        W 1590   2.360  16.184  14.929
33118W        W 1591   5.745  11.134   1.314
33119W        W 1592  14.698  38.015  10.464
33120W        W 1593  20.036  13.770   3.269
33121W        W 1594  25.496  32.524  13.345
33122W        W 1595  21.178  35.887   4.238
33123W        W 1596   6.406  35.032   2.845
33124W        W 1597  24.118  37.018  13.957
33125W        W 1598  35.078  40.383  12.369
33126W        W 1599  31.446  32.067  12.414
33127W        W 1600  21.544  30.549   2.882
33128W        W 1601   2.278  44.461  14.906
33129W        W 1602  34.589  14.789  14.782
33130W        W 1603  25.620  29.585  14.847
33131W        W 1604   3.302  22.089   0.282
33132W        W 1605   3.913  37.929  12.032
33133W        W 1606  38.339  29.502   1.323
33134W        W 1607  42.955   8.877   0.467
33135W        W 1608  21.100  40.344   3.728
33136W        W 1609   0.837  18.176  12.393
33137W        W 1610   1.886  38.999  11.959
33138W        W 1611  26.037  19.707   2.705
33139W        W 1612  15.755   7.347   0.413
33140W        W 1613   9.887  19.604   0.860
33141W        W 1614  30.986  16.304   2.752
33142W        W 1615  33.027  20.071  10.418
33143W        W 1616  34.096  43.269   4.181
33144W        W 1617   2.423  31.079  14.935
33145W        W 1618  29.163   6.733  14.796
33146W        W 1619   0.379  18.777   4.614
33147W        W 1620  43.932  40.398  11.506
33148W        W 1621  40.982  20.756  13.016
33149W        W 1622  26.994  27.132  14.405
33150W        W 1623   0.411  29.105   2.750
33151W        W 1624  22.211  32.574  10.930
33152W        W 1625  30.957  34.573   2.414
33153W        W 1626  23.522  24.173  14.867
33154W        W 1627  33.988   0.814  14.970
33155W        W 1628  42.314  17.162   3.644
33156W        W 1629  38.420  39.810   4.620
33157W        W 1630  44.917  20.130   1.863
33158W        W 1631  24.542  44.296  14.897
33159W        W 1632   1.315  12.192   0.843
33160W        W 1633   4.855  22.692  11.104
33161W        W 1634  42.344  28.937   2.325
33162W        W 1635   5.324  42.951  14.328
33163W        W 1636  31.467  43.777   1.289
33164W        W 1637  35.046  33.452   4.138
33165W        W 1638  26.564  30.605   2.305
33166W        W 1639  39.956   8.315   4.124
33167W        W 1640  39.926  23.520   1.788
33168W        W 1641  24.167  34.970   2.785
33169W        W 1642  31.011  29.425   3.642
33170W        W 1643  25.101  44.502   2.685
33171W        W 1644   2.880  40.466   0.447
33172W        W 1645  36.985  27.482   4.277
33173W        W 1646  20.037  34.965  11.972
33174W        W 1647   6.257  37.974   0.855
33175W        W 1648  37.885  23.991   1.306
33176W        W 1649  39.810  16.727   3.798
33177W        W 1650   2.256   8.779   4.342
33178W        W 1651  43.391  30.567   0.784
33179W        W 1652  30.609  11.665  13.447
33180W        W 1653  41.792  44.321   3.735
33181W        W 1654   7.859  39.915   1.791
33182W        W 1655  15.661  18.277   0.473
33183W        W 1656  22.697   6.751   4.327
33184W        W 1657  39.003  23.081  13.831
33185W        W 1658   0.382  27.053  14.284
33186W        W 1659   4.276   3.248  13.960
33187W        W 1660   7.789  44.827  13.409
33188W        W 1661   4.911  21.651   1.336
33189W        W 1662  22.729  19.270   4.622
33190W        W 1663  30.486   5.346  11.971
33191W        W 1664  13.783  35.533  12.525
33192W        W 1665  35.382  20.091  13.878
33193W        W 1666  42.411  10.808  12.985
33194W        W 1667  23.662  15.109  11.010
33195W        W 1668   5.292  16.733  13.511
33196W        W 1669  32.539  20.257   2.781
33197W        W 1670  42.864  37.890  14.931
33198W        W 1671  11.840  44.961   1.730
33199W        W 1672  38.051  24.545  13.539
33200W        W 1673   6.771  31.492   4.140
33201W        W 1674  18.073   3.285  13.363
33202W        W 1675  12.675   9.662  14.276
33203W        W 1676  41.492   5.420   1.875
33204W        W 1677  16.141  18.699  14.890
33205W        W 1678  20.533  25.989   1.371
33206W        W 1679  16.184   6.376  12.026
33207W        W 1680  31.043  15.688  14.479
33208W        W 1681  38.047  21.145  12.560
33209W        W 1682  27.964  11.747  12.464
33210W        W 1683  33.032   0.330  12.923
33211W        W 1684   3.251  39.489  14.027
33212W        W 1685  24.003  10.279   0.432
33213W        W 1686  19.121  40.982   4.349
33214W        W 1687  30.025  19.736   0.284
33215W        W 1688  21.212   8.196  13.968
33216W        W 1689  42.371  35.958   0.847
33217W        W 1690  35.467  32.949   1.916
33218W        W 1691  43.989  15.186   4.337
33219W        W 1692  40.483  30.560   2.745
33220W        W 1693   2.382  14.798   0.810
33221W        W 1694  21.743  23.027  11.961
33222W        W 1695   6.858  19.659   0.843
33223W        W 1696  41.329  24.111   0.438
33224W        W 1697   7.381   5.225   4.655
33225W        W 1698  24.099  30.585   1.302
33226W        W 1699  28.590   3.796   1.437
33227W        W 1700   2.752  15.279  14.898
33228W        W 1701  36.016   1.350  12.873
33229W        W 1702  25.079  14.318   3.309
33230W        W 1703   1.744  41.035   2.261
33231W        W 1704  44.894  28.114  12.033
33232W        W 1705   6.314  36.065  12.478
33233W        W 1706  10.296  32.636   4.838
33234W        W 1707   0.289   2.463   4.690
33235W        W 1708  41.328  42.022  14.368
33236W        W 1709  14.140  22.006   1.380
33237W        W 1710  39.912  18.210  14.319
33238W        W 1711  22.228  42.375  10.439
33239W        W 1712  27.555   0.314   1.709
33240W        W 1713  34.974  16.712  11.410
33241W        W 1714   2.337  38.877   5.092
33242W        W 1715  20.561  37.862   0.962
33243W        W 1716  20.262  23.134   3.705
33244W        W 1717   4.841  22.632   3.641
33245W        W 1718   4.830  17.077   1.318
33246W        W 1719  26.097  29.157   1.223
33247W        W 1720  42.849  40.990  10.919
33248W        W 1721  11.263  21.104  13.797
33249W        W 1722  43.330  18.154   1.814
33250W        W 1723   1.265  15.144  11.058
33251W        W 1724  28.619  35.404   3.680
33252W        W 1725  11.711  11.804  14.989
33253W        W 1726   3.749  17.715   0.901
33254W        W 1727  35.432  21.550  12.405
33255W        W 1728  36.995  20.676   3.861
33256W        W 1729  14.180  17.130   2.342
33257W        W 1730   5.312  36.514   0.888
33258W        W 1731  36.976  23.028   3.365
33259W        W 1732   1.857  23.157  10.972
33260W        W 1733  29.059  39.424   2.764
33261W        W 1734  40.879  31.119   0.785
33262W        W 1735  20.270  21.554   3.642
33263W        W 1736  17.590  27.541  13.437
33264W        W 1737  10.225  33.998  11.383
33265W        W 1738   6.847   7.716  13.894
33266W        W 1739   9.243  32.136  10.943
33267W        W 1740  31.496  30.639   1.929
33268W        W 1741  27.121  33.970  13.948
33269W        W 1742  23.235  30.630  11.869
33270W        W 1743  21.758  30.927   3.296
33271W        W 1744   3.843  26.068  13.427
33272W        W 1745   2.421  23.054  11.857
33273W        W 1746  21.669  21.216  11.021
33274W        W 1747  44.797  41.838  12.958
33275W        W 1748  35.494  44.896  14.954
33276W        W 1749  16.687  27.009  14.973
33277W        W 1750  21.696  32.543   3.771
33278W        W 1751  36.002  27.539   4.268
33279W        W 1752   0.453   6.832  13.913
33280W        W 1753  26.698  36.532   2.791
33281W        W 1754  33.490  27.054   3.649
33282W        W 1755  25.965  43.516   3.859
33283W        W 1756  24.525  21.118  12.870
33284W        W 1757  17.122  26.183  10.982
33285W        W 1758  15.773  40.469  14.031
33286W        W 1759  44.763   2.724   3.186
33287W        W 1760  28.510  17.742  12.854
33288W        W 1761  31.529  15.213   1.904
33289W        W 1762  11.794  42.929   2.320
33290W        W 1763  26.122   9.359   4.839
33291W        W 1764  29.557  43.875   2.696
33292W        W 1765  36.351  40.450  14.495
33293W        W 1766  34.018  22.737  12.054
33294W        W 1767  16.094  32.550   1.844
33295W        W 1768  13.278  12.241  14.367
33296W        W 1769  32.121   0.948  14.996
33297W        W 1770  42.013  35.083   1.715
33298W        W 1771  29.466  42.391  11.988
33299W        W 1772  31.618  26.012   0.313
33300W        W 1773  20.665  10.706   3.340
33301W        W 1774  10.149  34.383  13.424
33302W        W 1775  27.137  23.490  10.105
33303W        W 1776  18.243  13.195  12.446
33304W        W 1777  41.331  31.638   0.416
33305W        W 1778   1.762  15.135  12.575
33306W        W 1779  38.981  26.658   0.727
33307W        W 1780   1.475  17.574  10.407
33308W        W 1781  35.069  21.026   3.825
33309W        W 1782   8.846  10.859   2.343
33310W        W 1783  19.187  25.986   2.391
33311W        W 1784  27.539  35.427   0.878
33312W        W 1785  27.159  40.517  11.974
33313W        W 1786  11.709   5.795  13.420
33314W        W 1787  31.437  42.417  11.507
33315W        W 1788  21.642  29.447   3.248
33316W        W 1789  28.029  38.392  10.585
33317W        W 1790  23.554  16.171  14.462
33318W        W 1791  11.303   2.464   4.822
33319W        W 1792  43.482  33.981  11.020
33320W        W 1793   2.941  12.224   0.745
33321W        W 1794  38.961  31.413  14.790
33322W        W 1795  12.713  35.932   0.407
33323W        W 1796   5.384   9.650   2.793
33324W        W 1797  39.430  21.758  12.526
33325W        W 1798  15.708  36.443  14.922
33326W        W 1799  26.673  31.621   0.476
33327W        W 1800   0.917  40.915   1.299
33328W        W 1801  29.070   5.343  12.024
33329W        W 1802  38.402  23.999  12.373
33330W        W 1803  29.934  25.046   4.163
33331W        W 1804  29.136  12.644   2.221
33332W        W 1805  13.164  33.458   3.281
33333W        W 1806   7.284  13.684   4.344
33334W        W 1807   1.386  41.957   0.931
33335W        W 1808  21.749  42.031   2.188
33336W        W 1809  42.443  39.937   1.869
33337W        W 1810  32.520  21.263   3.651
33338W        W 1811  36.470  13.184   3.633
33339W        W 1812  19.167   5.879  11.939
33340W        W 1813  14.144  34.488   3.836
33341W        W 1814  18.651  43.016  12.839
33342W        W 1815  31.970  28.509   1.817
33343W        W 1816  17.799  34.017   0.796
33344W        W 1817  32.567  12.240  14.984
33345W        W 1818  13.654  36.428   1.905
33346W        W 1819  19.168   4.208   1.421
33347W        W 1820  37.516  25.115   1.247
33348W        W 1821   9.310  12.740   4.779
33349W        W 1822  16.593   9.808  12.881
33350W        W 1823  16.227  38.044  13.929
33351W        W 1824  25.078  42.921   3.653
33352W        W 1825  44.812  19.239  12.909
33353W        W 1826   9.778   1.787  14.844
33354W        W 1827  26.028  21.073  14.290
33355W        W 1828   2.421  17.570   3.839
33356W        W 1829  13.832  44.472   1.853
33357W        W 1830  31.511   1.778   0.735
33358W        W 1831  24.553  33.403  13.378
33359W        W 1832  19.139  12.711  11.563
33360W        W 1833   4.810  24.152  11.047
33361W        W 1834  39.046   5.690  13.935
33362W        W 1835   6.882  13.601   2.716
33363W        W 1836   3.383  36.577   2.696
33364W        W 1837  31.487  28.541  14.864
33365W        W 1838  40.430  26.178  10.569
33366W        W 1839   1.904  14.270  13.370
33367W        W 1840  36.034  22.544  14.991
33368W        W 1841  14.277  19.634   2.725
33369W        W 1842  36.945  34.018   0.459
33370W        W 1843  15.677  22.172   2.195
33371W        W 1844  36.388   5.300   3.325
33372W        W 1845  10.243  13.245  13.458
33373W        W 1846  21.656  15.173   4.619
33374W        W 1847  14.336  38.526  13.002
33375W        W 1848  11.350  40.917  14.983
33376W        W 1849  17.634  33.528  13.974
33377W        W 1850  19.272   5.288  13.331
33378W        W 1851   4.276  16.244  11.066
33379W        W 1852  14.216  22.088  10.989
33380W        W 1853  11.754   2.807   2.662
33381W        W 1854   0.956  35.922  13.395
33382W        W 1855  30.486  17.735   1.311
33383W        W 1856  17.568   0.806   3.343
33384W        W 1857  27.056  22.747  11.462
33385W        W 1858  24.697   7.752   4.126
33386W        W 1859  23.646  44.878  12.926
33387W        W 1860  40.051  34.527   3.386
33388W        W 1861  19.118  33.564  12.370
33389W        W 1862  19.280  13.751  14.406
33390W        W 1863  22.999  11.712   4.675
33391W        W 1864  31.450  28.434   1.292
33392W        W 1865  29.027   6.832  13.975
33393W        W 1866  35.371   5.395  13.020
33394W        W 1867  16.126   5.322   1.269
33395W        W 1868  27.534   6.739  14.500
33396W        W 1869   4.363  10.728  11.069
33397W        W 1870  35.008  38.332   3.156
33398W        W 1871  17.287  42.373  14.353
33399W        W 1872  25.539  13.328  14.392
33400W        W 1873  17.076   0.854  11.592
33401W        W 1874  24.079   7.349  13.367
33402W        W 1875  27.633  17.215   4.347
33403W        W 1876  22.204  25.492   3.298
33404W        W 1877  28.063  17.189   1.788
33405W        W 1878   4.822   1.774  10.454
33406W        W 1879  35.858  23.087  14.933
33407W        W 1880   1.399  15.657   1.370
33408W        W 1881   7.677   6.747  13.519
33409W        W 1882  13.679  26.019  10.922
33410W        W 1883  30.472   9.889  10.928
33411W        W 1884  23.117  44.401   3.844
33412W        W 1885  12.688  10.331  10.482
33413W        W 1886  33.063   7.336   0.264
33414W        W 1887   9.263  21.599   0.463
33415W        W 1888  27.467  16.785   4.330
33416W        W 1889  44.986  27.503  12.524
33417W        W 1890  37.919  23.692   2.839
33418W        W 1891  31.092  10.766  11.529
33419W        W 1892  15.578  20.551  14.909
33420W        W 1893  23.690  37.495  11.964
33421W        W 1894  33.128  36.085  11.391
33422W        W 1895  24.017  28.997   2.264
33423W        W 1896  19.130   3.334  12.514
33424W        W 1897  15.224  12.621   3.674
33425W        W 1898  36.924  18.769   0.886
33426W        W 1899  17.149   1.747   1.876
33427W        W 1900  18.752  28.935   9.962
33428W        W 1901  23.111  31.132  11.381
33429W        W 1902  42.972  15.642   4.743
33430W        W 1903  35.497   8.663   2.880
33431W        W 1904  19.214  17.144   4.767
33432W        W 1905  27.466  25.130   4.678
33433W        W 1906  29.966  16.263  11.561
33434W        W 1907   5.410  32.982   0.366
33435W        W 1908  24.110   9.355  12.564
33436W        W 1909  23.734  38.996   0.899
33437W        W 1910  39.405   0.372   2.704
33438W        W 1911  37.900   5.410  10.501
33439W        W 1912   6.406   1.779   4.600
33440W        W 1913   0.402  12.731   4.176
33441W        W 1914   2.865  14.119   2.270
33442W        W 1915  36.471  43.828  13.939
33443W        W 1916  16.673  41.000  14.902
33444W        W 1917  35.960  17.674   4.677
33445W        W 1918  24.121   0.771   3.823
33446W        W 1919  22.185  39.963   4.259
33447W        W 1920   0.305  28.059   0.743
33448W        W 1921  33.622  25.586   5.097
33449W        W 1922  25.589  35.929  12.007
33450W        W 1923  22.181   0.889   3.753
33451W        W 1924  10.256  12.273   4.195
33452W        W 1925  31.151   3.393   0.910
33453W        W 1926   2.885   4.223   0.243
33454W        W 1927   7.257  24.653   3.201
33455W        W 1928  10.792  19.107  12.552
33456W        W 1929  17.217  15.718  11.440
33457W        W 1930  22.170   1.262  11.583
33458W        W 1931  13.158  17.267   1.300
33459W        W 1932   5.358  14.666  11.109
33460W        W 1933  42.281  31.013   2.864
33461W        W 1934   9.868  35.499   1.770
33462W        W 1935  27.512  36.049  11.944
33463W        W 1936  17.729   2.309   3.737
33464W        W 1937  22.036  17.179  13.534
33465W        W 1938  34.089   9.373   2.697
33466W        W 1939   0.924  25.019   2.315
33467W        W 1940  42.784  27.138   4.680
33468W        W 1941  14.770  30.610  11.456
33469W        W 1942  21.116  20.100  11.951
33470W        W 1943  39.925  13.181  14.406
33471W        W 1944  19.600  16.808   4.660
33472W        W 1945   7.237  37.831  10.967
33473W        W 1946  35.109   8.217  12.000
33474W        W 1947   5.928  23.107   2.306
33475W        W 1948   4.366  31.917  13.903
33476W        W 1949  31.985  12.728   2.419
33477W        W 1950  11.354  34.468   4.313
33478W        W 1951  25.122  33.102   2.180
33479W        W 1952  44.905  13.811  11.903
33480W        W 1953  16.619  23.080  11.942
33481W        W 1954  20.670  28.641  10.644
33482W        W 1955   7.309  26.686  12.063
33483W        W 1956  10.208  26.132   1.767
33484W        W 1957  24.099  25.702   2.789
33485W        W 1958  28.116   0.368  13.336
33486W        W 1959  12.641  44.857   4.168
33487W        W 1960  24.143  12.144  11.895
33488W        W 1961  27.637   5.815   2.303
33489W        W 1962   2.349  32.024   2.184
33490W        W 1963  42.969  32.582  11.083
33491W        W 1964  29.971   8.327  10.918
33492W        W 1965  20.092   9.336   0.419
33493W        W 1966  16.638  41.913   4.806
33494W        W 1967   8.764  37.070   3.333
33495W        W 1968  16.290  40.937   3.700
33496W        W 1969  34.498  29.477   1.306
33497W        W 1970  38.931  11.645   0.483
33498W        W 1971   5.801  38.357  12.971
33499W        W 1972  17.153  44.360  13.944
33500W        W 1973  17.091  32.602   3.769
33501W        W 1974  23.221  18.575   2.410
33502W        W 1975  38.380  19.696  14.307
33503W        W 1976  22.222  40.888  11.481
33504W        W 1977  43.919  27.075  14.787
33505W        W 1978   7.680  37.362   3.748
33506W        W 1979   0.858  39.552  12.071
33507W        W 1980  41.460  15.660   2.212
33508W        W 1981  22.122  22.661  12.354
33509W        W 1982  19.276  41.807   4.322
33510W        W 1983  22.662  31.648   4.630
33511W        W 1984   0.471  40.489   4.717
33512W        W 1985  12.639  43.280   2.871
33513W        W 1986   2.385  41.469  14.775
33514W        W 1987   1.426  23.634   1.874
33515W        W 1988  40.895  12.278  13.479
33516W        W 1989  42.947  14.635   3.826
33517W        W 1990  35.400  36.415   2.224
33518W        W 1991  17.707  42.316  10.479
33519W        W 1992  10.743  36.579   3.224
33520W        W 1993   6.845  11.698  12.500
33521W        W 1994  32.440  44.809  12.927
33522W        W 1995  35.968  28.577  12.520
33523W        W 1996  12.137  30.459  13.847
33524W        W 1997  37.431  21.142  11.890
33525W        W 1998   5.921  33.900  10.946
33526W        W 1999  43.841  37.495   2.411
33527W        W 2000   3.253   8.187  10.622
33528W        W 2001  11.809   4.403   1.838
33529W        W 2002  40.044  15.734   4.631
33530W        W 2003   2.358   9.196  11.383
33531W        W 2004   0.418  30.619  14.353
33532W        W 2005  41.998   0.431  14.997
33533W        W 2006  32.917  21.040   0.957
33534W        W 2007  30.507   4.269   2.726
33535W        W 2008  12.796  34.003   4.725
33536W        W 2009  29.544  37.486  12.378
33537W        W 2010  19.113  21.678  13.455
33538W        W 2011  37.388  31.126   1.928
33539W        W 2012  34.955  23.029  14.007
33540W        W 2013  26.591   2.377   0.306
33541W        W 2014  24.975   1.410  13.809
33542W        W 2015  23.511   1.976  13.965
33543W        W 2016   4.209  12.736   2.666
33544W        W 2017  32.084  15.672   1.912
33545W        W 2018  26.981  37.420  13.952
33546W        W 2019  31.978  21.732  14.403
33547W        W 2020  28.676  21.201   0.315
33548W        W 2021   0.491  16.072   1.414
33549W        W 2022   9.692  44.451   3.160
33550W        W 2023  33.431  19.090  11.963
33551W        W 2024  11.625  39.905   4.127
33552W        W 2025  11.731  12.209   2.835
33553W        W 2026  38.529  21.070  14.345
33554W        W 2027  37.423  11.140   4.793
33555W        W 2028   1.280  13.196  11.086
33556W        W 2029  21.246   8.662  14.937
33557W        W 2030   5.218  10.684   3.190
33558W        W 2031  43.408  34.597  12.846
33559W        W 2032  39.858   4.886   2.762
33560W        W 2033  36.585  16.123  11.957
33561W        W 2034  20.255  37.067  11.041
33562W        W 2035  32.626  37.892  11.493
33563W        W 2036  19.257  19.265   3.671
33564W        W 2037  12.158   2.367  10.514
33565W        W 2038  19.142  28.525  11.376
33566W        W 2039   4.821  44.914  14.485
33567W        W 2040  30.002   6.416  13.028
33568W        W 2041  11.340  38.844  13.492
33569W        W 2042  17.234   1.381  14.476
33570W        W 2043  22.701  33.603   4.257
33571W        W 2044   9.351  10.196   3.633
33572W        W 2045  43.829  24.084   4.810
33573W        W 2046  40.944  11.678  14.922
33574W        W 2047  29.584  31.023  14.854
33575W        W 2048  24.160  27.053   2.191
33576W        W 2049  30.072  41.036   1.770
33577W        W 2050  44.863  13.681  14.415
33578W        W 2051  34.425  10.664   2.277
33579W        W 2052  24.511  12.276  12.516
33580W        W 2053  15.229  22.047   4.804
33581W        W 2054   4.430   8.811   2.730
33582W        W 2055  24.201  42.432  11.088
33583W        W 2056  36.366   6.740   0.952
33584W        W 2057  22.629  43.812  12.505
33585W        W 2058  35.383  32.899   1.356
33586W        W 2059  30.435  35.037   3.695
33587W        W 2060  10.854  31.599   2.729
33588W        W 2061  18.737  37.394  12.365
33589W        W 2062  35.900  38.975   1.792
33590W        W 2063  30.973  18.779   4.301
33591W        W 2064   4.812  44.481   4.688
33592W        W 2065  31.447  15.755  12.950
33593W        W 2066  39.538  23.174   0.853
33594W        W 2067  44.804  27.140   4.755
33595W        W 2068   1.252  23.202   2.746
33596W        W 2069  24.181  25.999   3.287
33597W        W 2070   2.466  39.414  12.491
33598W        W 2071  16.115  14.636   3.641
33599W        W 2072  41.956   5.327   4.155
33600W        W 2073  35.101  32.521   3.799
33601W        W 2074  35.594  37.932  13.036
33602W        W 2075  28.539   3.444  10.610
33603W        W 2076   9.857   2.367   1.829
33604W        W 2077  27.524   5.234   3.777
33605W        W 2078   7.789  25.545  12.433
33606W        W 2079  29.936  29.078  11.968
33607W        W 2080  42.458  13.109  13.815
33608W        W 2081  20.218   1.382  12.949
33609W        W 2082  39.832  20.682   3.156
33610W        W 2083  41.454  19.257  12.413
33611W        W 2084   6.732  34.913   2.338
33612W        W 2085  44.447  28.932   4.632
33613W        W 2086  16.634  11.724   2.784
33614W        W 2087  38.523  38.892   2.202
33615W        W 2088  31.483   7.712  10.567
33616W        W 2089  16.198  32.504   3.652
33617W        W 2090  40.824  41.843   1.270
33618W        W 2091   8.342  33.904  11.865
33619W        W 2092  13.284   6.891   2.697
33620W        W 2093  28.492   5.424  10.458
33621W        W 2094  44.850  25.130  11.549
33622W        W 2095  43.991   9.775   2.725
33623W        W 2096   6.881  20.661   0.475
33624W        W 2097  43.842   4.258   1.263
33625W        W 2098  10.724  18.050  11.470
33626W        W 2099   3.320  11.309  11.931
33627W        W 2100  40.495   2.346  14.788
33628W        W 2101  35.593  21.229  13.810
33629W        W 2102  19.606  42.283  13.531
33630W        W 2103  31.551  21.622   3.756
33631W        W 2104  12.715  11.132  10.643
33632W        W 2105  43.390  29.485   0.361
33633W        W 2106  43.388  19.083  11.855
33634W        W 2107  30.090  42.284  10.637
33635W        W 2108   8.308  38.509  11.402
33636W        W 2109  22.633   5.787   3.766
33637W        W 2110  36.946  30.568  13.473
33638W        W 2111  36.377  23.667  14.785
33639W        W 2112  15.128  29.640   0.852
33640W        W 2113   3.253  12.233   0.256
33641W        W 2114  21.159  32.124   1.735
33642W        W 2115  11.844  36.991  14.844
33643W        W 2116  14.340  24.608  14.512
33644W        W 2117  43.933  38.827  12.972
33645W        W 2118  26.123   5.888   0.243
33646W        W 2119   9.384  19.043  13.440
33647W        W 2120   0.271  38.431  12.006
33648W        W 2121  13.635  19.641   2.215
33649W        W 2122  11.127  21.138  12.356
33650W        W 2123  30.447  44.323  10.557
33651W        W 2124  17.756  33.975  13.018
33652W        W 2125   2.930  13.664   2.368
33653W        W 2126  35.559  31.639  12.445
33654W        W 2127  21.650  16.249  13.050
33655W        W 2128  17.571  16.629   0.355
33656W        W 2129   7.785  11.159  10.936
33657W        W 2130  15.216  13.158  14.416
33658W        W 2131  35.107  16.614  12.981
33659W        W 2132   9.274  28.462   2.729
33660W        W 2133  34.600  38.345   3.271
33661W        W 2134   9.644   7.317  14.007
33662W        W 2135  18.735  13.350   3.235
33663W        W 2136  34.447  44.423  11.524
33664W        W 2137  11.327  40.032   3.861
33665W        W 2138  15.253  38.530  10.006
33666W        W 2139  36.372  39.399  10.907
33667W        W 2140  12.298  36.885   2.808
33668W        W 2141  22.036  31.897  12.832
33669W        W 2142  36.432  13.677  14.279
33670W        W 2143   6.724  18.693   2.692
33671W        W 2144  39.920  37.910  11.426
33672W        W 2145   4.444  20.609   3.343
33673W        W 2146  27.168  15.105   2.829
33674W        W 2147  18.548  42.853   1.324
33675W        W 2148  15.152  26.982   1.716
33676W        W 2149   0.835  35.396  12.876
33677W        W 2150  31.598  22.547  14.353
33678W        W 2151  36.934  10.660  14.792
33679W        W 2152   7.742  14.206   0.832
33680W        W 2153  26.465  37.023   4.195
33681W        W 2154   0.280  40.542  13.845
33682W        W 2155  29.589  21.731  12.842
33683W        W 2156  11.792   7.886   2.380
33684W        W 2157  36.039  43.815  14.835
33685W        W 2158  32.472  41.009   0.369
33686W        W 2159  37.936  28.545  13.530
33687W        W 2160   7.278   2.818   3.362
33688W        W 2161  22.588  27.110   1.290
33689W        W 2162  27.002   7.285   1.367
33690W        W 2163  37.471  44.406  13.824
33691W        W 2164  18.278  40.421   2.378
33692W        W 2165  26.995   7.908  12.068
33693W        W 2166  12.810   0.857  10.925
33694W        W 2167  36.553  33.127   2.871
33695W        W 2168  36.911  26.969   3.858
33696W        W 2169  25.167  16.639   1.325
33697W        W 2170  33.042  26.603   3.376
33698W        W 2171  34.893  22.251   3.843
33699W        W 2172  20.187  18.601   4.308
33700W        W 2173  17.774  24.977   4.276
33701W        W 2174  30.035  25.177  12.462
33702W        W 2175  43.902  18.618  13.029
33703W        W 2176  44.860  14.268  12.967
33704W        W 2177   4.426  40.976   1.333
33705W        W 2178  19.101  19.208  12.490
33706W        W 2179  29.620  34.047  10.433
33707W        W 2180  12.281  33.607  13.516
33708W        W 2181   0.974  40.326  12.433
33709W        W 2182   8.205  31.955   2.178
33710W        W 2183  23.008  28.113   4.200
33711W        W 2184  14.145  31.565  13.964
33712W        W 2185  29.587  15.134   1.698
33713W        W 2186  27.046  21.125   1.898
33714W        W 2187  31.614  43.487  10.130
33715W        W 2188   2.939   4.413   0.756
33716W        W 2189  10.214   1.964   2.691
33717W        W 2190  28.634  26.670  14.878
33718W        W 2191  39.549  30.031   2.817
33719W        W 2192  28.653  37.391  14.410
33720W        W 2193  17.307  40.973  14.950
33721W        W 2194  34.431  38.995  14.031
33722W        W 2195   1.932  30.446  11.397
33723W        W 2196  18.725   7.666   0.794
33724W        W 2197  11.736   2.803  14.845
33725W        W 2198  29.010  36.519   2.717
33726W        W 2199   1.304   2.948   0.883
33727W        W 2200  15.217  24.153  12.554
33728W        W 2201  30.469   0.484  13.542
33729W        W 2202   9.682  36.977  11.984
33730W        W 2203  44.988   0.983  13.915
33731W        W 2204  29.994   2.357   1.345
33732W        W 2205  16.148  28.654   2.407
33733W        W 2206  14.249  15.308  13.495
33734W        W 2207  24.532  17.787  11.454
33735W        W 2208  37.047  19.630   1.435
33736W        W 2209  39.835   4.326  10.510
33737W        W 2210  23.589  40.810  13.004
33738W        W 2211  27.471  31.637  10.425
33739W        W 2212   1.975   5.763  12.947
33740W        W 2213  10.675  18.723  10.521
33741W        W 2214  43.859   8.835  11.381
33742W        W 2215  34.419  39.518  12.039
33743W        W 2216  40.874  37.453   0.274
33744W        W 2217  22.062  20.635  13.985
33745W        W 2218   2.274  28.578   4.807
33746W        W 2219  41.022  22.023   0.367
33747W        W 2220  37.505  28.436  12.963
33748W        W 2221  30.644  24.496   1.368
33749W        W 2222  40.484   4.387  13.000
33750W        W 2223  22.591   6.891   0.756
33751W        W 2224  18.685  17.137  14.289
33752W        W 2225  30.476  20.223  13.530
33753W        W 2226  16.075  16.144   0.267
33754W        W 2227  41.326  34.962  13.510
33755W        W 2228  43.449  14.787   3.381
33756W        W 2229   4.706  17.587  12.544
33757W        W 2230  21.672  25.536  14.814
33758W        W 2231  16.248  44.467   2.743
33759W        W 2232  16.605  25.706   2.182
33760W        W 2233  29.587  14.632  12.867
33761W        W 2234   8.888  44.326   0.858
33762W        W 2235   0.778   5.320   0.807
33763W        W 2236  32.407  24.594  11.435
33764W        W 2237   1.928  29.950  12.439
33765W        W 2238   5.834   3.284   3.347
33766W        W 2239   1.844  27.002   4.286
33767W        W 2240  38.417  23.062   2.356
33768W        W 2241  41.851  32.518  14.839
33769W        W 2242   4.310  26.958  11.876
33770W        W 2243  16.187  10.644  13.496
33771W        W 2244  32.607  14.115   4.317
33772W        W 2245  25.132  29.965  11.066
33773W        W 2246  38.362   6.832  13.868
33774W        W 2247  20.747   8.780  14.844
33775W        W 2248  33.927  22.209   3.826
33776W        W 2249   5.848  37.531   1.356
33777W        W 2250  44.878  32.466  12.850
33778W        W 2251  15.122  27.078  11.534
33779W        W 2252   3.390   8.871  10.452
33780W        W 2253  26.571  25.150  14.285
33781W        W 2254  42.465   8.187  13.061
33782W        W 2255   1.971   7.200  11.446
33783W        W 2256  30.998  20.631   3.850
33784W        W 2257  10.304  29.655   3.865
33785W        W 2258  32.129  32.911  12.976
33786W        W 2259  37.400  12.215   3.656
33787W        W 2260  37.537   1.817   1.212
33788W        W 2261  26.519  35.027   2.731
33789W        W 2262  12.241  31.933  13.936
33790W        W 2263  38.355  21.169   1.793
33791W        W 2264  27.967  35.001   3.294
33792W        W 2265  39.886  33.407   0.437
33793W        W 2266   5.752  40.977   1.297
33794W        W 2267   3.716  12.277   4.308
33795W        W 2268  39.526  28.582  11.863
33796W        W 2269   2.765  25.066  14.360
33797W        W 2270  11.814  34.597   3.661
33798W        W 2271  39.452  28.637  11.612
33799W        W 2272  34.864   1.794  11.899
33800W        W 2273  42.976  34.412  12.961
33801W        W 2274  18.234  37.562  12.922
33802W        W 2275  17.177  20.137  13.046
33803W        W 2276   8.288   5.375  10.418
33804W        W 2277  29.945   2.947   2.276
33805W        W 2278  32.091  35.052  13.027
33806W        W 2279  37.458  26.194   3.709
33807W        W 2280  42.786  23.602  13.337
33808W        W 2281  43.970  33.461  13.851
33809W        W 2282   1.892  31.029  10.520
33810W        W 2283  17.772  12.239  11.487
33811W        W 2284   6.691   3.829  14.473
33812W        W 2285  20.179   3.273  14.826
33813W        W 2286  20.125  38.067  11.608
33814W        W 2287   1.813  24.055  13.307
33815W        W 2288  15.140  37.577  14.847
33816W        W 2289   6.886  41.408   4.290
33817W        W 2290  33.037  16.716  10.570
33818W        W 2291  37.968  35.434   4.830
33819W        W 2292  36.986   1.402  13.531
33820W        W 2293  31.150   8.259  14.801
33821W        W 2294  17.168   8.214   3.692
33822W        W 2295  39.013  17.719   1.726
33823W        W 2296  39.407  11.338  14.298
33824W        W 2297  19.625  21.086   3.290
33825W        W 2298  16.790  12.296  11.068
33826W        W 2299  38.421  28.940   2.695
33827W        W 2300  39.505  19.744  10.954
33828W        W 2301  14.612  37.896   2.704
33829W        W 2302  15.150  43.278  11.942
33830W        W 2303  13.138  31.043   3.198
33831W        W 2304  11.706   5.778  14.433
33832W        W 2305  26.494   4.916  10.005
33833W        W 2306   6.677  41.865   3.731
33834W        W 2307  16.230  31.109   0.964
33835W        W 2308  13.156  41.489   0.342
33836W        W 2309  22.236  14.302  13.988
33837W        W 2310  31.132  44.389   5.299
33838W        W 2311  18.745  22.072   3.246
33839W        W 2312  38.063  31.114   4.333
33840W        W 2313   3.402  44.815   1.277
33841W        W 2314  38.491  23.016   4.240
33842W        W 2315  40.028  28.611  14.457
33843W        W 2316  30.039  17.797   2.352
33844W        W 2317  16.231  33.888   2.253
33845W        W 2318  44.418  44.999  10.436
33846W        W 2319  38.496  33.392   1.908
33847W        W 2320  17.252   0.868   5.297
33848W        W 2321  25.086  38.073  10.918
33849W        W 2322   6.913  33.070   0.423
33850W        W 2323   5.748  25.047  13.874
33851W        W 2324  28.585  11.358   4.756
33852W        W 2325  32.113   5.719  11.088
33853W        W 2326  30.525  41.953  11.565
33854W        W 2327  28.599   3.745   4.774
33855W        W 2328   6.261  39.454  10.895
33856W        W 2329  43.444  35.388  13.420
33857W        W 2330  11.756  32.411  12.881
33858W        W 2331  16.634  22.704   2.808
33859W        W 2332  34.399   6.341   3.161
33860W        W 2333  35.552  25.022   2.358
33861W        W 2334  13.795   6.828   1.903
33862W        W 2335  13.235  28.609  10.421
33863W        W 2336  17.634  42.991   0.475
33864W        W 2337  26.183   0.421   9.984
33865W        W 2338  16.084   4.438   4.170
33866W        W 2339  31.080  37.411  10.606
33867W        W 2340  38.843   9.189   1.703
33868W        W 2341  28.107  30.559  13.484
33869W        W 2342  36.484  18.751   4.782
33870W        W 2343  28.480  20.686   2.306
33871W        W 2344  42.309  10.363   1.393
33872W        W 2345  14.732  44.397   2.302
33873W        W 2346  35.097  26.018   1.799
33874W        W 2347  43.954  14.751  14.860
33875W        W 2348   4.228  22.678  11.546
33876W        W 2349   6.194  19.265  14.961
33877W        W 2350   5.835  32.500   2.398
33878W        W 2351  42.830   0.928   0.330
33879W        W 2352  42.938  39.903  13.544
33880W        W 2353  30.511  43.931   2.885
33881W        W 2354  12.154   9.151   2.355
33882W        W 2355  33.486  25.219  10.117
33883W        W 2356  33.069   5.313   2.213
33884W        W 2357  29.582  43.383  12.941
33885W        W 2358   7.403  18.070   2.230
33886W        W 2359  25.996  20.632  12.969
33887W        W 2360  29.532  43.490   1.276
33888W        W 2361  16.141   7.776  11.062
33889W        W 2362  44.411   0.914  13.529
33890W        W 2363   6.700   4.715  14.385
33891W        W 2364   1.946  10.706  13.508
33892W        W 2365   3.928  21.546   3.276
33893W        W 2366  39.849  26.962  11.013
33894W        W 2367   3.736  31.112   4.235
33895W        W 2368  33.575  14.680  14.023
33896W        W 2369   0.338  18.644   4.160
33897W        W 2370  38.852  36.987  13.344
33898W        W 2371  14.335  21.239   0.287
33899W        W 2372  43.290  25.214   5.210
33900W        W 2373   3.820   6.318  12.970
33901W        W 2374  41.352  34.390   2.418
33902W        W 2375   9.677  16.085   1.843
33903W        W 2376  35.501  30.131   0.345
33904W        W 2377  20.231  15.299   3.320
33905W        W 2378  37.839   9.155  13.920
33906W        W 2379  19.114  20.165  11.918
33907W        W 2380  35.914   4.389  14.338
33908W        W 2381   2.415  10.196   9.928
33909W        W 2382  30.970  11.151   3.246
33910W        W 2383  17.264  17.220  13.495
33911W        W 2384  26.139  23.604  10.577
33912W        W 2385  21.551  15.723   1.721
33913W        W 2386  38.060  44.781  13.952
33914W        W 2387   8.846  14.660   0.456
33915W        W 2388  10.759  15.092   1.445
33916W        W 2389  21.725  43.785   1.794
33917W        W 2390  10.666  15.285   3.192
33918W        W 2391  31.967  12.760   0.949
33919W        W 2392  21.680  37.937  14.316
33920W        W 2393  44.919  39.394   2.243
33921W        W 2394   0.857  36.562  14.378
33922W        W 2395  37.459  27.069  12.857
33923W        W 2396  33.978   5.718   0.823
33924W        W 2397  42.395  37.069  10.947
33925W        W 2398  35.998   2.333   0.911
33926W        W 2399   8.810  40.466   4.609
33927W        W 2400  21.589  37.924  13.961
33928W        W 2401  13.265  42.486   2.414
33929W        W 2402   1.914  43.305  11.022
33930W        W 2403   5.756  16.150   2.715
33931W        W 2404  28.184   6.222  14.431
33932W        W 2405  32.121  34.535   1.334
33933W        W 2406  26.646  25.663   3.776
33934W        W 2407   0.306  44.461   2.345
33935W        W 2408   5.289  36.872   3.198
33936W        W 2409   0.379  44.834  10.600
33937W        W 2410  40.844   3.921   1.216
33938W        W 2411  30.620  41.401  13.340
33939W        W 2412  31.485  24.021   1.327
33940W        W 2413  17.252   8.899   9.931
33941W        W 2414  36.424   2.321   3.821
33942W        W 2415  28.970   2.873   2.713
33943W        W 2416  20.591  30.945   0.321
33944W        W 2417  15.215  30.121  10.466
33945W        W 2418  11.622  18.641   0.400
33946W        W 2419  21.119  28.970  11.936
33947W        W 2420   1.421  30.116  14.341
33948W        W 2421  16.290  18.698  13.412
33949W        W 2422  14.618  20.615  14.325
33950W        W 2423  36.511   0.947   4.349
33951W        W 2424   4.302  22.252  10.579
33952W        W 2425  33.893  35.480   4.294
33953W        W 2426  44.316  22.512   1.251
33954W        W 2427  41.455  23.221   4.812
33955W        W 2428  40.011   8.885   0.940
33956W        W 2429  36.052   3.919  10.905
33957W        W 2430  18.079  10.349  14.475
33958W        W 2431   2.381  17.613   0.929
33959W        W 2432   1.972  25.539  13.472
33960W        W 2433  24.054  24.581  12.046
33961W        W 2434   5.377  44.815   1.329
33962W        W 2435  29.081  41.348  14.851
33963W        W 2436  17.558  23.533  12.921
33964W        W 2437   8.321  15.771  14.296
33965W        W 2438   9.851  29.644   4.139
33966W        W 2439  22.519   1.377   0.927
33967W        W 2440   1.245  36.580  11.435
33968W        W 2441  23.587  40.365   1.428
33969W        W 2442  23.594  33.580   0.901
33970W        W 2443  27.163  30.509   1.292
33971W        W 2444  19.565  10.175  10.453
33972W        W 2445  36.534  41.943   4.271
33973W        W 2446   0.978  39.990  14.998
33974W        W 2447  15.742  40.473   4.327
33975W        W 2448  28.674   8.707   0.913
33976W        W 2449   0.979   5.380  14.384
33977W        W 2450  28.551  23.149  11.061
33978W        W 2451  18.229  40.817   2.209
33979W        W 2452  30.945  39.393  13.827
33980W        W 2453  15.621  15.794  11.534
33981W        W 2454  36.470   0.249   2.825
33982W        W 2455   0.825  30.654   2.368
33983W        W 2456  33.041  23.165  14.888
33984W        W 2457  34.918  44.933  14.416
33985W        W 2458  28.463  34.372  13.470
33986W        W 2459   2.959  38.854  14.903
33987W        W 2460  27.639   5.338   1.714
33988W        W 2461  40.413  25.136  11.101
33989W        W 2462   6.285  30.946  14.510
33990W        W 2463  31.054   7.773  10.560
33991W        W 2464   1.889  14.669  13.541
33992W        W 2465   1.254  11.322   4.236
33993W        W 2466  22.673  16.666   0.380
33994W        W 2467  34.588   7.773   4.836
33995W        W 2468  39.374  17.229  12.092
33996W        W 2469  13.170  24.031   1.732
33997W        W 2470  18.571  36.479   4.681
33998W        W 2471  30.594  35.099   0.411
33999W        W 2472  30.611  36.092  14.465
34000W        W 2473  43.826  28.974  12.987
34001W        W 2474  17.578   6.320  11.458
34002W        W 2475  22.025   9.655  13.804
34003W        W 2476  22.188  42.858   4.705
34004W        W 2477  44.761  17.725  14.788
34005W        W 2478  30.467  42.899   4.816
34006W        W 2479  31.088  12.727  13.818
34007W        W 2480   0.344  16.709   3.285
34008W        W 2481  25.593  28.084  13.453
34009W        W 2482  39.830  41.863  13.015
34010W        W 2483   1.828  34.612  14.407
34011W        W 2484   7.719  44.804   4.288
34012W        W 2485  26.065  42.993  10.086
34013W        W 2486  32.424  41.308  12.511
34014W        W 2487  42.445  20.721   3.647
34015W        W 2488  15.220  42.407  12.921
34016W        W 2489  28.486   8.818  12.493
34017W        W 2490  44.816  13.308  14.783
34018W        W 2491  23.652   6.425  13.545
34019W        W 2492  14.755  22.074   4.665
34020W        W 2493  29.989   9.695   3.278
34021W        W 2494  31.612  30.994   3.846
34022W        W 2495  41.379  35.036  13.003
34023W        W 2496  34.546  10.247   9.996
34024W        W 2497  16.127  26.525   4.657
34025W        W 2498   1.966  36.971  10.909
34026W        W 2499  34.591  30.099  14.852
34027W        W 2500  19.708  14.609   0.760
34028W        W 2501   2.814  19.098   4.243
34029W        W 2502  43.947   1.446  11.454
34030W        W 2503  36.494  42.442  13.025
34031W        W 2504   6.285  20.118   2.700
34032W        W 2505   4.248  36.374  14.924
34033W        W 2506  42.781  13.838   0.253
34034W        W 2507   6.408  27.632   2.232
34035W        W 2508  11.623  32.032   3.864
34036W        W 2509  35.091   2.440  10.932
34037W        W 2510  11.786   7.879   4.788
34038W        W 2511   9.227   4.268  11.030
34039W        W 2512  32.570  22.025  13.483
34040W        W 2513  39.880  30.020   4.831
34041W        W 2514  38.828  36.406  14.964
34042W        W 2515  31.504  17.783   0.476
34043W        W 2516  34.927  25.026   4.730
34044W        W 2517  24.558  25.999   0.888
34045W        W 2518   8.809   0.786  13.874
34046W        W 2519   5.746  24.478   3.246
34047W        W 2520   5.730  37.554  14.772
34048W        W 2521  44.869  26.595  14.760
34049W        W 2522  41.859  13.641   2.723
34050W        W 2523   6.400  24.564   4.787
34051W        W 2524  16.259  17.141   2.358
34052W        W 2525  42.508   9.359   4.316
34053W        W 2526  42.809  26.457  14.354
34054W        W 2527  27.036  43.414   1.423
34055W        W 2528  34.560   9.861  14.786
34056W        W 2529  35.876  21.083  14.309
34057W        W 2530   9.878  42.305  13.443
34058W        W 2531  38.048   8.169  12.926
34059W        W 2532  22.727  37.983  14.447
34060W        W 2533  14.779   8.766  13.473
34061W        W 2534  20.108   3.390   2.407
34062W        W 2535  37.957  35.064   0.445
34063W        W 2536  23.702  33.924  14.929
34064W        W 2537  43.881  39.465  14.329
34065W        W 2538  13.309  29.615  14.005
34066W        W 2539   0.459  12.319  11.023
34067W        W 2540  15.290  16.287  11.895
34068W        W 2541   3.379  43.455  12.530
34069W        W 2542  43.849   4.410   2.789
34070W        W 2543  41.978  10.229   1.415
34071W        W 2544  20.755  19.279  10.425
34072W        W 2545  27.480  26.697  11.487
34073W        W 2546   4.333  12.752  14.014
34074W        W 2547  37.393  26.524   4.787
34075W        W 2548  27.653  39.536   4.653
34076W        W 2549  34.468   9.253   0.885
34077W        W 2550  14.143  17.692  11.494
34078W        W 2551  21.190  36.503  11.601
34079W        W 2552  37.832  12.313  11.953
34080W        W 2553  25.701   5.353  10.474
34081W        W 2554  42.783  40.997   1.347
34082W        W 2555  43.785  15.796   1.824
34083W        W 2556  41.424  32.555  14.512
34084W        W 2557  37.959  17.229  10.643
34085W        W 2558  22.558  44.306   1.443
34086W        W 2559   6.890  28.544   1.895
34087W        W 2560  39.898   3.321   4.240
34088W        W 2561  20.656  41.434  10.446
34089W        W 2562  43.509   9.859   0.907
34090W        W 2563   3.766  23.121  13.942
34091W        W 2564  20.093  33.385   2.814
34092W        W 2565   1.914   2.925   4.160
34093W        W 2566  12.800  44.909  11.109
34094W        W 2567   7.734   7.679   0.905
34095W        W 2568  29.561  38.439   1.852
34096W        W 2569  34.552  43.957  11.607
34097W        W 2570  11.859  34.943   0.741
34098W        W 2571  39.038   7.320  11.108
34099W        W 2572  42.021  19.244  11.119
34100W        W 2573  28.603  37.560  11.519
34101W        W 2574  17.736  43.970  14.433
34102W        W 2575  22.738   6.357  10.427
34103W        W 2576  21.736  18.120   2.673
34104W        W 2577   3.912  29.146  12.578
34105W        W 2578  10.199  16.763   3.797
34106W        W 2579  16.194  32.030  11.105
34107W        W 2580  21.559   4.418   2.708
34108W        W 2581   8.335  28.173  12.827
34109W        W 2582  19.070   7.885   1.451
34110W        W 2583  22.651  36.497  10.475
34111W        W 2584  31.427  15.822  14.398
34112W        W 2585  34.943  24.188   0.805
34113W        W 2586  22.246   4.759   1.284
34114W        W 2587   1.246   6.865   1.223
34115W        W 2588  29.455  34.111  11.015
34116W        W 2589  39.359  18.290   1.880
34117W        W 2590  36.040  13.717  11.925
34118W        W 2591  39.542  44.393   0.922
34119W        W 2592  28.949  34.871   1.827
34120W        W 2593  25.022  33.124  14.280
34121W        W 2594  24.128   5.422  13.900
34122W        W 2595  15.110  12.800   4.217
34123W        W 2596   2.268  23.589   4.666
34124W        W 2597   6.822  19.566   1.226
34125W        W 2598   8.160  10.876   1.872
34126W        W 2599  20.525  19.124   2.295
34127W        W 2600  43.851  23.107   1.423
34128W        W 2601  35.048  18.704  10.925
34129W        W 2602  26.027   1.939  11.936
34130W        W 2603  14.119  42.508  13.491
34131W        W 2604  14.669  12.857  10.464
34132W        W 2605  31.037  17.244  13.843
34133W        W 2606  31.068  24.127  12.847
34134W        W 2607   7.303  11.262  12.512
34135W        W 2608  42.019  39.460  11.452
34136W        W 2609   1.261   8.875   1.812
34137W        W 2610  34.482  40.375   4.140
34138W        W 2611  11.688  42.958   1.714
34139W        W 2612  11.279  34.985   1.826
34140W        W 2613  10.249   4.349  10.022
34141W        W 2614  14.102  17.783   2.389
34142W        W 2615  42.982   1.280  13.817
34143W        W 2616  11.314  20.173   3.807
34144W        W 2617  22.106  16.719  10.905
34145W        W 2618   5.382   9.319  10.922
34146W        W 2619   7.681   3.397  12.883
34147W        W 2620  21.676  11.206   2.399
34148W        W 2621  40.379  33.599   2.296
34149W        W 2622   1.886   7.688   0.902
34150W        W 2623  44.455   3.780   2.735
34151W        W 2624   5.370   5.838  13.904
34152W        W 2625   9.236  26.516  14.422
34153W        W 2626  28.005  15.658   4.751
34154W        W 2627  13.238  35.078   4.320
34155W        W 2628  44.764  27.650   4.686
34156W        W 2629  34.532  18.282   2.241
34157W        W 2630  41.855  19.051   0.964
34158W        W 2631  15.131  11.770  12.898
34159W        W 2632  24.558  17.130   1.916
34160W        W 2633  20.059  35.925   0.820
34161W        W 2634   9.757   2.433  14.361
34162W        W 2635  19.565   9.277  10.978
34163W        W 2636  12.224  44.502   0.948
34164W        W 2637   5.768  12.705  10.091
34165W        W 2638   1.798  43.952  12.460
34166W        W 2639  31.149   8.169  12.834
34167W        W 2640  11.257   8.898  11.590
34168W        W 2641   6.700  33.997   2.256
34169W        W 2642  40.495   8.881  10.157
34170W        W 2643   3.884  23.669  11.598
34171W        W 2644   8.694   9.189  10.418
34172W        W 2645   1.440   3.376  11.555
34173W        W 2646   6.266  26.641  11.879
34174W        W 2647  11.668  22.502   1.823
34175W        W 2648   4.446  43.489  10.407
34176W        W 2649  22.577  23.616  12.004
34177W        W 2650  25.109   1.785   3.312
34178W        W 2651  30.004  18.760  13.457
34179W        W 2652  41.848  29.104  11.045
34180W        W 2653   6.802  31.990  12.577
34181W        W 2654  24.148  21.153  11.479
34182W        W 2655   4.417  12.658  11.432
34183W        W 2656  19.666  19.082   4.648
34184W        W 2657  43.851  41.842  13.458
34185W        W 2658  34.026  36.002   3.834
34186W        W 2659  32.633  26.037   4.321
34187W        W 2660  38.896  31.579  11.027
34188W        W 2661  35.960  14.120   4.655
34189W        W 2662   6.423   3.868  14.924
34190W        W 2663  26.971  36.096   3.283
34191W        W 2664  23.680  36.900   1.903
34192W        W 2665  24.511  43.390  12.081
34193W        W 2666  12.170  38.403   2.235
34194W        W 2667   6.377  12.786  14.862
34195W        W 2668  37.054  32.989  12.368
34196W        W 2669  22.158  33.100   2.360
34197W        W 2670  29.055  30.154  12.543
34198W        W 2671  17.286  11.237   1.228
34199W        W 2672  43.484  19.234   4.658
34200W        W 2673  22.188  24.598  10.514
34201W        W 2674  15.220  37.493  11.485
34202W        W 2675  33.941  19.721  10.487
34203W        W 2676  22.520   8.397  12.043
34204W        W 2677  43.505  42.779  14.431
34205W        W 2678  30.078  25.690  11.927
34206W        W 2679   5.304  33.041   2.831
34207W        W 2680  22.592   9.847  11.509
34208W        W 2681  14.757  13.186  12.341
34209W        W 2682  19.208  11.651   3.805
34210W        W 2683   2.742  42.420   1.394
34211W        W 2684   7.845  16.150  13.369
34212W        W 2685  32.124   5.241  12.567
34213W        W 2686  23.530   9.703  12.514
34214W        W 2687  29.129  18.231  10.981
34215W        W 2688  32.488   6.385  10.005
34216W        W 2689  17.111   9.351   2.902
34217W        W 2690  30.968  17.686  12.393
34218W        W 2691  26.208  18.788   4.212
34219W        W 2692  42.920  32.079  10.614
34220W        W 2693  33.543  27.956  13.452
34221W        W 2694  29.482  21.225   0.846
34222W        W 2695  43.390  42.816   3.750
34223W        W 2696  11.704  41.902  13.056
34224W        W 2697  39.522  42.812  14.021
34225W        W 2698  35.919  32.070  13.984
34226W        W 2699  42.499  39.484   2.703
34227W        W 2700   7.816  35.041   0.803
34228W        W 2701  10.750  26.666   1.719
34229W        W 2702  30.123  37.016  14.388
34230W        W 2703  13.660   8.277   4.221
34231W        W 2704  23.523  29.482   1.923
34232W        W 2705  11.631  13.675  12.001
34233W        W 2706   7.742  31.620  12.061
34234W        W 2707  15.211  44.432   0.884
34235W        W 2708  23.134  13.232  13.054
34236W        W 2709  29.614   3.746  14.476
34237W        W 2710   6.253  41.456   2.777
34238W        W 2711  25.673   6.898  13.907
34239W        W 2712  15.181  36.865  13.856
34240W        W 2713  33.022   7.399   4.121
34241W        W 2714  25.968  34.412   4.745
34242W        W 2715  44.457  37.335   2.179
34243W        W 2716  28.131  16.811   2.832
34244W        W 2717   6.730   9.805   2.198
34245W        W 2718  28.523  44.793  11.095
34246W        W 2719  23.708  30.119   2.751
34247W        W 2720  39.339  12.344  10.935
34248W        W 2721  26.681  23.109  14.832
34249W        W 2722  43.953   7.272   1.911
34250W        W 2723  21.561  14.819   5.086
34251W        W 2724  41.485  36.917   2.895
34252W        W 2725   2.824   9.163   1.416
34253W        W 2726  20.103  25.681  11.000
34254W        W 2727  28.958  34.547   1.865
34255W        W 2728  31.037  26.568  13.399
34256W        W 2729   1.362  12.716   2.681
34257W        W 2730  38.983  22.048   3.803
34258W        W 2731  23.552  22.614  10.408
34259W        W 2732  17.574  42.328   3.335
34260W        W 2733  44.418  36.948  12.860
34261W        W 2734  13.261  21.047   3.299
34262W        W 2735  27.152  21.257  10.986
34263W        W 2736  20.580   9.816  13.453
34264W        W 2737   8.173   4.442   3.192
34265W        W 2738  35.505  10.253   3.235
34266W        W 2739   9.670   6.381   0.469
34267W        W 2740  41.011  43.513  10.580
34268W        W 2741   2.420   6.892  11.505
34269W        W 2742  25.569  40.982   4.150
34270W        W 2743  39.899  42.919   3.274
34271W        W 2744  27.006   2.423   0.464
34272W        W 2745  18.066  22.017   2.383
34273W        W 2746  28.938  44.373   1.351
34274W        W 2747  27.130   2.472  11.004
34275W        W 2748  28.672  13.110  10.468
34276W        W 2749   7.202  19.178   2.335
34277W        W 2750  15.666  12.147   3.694
34278W        W 2751  37.399  14.143  12.422
34279W        W 2752  14.226   7.828   4.760
34280W        W 2753   6.330  14.814   3.150
34281W        W 2754  33.469   9.711   3.367
34282W        W 2755  27.186  38.011  14.366
34283W        W 2756   6.692  20.121  11.983
34284W        W 2757  25.700  17.784   2.288
34285W        W 2758  34.103  19.664  14.365
34286W        W 2759   3.851  30.502   4.713
34287W        W 2760  34.056  34.950  10.518
34288W        W 2761  25.008  25.178   4.135
34289W        W 2762  33.119  19.543  10.621
34290W        W 2763  17.083   8.867  11.071
34291W        W 2764  25.533   9.699   4.614
34292W        W 2765  15.709   3.863  12.400
34293W        W 2766  14.816  17.624  14.454
34294W        W 2767   0.494   0.910  12.827
34295W        W 2768  12.310   7.765   3.733
34296W        W 2769  32.916  24.506   4.709
34297W        W 2770  36.495  41.820  10.579
34298W        W 2771  25.679  23.698  14.959
34299W        W 2772  30.417  10.692  14.824
34300W        W 2773  26.631   5.361  13.914
34301W        W 2774  39.893  22.067   4.207
34302W        W 2775  26.493  18.676  11.105
34303W        W 2776  28.495  27.684  10.919
34304W        W 2777   5.437  19.254   1.249
34305W        W 2778  15.110  14.669  10.999
34306W        W 2779   9.890  37.452  10.900
34307W        W 2780   5.332  12.652   2.336
34308W        W 2781  29.582   9.645   0.249
34309W        W 2782  20.575  14.633   0.475
34310W        W 2783  22.655  39.879  11.508
34311W        W 2784  29.665  44.794   0.301
34312W        W 2785  42.380   5.414   3.771
34313W        W 2786  26.633   5.287  12.937
34314W        W 2787  33.084  14.266   2.194
34315W        W 2788   9.710  30.446   2.749
34316W        W 2789  27.012  26.033  11.582
34317W        W 2790  16.290  33.460   4.180
34318W        W 2791  37.052  16.692  13.545
34319W        W 2792  32.601  20.217   1.706
34320W        W 2793  31.146  43.861   2.720
34321W        W 2794   1.474  44.457  11.001
34322W        W 2795  38.513  30.128  14.947
34323W        W 2796  38.481  29.112  13.524
34324W        W 2797  27.626   6.753  12.433
34325W        W 2798  30.983   0.333  14.361
34326W        W 2799  21.174  12.267  13.461
34327W        W 2800  35.977  36.372   0.371
34328W        W 2801  24.149   0.285  12.350
34329W        W 2802  27.162   2.729  12.892
34330W        W 2803  44.802  26.562  10.412
34331W        W 2804   7.873  23.211  13.834
34332W        W 2805  12.229  17.706  12.517
34333W        W 2806  18.237   0.888   2.253
34334W        W 2807  26.578  43.511  10.636
34335W        W 2808  44.327  33.982   0.382
34336W        W 2809  42.427  38.046  11.876
34337W        W 2810  41.001  25.091  11.383
34338W        W 2811  22.212  16.681   1.901
34339W        W 2812  38.428  33.087  13.933
34340W        W 2813  23.629  38.438  13.375
34341W        W 2814  22.569  27.044   3.855
34342W        W 2815   1.311  18.164  12.505
34343W        W 2816  38.034  34.018  11.440
34344W        W 2817  20.167   4.762   1.401
34345W        W 2818  44.989   3.352  12.889
34346W        W 2819   8.790   8.271   0.750
34347W        W 2820  31.622  18.113  12.050
34348W        W 2821   0.440  33.885  14.446
34349W        W 2822  37.007  39.481  14.356
34350W        W 2823  28.596  32.499  13.311
34351W        W 2824  11.662  11.863  14.413
34352W        W 2825  28.544   4.760   1.407
34353W        W 2826  39.910  16.796  10.547
34354W        W 2827  26.477  33.527  10.427
34355W        W 2828  15.696  10.277   0.265
34356W        W 2829   5.855  28.530  14.291
34357W        W 2830  32.414  25.667  11.873
34358W        W 2831  39.929  36.593   0.842
34359W        W 2832  35.510  19.750  12.879
34360W        W 2833  27.108  42.797   0.829
34361W        W 2834  39.831  13.316  10.566
34362W        W 2835  32.543   3.873   1.829
34363W        W 2836  14.637  22.655  10.545
34364W        W 2837  21.144  15.310   5.171
34365W        W 2838  16.763  30.602  13.829
34366W        W 2839  26.594  39.053  14.974
34367W        W 2840  42.027  20.083   2.208
34368W        W 2841  23.652  31.512   3.349
34369W        W 2842  14.309  38.491  14.304
34370W        W 2843  31.035   5.405   0.291
34371W        W 2844  12.326  12.631  14.929
34372W        W 2845  21.541  14.208   0.786
34373W        W 2846   4.222   0.390   1.438
34374W        W 2847   8.872  43.945  14.784
34375W        W 2848  38.915  35.444   0.785
34376W        W 2849  44.979  31.032   4.642
34377W        W 2850  19.542  36.869   4.701
34378W        W 2851  39.926  29.132  12.952
34379W        W 2852  44.903  34.002   2.298
34380W        W 2853  32.139   3.263  14.284
34381W        W 2854  27.119  26.612  14.353
34382W        W 2855  10.374  21.228   4.694
34383W        W 2856  36.445   6.313  10.080
34384W        W 2857   4.737  39.360   1.290
34385W        W 2858  36.888  11.666   2.389
34386W        W 2859  16.242  17.757  13.861
34387W        W 2860  22.149  27.124  12.092
34388W        W 2861   1.339   3.757  14.300
34389W        W 2862  42.320  25.648  12.849
34390W        W 2863  10.688  26.660  13.033
34391W        W 2864  43.270  31.553  10.962
34392W        W 2865  20.681  33.478   1.698
34393W        W 2866  16.162  17.101   0.476
34394W        W 2867  25.475   6.376  10.941
34395W        W 2868  10.159   0.867  11.080
34396W        W 2869  11.272  18.098  10.632
34397W        W 2870  13.259   5.410  12.081
34398W        W 2871  28.012  27.671  10.920
34399W        W 2872  36.048  33.592  13.804
34400W        W 2873  20.128   6.261   2.410
34401W        W 2874   2.399  20.709  13.865
34402W        W 2875  35.996  31.625  13.872
34403W        W 2876  23.648   5.789   3.687
34404W        W 2877   0.267  16.293   4.770
34405W        W 2878  26.039   7.685  12.090
34406W        W 2879   7.286  26.016   0.242
34407W        W 2880  18.745   8.258  12.897
34408W        W 2881  33.438  11.839  14.359
34409W        W 2882  12.831  28.176   4.751
34410W        W 2883  10.377  33.595  12.944
34411W        W 2884   2.347  25.000   0.876
34412W        W 2885  14.270  11.373   3.677
34413W        W 2886   1.783  36.860  12.443
34414W        W 2887  21.083  11.313  12.474
34415W        W 2888  14.241  38.402   4.832
34416W        W 2889  33.994  29.111  13.917
34417W        W 2890  26.152  43.433   1.797
34418W        W 2891  21.152   2.854  14.851
34419W        W 2892  26.011  25.150  11.424
34420W        W 2893   7.881  28.492  13.422
34421W        W 2894  27.546  15.773   0.903
34422W        W 2895  39.316  44.871  11.556
34423W        W 2896  29.483  26.193  12.395
34424W        W 2897  10.273  42.330  14.305
34425W        W 2898  31.974  26.094  13.028
34426W        W 2899  16.265  18.711   3.666
34427W        W 2900  15.607  27.629   4.154
34428W        W 2901   2.722  34.479  11.899
34429W        W 2902   4.442  30.996   3.326
34430W        W 2903  27.563   0.772   4.246
34431W        W 2904  43.834  38.958   1.783
34432W        W 2905  39.429  38.539   1.224
34433W        W 2906  23.050  15.619   3.203
34434W        W 2907  35.994  10.368  12.923
34435W        W 2908  16.161  16.733  10.601
34436W        W 2909  27.113  16.175  10.483
34437W        W 2910  12.685  24.184   4.752
34438W        W 2911  34.549  20.168  14.298
34439W        W 2912  28.665   1.249   3.768
34440W        W 2913  25.536  31.038  11.606
34441W        W 2914  31.525  24.552   3.191
34442W        W 2915  22.649   8.201  10.894
34443W        W 2916  15.583  32.930  11.524
34444W        W 2917   5.366   1.414   1.736
34445W        W 2918  17.755  12.158  13.895
34446W        W 2919  20.540  20.767  12.442
34447W        W 2920  25.074   0.268  14.846
34448W        W 2921  21.663  14.596  13.025
34449W        W 2922  13.243  15.085   4.235
34450W        W 2923  42.963  38.516  13.377
34451W        W 2924   3.815   0.449  10.619
34452W        W 2925  27.553  15.247   4.251
34453W        W 2926  22.726  12.242  12.085
34454W        W 2927  27.621  26.544  14.892
34455W        W 2928  11.330  43.365   0.253
34456W        W 2929  17.292  19.628   3.280
34457W        W 2930  19.047  23.113  14.955
34458W        W 2931  24.122  18.233  11.989
34459W        W 2932  31.605   2.286   1.808
34460W        W 2933  12.317  10.371   2.375
34461W        W 2934   3.751  37.509   2.836
34462W        W 2935  20.032  24.697   4.703
34463W        W 2936  11.660  26.577  10.077
34464W        W 2937  25.986   9.727  13.017
34465W        W 2938   3.803  15.649   1.325
34466W        W 2939  16.812  39.368  11.510
34467W        W 2940   0.451  36.965  13.872
34468W        W 2941  32.539  43.932   1.399
34469W        W 2942   6.188  12.625  11.913
34470W        W 2943  37.061  44.970   4.198
34471W        W 2944  21.709  16.592   4.240
34472W        W 2945  12.714  13.797  11.073
34473W        W 2946  40.002  26.525  14.327
34474W        W 2947  12.749  41.468  11.456
34475W        W 2948  15.713   9.200  10.935
34476W        W 2949   1.924  23.611   2.187
34477W        W 2950   0.987  42.918  11.487
34478W        W 2951  28.564  12.177   0.922
34479W        W 2952  35.944  12.191  14.907
34480W        W 2953  17.072  30.976  14.003
34481W        W 2954  24.977  39.852  14.941
34482W        W 2955  43.287  41.015  13.547
34483W        W 2956  15.243  38.960   0.439
34484W        W 2957  24.644  25.561  12.452
34485W        W 2958  14.743   5.860  14.998
34486W        W 2959  20.602  40.460   0.423
34487W        W 2960  34.607   4.367   1.718
34488W        W 2961  35.995  38.841   2.370
34489W        W 2962   7.886  22.039   0.390
34490W        W 2963  13.146  13.633  12.371
34491W        W 2964  44.817  34.929  14.438
34492W        W 2965  29.009   6.757   2.362
34493W        W 2966  22.112  24.109  10.620
34494W        W 2967  35.364   7.834   4.201
34495W        W 2968  23.659  19.766  10.457
34496W        W 2969  16.703   2.904  12.076
34497W        W 2970   6.821  14.605   3.680
34498W        W 2971  33.394  11.296  12.408
34499W        W 2972   9.702   6.292   3.362
34500W        W 2973  41.875  42.510   3.305
34501W        W 2974  25.965   7.728   0.303
34502W        W 2975  26.670   1.794  11.073
34503W        W 2976  17.236  33.958  10.960
34504W        W 2977   8.401  19.179   1.370
34505W        W 2978  11.690  39.059   1.928
34506W        W 2979  17.297   5.821   3.724
34507W        W 2980  20.135   2.837   2.771
34508W        W 2981  41.813   3.451  14.878
34509W        W 2982  25.505   6.782   1.235
34510W        W 2983  28.075   0.457  11.115
34511W        W 2984  38.053   6.279  10.117
34512W        W 2985  43.873  15.619   1.290
34513W        W 2986  35.937  23.175  11.467
34514W        W 2987  40.431  28.962  14.496
34515W        W 2988  41.319   7.324   0.748
34516W        W 2989  28.952  31.142  10.410
34517W        W 2990   4.735   9.291  12.864
34518W        W 2991   8.295  15.120  11.869
34519W        W 2992  11.831  40.434  14.892
34520W        W 2993  36.986  18.188   3.645
34521W        W 2994   0.788  31.629  12.088
34522W        W 2995   7.216  23.528  14.292
34523W        W 2996  42.480  26.961   3.205
34524W        W 2997  34.046  35.367  14.000
34525W        W 2998  13.118   1.763   4.165
34526W        W 2999  21.204   2.910  10.410
34527W        W 3000  20.745  16.274  10.413
34528W        W 3001  38.070  25.541  12.994
34529W        W 3002   2.368  11.712   3.310
34530W        W 3003   8.315  36.020   2.785
34531W        W 3004  31.540  24.215   3.381
34532W        W 3005  33.519   7.878   0.921
34533W        W 3006  39.368  16.725  10.563
34534W        W 3007   2.779  35.909  10.955
34535W        W 3008   0.799   4.353   0.879
34536W        W 3009  35.079  22.510   0.300
34537W        W 3010  11.297  14.337  13.523
34538W        W 3011  31.406  22.510   3.232
34539W        W 3012  14.279  20.046   2.369
34540W        W 3013   4.357   3.898  13.972
34541W        W 3014  27.631   6.819  12.002
34542W        W 3015  14.693   2.798   4.150
34543W        W 3016   5.750   6.228   2.827
34544W        W 3017  34.423  21.589   0.405
34545W        W 3018  28.486  15.763   1.412
34546W        W 3019  23.591  32.560   1.211
34547W        W 3020  21.662  11.161  11.514
34548W        W 3021  16.244  35.077  13.319
34549W        W 3022  23.506  36.500  14.882
34550W        W 3023  16.644   5.301   0.286
34551W        W 3024   0.894  39.403   1.320
34552W        W 3025  13.339   6.259   5.282
34553W        W 3026  37.049  30.049  10.967
34554W        W 3027  42.968   6.369   1.797
34555W        W 3028   0.968   2.809  10.546
34556W        W 3029  27.530  16.651   2.235
34557W        W 3030   9.357  35.444  12.978
34558W        W 3031  42.018  33.405  14.856
34559W        W 3032  29.620  39.840  11.406
34560W        W 3033  28.979  34.099  14.453
34561W        W 3034   7.354   6.746   4.308
34562W        W 3035  20.585  35.573  14.463
34563W        W 3036  30.973  10.156   3.325
34564W        W 3037   7.792  35.471  13.968
34565W        W 3038  35.472  40.403  13.466
34566W        W 3039  20.069   1.389   1.253
34567W        W 3040  42.334  32.441  11.095
34568W        W 3041  37.947  29.025   2.255
34569W        W 3042  15.252  11.177  10.565
34570W        W 3043  33.580  40.882  14.395
34571W        W 3044  13.769  29.162   3.198
34572W        W 3045  39.058   3.735  13.316
34573W        W 3046  39.975  15.295   1.884
34574W        W 3047  43.938  14.166  11.529
34575W        W 3048  28.005  44.879  13.538
34576W        W 3049  32.595  23.224  14.808
34577W        W 3050  15.090  28.051   0.888
34578W        W 3051  43.297  26.500   2.358
34579W        W 3052   8.764   8.237  14.419
34580W        W 3053   3.865  24.485   3.816
34581W        W 3054  10.762   3.884   1.719
34582W        W 3055  42.352  14.757   1.893
34583W        W 3056  32.572   3.229   1.736
34584W        W 3057   2.739  22.732  13.821
34585W        W 3058  18.062  24.093  13.848
34586W        W 3059   7.912  41.439  14.501
34587W        W 3060  33.007  28.624   3.792
34588W        W 3061   0.379   0.332  10.495
34589W        W 3062  35.458  11.859  11.952
34590W        W 3063  36.389  20.640   2.292
34591W        W 3064  16.148  12.717  10.519
34592W        W 3065   6.727   9.833  12.842
34593W        W 3066   2.407   5.688  14.385
34594W        W 3067  19.086   7.234  11.394
34595W        W 3068  12.732  29.030  13.460
34596W        W 3069  21.573   7.751   3.310
34597W        W 3070  20.253   9.315  13.516
34598W        W 3071  36.477  11.801  13.059
34599W        W 3072   1.744   0.849   0.283
34600W        W 3073   6.266  17.739   1.310
34601W        W 3074  25.040  41.450  10.630
34602W        W 3075  26.681  32.963  13.830
34603W        W 3076  30.501  19.134   1.790
34604W        W 3077  18.674  40.025  13.962
34605W        W 3078  28.184  22.565   3.732
34606W        W 3079  13.818  14.250  13.336
34607W        W 3080  25.659  37.942  11.577
34608W        W 3081  10.181  40.329  12.878
34609W        W 3082  42.465  38.466   1.354
34610W        W 3083  34.935  35.384  13.905
34611W        W 3084   1.265  31.046  11.590
34612W        W 3085   0.767   9.311  13.954
34613W        W 3086  37.431   0.481  10.437
34614W        W 3087   4.354  27.637  14.021
34615W        W 3088  42.469  35.483   1.814
34616W        W 3089  33.119  38.975   4.762
34617W        W 3090  28.570  30.914   4.637
34618W        W 3091  39.367   4.806   4.685
34619W        W 3092   4.312  16.661   4.705
34620W        W 3093  22.688  18.295  12.416
34621W        W 3094  44.938  18.071  10.919
34622W        W 3095  15.315  13.733   1.305
34623W        W 3096   3.276  25.019  11.392
34624W        W 3097   1.290   6.236   0.834
34625W        W 3098  13.782  41.435   3.213
34626W        W 3099  21.254  24.690  10.994
34627W        W 3100  38.337  32.486   0.300
34628W        W 3101   9.251   4.366   3.153
34629W        W 3102  44.989  24.671  12.845
34630W        W 3103  23.708  31.476   4.677
34631W        W 3104  41.872  26.140   2.764
34632W        W 3105  32.392  43.500   4.161
34633W        W 3106  14.711  19.267   4.280
34634W        W 3107  17.179  14.768  11.593
34635W        W 3108   3.228  16.297  10.485
34636W        W 3109   8.195   5.427   1.697
34637W        W 3110  36.896  39.882  12.002
34638W        W 3111  43.890  42.355   4.164
34639W        W 3112  42.310   6.695  10.423
34640W        W 3113  10.241   8.802  13.326
34641W        W 3114  34.447  27.483   2.849
34642W        W 3115  18.740  37.053  12.568
34643W        W 3116  39.921  36.593  12.563
34644W        W 3117  44.764  27.100   2.770
34645W        W 3118  27.015  15.737   3.863
34646W        W 3119  24.005   8.679   3.666
34647W        W 3120  42.523  28.979  14.399
34648W        W 3121  41.847  22.199   4.252
34649W        W 3122  21.047  29.562   4.711
34650W        W 3123  22.734  24.166  11.512
34651W        W 3124  12.780   0.338   4.294
34652W        W 3125  23.670  44.392   3.776
34653W        W 3126  44.978  28.479   4.249
34654W        W 3127  40.939  19.243  13.822
34655W        W 3128  17.569   9.303   0.303
34656W        W 3129  40.047  37.378   3.675
34657W        W 3130  13.731  37.489  11.120
34658W        W 3131  43.486  20.683  11.010
34659W        W 3132   0.840   9.728  12.953
34660W        W 3133  17.690  15.577   3.357
34661W        W 3134  35.045  15.231  13.454
34662W        W 3135  27.618  11.199   4.676
34663W        W 3136  37.877  43.271  10.643
34664W        W 3137  13.324  27.126   0.948
34665W        W 3138  20.086   8.819  14.416
34666W        W 3139  14.296  32.619   3.196
34667W        W 3140  43.300  39.525  11.994
34668W        W 3141  44.416  39.876  13.511
34669W        W 3142  35.484  15.156   1.814
34670W        W 3143   4.812   4.427  11.595
34671W        W 3144  36.448  27.171  13.479
34672W        W 3145  31.601  12.773   1.757
34673W        W 3146  28.187  28.551  10.128
34674W        W 3147  31.063  38.506  11.481
34675W        W 3148  28.946  22.687  10.905
34676W        W 3149  23.577  19.656   0.866
34677W        W 3150   7.785  22.531  11.564
34678W        W 3151   1.391  33.957  10.411
34679W        W 3152  21.190  20.748  14.472
34680W        W 3153   9.690  11.239  13.946
34681W        W 3154  22.175  44.325  14.912
34682W        W 3155  13.623  24.998   2.711
34683W        W 3156  20.161  12.315   3.235
34684W        W 3157  26.593  10.258   3.789
34685W        W 3158  25.979  42.924  13.483
34686W        W 3159   3.915  19.092   2.296
34687W        W 3160  18.578  11.707   1.742
34688W        W 3161  38.911  44.430  12.405
34689W        W 3162  13.132  11.744  11.066
34690W        W 3163  31.097  42.433  11.488
34691W        W 3164  13.835  27.087  11.422
34692W        W 3165   8.386  22.153   4.294
34693W        W 3166  11.803   3.456   2.902
34694W        W 3167  21.705  17.704   4.187
34695W        W 3168  44.934  36.362  12.567
34696W        W 3169   2.839  30.640   2.418
34697W        W 3170  33.398  13.109   3.258
34698W        W 3171   8.366  15.767   2.808
34699W        W 3172  39.475  11.862  12.857
34700W        W 3173   2.890   6.268  13.470
34701W        W 3174  36.515  14.325   0.397
34702W        W 3175  19.088  43.988  11.049
34703W        W 3176  26.004   3.872  13.335
34704W        W 3177  25.030  30.917  14.900
34705W        W 3178   6.690  23.499   0.850
34706W        W 3179  44.281  23.042   0.423
34707W        W 3180  42.015  34.532  13.414
34708W        W 3181  19.573  25.974  11.404
34709W        W 3182   7.374  33.122   0.243
34710W        W 3183  23.208  14.726   5.211
34711W        W 3184  26.615  13.723  10.518
34712W        W 3185  27.181   6.338  13.408
34713W        W 3186  12.808  29.626   4.719
34714W        W 3187  30.619  17.652   0.785
34715W        W 3188  42.852  34.557   1.288
34716W        W 3189  43.497  38.354   0.821
34717W        W 3190  32.425   8.782   2.372
34718W        W 3191  22.519   0.450  11.110
34719W        W 3192  17.654  11.181   2.700
34720W        W 3193  13.794   0.774   4.692
34721W        W 3194  34.574  41.038   2.201
34722W        W 3195  12.789  14.806  11.918
34723W        W 3196  21.566  31.107   2.775
34724W        W 3197   2.903  26.529  14.468
34725W        W 3198   1.345  10.247  11.544
34726W        W 3199  40.445  27.957   1.893
34727W        W 3200  41.522  14.306  11.917
34728W        W 3201  20.234  19.051   0.470
34729W        W 3202  42.805  37.386   0.325
34730W        W 3203  22.236  42.019   3.236
34731W        W 3204   0.925  39.913  13.423
34732W        W 3205  32.528   5.837   0.805
34733W        W 3206  33.919  24.573  11.514
34734W        W 3207   2.807  36.492  12.558
34735W        W 3208  15.577  28.536   2.887
34736W        W 3209  14.179   7.295   4.612
34737W        W 3210  26.103  23.154   1.214
34738W        W 3211  26.534  12.725  14.516
34739W        W 3212  13.608  32.527  10.602
34740W        W 3213  31.009  27.455  10.504
34741W        W 3214  26.971  21.661   3.265
34742W        W 3215  22.127   6.917  12.496
34743W        W 3216  42.364  16.629  13.357
34744W        W 3217  36.564  12.264  11.380
34745W        W 3218  36.384  28.600  12.002
34746W        W 3219  33.056   0.352  13.840
34747W        W 3220   6.197  21.090   3.640
34748W        W 3221  35.544  41.324  12.914
34749W        W 3222  21.530  28.995  11.570
34750W        W 3223   4.856  40.474   2.710
34751W        W 3224  27.169  25.499   0.775
34752W        W 3225  16.261  12.829   2.831
34753W        W 3226  41.984  15.589  13.531
34754W        W 3227   2.384  24.130   1.418
34755W        W 3228  19.171  14.340  13.322
34756W        W 3229  16.148  38.971  11.066
34757W        W 3230  13.127  27.626   3.763
34758W        W 3231  42.436  30.159  14.398
34759W        W 3232  17.771  33.986   1.226
34760W        W 3233   6.829  25.523  13.965
34761W        W 3234   5.387   9.288   2.360
34762W        W 3235   9.681  26.035   2.773
34763W        W 3236  12.798  42.879   0.878
34764W        W 3237   1.977  33.450   2.677
34765W        W 3238  23.708   5.345  10.528
34766W        W 3239   9.391  29.580   2.249
34767W        W 3240  44.895  18.174   1.285
34768W        W 3241   9.809  38.894   4.606
34769W        W 3242  11.634   1.404   4.212
34770W        W 3243  25.485   4.289   1.703
34771W        W 3244  20.690  32.559  10.626
34772W        W 3245  35.574  16.168   0.447
34773W        W 3246  44.336   4.710   1.449
34774W        W 3247  34.571  14.832   4.651
34775W        W 3248  24.533  12.851   4.342
34776W        W 3249  25.614  20.075  12.537
34777W        W 3250  33.084  37.887  12.044
34778W        W 3251  16.128  43.962   2.678
34779W        W 3252  14.631  21.707  13.375
34780W        W 3253  36.014   0.905  14.364
34781W        W 3254   6.334  31.916  13.978
34782W        W 3255  40.879   3.809   3.369
34783W        W 3256  33.474   6.251  11.422
34784W        W 3257  40.867  28.552   2.729
34785W        W 3258  26.608  43.929  13.865
34786W        W 3259  23.020   6.862   4.222
34787W        W 3260   8.660  37.955  14.501
34788W        W 3261   9.189  29.026  14.008
34789W        W 3262   9.858   2.436  11.433
34790W        W 3263  39.376  15.292   0.931
34791W        W 3264   0.906  10.770  10.530
34792W        W 3265  43.408  12.838   1.821
34793W        W 3266  21.029  34.598  11.968
34794W        W 3267  40.429   9.218  13.931
34795W        W 3268  35.971  18.189  12.970
34796W        W 3269   2.261  33.907  11.449
34797W        W 3270  29.928  15.296  12.372
34798W        W 3271   8.283  21.684   2.291
34799W        W 3272  36.370  42.501  14.905
34800W        W 3273  40.893  38.340  11.078
34801W        W 3274   7.270  29.072   0.899
34802W        W 3275  24.700  36.927  12.070
34803W        W 3276  43.275  37.469  11.082
34804W        W 3277  26.141  32.531  14.344
34805W        W 3278  28.930  17.721   1.736
34806W        W 3279  32.519  43.941  13.494
34807W        W 3280  19.191   8.828  11.495
34808W        W 3281  23.492  17.661  14.022
34809W        W 3282   5.909   9.704   1.785
34810W        W 3283  19.091  35.365   3.260
34811W        W 3284  40.050  15.762  11.378
34812W        W 3285  17.691  35.373  10.502
34813W        W 3286  33.051  42.458  12.489
34814W        W 3287   3.379  26.600  12.486
34815W        W 3288   4.800  31.912  12.953
34816W        W 3289  14.822  27.194  12.053
34817W        W 3290  23.639   2.841   0.448
34818W        W 3291  43.285   0.385  14.807
34819W        W 3292  22.184  12.801   5.601
34820W        W 3293  38.984  10.689   4.131
34821W        W 3294  36.347  29.948   0.381
34822W        W 3295  24.710   1.752  14.410
34823W        W 3296  10.709  25.004   1.846
34824W        W 3297   7.330  10.259  14.376
34825W        W 3298   5.242   2.406   0.454
34826W        W 3299  17.287  27.010  13.868
34827W        W 3300  27.637  30.522   2.772
34828W        W 3301   9.719  40.354   2.346
34829W        W 3302   5.261  24.705   1.250
34830W        W 3303   8.791  31.075   0.728
34831W        W 3304   7.683  29.920   1.916
34832W        W 3305  28.081  35.463  13.350
34833W        W 3306  17.793   9.210  12.468
34834W        W 3307  30.015  24.646   5.102
34835W        W 3308  20.674  17.657   0.386
34836W        W 3309  33.543  41.815  14.906
34837W        W 3310  42.284   0.416  12.909
34838W        W 3311  16.586  14.291   1.229
34839W        W 3312  13.657  10.846  13.012
34840W        W 3313  25.184  22.249  12.942
34841W        W 3314  36.530  33.128   4.171
34842W        W 3315   4.803  22.605   4.717
34843W        W 3316   3.763  24.092   2.738
34844W        W 3317  24.061   6.806   2.299
34845W        W 3318   7.290  13.307  11.597
34846W        W 3319  20.755  39.999  11.465
34847W        W 3320   6.369  34.877   3.661
34848W        W 3321  16.667  38.017   9.595
34849W        W 3322  14.689  41.811  14.431
34850W        W 3323  14.330  32.105  11.992
34851W        W 3324  28.536   4.294   0.323
34852W        W 3325  40.828  16.753   1.342
34853W        W 3326  22.164   9.864   0.952
34854W        W 3327   9.846  30.026   4.666
34855W        W 3328  40.432  26.633   1.921
34856W        W 3329  42.808  40.897  11.553
34857W        W 3330  18.652  13.713   3.846
34858W        W 3331  39.884  21.058  10.603
34859W        W 3332  38.545  33.921   0.919
34860W        W 3333  34.109  44.411   4.352
34861W        W 3334  32.052  12.266  12.449
34862W        W 3335   4.431  19.693   0.368
34863W        W 3336  13.746   2.282   4.642
34864W        W 3337  21.250  44.923  13.331
34865W        W 3338  34.080   9.317   2.253
34866W        W 3339  16.686   6.236   2.704
34867W        W 3340  22.224   2.350  13.433
34868W        W 3341  33.469  16.667   9.949
34869W        W 3342  41.005  44.854   0.251
34870W        W 3343  30.442  25.010   2.691
34871W        W 3344  21.665  44.864   1.780
34872W        W 3345   2.900  41.832  14.486
34873W        W 3346   9.795   1.346   1.339
34874W        W 3347   3.287  20.053   3.695
34875W        W 3348  28.078  34.608  13.435
34876W        W 3349  40.530  14.795  11.867
34877W        W 3350  26.955  17.573  10.581
34878W        W 3351  26.169  12.139   1.870
34879W        W 3352  20.577  30.080  14.795
34880W        W 3353  29.471  16.783   4.664
34881W        W 3354  44.887  30.027   3.240
34882W        W 3355  11.351   5.247  10.417
34883W        W 3356  16.711  29.070   3.820
34884W        W 3357  26.082  40.975  13.457
34885W        W 3358  10.372   0.302   2.299
34886W        W 3359   5.877  20.591  11.125
34887W        W 3360  23.121   1.827   1.921
34888W        W 3361  33.461   7.244   2.354
34889W        W 3362   0.483  10.277  13.419
34890W        W 3363  12.851  13.843  14.783
34891W        W 3364  33.525  37.868   0.818
34892W        W 3365   9.865   5.917   2.294
34893W        W 3366  23.039  13.734   0.277
34894W        W 3367  10.175  22.166  11.990
34895W        W 3368  11.146  41.027  14.278
34896W        W 3369  26.598  39.012   5.239
34897W        W 3370  32.560   2.942  14.926
34898W        W 3371  36.864  31.142   3.146
34899W        W 3372  22.636   1.258  14.874
34900W        W 3373  20.228  41.869  12.519
34901W        W 3374  40.985  23.047   3.816
34902W        W 3375  28.028   2.402   2.222
34903W        W 3376  23.041   4.293  12.062
34904W        W 3377  11.848  28.446  10.615
34905W        W 3378  16.576  18.778   3.232
34906W        W 3379  39.877   3.414   2.762
34907W        W 3380  34.960  41.857  14.483
34908W        W 3381  22.082  29.587  12.840
34909W        W 3382  36.089  26.526   4.256
34910W        W 3383  27.998  43.402   4.748
34911W        W 3384  39.559  31.060   1.745
34912W        W 3385  38.994   7.774  11.473
34913W        W 3386  35.382  15.141   0.852
34914W        W 3387  41.339   9.808  10.421
34915W        W 3388  36.558   0.963  12.436
34916W        W 3389  24.975  11.693  13.984
34917W        W 3390  34.592   7.404  11.481
34918W        W 3391  20.212   9.872  12.961
34919W        W 3392  26.131  12.263   2.313
34920W        W 3393  25.024  39.977   3.366
34921W        W 3394  32.903  40.040  10.929
34922W        W 3395   2.443  41.393  10.599
34923W        W 3396  39.853  37.548  12.397
34924W        W 3397  11.271  14.660  14.007
34925W        W 3398  32.976  25.586   2.286
34926W        W 3399  38.992  32.126  12.345
34927W        W 3400  35.049  32.559   4.635
34928W        W 3401  40.896  42.962   3.631
34929W        W 3402  28.091  34.578  12.851
34930W        W 3403   7.770  19.078  13.955
34931W        W 3404  31.910  25.636   5.084
34932W        W 3405   4.762   4.389   1.323
34933W        W 3406  26.183  28.571  13.341
34934W        W 3407  40.817   5.721   1.308
34935W        W 3408  33.534  11.355   4.341
34936W        W 3409  26.700  36.464   2.366
34937W        W 3410  44.792  25.126  13.326
34938W        W 3411   2.444  30.461  14.936
34939W        W 3412  14.207   9.809   3.195
34940W        W 3413  22.657  40.888  12.877
34941W        W 3414   3.290  30.441   3.252
34942W        W 3415  31.615   4.354   1.383
34943W        W 3416  34.937   8.775  14.437
34944W        W 3417  34.961  42.363   3.645
34945W        W 3418  16.651  40.330  14.769
34946W        W 3419   6.712  16.248   0.482
34947W        W 3420  33.487  44.889   4.772
34948W        W 3421  32.113  22.732  14.026
34949W        W 3422  29.489  17.108  10.432
34950W        W 3423  11.697  40.849  14.853
34951W        W 3424  38.427  33.432   0.456
34952W        W 3425  22.737  28.096   0.367
34953W        W 3426   0.274   0.280   3.636
34954W        W 3427  26.456  25.705  10.933
34955W        W 3428  36.011   6.292  13.470
34956W        W 3429  28.944  15.089  13.009
34957W        W 3430  31.003  26.017   0.391
34958W        W 3431  18.088  36.411   4.692
34959W        W 3432   3.898  23.159  10.618
34960W        W 3433  10.281  32.586   4.260
34961W        W 3434  24.648  20.088   3.382
34962W        W 3435   3.286  26.042  12.391
34963W        W 3436  37.915  25.056  14.973
34964W        W 3437  38.061  43.475   2.835
34965W        W 3438  43.792  39.356   2.304
34966W        W 3439  12.258  19.724   4.219
34967W        W 3440  27.647  27.158  12.570
34968W        W 3441  20.211  31.026   1.312
34969W        W 3442  42.424  39.997   1.386
34970W        W 3443   6.899   6.323   0.469
34971W        W 3444   8.812  26.480  10.925
34972W        W 3445  16.750  18.653   2.339
34973W        W 3446  29.625   2.320   2.184
34974W        W 3447   3.923  33.397  11.977
34975W        W 3448  29.588  24.171  13.869
34976W        W 3449  31.525   3.421   2.183
34977W        W 3450  19.169  37.986   3.846
34978W        W 3451  16.223  26.700  10.562
34979W        W 3452  35.910  17.748   1.825
34980W        W 3453  20.603  27.517   4.604
34981W        W 3454  36.556   8.707  12.549
34982W        W 3455  38.509  34.585  11.550
34983W        W 3456  20.597  21.727  14.475
34984W        W 3457  16.176  36.430   2.219
34985W        W 3458  10.303  37.340  11.983
34986W        W 3459  12.696  18.197   3.153
34987W        W 3460   9.393  34.874  13.937
34988W        W 3461  26.010  30.455   1.446
34989W        W 3462  25.061  38.555  14.461
34990W        W 3463  44.821  36.411  13.492
34991W        W 3464  40.518  31.566   1.336
34992W        W 3465  15.263   0.784   4.114
34993W        W 3466  26.152   7.379  14.277
34994W        W 3467  17.697  31.620  13.542
34995W        W 3468  39.853   9.655  10.566
34996W        W 3469   1.767   2.306   3.768
34997W        W 3470  36.550  21.621   0.776
34998W        W 3471  29.987  29.512  12.372
34999W        W 3472  38.504  27.524  13.807
35000W        W 3473   8.205   6.685  13.986
35001W        W 3474  27.066  19.758  14.834
35002W        W 3475  25.652  44.321   3.820
35003W        W 3476   8.241  43.018   0.843
35004W        W 3477  17.082   8.315  10.550
35005W        W 3478  18.700  38.414   3.273
35006W        W 3479  18.765   4.293   0.373
35007W        W 3480  23.705  27.000   0.444
35008W        W 3481  40.898  30.551   1.828
35009W        W 3482   8.361  20.259  11.096
35010W        W 3483  12.828  37.335  13.354
35011W        W 3484  10.195  42.828   3.347
35012W        W 3485  32.098  14.752  13.833
35013W        W 3486  32.544  18.199  14.392
35014W        W 3487   9.736  42.932   0.902
35015W        W 3488   6.911  37.400   3.767
35016W        W 3489  36.541  29.453  13.397
35017W        W 3490  23.555   0.760   3.861
35018W        W 3491   1.269  41.511   2.713
35019W        W 3492  27.454  22.688  11.989
35020W        W 3493   6.761   0.972  11.906
35021W        W 3494  29.991  21.081   2.798
35022W        W 3495  17.085  39.366   4.622
35023W        W 3496  27.474  37.563  12.989
35024W        W 3497   3.256  34.026   4.186
35025W        W 3498  11.258  17.211  14.478
35026W        W 3499  36.501   7.246   0.870
35027W        W 3500   8.304  37.545  14.500
35028W        W 3501  15.100  24.128   2.257
35029W        W 3502  19.743   5.810  13.323
35030W        W 3503  10.791  44.326  10.027
35031W        W 3504   7.798   9.825  13.346
35032W        W 3505  37.969  19.214   2.357
35033W        W 3506   2.234  36.533   1.262
35034W        W 3507  34.070  26.101  14.961
35035W        W 3508  11.801  41.842   3.829
35036W        W 3509  44.871   2.462  12.396
35037W        W 3510   3.373  38.339   0.744
35038W        W 3511  38.429  12.675   0.906
35039W        W 3512  36.853  34.011  10.988
35040W        W 3513  15.588  33.063  12.890
35041W        W 3514   8.202   4.238   2.857
35042W        W 3515  12.834  28.664   3.286
35043W        W 3516   1.482  14.213  11.444
35044W        W 3517  36.085  12.323   2.664
35045W        W 3518  34.120  42.302  10.141
35046W        W 3519  24.701  23.532   1.396
35047W        W 3520  33.080   8.736   4.712
35048W        W 3521   5.719   6.855  11.399
35049W        W 3522  42.813   8.894  12.447
35050W        W 3523  18.572  27.112  10.432
35051W        W 3524  41.385  17.562   3.743
35052W        W 3525  17.731  41.293  11.377
35053W        W 3526  13.231  14.154  12.390
35054W        W 3527   6.723  20.044  10.981
35055W        W 3528  31.101  22.605  11.435
35056W        W 3529   0.410  11.137   1.233
35057W        W 3530  10.169  23.496   4.756
35058W        W 3531   3.283  16.104   3.662
35059W        W 3532  36.078  20.153   2.215
35060W        W 3533  17.591  38.857  10.552
35061W        W 3534  31.457  21.209  13.502
35062W        W 3535  17.287  21.162  12.917
35063W        W 3536  18.061  17.110  10.990
35064W        W 3537  25.045   4.297   0.402
35065W        W 3538  29.532  21.229   1.814
35066W        W 3539  17.070  19.553  13.038
35067W        W 3540  20.197  24.002  14.831
35068W        W 3541  40.877  14.252  12.073
35069W        W 3542  20.685  44.405   4.729
35070W        W 3543   8.163   5.422   2.357
35071W        W 3544  34.990  19.081  13.360
35072W        W 3545  27.502  18.082   4.610
35073W        W 3546  20.607   0.437  13.331
35074W        W 3547  21.757   6.405  12.964
35075W        W 3548  15.145  24.696  12.513
35076W        W 3549  29.074   4.752  14.966
35077W        W 3550  38.977  19.121   1.771
35078W        W 3551   5.256  18.186   4.335
35079W        W 3552  44.309  23.018   2.305
35080W        W 3553  44.803  26.055   1.881
35081W        W 3554   8.730  27.113  10.587
35082W        W 3555  42.323   2.937   4.659
35083W        W 3556   5.201  39.337   2.326
35084W        W 3557  15.750  36.480   2.759
35085W        W 3558  11.767  18.598   3.269
35086W        W 3559  14.641   2.896  10.619
35087W        W 3560  11.759  11.207  13.466
35088W        W 3561  10.246  34.591  13.001
35089W        W 3562   2.854  15.237  13.912
35090W        W 3563  12.252   8.350   4.721
35091W        W 3564  38.467   3.394  14.768
35092W        W 3565   8.846  18.218  14.484
35093W        W 3566  36.890  26.168   1.318
35094W        W 3567  38.377  32.905   3.773
35095W        W 3568   1.333  31.113  11.052
35096W        W 3569  14.590  10.664  14.309
35097W        W 3570  10.723  41.430   2.373
35098W        W 3571  22.675  17.194   1.322
35099W        W 3572   9.323  12.706  12.455
35100W        W 3573  20.063  15.633   3.817
35101W        W 3574  39.359   8.306   2.278
35102W        W 3575  25.494  38.012  13.370
35103W        W 3576  10.159   4.841  13.424
35104W        W 3577  31.013  33.998  11.025
35105W        W 3578  43.383   2.227   4.679
35106W        W 3579  33.930  12.680   3.307
35107W        W 3580  21.142  15.159  11.991
35108W        W 3581   4.364  31.488   4.245
35109W        W 3582  29.964  23.239  13.976
35110W        W 3583   8.168  19.553  11.469
35111W        W 3584  20.148  31.571   3.272
35112W        W 3585  23.578  44.803  12.554
35113W        W 3586  10.737  44.843   2.743
35114W        W 3587  21.258   6.696  13.481
35115W        W 3588  30.939  36.434  12.065
35116W        W 3589   4.276   2.287  13.026
35117W        W 3590   6.301  11.306   0.884
35118W        W 3591  27.633  15.095  13.859
35119W        W 3592  18.569  19.707   2.667
35120W        W 3593  18.602   4.701  10.069
35121W        W 3594  25.620  17.634  10.529
35122W        W 3595  13.719  13.222  12.483
35123W        W 3596  41.346  25.089   1.281
35124W        W 3597  38.049  31.150  13.032
35125W        W 3598  19.206   7.794  10.545
35126W        W 3599  40.014  23.075  12.533
35127W        W 3600  12.351  15.106  13.995
35128W        W 3601  29.425  33.489  13.512
35129W        W 3602  15.588  29.146  14.028
35130W        W 3603  39.472  36.509  14.469
35131W        W 3604   2.775  12.792  13.819
35132W        W 3605  11.764  34.556   4.333
35133W        W 3606  19.238   0.827   4.829
35134W        W 3607  44.446  24.158   2.182
35135W        W 3608  40.901  15.655   3.811
35136W        W 3609  25.607   4.225  11.919
35137W        W 3610  14.711  16.698   2.376
35138W        W 3611  30.052  29.138   1.700
35139W        W 3612  30.048  17.557   0.836
35140W        W 3613   1.352   5.381  11.893
35141W        W 3614   4.381  17.242   2.222
35142W        W 3615  18.183  42.281   3.207
35143W        W 3616  32.591  31.906  11.486
35144W        W 3617  13.235   4.316  11.581
35145W        W 3618  31.420  34.069   2.264
35146W        W 3619   4.380  27.054  11.020
35147W        W 3620  25.093  13.765  11.595
35148W        W 3621  10.234  40.888  11.570
35149W        W 3622   8.301  31.422  14.373
35150W        W 3623  36.423   3.404   2.721
35151W        W 3624   2.440  16.627   1.891
35152W        W 3625   7.340   0.482   3.818
35153W        W 3626  27.676  36.947   4.268
35154W        W 3627   7.259  15.632  11.911
35155W        W 3628  22.128   5.700  13.826
35156W        W 3629   7.727  19.628   1.228
35157W        W 3630  10.335  25.565   3.326
35158W        W 3631  41.984  12.165   1.712
35159W        W 3632   0.898  39.439  12.924
35160W        W 3633  37.054  34.937   4.740
35161W        W 3634   4.829  14.300   0.449
35162W        W 3635  31.978  22.009  12.000
35163W        W 3636   3.719  14.823   3.710
35164W        W 3637   6.350   2.834   3.650
35165W        W 3638  10.197   2.816  11.047
35166W        W 3639   4.820  38.476  14.994
35167W        W 3640  42.393  18.759   3.216
35168W        W 3641   1.875  35.596   0.377
35169W        W 3642  11.809   4.433   4.758
35170W        W 3643   0.411  25.016   4.243
35171W        W 3644  18.132  41.044   0.286
35172W        W 3645  23.028  21.044   0.389
35173W        W 3646  44.005  35.944   4.316
35174W        W 3647   7.804  19.266   3.698
35175W        W 3648   5.848  35.571  13.484
35176W        W 3649  41.432  35.402  12.480
35177W        W 3650   4.303  36.466   2.700
35178W        W 3651  16.718   6.873   0.473
35179W        W 3652  14.740  15.622   3.286
35180W        W 3653  11.773   5.329   2.843
35181W        W 3654  23.548   4.319   3.344
35182W        W 3655  34.950  15.255   0.821
35183W        W 3656  44.987  31.930  14.443
35184W        W 3657  28.024  21.673   5.138
35185W        W 3658  41.943  16.610  13.822
35186W        W 3659  23.672  13.348   1.694
35187W        W 3660  16.587  13.800   4.788
35188W        W 3661  25.046  29.479  10.911
35189W        W 3662  11.695  24.530  10.090
35190W        W 3663   1.450  42.785  12.017
35191W        W 3664   6.354   5.930  12.968
35192W        W 3665   2.389  18.692  10.463
35193W        W 3666  36.017  33.468   2.197
35194W        W 3667   9.698   9.694  13.998
35195W        W 3668  14.166  18.787   3.157
35196W        W 3669  31.897  35.006   0.791
35197W        W 3670   3.413  25.170  14.499
35198W        W 3671  44.410  29.018   0.456
35199W        W 3672  22.620  23.204  11.954
35200W        W 3673  25.676   4.278   2.784
35201W        W 3674   9.263  41.922   0.443
35202W        W 3675   4.368   9.257  11.374
35203W        W 3676   4.308  38.510   3.862
35204W        W 3677  34.969  14.628   3.284
35205W        W 3678  10.711   8.296   2.285
35206W        W 3679   1.266  42.930  13.922
35207W        W 3680  15.239   8.340   4.648
35208W        W 3681  16.208   5.429   2.857
35209W        W 3682   9.239  33.461  14.296
35210W        W 3683  34.885  33.439   3.366
35211W        W 3684   8.754  38.850  13.934
35212W        W 3685  22.104  12.687  10.889
35213W        W 3686  43.935  35.548   3.692
35214W        W 3687  21.051  22.121  11.048
35215W        W 3688  11.660  34.001   3.290
35216W        W 3689   4.862   2.273   1.243
35217W        W 3690  34.883  36.910   4.762
35218W        W 3691  11.789   5.708  10.008
35219W        W 3692  21.094   3.439  12.837
35220W        W 3693  23.180  38.876  10.464
35221W        W 3694  19.070  20.702   1.319
35222W        W 3695  40.006  22.128  11.399
35223W        W 3696  16.707  37.845   5.577
35224W        W 3697  33.468  31.974  14.766
35225W        W 3698  14.811  12.280  11.448
35226W        W 3699  12.787  11.757   1.904
35227W        W 3700   1.926  40.863  14.341
35228W        W 3701   7.753  22.158   4.673
35229W        W 3702  11.660  15.110   3.696
35230W        W 3703  22.519  41.874   1.738
35231W        W 3704   6.923   6.369   2.889
35232W        W 3705   9.197  23.031   3.723
35233W        W 3706  21.212  17.769   3.754
35234W        W 3707  26.984  35.003   2.276
35235W        W 3708  17.775   1.946  10.618
35236W        W 3709  18.237  29.136   3.383
35237W        W 3710   6.371  36.056   3.636
35238W        W 3711  23.990  34.975   3.375
35239W        W 3712  13.740  19.211   4.755
35240W        W 3713  14.097  22.726   4.628
35241W        W 3714   8.880  33.601   1.370
35242W        W 3715  13.672  30.624  14.947
35243W        W 3716  28.040   9.714  12.045
35244W        W 3717  27.117   3.912   3.192
35245W        W 3718  32.407   9.874  13.893
35246W        W 3719  26.154   9.648   1.233
35247W        W 3720  26.482  17.562   3.241
35248W        W 3721  42.836  40.408   2.373
35249W        W 3722  29.637  29.066   2.766
35250W        W 3723  43.975  14.236  10.497
35251W        W 3724  18.637   7.747  13.420
35252W        W 3725  32.637   8.355  14.298
35253W        W 3726  14.694  31.941  14.816
35254W        W 3727  35.453  26.142  14.967
35255W        W 3728  15.718  24.181  10.404
35256W        W 3729  25.701   8.351  10.928
35257W        W 3730  41.527  10.365  12.859
35258W        W 3731  34.107  17.239  13.419
35259W        W 3732  41.962   7.811  13.419
35260W        W 3733  25.158  44.895  12.847
35261W        W 3734  28.484  35.019   0.778
35262W        W 3735   2.357  41.806   4.131
35263W        W 3736  10.230  25.566  14.402
35264W        W 3737  29.555   0.976  13.910
35265W        W 3738  10.353  35.870   5.595
35266W        W 3739  22.606  16.163   0.755
35267W        W 3740  32.059  33.592   0.926
35268W        W 3741  43.496  17.104  14.932
35269W        W 3742  16.571  32.076   5.154
35270W        W 3743  28.019  29.570   5.178
35271W        W 3744  25.148   2.804   1.772
35272W        W 3745  24.010  43.391   2.378
35273W        W 3746  21.075  18.790   4.171
35274W        W 3747  42.525   0.922   2.855
35275W        W 3748  10.336   8.352   2.881
35276W        W 3749  40.874   5.245  14.349
35277W        W 3750  38.361  41.803  11.088
35278W        W 3751   8.326  31.497  12.071
35279W        W 3752  37.903  31.105   2.756
35280W        W 3753  10.191  23.026   4.263
35281W        W 3754  13.298  17.176  13.056
35282W        W 3755  30.583  29.510  10.527
35283W        W 3756   1.463  35.010  11.497
35284W        W 3757  16.274  13.799  11.957
35285W        W 3758   4.733   3.268   3.697
35286W        W 3759  20.073  39.332   2.302
35287W        W 3760  36.955  21.093   4.253
35288W        W 3761  10.862  34.063  14.904
35289W        W 3762  19.551   0.283   2.335
35290W        W 3763  21.527  19.597   5.155
35291W        W 3764   8.222  23.985   5.230
35292W        W 3765  33.562  26.120  14.842
35293W        W 3766  36.034   5.806  14.851
35294W        W 3767   0.848  43.772  12.347
35295W        W 3768  29.426  36.047   0.787
35296W        W 3769   3.793  43.377  11.517
35297W        W 3770  23.074  32.437   4.238
35298W        W 3771   9.884   2.333  10.424
35299W        W 3772  30.633  11.358   4.712
35300W        W 3773  11.371  24.076  14.975
35301W        W 3774  11.286  13.788  13.027
35302W        W 3775  39.042  10.844   2.218
35303W        W 3776  16.600   5.794  13.526
35304W        W 3777  15.157  31.472   4.653
35305W        W 3778  28.983  29.157  12.552
35306W        W 3779  12.688  26.468  12.075
35307W        W 3780  17.779   5.329  12.365
35308W        W 3781  19.052  14.597   3.262
35309W        W 3782   4.422  41.381  13.915
35310W        W 3783  32.066   3.280  10.909
35311W        W 3784  10.380  44.859   4.818
35312W        W 3785  21.110  36.045  10.893
35313W        W 3786   7.694  12.240  14.453
35314W        W 3787   6.711  20.535  11.541
35315W        W 3788   5.859  17.788   4.775
35316W        W 3789  29.084  24.594   2.857
35317W        W 3790   2.252  42.857   3.342
35318W        W 3791   4.284   2.434  12.394
35319W        W 3792  14.276  13.184   3.864
35320W        W 3793   6.827  28.540  10.612
35321W        W 3794  42.915  26.067   3.724
35322W        W 3795  24.987  39.366   4.259
35323W        W 3796  29.460  26.519   2.245
35324W        W 3797  23.535  35.429   4.230
35325W        W 3798   2.363  10.804  13.982
35326W        W 3799  14.710  28.618  10.462
35327W        W 3800  13.251  42.803   4.627
35328W        W 3801  10.267  44.870   0.893
35329W        W 3802  30.941   5.234  14.875
35330W        W 3803  29.935  17.600   4.693
35331W        W 3804  35.423  39.476  10.425
35332W        W 3805   4.784   0.971  12.406
35333W        W 3806  33.022  39.385   1.759
35334W        W 3807  15.317  20.606   1.255
35335W        W 3808  32.480  35.961  11.872
35336W        W 3809   2.847   2.437   4.602
35337W        W 3810  22.525  30.049  12.423
35338W        W 3811  14.340  22.089  13.484
35339W        W 3812  38.378  44.838   2.894
35340W        W 3813  44.821  27.521  14.970
35341W        W 3814  43.855   9.213  10.563
35342W        W 3815  32.937   9.181   4.283
35343W        W 3816   3.730   5.912  12.348
35344W        W 3817  42.351  37.394   4.315
35345W        W 3818  21.677  40.930   2.306
35346W        W 3819  29.975  36.445  13.011
35347W        W 3820   6.684  43.477  12.490
35348W        W 3821  39.969  14.688   0.835
35349W        W 3822   4.907  21.605  14.411
35350W        W 3823  34.915  26.037   2.828
35351W        W 3824  36.529  10.822  13.030
35352W        W 3825   2.950  37.900   2.861
35353W        W 3826  28.114  20.060   3.367
35354W        W 3827   6.410  17.131   2.349
35355W        W 3828   4.280  25.579   4.344
35356W        W 3829   1.399  25.054  11.940
35357W        W 3830  30.554  18.066  13.940
35358W        W 3831  34.588  14.258  11.020
35359W        W 3832  28.169  25.582  10.451
35360W        W 3833  21.145  23.213  12.927
35361W        W 3834  35.056  17.295  13.337
35362W        W 3835   2.771  24.194  12.363
35363W        W 3836  33.424  34.408   1.794
35364W        W 3837  22.032  41.843   2.768
35365W        W 3838  35.480  43.466   4.763
35366W        W 3839  35.380  34.429  13.487
35367W        W 3840  38.523  27.447  13.482
35368W        W 3841  18.254  21.150   0.395
35369W        W 3842  26.956  31.069  13.903
35370W        W 3843   8.755  33.577   4.204
35371W        W 3844   0.465  30.029   3.740
35372W        W 3845  37.355  13.726   3.237
35373W        W 3846  40.936  24.503   1.916
35374W        W 3847  24.603  34.071  11.555
35375W        W 3848   2.370   9.288   1.730
35376W        W 3849  33.942  21.531  10.976
35377W        W 3850  19.140  22.513  13.039
35378W        W 3851  31.464  14.227   0.940
35379W        W 3852  15.589  11.811  10.547
35380W        W 3853  43.462  38.877   3.266
35381W        W 3854  44.289  23.525  14.324
35382W        W 3855   5.898  18.088   4.732
35383W        W 3856  19.254   7.828  13.452
35384W        W 3857   5.889  11.794  11.911
35385W        W 3858   3.417  28.002   1.918
35386W        W 3859  42.461  15.787   1.745
35387W        W 3860  10.314  35.941   0.461
35388W        W 3861  13.795   6.285  11.466
35389W        W 3862   4.286  10.271   4.235
35390W        W 3863  30.052  10.771   3.680
35391W        W 3864  37.479  17.237  14.351
35392W        W 3865   0.321   7.807   0.740
35393W        W 3866  16.644   5.282  12.842
35394W        W 3867  39.551  35.461   1.704
35395W        W 3868   8.309  18.095  14.867
35396W        W 3869  38.951  29.637  14.383
35397W        W 3870  37.347  29.594  11.965
35398W        W 3871  33.515   5.744  11.907
35399W        W 3872  13.294  15.102  14.023
35400W        W 3873  32.997  10.337   4.164
35401W        W 3874  17.782  33.900   1.789
35402W        W 3875  13.685  32.888   2.827
35403W        W 3876  31.485  23.144   0.956
35404W        W 3877  16.753   2.450  11.097
35405W        W 3878  41.813  25.024  10.480
35406W        W 3879  24.697  39.395   3.263
35407W        W 3880  29.664  31.557   4.169
35408W        W 3881  25.683  36.550  13.893
35409W        W 3882  15.313  33.589  12.946
35410W        W 3883  18.588   0.979   1.356
35411W        W 3884  12.637  21.138  11.041
35412W        W 3885  38.549  38.919   0.773
35413W        W 3886  35.974  32.025  14.875
35414W        W 3887   3.425  30.562  10.609
35415W        W 3888  18.586  44.855   4.657
35416W        W 3889  21.225  22.585  13.457
35417W        W 3890  40.019   2.257   4.701
35418W        W 3891   4.257  19.554  12.482
35419W        W 3892   0.423  37.954  14.986
35420W        W 3893  15.608  37.912  12.017
35421W        W 3894  20.132  30.145  10.537
35422W        W 3895  24.676  14.800  12.374
35423W        W 3896   9.366  20.523  14.915
35424W        W 3897  36.952  43.355  14.984
35425W        W 3898  35.590   5.292   0.843
35426W        W 3899  21.214   4.906  12.505
35427W        W 3900  23.502  16.762   1.395
35428W        W 3901  17.305  35.095   1.784
35429W        W 3902  12.702  19.147   3.704
35430W        W 3903  42.999  26.581  12.008
35431W        W 3904  12.298  14.590   3.690
35432W        W 3905  13.312  39.985   3.287
35433W        W 3906   7.744  23.533   2.362
35434W        W 3907  36.974  10.752  14.471
35435W        W 3908  14.751  36.891  12.962
35436W        W 3909  17.205  19.241  10.982
35437W        W 3910   5.779   8.891   3.732
35438W        W 3911  11.661   2.957   0.884
35439W        W 3912   5.845  43.828   1.934
35440W        W 3913  25.521   6.297   4.737
35441W        W 3914  32.530   4.908  12.858
35442W        W 3915  41.827  14.198  11.411
35443W        W 3916  36.396  20.709  13.977
35444W        W 3917  26.127   9.195   3.193
35445W        W 3918   7.838  18.640   1.727
35446W        W 3919   7.807  26.963   1.313
35447W        W 3920  18.151  40.375   3.344
35448W        W 3921   3.402  44.841  13.423
35449W        W 3922  28.573  13.166   4.127
35450W        W 3923  21.592   3.437   2.685
35451W        W 3924  28.010  20.247   1.359
35452W        W 3925  25.709  19.275  12.405
35453W        W 3926  12.199  38.844  14.494
35454W        W 3927  19.132   5.223  10.916
35455W        W 3928  27.132  12.673   2.365
35456W        W 3929  32.538  15.621  11.526
35457W        W 3930  35.386   2.774  14.315
35458W        W 3931  30.523  15.292   0.787
35459W        W 3932   0.437   1.963   2.395
35460W        W 3933  37.995  25.473  12.404
35461W        W 3934   2.955  19.636  10.581
35462W        W 3935  44.975  11.629  10.440
35463W        W 3936  27.573  24.539   3.295
35464W        W 3937  36.437   4.915  12.960
35465W        W 3938  18.729  14.256   2.354
35466W        W 3939  16.234  28.530   2.871
35467W        W 3940  36.895  30.997   1.400
35468W        W 3941  14.639  25.648   1.855
35469W        W 3942  30.422   9.392  13.320
35470W        W 3943  22.039  42.010  14.809
35471W        W 3944  16.287  14.686   0.791
35472W        W 3945  14.703  24.676  12.384
35473W        W 3946   0.970  41.865   3.710
35474W        W 3947  42.899  10.776  14.838
35475W        W 3948   6.229  29.634   2.393
35476W        W 3949  32.933  31.610  11.024
35477W        W 3950   6.814  17.170  11.579
35478W        W 3951  30.014  38.947   2.293
35479W        W 3952  37.083  22.236  13.838
35480W        W 3953  30.970  13.806   2.692
35481W        W 3954   6.736   2.770  13.874
35482W        W 3955  21.079  38.914   0.401
35483W        W 3956  11.784  28.171  12.828
35484W        W 3957   4.443  23.719  10.429
35485W        W 3958   5.284  18.120   2.721
35486W        W 3959   1.253  40.037  10.967
35487W        W 3960   5.902   6.318   4.343
35488W        W 3961  11.337  39.366  11.526
35489W        W 3962  16.717  11.297   1.433
35490W        W 3963  19.630  13.732   3.809
35491W        W 3964  10.788  33.537  14.443
35492W        W 3965  23.142  38.880  12.472
35493W        W 3966  28.556  15.088  12.034
35494W        W 3967  27.007  19.154  11.939
35495W        W 3968  15.731   4.254  11.095
35496W        W 3969  36.565  14.655  11.055
35497W        W 3970  30.989   3.286  12.836
35498W        W 3971  37.850   9.228  13.438
35499W        W 3972  10.275  36.854  14.292
35500W        W 3973  22.698  27.461  14.274
35501W        W 3974  35.106  44.884  11.986
35502W        W 3975  28.489  15.102   1.285
35503W        W 3976   1.323  16.315   3.705
35504W        W 3977  13.651  33.977  13.909
35505W        W 3978  33.070  10.673   3.729
35506W        W 3979  35.544  26.608   4.207
35507W        W 3980   2.431  43.352  10.527
35508W        W 3981  24.015  17.241  12.876
35509W        W 3982  34.024  27.636  14.998
35510W        W 3983  42.840  30.087  11.609
35511W        W 3984  35.082  23.592  14.939
35512W        W 3985  17.201  41.402   0.381
35513W        W 3986   0.837  17.567  14.289
35514W        W 3987  35.460  41.533  14.465
35515W        W 3988  16.084   2.905   2.335
35516W        W 3989  40.541   5.788   3.860
35517W        W 3990   4.347  37.355   0.462
35518W        W 3991  23.009   2.761  11.456
35519W        W 3992  32.127  21.208   4.655
35520W        W 3993  42.339  35.573   4.727
35521W        W 3994  30.452   1.784  13.312
35522W        W 3995   4.792  16.246  10.008
35523W        W 3996  27.069   1.867  14.788
35524W        W 3997  11.252   2.847  13.430
35525W        W 3998  20.767  39.419  14.415
35526W        W 3999  37.546  15.310   2.744
35527W        W 4000  31.116  40.336  13.807
35528W        W 4001   3.444   5.878  12.975
35529W        W 4002  17.559  30.083   1.265
35530W        W 4003  27.463  41.869   0.431
35531W        W 4004  26.119  20.750  13.999
35532W        W 4005  19.709  22.252   2.813
35533W        W 4006  11.743  36.962  12.948
35534W        W 4007  18.595   1.334  14.369
35535W        W 4008   2.769  31.522  11.959
35536W        W 4009  24.141  26.658   0.857
35537W        W 4010  24.695  37.947  13.833
35538W        W 4011  31.935  30.127   0.299
35539W        W 4012   1.739  27.610  13.352
35540W        W 4013  11.694  21.158  11.439
35541W        W 4014  37.926  23.648  10.447
35542W        W 4015   1.377   4.353   4.145
35543W        W 4016  25.209  11.330   1.760
35544W        W 4017   9.293   8.330  10.413
35545W        W 4018   6.393  14.196   5.249
35546W        W 4019  15.183  20.161   0.345
35547W        W 4020  24.571  18.663   0.253
35548W        W 4021  41.801  21.128   1.412
35549W        W 4022   4.716  34.053   0.804
35550W        W 4023   2.376  16.074  11.908
35551W        W 4024   9.735  29.032   0.770
35552W        W 4025  13.675   0.405  14.432
35553W        W 4026  24.182  13.282  12.910
35554W        W 4027  24.123  19.668  13.809
35555W        W 4028   4.812   3.812  11.066
35556W        W 4029  33.624  31.953   0.271
35557W        W 4030  27.672  23.012  10.644
35558W        W 4031  27.589   2.964   1.761
35559W        W 4032   2.868  18.547   4.163
35560W        W 4033  34.389   4.923  11.863
35561W        W 4034  32.988   5.408   4.132
35562W        W 4035  30.084   0.270  13.912
35563W        W 4036  19.257  37.390   4.701
35564W        W 4037  28.508  16.290  12.094
35565W        W 4038  28.174   2.842  11.961
35566W        W 4039  44.454  15.696   4.230
35567W        W 4040  32.451  20.064  13.028
35568W        W 4041  19.095  40.911   2.805
35569W        W 4042  15.673  30.062  14.504
35570W        W 4043  16.083  10.199   2.889
35571W        W 4044  25.537   6.421   0.924
35572W        W 4045  21.165   2.241  12.860
35573W        W 4046  23.552   4.229   3.788
35574W        W 4047   6.334  19.182  14.463
35575W        W 4048   7.843  42.787   0.466
35576W        W 4049  16.276  43.453  14.865
35577W        W 4050   9.694  16.606   4.772
35578W        W 4051  29.485   4.253  14.356
35579W        W 4052  40.403  35.362  12.957
35580W        W 4053  41.537  17.770  14.976
35581W        W 4054  25.681  10.637  14.785
35582W        W 4055  31.023  15.234   2.255
35583W        W 4056  32.551  21.080  11.534
35584W        W 4057   9.164   8.748   1.319
35585W        W 4058   4.752  16.295   3.356
35586W        W 4059  10.357  32.477  14.788
35587W        W 4060   9.152   6.344   9.942
35588W        W 4061   5.717  37.045   4.243
35589W        W 4062  44.972   9.304   1.336
35590W        W 4063   3.741  30.621   1.819
35591W        W 4064  27.105   2.415   3.278
35592W        W 4065  21.027   4.354  12.826
35593W        W 4066  25.009  33.414  10.633
35594W        W 4067  23.681   8.374  13.961
35595W        W 4068  28.113  41.967  12.016
35596W        W 4069  27.981   6.705  13.801
35597W        W 4070  10.372  35.998   1.255
35598W        W 4071  19.753   7.378  14.468
35599W        W 4072   3.246  29.933  13.873
35600W        W 4073  21.610  17.244   1.327
35601W        W 4074  28.666  17.636   0.737
35602W        W 4075  29.084   8.757   0.276
35603W        W 4076  31.147  29.483  12.834
35604W        W 4077   8.176  41.382   0.295
35605W        W 4078  16.630  43.422  14.023
35606W        W 4079  20.631   2.420  11.589
35607W        W 4080  10.258  20.246   3.677
35608W        W 4081  30.980  18.780  11.445
35609W        W 4082  14.609   5.735  12.070
35610W        W 4083  24.631  13.715   4.213
35611W        W 4084   8.711   9.259  12.007
35612W        W 4085  30.053  25.676  11.084
35613W        W 4086  16.635  26.541   1.850
35614W        W 4087  36.987  17.299   1.790
35615W        W 4088  32.473  31.901   4.760
35616W        W 4089  23.537  32.076  14.350
35617W        W 4090  14.733  34.906   4.652
35618W        W 4091   1.830  32.509  12.861
35619W        W 4092  34.039   0.893   1.305
35620W        W 4093  35.011  24.004  11.010
35621W        W 4094  25.120   8.385  11.453
35622W        W 4095  25.660  38.496  14.915
35623W        W 4096   5.934  38.365  11.384
35624W        W 4097  34.071  17.226  14.836
35625W        W 4098  14.226   2.869   1.814
35626W        W 4099  18.616  22.657   9.993
35627W        W 4100  39.905  31.550  13.408
35628W        W 4101  30.158  23.589  13.458
35629W        W 4102  25.678  37.438  10.602
35630W        W 4103  10.822  19.542   1.729
35631W        W 4104  33.119  12.759   2.669
35632W        W 4105  23.663  19.140   4.142
35633W        W 4106   2.923   5.384   1.813
35634W        W 4107  13.759  30.957  14.345
35635W        W 4108  30.538  35.572   1.890
35636W        W 4109  43.818  29.996   4.354
35637W        W 4110  39.032  15.122   1.312
35638W        W 4111  14.278  29.616  13.443
35639W        W 4112  44.954  24.994   0.834
35640W        W 4113  14.626  33.933   3.858
35641W        W 4114  34.094  12.247  11.077
35642W        W 4115  33.934   5.802   1.430
35643W        W 4116   8.223  29.930   2.703
35644W        W 4117  11.149  18.628  12.889
35645W        W 4118   0.342  16.783   1.374
35646W        W 4119  34.042   9.267   3.361
35647W        W 4120  21.172  33.913   4.752
35648W        W 4121   4.916  28.468   4.297
35649W        W 4122  29.164   6.242  11.014
35650W        W 4123  23.647  14.798  14.332
35651W        W 4124  20.154   2.785  13.390
35652W        W 4125  13.663  34.505   0.875
35653W        W 4126  34.063  28.139  10.569
35654W        W 4127  20.631  33.625   2.328
35655W        W 4128  38.831  13.832   4.681
35656W        W 4129  24.102  17.627  14.785
35657W        W 4130  30.493  44.967  10.075
35658W        W 4131  12.143  32.430  10.957
35659W        W 4132  41.899  33.603   3.203
35660W        W 4133  14.700  34.873  14.780
35661W        W 4134   7.676  31.008  12.897
35662W        W 4135  30.443  43.969  10.593
35663W        W 4136   2.753  10.355   3.235
35664W        W 4137  26.551  24.492  12.526
35665W        W 4138  23.532  10.381  13.036
35666W        W 4139  23.205  30.951  14.832
35667W        W 4140  30.028  31.408   1.863
35668W        W 4141  38.395  35.957  14.999
35669W        W 4142  11.232  26.070  11.500
35670W        W 4143  15.616   6.399  12.033
35671W        W 4144  14.730  31.985   0.765
35672W        W 4145  34.384   3.804  12.379
35673W        W 4146  39.339  11.815  10.930
35674W        W 4147  36.520  42.874   5.283
35675W        W 4148   3.728  34.487  10.012
35676W        W 4149  22.733  26.656   2.237
35677W        W 4150  13.261  22.697  11.933
35678W        W 4151  17.112  12.661   2.694
35679W        W 4152  16.624  40.019  10.982
35680W        W 4153   0.325  41.971  10.487
35681W        W 4154  27.523  44.988   0.950
35682W        W 4155  24.564  20.621  10.492
35683W        W 4156  44.830  11.649   2.730
35684W        W 4157  39.540  19.150   2.674
35685W        W 4158  34.533  16.284   1.749
35686W        W 4159  23.633   0.466   1.390
35687W        W 4160   5.204  43.017   3.267
35688W        W 4161  18.582  25.497  12.930
35689W        W 4162  20.564  34.551   2.851
35690W        W 4163  42.027   3.281   4.668
35691W        W 4164  34.980  11.290   3.180
35692W        W 4165  22.095  42.437   0.320
35693W        W 4166  37.508  14.191  11.932
35694W        W 4167  20.701  23.735  11.068
35695W        W 4168  14.306  28.650   4.701
35696W        W 4169  20.643  30.053  13.404
35697W        W 4170  21.098  27.098   5.260
35698W        W 4171  32.065  19.102  11.570
35699W        W 4172  35.104  40.829   0.274
35700W        W 4173   3.740  31.985  10.453
35701W        W 4174  21.220  12.773   9.976
35702W        W 4175  26.168  19.618   1.422
35703W        W 4176   2.455  30.931   4.208
35704W        W 4177  17.603  37.400  10.462
35705W        W 4178  19.249  14.297   4.783
35706W        W 4179  29.616  22.024   3.818
35707W        W 4180  24.038   3.954   0.298
35708W        W 4181  25.106   2.316   1.328
35709W        W 4182  37.417  14.207  10.927
35710W        W 4183  17.272  31.464   4.138
35711W        W 4184   8.351  34.035   1.796
35712W        W 4185   6.838  36.036  13.527
35713W        W 4186  26.474   2.465   5.169
35714W        W 4187  18.545   5.345  10.995
35715W        W 4188   0.803  21.550   2.673
35716W        W 4189   2.453   2.771  14.447
35717W        W 4190  11.651  12.264   0.962
35718W        W 4191   1.736  31.092  13.840
35719W        W 4192   3.432  37.346  11.053
35720W        W 4193  14.605  28.616  12.843
35721W        W 4194  41.524  42.851   2.276
35722W        W 4195  32.456  26.473   3.301
35723W        W 4196   4.283  13.657   2.810
35724W        W 4197   8.729  28.664  13.853
35725W        W 4198  13.258  25.039   4.806
35726W        W 4199   0.987  33.469   5.238
35727W        W 4200   7.173  24.564   2.212
35728W        W 4201   3.926   4.769  13.525
35729W        W 4202  18.759  14.157  13.531
35730W        W 4203   7.245  40.357  14.373
35731W        W 4204  15.108   4.445   0.844
35732W        W 4205  39.935   3.276  13.059
35733W        W 4206  18.116  32.441   2.313
35734W        W 4207  25.566  35.399  12.908
35735W        W 4208  36.926  28.010   1.710
35736W        W 4209  20.097  14.331  10.007
35737W        W 4210  16.213   9.732   4.692
35738W        W 4211  42.508   8.325  11.571
35739W        W 4212  28.940   0.971   4.233
35740W        W 4213  25.170  31.959  13.483
35741W        W 4214   5.885   4.287   0.313
35742W        W 4215  28.043   5.292   4.714
35743W        W 4216  10.328  23.529  11.520
35744W        W 4217  40.005  35.400  13.058
35745W        W 4218  24.532  38.379   4.161
35746W        W 4219  27.680   6.334  13.023
35747W        W 4220  15.311   6.221  14.321
35748W        W 4221   6.385   5.813   2.887
35749W        W 4222  19.545   6.742  10.410
35750W        W 4223  36.582  27.601  14.364
35751W        W 4224   5.254   3.948  14.380
35752W        W 4225  39.918  42.885  12.454
35753W        W 4226  35.954  38.417  13.025
35754W        W 4227  13.602  12.809   2.288
35755W        W 4228  33.567  34.381   1.351
35756W        W 4229  37.998  33.575  13.986
35757W        W 4230  29.503  33.381  14.890
35758W        W 4231  17.128  38.862   4.733
35759W        W 4232  44.444  39.952   4.192
35760W        W 4233  22.108  42.318   1.802
35761W        W 4234  39.913  42.903  11.863
35762W        W 4235  40.865   8.774  14.012
35763W        W 4236  31.128  32.559  10.998
35764W        W 4237  42.313  41.808  13.058
35765W        W 4238  12.678  37.996   2.780
35766W        W 4239  15.109  18.219  12.482
35767W        W 4240  41.813   9.379   2.833
35768W        W 4241  32.061   3.253  13.799
35769W        W 4242  26.125  13.280   4.146
35770W        W 4243  11.749  19.147  12.982
35771W        W 4244  39.845  44.493  11.466
35772W        W 4245  10.230  41.976  13.968
35773W        W 4246  35.411  22.733   3.703
35774W        W 4247  12.835  39.349   4.121
35775W        W 4248  30.594  33.943  11.011
35776W        W 4249   0.467  24.630   0.380
35777W        W 4250  42.938  18.165   2.858
35778W        W 4251   5.713  38.336  12.514
35779W        W 4252  19.745  24.516  13.358
35780W        W 4253   4.936  38.509  14.352
35781W        W 4254  37.466  21.635  13.955
35782W        W 4255  20.523  32.445   4.725
35783W        W 4256  16.124  22.701  12.827
35784W        W 4257   2.240  31.510  10.422
35785W        W 4258  13.608  23.589   1.907
35786W        W 4259  24.031   5.697   0.770
35787W        W 4260  13.261  16.267  13.058
35788W        W 4261  27.591   0.842   2.881
35789W        W 4262  40.398  31.947   5.281
35790W        W 4263  12.825   0.973  10.612
35791W        W 4264   1.943  17.595  12.094
35792W        W 4265  39.906   7.673  14.964
35793W        W 4266   1.807  38.534   2.737
35794W        W 4267  13.230   5.727  13.902
35795W        W 4268   3.274  16.166   2.871
35796W        W 4269  17.222  33.011  14.300
35797W        W 4270  22.187   5.332  11.872
35798W        W 4271  35.015  37.059  11.048
35799W        W 4272  24.999   2.890   2.371
35800W        W 4273  13.695  10.684   0.959
35801W        W 4274  31.023  24.650  12.860
35802W        W 4275  24.183  33.119  11.415
35803W        W 4276  10.846  24.525   5.278
35804W        W 4277   5.812   0.449   2.873
35805W        W 4278  33.896   4.272  12.973
35806W        W 4279  32.068   2.350   0.799
35807W        W 4280  40.514   3.283  14.902
35808W        W 4281  40.032   0.388  11.068
35809W        W 4282  31.087  31.548   2.331
35810W        W 4283   8.393   3.875   3.210
35811W        W 4284  34.960  36.070   0.726
35812W        W 4285  31.645   9.375   4.168
35813W        W 4286  42.946   0.366   1.909
35814W        W 4287  23.546  39.907   1.387
35815W        W 4288   6.217  14.651   4.758
35816W        W 4289  44.769  22.599   0.289
35817W        W 4290   2.834  30.958  13.012
35818W        W 4291  15.711  28.048   4.122
35819W        W 4292  32.093  17.634   3.853
35820W        W 4293  34.102  27.563  13.041
35821W        W 4294  20.118   1.798   0.809
35822W        W 4295   3.278  29.524   5.166
35823W        W 4296   9.672  39.063   2.414
35824W        W 4297  22.624  20.584   3.211
35825W        W 4298   6.696  22.207   2.885
35826W        W 4299  21.689  31.904  14.341
35827W        W 4300  13.629  30.139  11.484
35828W        W 4301  25.997  26.167   1.934
35829W        W 4302   3.733  19.131  13.038
35830W        W 4303  11.140  23.090   0.446
35831W        W 4304  43.954  26.045   4.137
35832W        W 4305   7.772  37.067   0.280
35833W        W 4306  34.603  16.648  14.378
35834W        W 4307  37.061  30.546  13.064
35835W        W 4308  14.299   3.252  14.390
35836W        W 4309   7.809  17.112   2.800
35837W        W 4310  38.842   4.405  11.545
35838W        W 4311  35.877  26.158  10.972
35839W        W 4312  19.158  19.178   2.199
35840W        W 4313  19.669   4.371  11.041
35841W        W 4314  16.679  22.642  13.481
35842W        W 4315  27.112  13.672  10.440
35843W        W 4316  30.025  40.021  14.347
35844W        W 4317  19.172  12.234  14.502
35845W        W 4318   0.754  22.588  12.068
35846W        W 4319  43.998   2.313   1.796
35847W        W 4320  20.226  13.278  12.067
35848W        W 4321  35.452  26.002  14.506
35849W        W 4322  14.184   9.744  12.093
35850W        W 4323  31.491  42.948   0.826
35851W        W 4324  26.662  22.156   3.646
35852W        W 4325  34.473  30.424  12.068
35853W        W 4326   8.871  19.661  10.994
35854W        W 4327  40.855  30.090   0.364
35855W        W 4328  37.375  35.972  12.359
35856W        W 4329  41.869  34.098  12.541
35857W        W 4330  15.242  44.268  13.491
35858W        W 4331  38.409  37.518  10.608
35859W        W 4332  38.499  28.967   4.747
35860W        W 4333  42.021  13.709   4.188
35861W        W 4334  28.617  32.982  14.472
35862W        W 4335  25.656  34.583   2.831
35863W        W 4336   6.869  35.425   4.322
35864W        W 4337   6.737  21.257   0.770
35865W        W 4338  17.732  23.641  14.960
35866W        W 4339  19.111   4.379  13.908
35867W        W 4340  32.506  44.873  14.960
35868W        W 4341   2.317  28.545   1.774
35869W        W 4342  14.741   3.864   0.441
35870W        W 4343   7.674  28.970   1.929
35871W        W 4344  37.017   6.843   1.792
35872W        W 4345  11.217   0.858   2.750
35873W        W 4346  40.973  42.438   2.252
35874W        W 4347  19.161  36.049  12.065
35875W        W 4348  22.059  18.082  13.943
35876W        W 4349  19.254   9.761   3.167
35877W        W 4350   9.188   7.416  13.438
35878W        W 4351  36.571  33.597   1.706
35879W        W 4352  32.010  15.668   2.883
35880W        W 4353   4.813   5.219  14.340
35881W        W 4354  27.509  36.347  12.952
35882W        W 4355  12.724   4.433   4.791
35883W        W 4356  14.776   6.798   2.801
35884W        W 4357  20.710  28.173   2.398
35885W        W 4358   6.676  41.340   2.365
35886W        W 4359  38.482  12.720  12.919
35887W        W 4360  42.913   2.896   0.309
35888W        W 4361  19.736  28.018   4.312
35889W        W 4362  15.598  30.478  11.986
35890W        W 4363  21.027   4.321   0.364
35891W        W 4364  23.714  16.229  11.977
35892W        W 4365  20.223  11.750   3.358
35893W        W 4366  41.787  15.720  11.999
35894W        W 4367  24.228  41.786  14.361
35895W        W 4368  21.199  12.686  13.539
35896W        W 4369  31.574   6.391   1.259
35897W        W 4370  22.134  24.603   1.417
35898W        W 4371  40.385  11.188  12.550
35899W        W 4372  13.656  25.631   1.264
35900W        W 4373  44.332  35.975   9.994
35901W        W 4374  30.146  40.321   3.273
35902W        W 4375  10.328  40.954   3.271
35903W        W 4376  33.079  10.268   1.926
35904W        W 4377  35.471  33.102   3.153
35905W        W 4378  31.518  39.916  13.980
35906W        W 4379  34.931   0.305  14.373
35907W        W 4380  13.130  43.938   1.329
35908W        W 4381  37.516   2.892  14.985
35909W        W 4382  39.024  23.557  10.502
35910W        W 4383   1.899  17.290   2.827
35911W        W 4384  14.321  10.302  11.609
35912W        W 4385  16.194   7.397   0.816
35913W        W 4386  19.559  42.443  10.567
35914W        W 4387  18.195  43.284  11.881
35915W        W 4388  42.851  44.420   4.250
35916W        W 4389  15.594  27.051   2.762
35917W        W 4390  32.890  35.945   4.164
35918W        W 4391  42.821  19.164   2.784
35919W        W 4392  24.119  21.188  10.520
35920W        W 4393  38.983  28.026  10.548
35921W        W 4394  22.030  13.156   1.880
35922W        W 4395  28.097  42.482   4.778
35923W        W 4396  35.449   7.192  14.297
35924W        W 4397  34.977  37.401  11.952
35925W        W 4398  11.140  17.123   4.179
35926W        W 4399   1.871   3.812   0.795
35927W        W 4400   2.236  38.858  13.437
35928W        W 4401  33.968  17.717  13.060
35929W        W 4402  28.574  23.086   1.440
35930W        W 4403  22.082  43.811  12.852
35931W        W 4404  16.610  11.220  12.932
35932W        W 4405  17.117   9.724   3.342
35933W        W 4406  11.644   9.870  13.468
35934W        W 4407  32.131  19.559   2.705
35935W        W 4408  39.403  10.651  10.917
35936W        W 4409   0.775  22.635   3.337
35937W        W 4410  39.442   0.908  13.995
35938W        W 4411  17.715  20.086  10.566
35939W        W 4412  43.292  20.208   3.797
35940W        W 4413  42.801   7.378   0.448
35941W        W 4414  17.222  43.371   0.918
35942W        W 4415  16.654  10.848   1.802
35943W        W 4416  18.088  43.478  14.396
35944W        W 4417  39.880  14.823   2.193
35945W        W 4418  12.800   5.398  10.405
35946W        W 4419  43.990  15.197   2.413
35947W        W 4420   5.745  42.971   2.229
35948W        W 4421  24.683  44.897   0.259
35949W        W 4422  16.665  33.034   0.964
35950W        W 4423   5.344  42.973  14.828
35951W        W 4424   6.204  15.199   1.430
35952W        W 4425  44.946  27.110  11.376
35953W        W 4426  33.936  16.595   4.237
35954W        W 4427  20.249  36.546   3.302
35955W        W 4428  32.126  36.546  14.029
35956W        W 4429  32.468  37.896  13.874
35957W        W 4430   2.961  42.791  13.885
35958W        W 4431  30.928  38.921  10.910
35959W        W 4432  42.362  10.797   1.741
35960W        W 4433  38.048   0.921  11.955
35961W        W 4434  18.201   5.794   3.672
35962W        W 4435  17.086  22.013  14.895
35963W        W 4436  27.457   0.927   3.191
35964W        W 4437  26.538   3.288  11.010
35965W        W 4438  41.384  37.549  14.956
35966W        W 4439  17.649  42.027   1.444
35967W        W 4440  34.452   6.312   0.920
35968W        W 4441  15.148   8.260  12.439
35969W        W 4442  28.128   4.703   3.641
35970W        W 4443   2.412  17.128  13.062
35971W        W 4444  23.188   1.297   2.662
35972W        W 4445  31.445  14.243  13.323
35973W        W 4446  11.857  32.068   4.687
35974W        W 4447  13.655  30.619   4.692
35975W        W 4448  25.478  25.197   2.186
35976W        W 4449  15.731  20.743   4.673
35977W        W 4450  27.484   6.880  10.991
35978W        W 4451   6.233  40.897   2.349
35979W        W 4452   2.388   5.802  14.015
35980W        W 4453  43.315  24.579   4.211
35981W        W 4454  13.655  26.615   2.877
35982W        W 4455   7.880  15.765   0.954
35983W        W 4456  13.801  22.033   2.872
35984W        W 4457  17.194  40.491   3.683
35985W        W 4458   2.391   0.267   2.803
35986W        W 4459  37.435  34.545   3.301
35987W        W 4460  11.691  12.615  11.895
35988W        W 4461   5.214   0.771  11.472
35989W        W 4462  26.191  26.661  12.883
35990W        W 4463  13.137   0.936   5.244
35991W        W 4464   6.198  26.978   0.427
35992W        W 4465  31.455   9.643   3.332
35993W        W 4466  13.797   1.268  11.483
35994W        W 4467   2.292  29.650  12.518
35995W        W 4468   1.799  26.126   4.680
35996W        W 4469   8.786   3.847  10.476
35997W        W 4470  42.838  24.649  13.063
35998W        W 4471  15.142   0.804  10.454
35999W        W 4472   6.349  13.158  13.539
36000W        W 4473  16.618  24.679  10.522
36001W        W 4474  17.114  35.414   0.903
36002W        W 4475   4.925  19.632   4.759
36003W        W 4476  28.552  25.658  13.486
36004W        W 4477   8.773  26.202  14.888
36005W        W 4478  21.683   1.820  14.897
36006W        W 4479  31.936  29.034  14.950
36007W        W 4480  19.710  35.868  11.592
36008W        W 4481  12.121  11.302   2.388
36009W        W 4482   6.721  14.148   2.265
36010W        W 4483  23.571  16.651   0.293
36011W        W 4484  26.063  19.267   0.254
36012W        W 4485  27.135  33.381   4.139
36013W        W 4486   6.862  21.645   4.683
36014W        W 4487   9.650   7.411  11.439
36015W        W 4488  21.681  30.621   1.256
36016W        W 4489  39.952  21.637  10.492
36017W        W 4490   4.846  33.400  14.978
36018W        W 4491  44.467   1.867   0.782
36019W        W 4492   7.181  27.014   2.844
36020W        W 4493  11.136  25.643   1.764
36021W        W 4494  36.051   8.743  10.520
36022W        W 4495   1.957  36.569   5.213
36023W        W 4496  26.170  32.917   1.826
36024W        W 4497  44.868  22.598   2.365
36025W        W 4498  18.254  13.115   1.880
36026W        W 4499  35.586  12.855   0.822
36027W        W 4500  28.478  34.603  11.456
36028W        W 4501  18.668  20.073  13.969
36029W        W 4502   4.309  29.068  14.832
36030W        W 4503  15.611  31.959  11.381
36031W        W 4504  14.696  15.772  14.798
36032W        W 4505  27.948  33.427   0.856
36033W        W 4506   2.748  20.686  13.379
36034W        W 4507  22.503  44.260  11.918
36035W        W 4508  28.545  36.035   0.804
36036W        W 4509  12.716  36.949  11.556
36037W        W 4510  24.020  12.644   9.505
36038W        W 4511  14.242   7.819  10.595
36039W        W 4512  18.294  31.117   1.340
36040W        W 4513   9.164  25.073  11.597
36041W        W 4514  26.013  26.135   2.779
36042W        W 4515  23.700  11.779   3.734
36043W        W 4516  20.032  22.560  12.486
36044W        W 4517  38.887  26.674   2.836
36045W        W 4518  18.218  39.536   4.291
36046W        W 4519   1.758  13.783  10.624
36047W        W 4520   7.689  31.624  11.391
36048W        W 4521  10.296  26.118   5.138
36049W        W 4522  17.084   6.365  13.536
36050W        W 4523  35.594  16.786  11.992
36051W        W 4524  15.728  23.208  13.064
36052W        W 4525  22.103  40.349  14.799
36053W        W 4526   4.809  19.745   4.226
36054W        W 4527   1.931  24.048   2.392
36055W        W 4528  34.552  38.482   3.697
36056W        W 4529  38.899  33.381  14.887
36057W        W 4530   4.887  21.168   3.726
36058W        W 4531  27.999   0.778   0.379
36059W        W 4532  12.783  33.004  14.882
36060W        W 4533  33.988   2.311   3.794
36061W        W 4534   5.420   4.438  11.612
36062W        W 4535  22.249  19.742   3.186
36063W        W 4536  22.046  24.201   4.610
36064W        W 4537  39.522  20.649  14.920
36065W        W 4538  40.925   0.845   4.141
36066W        W 4539  30.514  24.218   2.325
36067W        W 4540   2.248  32.591   3.853
36068W        W 4541   1.790   8.723  14.472
36069W        W 4542  24.053  26.554  10.065
36070W        W 4543   2.336  18.715  14.488
36071W        W 4544  11.344  11.622  12.406
36072W        W 4545  10.661   9.735   4.755
36073W        W 4546  36.514  31.936   2.227
36074W        W 4547  17.151  43.504   4.151
36075W        W 4548  19.043  12.663  11.984
36076W        W 4549  43.877  13.642  13.319
36077W        W 4550   7.360  14.806  13.860
36078W        W 4551  13.763  14.150  14.845
36079W        W 4552  27.985   7.673   3.766
36080W        W 4553   9.797  18.636  12.056
36081W        W 4554  29.057  34.961  11.084
36082W        W 4555  44.278  24.145   0.430
36083W        W 4556  21.128   2.255   3.386
36084W        W 4557   1.387  10.812   0.904
36085W        W 4558  34.084  15.114   2.392
36086W        W 4559  43.923  17.740   4.647
36087W        W 4560  43.401  17.773   4.313
36088W        W 4561  12.196  15.311   1.835
36089W        W 4562   6.804   7.845  10.105
36090W        W 4563  14.177  12.315  13.374
36091W        W 4564   8.200   9.218   3.349
36092W        W 4565  26.952  30.571   2.198
36093W        W 4566   9.296  13.607   3.801
36094W        W 4567  24.582  35.486  13.811
36095W        W 4568   6.750  27.680   0.783
36096W        W 4569  32.475  16.641  11.396
36097W        W 4570  21.674  43.373  12.041
36098W        W 4571   5.430  40.053  10.443
36099W        W 4572   3.337   1.825   3.346
36100W        W 4573  44.891  43.444   3.381
36101W        W 4574   4.784  38.403  11.024
36102W        W 4575  43.982  32.975  12.944
36103W        W 4576  23.999  39.949   3.362
36104W        W 4577  37.016   4.890   3.168
36105W        W 4578  10.730  27.985   0.836
36106W        W 4579  31.014   9.658  12.071
36107W        W 4580  19.193  42.306  12.922
36108W        W 4581  30.556  18.790  14.494
36109W        W 4582  16.152   8.828  14.344
36110W        W 4583  11.671  28.952  14.494
36111W        W 4584   5.801  24.644   4.266
36112W        W 4585  40.930  15.127   2.752
36113W        W 4586  15.658  33.594   5.132
36114W        W 4587   9.774  18.294   4.202
36115W        W 4588   8.223  28.468  14.868
36116W        W 4589  42.899  18.608  10.982
36117W        W 4590  40.907   5.403  14.927
36118W        W 4591  16.716  22.533   0.472
36119W        W 4592  41.928  39.996   0.757
36120W        W 4593   9.691  20.637   2.257
36121W        W 4594  21.719  37.439  13.489
36122W        W 4595  38.440  15.097   2.807
36123W        W 4596  37.909  26.586   4.289
36124W        W 4597  27.149  27.636   3.816
36125W        W 4598   9.789  23.498  14.917
36126W        W 4599  29.121  39.879   2.844
36127W        W 4600  40.872  24.167   1.298
36128W        W 4601  43.445  40.050  12.893
36129W        W 4602  39.340  15.777   4.746
36130W        W 4603  29.477  26.029   3.368
36131W        W 4604   7.843   0.872  10.090
36132W        W 4605   9.241  27.123  10.572
36133W        W 4606  33.602  44.325  12.510
36134W        W 4607  13.280  37.438  11.126
36135W        W 4608  43.824  14.276  14.437
36136W        W 4609  18.235   4.229  13.466
36137W        W 4610  41.964  22.051   3.668
36138W        W 4611  14.127  33.515  11.913
36139W        W 4612  10.171   4.753   1.357
36140W        W 4613  13.129  13.610  14.514
36141W        W 4614  42.929  17.242  12.980
36142W        W 4615  41.982  17.634   3.664
36143W        W 4616   0.947   9.884  11.992
36144W        W 4617  11.202  31.105  10.977
36145W        W 4618  20.051   4.240  13.967
36146W        W 4619  11.649   2.821   4.650
36147W        W 4620  39.994  42.342  11.478
36148W        W 4621  27.500   9.270   4.813
36149W        W 4622  38.007  14.324  11.519
36150W        W 4623  11.208  26.619   4.769
36151W        W 4624  28.183  14.195   4.727
36152W        W 4625  37.914  37.872  10.945
36153W        W 4626  17.133  38.365  11.541
36154W        W 4627   2.425  17.671   1.737
36155W        W 4628  27.196  21.594   1.372
36156W        W 4629  16.167  21.056   2.230
36157W        W 4630   5.328  31.466  13.845
36158W        W 4631  42.420  24.494  11.514
36159W        W 4632  25.562  15.631   4.748
36160W        W 4633  28.099  43.974   1.786
36161W        W 4634  38.921   6.680   2.674
36162W        W 4635  38.514   5.380   1.369
36163W        W 4636   3.451  21.628  12.577
36164W        W 4637  21.060  37.416  13.896
36165W        W 4638  26.000  16.172  14.334
36166W        W 4639   3.227  13.670   4.680
36167W        W 4640  41.004   9.830   0.807
36168W        W 4641  39.385  37.854  10.939
36169W        W 4642  17.713  22.667   2.365
36170W        W 4643   4.843   8.656   1.925
36171W        W 4644   9.682  12.777  12.454
36172W        W 4645  28.585  39.374  10.426
36173W        W 4646  19.653  15.170  13.502
36174W        W 4647  32.133  14.274   3.265
36175W        W 4648   7.219  31.036   4.131
36176W        W 4649  25.981  25.703   0.252
36177W        W 4650   4.856  34.111   3.183
36178W        W 4651  22.615  42.406   3.761
36179W        W 4652   6.348  44.332   4.211
36180W        W 4653  37.068   7.210   0.763
36181W        W 4654  41.926  17.291   0.905
36182W        W 4655  31.593  16.760   3.230
36183W        W 4656  29.668  14.264   4.681
36184W        W 4657  29.532  34.607   2.282
36185W        W 4658  10.677  10.382  14.911
36186W        W 4659  42.325  40.987   1.449
36187W        W 4660  26.000  16.724   3.800
36188W        W 4661  12.791   0.957  14.484
36189W        W 4662  30.560  31.489  12.935
36190W        W 4663  11.294  13.130  12.020
36191W        W 4664  24.724  23.540   2.771
36192W        W 4665  42.008  25.617   2.289
36193W        W 4666  44.350  13.832  14.796
36194W        W 4667   4.818   8.719   0.302
36195W        W 4668  39.487  35.372  13.853
36196W        W 4669   8.168  24.070   0.876
36197W        W 4670  33.393  38.393  11.022
36198W        W 4671  43.965  42.032   2.880
36199W        W 4672  28.978  27.150  10.920
36200W        W 4673   6.306  41.790  12.550
36201W        W 4674  44.992  26.640  13.908
36202W        W 4675   9.755  12.329   2.789
36203W        W 4676  39.897   6.261  12.919
36204W        W 4677  29.446  27.036  11.866
36205W        W 4678   9.312  23.620  13.048
36206W        W 4679  16.074  23.500   1.735
36207W        W 4680   0.800   6.713   2.798
36208W        W 4681  41.850  24.625   1.769
36209W        W 4682  22.071  11.211   1.884
36210W        W 4683  31.646   2.764   3.256
36211W        W 4684  30.572   1.321   1.224
36212W        W 4685  13.236  22.243  12.374
36213W        W 4686   2.268  42.401  12.874
36214W        W 4687   0.884  34.897  14.304
36215W        W 4688  16.661  34.566   2.810
36216W        W 4689  11.653  27.158  10.110
36217W        W 4690   8.351  36.971  14.277
36218W        W 4691  15.304  30.050   3.678
36219W        W 4692  41.925  40.406   4.127
36220W        W 4693  39.415  35.861   2.276
36221W        W 4694  38.369   1.890  14.995
36222W        W 4695  28.981  15.272   0.796
36223W        W 4696  29.067  30.462   2.812
36224W        W 4697  22.669  22.034  14.480
36225W        W 4698  15.202  39.949   1.879
36226W        W 4699  24.041   0.925   3.299
36227W        W 4700  13.311  15.131   1.749
36228W        W 4701  43.329   8.816  11.886
36229W        W 4702  23.052  38.884   1.855
36230W        W 4703  31.019  21.658   3.839
36231W        W 4704   1.412  18.271   0.386
36232W        W 4705  39.433  42.018   0.811
36233W        W 4706   5.334   5.912   4.248
36234W        W 4707  30.050  37.978   3.250
36235W        W 4708  24.100   2.300   4.284
36236W        W 4709  16.685  40.895  13.368
36237W        W 4710  22.588  18.697   2.199
36238W        W 4711  40.476   2.869  14.857
36239W        W 4712  28.503   1.304   4.710
36240W        W 4713   2.306  19.637   1.282
36241W        W 4714  30.955  32.396   0.245
36242W        W 4715  17.640   5.342  12.077
36243W        W 4716  24.142  36.885   3.853
36244W        W 4717  16.183  14.788   0.406
36245W        W 4718  42.294  41.881  14.971
36246W        W 4719  38.857  22.504  11.590
36247W        W 4720  23.630   8.840  11.974
36248W        W 4721  36.997  30.413   3.667
36249W        W 4722  27.180  23.686   0.323
36250W        W 4723  31.036  31.637   0.411
36251W        W 4724   7.198  22.187  11.981
36252W        W 4725  17.167  29.537  12.541
36253W        W 4726  17.285   1.793  11.045
36254W        W 4727   7.347  12.694  12.361
36255W        W 4728   9.295   8.771   4.831
36256W        W 4729  32.604   8.887   0.737
36257W        W 4730  17.606  34.448   4.757
36258W        W 4731   0.874  16.189   2.795
36259W        W 4732  30.482  23.169   4.642
36260W        W 4733  41.348  30.474   2.673
36261W        W 4734  19.544  33.437   2.716
36262W        W 4735  43.935  23.531   0.438
36263W        W 4736  30.016   5.266   0.788
36264W        W 4737  17.786   9.295   3.714
36265W        W 4738  28.596  12.743   4.653
36266W        W 4739  13.766  23.224  13.499
36267W        W 4740  17.615  34.100   3.240
36268W        W 4741   9.219  15.092   3.301
36269W        W 4742  33.083  17.294  10.414
36270W        W 4743  12.785  44.933  12.549
36271W        W 4744  16.119  24.062  11.071
36272W        W 4745  38.362   2.314  10.615
36273W        W 4746  19.203  33.514   0.479
36274W        W 4747  36.519  19.246  11.907
36275W        W 4748  18.137   2.368  14.915
36276W        W 4749  33.615  31.503   4.702
36277W        W 4750  10.849  24.691  14.384
36278W        W 4751   0.485  27.581   4.713
36279W        W 4752  21.517  38.557   3.682
36280W        W 4753  10.258   6.807   4.637
36281W        W 4754  35.424  29.043   1.807
36282W        W 4755  40.397  37.500  10.938
36283W        W 4756  16.728   8.236   4.212
36284W        W 4757  24.513  31.030   3.637
36285W        W 4758   3.397  19.278  13.885
36286W        W 4759   1.921   5.241  12.838
36287W        W 4760   1.283  43.306  13.446
36288W        W 4761  17.065  15.819   0.360
36289W        W 4762  39.862  38.431  12.358
36290W        W 4763   7.258   3.234   0.829
36291W        W 4764  28.484  18.138  10.442
36292W        W 4765  30.133  36.057   1.367
36293W        W 4766  24.168  34.431  12.485
36294W        W 4767  23.497  14.249   0.802
36295W        W 4768  32.132  40.484   5.194
36296W        W 4769  35.497  33.417  11.484
36297W        W 4770   3.763   7.181  12.390
36298W        W 4771  25.648   9.801  12.400
36299W        W 4772   3.304  25.188  10.581
36300W        W 4773  26.039  27.159   4.320
36301W        W 4774  41.033   0.772  11.941
36302W        W 4775  10.717  14.193   4.345
36303W        W 4776  17.073   1.968  10.575
36304W        W 4777  10.245  39.544  10.456
36305W        W 4778  10.653  30.491   1.219
36306W        W 4779  36.911   9.316  11.947
36307W        W 4780  19.046  33.920   4.242
36308W        W 4781  15.100  33.891  13.355
36309W        W 4782  16.245  23.558   3.266
36310W        W 4783  38.017  41.947  10.530
36311W        W 4784  43.365  33.948   0.824
36312W        W 4785  16.286   8.686   2.880
36313W        W 4786  43.803  20.704   1.278
36314W        W 4787   0.864  29.130  11.526
36315W        W 4788   7.247  10.869   1.917
36316W        W 4789  24.205   0.354  14.818
36317W        W 4790   7.231   4.893   0.894
36318W        W 4791  38.905  24.021   4.602
36319W        W 4792  11.252  30.142  10.592
36320W        W 4793  39.503  31.642  13.979
36321W        W 4794  28.522   0.374   0.776
36322W        W 4795  37.464  22.245  11.095
36323W        W 4796  30.070  36.909   0.278
36324W        W 4797  36.921   9.261   2.201
36325W        W 4798   3.786  40.465   2.199
36326W        W 4799  38.877   8.775  14.017
36327W        W 4800   8.289  13.793  11.535
36328W        W 4801  11.736  12.730   4.767
36329W        W 4802  41.922   1.250   2.244
36330W        W 4803  36.996   8.680  14.954
36331W        W 4804  34.588   7.272   2.382
36332W        W 4805  27.547  11.203   1.730
36333W        W 4806  25.009  23.155  12.879
36334W        W 4807  29.144  27.538  14.814
36335W        W 4808  21.711  12.735   2.887
36336W        W 4809  15.729  34.076  11.594
36337W        W 4810  32.637  18.660   3.710
36338W        W 4811  23.587   6.344  12.440
36339W        W 4812  18.095  20.182  13.331
36340W        W 4813   0.835  32.026  14.793
36341W        W 4814   5.289  30.102  10.538
36342W        W 4815  38.866  11.326   4.691
36343W        W 4816   4.774  41.335  10.109
36344W        W 4817  32.070  17.306  12.090
36345W        W 4818  28.017   4.345  11.912
36346W        W 4819  25.041  39.528  14.887
36347W        W 4820  18.290  37.367   4.207
36348W        W 4821  19.755   1.933  13.325
36349W        W 4822  29.981  13.709  12.885
36350W        W 4823  26.183   0.755  10.052
36351W        W 4824  37.075  41.526   3.664
36352W        W 4825  20.745   0.812  12.477
36353W        W 4826  28.162  23.635  13.317
36354W        W 4827  12.657  17.106   2.380
36355W        W 4828  12.281  21.630  12.467
36356W        W 4829  11.793  28.036   1.321
36357W        W 4830  25.502   4.892   1.360
36358W        W 4831  44.270  21.673   1.907
36359W        W 4832  43.963   0.405   2.357
36360W        W 4833  10.777   8.319   3.720
36361W        W 4834  16.598   2.803   3.810
36362W        W 4835   6.388  19.591   3.723
36363W        W 4836  14.716  28.455  13.893
36364W        W 4837  20.692  44.259   0.908
36365W        W 4838  23.514  16.300   2.306
36366W        W 4839   5.325  23.091  12.465
36367W        W 4840  25.636  31.560  12.850
36368W        W 4841   5.193  42.939   3.728
36369W        W 4842  44.319  11.151  14.443
36370W        W 4843  42.870  21.739   3.347
36371W        W 4844  41.297  40.536  11.924
36372W        W 4845   3.891  34.026  14.335
36373W        W 4846   6.238  33.484  10.545
36374W        W 4847   1.335   7.264  14.335
36375W        W 4848   2.827  22.729   2.768
36376W        W 4849  44.942  21.065  12.573
36377W        W 4850  28.636   1.833   0.805
36378W        W 4851  16.205   1.881   3.239
36379W        W 4852  30.962  17.696   0.263
36380W        W 4853   8.821  40.414  13.971
36381W        W 4854   8.296  39.951   1.286
36382W        W 4855  34.036  41.487   2.842
36383W        W 4856  10.380  13.693   3.630
36384W        W 4857  44.945   6.358  14.809
36385W        W 4858   1.407   4.365  11.014
36386W        W 4859  13.702   9.201  14.020
36387W        W 4860  33.609  11.165   3.364
36388W        W 4861  41.926  34.386   2.882
36389W        W 4862  41.035  19.667   2.801
36390W        W 4863   7.276  35.040   1.850
36391W        W 4864  35.085  32.910  12.969
36392W        W 4865  27.573   1.892   2.808
36393W        W 4866   5.316  25.499   0.412
36394W        W 4867  40.046  27.558  13.982
36395W        W 4868  13.620  14.751   1.745
36396W        W 4869  24.034  29.573   1.256
36397W        W 4870   7.347  12.832  12.090
36398W        W 4871   8.752  24.639  12.380
36399W        W 4872  31.645  27.017   3.365
36400W        W 4873  31.112  29.510   2.892
36401W        W 4874  40.923  40.313  13.826
36402W        W 4875  29.918  10.845  13.451
36403W        W 4876  28.511  42.338   3.363
36404W        W 4877  23.235   0.801   3.312
36405W        W 4878  10.265  36.878   0.796
36406W        W 4879   5.438  21.177  11.431
36407W        W 4880  15.657  24.133   4.238
36408W        W 4881  37.527  17.555   1.743
36409W        W 4882   6.772  33.545   0.794
36410W        W 4883  15.632   7.307  11.385
36411W        W 4884  30.112   9.785  14.497
36412W        W 4885  30.975  43.404  13.020
36413W        W 4886  34.875  14.817  12.049
36414W        W 4887  27.088   4.436   4.285
36415W        W 4888   2.446  31.468   1.385
36416W        W 4889   8.667  20.157  13.361
36417W        W 4890  37.415  35.413   4.760
36418W        W 4891  40.898  34.435   4.212
36419W        W 4892  22.223   9.751   3.758
36420W        W 4893   8.216  35.865  11.019
36421W        W 4894  40.390  21.078   1.356
36422W        W 4895  22.706  34.984   3.329
36423W        W 4896  13.631  38.556   1.827
36424W        W 4897  17.277  40.980   3.184
36425W        W 4898  34.516  14.684   2.865
36426W        W 4899  29.966   6.730   4.298
36427W        W 4900   9.161   6.810  14.331
36428W        W 4901  36.466  28.138   4.143
36429W        W 4902   2.229   5.852   1.228
36430W        W 4903  13.334  26.056  11.996
36431W        W 4904  32.130   8.212   3.710
36432W        W 4905  18.286  39.844   4.144
36433W        W 4906  31.973  36.539   3.789
36434W        W 4907  11.752  16.281  11.390
36435W        W 4908  12.634  17.273  13.412
36436W        W 4909   4.338  27.569  14.887
36437W        W 4910  28.541  11.221   0.450
36438W        W 4911  39.466  18.636  11.414
36439W        W 4912  39.988   1.911   1.852
36440W        W 4913  24.101  31.505  11.443
36441W        W 4914   9.856  10.186   1.911
36442W        W 4915   9.355  14.742  14.773
36443W        W 4916   1.339  24.164  11.481
36444W        W 4917  32.493  36.566  14.011
36445W        W 4918  41.814  10.188   4.651
36446W        W 4919  18.126  24.625  10.489
36447W        W 4920  37.030   9.827  13.323
36448W        W 4921  17.241  23.087  11.596
36449W        W 4922  26.527  16.719  14.947
36450W        W 4923  38.967  16.713  12.065
36451W        W 4924  20.267   3.339  10.050
36452W        W 4925   8.382   4.777   1.240
36453W        W 4926  15.764  22.150  11.391
36454W        W 4927   9.808   0.750  12.353
36455W        W 4928  10.670  18.758   3.670
36456W        W 4929  33.109  39.879  14.830
36457W        W 4930   0.455  14.674  13.827
36458W        W 4931  21.740  38.547   0.922
36459W        W 4932   5.420  39.336  12.420
36460W        W 4933  20.709  44.911  12.079
36461W        W 4934  26.592   1.822  14.846
36462W        W 4935  27.989   6.908  14.984
36463W        W 4936  37.935  16.235   2.727
36464W        W 4937  37.435  18.127  14.475
36465W        W 4938  23.987  27.120  14.990
36466W        W 4939  23.063  11.791  10.501
36467W        W 4940  28.108  41.314   3.810
36468W        W 4941   9.702  41.416  10.994
36469W        W 4942  29.020   8.764  11.121
36470W        W 4943   2.795  30.470   4.626
36471W        W 4944   9.241  41.297   2.363
36472W        W 4945  17.207  31.101   2.408
36473W        W 4946  11.181  16.602   4.227
36474W        W 4947  27.144  24.690  12.472
36475W        W 4948  32.075  35.018  14.330
36476W        W 4949   9.369   2.438   0.316
36477W        W 4950  14.233  30.433  14.930
36478W        W 4951  17.608   3.943  10.582
36479W        W 4952  17.062  11.304  13.538
36480W        W 4953  19.769   3.322   4.717
36481W        W 4954  41.944  24.138   2.396
36482W        W 4955  10.308  26.483   0.787
36483W        W 4956  35.603   3.823  12.065
36484W        W 4957  23.228  11.287  14.852
36485W        W 4958  17.661  24.651  10.940
36486W        W 4959  15.157  27.495  13.362
36487W        W 4960  38.550  29.552   3.360
36488W        W 4961  17.573  28.991   3.629
36489W        W 4962  11.859  30.956   0.859
36490W        W 4963  38.923   1.262  14.421
36491W        W 4964  21.242  21.120   2.682
36492W        W 4965  22.182   4.336  13.947
36493W        W 4966   6.304  38.534   2.403
36494W        W 4967  30.065  11.339   2.895
36495W        W 4968  35.413  33.924   0.792
36496W        W 4969  39.456   2.331  10.921
36497W        W 4970  29.478  31.415  11.579
36498W        W 4971  13.741   4.211  11.408
36499W        W 4972   8.265   8.220   2.665
36500W        W 4973  34.872  27.137  10.943
36501W        W 4974   5.206  13.837   3.364
36502W        W 4975  20.763  32.011  11.877
36503W        W 4976  43.510  21.649  11.399
36504W        W 4977  17.248   7.231   0.459
36505W        W 4978   0.835  21.087  14.463
36506W        W 4979  13.178  37.991  13.316
36507W        W 4980  28.024  42.299  10.433
36508W        W 4981  20.717  44.284   3.733
36509W        W 4982  37.844   6.377   3.867
36510W        W 4983  33.574  43.017   3.317
36511W        W 4984   5.282  30.158   0.321
36512W        W 4985   3.932  24.516  12.042
36513W        W 4986  23.091  12.283   5.297
36514W        W 4987  32.887  13.719  12.041
36515W        W 4988  18.666  31.591   4.696
36516W        W 4989  17.132   6.258   0.270
36517W        W 4990   0.295  18.745  11.916
36518W        W 4991  11.192  15.181   0.748
36519W        W 4992   8.382  43.505  14.356
36520W        W 4993  29.534  43.495  11.099
36521W        W 4994  29.968  31.412  14.339
36522W        W 4995   1.477  24.526  14.474
36523W        W 4996  19.693   4.758  13.792
36524W        W 4997   8.790  23.681   2.880
36525W        W 4998   5.393  43.509   0.349
36526W        W 4999   4.368  25.980   3.636
36527W        W 5000  24.227  34.600   0.432
36528W        W 5001  25.614  33.945   0.356
36529W        W 5002   9.658  42.383  11.902
36530W        W 5003  13.762  29.547  12.924
36531W        W 5004  36.981  27.590  12.482
36532W        W 5005   3.818  11.148  12.507
36533W        W 5006  42.793  35.078  12.834
36534W        W 5007  15.221  37.453   2.780
36535W        W 5008  24.146   9.250   1.796
36536W        W 5009  29.989  24.177   5.643
36537W        W 5010  22.747  30.501  13.832
36538W        W 5011   7.171  31.957  12.491
36539W        W 5012   4.398  16.084  13.484
36540W        W 5013   2.927   0.953   2.209
36541W        W 5014  41.966  28.949  14.367
36542W        W 5015  17.604  33.514  10.992
36543W        W 5016  12.832  22.236  11.935
36544W        W 5017  12.356  18.730   2.739
36545W        W 5018  36.526  16.316   0.363
36546W        W 5019   4.717  19.695  10.948
36547W        W 5020  35.105  10.643  14.021
36548W        W 5021  32.435  38.531   0.306
36549W        W 5022  35.495  27.175  10.982
36550W        W 5023  25.516   2.840  11.894
36551W        W 5024   0.965  23.604   1.417
36552W        W 5025   4.871  18.680   2.418
36553W        W 5026  32.558   0.324   2.346
36554W        W 5027   6.341  41.000  12.579
36555W        W 5028  37.973  14.763  11.946
36556W        W 5029  13.828  38.926  12.442
36557W        W 5030  23.566  22.181   4.344
36558W        W 5031  43.886  15.704  10.502
36559W        W 5032  13.237  12.162  13.950
36560W        W 5033  41.940   9.319   3.241
36561W        W 5034   2.457  43.969   2.246
36562W        W 5035  26.171  40.894   3.149
36563W        W 5036  44.473  27.652   9.986
36564W        W 5037  44.774  27.977  11.496
36565W        W 5038  43.379   1.951   4.757
36566W        W 5039  14.117  20.558   1.766
36567W        W 5040  18.719  43.986   0.330
36568W        W 5041  17.113  16.135   1.280
36569W        W 5042  29.050  15.255   2.210
36570W        W 5043  39.411  39.011  10.996
36571W        W 5044  43.781  36.996  14.872
36572W        W 5045  36.879   3.376  11.093
36573W        W 5046  32.022   8.861  14.980
36574W        W 5047  44.981  35.924  11.861
36575W        W 5048  17.165  32.512   0.752
36576W        W 5049   7.229  13.762   1.443
36577W        W 5050  14.276  36.971  10.406
36578W        W 5051  25.018  26.142  12.095
36579W        W 5052   2.842   8.840   2.840
36580W        W 5053  18.263  21.745  14.309
36581W        W 5054  19.203  11.647   4.663
36582W        W 5055  14.593  38.472   4.325
36583W        W 5056  19.231   2.400   0.409
36584W        W 5057  33.608   7.825  12.524
36585W        W 5058  23.696   9.184   2.782
36586W        W 5059  40.929  41.805  14.438
36587W        W 5060  28.045   4.299   0.840
36588W        W 5061   4.730  43.840   2.336
36589W        W 5062   9.733  18.739  13.811
36590W        W 5063  41.983  41.896   0.330
36591W        W 5064  18.222   5.926   2.274
36592W        W 5065   5.742  28.592   4.814
36593W        W 5066  14.200  16.105   0.746
36594W        W 5067  32.574  44.763   5.797
36595W        W 5068  20.630  15.582   2.703
36596W        W 5069   1.424   3.817   3.816
36597W        W 5070  42.854  40.368  11.864
36598W        W 5071   1.306  23.529   4.128
36599W        W 5072   9.375  17.286   0.374
36600W        W 5073  35.980   6.884   4.354
36601W        W 5074  27.672  15.130   3.779
36602W        W 5075   1.821  38.930  14.901
36603W        W 5076  27.495   4.268   0.267
36604W        W 5077  31.495  15.140  13.939
36605W        W 5078  31.478  34.015   4.281
36606W        W 5079  24.612  27.046   2.384
36607W        W 5080  15.083  17.641  13.425
36608W        W 5081  16.763  31.437   4.825
36609W        W 5082  41.839   4.708   0.749
36610W        W 5083   0.426   3.756  11.532
36611W        W 5084  12.646   8.703   0.433
36612W        W 5085  20.263   4.309  14.996
36613W        W 5086  43.898  23.534  14.421
36614W        W 5087  37.361   9.772   1.795
36615W        W 5088   9.840  40.828   0.427
36616W        W 5089  16.789  23.194   3.649
36617W        W 5090  18.084  19.656  13.474
36618W        W 5091  33.081  32.931   2.848
36619W        W 5092  32.118  12.161  10.493
36620W        W 5093  10.319  44.305   1.762
36621W        W 5094  42.854  25.109  14.930
36622W        W 5095  15.183  35.545  14.816
36623W        W 5096  17.759  28.996  12.841
36624W        W 5097  44.387  44.388  14.327
36625W        W 5098  41.986  10.259  14.501
36626W        W 5099  37.007  13.244  11.888
36627W        W 5100  32.040  44.854   0.871
36628W        W 5101  17.153  39.503   2.333
36629W        W 5102  39.348  41.348   2.851
36630W        W 5103  23.164  18.126  13.026
36631W        W 5104  41.464   0.961   2.217
36632W        W 5105  36.573  18.769   1.243
36633W        W 5106   4.713   9.212  14.368
36634W        W 5107  14.101  19.538  14.837
36635W        W 5108  20.171  21.026   3.205
36636W        W 5109  27.165  19.615  10.906
36637W        W 5110  18.675   3.901   2.232
36638W        W 5111  27.635  15.741  14.851
36639W        W 5112  14.818  27.107   0.249
36640W        W 5113  36.987  44.883  11.058
36641W        W 5114  31.526  34.434  12.541
36642W        W 5115  23.208  39.828   0.938
36643W        W 5116  24.119  11.215   1.806
36644W        W 5117  43.802  15.688  12.388
36645W        W 5118  11.644  37.926  12.855
36646W        W 5119   1.859  12.784  12.001
36647W        W 5120   9.365  40.497  13.928
36648W        W 5121   9.755  13.254   1.307
36649W        W 5122  22.243  39.324  12.827
36650W        W 5123   7.236  32.059   1.394
36651W        W 5124   9.263   8.772  11.969
36652W        W 5125  42.320  38.450   0.795
36653W        W 5126  25.210  38.507   0.910
36654W        W 5127  30.111  43.408  10.976
36655W        W 5128  24.522  39.466  13.525
36656W        W 5129  13.677   9.149  14.366
36657W        W 5130  12.221  44.960  14.967
36658W        W 5131  28.647  35.033   3.740
36659W        W 5132   9.390  15.289  14.370
36660W        W 5133   2.319  35.399   3.698
36661W        W 5134  37.902   0.327   1.878
36662W        W 5135  35.953  12.174  11.492
36663W        W 5136  33.974   0.745  12.424
36664W        W 5137   2.430  33.110   2.766
36665W        W 5138   5.195  33.946  10.514
36666W        W 5139  20.633   0.856   1.442
36667W        W 5140   1.398   7.367  11.067
36668W        W 5141  35.981  27.517  13.520
36669W        W 5142  15.749  12.845   1.696
36670W        W 5143  44.894  36.555   4.255
36671W        W 5144  37.023  14.779  13.373
36672W        W 5145   5.932  30.419  11.473
36673W        W 5146   7.277  40.917  12.554
36674W        W 5147  24.590   1.435  12.882
36675W        W 5148  22.247  18.734   1.916
36676W        W 5149   5.306  34.442   2.380
36677W        W 5150  20.089  39.996  12.369
36678W        W 5151  12.769  29.607  13.358
36679W        W 5152  41.371  27.942   4.601
36680W        W 5153  14.108  33.108   4.658
36681W        W 5154  20.697  33.557   2.844
36682W        W 5155  13.323   4.940  14.778
36683W        W 5156  30.540  32.568  12.460
36684W        W 5157  18.648  31.150   4.732
36685W        W 5158  22.687  43.507   3.367
36686W        W 5159   4.943  38.940   5.162
36687W        W 5160  17.298  39.031   3.224
36688W        W 5161  37.444  12.724  10.544
36689W        W 5162  22.009  44.277   2.384
36690W        W 5163  15.191   1.957   0.865
36691W        W 5164  43.892  17.147  13.986
36692W        W 5165  15.795  40.028   3.206
36693W        W 5166  29.555  26.038  13.530
36694W        W 5167  32.428  23.667  12.538
36695W        W 5168  10.226   4.330  11.428
36696W        W 5169  42.817  37.891  11.039
36697W        W 5170  17.668  27.657   3.333
36698W        W 5171  16.799  23.586  11.868
36699W        W 5172  21.725  34.558   1.709
36700W        W 5173  37.964   3.722   0.810
36701W        W 5174   4.361   1.762  13.880
36702W        W 5175  38.565  36.391  14.366
36703W        W 5176  14.312  28.053  11.053
36704W        W 5177   9.222  26.635  12.540
36705W        W 5178   4.772  38.453   3.700
36706W        W 5179  41.378  35.520  11.876
36707W        W 5180  39.356   1.481  14.770
36708W        W 5181   0.752  35.384   4.834
36709W        W 5182  31.108  11.345  12.520
36710W        W 5183   3.218  30.618   4.738
36711W        W 5184  43.385   2.851   2.688
36712W        W 5185  20.125   7.796  10.550
36713W        W 5186  34.883   1.743   3.378
36714W        W 5187   3.404  41.514   0.892
36715W        W 5188  10.261  31.047  11.518
36716W        W 5189  44.799  21.561  14.283
36717W        W 5190  34.420  36.093  14.490
36718W        W 5191  26.182  37.460   1.734
36719W        W 5192  19.040   6.190   4.168
36720W        W 5193  12.361  33.466   3.230
36721W        W 5194  31.130  11.372  14.456
36722W        W 5195  35.059  29.667  14.791
36723W        W 5196  42.000  32.534   4.330
36724W        W 5197  10.691  44.893   3.694
36725W        W 5198  30.945  14.105   4.715
36726W        W 5199  37.358  29.492  12.844
36727W        W 5200   0.336  40.417   3.375
36728W        W 5201  33.513   0.360   4.177
36729W        W 5202   5.265  39.060  12.564
36730W        W 5203   9.257  20.171   1.433
36731W        W 5204   7.356  36.361  11.123
36732W        W 5205   6.887  41.034  10.542
36733W        W 5206   8.794  21.689   4.262
36734W        W 5207  43.506  44.766   0.936
36735W        W 5208  34.614   0.436   0.264
36736W        W 5209   6.319  15.166   3.654
36737W        W 5210  38.408  25.166  14.919
36738W        W 5211  41.004  11.782  13.448
36739W        W 5212  21.083  14.195  14.334
36740W        W 5213  43.343   4.793  12.901
36741W        W 5214   3.448   9.163  12.410
36742W        W 5215  33.037  42.954  14.901
36743W        W 5216   4.324  33.040  13.481
36744W        W 5217  30.995  10.204  12.858
36745W        W 5218   6.331   6.256  10.996
36746W        W 5219  27.588  23.995   1.324
36747W        W 5220  33.470  29.635  13.023
36748W        W 5221  14.597   9.881  13.943
36749W        W 5222  21.708   2.241   3.210
36750W        W 5223  29.126  36.443  14.861
36751W        W 5224  43.995  29.624   4.637
36752W        W 5225  41.927  33.389   4.352
36753W        W 5226   6.735   0.854   3.242
36754W        W 5227  44.320   6.805  10.538
36755W        W 5228  40.994   3.776   2.277
36756W        W 5229  10.212  34.452   1.919
36757W        W 5230  21.576  33.519  10.524
36758W        W 5231  30.618  25.614  11.089
36759W        W 5232  12.647  35.520   0.398
36760W        W 5233   6.726  29.950   4.603
36761W        W 5234  11.237  15.151   3.229
36762W        W 5235  22.024  26.487   1.320
36763W        W 5236  17.718   2.407  11.084
36764W        W 5237   7.368   4.787  13.883
36765W        W 5238  44.792   9.319  10.456
36766W        W 5239  26.532   0.816  10.943
36767W        W 5240  25.700  37.519  13.432
36768W        W 5241  36.870  43.774   1.888
36769W        W 5242  24.029   2.446   3.220
36770W        W 5243   1.901  19.092  12.026
36771W        W 5244  17.758  11.838   4.216
36772W        W 5245   9.264  24.073  10.459
36773W        W 5246  30.611   1.869  13.802
36774W        W 5247   7.409  10.744   1.342
36775W        W 5248   6.244  19.219  13.793
36776W        W 5249  32.998  44.429  10.918
36777W        W 5250   9.304  30.615   3.346
36778W        W 5251  12.809  42.343   0.267
36779W        W 5252  19.689   6.711  12.842
36780W        W 5253  19.653  12.642  11.582
36781W        W 5254  18.293  44.818  13.382
36782W        W 5255   6.200   5.301   1.373
36783W        W 5256   0.314   5.816  12.873
36784W        W 5257   3.449  44.291  12.440
36785W        W 5258   9.254   1.478  13.901
36786W        W 5259  26.137  16.291  12.545
36787W        W 5260  10.380  42.454  14.875
36788W        W 5261  20.264  15.281   2.255
36789W        W 5262  37.841  19.259   1.427
36790W        W 5263  27.019  40.531  14.788
36791W        W 5264  44.330  24.630  12.431
36792W        W 5265   9.201  33.947   5.130
36793W        W 5266  42.030  44.374  14.910
36794W        W 5267  29.577  33.438   4.195
36795W        W 5268   2.333  44.422  11.510
36796W        W 5269  15.245   4.311  10.552
36797W        W 5270  29.532  42.352   2.750
36798W        W 5271   1.259  20.691  14.787
36799W        W 5272  37.511  13.154   1.908
36800W        W 5273  23.605  15.640   3.221
36801W        W 5274  43.363  13.150  14.486
36802W        W 5275   6.908   8.394  12.938
36803W        W 5276  35.869  16.750  12.515
36804W        W 5277  15.758  37.370   5.695
36805W        W 5278   7.197   0.443  11.543
36806W        W 5279   7.774  23.632  11.082
36807W        W 5280   6.397  23.570   1.917
36808W        W 5281  26.996  26.080  12.558
36809W        W 5282  36.078  16.578  13.367
36810W        W 5283   0.745   1.824   1.933
36811W        W 5284  30.439  37.847  12.058
36812W        W 5285  18.635  10.740   3.762
36813W        W 5286   0.816  37.046   1.216
36814W        W 5287  30.573  36.018  13.978
36815W        W 5288   2.917  37.404   1.706
36816W        W 5289   9.684  25.993   3.228
36817W        W 5290  27.114   8.861  10.455
36818W        W 5291   2.451  29.024  12.566
36819W        W 5292  33.874  32.415  14.441
36820W        W 5293  31.434  43.856   0.437
36821W        W 5294   6.748  25.003   1.358
36822W        W 5295   0.958   2.956   2.406
36823W        W 5296  35.379  11.696  14.475
36824W        W 5297  31.015  16.704  14.314
36825W        W 5298  28.930  40.854  14.360
36826W        W 5299   2.230  28.030  10.564
36827W        W 5300  31.068  11.152  11.911
36828W        W 5301  24.631  20.059  13.320
36829W        W 5302  16.700  40.381  11.378
36830W        W 5303   2.413  21.653   3.306
36831W        W 5304  26.688  24.094  12.869
36832W        W 5305   5.409  17.795  11.591
36833W        W 5306  19.732  34.925  13.436
36834W        W 5307  21.567   1.393   1.346
36835W        W 5308  10.306  28.990  11.561
36836W        W 5309  26.099  19.621   1.750
36837W        W 5310  38.055  39.974  11.056
36838W        W 5311  19.589  25.093  12.454
36839W        W 5312  33.012  26.195  12.012
36840W        W 5313  40.903  27.945  11.978
36841W        W 5314  38.923  24.601   0.767
36842W        W 5315  37.496   4.433  12.566
36843W        W 5316  41.522  23.997   4.653
36844W        W 5317  24.190  41.372  14.403
36845W        W 5318   7.882  32.022   3.283
36846W        W 5319  20.032  13.287  13.471
36847W        W 5320  22.223  30.466  11.553
36848W        W 5321   6.213  30.110   4.802
36849W        W 5322  11.136   6.838  14.448
36850W        W 5323  24.980  35.395  11.927
36851W        W 5324  44.844  17.707  10.494
36852W        W 5325  26.468  18.553  10.607
36853W        W 5326  36.893  39.998   4.604
36854W        W 5327  17.175  19.109   4.726
36855W        W 5328  37.922  38.365   4.291
36856W        W 5329  33.076  28.639   4.773
36857W        W 5330   0.445  44.880   3.249
36858W        W 5331   5.904  19.266  13.390
36859W        W 5332   3.302   5.859   0.353
36860W        W 5333   8.297  27.538   0.776
36861W        W 5334   0.287  29.011   1.221
36862W        W 5335   1.420  10.193   4.805
36863W        W 5336  39.850  37.371   1.332
36864W        W 5337  44.279  32.020   2.728
36865W        W 5338  38.891  24.221  12.900
36866W        W 5339  13.296  37.558   2.723
36867W        W 5340  12.846  41.502  13.487
36868W        W 5341  33.008  15.663  10.969
36869W        W 5342  13.154  31.457  14.874
36870W        W 5343  10.849  21.229   4.726
36871W        W 5344   1.951  25.502   3.330
36872W        W 5345  19.247  12.217  10.417
36873W        W 5346  30.637  29.640   4.164
36874W        W 5347  18.769   5.248   1.711
36875W        W 5348  24.010  44.498   3.808
36876W        W 5349  16.694  15.810  14.803
36877W        W 5350  27.154  24.170   2.222
36878W        W 5351  19.055  40.938  12.070
36879W        W 5352  39.834  20.655  12.568
36880W        W 5353  21.724   1.420   3.774
36881W        W 5354   4.413   8.261  10.639
36882W        W 5355  17.671  30.658  13.898
36883W        W 5356   5.728  15.626  12.899
36884W        W 5357  41.974  37.936   3.333
36885W        W 5358  15.156   1.736   1.267
36886W        W 5359  31.418   7.740   1.229
36887W        W 5360  42.359   3.783  14.445
36888W        W 5361  28.988  42.938   3.369
36889W        W 5362  29.520  36.452   4.627
36890W        W 5363  31.042  23.575   5.154
36891W        W 5364   8.329  24.172  11.070
36892W        W 5365  35.945  11.168  14.285
36893W        W 5366  30.451   5.432  11.421
36894W        W 5367   9.199   9.384  14.419
36895W        W 5368  27.518  14.588   1.362
36896W        W 5369  17.244  26.160   0.466
36897W        W 5370  11.283  21.612  12.462
36898W        W 5371  18.213   6.683  12.969
36899W        W 5372   5.848  42.880  10.500
36900W        W 5373   3.244  36.097  13.333
36901W        W 5374  44.932  17.558  12.864
36902W        W 5375  25.995  24.574  11.466
36903W        W 5376  18.154  32.071  12.909
36904W        W 5377  42.950  21.752   3.687
36905W        W 5378  37.580  35.598   3.313
36906W        W 5379  41.375   5.869  12.847
36907W        W 5380   7.718   5.202  14.772
36908W        W 5381  15.795   2.931  11.429
36909W        W 5382  29.037  17.777   4.691
36910W        W 5383  36.499   8.240  14.467
36911W        W 5384  41.466  39.494  13.865
36912W        W 5385  28.086  28.954  10.961
36913W        W 5386  25.684  31.563   4.620
36914W        W 5387  21.712  23.576  11.933
36915W        W 5388  33.984  41.996   4.642
36916W        W 5389  35.906   9.215  14.799
36917W        W 5390   1.788   2.386  13.357
36918W        W 5391  35.454  26.643   0.455
36919W        W 5392  36.354   6.311   1.770
36920W        W 5393  14.242  42.459  12.465
36921W        W 5394   4.841  16.173  14.946
36922W        W 5395  36.870  16.286  11.119
36923W        W 5396  30.136   8.789  12.957
36924W        W 5397  40.807  10.833   4.734
36925W        W 5398  37.019  23.136   3.864
36926W        W 5399  25.059  18.651  10.968
36927W        W 5400  22.571  30.084  11.574
36928W        W 5401   3.386  34.403   2.900
36929W        W 5402  19.716  38.863   0.877
36930W        W 5403  33.969   4.738   1.250
36931W        W 5404  40.330  34.884  12.070
36932W        W 5405  25.104  14.269  13.967
36933W        W 5406  43.318  34.901  11.907
36934W        W 5407   2.931  31.052   2.891
36935W        W 5408  17.153  32.037  11.608
36936W        W 5409  43.989  16.077   0.297
36937W        W 5410  31.033  35.373  13.981
36938W        W 5411  19.584   9.811  12.978
36939W        W 5412  24.119  13.158  14.432
36940W        W 5413  37.528  26.539  13.421
36941W        W 5414  33.591  26.070  14.322
36942W        W 5415  30.999   7.374   2.863
36943W        W 5416  40.496  43.371   3.643
36944W        W 5417   1.850  14.798   1.420
36945W        W 5418  44.328  15.211   3.372
36946W        W 5419   7.213  39.870  14.826
36947W        W 5420   1.449   7.725   4.168
36948W        W 5421  43.356   7.416  10.584
36949W        W 5422   2.812  13.719   0.747
36950W        W 5423  30.051  26.991   2.417
36951W        W 5424  23.170  25.074   5.189
36952W        W 5425  15.229  26.649  12.403
36953W        W 5426   3.406  42.858   2.737
36954W        W 5427  20.527  22.572  13.542
36955W        W 5428   8.388  41.331   2.846
36956W        W 5429  31.555   0.951  12.050
36957W        W 5430  34.543  22.615  11.559
36958W        W 5431  25.699  17.794   2.708
36959W        W 5432  43.822  20.766   3.774
36960W        W 5433  36.017   9.205  11.495
36961W        W 5434   2.468  21.034  14.021
36962W        W 5435  10.639  20.722  13.904
36963W        W 5436  16.270  39.977   1.731
36964W        W 5437  22.658  37.502   4.263
36965W        W 5438  24.157  14.825   0.796
36966W        W 5439  44.349  23.993  11.560
36967W        W 5440  43.858  16.154   3.850
36968W        W 5441  14.699  36.415  12.852
36969W        W 5442  34.428   3.733  14.463
36970W        W 5443  27.652  12.282  10.889
36971W        W 5444   1.361   6.206  11.532
36972W        W 5445   0.350  21.076   1.796
36973W        W 5446  41.375  21.749  12.978
36974W        W 5447  40.048  11.641  10.570
36975W        W 5448  44.497  10.642  13.979
36976W        W 5449  29.446  17.289  14.003
36977W        W 5450  11.669  27.992   5.139
36978W        W 5451  36.847   2.434   1.733
36979W        W 5452  10.755   2.418  11.521
36980W        W 5453  26.571  44.889   1.285
36981W        W 5454  40.031  43.499  11.527
36982W        W 5455  30.525  10.154   4.608
36983W        W 5456  29.633  41.877   3.221
36984W        W 5457  25.977   6.239   3.368
36985W        W 5458  38.500  39.345  14.943
36986W        W 5459  17.594  19.641  11.067
36987W        W 5460  20.742  14.165  12.914
36988W        W 5461  40.855  44.263   2.260
36989W        W 5462   6.903  33.910  13.948
36990W        W 5463  17.748   2.901   2.398
36991W        W 5464  23.510  44.889  13.873
36992W        W 5465  35.556   1.943  14.350
36993W        W 5466  23.502  35.586   0.962
36994W        W 5467  12.637  27.665  13.863
36995W        W 5468  28.163   5.222  14.928
36996W        W 5469  18.132  12.339   3.676
36997W        W 5470  38.880  24.495   3.713
36998W        W 5471  42.869  14.260  11.859
36999W        W 5472   0.975  22.163   0.408
37000W        W 5473   4.699   2.274  11.560
37001W        W 5474  30.575  40.885  14.858
37002W        W 5475  29.432  27.635  14.760
37003W        W 5476  32.921  26.996   4.267
37004W        W 5477  16.113   5.294   1.916
37005W        W 5478  31.041  40.959   0.399
37006W        W 5479   4.720   3.302  10.023
37007W        W 5480  26.991  24.161   4.316
37008W        W 5481  21.661  42.914  11.980
37009W        W 5482   3.232  19.082  12.928
37010W        W 5483  20.183  33.947  12.348
37011W        W 5484  36.845  14.747  13.897
37012W        W 5485   7.391  37.438   2.305
37013W        W 5486  21.082  36.889  13.934
37014W        W 5487  18.586  29.634   2.850
37015W        W 5488  38.361  30.113   3.660
37016W        W 5489  38.023   9.218  11.384
37017W        W 5490  41.511  15.669   3.652
37018W        W 5491   1.452   3.236   2.292
37019W        W 5492   4.217  44.430   1.918
37020W        W 5493   4.709  29.099   0.843
37021W        W 5494  25.110  12.690  11.492
37022W        W 5495   5.268  24.633  13.503
37023W        W 5496  35.096  14.268  10.981
37024W        W 5497   9.179  43.811   0.824
37025W        W 5498  36.465   8.680   3.358
37026W        W 5499  15.311  16.192  10.994
37027W        W 5500   5.403  42.479   3.864
37028W        W 5501   9.191  11.726   3.809
37029W        W 5502  23.504  37.046   4.136
37030W        W 5503  33.077  36.371  13.861
37031W        W 5504  35.403  28.570  13.455
37032W        W 5505  38.904  18.208   0.338
37033W        W 5506  13.640  37.865   2.718
37034W        W 5507  30.980  17.259  10.030
37035W        W 5508  36.921  13.644   1.342
37036W        W 5509  36.942  28.505   3.667
37037W        W 5510  18.585  32.982  11.581
37038W        W 5511  36.467  18.659   0.399
37039W        W 5512  20.234  22.148  10.639
37040W        W 5513   7.407  28.034   3.682
37041W        W 5514  43.770  24.576   4.212
37042W        W 5515  23.090  32.941   3.216
37043W        W 5516  32.059   2.427   1.372
37044W        W 5517   6.863  19.240  11.567
37045W        W 5518   7.262   4.858  10.498
37046W        W 5519  41.902  36.060   1.296
37047W        W 5520  36.533  25.572   0.949
37048W        W 5521  11.793  28.086   2.415
37049W        W 5522  23.581  13.769   1.789
37050W        W 5523  19.664  13.225  12.525
37051W        W 5524   3.387   0.261  14.316
37052W        W 5525  10.783   6.237   3.667
37053W        W 5526  22.016  22.639  11.604
37054W        W 5527  10.716  23.718   0.249
37055W        W 5528   9.666  38.826   3.300
37056W        W 5529  26.636  28.036   1.730
37057W        W 5530   4.298   7.854  10.504
37058W        W 5531  39.019   0.893  11.415
37059W        W 5532   3.271  15.618   9.986
37060W        W 5533   0.882  12.746  14.384
37061W        W 5534  14.279  40.512   4.222
37062W        W 5535  22.545  14.805   4.725
37063W        W 5536  16.302   1.825  12.536
37064W        W 5537  32.553  17.656  13.465
37065W        W 5538  33.015  23.573   2.807
37066W        W 5539  12.311  29.160  12.922
37067W        W 5540  34.551  20.047  13.381
37068W        W 5541  10.646  32.431  12.054
37069W        W 5542   6.352  15.191  11.454
37070W        W 5543   4.717  24.185   2.380
37071W        W 5544  17.715   0.269   1.820
37072W        W 5545  32.070  36.378   2.725
37073W        W 5546   8.271  25.674  14.511
37074W        W 5547   5.700  23.594   3.713
37075W        W 5548  28.666  41.397  11.589
37076W        W 5549  44.326  26.036   0.826
37077W        W 5550  15.727  20.691   9.982
37078W        W 5551   0.902  11.783  14.463
37079W        W 5552  18.070  15.664   3.700
37080W        W 5553  30.657   2.808   1.741
37081W        W 5554   3.741  34.029   3.648
37082W        W 5555  22.135  15.712   0.963
37083W        W 5556  11.180   6.254   3.840
37084W        W 5557  27.660  21.151   4.651
37085W        W 5558  28.609  13.681  10.452
37086W        W 5559  26.151  13.271  10.494
37087W        W 5560  19.700  24.620   1.286
37088W        W 5561   1.826  42.917  11.934
37089W        W 5562  14.104   5.902   3.742
37090W        W 5563   4.292  25.638  11.613
37091W        W 5564   7.228  15.101   3.765
37092W        W 5565  10.326  22.665   3.672
37093W        W 5566  22.603  21.702  12.549
37094W        W 5567  28.671   7.364   0.819
37095W        W 5568  32.402  35.880  14.332
37096W        W 5569  43.796   7.303  12.932
37097W        W 5570  14.299  32.090  14.498
37098W        W 5571  41.304   2.392   2.231
37099W        W 5572  23.137  16.590   4.117
37100W        W 5573  35.923  17.239  13.504
37101W        W 5574  38.329   5.226   4.230
37102W        W 5575  11.803  33.986   4.666
37103W        W 5576   8.758  27.071  14.350
37104W        W 5577   3.897  30.042   0.860
37105W        W 5578   3.879  29.472  10.441
37106W        W 5579  17.126  26.110  13.925
37107W        W 5580  32.142  16.084  11.485
37108W        W 5581   9.734  12.178   4.793
37109W        W 5582   9.701  17.223   3.686
37110W        W 5583  10.782  20.588   1.825
37111W        W 5584  10.143   5.796   3.722
37112W        W 5585  35.483   7.721  14.841
37113W        W 5586  33.437  13.129   0.362
37114W        W 5587  15.645   8.862   0.807
37115W        W 5588  32.487   4.407   2.263
37116W        W 5589  35.431  23.016   1.329
37117W        W 5590   9.776   0.341  10.932
37118W        W 5591  10.344  38.907  11.404
37119W        W 5592  12.351  12.781  12.057
37120W        W 5593  28.036  40.505  13.049
37121W        W 5594  13.276  10.636   0.793
37122W        W 5595  11.126  15.254  12.516
37123W        W 5596  38.908  27.484   3.651
37124W        W 5597  21.068  25.173   5.307
37125W        W 5598  11.294   4.279   2.369
37126W        W 5599  14.334  35.091  10.446
37127W        W 5600  25.642  21.209  13.859
37128W        W 5601  15.739  14.699  11.380
37129W        W 5602  29.551  22.746  13.954
37130W        W 5603  24.118  20.185   1.359
37131W        W 5604  17.215  16.258  13.015
37132W        W 5605  43.489  26.090  11.122
37133W        W 5606  15.793  44.263  10.986
37134W        W 5607  33.475   9.261  13.462
37135W        W 5608  32.113  20.059  12.573
37136W        W 5609  31.941  21.652  12.062
37137W        W 5610   2.949  28.579   0.449
37138W        W 5611  15.101  11.127   1.896
37139W        W 5612  19.110  41.389  11.587
37140W        W 5613  34.443   3.897   2.210
37141W        W 5614   6.420  17.687  14.779
37142W        W 5615  33.875   9.857   0.466
37143W        W 5616  18.258  11.867  14.294
37144W        W 5617  30.629  22.075  12.567
37145W        W 5618  42.425   2.722  11.921
37146W        W 5619  26.123  29.057   0.938
37147W        W 5620  28.041  38.012   1.282
37148W        W 5621  35.572  13.159   2.316
37149W        W 5622  20.105  24.026  11.570
37150W        W 5623   3.299  14.727  12.943
37151W        W 5624   2.428  15.600   5.310
37152W        W 5625  26.497  19.194  10.533
37153W        W 5626  44.967  29.635  12.453
37154W        W 5627  10.691  11.782  12.044
37155W        W 5628  37.403  19.242  11.037
37156W        W 5629  38.547  40.000   1.354
37157W        W 5630   9.838  35.375  10.567
37158W        W 5631  33.512  23.517   3.240
37159W        W 5632   3.845  33.468   9.986
37160W        W 5633  17.262  43.776  12.352
37161W        W 5634  33.384  36.053   4.342
37162W        W 5635  11.273  36.888  11.473
37163W        W 5636  12.659  13.777   3.188
37164W        W 5637  39.854  38.878  12.087
37165W        W 5638  11.773   0.316   3.660
37166W        W 5639  20.043  17.555  11.084
37167W        W 5640  19.260  18.618  14.962
37168W        W 5641   5.778  24.077  11.575
37169W        W 5642  11.739  32.010  14.975
37170W        W 5643   5.202   9.664  14.333
37171W        W 5644  25.003  37.374   1.285
37172W        W 5645  12.323   2.363  11.955
37173W        W 5646  35.517  36.527  12.460
37174W        W 5647  22.666  28.495  14.903
37175W        W 5648  20.600  14.189  13.823
37176W        W 5649  27.998  15.707  13.797
37177W        W 5650  37.556  19.199   2.318
37178W        W 5651  11.330  21.190   2.205
37179W        W 5652  14.237  22.028  12.366
37180W        W 5653   9.254  33.954   1.822
37181W        W 5654   6.324  27.190   3.824
37182W        W 5655  40.031   3.325   3.826
37183W        W 5656  28.141   4.222   1.904
37184W        W 5657  35.591  11.733   2.662
37185W        W 5658  26.581  32.425  10.531
37186W        W 5659  16.716  30.095  14.460
37187W        W 5660  33.038   6.293   1.769
37188W        W 5661  30.426  26.464   4.120
37189W        W 5662  23.989   9.869   2.727
37190W        W 5663   7.723  18.567   4.161
37191W        W 5664  30.474  40.525  12.954
37192W        W 5665   8.342  29.951  11.436
37193W        W 5666  25.568   4.809   0.275
37194W        W 5667   1.805   8.742  13.992
37195W        W 5668  19.656  30.938  11.907
37196W        W 5669  21.046  26.052   0.443
37197W        W 5670  23.083  35.468   0.792
37198W        W 5671   3.836  37.956  14.860
37199W        W 5672   1.824   2.745  12.340
37200W        W 5673  30.444  15.302   1.786
37201W        W 5674  42.433  36.513  14.299
37202W        W 5675  25.523  26.469  13.531
37203W        W 5676   7.288   8.756  14.480
37204W        W 5677   7.248   0.396   4.182
37205W        W 5678  40.006  36.367  14.279
37206W        W 5679  25.098  22.188   0.815
37207W        W 5680   6.183  39.368   2.868
37208W        W 5681   3.336   3.781  14.842
37209W        W 5682  36.919  33.502  14.973
37210W        W 5683  39.010   0.871  14.286
37211W        W 5684   0.950  17.585   1.387
37212W        W 5685  28.556   1.781   4.721
37213W        W 5686   8.323  11.327   1.759
37214W        W 5687   9.259  20.567   1.330
37215W        W 5688  27.636   7.373   4.635
37216W        W 5689  41.994  15.270  11.444
37217W        W 5690  37.913  34.934  11.964
37218W        W 5691   7.222  11.811   3.687
37219W        W 5692  15.674  39.887   2.266
37220W        W 5693  15.125  20.761  12.950
37221W        W 5694  33.100  26.181   2.341
37222W        W 5695  19.177  35.966  12.373
37223W        W 5696  43.326  23.218  11.417
37224W        W 5697  18.072  14.816  14.356
37225W        W 5698   8.676  24.506   1.355
37226W        W 5699  22.171  19.169  12.527
37227W        W 5700   5.841   8.709   1.901
37228W        W 5701  43.294   0.920  14.482
37229W        W 5702  31.964  27.470  13.333
37230W        W 5703  24.198  44.825  13.412
37231W        W 5704  37.070   8.832   2.806
37232W        W 5705  19.276  33.019  14.778
37233W        W 5706  24.140  16.602   3.727
37234W        W 5707  14.674  44.460   4.681
37235W        W 5708  17.237   6.799  11.445
37236W        W 5709  25.143   3.269   3.853
37237W        W 5710  41.973  13.697  14.307
37238W        W 5711   3.304  36.907   1.268
37239W        W 5712  29.665  35.408  13.335
37240W        W 5713  39.402  27.484   1.822
37241W        W 5714  16.726  13.629  14.466
37242W        W 5715  21.211   4.897  14.916
37243W        W 5716  39.406  23.662   0.871
37244W        W 5717   7.375   6.427  12.876
37245W        W 5718  16.682   5.414   1.897
37246W        W 5719  16.611   3.760  10.519
37247W        W 5720  19.170  28.539  13.482
37248W        W 5721   7.227  27.562   4.259
37249W        W 5722   3.770   5.901   0.797
37250W        W 5723  27.091  32.575  12.388
37251W        W 5724  28.152  42.989   3.384
37252W        W 5725  13.815  31.974   1.850
37253W        W 5726   6.814  10.761   0.254
37254W        W 5727  20.171  22.559   5.213
37255W        W 5728  19.656  19.704   1.710
37256W        W 5729  40.833  12.820  13.368
37257W        W 5730   2.296  19.768   3.870
37258W        W 5731  37.580  33.945  12.521
37259W        W 5732   9.156  21.550  12.062
37260W        W 5733  17.192  43.860  11.891
37261W        W 5734  17.165   1.834   1.345
37262W        W 5735   0.354  24.168   3.346
37263W        W 5736   7.255   3.793   3.847
37264W        W 5737  15.768  43.291   1.237
37265W        W 5738  21.543  19.129  14.486
37266W        W 5739  23.600  21.192  13.013
37267W        W 5740  14.292   4.314   3.853
37268W        W 5741  20.139  28.483   4.828
37269W        W 5742  28.134  27.944   1.408
37270W        W 5743  21.613  30.157   3.685
37271W        W 5744  15.612  44.938  13.318
37272W        W 5745  22.206  18.639   4.690
37273W        W 5746  19.183  44.878  10.634
37274W        W 5747  38.890  37.024   4.273
37275W        W 5748  28.956   6.886   3.852
37276W        W 5749   5.798  34.970  13.537
37277W        W 5750  27.583   6.282  12.425
37278W        W 5751  15.318  15.682   2.378
37279W        W 5752  32.594   3.219  10.161
37280W        W 5753  36.385  41.889   0.248
37281W        W 5754   1.459  35.954   3.223
37282W        W 5755  11.202  27.530  13.820
37283W        W 5756  14.604  36.372  11.113
37284W        W 5757   4.824  34.412   2.786
37285W        W 5758  20.131  14.643   4.688
37286W        W 5759  29.477  18.768  12.864
37287W        W 5760  44.397   0.910   0.900
37288W        W 5761  22.746  36.978  13.833
37289W        W 5762  33.114  18.647   0.846
37290W        W 5763  26.989  32.512  11.008
37291W        W 5764  39.932   5.762   0.737
37292W        W 5765  24.655   3.257   2.223
37293W        W 5766  39.862   9.829  13.366
37294W        W 5767  13.838  21.106   2.235
37295W        W 5768  22.572  21.019  12.889
37296W        W 5769   5.737  42.005  14.446
37297W        W 5770  38.364   4.942   2.382
37298W        W 5771   5.263  42.984   1.346
37299W        W 5772   6.305  43.376  13.845
37300W        W 5773  40.320   9.282   4.697
37301W        W 5774   4.744  27.184  12.866
37302W        W 5775  23.650  35.891  14.429
37303W        W 5776  15.299  30.429   4.778
37304W        W 5777  15.608  22.067   1.352
37305W        W 5778  37.434  17.280  13.036
37306W        W 5779  16.227  41.382  11.127
37307W        W 5780  12.206   2.913  11.126
37308W        W 5781  31.464   5.915  12.430
37309W        W 5782  24.602   1.815   4.727
37310W        W 5783  43.439  16.276   3.248
37311W        W 5784  21.033  25.607  12.023
37312W        W 5785  31.959  36.529  14.945
37313W        W 5786   6.343   8.808  11.958
37314W        W 5787  19.240   7.226   1.271
37315W        W 5788  16.760  38.511   5.241
37316W        W 5789  15.246  11.861   4.114
37317W        W 5790  13.634  33.525   3.373
37318W        W 5791   9.308  16.812  10.577
37319W        W 5792   3.730  11.176   0.418
37320W        W 5793  32.400  15.718   3.387
37321W        W 5794  32.942   6.796  14.856
37322W        W 5795  44.877   5.365  11.473
37323W        W 5796  38.556  16.134   4.747
37324W        W 5797   4.414  15.663   4.837
37325W        W 5798  11.251  44.384  10.642
37326W        W 5799  22.552   4.320  14.890
37327W        W 5800  23.689  10.196  11.530
37328W        W 5801  19.681  22.620  12.067
37329W        W 5802  29.432  24.634   1.711
37330W        W 5803  29.536  41.974   3.829
37331W        W 5804  41.519  42.501  14.887
37332W        W 5805  25.508  34.071   1.365
37333W        W 5806  42.362  19.645  12.859
37334W        W 5807  15.586   7.804  11.375
37335W        W 5808  32.997  13.663  10.493
37336W        W 5809   9.849  34.428   1.800
37337W        W 5810  15.655   4.823   4.126
37338W        W 5811  28.555  29.468   0.405
37339W        W 5812  19.111  12.769  14.286
37340W        W 5813  29.977  11.153  12.091
37341W        W 5814   7.271  27.108   4.267
37342W        W 5815  18.669  16.279  13.875
37343W        W 5816  44.834  25.179  11.028
37344W        W 5817  18.646  41.894  12.370
37345W        W 5818  37.073  42.924  10.575
37346W        W 5819  44.855   5.715   0.378
37347W        W 5820  18.140  36.562  12.929
37348W        W 5821   8.184  38.380  11.122
37349W        W 5822  21.532  32.410   1.282
37350W        W 5823  25.553  35.961   4.657
37351W        W 5824  40.468  26.024  14.280
37352W        W 5825  31.124  33.517   4.775
37353W        W 5826  20.207  38.388  13.470
37354W        W 5827  16.249  18.645  11.873
37355W        W 5828  11.854   2.283   0.286
37356W        W 5829  26.979   3.790  11.575
37357W        W 5830  26.597   6.232   5.278
37358W        W 5831  26.488  13.715   2.713
37359W        W 5832   1.887  33.614   3.743
37360W        W 5833  34.106  31.020   1.219
37361W        W 5834  28.502   8.748   4.785
37362W        W 5835   9.318  13.703   4.608
37363W        W 5836  10.687  33.091  13.929
37364W        W 5837  44.793  27.155  14.318
37365W        W 5838  42.962  15.779  11.541
37366W        W 5839  25.966  29.028   4.127
37367W        W 5840  19.053  39.867  13.444
37368W        W 5841  16.286   1.953  10.600
37369W        W 5842  38.859  17.802   5.226
37370W        W 5843   4.717  27.012   0.881
37371W        W 5844   3.738  39.888  10.601
37372W        W 5845  10.226  40.389  10.460
37373W        W 5846  23.661  10.860   0.468
37374W        W 5847  41.043  25.631   0.936
37375W        W 5848  23.564  25.086   5.139
37376W        W 5849  35.106  32.985   3.211
37377W        W 5850  26.699  32.917  12.350
37378W        W 5851  40.896  36.905  10.562
37379W        W 5852  18.118  22.741  14.835
37380W        W 5853  42.995  17.076  12.511
37381W        W 5854  39.909  21.160  12.086
37382W        W 5855   2.771  39.340  12.854
37383W        W 5856  28.440  20.529   2.677
37384W        W 5857  15.707  41.980   3.724
37385W        W 5858  38.342  36.865  13.004
37386W        W 5859  11.152  12.856   2.341
37387W        W 5860   4.719   7.912   3.817
37388W        W 5861  38.958   1.812  14.786
37389W        W 5862  40.908  18.685  12.429
37390W        W 5863  17.125  26.077   3.378
37391W        W 5864   6.690   4.314  10.945
37392W        W 5865  40.375   5.801  12.096
37393W        W 5866  19.557  23.013  12.973
37394W        W 5867  19.685  26.963  12.837
37395W        W 5868  14.168  19.042  13.543
37396W        W 5869  25.020  38.995  14.489
37397W        W 5870   9.794  13.270   3.806
37398W        W 5871  36.448   7.349   1.354
37399W        W 5872  38.329  43.915  13.478
37400W        W 5873  14.622  42.435  13.334
37401W        W 5874  20.241   5.858  13.543
37402W        W 5875  14.227  25.568   2.864
37403W        W 5876  17.605  30.526  12.361
37404W        W 5877  28.549  21.755  11.983
37405W        W 5878  31.458  25.536   1.885
37406W        W 5879  30.158  42.898  11.488
37407W        W 5880  28.103  19.564   4.725
37408W        W 5881  37.487  30.557   0.789
37409W        W 5882  43.903  41.000   0.872
37410W        W 5883  29.478  44.787  12.026
37411W        W 5884   8.659  17.123   4.708
37412W        W 5885   4.716  15.813  11.101
37413W        W 5886  42.903  44.315   2.869
37414W        W 5887  10.865  11.164  12.964
37415W        W 5888  43.365   8.737   3.736
37416W        W 5889  32.614  12.851   5.175
37417W        W 5890   5.243   6.807  11.427
37418W        W 5891   6.314  40.850  14.844
37419W        W 5892  13.138   8.346   0.412
37420W        W 5893   8.320  39.429   3.708
37421W        W 5894  17.066   5.217   4.151
37422W        W 5895  37.447  12.264  14.892
37423W        W 5896  18.124  39.401  13.859
37424W        W 5897  36.961  43.008  14.836
37425W        W 5898  41.958   4.436  13.059
37426W        W 5899  32.556   1.736   1.842
37427W        W 5900  40.510  42.911   5.233
37428W        W 5901  30.460   5.264   0.852
37429W        W 5902  32.533  21.718  13.491
37430W        W 5903  26.604   4.260  14.843
37431W        W 5904  31.090  31.495   0.930
37432W        W 5905  14.248   8.856   2.723
37433W        W 5906  35.506  22.213   3.156
37434W        W 5907   6.207  24.661  14.284
37435W        W 5908  33.973  42.480  11.970
37436W        W 5909   3.709   3.767   0.761
37437W        W 5910  28.660  15.263  14.867
37438W        W 5911  14.630  23.518  12.359
37439W        W 5912   9.197  25.687   5.780
37440W        W 5913   4.345  20.557   4.664
37441W        W 5914  37.856   4.884   0.793
37442W        W 5915  15.202  27.155  11.078
37443W        W 5916  23.503  27.941  13.928
37444W        W 5917  10.378   1.847   3.664
37445W        W 5918  42.484  33.480  11.431
37446W        W 5919  38.444  21.589  11.018
37447W        W 5920  42.975  44.953  12.082
37448W        W 5921  39.927  34.876  11.509
37449W        W 5922   4.867  21.060  10.092
37450W        W 5923  38.044  27.179   0.265
37451W        W 5924  23.677  21.691   4.190
37452W        W 5925   7.326  13.239  11.924
37453W        W 5926   5.413  11.853   2.205
37454W        W 5927  26.169  13.725   4.710
37455W        W 5928  20.193  33.089   2.721
37456W        W 5929  30.085   4.940  10.421
37457W        W 5930  17.649  10.221  11.994
37458W        W 5931   1.455  28.967  10.888
37459W        W 5932  41.501  30.921  11.931
37460W        W 5933  18.776  36.535   1.301
37461W        W 5934   5.738  19.140   0.338
37462W        W 5935   5.437  40.836  14.494
37463W        W 5936  20.269   4.857   3.715
37464W        W 5937  42.324  39.522  12.963
37465W        W 5938  23.998   3.215   4.234
37466W        W 5939  38.479   4.335  11.053
37467W        W 5940   2.291   7.185   0.794
37468W        W 5941  38.399  37.405   3.155
37469W        W 5942  35.907   9.334  12.407
37470W        W 5943  15.611  41.862   1.410
37471W        W 5944  27.076  36.406   0.412
37472W        W 5945  20.542  42.306  12.945
37473W        W 5946  22.136  23.053   4.736
37474W        W 5947  40.874  41.334   4.249
37475W        W 5948   5.880  26.649  14.505
37476W        W 5949  40.351  21.036   1.902
37477W        W 5950  15.814  23.051   1.447
37478W        W 5951  35.999  38.482   4.667
37479W        W 5952  14.287  28.504   1.252
37480W        W 5953  14.232   0.807  14.023
37481W        W 5954  27.028  21.140  12.436
37482W        W 5955   1.424  26.578   5.106
37483W        W 5956  44.281  16.601   0.810
37484W        W 5957  22.600  42.780   2.807
37485W        W 5958  19.090  11.185  14.322
37486W        W 5959  15.277  43.434  13.034
37487W        W 5960  43.323   6.911   2.335
37488W        W 5961  40.802  29.543   2.708
37489W        W 5962  16.256   4.203   0.465
37490W        W 5963  37.478  33.039  12.392
37491W        W 5964   9.239   0.974  10.112
37492W        W 5965  11.637   9.815  11.881
37493W        W 5966  12.221  12.170   4.247
37494W        W 5967  30.609  37.427  11.999
37495W        W 5968   6.204  31.973  10.604
37496W        W 5969  40.461  34.594   3.679
37497W        W 5970  31.545  19.623  12.439
37498W        W 5971   0.453  27.573   3.860
37499W        W 5972  39.013  38.325  10.495
37500W        W 5973   5.434   7.280  14.284
37501W        W 5974  31.148  30.608   3.771
37502W        W 5975  32.578  21.656   0.381
37503W        W 5976  35.541   3.815   3.253
37504W        W 5977  30.911  19.627  11.523
37505W        W 5978   0.872  42.999   3.855
37506W        W 5979  31.573  25.562  10.534
37507W        W 5980  35.923  10.337   1.841
37508W        W 5981  20.128  40.920  13.913
37509W        W 5982  18.700  27.119  13.993
37510W        W 5983   6.190   3.751  10.532
37511W        W 5984  35.882  12.690   2.677
37512W        W 5985  40.014  41.317  14.429
37513W        W 5986  22.511   8.774   2.302
37514W        W 5987  40.497  17.746   4.241
37515W        W 5988  35.103  34.421  14.325
37516W        W 5989  24.179  30.446  11.869
37517W        W 5990  17.666  33.601   3.376
37518W        W 5991  15.206  44.430   2.395
37519W        W 5992   9.157  24.633  12.486
37520W        W 5993   5.902  27.996  10.546
37521W        W 5994   0.908  31.897  13.818
37522W        W 5995  10.707  30.909  12.527
37523W        W 5996   0.759  15.732   3.784
37524W        W 5997  28.601  32.043  12.057
37525W        W 5998  19.146   6.872   0.861
37526W        W 5999  11.168  11.639   4.255
37527W        W 6000  11.220  22.189   1.265
37528W        W 6001  11.675  18.731  13.858
37529W        W 6002  42.459  19.609  13.394
37530W        W 6003   7.904   3.403   2.382
37531W        W 6004  40.050  24.505  13.972
37532W        W 6005  28.623  11.683   3.330
37533W        W 6006  24.982  15.130   4.725
37534W        W 6007  19.754  40.543  10.563
37535W        W 6008  29.010  44.928  14.932
37536W        W 6009   8.361  32.407   3.847
37537W        W 6010  37.544  28.127  12.358
37538W        W 6011   6.823  26.180   2.795
37539W        W 6012  18.777   1.749  12.561
37540W        W 6013  28.079  35.414  12.935
37541W        W 6014  44.856   4.248  12.493
37542W        W 6015   8.294   2.412  13.889
37543W        W 6016  22.111   1.413   1.292
37544W        W 6017  34.868  14.239  11.928
37545W        W 6018  16.809  13.231   2.734
37546W        W 6019  23.188  30.417   3.645
37547W        W 6020   1.954  22.156   0.877
37548W        W 6021   7.366  18.616  14.338
37549W        W 6022  17.084  13.234  12.953
37550W        W 6023  20.653  17.270   2.275
37551W        W 6024  22.514  15.758  10.500
37552W        W 6025  44.303  17.083  14.839
37553W        W 6026  17.589  41.499   3.807
37554W        W 6027  14.749  26.003   1.756
37555W        W 6028   2.878  31.968   4.751
37556W        W 6029  32.000  28.038  11.518
37557W        W 6030   8.785  38.969  11.595
37558W        W 6031  15.159  44.893   1.891
37559W        W 6032  28.673  21.726   3.717
37560W        W 6033  35.075  33.621  12.072
37561W        W 6034   3.737  13.673  11.459
37562W        W 6035  27.575  40.838  11.942
37563W        W 6036  32.041  41.872  12.882
37564W        W 6037  17.200  15.738   5.153
37565W        W 6038  11.245  26.457   2.824
37566W        W 6039  27.459  17.700  12.879
37567W        W 6040  33.021  24.621   3.218
37568W        W 6041  38.414  41.817   3.338
37569W        W 6042   0.300  39.360   3.844
37570W        W 6043  30.519  33.588  11.371
37571W        W 6044  33.480  44.775   3.709
37572W        W 6045  43.328  33.380   3.313
37573W        W 6046  41.822  29.166  12.888
37574W        W 6047  36.929  25.599   2.254
37575W        W 6048  16.611  17.721   2.348
37576W        W 6049  34.488  23.080   3.731
37577W        W 6050  31.466  24.975  11.505
37578W        W 6051  38.041  21.177   2.347
37579W        W 6052  10.869   7.770   2.306
37580W        W 6053  37.432   9.837  12.580
37581W        W 6054  29.015   3.319   1.767
37582W        W 6055  19.678   7.756  13.388
37583W        W 6056  32.500  23.096   4.731
37584W        W 6057  35.980  26.101   1.445
37585W        W 6058   0.472   3.424   3.164
37586W        W 6059  37.378  39.025   3.696
37587W        W 6060  21.546  21.686  11.856
37588W        W 6061   6.399  11.812   0.248
37589W        W 6062  24.040   0.899   4.253
37590W        W 6063  32.918  17.193  12.876
37591W        W 6064   4.340   7.202  12.873
37592W        W 6065   4.371   2.920   0.292
37593W        W 6066  22.031  38.562   4.679
37594W        W 6067  44.786   8.673   2.276
37595W        W 6068  32.940  38.003   1.754
37596W        W 6069  41.887   4.328  14.332
37597W        W 6070   5.267  30.641  14.908
37598W        W 6071   1.278  28.086  11.567
37599W        W 6072   8.304  43.344   1.819
37600W        W 6073  11.812  18.634  14.515
37601W        W 6074  35.516  16.083  12.339
37602W        W 6075  38.428   9.875  11.429
37603W        W 6076  11.731  10.294  13.401
37604W        W 6077  40.377  30.077  12.086
37605W        W 6078  10.227  26.132   0.762
37606W        W 6079  19.779   3.317  12.383
37607W        W 6080  29.125   1.302  12.864
37608W        W 6081  16.603  33.432  11.087
37609W        W 6082  16.281  22.541   2.277
37610W        W 6083  30.159  14.338  12.015
37611W        W 6084  25.493  41.907  10.553
37612W        W 6085   0.910   5.251   2.889
37613W        W 6086  10.361  16.287  14.931
37614W        W 6087  38.452   2.932   3.347
37615W        W 6088   2.918  29.436  14.995
37616W        W 6089  22.139  35.412  12.061
37617W        W 6090  22.236   2.841  11.407
37618W        W 6091   6.349   7.323  12.893
37619W        W 6092  28.439  21.737   0.411
37620W        W 6093  18.199  19.094   1.824
37621W        W 6094  42.996  25.607   0.266
37622W        W 6095  18.706   7.902   0.312
37623W        W 6096  43.352  31.618  10.640
37624W        W 6097  29.150  23.142   1.366
37625W        W 6098  30.604   6.741   3.750
37626W        W 6099  29.488  35.983   1.860
37627W        W 6100  33.489  16.700  13.444
37628W        W 6101  36.053  21.678  13.037
37629W        W 6102  10.843  40.799   3.300
37630W        W 6103  13.680  30.961  11.552
37631W        W 6104  37.021  19.674  14.783
37632W        W 6105  16.580  34.445  11.108
37633W        W 6106  21.625   4.223  10.636
37634W        W 6107  41.801  36.353  14.027
37635W        W 6108  42.477   9.763   1.330
37636W        W 6109  24.087  25.042  14.830
37637W        W 6110  15.324  36.521  13.423
37638W        W 6111   9.308  24.528  10.573
37639W        W 6112  11.346  29.515  11.472
37640W        W 6113   4.797  33.016   1.329
37641W        W 6114  13.290  30.076  11.507
37642W        W 6115  35.853  41.490   2.702
37643W        W 6116  23.090  14.144  12.894
37644W        W 6117  10.313  38.011  10.954
37645W        W 6118  29.165  21.134  13.008
37646W        W 6119  34.376  39.982   0.844
37647W        W 6120  23.734   3.871  12.522
37648W        W 6121  15.289  14.761  11.539
37649W        W 6122  15.205   4.786  11.409
37650W        W 6123   7.286  15.166   2.386
37651W        W 6124  17.566  19.185  10.404
37652W        W 6125  25.983  24.978   1.427
37653W        W 6126  41.931  40.020   9.984
37654W        W 6127  42.483  16.773  11.511
37655W        W 6128  39.934  21.148   1.427
37656W        W 6129  15.679  32.493  13.987
37657W        W 6130   9.845   4.283  13.935
37658W        W 6131  24.139  37.962   0.345
37659W        W 6132  44.826  41.791  13.344
37660W        W 6133  20.064  22.073   0.852
37661W        W 6134  43.915  27.454   2.714
37662W        W 6135  23.681  30.065  14.482
37663W        W 6136  23.168  37.353   3.288
37664W        W 6137  35.366   5.377  12.460
37665W        W 6138  20.272  23.122  11.055
37666W        W 6139  33.996   7.885  14.356
37667W        W 6140   0.321  18.617  13.525
37668W        W 6141  17.565  33.068   3.174
37669W        W 6142  37.373  44.283   1.385
37670W        W 6143  38.454   4.210  14.297
37671W        W 6144  18.685   4.758   4.302
37672W        W 6145  27.533  36.929   3.384
37673W        W 6146  36.462  29.116   3.793
37674W        W 6147   9.782  34.484   2.712
37675W        W 6148  39.377   3.292  14.834
37676W        W 6149  21.578  31.042  10.465
37677W        W 6150  28.046  18.644  14.867
37678W        W 6151  33.978  25.474  11.094
37679W        W 6152  15.270   7.694  13.052
37680W        W 6153  39.835  38.953  11.088
37681W        W 6154  23.691  42.487  12.403
37682W        W 6155  42.869  40.497  12.962
37683W        W 6156   7.270  16.605   2.201
37684W        W 6157  32.929  32.492   0.775
37685W        W 6158  22.245   2.726  14.893
37686W        W 6159   8.303  22.050  11.448
37687W        W 6160  28.578  43.470  13.915
37688W        W 6161  37.860  29.052  11.039
37689W        W 6162  23.020  22.013  13.391
37690W        W 6163   6.360   7.680   1.236
37691W        W 6164  29.945  16.092  12.010
37692W        W 6165  15.707  36.969   1.295
37693W        W 6166   4.307  42.020  14.852
37694W        W 6167  21.673  27.069  13.001
37695W        W 6168  19.168   9.303  12.376
37696W        W 6169  25.546  16.186  11.067
37697W        W 6170  34.427  35.588   3.855
37698W        W 6171  26.020  22.114   2.181
37699W        W 6172  24.485   8.360  14.866
37700W        W 6173  44.466  15.295   0.405
37701W        W 6174  22.634  19.689   1.718
37702W        W 6175  17.113  28.615  14.031
37703W        W 6176   4.246  42.392  14.417
37704W        W 6177  31.500  15.695  10.531
37705W        W 6178  16.103   4.715  14.332
37706W        W 6179  10.635   6.287   0.905
37707W        W 6180  33.388  30.084   1.440
37708W        W 6181  25.988  39.829  12.018
37709W        W 6182  39.925   8.233   3.184
37710W        W 6183  30.501  14.336  11.603
37711W        W 6184  43.876  20.127   2.732
37712W        W 6185  41.515   0.308  12.927
37713W        W 6186  22.654  31.106   4.116
37714W        W 6187  37.542  19.717  13.515
37715W        W 6188  37.425  29.126  13.496
37716W        W 6189  16.737  44.449  11.561
37717W        W 6190  35.441  26.990  11.876
37718W        W 6191  20.552  35.952  13.913
37719W        W 6192  31.119  40.870  12.967
37720W        W 6193  32.927   5.931  14.785
37721W        W 6194  34.548   9.287  12.512
37722W        W 6195  44.398  28.490   0.437
37723W        W 6196  37.974   8.262   1.798
37724W        W 6197  37.440  28.484   0.459
37725W        W 6198   6.301  32.107   2.774
37726W        W 6199  28.114  26.585  14.456
37727W        W 6200  13.846  40.827  14.410
37728W        W 6201  44.497   9.643  13.460
37729W        W 6202   2.441  21.658   0.290
37730W        W 6203  31.605   4.405  12.905
37731W        W 6204  36.419  29.456  14.348
37732W        W 6205  10.283  35.892  10.987
37733W        W 6206   2.870   8.799  12.400
37734W        W 6207   3.390  26.510   3.814
37735W        W 6208  20.546   2.949  12.400
37736W        W 6209  37.488  39.331   1.357
37737W        W 6210  16.567  42.300  14.964
37738W        W 6211   5.365  44.941  13.377
37739W        W 6212  32.082  40.545   0.881
37740W        W 6213  36.876  42.776   4.286
37741W        W 6214  19.265  17.639  12.003
37742W        W 6215  27.563   4.934  11.066
37743W        W 6216   0.477  22.186  13.901
37744W        W 6217  16.184  26.516  12.988
37745W        W 6218  18.655  42.502   2.693
37746W        W 6219  26.626  18.082  12.385
37747W        W 6220  18.071  22.729   4.755
37748W        W 6221  37.439  19.660  14.773
37749W        W 6222   1.268  24.162  11.939
37750W        W 6223   4.855  18.636   1.885
37751W        W 6224  12.291  14.190  10.598
37752W        W 6225  34.944  19.281   1.879
37753W        W 6226   1.375   8.830   2.780
37754W        W 6227  28.606  31.639  13.047
37755W        W 6228  21.166  37.422  14.391
37756W        W 6229  42.811  29.424  14.377
37757W        W 6230  16.126  44.449   2.245
37758W        W 6231  10.804  37.434   1.716
37759W        W 6232  27.978  16.662  10.534
37760W        W 6233   0.829  24.207   4.241
37761W        W 6234   2.418   1.888   4.632
37762W        W 6235  10.251  25.093   4.801
37763W        W 6236   9.680  30.540   4.662
37764W        W 6237  41.362   4.239  12.017
37765W        W 6238  34.976  26.169   3.775
37766W        W 6239  31.010  16.072  10.449
37767W        W 6240   9.662  39.472   4.831
37768W        W 6241  33.410  44.772  10.935
37769W        W 6242   9.863  18.168  14.455
37770W        W 6243  14.114  39.453   0.340
37771W        W 6244  44.499  18.111   1.373
37772W        W 6245  32.576  18.093  10.615
37773W        W 6246  44.289  36.426   2.729
37774W        W 6247  41.508  19.042   2.896
37775W        W 6248   1.933  29.556  13.849
37776W        W 6249  31.467  31.606   3.170
37777W        W 6250  28.011  12.195   1.720
37778W        W 6251  18.580  40.995  12.097
37779W        W 6252  37.048   2.323  10.966
37780W        W 6253   4.854  15.304  10.503
37781W        W 6254   4.874  15.690   0.359
37782W        W 6255  28.035  28.072  12.469
37783W        W 6256  35.489  13.798  12.356
37784W        W 6257  27.667  40.523   4.194
37785W        W 6258   8.383  24.652   2.783
37786W        W 6259  24.516  15.667  14.953
37787W        W 6260   0.803  28.465   3.694
37788W        W 6261  13.840   5.410   4.820
37789W        W 6262   1.461  44.320  10.008
37790W        W 6263  10.218   9.819  14.837
37791W        W 6264  21.047  15.686  11.094
37792W        W 6265  16.168  22.055   4.670
37793W        W 6266  17.730  19.252   2.861
37794W        W 6267  29.097   6.229   2.743
37795W        W 6268  12.346  15.188  11.061
37796W        W 6269  22.655  38.867   2.887
37797W        W 6270   1.793  36.411   2.408
37798W        W 6271  39.404  34.410  13.399
37799W        W 6272  28.545   9.227  12.845
37800W        W 6273   3.317  22.659   0.745
37801W        W 6274  27.136  18.243   3.196
37802W        W 6275  32.064  23.132  12.990
37803W        W 6276   4.824  33.622   1.914
37804W        W 6277  27.683   8.322  11.129
37805W        W 6278   4.899   6.847  14.764
37806W        W 6279  21.518  35.433  10.525
37807W        W 6280  13.346  40.900   1.829
37808W        W 6281  23.210   1.282  10.558
37809W        W 6282  43.833  35.461   4.133
37810W        W 6283  44.875  12.758   1.365
37811W        W 6284  24.174   4.723   4.773
37812W        W 6285  41.940   4.803   1.822
37813W        W 6286  29.494  41.807   1.844
37814W        W 6287  40.305  32.923  14.396
37815W        W 6288   6.843   0.277   4.642
37816W        W 6289  39.538  39.522   4.281
37817W        W 6290  13.817   4.300  14.929
37818W        W 6291  35.359  17.262   2.358
37819W        W 6292  13.292  15.324  11.504
37820W        W 6293  24.000  13.312   4.307
37821W        W 6294  42.997   0.867  14.451
37822W        W 6295   9.251   4.360  12.911
37823W        W 6296   4.288  17.677   0.362
37824W        W 6297  38.438  44.785  13.973
37825W        W 6298  34.430   5.881   4.197
37826W        W 6299  35.403  31.092   2.729
37827W        W 6300  18.712  13.115   2.297
37828W        W 6301  33.469   6.299   1.303
37829W        W 6302   7.684  12.670  10.942
37830W        W 6303  40.829   7.668  10.430
37831W        W 6304  17.584  43.338  11.457
37832W        W 6305  29.919   6.761   1.891
37833W        W 6306  19.280  30.111   2.759
37834W        W 6307  26.563  18.658   4.301
37835W        W 6308  41.930   4.702  13.363
37836W        W 6309  32.012  43.823   0.443
37837W        W 6310  30.010  17.262   0.953
37838W        W 6311  30.621  33.547  10.497
37839W        W 6312  19.061  19.740   1.230
37840W        W 6313   4.941  20.591  14.016
37841W        W 6314  13.786  21.549  13.992
37842W        W 6315  11.228   6.250  13.542
37843W        W 6316  20.148  28.118   0.441
37844W        W 6317   4.816  25.575  13.928
37845W        W 6318  24.023   2.837  12.029
37846W        W 6319   2.844  29.560   3.822
37847W        W 6320  17.188  38.024  14.017
37848W        W 6321  38.053  18.215   3.697
37849W        W 6322  41.495  10.325   2.220
37850W        W 6323  35.603  19.643  13.876
37851W        W 6324  31.443  42.863   0.464
37852W        W 6325   9.173  20.074   3.242
37853W        W 6326   0.823  35.600  11.506
37854W        W 6327  12.122  20.216  14.909
37855W        W 6328  16.742   1.266   0.963
37856W        W 6329  42.885  14.665   4.234
37857W        W 6330  24.582   0.805   3.786
37858W        W 6331   4.317   5.752  13.397
37859W        W 6332   8.378  12.717   0.269
37860W        W 6333  14.746   2.446   2.829
37861W        W 6334  28.459  34.533   1.306
37862W        W 6335   8.283  16.640  12.496
37863W        W 6336  17.067   0.317   0.878
37864W        W 6337   3.927  29.058   9.967
37865W        W 6338  28.981  28.994   2.875
37866W        W 6339  38.504  16.090  12.573
37867W        W 6340  43.010  41.891   0.842
37868W        W 6341   0.275  23.230   3.739
37869W        W 6342  40.805  18.666  11.905
37870W        W 6343  32.516  12.646   4.276
37871W        W 6344  20.192  28.936  14.815
37872W        W 6345  17.781  32.983   1.873
37873W        W 6346  10.803  41.977  12.003
37874W        W 6347   0.302  15.285  13.035
37875W        W 6348  15.725  28.938   3.651
37876W        W 6349  35.960   5.413  10.921
37877W        W 6350   7.780   2.406   0.263
37878W        W 6351  38.556  42.494  13.864
37879W        W 6352  14.143  13.804  12.918
37880W        W 6353  29.566  20.573  12.399
37881W        W 6354   5.772  29.654   2.739
37882W        W 6355  29.648  17.748   4.132
37883W        W 6356  24.585  39.369   2.404
37884W        W 6357   4.402   6.315  12.491
37885W        W 6358  25.693  17.767  11.599
37886W        W 6359  29.978  44.442   5.191
37887W        W 6360   0.286  30.633  12.094
37888W        W 6361   0.898   9.324   1.783
37889W        W 6362  23.566  29.125   3.348
37890W        W 6363  22.667  18.269   3.266
37891W        W 6364  25.065   7.898   3.691
37892W        W 6365  40.339  35.407  11.387
37893W        W 6366  16.241  23.183  12.516
37894W        W 6367  23.502  44.825   4.239
37895W        W 6368  43.868   2.804   0.470
37896W        W 6369  39.869  38.571   3.708
37897W        W 6370  28.492  40.303   3.644
37898W        W 6371  31.085  22.729  13.442
37899W        W 6372  25.138  39.352   0.947
37900W        W 6373  38.980  33.596  11.919
37901W        W 6374  41.981  40.398   0.329
37902W        W 6375   2.915   2.413  10.905
37903W        W 6376  13.709  17.630   2.824
37904W        W 6377  26.666  35.096  12.992
37905W        W 6378  42.980  19.232  10.974
37906W        W 6379  22.173  36.944   4.778
37907W        W 6380  40.407  25.574  11.901
37908W        W 6381   6.757  29.077   4.256
37909W        W 6382  14.296  35.876   2.406
37910W        W 6383  36.039  22.564  11.079
37911W        W 6384  31.456   5.397  14.013
37912W        W 6385  41.810  25.119   0.772
37913W        W 6386  23.176  31.602   3.302
37914W        W 6387  39.489  29.922   2.182
37915W        W 6388  31.640  12.138   3.801
37916W        W 6389  25.187  26.532   3.228
37917W        W 6390  23.562  37.539   2.754
37918W        W 6391  32.428  41.417   0.289
37919W        W 6392  35.418   4.413  14.937
37920W        W 6393  39.824  34.092  11.003
37921W        W 6394  21.164   6.819   1.229
37922W        W 6395  33.120  18.056   4.262
37923W        W 6396  44.271  34.928   4.345
37924W        W 6397  39.333  17.724   0.435
37925W        W 6398  18.168  21.186   0.810
37926W        W 6399  43.914  41.479  11.607
37927W        W 6400  35.494  36.981   3.638
37928W        W 6401  36.098  22.131  11.516
37929W        W 6402  12.249  44.942  11.480
37930W        W 6403   7.337  27.448   3.640
37931W        W 6404  28.175   8.858  12.508
37932W        W 6405   2.472  33.542   0.413
37933W        W 6406  33.098  24.211  14.875
37934W        W 6407  13.343   2.746   1.345
37935W        W 6408   8.259  38.379   3.170
37936W        W 6409  28.539  21.703   3.338
37937W        W 6410  10.322  30.586   4.770
37938W        W 6411  11.799  32.922  12.032
37939W        W 6412  43.504  33.434  10.928
37940W        W 6413  39.035  16.255   1.872
37941W        W 6414  29.588  41.340  10.980
37942W        W 6415  38.991  32.078  14.382
37943W        W 6416  37.401  31.587  13.385
37944W        W 6417  23.711  25.001  12.346
37945W        W 6418  15.584  42.888   0.929
37946W        W 6419  26.176  17.123   3.737
37947W        W 6420  33.031  28.567   2.417
37948W        W 6421   9.799  40.393  11.594
37949W        W 6422  25.969  19.613   2.375
37950W        W 6423  24.109  28.022  14.381
37951W        W 6424  11.847  31.415  14.447
37952W        W 6425  25.681  40.824  10.510
37953W        W 6426  26.523   9.370   4.693
37954W        W 6427  32.986  35.412   4.237
37955W        W 6428  19.121   8.275  12.344
37956W        W 6429   0.936   4.907  11.472
37957W        W 6430  15.270  32.968  14.972
37958W        W 6431  22.736  29.056   1.325
37959W        W 6432  18.667  32.031   1.386
37960W        W 6433  37.043  38.521   3.729
37961W        W 6434  34.529  43.802  13.996
37962W        W 6435  14.199  20.192   1.871
37963W        W 6436  41.535  21.181  10.406
37964W        W 6437  17.257   5.212   4.828
37965W        W 6438  38.873  20.712  14.487
37966W        W 6439  33.583  10.194   2.852
37967W        W 6440  41.310  32.584   0.483
37968W        W 6441  22.709  42.409   9.961
37969W        W 6442  35.878  40.486  10.536
37970W        W 6443  19.608  26.557  14.952
37971W        W 6444   4.924   6.310   2.687
37972W        W 6445  44.886   3.835   1.247
37973W        W 6446  34.038   7.270   2.219
37974W        W 6447  27.170   3.909   4.622
37975W        W 6448   7.312  40.520   0.926
37976W        W 6449   0.447   9.319  13.429
37977W        W 6450  25.536   0.339   0.726
37978W        W 6451  42.001   8.684  12.981
37979W        W 6452  30.594  41.404   4.728
37980W        W 6453   1.749   2.901  13.506
37981W        W 6454  23.606  20.722  13.537
37982W        W 6455   8.361  37.997  10.612
37983W        W 6456  32.440  11.744   3.380
37984W        W 6457  36.398  41.336  13.320
37985W        W 6458  31.531  28.474  13.951
37986W        W 6459  13.254  20.716   1.827
37987W        W 6460  14.205  18.568   1.448
37988W        W 6461  26.167  43.895  12.989
37989W        W 6462   3.380  28.010   0.303
37990W        W 6463  14.275  26.499   4.838
37991W        W 6464   9.345  12.357   1.740
37992W        W 6465  41.410  26.005  13.387
37993W        W 6466  25.213  37.909   3.304
37994W        W 6467   3.853  34.403  14.774
37995W        W 6468  23.578   9.275  13.539
37996W        W 6469   1.270  35.533  11.879
37997W        W 6470  44.818  33.499  13.410
37998W        W 6471  38.516  31.056   2.239
37999W        W 6472  15.821  10.691  11.909
38000W        W 6473  44.777  40.384  14.293
38001W        W 6474  16.283  41.496  12.015
38002W        W 6475  28.651  33.123   4.273
38003W        W 6476  38.334   2.282   4.350
38004W        W 6477   2.436  27.083  12.965
38005W        W 6478   2.452  36.901  12.023
38006W        W 6479   9.889  37.415   1.916
38007W        W 6480   3.747  13.714   9.926
38008W        W 6481  25.517  21.624  12.520
38009W        W 6482   6.754  42.504   3.266
38010W        W 6483  28.172  25.621  10.991
38011W        W 6484   4.788  38.407  13.995
38012W        W 6485   1.744  44.501   4.178
38013W        W 6486  44.400  23.692  11.882
38014W        W 6487   1.348  17.166  13.420
38015W        W 6488   2.464   3.334  10.146
38016W        W 6489  11.191  43.333   4.196
38017W        W 6490  13.734  37.353   4.658
38018W        W 6491  16.702  22.621   4.322
38019W        W 6492  20.642  29.955   0.326
38020W        W 6493  32.043  44.315   0.377
38021W        W 6494  20.215  26.596   4.781
38022W        W 6495  40.459  18.079  11.591
38023W        W 6496  36.525  24.568  11.931
38024W        W 6497  39.440  31.933   2.769
38025W        W 6498  20.042  40.497  13.998
38026W        W 6499  12.208  28.543   4.118
38027W        W 6500   0.866  13.318  12.916
38028W        W 6501   3.367  19.705   2.179
38029W        W 6502   2.864   4.325  12.834
38030W        W 6503  18.636  16.807   3.325
38031W        W 6504  19.717   7.828  13.945
38032W        W 6505  39.333  36.534  13.483
38033W        W 6506  10.188  32.096   2.306
38034W        W 6507  22.071  10.302  14.463
38035W        W 6508  19.215  20.599  11.865
38036W        W 6509  28.940   6.345   1.279
38037W        W 6510  25.700   4.354  14.850
38038W        W 6511  14.171  44.770   0.797
38039W        W 6512   7.749  39.376  13.046
38040W        W 6513  14.754  21.162  10.042
38041W        W 6514  13.763  23.138  11.376
38042W        W 6515   4.942  10.802  11.455
38043W        W 6516   4.431   8.217   3.823
38044W        W 6517  31.079   7.669   3.239
38045W        W 6518  40.417  41.866   1.858
38046W        W 6519  37.507  37.467  12.928
38047W        W 6520  20.592  11.649   3.649
38048W        W 6521  10.740   1.322   2.668
38049W        W 6522  25.628  31.071  14.371
38050W        W 6523   4.937  35.993  13.512
38051W        W 6524   2.770   9.732  11.382
38052W        W 6525  32.523  15.089  13.315
38053W        W 6526   8.792  19.168  12.940
38054W        W 6527  19.132   0.944  12.083
38055W        W 6528   6.333  28.012  11.445
38056W        W 6529  32.572   1.249  13.422
38057W        W 6530  10.240  20.730   0.431
38058W        W 6531   2.233  41.929  11.573
38059W        W 6532   5.889  32.441   4.229
38060W        W 6533   9.860  43.950  13.039
38061W        W 6534  13.312  32.613   0.900
38062W        W 6535  39.046  18.151  12.930
38063W        W 6536  41.292  11.703  13.501
38064W        W 6537  23.509  23.509  13.799
38065W        W 6538  23.567   0.487   1.879
38066W        W 6539  28.648   1.423   1.428
38067W        W 6540  29.460   6.240  14.012
38068W        W 6541  17.678  24.079  11.069
38069W        W 6542  33.423  11.853   4.327
38070W        W 6543  10.144   5.408   0.360
38071W        W 6544  31.560   1.836   2.417
38072W        W 6545  38.355  30.043  11.500
38073W        W 6546  10.316   4.761   4.194
38074W        W 6547  22.593  37.901  11.859
38075W        W 6548  33.896  25.159   0.731
38076W        W 6549  10.811   1.865  12.997
38077W        W 6550  42.376  40.001   0.906
38078W        W 6551  43.781  22.130   0.363
38079W        W 6552  22.645  17.261  10.489
38080W        W 6553  10.691  22.655   1.434
38081W        W 6554  12.692  16.782   4.632
38082W        W 6555   1.330  27.091  10.554
38083W        W 6556  32.910  42.403   2.861
38084W        W 6557  33.623   8.806   0.411
38085W        W 6558  30.461  14.108   2.710
38086W        W 6559  30.044  26.599  12.506
38087W        W 6560  15.327  35.545   3.173
38088W        W 6561   7.833  13.659   1.917
38089W        W 6562  40.029  29.595  10.417
38090W        W 6563  24.197  12.302   4.263
38091W        W 6564  23.505  33.386  12.354
38092W        W 6565  41.534  41.524   3.660
38093W        W 6566  19.168  19.056  10.611
38094W        W 6567  41.907  29.940   2.765
38095W        W 6568  13.312  13.236  12.875
38096W        W 6569  11.810  20.676  10.585
38097W        W 6570  13.234  37.352   3.246
38098W        W 6571  24.042  41.435  10.471
38099W        W 6572  34.906  32.043   1.754
38100W        W 6573  36.984   0.862   3.317
38101W        W 6574  24.082  43.848   2.899
38102W        W 6575  26.657   5.439  11.526
38103W        W 6576  11.825  31.082   2.876
38104W        W 6577  26.592   6.779   3.638
38105W        W 6578  30.508  42.945   2.735
38106W        W 6579  43.271  19.589  12.850
38107W        W 6580  40.480   9.171   3.342
38108W        W 6581  41.975  12.256  11.587
38109W        W 6582  12.198   4.414  12.824
38110W        W 6583   8.250  13.844  14.954
38111W        W 6584  38.961  11.666  10.572
38112W        W 6585   9.248  23.153   0.352
38113W        W 6586  22.995  38.334   1.249
38114W        W 6587   0.809  25.473  14.461
38115W        W 6588  37.925  30.466   2.784
38116W        W 6589  37.885  25.526  11.479
38117W        W 6590   2.736  42.996  12.452
38118W        W 6591  15.607  21.088   1.818
38119W        W 6592  26.581  44.437   1.847
38120W        W 6593  14.724   4.760  14.889
38121W        W 6594   1.970  34.909   2.872
38122W        W 6595   8.161   2.933  11.582
38123W        W 6596  41.366  37.523   4.814
38124W        W 6597  24.977  23.593   4.161
38125W        W 6598  16.622  44.872  12.014
38126W        W 6599  33.940  23.164  11.927
38127W        W 6600  31.922  34.571  11.972
38128W        W 6601   1.896  14.280   4.134
38129W        W 6602  37.543  30.071  12.555
38130W        W 6603  24.207   9.255   0.954
38131W        W 6604  17.741   5.800   3.288
38132W        W 6605  25.529  31.609   0.361
38133W        W 6606  29.430  27.667  13.361
38134W        W 6607  26.625  25.670  11.408
38135W        W 6608  40.828  44.419   0.791
38136W        W 6609   4.734  33.410   4.634
38137W        W 6610   1.428  41.453  11.051
38138W        W 6611  44.354  38.564   4.674
38139W        W 6612  11.647   5.853  11.590
38140W        W 6613  41.483   8.346   0.916
38141W        W 6614  35.475  17.617  10.999
38142W        W 6615  15.702  40.042   0.484
38143W        W 6616  15.752  33.480   0.435
38144W        W 6617  24.672  34.017   2.747
38145W        W 6618  18.156   5.919   4.322
38146W        W 6619  33.574  20.086   3.322
38147W        W 6620  44.460   3.437  13.960
38148W        W 6621  42.481  18.208   3.824
38149W        W 6622  13.811  28.141   4.147
38150W        W 6623   8.303  13.644  14.334
38151W        W 6624  14.827   9.164  11.428
38152W        W 6625  13.844  11.290  13.311
38153W        W 6626   6.873  39.469   3.649
38154W        W 6627   9.294  24.016   4.312
38155W        W 6628  18.580  38.839  10.156
38156W        W 6629  28.509  12.716  12.042
38157W        W 6630  24.993  14.276  13.386
38158W        W 6631   3.800  13.301   0.938
38159W        W 6632  29.111  21.233  14.892
38160W        W 6633  38.566   1.321  13.356
38161W        W 6634   6.723  14.719   3.294
38162W        W 6635  13.196  13.776   1.770
38163W        W 6636  14.715  27.941   2.775
38164W        W 6637  24.219   1.827   3.679
38165W        W 6638   0.746  41.952   1.269
38166W        W 6639   2.794  18.169  10.478
38167W        W 6640  29.998  21.740   2.275
38168W        W 6641   1.258   0.748  13.497
38169W        W 6642  43.279  28.149  14.405
38170W        W 6643  26.987  39.887   2.814
38171W        W 6644   5.198   2.810  10.947
38172W        W 6645  30.984  37.525   4.603
38173W        W 6646  19.057   6.790  14.288
38174W        W 6647   5.931  25.167   3.238
38175W        W 6648  33.555  36.435  12.458
38176W        W 6649  25.148  24.560   1.757
38177W        W 6650  19.647  25.072   0.286
38178W        W 6651  13.350  42.013   4.202
38179W        W 6652  36.895  37.898   1.348
38180W        W 6653  31.018   8.821  11.491
38181W        W 6654  32.465  10.264   3.815
38182W        W 6655   0.277  26.151   4.800
38183W        W 6656  19.045  32.459  12.035
38184W        W 6657  31.025  14.152   2.800
38185W        W 6658  44.304  28.463   4.330
38186W        W 6659  39.961  24.176   4.279
38187W        W 6660  35.556  38.462  10.589
38188W        W 6661  12.727  12.318  13.814
38189W        W 6662  26.031  36.352  14.286
38190W        W 6663  33.996  33.616   2.187
38191W        W 6664   3.920   8.892   2.854
38192W        W 6665   7.808   9.148  11.030
38193W        W 6666  37.896  23.984   4.200
38194W        W 6667  34.865  18.788  12.010
38195W        W 6668   1.948   9.814   0.322
38196W        W 6669  40.036  40.888  12.054
38197W        W 6670  18.067  22.677  13.862
38198W        W 6671  18.758  13.786   0.738
38199W        W 6672   1.240  37.345  11.947
38200W        W 6673  39.058  20.567  14.919
38201W        W 6674  20.757  28.089  14.996
38202W        W 6675  27.973   3.806   0.851
38203W        W 6676  27.182  24.485   3.373
38204W        W 6677  40.406  35.922   4.308
38205W        W 6678  38.476  13.776   2.223
38206W        W 6679   3.759  32.990   3.225
38207W        W 6680  28.457  36.360   4.772
38208W        W 6681   8.257  30.088   1.757
38209W        W 6682   9.828  28.939  14.937
38210W        W 6683  12.654  30.431  14.487
38211W        W 6684  24.003  20.562  14.009
38212W        W 6685   6.902  41.009   1.433
38213W        W 6686   8.774  37.991  13.328
38214W        W 6687   0.298  24.138   2.726
38215W        W 6688  19.756  31.481   2.880
38216W        W 6689  26.101  18.715   0.865
38217W        W 6690   5.874  21.532   4.799
38218W        W 6691  20.755   1.856  14.311
38219W        W 6692   2.362   1.899  10.575
38220W        W 6693  36.483  18.244   0.306
38221W        W 6694  37.003  30.130   3.330
38222W        W 6695   4.402   9.349  13.453
38223W        W 6696   9.154  10.216   4.628
38224W        W 6697  17.633  25.699   4.710
38225W        W 6698  22.500  40.963   2.854
38226W        W 6699  25.997  14.334   5.240
38227W        W 6700  18.665  41.425   3.285
38228W        W 6701  32.001  28.545  10.519
38229W        W 6702  35.385  22.586  13.901
38230W        W 6703  22.734   6.881   1.428
38231W        W 6704  37.882  43.876  11.090
38232W        W 6705  24.573  41.419  12.382
38233W        W 6706  24.988  15.212   3.328
38234W        W 6707  28.545  14.257  11.987
38235W        W 6708  42.352   9.301  14.793
38236W        W 6709   6.758  37.840   4.676
38237W        W 6710  19.098  19.682  12.082
38238W        W 6711  29.172   1.813  11.597
38239W        W 6712   2.857   2.902  12.390
38240W        W 6713  27.692  15.292   0.734
38241W        W 6714  27.582  10.371  12.095
38242W        W 6715  10.667  44.423  13.868
38243W        W 6716  22.070  41.326  12.920
38244W        W 6717   9.707   8.376  12.895
38245W        W 6718   9.205  33.983  10.593
38246W        W 6719   1.336  29.562  13.498
38247W        W 6720  43.394  36.399  14.762
38248W        W 6721  42.980  11.669   3.738
38249W        W 6722  21.656  16.617  11.462
38250W        W 6723  13.246  37.490  13.929
38251W        W 6724  31.936  27.568  14.420
38252W        W 6725  25.000  14.626  14.022
38253W        W 6726  39.007  31.020  12.384
38254W        W 6727  40.364  13.623  10.496
38255W        W 6728  30.982  28.462   1.384
38256W        W 6729  42.976  31.922   5.182
38257W        W 6730  44.482   2.435  10.495
38258W        W 6731  25.197   5.766  14.338
38259W        W 6732   8.724  30.558   1.862
38260W        W 6733  33.065  25.707  13.917
38261W        W 6734   1.902   0.750   4.729
38262W        W 6735  16.775  21.190   3.368
38263W        W 6736  20.642  28.461  14.009
38264W        W 6737  41.382   1.307  13.978
38265W        W 6738  25.060  21.168  12.341
38266W        W 6739  35.584  44.877   3.807
38267W        W 6740  43.855  38.871  12.357
38268W        W 6741  11.254  24.523   2.682
38269W        W 6742  30.076  10.664   4.273
38270W        W 6743  36.919  35.935  14.340
38271W        W 6744  21.111  32.065   4.222
38272W        W 6745  40.895  13.275   0.416
38273W        W 6746  16.299  42.299   1.817
38274W        W 6747  32.961  26.501  14.317
38275W        W 6748  37.572   3.711   4.279
38276W        W 6749   9.384   2.894  14.396
38277W        W 6750  36.989  39.481   1.913
38278W        W 6751  20.641   3.830  13.372
38279W        W 6752  18.646   1.868  12.870
38280W        W 6753  12.199  38.521  13.060
38281W        W 6754  18.053  14.771  12.444
38282W        W 6755  25.154  41.038  11.089
38283W        W 6756  43.797   0.899  11.545
38284W        W 6757  16.199  41.967  13.003
38285W        W 6758  36.351   0.798  11.511
38286W        W 6759  36.965  22.695  10.415
38287W        W 6760  28.964   7.282   1.925
38288W        W 6761  21.197   5.321  11.570
38289W        W 6762  20.606  20.764   0.259
38290W        W 6763  35.076  36.059  13.360
38291W        W 6764  26.204  13.606   2.316
38292W        W 6765  26.186  21.633  11.863
38293W        W 6766  31.142  18.158   2.361
38294W        W 6767   0.280  28.526   0.884
38295W        W 6768   9.766   0.479  14.447
38296W        W 6769  23.558  27.017  11.958
38297W        W 6770  40.545  16.273  14.015
38298W        W 6771  43.402   8.757   4.647
38299W        W 6772   6.749  28.082   4.207
38300W        W 6773  30.481  32.891   0.364
38301W        W 6774  30.992  19.662  14.284
38302W        W 6775  15.706  35.033   0.451
38303W        W 6776  39.023  44.332  11.976
38304W        W 6777  15.628  10.178  10.619
38305W        W 6778   1.832  44.766  14.290
38306W        W 6779  10.295  15.090  11.529
38307W        W 6780  24.017   2.743  13.527
38308W        W 6781  43.452  27.514   1.806
38309W        W 6782  24.689  21.145   1.316
38310W        W 6783  35.005  26.544  13.019
38311W        W 6784  36.447   9.210  11.123
38312W        W 6785  34.116  19.141  10.519
38313W        W 6786  44.263  23.034  10.572
38314W        W 6787  21.713  40.473   3.710
38315W        W 6788   4.871   2.459   4.187
38316W        W 6789  13.311  12.850  13.432
38317W        W 6790  34.525  36.543   3.236
38318W        W 6791  26.562  27.558   1.246
38319W        W 6792  39.046   1.478   0.830
38320W        W 6793  44.846  41.962   4.225
38321W        W 6794  42.357   1.885  11.584
38322W        W 6795  16.072  11.141   2.679
38323W        W 6796  15.750  39.829   4.721
38324W        W 6797  26.182  29.478  10.540
38325W        W 6798  13.211   2.350   0.793
38326W        W 6799  22.208  21.207  10.408
38327W        W 6800   1.375   3.855  10.429
38328W        W 6801  10.756  10.673   4.313
38329W        W 6802   3.266   8.223  13.346
38330W        W 6803  36.411  43.421  11.965
38331W        W 6804  10.168  16.701   4.157
38332W        W 6805  27.025  31.425  14.815
38333W        W 6806  40.456  30.419  14.798
38334W        W 6807  44.935  13.699   0.369
38335W        W 6808  14.194  43.955  12.445
38336W        W 6809  12.636  21.050   0.758
38337W        W 6810  44.866  12.360   3.754
38338W        W 6811  36.985  12.139  11.567
38339W        W 6812  38.955  30.518  11.591
38340W        W 6813  30.919   8.342  11.417
38341W        W 6814  28.668  36.915   0.850
38342W        W 6815  16.709  34.036   1.283
38343W        W 6816   9.262  15.278   2.742
38344W        W 6817  43.880  41.397   0.852
38345W        W 6818  15.119  17.668   3.860
38346W        W 6819  40.909  24.007  13.335
38347W        W 6820  22.561  42.986  14.353
38348W        W 6821   3.242  35.392   2.711
38349W        W 6822   2.789  35.963   2.351
38350W        W 6823  40.348   7.811   2.334
38351W        W 6824  35.901   2.773  12.048
38352W        W 6825   1.238  38.950  14.975
38353W        W 6826  31.961  23.121   2.229
38354W        W 6827  18.284  27.001  13.922
38355W        W 6828  15.282   6.268  10.413
38356W        W 6829   1.301  14.234   4.304
38357W        W 6830  17.169   5.820   2.364
38358W        W 6831   8.404  18.765   2.313
38359W        W 6832  30.513  14.199   4.312
38360W        W 6833  21.566  18.214   0.773
38361W        W 6834  26.576  30.925   0.781
38362W        W 6835  18.165  23.642   0.939
38363W        W 6836  18.631  31.419   4.162
38364W        W 6837  25.679   7.385  13.020
38365W        W 6838  36.940  20.168  10.909
38366W        W 6839  33.044  11.222   0.380
38367W        W 6840  30.638  27.469  14.985
38368W        W 6841  11.288  41.888   1.379
38369W        W 6842   9.651  42.994   3.719
38370W        W 6843  36.472  12.819   3.277
38371W        W 6844  14.755  35.957  13.026
38372W        W 6845   0.766  31.546  14.776
38373W        W 6846  26.981   9.869  11.878
38374W        W 6847   5.339  41.818  11.490
38375W        W 6848  22.088  38.419  10.442
38376W        W 6849  16.568  37.335   1.332
38377W        W 6850  10.210  27.548   4.334
38378W        W 6851   6.843  36.047  10.915
38379W        W 6852   0.942  23.238  10.981
38380W        W 6853   1.374   9.240  14.016
38381W        W 6854   7.700   4.748  12.496
38382W        W 6855  25.683   2.914  11.405
38383W        W 6856  15.699  29.610  13.343
38384W        W 6857   7.228  39.967   0.461
38385W        W 6858   7.912  34.495   3.721
38386W        W 6859  17.162  31.591   9.944
38387W        W 6860  19.583   1.379   3.730
38388W        W 6861  18.694  38.916  14.977
38389W        W 6862   2.415   6.183   1.317
38390W        W 6863  29.091   5.914  13.944
38391W        W 6864  13.798   9.273   2.322
38392W        W 6865  28.162  16.773  13.482
38393W        W 6866  15.658  23.570   3.270
38394W        W 6867  34.002  37.498   3.745
38395W        W 6868  44.451  25.998   0.266
38396W        W 6869  32.473  15.675  12.398
38397W        W 6870   4.208  42.838  13.949
38398W        W 6871  10.330  38.561  10.955
38399W        W 6872   4.285  33.568  10.087
38400W        W 6873  44.800  44.911  14.293
38401W        W 6874   8.719  43.956  11.604
38402W        W 6875  22.556   8.680  11.512
38403W        W 6876  17.298  21.595   4.252
38404W        W 6877  27.095  37.416  13.468
38405W        W 6878  16.802  34.083  14.876
38406W        W 6879  30.086  19.565   3.182
38407W        W 6880  17.200   0.976  10.978
38408W        W 6881  24.690  36.513  11.417
38409W        W 6882  15.631   4.430  14.288
38410W        W 6883  37.379   6.820   0.840
38411W        W 6884  43.333  11.629   0.302
38412W        W 6885  20.569  16.632   4.265
38413W        W 6886  10.359  17.251   4.682
38414W        W 6887  14.255  11.334  10.408
38415W        W 6888  29.613  34.497  14.899
38416W        W 6889  43.885  44.444   3.286
38417W        W 6890  21.046  18.263   3.339
38418W        W 6891  34.503  41.405  14.910
38419W        W 6892  11.139  31.110   3.711
38420W        W 6893  19.247  16.758   1.434
38421W        W 6894  21.017  20.608   0.807
38422W        W 6895   3.290   5.917  13.911
38423W        W 6896  14.114  42.848  14.939
38424W        W 6897  32.492  32.530  13.064
38425W        W 6898   7.185  17.183   1.703
38426W        W 6899  21.638  42.928   3.357
38427W        W 6900  19.164  36.374  14.023
38428W        W 6901  41.940   9.817   1.806
38429W        W 6902  25.505  33.971  14.324
38430W        W 6903  38.401  17.610   3.148
38431W        W 6904  24.120  16.626  11.954
38432W        W 6905  44.455  23.526   0.808
38433W        W 6906   0.743  21.537  11.496
38434W        W 6907   4.817  27.102   0.311
38435W        W 6908  28.964  24.018   2.900
38436W        W 6909  37.940   6.330   2.752
38437W        W 6910  40.968  10.722   4.118
38438W        W 6911  14.221   5.854   2.729
38439W        W 6912  39.487  41.882  14.951
38440W        W 6913  16.737  16.143   2.784
38441W        W 6914  10.180  38.829   4.768
38442W        W 6915  23.092   2.395   4.194
38443W        W 6916  37.399  33.412   5.256
38444W        W 6917  44.483  21.616  11.445
38445W        W 6918  29.560  40.919   0.918
38446W        W 6919  13.225  24.991   1.267
38447W        W 6920  14.805  35.359   1.846
38448W        W 6921  33.490  21.128   5.129
38449W        W 6922  40.385  16.568  11.479
38450W        W 6923  16.234  16.745   4.207
38451W        W 6924  26.583  18.584   5.271
38452W        W 6925   3.353  36.935   0.897
38453W        W 6926  15.601   9.757   0.422
38454W        W 6927   7.872   4.384   4.685
38455W        W 6928   6.676   9.653   1.921
38456W        W 6929  18.676  11.325  12.830
38457W        W 6930  28.644  40.387   4.219
38458W        W 6931   0.757  12.334   0.768
38459W        W 6932  18.617  27.545   2.245
38460W        W 6933  13.297   2.328   3.762
38461W        W 6934  19.157  39.559   4.193
38462W        W 6935  16.179  29.923   1.244
38463W        W 6936  28.609   9.794  12.382
38464W        W 6937  24.137  21.651  13.846
38465W        W 6938  18.215  18.684  12.024
38466W        W 6939  44.827  20.229  11.006
38467W        W 6940   6.917  11.786   1.343
38468W        W 6941  42.384  42.944  13.820
38469W        W 6942  12.695  26.103  13.850
38470W        W 6943   7.814  10.325   4.642
38471W        W 6944  18.763   3.267   2.204
38472W        W 6945  29.926   0.878  12.925
38473W        W 6946   4.826  15.620  12.540
38474W        W 6947  42.362  27.597   0.478
38475W        W 6948  22.717  27.170  12.991
38476W        W 6949  40.844  13.237  10.949
38477W        W 6950   8.358   9.328  14.019
38478W        W 6951  23.709  30.001   1.848
38479W        W 6952  32.993   7.401   2.325
38480W        W 6953  41.476   6.692  12.939
38481W        W 6954  12.171  10.233  12.061
38482W        W 6955  30.066  22.995  11.861
38483W        W 6956  18.699  12.619  13.847
38484W        W 6957  44.283  22.250   2.255
38485W        W 6958  32.489  27.577   2.712
38486W        W 6959  44.787  23.996   1.372
38487W        W 6960  32.992   7.897   2.269
38488W        W 6961  12.139  35.397  13.816
38489W        W 6962  42.358  10.637   1.317
38490W        W 6963  22.022   3.404  12.465
38491W        W 6964  21.566   6.335   0.760
38492W        W 6965  35.076  23.645   0.959
38493W        W 6966  27.531  23.598  13.015
38494W        W 6967  16.577  19.191   4.647
38495W        W 6968  10.230   7.388   0.463
38496W        W 6969   8.277  26.685   1.815
38497W        W 6970  14.237  21.077   2.685
38498W        W 6971  39.419   9.217   2.415
38499W        W 6972  41.022  38.956  12.933
38500W        W 6973   4.448  18.153   0.858
38501W        W 6974  41.788  43.435  13.365
38502W        W 6975  21.128   0.789   3.810
38503W        W 6976   9.754  35.066  11.867
38504W        W 6977  28.961  21.607   0.752
38505W        W 6978   9.647  39.483  13.336
38506W        W 6979  18.548  39.850  12.482
38507W        W 6980  14.726  44.890  14.836
38508W        W 6981  43.994  28.059   4.765
38509W        W 6982   2.839  14.637   3.743
38510W        W 6983  44.405  18.603   0.910
38511W        W 6984  21.185  13.238   3.378
38512W        W 6985   8.739  19.700  10.426
38513W        W 6986  27.134  11.711  11.113
38514W        W 6987  43.849  36.460   3.196
38515W        W 6988  26.179  28.665   0.300
38516W        W 6989  19.772  10.192   1.750
38517W        W 6990  11.629  35.600  14.002
38518W        W 6991  43.777   9.786   0.340
38519W        W 6992   3.283  29.951  14.389
38520W        W 6993  24.042  40.432  12.517
38521W        W 6994  23.603  23.067  13.414
38522W        W 6995  23.640   6.222   2.204
38523W        W 6996  10.725   2.367   1.253
38524W        W 6997   5.225  34.479   4.141
38525W        W 6998  27.047  18.590   0.937
38526W        W 6999   2.357  20.052   2.787
38527W        W 7000  19.708  10.216   1.432
38528W        W 7001  18.151  26.596   0.909
38529W        W 7002  44.475   2.922  10.565
38530W        W 7003  10.858  37.971   1.884
38531W        W 7004  13.318  42.411  12.910
38532W        W 7005  42.291  33.383  12.474
38533W        W 7006  35.592  12.614   2.184
38534W        W 7007   1.888  19.077  14.495
38535W        W 7008  27.962   6.205  11.093
38536W        W 7009  24.138  22.521  11.554
38537W        W 7010  18.294  31.556  12.560
38538W        W 7011  42.912  37.483   2.217
38539W        W 7012  29.568  15.307   0.287
38540W        W 7013  11.212  11.149  12.936
38541W        W 7014   9.347   3.221   3.272
38542W        W 7015  40.355  30.413   3.803
38543W        W 7016  18.121  21.068   3.274
38544W        W 7017  29.019   3.905   0.467
38545W        W 7018  35.089   5.431  10.644
38546W        W 7019   6.858  10.353   0.774
38547W        W 7020  37.832   4.230   2.755
38548W        W 7021  39.409   2.742  11.386
38549W        W 7022   3.452  38.000   5.162
38550W        W 7023  35.584   3.220  11.464
38551W        W 7024  39.392  40.984  12.460
38552W        W 7025  23.547  15.250   1.854
38553W        W 7026  27.991   2.799  13.405
38554W        W 7027  30.620  21.737  10.575
38555W        W 7028  11.698  39.012   3.858
38556W        W 7029   0.930  35.971  12.527
38557W        W 7030  15.140  38.418  10.461
38558W        W 7031  18.578  42.455  10.403
38559W        W 7032  44.773  11.260  14.324
38560W        W 7033  26.958  42.341  11.573
38561W        W 7034   4.710  14.209   2.269
38562W        W 7035  36.506  15.105   1.231
38563W        W 7036  41.829  19.271   2.382
38564W        W 7037  33.569  16.678   2.789
38565W        W 7038  20.620   1.949   3.213
38566W        W 7039   2.434  38.841  10.572
38567W        W 7040  33.119  18.148   0.415
38568W        W 7041  20.133  33.427   0.369
38569W        W 7042  34.990  12.325   4.715
38570W        W 7043   2.872  38.034  13.490
38571W        W 7044   9.357  23.557  10.615
38572W        W 7045  12.251  39.457  12.887
38573W        W 7046   2.730  28.506   1.308
38574W        W 7047  37.514  13.324   2.346
38575W        W 7048   8.299  41.534  12.399
38576W        W 7049   8.355   9.682   4.155
38577W        W 7050   7.356  40.000  11.856
38578W        W 7051  11.833  33.567   1.807
38579W        W 7052  32.933   5.776   4.334
38580W        W 7053  17.061  10.846  14.393
38581W        W 7054   3.229  38.922  11.456
38582W        W 7055  19.047  27.688   1.369
38583W        W 7056  11.744   2.810  11.451
38584W        W 7057  20.749  29.654   1.811
38585W        W 7058  12.627  19.777  11.446
38586W        W 7059  21.047  21.238  13.526
38587W        W 7060  21.018  41.910  13.485
38588W        W 7061  11.156  29.529  10.477
38589W        W 7062  29.963   0.820   0.436
38590W        W 7063  23.138  13.616   4.287
38591W        W 7064  31.560   6.241   4.672
38592W        W 7065   8.896  10.858  12.085
38593W        W 7066  21.578  44.420  12.429
38594W        W 7067  23.181   7.808   4.754
38595W        W 7068   7.711  22.595   2.384
38596W        W 7069  44.489  31.093  11.410
38597W        W 7070  14.131  22.069   0.272
38598W        W 7071  24.575   1.866   2.816
38599W        W 7072  14.164  25.531   2.199
38600W        W 7073  27.995  37.913  12.459
38601W        W 7074  15.125  18.253   0.380
38602W        W 7075  33.102  36.939   0.269
38603W        W 7076  13.705   1.759   3.220
38604W        W 7077  34.508  43.509   0.289
38605W        W 7078  23.195  26.614  14.998
38606W        W 7079  15.186   0.880   2.741
38607W        W 7080  19.761  23.493  10.890
38608W        W 7081  27.476  32.451  13.823
38609W        W 7082   6.731  18.092  11.953
38610W        W 7083   8.175  39.391  14.285
38611W        W 7084   9.702  10.702   0.894
38612W        W 7085  42.888  42.905  14.485
38613W        W 7086  19.181  17.586   4.235
38614W        W 7087  29.051  13.136   0.806
38615W        W 7088  24.086  40.837   0.423
38616W        W 7089  36.882  35.961   3.313
38617W        W 7090  26.702  19.586   2.780
38618W        W 7091  43.300  42.321   4.798
38619W        W 7092  10.818  29.154   0.942
38620W        W 7093   9.178  11.784   9.971
38621W        W 7094  17.558  26.165   1.350
38622W        W 7095  39.019   9.332   3.346
38623W        W 7096  14.190  40.928  11.884
38624W        W 7097   6.920  14.804   1.218
38625W        W 7098  38.059   4.383   2.263
38626W        W 7099  37.897  31.607  12.434
38627W        W 7100  39.836  23.578  10.896
38628W        W 7101   2.283  44.421   1.742
38629W        W 7102  36.040  32.091   3.152
38630W        W 7103  22.702  23.174  12.412
38631W        W 7104  33.435  15.726  12.027
38632W        W 7105   0.466  21.511   2.870
38633W        W 7106  44.344  16.114   4.738
38634W        W 7107  26.063  14.255   4.329
38635W        W 7108  10.686  41.509   4.794
38636W        W 7109  36.438   8.860   4.134
38637W        W 7110  12.679  19.089  14.423
38638W        W 7111  28.501   8.207  10.472
38639W        W 7112  19.130  10.775   3.260
38640W        W 7113  13.338  18.724   1.295
38641W        W 7114   1.429   5.841  11.896
38642W        W 7115  40.492  25.028  14.943
38643W        W 7116  18.216   0.360  13.860
38644W        W 7117  40.549  42.989   1.873
38645W        W 7118  40.053  43.474   3.291
38646W        W 7119   1.407  39.411   1.802
38647W        W 7120  24.495   2.329  12.937
38648W        W 7121   2.947  32.391   4.782
38649W        W 7122  14.787  14.640   1.852
38650W        W 7123  44.995  39.002   2.376
38651W        W 7124  31.568  29.956  14.932
38652W        W 7125  22.176   9.223  11.053
38653W        W 7126  42.329  37.428  11.073
38654W        W 7127  30.969   7.754   4.300
38655W        W 7128  28.523   7.720   3.802
38656W        W 7129  23.206  11.766   0.401
38657W        W 7130  14.619   0.406  14.387
38658W        W 7131  38.980  34.593   2.355
38659W        W 7132  11.727  31.628   0.870
38660W        W 7133  44.410  12.710   1.803
38661W        W 7134  20.181   0.453   3.354
38662W        W 7135  37.845  26.641   1.435
38663W        W 7136  21.750  36.944  13.862
38664W        W 7137  43.922  15.104   0.967
38665W        W 7138  20.591  18.220   0.253
38666W        W 7139  36.856  29.485   4.767
38667W        W 7140  44.330  29.086  14.391
38668W        W 7141  16.113   6.883   3.227
38669W        W 7142  22.140   4.293   3.846
38670W        W 7143  20.562  39.982   4.818
38671W        W 7144   6.808  39.813  14.368
38672W        W 7145   4.275   0.400   4.665
38673W        W 7146  34.380  13.635   2.903
38674W        W 7147  11.672  14.306   0.817
38675W        W 7148   3.278  38.504  10.616
38676W        W 7149  35.971  27.026  10.443
38677W        W 7150   8.346   8.164  10.462
38678W        W 7151  11.805  12.663   3.851
38679W        W 7152  35.915   5.371   2.778
38680W        W 7153  19.542   1.396   3.346
38681W        W 7154  21.644  13.829   1.334
38682W        W 7155   7.793  30.553  10.617
38683W        W 7156  21.172  37.492  10.490
38684W        W 7157   5.290  22.071  10.563
38685W        W 7158  24.588  38.038   2.335
38686W        W 7159  22.694   1.283  10.621
38687W        W 7160  12.833  14.754  11.588
38688W        W 7161  16.714  37.059  11.932
38689W        W 7162  19.737  41.529  12.930
38690W        W 7163  30.933  22.689   3.724
38691W        W 7164  28.041   5.868  13.951
38692W        W 7165  14.698   9.376  10.442
38693W        W 7166  11.831  17.670   0.756
38694W        W 7167   4.234   2.333  14.759
38695W        W 7168   4.243  17.600   0.862
38696W        W 7169   1.481  11.149   4.833
38697W        W 7170  22.162  30.940   1.345
38698W        W 7171   7.263  39.892   1.722
38699W        W 7172  24.021   1.905  12.975
38700W        W 7173  31.901  15.144  10.946
38701W        W 7174  43.824  26.616   1.263
38702W        W 7175   6.884   1.483  14.806
38703W        W 7176  40.856  34.964  10.524
38704W        W 7177  36.903  27.052   1.412
38705W        W 7178  17.207   1.338  12.948
38706W        W 7179  23.733  22.090  13.990
38707W        W 7180  35.472  29.084  13.430
38708W        W 7181  34.419  22.639  12.491
38709W        W 7182  40.924  38.964  11.111
38710W        W 7183  12.614  10.189  10.915
38711W        W 7184  37.426  39.340   0.780
38712W        W 7185  12.343  20.769  13.358
38713W        W 7186  25.536  37.530  11.374
38714W        W 7187   4.291  41.818   3.740
38715W        W 7188  29.041  38.448   3.782
38716W        W 7189  36.394   6.850  12.037
38717W        W 7190  41.855  15.780  11.554
38718W        W 7191   6.906  19.672   4.752
38719W        W 7192  40.035  42.502   3.271
38720W        W 7193  30.454  24.210  11.057
38721W        W 7194   8.711  25.522  11.048
38722W        W 7195  29.973  19.064   0.845
38723W        W 7196  18.734  11.334   3.145
38724W        W 7197   9.832  44.438  11.575
38725W        W 7198  13.767   9.653  11.431
38726W        W 7199  12.359   0.815   1.897
38727W        W 7200   4.927  30.091  11.031
38728W        W 7201  40.953  12.283   2.246
38729W        W 7202  23.117  13.797   0.755
38730W        W 7203  44.953   0.385   1.277
38731W        W 7204  30.966  41.871   9.551
38732W        W 7205  41.821   4.359   4.302
38733W        W 7206  31.076  11.832  10.084
38734W        W 7207  33.126  12.637  10.493
38735W        W 7208  13.821  12.216  13.935
38736W        W 7209  44.772  35.397  11.588
38737W        W 7210  15.791  44.325  13.050
38738W        W 7211  13.645   4.408  10.517
38739W        W 7212   0.343   8.658   4.714
38740W        W 7213  26.628  35.032  10.500
38741W        W 7214  39.056  22.181   9.931
38742W        W 7215   8.228  11.314   1.416
38743W        W 7216  20.185  43.415   0.406
38744W        W 7217   5.726  20.098   1.744
38745W        W 7218  13.707  16.608   0.425
38746W        W 7219   0.258  44.856   4.246
38747W        W 7220   1.886  43.917  11.885
38748W        W 7221  41.292  44.981  14.347
38749W        W 7222  23.701  23.570  12.445
38750W        W 7223  30.052  37.408  11.570
38751W        W 7224  18.571  27.163   2.732
38752W        W 7225  43.787  32.572  12.883
38753W        W 7226   4.449  33.551   2.813
38754W        W 7227  16.149  11.177  12.828
38755W        W 7228   5.848  39.476  11.917
38756W        W 7229  18.686  32.938   3.347
38757W        W 7230  33.403  44.409   2.843
38758W        W 7231  43.006  34.028  12.541
38759W        W 7232  11.789   2.751  14.478
38760W        W 7233  37.560  26.690   2.384
38761W        W 7234   6.366  27.527  13.900
38762W        W 7235   7.866  44.394   3.801
38763W        W 7236   6.238  32.065   9.981
38764W        W 7237   1.826  15.698  10.982
38765W        W 7238  14.833  26.997   0.841
38766W        W 7239  41.801  11.261   3.168
38767W        W 7240  27.677   5.219  14.500
38768W        W 7241  12.157  29.600   0.336
38769W        W 7242  26.018  42.027   0.746
38770W        W 7243  34.576  13.601  13.517
38771W        W 7244   4.407  31.960   4.825
38772W        W 7245  10.655  18.612   0.826
38773W        W 7246  43.374  32.067   4.292
38774W        W 7247   6.833  10.237  10.898
38775W        W 7248  31.622  35.895  10.980
38776W        W 7249  12.658   1.811  12.421
38777W        W 7250  19.100  27.477  10.936
38778W        W 7251  29.480   9.663   0.844
38779W        W 7252  18.631  16.127  10.924
38780W        W 7253  23.178  44.307   2.298
38781W        W 7254  33.420   5.870  10.085
38782W        W 7255  12.282  31.627  11.404
38783W        W 7256   9.315   6.183  13.847
38784W        W 7257  15.586  13.159   0.905
38785W        W 7258  31.145  16.169  13.526
38786W        W 7259   4.401  40.990   0.282
38787W        W 7260   0.983  34.499  14.975
38788W        W 7261   2.947  25.503   2.217
38789W        W 7262   8.719  10.713  13.948
38790W        W 7263  44.390  10.646   4.734
38791W        W 7264  23.552  11.228  12.441
38792W        W 7265  15.202  25.483  11.572
38793W        W 7266  17.304  27.673  11.378
38794W        W 7267  22.105  25.182   0.865
38795W        W 7268  42.900  26.537   3.157
38796W        W 7269  10.859  20.610  12.360
38797W        W 7270  22.601  16.177   4.191
38798W        W 7271   7.821  24.640   3.304
38799W        W 7272  30.614  44.793   2.207
38800W        W 7273  41.455   4.735  13.992
38801W        W 7274   5.769  16.689   9.521
38802W        W 7275   1.963  39.049  13.326
38803W        W 7276  17.575  40.855   3.739
38804W        W 7277  30.158  36.593  10.557
38805W        W 7278  38.548   0.906   1.273
38806W        W 7279   9.199  22.155  12.948
38807W        W 7280  19.244   3.861   3.365
38808W        W 7281   8.239   5.899   1.803
38809W        W 7282  18.088  11.752   3.360
38810W        W 7283  39.885  16.645   0.263
38811W        W 7284  14.197  18.714   3.808
38812W        W 7285  43.979  17.164  10.564
38813W        W 7286   2.788  26.640  12.988
38814W        W 7287   9.339  44.997  11.888
38815W        W 7288  13.242  20.150   0.861
38816W        W 7289  42.897  43.417  12.530
38817W        W 7290  30.510   0.945   1.433
38818W        W 7291  38.390  24.494   2.392
38819W        W 7292  22.244  41.368   1.430
38820W        W 7293   6.870  41.837  14.496
38821W        W 7294  23.050  33.430  11.954
38822W        W 7295  19.085  43.427   2.675
38823W        W 7296  19.762  25.993   1.265
38824W        W 7297  26.962  36.584  13.465
38825W        W 7298  42.876  25.065  13.501
38826W        W 7299  35.464  25.000  11.377
38827W        W 7300  18.674  33.422  11.522
38828W        W 7301  43.898   6.230  14.277
38829W        W 7302  12.622  25.131  10.539
38830W        W 7303   3.264  22.161   2.695
38831W        W 7304  14.305  32.407   4.693
38832W        W 7305  31.032   7.773   5.155
38833W        W 7306   9.733  14.243  12.977
38834W        W 7307   8.300  41.814   3.844
38835W        W 7308  44.951  33.504   4.677
38836W        W 7309  42.856   4.867   1.364
38837W        W 7310  12.323  33.126   2.339
38838W        W 7311   9.676  35.962   2.713
38839W        W 7312   8.316  17.717  13.047
38840W        W 7313  21.217   2.860  13.896
38841W        W 7314  28.943  25.498  10.916
38842W        W 7315  32.501  25.024   0.833
38843W        W 7316  12.759  36.392  11.110
38844W        W 7317  20.731  16.157   1.892
38845W        W 7318  32.075   1.732   3.683
38846W        W 7319  43.490  44.819   2.786
38847W        W 7320  15.323  39.830  11.925
38848W        W 7321  30.533  26.695   3.829
38849W        W 7322  14.094  25.651  13.846
38850W        W 7323  28.111   6.299   1.344
38851W        W 7324  44.984   6.806   4.690
38852W        W 7325   3.246  43.338  14.954
38853W        W 7326   7.809   5.913   0.833
38854W        W 7327  39.375  26.191  12.366
38855W        W 7328  16.266  26.618  14.493
38856W        W 7329  29.533  28.055   1.445
38857W        W 7330  40.032  33.569  13.379
38858W        W 7331  28.972  42.281   1.881
38859W        W 7332  10.217   9.845  13.857
38860W        W 7333  21.109  29.531   5.186
38861W        W 7334  24.166  42.519   2.731
38862W        W 7335  28.528  15.321  13.818
38863W        W 7336  28.966  31.594   3.311
38864W        W 7337  15.779  11.308  14.345
38865W        W 7338  11.854   2.386  10.922
38866W        W 7339   6.905  32.033   0.821
38867W        W 7340  16.596   8.878  14.281
38868W        W 7341  17.064  17.111   4.693
38869W        W 7342   3.896  17.202  10.507
38870W        W 7343  23.175   0.304  13.842
38871W        W 7344   3.715  32.073  11.990
38872W        W 7345   5.325   4.246   3.329
38873W        W 7346  27.995  27.478  10.552
38874W        W 7347  32.635  35.570  12.463
38875W        W 7348  30.509  39.395  13.535
38876W        W 7349  15.137  15.633  11.120
38877W        W 7350   8.734  23.040   3.666
38878W        W 7351  32.102   6.231   4.727
38879W        W 7352  40.442  44.463  11.513
38880W        W 7353  34.957  18.242   1.316
38881W        W 7354  15.611  26.091  11.997
38882W        W 7355  25.589  41.953  13.930
38883W        W 7356   6.851  38.939   2.878
38884W        W 7357  36.855  25.051   1.934
38885W        W 7358  30.943  42.022  14.318
38886W        W 7359  27.092  40.821   0.243
38887W        W 7360  27.449  19.772   4.138
38888W        W 7361  43.394  12.271   2.691
38889W        W 7362  38.055  21.529   1.875
38890W        W 7363  30.018   8.706  10.588
38891W        W 7364  44.382   5.266  11.990
38892W        W 7365   9.246  24.093   0.779
38893W        W 7366  44.760  12.308  12.492
38894W        W 7367  25.635  28.946  10.414
38895W        W 7368  28.561  29.153   2.686
38896W        W 7369  43.396  36.910  11.469
38897W        W 7370  25.033  24.203  10.517
38898W        W 7371  44.981  42.282   2.340
38899W        W 7372  18.771   7.724   2.686
38900W        W 7373   5.237  19.150   2.845
38901W        W 7374  10.238  39.418   0.246
38902W        W 7375  29.140  44.454   3.705
38903W        W 7376  33.124  36.397  12.367
38904W        W 7377  10.141  25.053   1.379
38905W        W 7378  31.898   0.882  12.045
38906W        W 7379  10.190  40.967  14.930
38907W        W 7380  24.631  18.208   2.853
38908W        W 7381  37.027  21.584  12.345
38909W        W 7382  33.447  39.886  11.866
38910W        W 7383   0.924  44.842  10.538
38911W        W 7384  35.023   8.759   5.148
38912W        W 7385  16.165   5.726  11.950
38913W        W 7386  29.490  37.340  14.759
38914W        W 7387   6.702  33.548   2.680
38915W        W 7388  10.871  32.053   1.798
38916W        W 7389  24.651   6.692   0.894
38917W        W 7390  10.800  24.122  10.895
38918W        W 7391  38.906  25.509   2.712
38919W        W 7392  35.493  19.204   4.767
38920W        W 7393  12.203  21.084  12.905
38921W        W 7394   1.260  33.012  12.944
38922W        W 7395  29.547  38.478   2.223
38923W        W 7396   5.438   1.442   1.219
38924W        W 7397  23.601  29.952   1.218
38925W        W 7398  20.118  29.974  10.941
38926W        W 7399  18.768  13.115  10.524
38927W        W 7400  22.663   0.784   1.772
38928W        W 7401  41.930  32.111   3.713
38929W        W 7402   4.281  35.858  14.808
38930W        W 7403   7.844  33.528   0.893
38931W        W 7404   1.238  26.107  14.929
38932W        W 7405  44.823   8.300  13.876
38933W        W 7406  34.955  29.950  14.410
38934W        W 7407  13.183   9.881  10.476
38935W        W 7408  34.005  35.948  10.471
38936W        W 7409  35.567   4.256   4.206
38937W        W 7410  13.794  14.823  11.932
38938W        W 7411  36.920   5.747  11.891
38939W        W 7412  24.562   3.749   3.753
38940W        W 7413  19.063  24.985   2.760
38941W        W 7414  18.700  33.605   4.609
38942W        W 7415  12.704  12.337  10.999
38943W        W 7416   1.305  43.802  12.580
38944W        W 7417   4.451  34.537  13.372
38945W        W 7418  32.087  21.745   2.678
38946W        W 7419   0.266  33.568   3.273
38947W        W 7420  22.512  43.438   2.194
38948W        W 7421  23.535   5.903  12.872
38949W        W 7422  14.833  34.492  11.592
38950W        W 7423  42.959  21.071  10.069
38951W        W 7424  23.137  18.151   2.282
38952W        W 7425  15.701  13.347  13.936
38953W        W 7426  18.734   5.801  10.448
38954W        W 7427  16.802  39.351  13.905
38955W        W 7428  36.536   5.206   0.923
38956W        W 7429  28.174  35.887   5.218
38957W        W 7430  20.192  38.418  10.937
38958W        W 7431  38.410  25.708  10.453
38959W        W 7432  23.696  37.474   4.204
38960W        W 7433  12.747  27.014  10.443
38961W        W 7434  26.142  19.647  14.343
38962W        W 7435  30.433  40.877   1.751
38963W        W 7436  44.379  40.946   3.720
38964W        W 7437  35.049   2.781   2.757
38965W        W 7438  13.167  44.770   3.835
38966W        W 7439  16.627  38.496   4.341
38967W        W 7440  19.225  23.214  12.458
38968W        W 7441   0.463  29.038   0.891
38969W        W 7442   0.489  31.010   0.276
38970W        W 7443  32.069  13.698  11.400
38971W        W 7444  32.486  27.481   2.251
38972W        W 7445  23.635  32.025  10.588
38973W        W 7446  17.762  37.348   4.627
38974W        W 7447  11.649  22.565   4.602
38975W        W 7448  37.433   0.907  11.553
38976W        W 7449  12.711  29.497   1.778
38977W        W 7450  31.445  23.214  10.489
38978W        W 7451  11.721  10.769   1.699
38979W        W 7452  38.557  21.111  13.931
38980W        W 7453  43.802   5.902  14.889
38981W        W 7454  25.627  26.659   4.321
38982W        W 7455  22.164  44.906  13.859
38983W        W 7456  16.727  30.640  14.869
38984W        W 7457  25.559   8.789  13.858
38985W        W 7458  37.413  10.270   1.355
38986W        W 7459   2.965  21.208  12.565
38987W        W 7460   1.453  17.582  12.370
38988W        W 7461   8.332  23.070   2.343
38989W        W 7462  38.334  28.548  14.300
38990W        W 7463  37.432  43.398  11.053
38991W        W 7464  22.720  17.107   4.345
38992W        W 7465  28.989  29.924  11.107
38993W        W 7466  40.046   2.822   1.397
38994W        W 7467  17.251  32.424  13.492
38995W        W 7468  36.422   3.788  11.013
38996W        W 7469   7.310  36.937   1.888
38997W        W 7470  44.417  10.869   3.371
38998W        W 7471  18.265  36.954  12.567
38999W        W 7472  39.338   0.273  14.420
39000W        W 7473  11.688  27.589  11.580
39001W        W 7474  25.613  12.342  12.090
39002W        W 7475  43.807  20.038  12.972
39003W        W 7476   8.286  19.160   2.680
39004W        W 7477  22.616   1.960   4.302
39005W        W 7478  30.140  13.183   0.280
39006W        W 7479  41.438   4.865   3.380
39007W        W 7480  15.701  18.661   0.831
39008W        W 7481  29.449  30.453  11.916
39009W        W 7482  25.620  10.866  11.002
39010W        W 7483  20.525  30.024  12.429
39011W        W 7484   2.837  44.887  12.870
39012W        W 7485   7.779  31.423   1.766
39013W        W 7486  41.393   3.719   0.347
39014W        W 7487   0.802   4.829   9.956
39015W        W 7488   9.377  13.229  10.577
39016W        W 7489  37.973  20.253  12.053
39017W        W 7490  35.034  43.477  12.520
39018W        W 7491   7.298  22.187  14.786
39019W        W 7492   8.160  14.255   0.388
39020W        W 7493  14.686   5.241   3.252
39021W        W 7494   7.734  14.733   0.735
39022W        W 7495   5.751  18.734  14.021
39023W        W 7496   6.262  22.707   1.438
39024W        W 7497   7.888  20.259  13.370
39025W        W 7498  39.952  41.949   4.286
39026W        W 7499  12.341  43.497  12.922
39027W        W 7500  17.579  23.119   1.244
39028W        W 7501   0.859  15.606   2.414
39029W        W 7502  29.616  21.731  11.061
39030W        W 7503  23.543  13.134  11.979
39031W        W 7504  24.608  23.639   4.201
39032W        W 7505  43.833  32.951  14.799
39033W        W 7506  35.561  35.064   3.808
39034W        W 7507   6.238  16.694  12.001
39035W        W 7508  40.396  23.692   2.696
39036W        W 7509  28.606   8.265   1.273
39037W        W 7510  10.346  26.185  14.934
39038W        W 7511  13.291  12.691  12.351
39039W        W 7512  10.693   9.741  10.509
39040W        W 7513   5.374   9.340   4.731
39041W        W 7514  10.190  22.527   1.249
39042W        W 7515  10.649   0.954  10.501
39043W        W 7516  24.099   8.399  13.968
39044W        W 7517  10.802  17.212   1.887
39045W        W 7518  11.778  31.537  13.416
39046W        W 7519  20.244  40.800   2.308
39047W        W 7520  26.628  36.027  10.604
39048W        W 7521  37.515  18.199  13.415
39049W        W 7522  40.011  17.690   3.837
39050W        W 7523  44.758  10.644   4.331
39051W        W 7524  39.979  24.129   3.211
39052W        W 7525   0.327   4.839   4.759
39053W        W 7526  23.157  44.872  10.897
39054W        W 7527  14.696   5.865   2.333
39055W        W 7528  34.586  35.532  13.397
39056W        W 7529  31.620   6.412  14.011
39057W        W 7530  36.953   2.937   3.666
39058W        W 7531  12.741  21.257  13.959
39059W        W 7532  14.595   9.785  12.875
39060W        W 7533  24.550  26.115  13.847
39061W        W 7534  19.535  15.249  14.394
39062W        W 7535  43.453  41.298   3.261
39063W        W 7536  40.418  23.083   2.695
39064W        W 7537  25.674  11.851  11.596
39065W        W 7538  43.956  25.112  10.934
39066W        W 7539  38.487  29.015   1.927
39067W        W 7540  25.557   2.252  12.970
39068W        W 7541  18.628  37.857  14.966
39069W        W 7542  43.412  32.001  11.449
39070W        W 7543  36.001  22.538  11.377
39071W        W 7544  24.550  19.098  14.006
39072W        W 7545  20.765   6.840   1.913
39073W        W 7546  37.970  41.978   1.932
39074W        W 7547  21.660  20.226  11.066
39075W        W 7548  40.415  14.224   5.288
39076W        W 7549  38.528   9.191   4.806
39077W        W 7550  26.458   9.343   2.185
39078W        W 7551   7.865   4.793  11.450
39079W        W 7552  28.436   3.929  12.863
39080W        W 7553  32.446   2.953  13.401
39081W        W 7554  39.910  28.660   4.135
39082W        W 7555  19.722  11.306   2.731
39083W        W 7556   5.247  18.606  13.922
39084W        W 7557  38.364   5.208  10.982
39085W        W 7558  27.628   9.677   1.340
39086W        W 7559  24.541   4.424   4.712
39087W        W 7560   1.947  26.960   0.781
39088W        W 7561  31.137   1.755  14.331
39089W        W 7562  16.674  25.633   0.444
39090W        W 7563  39.930  13.618   2.838
39091W        W 7564  41.835  20.197  12.041
39092W        W 7565   7.748  12.316   0.848
39093W        W 7566  31.916   0.342  10.056
39094W        W 7567  33.108  41.898   5.168
39095W        W 7568  38.375  35.431  11.606
39096W        W 7569  30.924  41.884   2.229
39097W        W 7570  27.053  10.846   4.748
39098W        W 7571  27.104   2.804  12.511
39099W        W 7572  25.972  24.692  10.450
39100W        W 7573   8.833  16.712   4.798
39101W        W 7574  42.876   0.489  10.925
39102W        W 7575  15.237  31.402  12.496
39103W        W 7576  29.153  15.116  13.451
39104W        W 7577  25.963  18.067  13.445
39105W        W 7578  33.084  21.597   0.281
39106W        W 7579   1.768  31.912  14.477
39107W        W 7580   7.682  29.073   2.334
39108W        W 7581  24.667   0.805  13.331
39109W        W 7582  36.995  40.938   4.818
39110W        W 7583  44.781  37.926  11.510
39111W        W 7584  35.883  39.842  12.931
39112W        W 7585  26.096  26.699   3.234
39113W        W 7586  40.469  44.404  14.321
39114W        W 7587  34.949  31.934  10.487
39115W        W 7588  15.736  31.420   0.476
39116W        W 7589  31.017  39.377  11.910
39117W        W 7590  43.451  25.126  11.482
39118W        W 7591  20.042  12.615  10.132
39119W        W 7592  24.044   1.410  12.443
39120W        W 7593  41.508   3.790  12.928
39121W        W 7594  18.115   4.436  14.494
39122W        W 7595  10.760  35.508   2.298
39123W        W 7596  27.613  36.842  12.034
39124W        W 7597  42.499  33.046   0.350
39125W        W 7598  10.186  18.226  14.837
39126W        W 7599  22.083  21.642   0.813
39127W        W 7600   5.369   6.349   0.893
39128W        W 7601  34.523  19.065  12.976
39129W        W 7602  22.601  25.682   1.750
39130W        W 7603  25.670  37.367  10.144
39131W        W 7604  35.444   0.399   0.912
39132W        W 7605   2.341  20.636  11.025
39133W        W 7606  36.444   4.420  14.823
39134W        W 7607  34.979  24.166   3.335
39135W        W 7608   9.225  14.808   0.756
39136W        W 7609   3.321  29.523  13.834
39137W        W 7610  41.369  20.133   4.776
39138W        W 7611  20.112  33.489  10.540
39139W        W 7612  38.957  15.653  10.899
39140W        W 7613  40.870  30.072   1.834
39141W        W 7614  20.229  36.515   3.735
39142W        W 7615   9.181  11.341  11.019
39143W        W 7616   3.721  21.630   4.347
39144W        W 7617  18.742  18.270   1.390
39145W        W 7618  44.978  13.331   0.478
39146W        W 7619   3.898  19.637   0.916
39147W        W 7620  18.724  38.427  12.465
39148W        W 7621   4.943  23.030   0.448
39149W        W 7622  36.869  16.316   2.416
39150W        W 7623  19.604  26.501   0.952
39151W        W 7624   3.335  41.906  13.045
39152W        W 7625  27.941  37.463   0.842
39153W        W 7626  28.618  27.501  10.580
39154W        W 7627  22.660  24.706  12.969
39155W        W 7628   5.722   1.875   2.386
39156W        W 7629  43.987  24.987   1.854
39157W        W 7630  28.135  23.501  10.128
39158W        W 7631  40.831  19.721   0.385
39159W        W 7632  11.306  12.665  12.947
39160W        W 7633   6.350  21.558  13.053
39161W        W 7634  43.299  13.289   1.224
39162W        W 7635   1.932   9.356   1.831
39163W        W 7636  41.032  35.435  11.870
39164W        W 7637   7.316  17.755   1.398
39165W        W 7638   1.263  38.346   1.226
39166W        W 7639  15.316  29.013  13.914
39167W        W 7640  19.579  42.404   2.855
39168W        W 7641  27.604  30.578   1.386
39169W        W 7642  13.708  40.898   1.429
39170W        W 7643  34.503   8.206   2.181
39171W        W 7644  17.152  43.019  13.849
39172W        W 7645  44.478  35.600   1.825
39173W        W 7646  43.992  43.377   3.783
39174W        W 7647  12.354  16.125   1.911
39175W        W 7648   1.388  19.608  10.537
39176W        W 7649  30.136  27.540   0.431
39177W        W 7650   5.392  27.118  13.030
39178W        W 7651  42.855  21.653  12.447
39179W        W 7652   3.711  22.117  12.457
39180W        W 7653   5.429   1.885  10.550
39181W        W 7654  34.984  40.054   2.390
39182W        W 7655  12.347  34.008  13.514
39183W        W 7656  24.681  29.473   3.358
39184W        W 7657   4.303  22.111   0.868
39185W        W 7658  24.517  10.154  11.401
39186W        W 7659   1.404   7.717  11.559
39187W        W 7660   6.857  14.831   2.378
39188W        W 7661  23.530  21.128   4.325
39189W        W 7662  12.721  28.505   2.751
39190W        W 7663   9.187  37.568   2.264
39191W        W 7664  25.202  43.396   5.153
39192W        W 7665  15.597  43.509   4.321
39193W        W 7666  22.997  33.435  10.059
39194W        W 7667   6.704   7.336   4.617
39195W        W 7668  41.978  20.137  10.895
39196W        W 7669   6.404   5.793   1.376
39197W        W 7670   3.879  34.100  11.516
39198W        W 7671   4.395  15.739   4.261
39199W        W 7672   1.478  11.637   2.199
39200W        W 7673  10.687  39.326  14.399
39201W        W 7674   1.955  23.189  14.824
39202W        W 7675  26.154  29.993  11.898
39203W        W 7676  30.067  32.599  10.603
39204W        W 7677  38.845  25.214  14.900
39205W        W 7678  28.037  37.963  11.933
39206W        W 7679   6.701  11.268  11.961
39207W        W 7680  28.125  39.553   2.735
39208W        W 7681   7.670  38.993  11.386
39209W        W 7682  12.361   8.817  12.513
39210W        W 7683   1.753  27.517   0.306
39211W        W 7684  30.092  33.385   4.228
39212W        W 7685  10.749  36.074   9.968
39213W        W 7686   4.328   5.729   1.450
39214W        W 7687  26.537  36.515   3.364
39215W        W 7688  38.341  11.131   3.858
39216W        W 7689  40.930  18.230   3.384
39217W        W 7690  25.035   0.322   3.343
39218W        W 7691  39.543  19.127  11.611
39219W        W 7692  23.576  40.497   3.755
39220W        W 7693  21.556  25.698   5.583
39221W        W 7694   3.290  26.471  10.494
39222W        W 7695  19.747  13.684   2.720
39223W        W 7696  44.467  20.598  13.860
39224W        W 7697  15.129  26.119  14.365
39225W        W 7698  14.662  15.824   2.390
39226W        W 7699   4.713  34.975  13.470
39227W        W 7700  33.064  22.603  12.042
39228W        W 7701  33.504  24.695  11.951
39229W        W 7702  30.547   5.207   1.740
39230W        W 7703  13.799  35.981   3.189
39231W        W 7704   8.714   8.697   2.863
39232W        W 7705  41.398  35.361  14.467
39233W        W 7706  26.606  24.143  11.876
39234W        W 7707  44.399  12.857   0.436
39235W        W 7708  26.039   6.923   2.210
39236W        W 7709  10.838  39.435   0.889
39237W        W 7710   2.740  30.949  10.955
39238W        W 7711  35.578  21.124  13.062
39239W        W 7712  43.983  35.977  12.442
39240W        W 7713  20.048   0.403   2.342
39241W        W 7714  16.602  21.184   4.228
39242W        W 7715   9.386  23.551  12.087
39243W        W 7716  31.119  24.019   2.751
39244W        W 7717  26.652   8.202  13.478
39245W        W 7718  20.097  43.458  10.929
39246W        W 7719  18.567  26.068   2.280
39247W        W 7720  16.301  39.367  13.877
39248W        W 7721  35.902  28.982   0.853
39249W        W 7722  10.676  10.248  12.993
39250W        W 7723   1.346   8.736   3.793
39251W        W 7724  34.010   5.353   2.783
39252W        W 7725   5.229  22.629   4.204
39253W        W 7726  44.474  32.998  12.383
39254W        W 7727   8.247  16.720  14.444
39255W        W 7728  34.975  38.872  12.908
39256W        W 7729  27.016  18.064  13.950
39257W        W 7730   6.681  21.643  13.487
39258W        W 7731  23.139   9.778  14.924
39259W        W 7732  13.657  24.527  14.835
39260W        W 7733  31.444  31.974  14.379
39261W        W 7734  31.418   8.688   4.705
39262W        W 7735  34.464  15.270   1.891
39263W        W 7736  44.965   4.770   3.145
39264W        W 7737  21.647  34.114  13.822
39265W        W 7738  33.468   1.752   4.671
39266W        W 7739  26.193  44.313   1.213
39267W        W 7740  20.664  23.230  14.365
39268W        W 7741  36.524  14.275  10.129
39269W        W 7742   6.263  20.153   0.296
39270W        W 7743  10.798  36.350   0.327
39271W        W 7744  10.693  22.511  11.000
39272W        W 7745  41.966  20.550  10.532
39273W        W 7746   2.311   5.393  12.923
39274W        W 7747  21.548   2.918   2.261
39275W        W 7748  42.929  15.760  10.449
39276W        W 7749   1.331  43.332   0.270
39277W        W 7750  35.089  38.066  14.886
39278W        W 7751  18.166   3.784   3.717
39279W        W 7752  20.103  19.736  14.423
39280W        W 7753  27.633  14.305   1.240
39281W        W 7754  39.546  43.441   3.699
39282W        W 7755  28.085   4.231  10.072
39283W        W 7756  44.482   3.760  13.530
39284W        W 7757   1.304  23.573   3.711
39285W        W 7758  11.157  35.985   5.621
39286W        W 7759  25.103  33.068  13.479
39287W        W 7760  22.742  20.155  14.017
39288W        W 7761  15.223  38.544   2.319
39289W        W 7762  25.208  31.631  14.845
39290W        W 7763  41.517  21.144   4.730
39291W        W 7764  25.477  35.988  13.968
39292W        W 7765  23.198   5.272   3.221
39293W        W 7766  14.648  24.610  10.546
39294W        W 7767  15.126  23.518  12.489
39295W        W 7768  31.148  10.738   2.236
39296W        W 7769  18.050  33.582   3.204
39297W        W 7770  32.927  27.544  14.783
39298W        W 7771  20.673   7.209  11.036
39299W        W 7772  44.268  37.896  11.898
39300W        W 7773  42.335  36.524   2.711
39301W        W 7774  36.856   1.846   3.679
39302W        W 7775  18.179  35.583   4.273
39303W        W 7776  18.216  12.667   1.283
39304W        W 7777  36.398  29.948   3.231
39305W        W 7778  38.330  44.291  13.469
39306W        W 7779  39.990  14.698   3.221
39307W        W 7780   3.725  14.096   0.811
39308W        W 7781   9.331  40.997   1.238
39309W        W 7782  24.563   9.755   4.273
39310W        W 7783  32.594  30.934  12.962
39311W        W 7784  39.042  37.497   0.428
39312W        W 7785   4.765   6.921   3.199
39313W        W 7786   1.252  11.141  14.502
39314W        W 7787   6.756  44.456  11.487
39315W        W 7788   4.854  18.143  13.450
39316W        W 7789  16.790  26.147   4.143
39317W        W 7790  44.274   5.293  11.372
39318W        W 7791  36.052  31.495  12.977
39319W        W 7792   8.191  16.735   1.713
39320W        W 7793  13.750  13.665  14.390
39321W        W 7794  44.357  12.251  12.477
39322W        W 7795  42.865  42.000   4.754
39323W        W 7796  10.284  35.433   1.241
39324W        W 7797  39.852   2.462   2.738
39325W        W 7798  37.497  43.825   1.413
39326W        W 7799  28.978  19.631   0.453
39327W        W 7800   7.254   1.365   3.193
39328W        W 7801   5.784   5.236   0.755
39329W        W 7802   3.278  20.568   4.352
39330W        W 7803  25.039  34.515  12.549
39331W        W 7804  31.460   9.820  11.556
39332W        W 7805  33.389  38.352   1.781
39333W        W 7806  11.278  21.721   2.373
39334W        W 7807  35.599   3.720   0.411
39335W        W 7808  20.724  24.218   4.648
39336W        W 7809  36.537  25.606  12.971
39337W        W 7810  18.091  31.466   1.265
39338W        W 7811  41.457  40.517  13.832
39339W        W 7812  35.601  19.729   0.886
39340W        W 7813   5.871  34.520  11.992
39341W        W 7814  10.313  37.967   1.381
39342W        W 7815  32.059  31.149  10.580
39343W        W 7816  12.307  18.138   4.688
39344W        W 7817  31.623   4.234  11.915
39345W        W 7818   2.437  43.305  12.481
39346W        W 7819  42.805   5.282  13.370
39347W        W 7820  29.621  40.518   4.644
39348W        W 7821  22.530  13.839   5.237
39349W        W 7822  34.382   4.873   0.750
39350W        W 7823  15.244  18.676  13.371
39351W        W 7824  43.409  40.960   2.323
39352W        W 7825  24.579  13.271   2.817
39353W        W 7826  44.279  19.610   5.159
39354W        W 7827  40.950  13.708  14.804
39355W        W 7828  33.437   8.388   2.718
39356W        W 7829  21.169  16.653  11.092
39357W        W 7830  42.395  27.035   0.452
39358W        W 7831  34.393   1.327  14.453
39359W        W 7832  41.462  13.269   0.764
39360W        W 7833  19.152  16.108   1.280
39361W        W 7834   0.317  41.506  10.556
39362W        W 7835  17.307   9.332  14.284
39363W        W 7836   8.806   0.952   2.367
39364W        W 7837   0.252   7.674  11.935
39365W        W 7838  24.062  17.192   0.294
39366W        W 7839  33.044  29.521  14.416
39367W        W 7840   1.738  34.568   0.477
39368W        W 7841   0.484   0.981   3.834
39369W        W 7842  17.794  19.610   3.247
39370W        W 7843  40.017  25.174   0.294
39371W        W 7844   6.714  25.168  11.865
39372W        W 7845   6.846  22.022   4.601
39373W        W 7846  12.690  11.176  14.995
39374W        W 7847  23.209  26.619   4.267
39375W        W 7848  27.544   4.857   2.292
39376W        W 7849  21.654  26.568   0.953
39377W        W 7850  25.219  29.136   4.824
39378W        W 7851  35.523   2.444   3.186
39379W        W 7852  35.414   1.246   4.632
39380W        W 7853   7.371   2.351   2.202
39381W        W 7854  11.267  21.730  14.809
39382W        W 7855   4.435   5.295  11.498
39383W        W 7856   3.926  36.377   4.154
39384W        W 7857  20.130   2.338   3.359
39385W        W 7858  23.552  27.050  11.030
39386W        W 7859   0.975  15.589   2.866
39387W        W 7860  42.339  40.025  11.889
39388W        W 7861  21.586  34.084   1.704
39389W        W 7862  44.272   4.845   1.898
39390W        W 7863  26.557  31.933  14.511
39391W        W 7864  31.097  25.091  11.455
39392W        W 7865  14.275  38.485  10.578
39393W        W 7866   2.756  32.075   2.240
39394W        W 7867  33.462  10.857   4.626
39395W        W 7868  19.764  42.372   1.449
39396W        W 7869  38.046  22.669  11.877
39397W        W 7870  43.512  36.493   1.739
39398W        W 7871  21.651  14.233   5.716
39399W        W 7872  16.163  20.254   4.783
39400W        W 7873  28.993  34.864   2.720
39401W        W 7874  23.712  24.488   3.265
39402W        W 7875  39.352  33.908  13.503
39403W        W 7876  33.912  30.149  12.860
39404W        W 7877  23.072  20.551   4.199
39405W        W 7878   5.382  39.336  12.033
39406W        W 7879  35.476  33.413   4.232
39407W        W 7880  15.146  37.455   4.176
39408W        W 7881  41.848  39.859   0.348
39409W        W 7882   7.330  39.484  14.407
39410W        W 7883   9.207  35.403   3.225
39411W        W 7884  41.357  42.334  10.904
39412W        W 7885  10.815  14.795  14.513
39413W        W 7886   8.395  15.591   0.355
39414W        W 7887   2.763  10.719  14.296
39415W        W 7888  41.404  14.251   0.329
39416W        W 7889  32.558   2.378  14.826
39417W        W 7890  26.683  11.787   3.179
39418W        W 7891   3.730   6.408   2.224
39419W        W 7892  43.330  40.835  11.060
39420W        W 7893  24.640  36.878  14.456
39421W        W 7894  43.362  16.094   4.777
39422W        W 7895  28.548  15.192   3.246
39423W        W 7896  10.308  31.956   3.787
39424W        W 7897  26.657   5.375   3.159
39425W        W 7898  15.766  24.710   4.250
39426W        W 7899  16.134  18.645  14.496
39427W        W 7900  41.457  32.027  12.866
39428W        W 7901  33.485  10.297   0.468
39429W        W 7902  25.001  35.527   3.247
39430W        W 7903  11.735  37.574   1.269
39431W        W 7904  20.768  33.506  11.378
39432W        W 7905  13.837  25.165   4.352
39433W        W 7906  24.996  44.444  11.437
39434W        W 7907  35.871  36.014   2.390
39435W        W 7908  37.922   4.699   3.332
39436W        W 7909  40.489   0.327   3.242
39437W        W 7910  11.643   5.375  13.379
39438W        W 7911  17.183  34.409  11.080
39439W        W 7912   5.301  33.390  11.926
39440W        W 7913  12.653  32.481  13.831
39441W        W 7914   4.237  42.949  10.455
39442W        W 7915  44.811  37.548  14.761
39443W        W 7916  44.376  38.883  14.353
39444W        W 7917   0.839   2.911  14.419
39445W        W 7918   5.745   5.229  14.026
39446W        W 7919  33.537  32.567   2.273
39447W        W 7920  20.766  12.312  10.527
39448W        W 7921  33.121  17.283   0.838
39449W        W 7922  14.805  16.716  14.960
39450W        W 7923  10.841  35.594   1.412
39451W        W 7924  44.898  12.721   2.339
39452W        W 7925   8.777  42.906  13.502
39453W        W 7926   4.919  15.657   1.890
39454W        W 7927   4.844  25.022  11.378
39455W        W 7928   2.376  15.751   1.804
39456W        W 7929  16.568  20.599   4.175
39457W        W 7930   0.905  17.794  11.982
39458W        W 7931   4.248  13.783  12.367
39459W        W 7932  25.187  42.427  12.972
39460W        W 7933   8.335  22.018   0.409
39461W        W 7934  17.613  20.621  14.514
39462W        W 7935  27.196   8.892   0.833
39463W        W 7936   2.840   1.455   3.303
39464W        W 7937  17.647  33.887  10.948
39465W        W 7938   6.274  27.000  11.034
39466W        W 7939   2.399  14.800  14.946
39467W        W 7940  40.809  13.651  10.431
39468W        W 7941  28.008  12.716  13.001
39469W        W 7942  22.222   0.419  14.927
39470W        W 7943  36.972  23.651  14.398
39471W        W 7944  41.830  36.574   2.852
39472W        W 7945  38.862  30.598  12.368
39473W        W 7946  29.670  25.543  13.847
39474W        W 7947  31.013  37.356   1.767
39475W        W 7948  27.983   1.903   5.114
39476W        W 7949   6.321  37.406  14.503
39477W        W 7950  16.638  20.250  11.478
39478W        W 7951  32.123  22.125   3.667
39479W        W 7952   4.213  43.323  11.565
39480W        W 7953  27.155  21.545  13.816
39481W        W 7954  12.220  17.202   3.648
39482W        W 7955   7.209  17.144   4.836
39483W        W 7956  36.992  31.067  11.456
39484W        W 7957   5.932  40.002  12.067
39485W        W 7958  29.663   4.275  13.413
39486W        W 7959   4.237  33.550  12.007
39487W        W 7960  21.539  38.012  10.970
39488W        W 7961  41.985  21.070  10.160
39489W        W 7962  44.312  22.703   0.892
39490W        W 7963  12.681   7.888  14.501
39491W        W 7964  19.091  37.008  11.383
39492W        W 7965  31.957   4.307   2.902
39493W        W 7966  13.260  39.507   4.135
39494W        W 7967  42.816  32.905  14.841
39495W        W 7968  15.129   3.258   0.826
39496W        W 7969  21.699   4.420  11.971
39497W        W 7970  17.765  30.095  11.603
39498W        W 7971  26.531  41.027  12.848
39499W        W 7972  36.474  40.380  12.430
39500W        W 7973  22.681   6.794   2.235
39501W        W 7974  32.395  18.740  14.929
39502W        W 7975  40.877  19.678  12.040
39503W        W 7976  16.594  24.578  11.381
39504W        W 7977  40.376   9.867  11.976
39505W        W 7978   6.349  35.483  11.429
39506W        W 7979   5.794  15.133  13.896
39507W        W 7980  10.743  13.222   4.333
39508W        W 7981  23.670  13.128  10.906
39509W        W 7982  26.149  14.710  13.891
39510W        W 7983  12.229  41.976   4.635
39511W        W 7984  10.366  38.950  10.917
39512W        W 7985  19.597  12.283  11.506
39513W        W 7986   0.439  35.508   1.745
39514W        W 7987  27.058  39.893  10.945
39515W        W 7988  16.800   8.797   0.928
39516W        W 7989  39.461  21.214  11.516
39517W        W 7990  14.208  15.247  12.451
39518W        W 7991  33.911  20.562   2.218
39519W        W 7992  42.952  11.234   2.685
39520W        W 7993   6.904   4.340   9.439
39521W        W 7994   3.890  20.039  14.470
39522W        W 7995  37.926  24.510  11.874
39523W        W 7996   6.790  27.997   4.692
39524W        W 7997  20.768  10.686   3.697
39525W        W 7998  26.480   3.426   3.306
39526W        W 7999   2.943  43.886  13.399
39527W        W 8000  17.141   8.863  13.984
39528W        W 8001  33.916  31.563   1.770
39529W        W 8002   8.691  19.093   4.331
39530W        W 8003  30.494  30.552   0.800
39531W        W 8004  12.239   0.258  13.483
39532W        W 8005  24.178  12.310   4.780
39533W        W 8006  40.375  14.286   3.850
39534W        W 8007  11.670  18.727  11.902
39535W        W 8008  15.189  12.142   0.953
39536W        W 8009  20.259  12.765  10.611
39537W        W 8010   6.189  28.999   4.664
39538W        W 8011  13.779  35.473  12.908
39539W        W 8012  35.541   1.871  10.589
39540W        W 8013  32.945  12.201   0.821
39541W        W 8014  21.153  27.635  11.999
39542W        W 8015  29.467  25.052  13.914
39543W        W 8016   2.346   3.901   0.736
39544W        W 8017   2.416  43.348   0.365
39545W        W 8018   8.203  17.743  14.353
39546W        W 8019  35.883  23.213   0.249
39547W        W 8020  28.583   6.886  14.317
39548W        W 8021  25.101  40.897   2.809
39549W        W 8022   2.409   3.737   4.723
39550W        W 8023  10.205  17.769   3.312
39551W        W 8024  22.019  14.287   1.310
39552W        W 8025  13.132  43.419   0.368
39553W        W 8026  21.670  16.615  12.431
39554W        W 8027  32.075  22.177   4.621
39555W        W 8028  33.043  39.012   2.183
39556W        W 8029   6.245  10.319   4.282
39557W        W 8030   4.353  15.618   5.151
39558W        W 8031   0.321  29.428  13.475
39559W        W 8032  40.806  17.621  12.067
39560W        W 8033  26.193  10.643  14.493
39561W        W 8034  31.137  36.863  13.873
39562W        W 8035  27.057   7.890   1.849
39563W        W 8036  23.681  30.546  13.904
39564W        W 8037  38.018  40.815   2.754
39565W        W 8038  30.582  22.550  11.008
39566W        W 8039  39.036  21.153   4.810
39567W        W 8040  25.679  43.440  11.586
39568W        W 8041  25.597  16.242  12.879
39569W        W 8042  37.063  40.015  13.947
39570W        W 8043  17.684  24.533   3.868
39571W        W 8044  28.675  14.302   2.335
39572W        W 8045  26.617  14.646  14.281
39573W        W 8046  28.509  28.949   3.848
39574W        W 8047  24.119   1.835   2.685
39575W        W 8048   2.304  24.664   4.757
39576W        W 8049  16.269  39.849   4.343
39577W        W 8050  34.540   2.275   3.647
39578W        W 8051  17.156  13.802   3.243
39579W        W 8052  20.738   0.936   0.937
39580W        W 8053  15.236  32.014  11.967
39581W        W 8054  28.582  24.642  14.891
39582W        W 8055  18.613   2.748   0.923
39583W        W 8056  15.813  25.648  10.951
39584W        W 8057  15.282   2.879   0.785
39585W        W 8058   8.896  35.943  10.515
39586W        W 8059  10.318   7.772   3.155
39587W        W 8060  34.398  38.571   1.923
39588W        W 8061  29.999  10.702  12.460
39589W        W 8062  17.170  12.794   0.820
39590W        W 8063  42.899  37.521   1.897
39591W        W 8064  26.552  12.688   5.171
39592W        W 8065  30.460  44.931  13.025
39593W        W 8066   7.892  10.876   3.853
39594W        W 8067  19.554  44.958  11.432
39595W        W 8068   8.190  40.474   2.382
39596W        W 8069   3.723   2.834   3.250
39597W        W 8070  13.195  21.714  14.832
39598W        W 8071  25.147  19.765  12.437
39599W        W 8072  27.685  28.072  12.365
39600W        W 8073  17.559   3.778   4.312
39601W        W 8074  29.431  35.941  11.115
39602W        W 8075  40.522  20.254  10.961
39603W        W 8076   0.478   8.226  13.412
39604W        W 8077  16.194  31.508   1.407
39605W        W 8078  12.762  25.196  14.841
39606W        W 8079  42.912  21.180   2.830
39607W        W 8080  17.193   1.368   9.995
39608W        W 8081   2.899  26.642  10.961
39609W        W 8082  24.146  37.439  13.033
39610W        W 8083   4.269   3.896   3.770
39611W        W 8084  27.004  41.965  13.382
39612W        W 8085  44.806  25.976   4.258
39613W        W 8086  25.575  16.589   3.346
39614W        W 8087  27.132  19.256  10.941
39615W        W 8088  33.021  23.102  12.439
39616W        W 8089  14.216   3.407   2.761
39617W        W 8090  44.285  14.721  14.929
39618W        W 8091  38.416   7.199  10.449
39619W        W 8092  30.056  11.752   0.440
39620W        W 8093   7.852  39.037   3.157
39621W        W 8094  10.189  21.732  14.018
39622W        W 8095  13.271  24.981   3.344
39623W        W 8096   1.771   7.689  10.636
39624W        W 8097   3.894  11.294  13.527
39625W        W 8098  23.558  20.179  14.846
39626W        W 8099  26.572  35.428   4.741
39627W        W 8100  12.178  43.957   0.862
39628W        W 8101  34.378  33.092   2.267
39629W        W 8102  44.281  39.532   0.424
39630W        W 8103  43.922  18.092  13.057
39631W        W 8104  16.270  13.660   0.355
39632W        W 8105  36.496  27.059  14.874
39633W        W 8106   0.355  23.236   1.763
39634W        W 8107  30.991  26.110   3.387
39635W        W 8108  16.683  31.011   1.310
39636W        W 8109   6.757   1.812  11.477
39637W        W 8110  11.154   0.272   0.321
39638W        W 8111  38.443  18.760  14.461
39639W        W 8112  34.984  43.377   1.870
39640W        W 8113  23.638  43.865   3.787
39641W        W 8114  21.133  26.576  14.385
39642W        W 8115  38.489  33.497   4.198
39643W        W 8116  44.848  22.247  13.031
39644W        W 8117  34.609   9.175  11.553
39645W        W 8118   6.732  17.204  11.078
39646W        W 8119  37.024   9.787   0.299
39647W        W 8120  29.545  11.243  10.483
39648W        W 8121  16.308  16.676   3.841
39649W        W 8122   6.720  10.292  11.506
39650W        W 8123  40.387  19.150   4.752
39651W        W 8124  23.724  33.072  14.936
39652W        W 8125   3.758   6.677   2.870
39653W        W 8126  15.736   5.889   0.451
39654W        W 8127  19.641  31.073   1.323
39655W        W 8128   5.437  13.729   4.221
39656W        W 8129  23.182   6.742   4.771
39657W        W 8130   2.827  41.443  12.046
39658W        W 8131  22.204  35.382  14.305
39659W        W 8132  15.206  33.454   3.202
39660W        W 8133  17.269  30.128   2.783
39661W        W 8134   9.382  25.110   2.749
39662W        W 8135  18.740  19.228   0.923
39663W        W 8136   2.914  16.721  14.479
39664W        W 8137   6.398  22.059  13.949
39665W        W 8138  36.070  36.970  10.583
39666W        W 8139   3.374  16.224  12.565
39667W        W 8140  11.300  15.095  14.832
39668W        W 8141  33.534  24.547   2.833
39669W        W 8142   7.889  30.510  12.974
39670W        W 8143  36.091  12.725  12.342
39671W        W 8144   3.931   2.388  14.907
39672W        W 8145  21.140  17.579   1.426
39673W        W 8146  28.990  42.352   0.471
39674W        W 8147  14.757  28.653   4.136
39675W        W 8148   1.409   2.735  10.502
39676W        W 8149  12.762   9.375   3.735
39677W        W 8150  28.546  25.484   0.376
39678W        W 8151  16.688  15.601   1.735
39679W        W 8152  28.603  22.679  14.403
39680W        W 8153   8.656   4.797  10.459
39681W        W 8154   5.886  13.721   3.238
39682W        W 8155  26.067   3.332  11.372
39683W        W 8156   9.685  42.020   2.678
39684W        W 8157  10.182  43.979  14.019
39685W        W 8158  39.879  38.851   3.839
39686W        W 8159  43.820  44.930   4.140
39687W        W 8160  44.863  15.239   0.741
39688W        W 8161  25.662  16.674  14.865
39689W        W 8162  10.869   0.983   0.333
39690W        W 8163  32.534  41.393  12.052
39691W        W 8164  17.690  19.182  11.076
39692W        W 8165  32.528  36.015  11.607
39693W        W 8166  10.191   7.783   2.746
39694W        W 8167  13.215   1.895  11.016
39695W        W 8168  43.792  21.532   2.830
39696W        W 8169  11.648  16.733  11.106
39697W        W 8170  18.742  29.956  14.008
39698W        W 8171   9.699  10.258  12.884
39699W        W 8172   4.413  15.687  11.948
39700W        W 8173   8.333  37.390  14.878
39701W        W 8174   4.335  43.289   3.630
39702W        W 8175   0.888  12.766   3.233
39703W        W 8176  21.042  16.165   0.331
39704W        W 8177  21.186  37.392   1.834
39705W        W 8178   6.290   5.356   5.308
39706W        W 8179  11.311   3.254   4.744
39707W        W 8180  43.882  15.163   1.804
39708W        W 8181  16.622  12.829   4.218
39709W        W 8182  35.038  42.364  13.994
39710W        W 8183   8.309  10.784   0.763
39711W        W 8184  26.010  11.281  11.096
39712W        W 8185  40.834  37.423   1.428
39713W        W 8186  34.500  44.889  10.611
39714W        W 8187  34.928  37.983  13.058
39715W        W 8188   2.362  23.517   9.976
39716W        W 8189  20.527  30.468   3.177
39717W        W 8190   6.255   5.832   9.959
39718W        W 8191  43.966  38.459  11.888
39719W        W 8192   4.351  29.494  11.573
39720W        W 8193  41.893  22.734   5.233
39721W        W 8194  11.635   9.250  11.904
39722W        W 8195   2.726  11.694  10.410
39723W        W 8196  15.766  44.270  12.050
39724W        W 8197  37.065  43.820   2.750
39725W        W 8198  35.881  14.124  14.440
39726W        W 8199  43.938  23.652   4.308
39727W        W 8200  43.360  14.699   2.232
39728W        W 8201  37.404  31.505   0.442
39729W        W 8202  30.951  21.074   0.262
39730W        W 8203  12.136  20.733   1.766
39731W        W 8204  36.487  35.863  11.404
39732W        W 8205  11.234  11.306   0.912
39733W        W 8206  18.077  32.922   0.836
39734W        W 8207  23.593  30.104  12.838
39735W        W 8208   6.893  17.714   2.359
39736W        W 8209  17.090  15.586   3.774
39737W        W 8210   3.284  32.063   1.440
39738W        W 8211  36.951  13.160  12.879
39739W        W 8212   0.479  25.000  12.561
39740W        W 8213  14.263  30.538   0.870
39741W        W 8214  12.230  19.553  14.315
39742W        W 8215  15.604  38.498   0.267
39743W        W 8216  16.218  24.598   4.780
39744W        W 8217  40.953   4.888  12.869
39745W        W 8218   4.924  18.142  10.108
39746W        W 8219  15.232  25.690  14.892
39747W        W 8220  34.972  34.517   0.479
39748W        W 8221  42.878  31.459   4.674
39749W        W 8222  42.303   8.741   4.614
39750W        W 8223   0.926  22.233   4.733
39751W        W 8224  42.512  23.214  10.910
39752W        W 8225  41.418  10.856  14.485
39753W        W 8226  30.471  30.045   2.178
39754W        W 8227  40.838   3.245  14.918
39755W        W 8228  30.603  41.945   5.118
39756W        W 8229  22.039   8.197   4.344
39757W        W 8230  40.951   6.223  11.447
39758W        W 8231  14.678  10.296  12.351
39759W        W 8232  10.158  15.697  13.870
39760W        W 8233  16.270  10.806  10.626
39761W        W 8234  30.156  37.346   4.326
39762W        W 8235  23.660   6.867  14.894
39763W        W 8236   7.373  15.622   1.792
39764W        W 8237   3.459  16.188   2.267
39765W        W 8238  27.469   5.811  14.373
39766W        W 8239  31.066  23.578  14.990
39767W        W 8240  11.635  31.530  11.033
39768W        W 8241   8.733  25.142   3.199
39769W        W 8242  13.745  33.623   4.812
39770W        W 8243  32.018  15.179  11.505
39771W        W 8244  34.372  32.502  14.839
39772W        W 8245  17.733  36.933  11.506
39773W        W 8246  37.526   2.903  10.557
39774W        W 8247  10.797  27.583  11.035
39775W        W 8248  28.049  30.456   3.257
39776W        W 8249  36.867   2.893   1.395
39777W        W 8250  24.536   4.377  13.063
39778W        W 8251  29.946  42.364   4.323
39779W        W 8252  36.463  31.587  13.938
39780W        W 8253   3.303   3.441  10.931
39781W        W 8254  10.314   0.906  13.993
39782W        W 8255  42.527  41.003   4.137
39783W        W 8256  16.157  23.114  11.024
39784W        W 8257  27.095  18.248  12.960
39785W        W 8258  35.519  39.358   0.406
39786W        W 8259   2.780  11.329   0.312
39787W        W 8260  16.767  39.558  14.359
39788W        W 8261  11.710  27.987   0.435
39789W        W 8262   1.450  18.176  10.912
39790W        W 8263  40.000  35.460   1.698
39791W        W 8264   4.267  22.010   4.807
39792W        W 8265  32.407  18.066   3.256
39793W        W 8266  21.630  11.247  12.385
39794W        W 8267  25.969  26.952  13.458
39795W        W 8268  26.008  30.087   1.283
39796W        W 8269   8.862  28.607  10.947
39797W        W 8270  35.586  25.978  11.060
39798W        W 8271  36.847  17.068   1.323
39799W        W 8272  44.819  43.276   4.738
39800W        W 8273  26.018  32.630  10.447
39801W        W 8274  10.320   4.778  14.411
39802W        W 8275   1.385  26.161   3.767
39803W        W 8276   1.323  22.704  13.514
39804W        W 8277  37.436   3.917  11.883
39805W        W 8278   5.286  13.728   1.781
39806W        W 8279  23.587   2.432  10.508
39807W        W 8280  17.248  32.960   1.445
39808W        W 8281  39.524   2.380  12.891
39809W        W 8282  27.111  27.005   0.462
39810W        W 8283   3.231  21.148   2.228
39811W        W 8284  18.605  34.899   1.901
39812W        W 8285  21.599  16.098   4.624
39813W        W 8286  21.645   0.283  13.998
39814W        W 8287   0.309  16.314  13.437
39815W        W 8288  32.561  30.617  14.828
39816W        W 8289   9.277  16.255  14.996
39817W        W 8290  37.941   9.171   1.436
39818W        W 8291  39.440  43.488   2.214
39819W        W 8292   2.325  30.540   3.374
39820W        W 8293   2.876   0.853  13.418
39821W        W 8294  18.121   0.294   4.269
39822W        W 8295   2.383  20.672   4.299
39823W        W 8296   2.334   4.391   2.865
39824W        W 8297  22.074  30.633  13.838
39825W        W 8298   4.339  10.282  14.869
39826W        W 8299  38.488  42.900  11.607
39827W        W 8300  28.616   1.958  11.966
39828W        W 8301  39.006  44.945  14.004
39829W        W 8302   8.889  16.207  14.015
39830W        W 8303  44.428   8.714  11.045
39831W        W 8304  26.086  11.227   0.268
39832W        W 8305  38.929  15.236   2.241
39833W        W 8306  42.793  25.014   1.284
39834W        W 8307   6.784   1.393   2.195
39835W        W 8308  34.034  26.642  10.461
39836W        W 8309  22.110  44.953   1.219
39837W        W 8310  15.702  33.991  10.636
39838W        W 8311  29.659  38.996  10.914
39839W        W 8312  40.348  38.013   2.203
39840W        W 8313   8.724  36.375   0.415
39841W        W 8314  14.589  22.084   2.848
39842W        W 8315   7.192  41.387   1.799
39843W        W 8316  41.471  38.069  14.378
39844W        W 8317  38.431  22.238  10.525
39845W        W 8318  34.923   1.468  14.836
39846W        W 8319  15.306  24.610  13.980
39847W        W 8320  33.419  21.567   1.809
39848W        W 8321   6.232  13.650   4.794
39849W        W 8322  39.883   5.369  11.991
39850W        W 8323  28.948  27.009  13.805
39851W        W 8324   8.200  29.456   0.323
39852W        W 8325  29.108  44.836   0.856
39853W        W 8326  36.010  20.242   1.794
39854W        W 8327  32.119   8.838   0.321
39855W        W 8328   0.280  40.487   2.829
39856W        W 8329  21.708  19.686  11.385
39857W        W 8330  18.756  30.060   2.330
39858W        W 8331  38.873  37.431  11.481
39859W        W 8332  37.530  36.990  13.823
39860W        W 8333  43.335   8.325   4.129
39861W        W 8334   0.907  24.691   2.393
39862W        W 8335  14.312  18.565   0.873
39863W        W 8336  37.425  24.515   1.743
39864W        W 8337  19.774   4.867   4.230
39865W        W 8338  21.223  10.875   4.746
39866W        W 8339   4.301  43.779   1.247
39867W        W 8340  14.194  13.644  14.800
39868W        W 8341  16.083  34.409  14.840
39869W        W 8342  36.397  37.405  12.442
39870W        W 8343  24.703  33.086   1.856
39871W        W 8344   6.685  18.619   4.630
39872W        W 8345  25.534  36.395   1.717
39873W        W 8346   9.219   7.305  11.079
39874W        W 8347  14.225   1.311   2.227
39875W        W 8348  23.147  10.662   2.686
39876W        W 8349  16.576  16.141   4.798
39877W        W 8350  11.631   9.780   2.184
39878W        W 8351   8.662  33.547   9.926
39879W        W 8352  36.960  15.161  11.605
39880W        W 8353  32.425   2.314   3.649
39881W        W 8354  10.755  38.400  10.529
39882W        W 8355  15.579  27.538   1.334
39883W        W 8356  35.521  41.897  13.329
39884W        W 8357  36.413  16.676  10.506
39885W        W 8358  27.691  10.139  10.611
39886W        W 8359  40.838  35.013   0.425
39887W        W 8360  32.999  17.788  11.961
39888W        W 8361   9.353   0.952   1.914
39889W        W 8362  10.317  19.064   0.749
39890W        W 8363  24.679  25.627   4.162
39891W        W 8364  23.646  24.982  13.416
39892W        W 8365  10.700  31.148   2.206
39893W        W 8366  22.747   1.826   2.885
39894W        W 8367  44.274  42.413   4.670
39895W        W 8368  22.621  18.132  10.896
39896W        W 8369  40.889   1.363  13.457
39897W        W 8370  21.069  19.562   1.298
39898W        W 8371  42.810   7.174   1.757
39899W        W 8372   1.921  39.328  11.983
39900W        W 8373  19.231  25.517  14.399
39901W        W 8374  35.951  42.373  14.306
39902W        W 8375  42.470  41.514   2.903
39903W        W 8376  37.937   3.383   0.288
39904W        W 8377  23.092  28.594  14.800
39905W        W 8378  43.995  31.108  10.918
39906W        W 8379  17.730  13.614   3.711
39907W        W 8380  43.878  28.061   3.159
39908W        W 8381  12.273  27.636  13.524
39909W        W 8382   8.213  30.100  14.766
39910W        W 8383   6.728  33.957  12.974
39911W        W 8384  25.661  41.978  14.454
39912W        W 8385  21.628   7.761  12.418
39913W        W 8386  23.080  40.030   4.759
39914W        W 8387  32.990  42.822   1.694
39915W        W 8388  38.329  21.124   3.825
39916W        W 8389   5.897  17.113  12.565
39917W        W 8390  12.300  25.096  12.468
39918W        W 8391  35.473   0.898   2.811
39919W        W 8392   9.734  36.039   2.308
39920W        W 8393  13.212  13.609  12.929
39921W        W 8394  16.597  42.283   0.802
39922W        W 8395   6.807  42.476   0.826
39923W        W 8396  40.979  31.899  10.585
39924W        W 8397  26.002  23.594   4.328
39925W        W 8398  17.128   6.874   3.271
39926W        W 8399  16.255  30.027   2.701
39927W        W 8400  14.824  44.842   0.929
39928W        W 8401  16.161   3.444  13.866
39929W        W 8402  10.329  31.482  10.591
39930W        W 8403   3.312  41.330   4.258
39931W        W 8404  43.868  20.110   3.825
39932W        W 8405  30.539  37.392   1.853
39933W        W 8406  30.103  24.506   0.285
39934W        W 8407  40.471   7.785   4.208
39935W        W 8408  21.744  17.201   3.162
39936W        W 8409   1.922  16.232  12.567
39937W        W 8410  21.657  28.628   4.708
39938W        W 8411  15.794  37.052  10.565
39939W        W 8412  21.063  41.831  10.412
39940W        W 8413  18.584  25.053  14.418
39941W        W 8414  28.095   9.274  12.964
39942W        W 8415  40.489  35.958  14.280
39943W        W 8416  41.472   6.365  13.891
39944W        W 8417  43.973  30.535   2.247
39945W        W 8418  40.812  32.909   3.651
39946W        W 8419  13.751  23.612  12.077
39947W        W 8420  25.632  14.236   0.873
39948W        W 8421   2.908  44.793   3.198
39949W        W 8422  34.916  35.898  12.901
39950W        W 8423  39.483  11.270  13.409
39951W        W 8424  20.701  42.370   2.183
39952W        W 8425  17.189  32.111  12.555
39953W        W 8426  14.340   4.249   1.824
39954W        W 8427  30.955  10.147  14.984
39955W        W 8428  22.743  24.983   5.221
39956W        W 8429  18.202  17.636  11.576
39957W        W 8430  18.161  43.472   1.270
39958W        W 8431  26.082  40.476  11.910
39959W        W 8432  28.964   2.965  12.368
39960W        W 8433  20.586  33.418   0.354
39961W        W 8434   7.417  29.667  13.314
39962W        W 8435  15.212   3.457  13.420
39963W        W 8436  15.757  15.163   1.410
39964W        W 8437  16.747  17.068  11.042
39965W        W 8438   0.409  30.084  10.511
39966W        W 8439  31.040  20.187   1.311
39967W        W 8440  32.574  32.440   3.772
39968W        W 8441   6.428  31.481   1.283
39969W        W 8442  15.583   6.803  13.476
39970W        W 8443  42.984  36.399  11.545
39971W        W 8444   9.179   3.313  10.118
39972W        W 8445  15.582  39.319  11.462
39973W        W 8446  33.131  36.940   1.933
39974W        W 8447   6.307  18.130  10.503
39975W        W 8448  42.441  17.162  13.329
39976W        W 8449  42.359  44.782   1.359
39977W        W 8450  43.937  19.533  13.483
39978W        W 8451   9.660  32.617   3.376
39979W        W 8452  34.889  13.631  10.589
39980W        W 8453  28.499  42.350   1.737
39981W        W 8454  26.629  19.114   1.764
39982W        W 8455  22.626  34.560   1.725
39983W        W 8456   0.826  14.646  14.339
39984W        W 8457  32.965  11.702  10.894
39985W        W 8458  34.063  21.625  10.642
39986W        W 8459   1.739  18.075  10.946
39987W        W 8460  38.964   8.767   3.811
39988W        W 8461   8.709  21.248  13.938
39989W        W 8462  18.287   8.842  12.934
39990W        W 8463  42.957  43.905   2.219
39991W        W 8464  10.736  10.314   0.370
39992W        W 8465  31.979  26.490  10.932
39993W        W 8466  39.982  23.184   3.379
39994W        W 8467  28.628  23.592   4.763
39995W        W 8468  33.020  31.139  11.083
39996W        W 8469  34.590   7.325   2.662
39997W        W 8470  25.086   4.752  12.863
39998W        W 8471  10.356   6.353   4.192
39999W        W 8472   4.435  38.971   1.293
40000W        W 8473  30.982   1.788   2.182
40001W        W 8474  23.120  39.526   1.899
40002W        W 8475  35.057  29.600  13.061
40003W        W 8476  38.567  11.321   2.825
40004W        W 8477  25.149   0.810   5.192
40005W        W 8478  27.965  31.951   2.205
40006W        W 8479  32.404  42.967  10.472
40007W        W 8480  12.781   0.269   1.291
40008W        W 8481  15.788  12.632   4.197
40009W        W 8482  12.678  29.446  11.994
40010W        W 8483   1.336  17.621   3.842
40011W        W 8484  13.634  30.059   2.685
40012W        W 8485  38.426  31.428   1.837
40013W        W 8486  19.695  35.596  10.433
40014W        W 8487  18.228  12.339  14.440
40015W        W 8488  36.485  12.698  12.344
40016W        W 8489  42.461  34.484   0.425
40017W        W 8490  17.107   4.716   5.169
40018W        W 8491   7.782  18.699   0.907
40019W        W 8492   6.702  23.495  14.933
40020W        W 8493  11.775  14.177   3.191
40021W        W 8494  11.330  27.148   1.798
40022W        W 8495   2.470  12.721   4.789
40023W        W 8496  17.617  41.390  14.894
40024W        W 8497  19.186  36.971   1.368
40025W        W 8498   7.320  21.208  12.508
40026W        W 8499  10.234  27.625  11.500
40027W        W 8500   6.425  10.255   5.178
40028W        W 8501   6.356  39.350  10.509
40029W        W 8502  24.487  36.962   3.367
40030W        W 8503  14.753   7.329   2.885
40031W        W 8504  29.054  19.692   4.151
40032W        W 8505  31.054  42.879  13.501
40033W        W 8506   8.781  41.014  11.118
40034W        W 8507   7.743  14.632   4.325
40035W        W 8508   3.279  13.108  14.481
40036W        W 8509  33.957   2.793  14.470
40037W        W 8510   2.778  37.058  10.977
40038W        W 8511  29.624  36.934   2.816
40039W        W 8512  35.958  28.002   2.750
40040W        W 8513  39.328  18.094  11.929
40041W        W 8514   6.251  36.031  13.312
40042W        W 8515  30.118  19.261   2.194
40043W        W 8516  24.121  36.880  10.958
40044W        W 8517  42.859  25.686  10.953
40045W        W 8518  31.524  33.522   3.218
40046W        W 8519  24.126   7.898   3.752
40047W        W 8520   8.764  27.156  13.870
40048W        W 8521  20.649  10.140  13.965
40049W        W 8522   7.848   9.318   2.794
40050W        W 8523  35.400   2.253  12.903
40051W        W 8524  41.330  14.315   3.206
40052W        W 8525  24.165  26.507   1.338
40053W        W 8526  31.920  25.529   4.334
40054W        W 8527   3.939  42.514   3.224
40055W        W 8528  34.472   9.370   3.298
40056W        W 8529  39.902   5.890  10.459
40057W        W 8530  13.605  10.287  10.437
40058W        W 8531   7.316  17.785   1.826
40059W        W 8532   6.328  33.111   0.420
40060W        W 8533  10.187   6.308  12.829
40061W        W 8534  15.700  19.773  12.345
40062W        W 8535   0.383  12.854   4.834
40063W        W 8536  24.203  28.446   2.355
40064W        W 8537  29.622  24.508   0.249
40065W        W 8538  38.330   4.763  12.016
40066W        W 8539  25.490  41.335   4.740
40067W        W 8540  21.540  27.164  14.431
40068W        W 8541  19.623  20.706  12.502
40069W        W 8542  18.737   1.881  13.965
40070W        W 8543  22.209  38.376  12.509
40071W        W 8544  31.546  10.138  10.506
40072W        W 8545  17.731  39.836   0.278
40073W        W 8546  17.105  29.052  14.412
40074W        W 8547  31.131  27.520  13.987
40075W        W 8548  28.592  12.244   0.370
40076W        W 8549  11.686   7.319  14.942
40077W        W 8550  12.612  31.542   1.219
40078W        W 8551   8.162  40.014   0.731
40079W        W 8552   6.255   6.874   5.583
40080W        W 8553  20.069  11.368   1.268
40081W        W 8554  15.220  41.803  13.913
40082W        W 8555  18.751  26.656  13.424
40083W        W 8556  43.442  28.961  10.503
40084W        W 8557  31.418   0.367  14.908
40085W        W 8558   2.243  15.159  14.276
40086W        W 8559  34.385  27.992   3.817
40087W        W 8560  40.981   3.453   2.393
40088W        W 8561  34.982   1.791   3.789
40089W        W 8562  29.641  33.084  12.393
40090W        W 8563  11.282   4.896  14.897
40091W        W 8564  32.579  16.194   0.810
40092W        W 8565  39.406   4.914  14.775
40093W        W 8566  25.016  32.595  12.379
40094W        W 8567  32.444   5.701  11.894
40095W        W 8568  43.894  44.420   4.720
40096W        W 8569  32.135   6.861   1.436
40097W        W 8570  42.839  28.593   3.756
40098W        W 8571   7.858  29.490  13.844
40099W        W 8572  40.497  10.725   3.693
40100W        W 8573   7.789   7.769  13.802
40101W        W 8574   7.732  43.813   3.359
40102W        W 8575  14.150  21.705  11.390
40103W        W 8576  43.416  27.097  12.971
40104W        W 8577   1.477  37.839   1.784
40105W        W 8578  31.146  38.559  13.047
40106W        W 8579  19.589  43.987   3.693
40107W        W 8580  31.148  38.074  11.929
40108W        W 8581  38.009  40.483   3.862
40109W        W 8582   5.765  16.737  13.826
40110W        W 8583   5.404   7.312  10.130
40111W        W 8584  30.501  31.929  14.873
40112W        W 8585  22.228  17.307   1.238
40113W        W 8586  13.678   2.793  10.620
40114W        W 8587  39.001  10.808   2.810
40115W        W 8588  16.232   5.829  14.986
40116W        W 8589  16.750  30.512  12.532
40117W        W 8590  38.461  16.138   2.823
40118W        W 8591  24.161  17.586   1.349
40119W        W 8592   4.836  36.098   1.911
40120W        W 8593  12.652  42.987  13.461
40121W        W 8594  36.491   7.231   3.830
40122W        W 8595  19.557  17.631   4.279
40123W        W 8596   7.823  23.159   1.862
40124W        W 8597   8.720  37.905   4.606
40125W        W 8598  18.768   7.344  13.312
40126W        W 8599   8.292  11.286   3.797
40127W        W 8600  21.091  26.551   0.336
40128W        W 8601   8.788  33.581   5.162
40129W        W 8602   5.332   4.404   4.190
40130W        W 8603   7.687  38.365   3.694
40131W        W 8604   8.254  13.729  12.049
40132W        W 8605  10.725   2.931   1.783
40133W        W 8606  38.372  40.480   3.736
40134W        W 8607  25.985  19.664  13.798
40135W        W 8608  13.127   7.221   5.138
40136W        W 8609  42.489  39.029  13.526
40137W        W 8610  28.550   6.186  10.601
40138W        W 8611   1.397   6.332   0.305
40139W        W 8612  30.150  29.441   1.911
40140W        W 8613  14.198  21.612   1.286
40141W        W 8614   2.366  24.667  12.533
40142W        W 8615  11.815  29.982  14.916
40143W        W 8616  11.135  39.029   2.823
40144W        W 8617  27.529   9.716   4.227
40145W        W 8618  11.855   8.743   1.722
40146W        W 8619  23.183  12.732   3.174
40147W        W 8620  14.188   4.238   3.328
40148W        W 8621   6.763  28.006   3.696
40149W        W 8622  27.496   3.269   2.216
40150W        W 8623   3.456  25.526   4.742
40151W        W 8624  33.022  35.416   1.742
40152W        W 8625  41.516   0.439   0.291
40153W        W 8626  31.506  42.526  14.922
40154W        W 8627  29.109   1.742   1.286
40155W        W 8628  16.769   6.415   0.377
40156W        W 8629  26.473  25.207   0.441
40157W        W 8630  43.502  18.649  14.341
40158W        W 8631  40.799  11.271  14.851
40159W        W 8632  28.677   0.942  11.087
40160W        W 8633  19.570  12.177   1.411
40161W        W 8634   6.752  29.510   0.456
40162W        W 8635  12.209  32.464  12.547
40163W        W 8636   9.198  40.404  13.478
40164W        W 8637  31.011  18.213   5.301
40165W        W 8638   0.833  40.533   3.236
40166W        W 8639  17.265  15.761  12.486
40167W        W 8640  13.609  37.013  11.910
40168W        W 8641   4.881  40.950   2.236
40169W        W 8642  44.929  41.448   4.685
40170W        W 8643  42.821   4.298   2.787
40171W        W 8644  13.609   1.889  13.432
40172W        W 8645  41.395  17.586  10.451
40173W        W 8646  27.567  42.833  11.920
40174W        W 8647   8.269   0.420  13.351
40175W        W 8648   8.327  23.000  13.871
40176W        W 8649  15.724   5.807   2.866
40177W        W 8650  15.151  26.987   3.725
40178W        W 8651  42.354  30.574  12.531
40179W        W 8652  27.964  17.274   2.256
40180W        W 8653  42.894   3.370  13.324
40181W        W 8654  36.466   9.817   1.287
40182W        W 8655  32.893  23.588  11.541
40183W        W 8656  18.211   5.738   3.267
40184W        W 8657   2.817  33.398   1.845
40185W        W 8658  26.560  24.035   4.650
40186W        W 8659  19.667  41.934  11.609
40187W        W 8660   0.798  40.912   2.757
40188W        W 8661  21.619  32.552  12.423
40189W        W 8662  12.688  24.020  10.995
40190W        W 8663  41.831   3.884  12.965
40191W        W 8664  15.709  10.245   5.234
40192W        W 8665  38.931   3.420   2.369
40193W        W 8666  39.812  15.780   4.208
40194W        W 8667  38.934  11.279   1.393
40195W        W 8668  17.651  18.688   3.864
40196W        W 8669  18.770  41.353   4.661
40197W        W 8670   3.232   1.849   4.686
40198W        W 8671   0.843  38.881  11.080
40199W        W 8672  25.088   9.800  13.812
40200W        W 8673  32.426   7.824   0.954
40201W        W 8674  41.442  32.964  12.384
40202W        W 8675  40.482  11.168  11.015
40203W        W 8676  20.043  25.165   1.823
40204W        W 8677  36.026  36.576  12.059
40205W        W 8678   3.386   7.220   4.666
40206W        W 8679  10.739   1.779   2.878
40207W        W 8680  38.068  25.471   4.720
40208W        W 8681  26.639  21.097   4.158
40209W        W 8682  30.416  44.776  14.395
40210W        W 8683  29.642  38.370   3.230
40211W        W 8684  23.584  34.544   0.919
40212W        W 8685  26.574   3.257  11.914
40213W        W 8686  15.640  16.189  14.759
40214W        W 8687   1.850  25.980  11.022
40215W        W 8688  27.175  13.691   3.832
40216W        W 8689  15.321   9.780  12.575
40217W        W 8690   9.347   7.838   2.234
40218W        W 8691  17.295   3.851  11.371
40219W        W 8692  22.067  32.888  12.449
40220W        W 8693  40.924  21.081  14.769
40221W        W 8694  20.063  10.375   0.920
40222W        W 8695   2.871   8.179   1.757
40223W        W 8696  37.898  17.556   3.670
40224W        W 8697  14.597  29.064   2.695
40225W        W 8698  15.093  34.454   1.274
40226W        W 8699  14.709   7.849  10.992
40227W        W 8700  16.698   6.899   4.318
40228W        W 8701  16.305  21.260   2.825
40229W        W 8702  27.482  42.942   4.136
40230W        W 8703   6.344   2.471  12.952
40231W        W 8704  32.489  22.188  12.979
40232W        W 8705  34.428  14.656   0.418
40233W        W 8706  30.422   0.764   0.483
40234W        W 8707  14.602  17.793   4.707
40235W        W 8708  18.232  39.050   3.780
40236W        W 8709  13.604  38.560  11.992
40237W        W 8710  24.137  26.556   3.833
40238W        W 8711   9.173  39.974   1.858
40239W        W 8712  19.250  30.058   1.746
40240W        W 8713  36.564  24.189  10.545
40241W        W 8714  41.988  22.244  13.017
40242W        W 8715  43.836   4.229  12.077
40243W        W 8716   5.428  32.082   3.852
40244W        W 8717  30.951  17.655   4.788
40245W        W 8718  42.931  27.114   3.867
40246W        W 8719  26.546  16.651  12.534
40247W        W 8720  30.052  21.055   4.617
40248W        W 8721   2.761  31.976   2.863
40249W        W 8722  23.692  32.427  12.081
40250W        W 8723  44.816  23.674   0.817
40251W        W 8724  13.312  11.265  11.420
40252W        W 8725  29.135  13.629  11.109
40253W        W 8726  39.810  41.789  12.427
40254W        W 8727  27.118  11.283   1.908
40255W        W 8728  10.158   1.244   3.638
40256W        W 8729  28.028  30.525  11.071
40257W        W 8730  34.083   5.834   3.362
40258W        W 8731   4.774  42.870   3.637
40259W        W 8732  26.513  32.503  13.816
40260W        W 8733   4.786   4.376   2.213
40261W        W 8734  21.670  20.636  12.827
40262W        W 8735  37.953  27.982  10.007
40263W        W 8736  33.587  35.061   1.241
40264W        W 8737   4.928  20.764  12.562
40265W        W 8738  29.526  31.458  13.050
40266W        W 8739  23.713   5.239   4.825
40267W        W 8740   4.811  24.720   0.339
40268W        W 8741   9.839  27.483  12.445
40269W        W 8742   2.446  41.298  10.102
40270W        W 8743  28.541  33.604  14.983
40271W        W 8744  15.702  44.827  12.396
40272W        W 8745  22.006  18.588  10.923
40273W        W 8746  36.573  35.520   1.811
40274W        W 8747  42.996  35.958  13.408
40275W        W 8748  17.257   7.380   1.934
40276W        W 8749  41.879  21.054   0.910
40277W        W 8750  12.687   8.883   3.363
40278W        W 8751   2.360  34.947   3.704
40279W        W 8752   4.785  41.996  11.907
40280W        W 8753  26.962  24.571  14.317
40281W        W 8754  31.920   4.298   1.923
40282W        W 8755   8.173  25.058  13.846
40283W        W 8756  25.214  29.639   3.815
40284W        W 8757  24.671  18.176  11.112
40285W        W 8758  13.140  12.737   0.894
40286W        W 8759  13.786   5.354   2.772
40287W        W 8760   9.880  44.410   2.862
40288W        W 8761  17.226  23.133  12.413
40289W        W 8762  31.039  44.813   1.300
40290W        W 8763   9.386  13.170   0.370
40291W        W 8764  36.485  10.834   4.147
40292W        W 8765  40.443   2.433  14.312
40293W        W 8766  27.056  24.130   1.933
40294W        W 8767   4.718  25.594  13.367
40295W        W 8768  32.457  31.006  11.864
40296W        W 8769  19.606  27.522  12.491
40297W        W 8770  12.767  37.065  10.940
40298W        W 8771  24.592  22.622   1.899
40299W        W 8772   1.819   7.405  13.519
40300W        W 8773  23.087  33.877   1.700
40301W        W 8774  13.760   1.953  10.906
40302W        W 8775  41.326  21.537  10.584
40303W        W 8776  15.289  35.469   0.311
40304W        W 8777  34.890  40.001   1.430
40305W        W 8778  41.917  26.492   0.789
40306W        W 8779   9.809  18.703   1.763
40307W        W 8780  33.415  21.555  12.946
40308W        W 8781  43.466  44.285  13.003
40309W        W 8782  29.093  39.343  14.765
40310W        W 8783  42.399  37.563   0.250
40311W        W 8784   9.337   9.736  14.371
40312W        W 8785   9.818  21.106  12.383
40313W        W 8786  33.608  12.809   4.606
40314W        W 8787   6.833  18.175  14.275
40315W        W 8788  42.305   6.709   4.610
40316W        W 8789  14.669  42.842  14.938
40317W        W 8790  11.228  37.959  10.640
40318W        W 8791  41.930  31.003   4.712
40319W        W 8792   0.789  10.749   4.615
40320W        W 8793  26.538  31.088   4.810
40321W        W 8794  21.661  27.991  14.335
40322W        W 8795   9.659  31.513  14.862
40323W        W 8796  14.306  34.990  11.430
40324W        W 8797  25.665  26.973  12.889
40325W        W 8798  41.509  31.081   1.402
40326W        W 8799   9.715  27.189   0.280
40327W        W 8800  22.188  35.860  11.941
40328W        W 8801  25.705  11.344   1.888
40329W        W 8802  31.505  17.737  14.888
40330W        W 8803  38.460  23.525   0.784
40331W        W 8804   2.451   4.908  10.009
40332W        W 8805  25.017  29.928  11.451
40333W        W 8806  17.595  17.753   2.419
40334W        W 8807   4.352  39.960   1.442
40335W        W 8808  19.211   9.387   2.808
40336W        W 8809   9.785   1.452   4.702
40337W        W 8810  22.669  17.081   5.093
40338W        W 8811  40.540   0.295  11.983
40339W        W 8812  20.151  23.544  10.015
40340W        W 8813  42.392  43.458   2.821
40341W        W 8814  32.046  17.296  10.423
40342W        W 8815  21.097  10.634  11.076
40343W        W 8816  10.353  32.531   3.363
40344W        W 8817  39.322  33.543  11.392
40345W        W 8818  14.316  18.154   0.296
40346W        W 8819  43.953  30.923   1.780
40347W        W 8820   1.964  10.383   2.767
40348W        W 8821  35.910  20.197   2.871
40349W        W 8822  41.893   3.266   0.780
40350W        W 8823   4.839  15.120  14.298
40351W        W 8824  26.696  11.662   0.815
40352W        W 8825  34.096   2.394  13.389
40353W        W 8826  19.627  38.364   4.669
40354W        W 8827  10.664  32.103   3.224
40355W        W 8828   3.825  27.496  11.928
40356W        W 8829  43.312  11.664   3.636
40357W        W 8830  22.063  15.772  11.920
40358W        W 8831   0.392   2.946  14.005
40359W        W 8832  34.073  20.193  11.917
40360W        W 8833  25.680  27.970   1.318
40361W        W 8834   8.838   7.339   3.175
40362W        W 8835  42.849  19.187   1.825
40363W        W 8836  27.085   1.325  10.060
40364W        W 8837  10.800  24.024   5.311
40365W        W 8838  32.954  31.996  11.564
40366W        W 8839   1.481  30.485   3.174
40367W        W 8840  38.378  18.189   0.263
40368W        W 8841  20.525  21.203  14.478
40369W        W 8842  42.310  19.571  11.583
40370W        W 8843   1.272  20.071   3.364
40371W        W 8844  26.132   4.286  10.512
40372W        W 8845   0.358   1.941  14.434
40373W        W 8846  14.161  38.830  13.500
40374W        W 8847  13.814  41.976   1.760
40375W        W 8848  10.294  32.014  11.073
40376W        W 8849   5.927   6.247   9.979
40377W        W 8850  27.062  27.462   1.451
40378W        W 8851  11.821   4.411   3.286
40379W        W 8852  44.354  36.573  13.383
40380W        W 8853   0.336  19.160   0.772
40381W        W 8854  25.112  38.366   4.789
40382W        W 8855  16.595  28.504  11.608
40383W        W 8856  20.655  44.977  14.782
40384W        W 8857  43.956   9.311   0.345
40385W        W 8858  27.142  26.681   0.270
40386W        W 8859  26.187  10.183   4.205
40387W        W 8860  27.495  15.596  12.358
40388W        W 8861   7.777   8.845   4.801
40389W        W 8862  10.831  21.082  10.544
40390W        W 8863  25.637  14.295  12.961
40391W        W 8864   1.970  23.068  13.396
40392W        W 8865  26.967  34.961   4.206
40393W        W 8866   9.677  38.559  14.815
40394W        W 8867  18.130  27.649  13.420
40395W        W 8868  16.731  42.828  11.075
40396W        W 8869  25.573   1.758  14.504
40397W        W 8870  19.190  26.177  11.553
40398W        W 8871  26.062   6.738   3.763
40399W        W 8872  10.363  23.233  11.509
40400W        W 8873  24.702  31.935  14.336
40401W        W 8874  44.837  39.360   0.454
40402W        W 8875  13.254  27.014  13.947
40403W        W 8876  44.771  42.859   0.338
40404W        W 8877  12.305  42.373   1.221
40405W        W 8878  33.570   3.766   4.124
40406W        W 8879  42.448   7.398  14.776
40407W        W 8880  32.995  25.601   5.280
40408W        W 8881  36.525  17.235   5.173
40409W        W 8882   4.847  13.771   2.311
40410W        W 8883   6.775  42.922  11.516
40411W        W 8884  28.093  12.826  12.563
40412W        W 8885   7.173  13.787  11.878
40413W        W 8886  18.572  44.276  14.870
40414W        W 8887  19.168  41.998   2.811
40415W        W 8888  44.770  20.568  11.398
40416W        W 8889  12.644  36.952  14.946
40417W        W 8890   8.330  31.916   3.182
40418W        W 8891   8.796   5.223  10.629
40419W        W 8892  36.447  42.896  12.382
40420W        W 8893  31.413  38.860   1.238
40421W        W 8894  34.102  25.035   3.691
40422W        W 8895  26.999  23.665   4.767
40423W        W 8896   0.960  14.243  11.953
40424W        W 8897  41.388  38.457   1.429
40425W        W 8898   8.659  17.136  11.384
40426W        W 8899  12.224  38.856   0.461
40427W        W 8900   7.335  40.968   4.829
40428W        W 8901   1.906   6.261  14.292
40429W        W 8902  17.564  37.390   4.335
40430W        W 8903   7.171  26.646  13.014
40431W        W 8904  30.486  15.612   3.800
40432W        W 8905  24.157   8.691   9.948
40433W        W 8906   2.468  17.064   4.200
40434W        W 8907  26.607  42.020   4.297
40435W        W 8908  19.066   0.858  11.548
40436W        W 8909   6.682  37.445  12.922
40437W        W 8910  22.180  14.716   4.325
40438W        W 8911  38.340  41.024   2.188
40439W        W 8912  33.903  33.384  12.954
40440W        W 8913  39.405   6.857   1.787
40441W        W 8914   5.369  40.332  10.512
40442W        W 8915   5.729  21.740   1.396
40443W        W 8916  23.090  14.715  13.525
40444W        W 8917  43.395  30.019  13.498
40445W        W 8918   0.872  38.534   0.274
40446W        W 8919  43.963   7.812  12.908
40447W        W 8920   3.844  36.076  11.905
40448W        W 8921  35.514   9.290   2.284
40449W        W 8922  29.543   0.319   1.443
40450W        W 8923  35.502  23.611   2.897
40451W        W 8924   3.335  11.754   2.332
40452W        W 8925  13.608  10.153  12.861
40453W        W 8926  12.826   7.391  13.362
40454W        W 8927  14.333  22.565   4.301
40455W        W 8928  28.456   6.269  13.865
40456W        W 8929  22.146  28.953   2.298
40457W        W 8930  19.147  13.822   3.685
40458W        W 8931  10.381   5.437   5.106
40459W        W 8932  18.571  42.457   1.441
40460W        W 8933  28.956  31.564   1.239
40461W        W 8934  38.506  30.156  14.515
40462W        W 8935  36.849  24.989   2.821
40463W        W 8936  37.920   3.447  13.005
40464W        W 8937   7.210  41.841  13.920
40465W        W 8938   4.384   3.382  10.957
40466W        W 8939  19.224  20.547  10.466
40467W        W 8940  20.132   7.414   0.917
40468W        W 8941  37.536  15.772  10.494
40469W        W 8942   1.915  35.017   5.310
40470W        W 8943   6.757  24.067  10.898
40471W        W 8944  11.253  22.148  11.046
40472W        W 8945  38.435  22.105  13.351
40473W        W 8946  17.278  23.697   5.217
40474W        W 8947  39.991  34.513   4.804
40475W        W 8948  23.558   0.764   4.740
40476W        W 8949  20.758  33.910   2.770
40477W        W 8950  24.599   6.918  12.847
40478W        W 8951   7.274  36.983   3.632
40479W        W 8952  39.872  44.963  10.621
40480W        W 8953  44.874  20.233   0.794
40481W        W 8954  11.758  15.790   3.382
40482W        W 8955  17.143  26.506  12.945
40483W        W 8956  24.033  34.076  14.311
40484W        W 8957   6.768  11.352   1.758
40485W        W 8958   9.753   6.278   2.896
40486W        W 8959  38.870  17.682  11.916
40487W        W 8960   0.294   6.334   4.222
40488W        W 8961  43.270  31.116  13.997
40489W        W 8962   4.759  38.976   1.909
40490W        W 8963  11.833  23.008   4.252
40491W        W 8964  18.260  16.307  14.407
40492W        W 8965  22.558   9.196  13.374
40493W        W 8966  36.846   8.681  11.500
40494W        W 8967  44.287  27.600  12.993
40495W        W 8968  37.421  10.213  11.969
40496W        W 8969  35.935  34.874   3.240
40497W        W 8970   9.810  15.753   2.749
40498W        W 8971  33.876  39.488  14.891
40499W        W 8972  24.629   0.779  11.914
40500W        W 8973  19.052  21.602  10.556
40501W        W 8974  36.936  42.829  11.056
40502W        W 8975   6.308  26.086   0.256
40503W        W 8976   6.749  11.682   1.730
40504W        W 8977  40.984   3.320  11.556
40505W        W 8978  30.527  29.665  13.064
40506W        W 8979  29.926  38.983   3.272
40507W        W 8980   0.762  10.634   0.379
40508W        W 8981  11.147   8.403  12.840
40509W        W 8982  34.032  40.849   1.923
40510W        W 8983  17.696  12.131   3.216
40511W        W 8984  44.967  16.774  12.948
40512W        W 8985  24.725  14.698   9.554
40513W        W 8986  12.263  44.977   1.214
40514W        W 8987  35.012   9.728   2.316
40515W        W 8988   8.719   7.890   2.735
40516W        W 8989  28.513  14.301   0.888
40517W        W 8990  21.137  13.680   5.230
40518W        W 8991  27.479  15.083   0.275
40519W        W 8992  19.762  21.159  11.012
40520W        W 8993  41.928   1.862   9.955
40521W        W 8994  24.675  11.821   1.718
40522W        W 8995   3.937  44.977  14.781
40523W        W 8996   1.772  18.568   2.271
40524W        W 8997  16.597  30.144  11.592
40525W        W 8998  39.504  30.916  13.370
40526W        W 8999  17.227  21.154  13.426
40527W        W 9000  41.029  28.022  13.477
40528W        W 9001   9.288  14.135   4.697
40529W        W 9002  25.593  43.018  10.576
40530W        W 9003   7.334  29.665  14.885
40531W        W 9004  20.723  34.447  13.973
40532W        W 9005  18.062  25.564  10.431
40533W        W 9006  12.234  38.875   1.244
40534W        W 9007  32.508  15.187   2.700
40535W        W 9008  27.945   2.797  14.869
40536W        W 9009  22.229  18.160  11.394
40537W        W 9010  23.133   6.342   3.697
40538W        W 9011  38.327  29.432  13.490
40539W        W 9012  13.148  17.203   4.824
40540W        W 9013  23.503  18.753  12.540
40541W        W 9014  14.784   0.319  14.837
40542W        W 9015  14.678   1.963   2.194
40543W        W 9016  28.592  34.099  10.958
40544W        W 9017  32.402   1.272  10.483
40545W        W 9018  13.312  27.644  15.000
40546W        W 9019  17.729   9.297  11.503
40547W        W 9020  14.231  39.512   3.701
40548W        W 9021  30.487  25.603   4.127
40549W        W 9022  14.777   0.369   2.871
40550W        W 9023  34.379  40.424   0.427
40551W        W 9024  44.440   6.770  13.053
40552W        W 9025  25.200  30.648  14.462
40553W        W 9026   7.209  21.556  11.004
40554W        W 9027  27.558  38.522  11.958
40555W        W 9028  24.200  31.939   0.822
40556W        W 9029  27.671   5.416  11.962
40557W        W 9030   2.437  14.229   3.197
40558W        W 9031   7.877  11.159   1.911
40559W        W 9032  29.065   4.223  11.606
40560W        W 9033  18.199  41.505  12.534
40561W        W 9034   0.453  18.253  14.971
40562W        W 9035  22.215  20.216  10.453
40563W        W 9036  24.527   9.232  14.024
40564W        W 9037   2.965  27.993   4.131
40565W        W 9038   5.934  12.260   1.901
40566W        W 9039  39.958  32.992  13.388
40567W        W 9040  16.103  32.885  13.893
40568W        W 9041  38.064  44.983   1.744
40569W        W 9042   8.168  13.662  13.387
40570W        W 9043   6.711  31.097   2.816
40571W        W 9044  36.574  20.617  12.386
40572W        W 9045  20.671   9.253  14.763
40573W        W 9046  24.668  26.041   2.761
40574W        W 9047  16.118  36.017  10.578
40575W        W 9048  43.848   7.697   1.740
40576W        W 9049  32.131   6.219   2.354
40577W        W 9050  40.997  24.515   0.474
40578W        W 9051   7.709  11.262   0.869
40579W        W 9052  44.418  42.805   0.347
40580W        W 9053  30.537  15.758  14.828
40581W        W 9054  15.584  13.796   0.756
40582W        W 9055  42.519  11.711  11.890
40583W        W 9056   9.325  27.196  10.939
40584W        W 9057   2.942  20.639  11.577
40585W        W 9058  37.493   0.359   2.349
40586W        W 9059  13.683  14.817  12.909
40587W        W 9060   3.782   5.233  12.468
40588W        W 9061  29.156   2.731  11.014
40589W        W 9062  35.490  28.934   0.943
40590W        W 9063  15.806  17.079   4.809
40591W        W 9064  23.532  27.051  12.474
40592W        W 9065   4.862  37.020  14.384
40593W        W 9066  15.105   6.235  12.517
40594W        W 9067  23.089  34.952  10.431
40595W        W 9068   8.823  35.015   2.191
40596W        W 9069  15.138  10.383   3.286
40597W        W 9070  33.017  36.002  12.019
40598W        W 9071  41.994   7.199   4.819
40599W        W 9072  16.734   5.758  14.840
40600W        W 9073  29.466  22.712   0.287
40601W        W 9074  42.503  27.991  11.036
40602W        W 9075  15.680  11.164  10.911
40603W        W 9076  44.986   6.786   4.290
40604W        W 9077   0.480  11.673   3.210
40605W        W 9078  38.913  21.542  10.481
40606W        W 9079  32.115   4.886   3.352
40607W        W 9080   7.413   5.703   4.630
40608W        W 9081   3.813  38.935  14.308
40609W        W 9082  18.246   9.671   0.338
40610W        W 9083  27.174  24.702   4.812
40611W        W 9084   2.830   1.885  13.421
40612W        W 9085  38.843  31.949  12.076
40613W        W 9086  10.750  16.261   4.272
40614W        W 9087  32.029  32.897  12.084
40615W        W 9088  14.624  40.797  12.965
40616W        W 9089  44.300  26.154   4.116
40617W        W 9090  11.219  26.967  12.909
40618W        W 9091   4.935  26.599   1.843
40619W        W 9092  41.411  10.853   0.283
40620W        W 9093  27.565  23.642   3.187
40621W        W 9094  10.699  22.060   1.339
40622W        W 9095   9.267   8.858   4.183
40623W        W 9096  34.446   2.851   0.838
40624W        W 9097   1.761   3.865   4.254
40625W        W 9098   6.291  12.257   2.892
40626W        W 9099  14.633   7.266   1.904
40627W        W 9100  42.306  38.010   1.807
40628W        W 9101  34.511  34.525   2.855
40629W        W 9102  44.005  23.987   3.158
40630W        W 9103   6.363  37.568  12.360
40631W        W 9104  19.537  21.194  14.864
40632W        W 9105  43.936  16.764   3.861
40633W        W 9106  22.585  11.287  13.037
40634W        W 9107  33.614   4.249   0.759
40635W        W 9108  41.923  29.624   3.296
40636W        W 9109   8.223  14.135   2.773
40637W        W 9110   5.793  36.387  11.422
40638W        W 9111  38.566  23.172  11.373
40639W        W 9112  26.638  31.959   0.742
40640W        W 9113  31.943  10.344  13.963
40641W        W 9114  35.596  18.583   0.955
40642W        W 9115  39.916  23.603   0.443
40643W        W 9116  43.881  40.408  10.898
40644W        W 9117  14.646  16.769   3.799
40645W        W 9118  24.584  19.755  13.897
40646W        W 9119  35.013  30.020   2.863
40647W        W 9120  33.909   9.653  11.518
40648W        W 9121  11.247  32.086   3.168
40649W        W 9122  18.154  43.508   4.315
40650W        W 9123  10.842  12.828   0.830
40651W        W 9124   1.411  13.680  14.316
40652W        W 9125   9.277  37.901   2.208
40653W        W 9126  30.605  23.573   9.931
40654W        W 9127  37.851  21.663  12.520
40655W        W 9128  38.916  23.025  14.399
40656W        W 9129  38.974   8.287   1.698
40657W        W 9130  34.425  30.460   0.434
40658W        W 9131  40.367  24.483  13.451
40659W        W 9132  19.748  25.630   1.703
40660W        W 9133  17.580  18.232   4.658
40661W        W 9134  10.807  32.542   3.729
40662W        W 9135   6.364  35.920  10.039
40663W        W 9136   9.797   6.903  11.571
40664W        W 9137  42.294   7.385  10.949
40665W        W 9138  32.466  12.193   2.250
40666W        W 9139  13.218  35.981   3.824
40667W        W 9140   7.781  14.779  11.110
40668W        W 9141  43.011   6.399   1.318
40669W        W 9142  33.945   7.901  13.507
40670W        W 9143  44.320  19.669   0.262
40671W        W 9144   7.200  25.509  13.991
40672W        W 9145  24.579   2.311  13.335
40673W        W 9146  11.345  11.804   3.639
40674W        W 9147  27.652  43.884   3.308
40675W        W 9148  17.217  29.968  14.307
40676W        W 9149  17.256  25.188   5.126
40677W        W 9150  15.623   7.311  10.492
40678W        W 9151  24.545  11.629  10.535
40679W        W 9152  35.431   5.907  11.521
40680W        W 9153  10.321   2.340  12.976
40681W        W 9154  22.616  21.118  13.876
40682W        W 9155  44.881  11.231  12.865
40683W        W 9156  18.144  30.649  12.044
40684W        W 9157  24.186   8.691  13.391
40685W        W 9158  13.225  10.242   0.832
40686W        W 9159   4.834  30.977  13.331
40687W        W 9160   3.845  28.620  13.472
40688W        W 9161   2.767  37.850   4.780
40689W        W 9162   8.289  26.121   0.848
40690W        W 9163  36.370  36.025   0.308
40691W        W 9164  18.118  19.260   4.751
40692W        W 9165  12.337  14.613   2.833
40693W        W 9166  26.046   3.457   3.792
40694W        W 9167  19.603  10.762  14.435
40695W        W 9168  15.206  41.926  13.414
40696W        W 9169  36.012  25.216   2.296
40697W        W 9170  10.778  32.550   1.720
40698W        W 9171  27.579  43.412  13.879
40699W        W 9172  26.979   1.379  13.809
40700W        W 9173   3.356  40.806   1.756
40701W        W 9174  32.070  42.319   1.309
40702W        W 9175  41.943   0.776  11.027
40703W        W 9176  20.093  19.615  12.059
40704W        W 9177  20.625  27.184   0.381
40705W        W 9178  31.005  43.022   1.363
40706W        W 9179  38.881  36.584  14.376
40707W        W 9180  15.753  31.985  12.358
40708W        W 9181  21.063  40.305   1.731
40709W        W 9182  44.774  27.132  10.465
40710W        W 9183  14.795  39.433  14.311
40711W        W 9184  30.599  18.170   0.949
40712W        W 9185  32.138  21.610  14.973
40713W        W 9186  39.911  42.939  12.871
40714W        W 9187  27.675  21.731  13.525
40715W        W 9188  43.925  30.599  11.078
40716W        W 9189  39.395  24.077  14.461
40717W        W 9190   0.947  23.558  14.516
40718W        W 9191  30.106  41.333  11.559
40719W        W 9192   9.776  24.645  14.281
40720W        W 9193  16.182  27.988   4.201
40721W        W 9194  36.939  41.424  11.937
40722W        W 9195  44.958  39.985   0.893
40723W        W 9196   7.825  32.927   2.208
40724W        W 9197  17.307  13.189  12.040
40725W        W 9198  25.196  39.348   1.735
40726W        W 9199  40.898  14.830  11.575
40727W        W 9200  16.632   4.301   2.272
40728W        W 9201   4.390  38.542   2.364
40729W        W 9202  10.734  42.927   1.438
40730W        W 9203  10.263  27.526  13.034
40731W        W 9204   9.299  11.267   4.813
40732W        W 9205  12.770   4.749  11.488
40733W        W 9206  20.270  15.665   1.329
40734W        W 9207  11.644  10.826  14.376
40735W        W 9208  19.193  40.024  14.510
40736W        W 9209  41.338  25.122  10.950
40737W        W 9210  11.138  25.976   4.736
40738W        W 9211  44.772  33.082  14.402
40739W        W 9212   9.267  37.001   0.747
40740W        W 9213  37.886   6.864  12.573
40741W        W 9214  28.102  24.120   3.377
40742W        W 9215   4.331   0.395   3.271
40743W        W 9216  23.999  38.882   2.836
40744W        W 9217  20.117  39.350   3.355
40745W        W 9218  19.774   8.176   3.660
40746W        W 9219  30.086  33.471   0.416
40747W        W 9220  34.374  29.089  12.562
40748W        W 9221  44.458  27.510  12.049
40749W        W 9222  28.015  43.351  13.932
40750W        W 9223  24.720   8.872   0.291
40751W        W 9224  33.904  30.146   2.838
40752W        W 9225  35.983  20.557  12.430
40753W        W 9226  23.093  22.080   1.247
40754W        W 9227  37.358  30.517  10.576
40755W        W 9228  40.906  39.503  10.516
40756W        W 9229   7.215  27.066  12.974
40757W        W 9230  24.678  18.559   0.745
40758W        W 9231  39.387  36.965   4.345
40759W        W 9232  36.045  37.888  14.326
40760W        W 9233   1.816  42.401   0.475
40761W        W 9234   8.346  15.261   3.330
40762W        W 9235  17.078  16.285  14.452
40763W        W 9236  17.742  30.080   3.809
40764W        W 9237  24.155   4.301   1.350
40765W        W 9238  37.516  42.928   2.796
40766W        W 9239  10.259  13.722   2.250
40767W        W 9240   2.846  34.518   3.214
40768W        W 9241  29.459  27.518   3.220
40769W        W 9242  17.286  41.960   0.291
40770W        W 9243  31.554  39.949   1.213
40771W        W 9244  11.177  37.464  13.884
40772W        W 9245  13.675   1.838  12.442
40773W        W 9246  44.403  35.029  13.933
40774W        W 9247   6.862  23.573  14.336
40775W        W 9248  33.914  41.397  11.576
40776W        W 9249  30.938  13.835  12.400
40777W        W 9250  26.554  11.357  13.547
40778W        W 9251  34.903   9.811   4.255
40779W        W 9252  39.024  35.057  12.869
40780W        W 9253  34.472  31.557   0.259
40781W        W 9254  28.466  22.711   4.341
40782W        W 9255   5.767   9.808  13.530
40783W        W 9256  31.610   8.340  11.376
40784W        W 9257  20.745  40.802  14.900
40785W        W 9258  13.107  42.920   5.308
40786W        W 9259  42.842  11.704   1.703
40787W        W 9260  29.091   4.253   2.752
40788W        W 9261  41.495  11.697   1.286
40789W        W 9262   7.899  34.560  14.029
40790W        W 9263  11.192  14.323   1.405
40791W        W 9264   5.337   3.729  14.968
40792W        W 9265  42.796  30.010  12.401
40793W        W 9266  17.714  40.400   2.197
40794W        W 9267  21.630  20.724   2.890
40795W        W 9268  15.662   7.348  14.325
40796W        W 9269  14.601  16.677  10.512
40797W        W 9270   8.851  36.425   0.766
40798W        W 9271  22.630   7.250  10.943
40799W        W 9272  34.099   8.298  11.470
40800W        W 9273  20.607   4.713   0.292
40801W        W 9274   0.433  23.139   2.717
40802W        W 9275  26.170  32.000  11.930
40803W        W 9276  14.163  34.019   1.223
40804W        W 9277  16.812  12.306   1.264
40805W        W 9278  36.858   5.359   4.169
40806W        W 9279   9.821  17.735  11.938
40807W        W 9280  18.247  27.079   0.279
40808W        W 9281  23.535  41.349  14.909
40809W        W 9282  23.535  31.090   0.379
40810W        W 9283  42.315   0.838  14.811
40811W        W 9284  44.833   0.978   1.827
40812W        W 9285  13.162  28.008   0.465
40813W        W 9286  20.563  22.624   4.833
40814W        W 9287  43.845   3.376   0.481
40815W        W 9288  35.536  26.570   3.324
40816W        W 9289  33.981  14.095   1.280
40817W        W 9290   1.256  27.089  13.367
40818W        W 9291  14.774   6.286   2.691
40819W        W 9292  27.056  14.105   5.221
40820W        W 9293  44.768  35.444  13.370
40821W        W 9294  17.256  22.588   1.804
40822W        W 9295  15.325  13.296  14.873
40823W        W 9296  23.593   0.323  11.575
40824W        W 9297  28.621  33.481   0.380
40825W        W 9298  22.715  15.300   1.265
40826W        W 9299  36.048  19.590  14.474
40827W        W 9300  44.405  38.993  12.491
40828W        W 9301  31.139   1.350   4.274
40829W        W 9302  41.949   0.968  13.545
40830W        W 9303   6.320  37.077  14.787
40831W        W 9304  35.977  34.583  11.093
40832W        W 9305  14.799  14.222  13.479
40833W        W 9306  30.473  33.108   1.286
40834W        W 9307  17.615  17.083  13.317
40835W        W 9308  44.827  42.020  11.976
40836W        W 9309   1.394  33.072   2.230
40837W        W 9310  43.503  30.146   4.691
40838W        W 9311  25.599  41.389   4.254
40839W        W 9312  38.506  16.650  14.003
40840W        W 9313   2.440  26.677   2.250
40841W        W 9314  26.101  15.110   3.177
40842W        W 9315  11.642  29.616   1.828
40843W        W 9316  36.367   4.818  13.438
40844W        W 9317  10.172  13.666   4.672
40845W        W 9318  18.090  31.435   2.328
40846W        W 9319   3.804   0.896  10.581
40847W        W 9320  12.342   5.705  13.051
40848W        W 9321  13.272  20.686  14.335
40849W        W 9322   0.331   9.795   2.785
40850W        W 9323  20.524  27.131  10.152
40851W        W 9324  15.790   5.841  10.548
40852W        W 9325  22.673  12.747  13.460
40853W        W 9326  41.296   3.725   3.273
40854W        W 9327  30.537  17.743   3.217
40855W        W 9328   5.216  37.418   4.327
40856W        W 9329   1.353  21.685   1.787
40857W        W 9330   2.316   2.314   2.272
40858W        W 9331  34.924  38.455   1.927
40859W        W 9332  13.815  36.978  12.420
40860W        W 9333  21.163  22.209  11.926
40861W        W 9334  24.542   9.722  13.520
40862W        W 9335   8.859   7.884   2.203
40863W        W 9336  34.422   7.337  12.550
40864W        W 9337  22.209   7.361  11.525
40865W        W 9338  36.061  41.942  14.963
40866W        W 9339  17.674  18.762  12.989
40867W        W 9340  38.464  38.003   2.791
40868W        W 9341  43.969   8.251  14.395
40869W        W 9342  39.394   7.673  11.082
40870W        W 9343  23.169  35.939  10.942
40871W        W 9344  20.253  38.342  12.043
40872W        W 9345  24.497  42.302   1.428
40873W        W 9346  25.054  42.442  10.900
40874W        W 9347  21.717  21.097   9.999
40875W        W 9348  34.446  29.950  12.932
40876W        W 9349  12.326  40.944  14.388
40877W        W 9350  21.579  22.588  11.098
40878W        W 9351   6.183  21.157  13.471
40879W        W 9352  32.437   8.218   4.222
40880W        W 9353  43.341  12.120  13.963
40881W        W 9354   3.784  22.153  14.484
40882W        W 9355  41.795   9.675   4.147
40883W        W 9356  17.703  15.293  11.108
40884W        W 9357  37.533  42.001  13.435
40885W        W 9358  12.652  27.047   2.689
40886W        W 9359  32.095  44.925  14.986
40887W        W 9360   1.465  21.096   1.390
40888W        W 9361  44.815   9.335  10.980
40889W        W 9362   5.814  12.844  10.952
40890W        W 9363  17.094   9.213   1.312
40891W        W 9364  12.198   0.426  11.456
40892W        W 9365  36.501  12.646  11.877
40893W        W 9366  12.211  26.003   2.249
40894W        W 9367  30.093  10.160  14.330
40895W        W 9368  15.649  21.606  11.423
40896W        W 9369   5.883  36.932  12.004
40897W        W 9370  32.601  16.219  14.484
40898W        W 9371  15.751   4.443   3.818
40899W        W 9372   6.192  42.776  10.151
40900W        W 9373   4.818  32.573   0.479
40901W        W 9374  36.401  22.025  12.429
40902W        W 9375  18.272  38.830   0.779
40903W        W 9376  44.777  12.674  11.520
40904W        W 9377   2.396  26.568   4.155
40905W        W 9378  39.514  34.056  10.533
40906W        W 9379  40.381  11.719  14.996
40907W        W 9380  34.867  24.977   2.182
40908W        W 9381  17.722  21.613   3.368
40909W        W 9382   3.943  39.042  11.985
40910W        W 9383  11.156  29.505  14.908
40911W        W 9384  18.186  20.574  10.637
40912W        W 9385  25.050  21.181  10.428
40913W        W 9386   0.281  43.301  14.014
40914W        W 9387  33.488  25.154   3.790
40915W        W 9388  34.577  20.760   4.146
40916W        W 9389   0.780  18.279  13.471
40917W        W 9390  41.884  15.769  14.477
40918W        W 9391  43.345   4.385  14.800
40919W        W 9392  27.533  36.451  13.378
40920W        W 9393  24.036  14.107  11.024
40921W        W 9394   1.273  41.896  12.368
40922W        W 9395  34.465  25.527   2.206
40923W        W 9396   5.869  36.557  14.760
40924W        W 9397  33.607  23.706  12.421
40925W        W 9398  36.505  30.487   1.323
40926W        W 9399  19.252   7.869   4.158
40927W        W 9400  41.438  36.448  12.438
40928W        W 9401  22.709  30.913   4.794
40929W        W 9402  39.976   2.926  11.557
40930W        W 9403  30.070  26.037   2.231
40931W        W 9404  20.695  16.626   1.901
40932W        W 9405  41.038   3.220  10.572
40933W        W 9406   5.738  20.084   1.441
40934W        W 9407   9.328  10.837  10.434
40935W        W 9408  21.586   1.758   3.279
40936W        W 9409  17.195  12.223  12.423
40937W        W 9410  25.480  28.019  10.522
40938W        W 9411   7.208   1.848   0.825
40939W        W 9412  37.055   3.789  12.839
40940W        W 9413  11.748  28.958  12.538
40941W        W 9414  30.417  23.147  12.986
40942W        W 9415  24.151   6.877   0.755
40943W        W 9416  35.942   1.919  10.588
40944W        W 9417  38.483   4.841  10.049
40945W        W 9418  29.536  36.983  13.321
40946W        W 9419  11.745  37.846  12.470
40947W        W 9420  20.239  31.628  11.908
40948W        W 9421  39.995  18.598   3.740
40949W        W 9422   0.407   8.747  12.894
40950W        W 9423  18.772  25.566  11.992
40951W        W 9424  11.836   7.908  13.401
40952W        W 9425   9.829  30.963   3.695
40953W        W 9426  21.540   3.447  14.992
40954W        W 9427  34.518   4.854   2.222
40955W        W 9428  38.039  25.070   1.710
40956W        W 9429  18.109  37.378   3.837
40957W        W 9430  35.590   2.860  13.021
40958W        W 9431  25.123  44.967   1.242
40959W        W 9432  31.899  23.157   5.251
40960W        W 9433   4.340   2.965   4.122
40961W        W 9434  25.515  35.873   0.451
40962W        W 9435  40.020  11.756  14.812
40963W        W 9436   8.720  43.493   4.167
40964W        W 9437  30.111  19.259   4.145
40965W        W 9438   2.316  33.079  14.378
40966W        W 9439  36.879  32.538   4.181
40967W        W 9440  42.974  38.502  11.474
40968W        W 9441  19.162  21.664  11.424
40969W        W 9442  34.573   5.395   3.253
40970W        W 9443  25.030  41.351  13.499
40971W        W 9444  32.571  13.834   2.870
40972W        W 9445   6.202  39.454   1.280
40973W        W 9446  13.173  41.947  11.376
40974W        W 9447   5.257  23.630  10.943
40975W        W 9448  18.632  32.533   3.812
40976W        W 9449  15.168  14.276  11.458
40977W        W 9450  30.415   5.863  11.085
40978W        W 9451  17.670  17.250   9.967
40979W        W 9452  11.339   1.479  10.514
40980W        W 9453   6.241  26.034   4.715
40981W        W 9454   4.429   6.860  11.599
40982W        W 9455   3.816  35.399   3.638
40983W        W 9456   4.849  35.510   2.894
40984W        W 9457  38.462  41.397   0.390
40985W        W 9458  42.365  21.616  14.395
40986W        W 9459  28.436  33.392  11.123
40987W        W 9460  28.054  14.631  12.412
40988W        W 9461  39.941  28.094  11.029
40989W        W 9462  34.519  15.612  14.922
40990W        W 9463  29.523  12.147   4.235
40991W        W 9464  23.065  37.079   4.757
40992W        W 9465  33.610  15.190   0.448
40993W        W 9466  31.609  31.419   2.295
40994W        W 9467  29.582   2.934  10.568
40995W        W 9468   7.291  14.103   2.856
40996W        W 9469  14.240  42.877   0.419
40997W        W 9470   0.423  14.340   3.289
40998W        W 9471  43.863  27.111   3.282
40999W        W 9472   3.394  32.633  10.556
41000W        W 9473  21.646  41.426  13.013
41001W        W 9474   0.769   2.830   4.812
41002W        W 9475   1.268  23.702  10.974
41003W        W 9476  24.156   0.456   0.436
41004W        W 9477   7.752  43.790  13.892
41005W        W 9478  18.672  30.424  11.954
41006W        W 9479  22.732  34.118  14.420
41007W        W 9480  29.650  25.099   4.336
41008W        W 9481   5.296   1.838   0.754
41009W        W 9482  30.116  44.960   0.466
41010W        W 9483  24.194  38.894   0.748
41011W        W 9484  29.933  17.800   0.284
41012W        W 9485  18.221  27.460  11.460
41013W        W 9486  24.146   0.782  13.797
41014W        W 9487  26.583   4.894   1.451
41015W        W 9488  36.550   2.250   4.262
41016W        W 9489  33.431  21.570  14.998
41017W        W 9490  15.699  42.014  10.612
41018W        W 9491  39.530  19.071   0.344
41019W        W 9492  24.209  28.629   3.211
41020W        W 9493  37.995  39.857   3.808
41021W        W 9494  26.976  23.126  12.983
41022W        W 9495  38.014  29.039  11.495
41023W        W 9496  18.277  23.142  12.442
41024W        W 9497   0.824   1.277  14.409
41025W        W 9498  16.701  26.083  14.973
41026W        W 9499   0.941   7.405   4.257
41027W        W 9500  11.164  24.216   4.838
41028W        W 9501  30.652  25.480   3.378
41029W        W 9502  32.999  29.592  14.867
41030W        W 9503  12.237  42.026   1.813
41031W        W 9504   6.681  28.619   4.619
41032W        W 9505  20.084  25.030   3.288
41033W        W 9506   3.849  30.000  10.545
41034W        W 9507  22.096  14.795   1.831
41035W        W 9508  34.940   9.783   3.224
41036W        W 9509  34.026  14.265   0.356
41037W        W 9510  39.954  34.527  13.902
41038W        W 9511  21.701  22.606  13.527
41039W        W 9512   3.923  18.225   4.815
41040W        W 9513  21.110  43.822   2.801
41041W        W 9514  17.074  42.329   3.864
41042W        W 9515  23.000   7.225  12.345
41043W        W 9516   4.418  37.500   1.212
41044W        W 9517  11.220   1.384  14.305
41045W        W 9518  31.068  19.705   4.637
41046W        W 9519  24.078  35.514  13.981
41047W        W 9520  22.598  38.002   3.751
41048W        W 9521   4.717  16.082   0.935
41049W        W 9522  41.391  42.286   0.810
41050W        W 9523  15.630  33.448   4.283
41051W        W 9524  33.082  25.500   3.761
41052W        W 9525  33.888  27.065  13.526
41053W        W 9526  33.507   3.787  14.965
41054W        W 9527   1.825  26.643  10.474
41055W        W 9528   5.728  29.974  14.904
41056W        W 9529  25.689  17.078  10.475
41057W        W 9530  16.236  10.865   4.350
41058W        W 9531  24.060  38.334   0.954
41059W        W 9532   8.712  16.276  12.878
41060W        W 9533  20.133  30.458   4.247
41061W        W 9534   9.157  11.295  11.993
41062W        W 9535  19.717  16.134   4.791
41063W        W 9536  27.631  43.317  14.333
41064W        W 9537  32.426  29.064  10.597
41065W        W 9538  20.183  27.173   4.251
41066W        W 9539  16.269   0.889  10.600
41067W        W 9540  12.198  35.075   0.249
41068W        W 9541  40.405  27.082  10.564
41069W        W 9542  11.764   0.416   0.441
41070W        W 9543  17.739  22.060   1.785
41071W        W 9544  18.192  29.155   2.249
41072W        W 9545  34.515  37.043   3.301
41073W        W 9546  41.909  18.228  12.393
41074W        W 9547  20.266   6.204  10.405
41075W        W 9548   5.291  33.622   2.235
41076W        W 9549   5.234  34.470  13.537
41077W        W 9550  19.279   9.717   3.681
41078W        W 9551   2.727  43.384  14.875
41079W        W 9552  14.725  38.463   5.320
41080W        W 9553  21.030  21.623   2.417
41081W        W 9554   9.846  22.672   2.369
41082W        W 9555  33.573  35.965  12.471
41083W        W 9556  15.580  31.609   3.665
41084W        W 9557  12.845  18.118  12.359
41085W        W 9558  38.932   0.461   4.689
41086W        W 9559   3.344  13.803   3.302
41087W        W 9560  10.674  35.035  14.866
41088W        W 9561  14.602  37.424   4.142
41089W        W 9562   1.317  20.690  11.884
41090W        W 9563   5.890  32.424  12.373
41091W        W 9564  13.718  44.379   4.350
41092W        W 9565  41.518  28.566   1.888
41093W        W 9566  30.519  27.153   5.132
41094W        W 9567  43.765  28.650   2.228
41095W        W 9568   4.389  44.955  14.943
41096W        W 9569   9.248  20.608  14.347
41097W        W 9570  38.344  34.993  12.002
41098W        W 9571  24.642  31.436   0.290
41099W        W 9572   5.430  13.263  13.990
41100W        W 9573  15.118  16.571  13.811
41101W        W 9574   9.245  29.545   0.818
41102W        W 9575  16.131  18.668  10.088
41103W        W 9576  36.862   3.726  12.007
41104W        W 9577  32.963  28.081  12.979
41105W        W 9578  32.546  32.931   3.698
41106W        W 9579  15.285   5.909  10.479
41107W        W 9580  36.536  14.715   2.902
41108W        W 9581  15.654  10.783  12.494
41109W        W 9582  35.549  30.605   2.707
41110W        W 9583  29.979  28.488  11.472
41111W        W 9584  26.151  28.569  11.431
41112W        W 9585  11.355  13.630   2.292
41113W        W 9586  36.504  36.526  10.476
41114W        W 9587  22.732   1.316   4.755
41115W        W 9588   5.346  22.522  12.530
41116W        W 9589  18.088   9.700  11.027
41117W        W 9590  22.513  38.413  11.999
41118W        W 9591  20.053   6.848   2.751
41119W        W 9592  27.148  31.014  14.999
41120W        W 9593  19.574  24.171   2.227
41121W        W 9594   3.361  16.804  11.583
41122W        W 9595  39.858  23.620   3.832
41123W        W 9596  21.213   3.389   3.686
41124W        W 9597   0.344  35.004  11.612
41125W        W 9598   5.204   8.338   0.777
41126W        W 9599  30.134  38.410   4.272
41127W        W 9600   3.220  26.132   3.666
41128W        W 9601  17.625  16.093   2.240
41129W        W 9602  28.057  37.550  14.875
41130W        W 9603   7.857  43.362  12.400
41131W        W 9604  31.001  32.625   3.163
41132W        W 9605  32.005  29.594  12.463
41133W        W 9606   7.900   2.879   3.318
41134W        W 9607  11.758  12.786   1.325
41135W        W 9608   3.246  43.271   1.434
41136W        W 9609   0.284  31.987  11.494
41137W        W 9610  31.550  40.549  11.378
41138W        W 9611  27.168  35.381   2.410
41139W        W 9612   0.269  41.530  11.016
41140W        W 9613   1.417  19.048   3.311
41141W        W 9614   9.879  10.734  13.037
41142W        W 9615  36.385  41.908   1.235
41143W        W 9616  33.534  14.619  13.524
41144W        W 9617   4.361  13.767   4.277
41145W        W 9618   6.410  29.596   2.792
41146W        W 9619  22.645  12.269  11.443
41147W        W 9620  21.712  14.201   1.926
41148W        W 9621   3.876   4.808   0.402
41149W        W 9622  13.208  37.925   1.227
41150W        W 9623   9.155   6.897   0.418
41151W        W 9624  35.890   4.236   1.391
41152W        W 9625  34.868  41.347   0.763
41153W        W 9626  22.613  35.858   2.813
41154W        W 9627  22.170  35.443  13.064
41155W        W 9628  11.823  24.000  11.883
41156W        W 9629  38.016  26.568  13.402
41157W        W 9630   1.364  31.048  13.420
41158W        W 9631  18.773  16.655   0.313
41159W        W 9632  38.905  35.917  14.876
41160W        W 9633  27.667   4.376   3.204
41161W        W 9634  35.029  24.520   3.256
41162W        W 9635   8.709  34.995   0.316
41163W        W 9636  30.462   1.733  10.637
41164W        W 9637  33.057  38.032   1.389
41165W        W 9638   8.213   8.366  13.043
41166W        W 9639  15.774  35.499   1.433
41167W        W 9640  39.536  11.652   2.346
41168W        W 9641   6.768  13.624  12.560
41169W        W 9642  19.735  32.026   9.977
41170W        W 9643  10.143  41.349   0.455
41171W        W 9644  29.605   3.247   3.235
41172W        W 9645  42.330  36.988  14.911
41173W        W 9646  23.614   7.267   3.322
41174W        W 9647  14.149   3.277  12.498
41175W        W 9648  28.450  32.441   1.722
41176W        W 9649  34.490  19.090  11.891
41177W        W 9650  34.965  34.507  13.413
41178W        W 9651  28.121  30.419  10.498
41179W        W 9652  27.493  24.218   4.234
41180W        W 9653  42.507  24.587   1.314
41181W        W 9654  43.282  33.118   4.134
41182W        W 9655  43.507  39.516   0.897
41183W        W 9656   0.492   2.451  13.976
41184W        W 9657  41.856  25.649   1.835
41185W        W 9658   5.379  17.791   3.821
41186W        W 9659  34.387   9.876   3.709
41187W        W 9660  12.729  26.567  10.598
41188W        W 9661  39.859  10.654   1.232
41189W        W 9662   3.226  27.477   2.239
41190W        W 9663  15.628   3.383  14.439
41191W        W 9664  41.865  25.678  11.493
41192W        W 9665   2.864  33.004  14.415
41193W        W 9666  13.633  30.632  10.950
41194W        W 9667   1.330  24.505   4.289
41195W        W 9668  21.545  12.672   4.703
41196W        W 9669  38.407  40.465  12.966
41197W        W 9670  21.246  11.172   2.887
41198W        W 9671   5.310  27.682  12.991
41199W        W 9672  17.291  29.568   4.650
41200W        W 9673   2.289  41.460  13.509
41201W        W 9674  20.579  13.157   5.140
41202W        W 9675  34.017  40.879   2.345
41203W        W 9676   2.838  12.832  10.447
41204W        W 9677  18.290   2.801  10.562
41205W        W 9678  13.301  21.744  12.040
41206W        W 9679   7.773  43.373  12.966
41207W        W 9680  30.423  36.493   1.847
41208W        W 9681  27.621  33.999   2.674
41209W        W 9682  26.523  33.120  14.975
41210W        W 9683  18.696  13.348   4.187
41211W        W 9684  21.190  25.508  12.831
41212W        W 9685  22.100   6.708   4.331
41213W        W 9686  10.194  18.065  13.540
41214W        W 9687  35.855  27.050   2.885
41215W        W 9688  41.477  15.587  13.853
41216W        W 9689  34.506  28.967  11.605
41217W        W 9690   2.433  23.237  14.013
41218W        W 9691  26.554  18.766   1.297
41219W        W 9692   5.206   2.860  11.470
41220W        W 9693  25.620  12.159   0.793
41221W        W 9694  36.963  42.384  13.976
41222W        W 9695  12.162   3.954   0.244
41223W        W 9696  19.127  13.286  10.908
41224W        W 9697   2.894  32.912  10.563
41225W        W 9698  27.672   8.321   2.750
41226W        W 9699  32.407  12.846   0.434
41227W        W 9700   3.853  34.119   2.290
41228W        W 9701  32.048  11.658   5.253
41229W        W 9702  41.501  33.047   0.752
41230W        W 9703  10.266  37.464  13.449
41231W        W 9704  35.521  37.528  14.340
41232W        W 9705  19.042  37.937   1.374
41233W        W 9706  33.580   7.785  10.969
41234W        W 9707   5.375  10.151  10.001
41235W        W 9708  32.569   8.398  12.553
41236W        W 9709  18.731   0.320   1.450
41237W        W 9710   8.193  30.608  14.882
41238W        W 9711  36.927   3.846   3.756
41239W        W 9712  44.499   7.824  14.006
41240W        W 9713  34.611   9.819   2.304
41241W        W 9714  27.536  38.988  12.943
41242W        W 9715  26.658   2.348  10.495
41243W        W 9716  13.315   1.434  11.518
41244W        W 9717  30.646  32.106  11.110
41245W        W 9718   0.947  28.563   4.619
41246W        W 9719  14.808  40.046   2.759
41247W        W 9720  28.449   2.843   4.137
41248W        W 9721  36.038  32.583   3.193
41249W        W 9722  27.009  28.491  13.421
41250W        W 9723   6.370   1.309  14.921
41251W        W 9724   0.988  21.752  12.880
41252W        W 9725  38.395   0.869   2.357
41253W        W 9726  16.594  16.663   4.725
41254W        W 9727  32.540  22.038  14.949
41255W        W 9728   4.854   7.180  12.045
41256W        W 9729  35.364  20.613   0.881
41257W        W 9730   7.303  24.664  14.777
41258W        W 9731   5.314   4.263  11.957
41259W        W 9732  38.343   5.201   1.900
41260W        W 9733  29.545  23.668   4.785
41261W        W 9734  14.116  32.601   1.286
41262W        W 9735  13.707  33.431   4.223
41263W        W 9736  30.531  23.723   2.381
41264W        W 9737  32.621  11.792   4.643
41265W        W 9738  31.112  41.316   5.081
41266W        W 9739  17.137  27.523   3.822
41267W        W 9740  42.904  17.307  11.406
41268W        W 9741   8.850  15.266  10.542
41269W        W 9742  37.358  24.567  12.348
41270W        W 9743  19.745  22.244   3.790
41271W        W 9744  31.048  30.449  14.359
41272W        W 9745  29.614  34.568   1.381
41273W        W 9746  26.064  41.406   4.741
41274W        W 9747  31.581  44.961  11.593
41275W        W 9748   9.711  42.838  11.939
41276W        W 9749   6.423  43.426  10.459
41277W        W 9750  11.697  28.070   3.774
41278W        W 9751  19.251  42.409   0.342
41279W        W 9752  26.608  40.918  14.020
41280W        W 9753  18.059   6.422  10.461
41281W        W 9754  30.452  31.913   1.696
41282W        W 9755   2.736   8.789   3.346
41283W        W 9756  33.501   8.801  13.034
41284W        W 9757  43.311  32.608  13.307
41285W        W 9758  12.711  16.746   2.757
41286W        W 9759  16.666   5.401   1.401
41287W        W 9760  26.023  40.436   4.279
41288W        W 9761  43.007   1.760   4.293
41289W        W 9762  42.414  40.880   0.961
41290W        W 9763   7.673   8.775   5.127
41291W        W 9764  44.260  31.924   2.284
41292W        W 9765  19.740  39.051  12.439
41293W        W 9766  35.600  38.975  14.480
41294W        W 9767  18.681  15.735  11.890
41295W        W 9768  16.736   7.728   3.668
41296W        W 9769  33.576   9.249  14.492
41297W        W 9770   0.378  24.186   2.215
41298W        W 9771   7.868  13.346  14.765
41299W        W 9772   3.304  40.926   0.321
41300W        W 9773   4.215  34.585  12.028
41301W        W 9774  26.980  16.187  12.016
41302W        W 9775   9.682  23.069  10.629
41303W        W 9776  34.082   4.920  13.900
41304W        W 9777  37.570  32.100   4.686
41305W        W 9778  16.167  42.817   1.294
41306W        W 9779  15.608  32.037  14.288
41307W        W 9780  15.625  37.928  13.005
41308W        W 9781  16.106  28.932   1.739
41309W        W 9782  10.289  42.813  13.489
41310W        W 9783  34.456  18.207   2.802
41311W        W 9784   7.853  14.238  12.935
41312W        W 9785  17.105  32.525  11.563
41313W        W 9786  17.078   9.691   3.694
41314W        W 9787   6.734  38.876   0.814
41315W        W 9788  34.996  39.314   1.425
41316W        W 9789  12.146  35.089   3.338
41317W        W 9790  15.205  30.591  13.413
41318W        W 9791  37.453   0.483  11.000
41319W        W 9792  12.342   5.925  10.510
41320W        W 9793  18.111   4.450   4.132
41321W        W 9794  29.015   3.840   2.255
41322W        W 9795  32.607  35.000   4.335
41323W        W 9796  39.998  22.712   3.754
41324W        W 9797   9.825  11.725   3.808
41325W        W 9798   6.202  39.981   0.968
41326W        W 9799   9.294   8.218  13.941
41327W        W 9800   1.772  38.986  10.941
41328W        W 9801  42.288  21.601  13.531
41329W        W 9802  44.963  23.081  13.058
41330W        W 9803  38.373  29.023  13.900
41331W        W 9804  41.038  16.638  12.085
41332W        W 9805  36.582  36.421   2.340
41333W        W 9806   0.251   7.746   2.754
41334W        W 9807  43.893   2.779   4.274
41335W        W 9808  32.426  38.523   1.847
41336W        W 9809  38.371   5.843  13.459
41337W        W 9810  13.293  41.319  12.547
41338W        W 9811  29.026   1.812   4.135
41339W        W 9812  35.897  36.854  13.912
41340W        W 9813  44.974  14.246   3.330
41341W        W 9814  13.172  25.113   2.338
41342W        W 9815  15.221  18.052  10.907
41343W        W 9816   8.368  12.660  14.847
41344W        W 9817  27.026   0.293   9.598
41345W        W 9818  12.836  35.445  14.870
41346W        W 9819  33.480  43.787   9.596
41347W        W 9820   9.712  40.500   4.290
41348W        W 9821  11.676  43.774  14.455
41349W        W 9822  32.587  31.937   0.733
41350W        W 9823  12.770   3.732  12.354
41351W        W 9824  25.079   3.425   4.607
41352W        W 9825   4.864   0.433   5.177
41353W        W 9826  14.798   8.244  13.527
41354W        W 9827   5.198   4.410   1.910
41355W        W 9828  17.671  18.769  13.504
41356W        W 9829  19.150  26.016  13.827
41357W        W 9830   9.270  38.327   0.843
41358W        W 9831  31.553  15.787  13.813
41359W        W 9832  30.127  38.015   3.833
41360W        W 9833  24.018  31.118   3.651
41361W        W 9834  22.594  20.608  11.983
41362W        W 9835  32.088  40.500  13.393
41363W        W 9836  24.228  19.633   0.385
41364W        W 9837   4.370  44.929  13.510
41365W        W 9838  22.633  22.034  13.886
41366W        W 9839  43.273  26.133   4.656
41367W        W 9840  27.168  21.662   0.928
41368W        W 9841  37.431   1.913   2.273
41369W        W 9842  26.130  30.433   4.261
41370W        W 9843  38.374  42.937   2.861
41371W        W 9844  39.322  16.595  11.509
41372W        W 9845  40.314  38.566  14.879
41373W        W 9846   5.362  39.473   3.338
41374W        W 9847  17.113  23.020  12.845
41375W        W 9848   2.362  44.501  11.022
41376W        W 9849   3.848   2.314  14.445
41377W        W 9850   3.941   3.742  13.420
41378W        W 9851  14.722  40.968  13.419
41379W        W 9852   5.839   1.800   3.227
41380W        W 9853   6.751   1.895   0.780
41381W        W 9854  27.582   4.868   3.197
41382W        W 9855  16.697  11.704   3.240
41383W        W 9856  26.674  29.666  10.973
41384W        W 9857   8.371  13.261   3.742
41385W        W 9858  40.954  27.682   2.824
41386W        W 9859  14.212  28.663   0.393
41387W        W 9860  37.006  42.375  10.940
41388W        W 9861   4.362  36.868  13.873
41389W        W 9862  29.053  32.001  12.449
41390W        W 9863  39.950  23.530  14.956
41391W        W 9864   1.281  12.128   3.724
41392W        W 9865  42.399  24.716   3.685
41393W        W 9866  44.422  26.617  11.057
41394W        W 9867   2.402  43.961   0.464
41395W        W 9868   3.326   6.403   5.110
41396W        W 9869  10.702  35.568  11.953
41397W        W 9870   6.233  42.409   1.222
41398W        W 9871  27.545  19.123  13.009
41399W        W 9872  18.155  43.962   0.425
41400W        W 9873  38.566  14.591   3.343
41401W        W 9874   1.455  14.712   0.268
41402W        W 9875  10.362  31.607  11.515
41403W        W 9876  13.188  43.372  14.477
41404W        W 9877  37.503  37.927  14.849
41405W        W 9878   3.710  42.341  13.988
41406W        W 9879  11.625   4.756  11.523
41407W        W 9880  27.051  11.312  13.307
41408W        W 9881  40.515  34.986  14.778
41409W        W 9882  43.853  34.001   2.727
41410W        W 9883  22.520  32.456   4.810
41411W        W 9884  20.232  18.742   2.263
41412W        W 9885  39.814   1.841  14.976
41413W        W 9886  21.138  39.027   2.883
41414W        W 9887  26.549  34.049   2.197
41415W        W 9888  39.517  11.211   4.681
41416W        W 9889  29.637   2.834   2.197
41417W        W 9890  27.488  44.890   2.834
41418W        W 9891  16.751  32.591  13.052
41419W        W 9892  23.612   1.828  13.428
41420W        W 9893  19.061   6.238   4.735
41421W        W 9894  15.247   2.865   2.336
41422W        W 9895   2.849  39.319   4.343
41423W        W 9896  15.122  18.289   2.834
41424W        W 9897  28.660  24.537   2.341
41425W        W 9898  21.072  37.911  13.850
41426W        W 9899   9.730   0.410   1.400
41427W        W 9900   4.448   2.297   3.219
41428W        W 9901  16.670  19.766  11.100
41429W        W 9902   2.869   2.808  13.819
41430W        W 9903   0.856   8.225  11.956
41431W        W 9904  30.469  43.801   4.203
41432W        W 9905  35.009  36.895   0.445
41433W        W 9906   4.769  43.967   4.156
41434W        W 9907  23.520  31.919  13.848
41435W        W 9908  14.188  42.298   1.804
41436W        W 9909  35.008  17.698  10.638
41437W        W 9910  35.936  23.658   3.664
41438W        W 9911  18.545  37.493  11.466
41439W        W 9912   7.272   3.906   1.403
41440W        W 9913  43.289   3.386  12.858
41441W        W 9914  30.920   1.444   4.789
41442W        W 9915   6.195  44.315  14.798
41443W        W 9916  42.381  33.443  10.889
41444W        W 9917  28.074  43.872   1.216
41445W        W 9918  39.973  33.575  12.032
41446W        W 9919  14.609  43.839  14.925
41447W        W 9920   7.370  25.127  12.940
41448W        W 9921  41.943  11.316  10.419
41449W        W 9922  19.747   3.876  11.377
41450W        W 9923  14.234  41.391   0.249
41451W        W 9924  19.548  34.397  13.329
41452W        W 9925  35.052  38.339  13.446
41453W        W 9926   9.316   5.829   2.782
41454W        W 9927   8.387   5.864  11.075
41455W        W 9928   2.839  28.972  12.400
41456W        W 9929  41.919  29.475   4.208
41457W        W 9930  23.134   2.274  10.443
41458W        W 9931  14.179   5.439   2.853
41459W        W 9932  26.044   1.857   4.727
41460W        W 9933  14.277  14.104  10.596
41461W        W 9934  12.632  12.840   2.805
41462W        W 9935   5.411  22.068   4.341
41463W        W 9936  34.959  41.429  14.859
41464W        W 9937  20.037  36.945  13.029
41465W        W 9938  13.288  26.668   0.378
41466W        W 9939  41.951  21.241  11.933
41467W        W 9940  41.936  26.193   0.932
41468W        W 9941  34.452   3.782   4.156
41469W        W 9942  21.184  44.450   0.345
41470W        W 9943   7.183  30.124  10.443
41471W        W 9944  27.663  29.656   0.810
41472W        W 9945   2.829  29.472  10.979
41473W        W 9946  21.183   0.888  10.610
41474W        W 9947  34.043  23.636  11.493
41475W        W 9948   8.691  43.349   4.770
41476W        W 9949  30.116  20.679   3.224
41477W        W 9950  25.025  23.614   2.806
41478W        W 9951  36.590  27.136  10.967
41479W        W 9952  27.036  19.606   4.655
41480W        W 9953  28.603  31.572   2.179
41481W        W 9954   2.739  31.153  12.541
41482W        W 9955  24.534  32.933   2.816
41483W        W 9956  21.526  29.628   3.671
41484W        W 9957  38.996  40.923   1.404
41485W        W 9958  41.433  30.939   1.755
41486W        W 9959  18.548  23.505   3.279
41487W        W 9960  15.695  11.213   1.908
41488W        W 9961  40.423  39.866   0.415
41489W        W 9962  31.539  14.623   2.832
41490W        W 9963  33.399  35.078   4.224
41491W        W 9964   0.460  25.699  11.566
41492W        W 9965  23.534  24.990  12.926
41493W        W 9966   1.425  19.610  12.359
41494W        W 9967  41.329  15.640  12.398
41495W        W 9968  40.539  20.096  13.822
41496W        W 9969  11.675  13.261   2.370
41497W        W 9970   7.769  35.944  12.487
41498W        W 9971  23.720  32.417   4.755
41499W        W 9972  38.342  38.471  10.553
41500W        W 9973  36.534  37.384   4.785
41501W        W 9974  23.993   7.832  14.947
41502W        W 9975  29.461   2.958  13.934
41503W        W 9976  30.453  33.461  12.364
41504W        W 9977  12.269  27.457  13.926
41505W        W 9978  28.626  12.320  14.489
41506W        W 9979  29.565  14.199  13.345
41507W        W 9980   0.826  18.082   0.441
41508W        W 9981  17.213  16.776   0.831
41509W        W 9982  44.784  24.668  12.453
41510W        W 9983  39.846  29.610   0.839
41511W        W 9984  27.546   4.334   4.710
41512W        W 9985  44.784  16.281   2.848
41513W        W 9986  28.619  18.210  11.501
41514W        W 9987   6.390   4.874   3.384
41515W        W 9988  17.560  34.098   2.698
41516W        W 9989   5.253  27.946   0.816
41517W        W 9990  30.022  40.471  10.592
41518W        W 9991   5.755  26.067   3.343
41519W        W 9992  26.610  43.286  14.006
41520W        W 9993  14.590  26.110  13.539
41521W        W 9994   6.723   1.294   4.138
41522W        W 9995  16.270  16.581  12.949
41523W        W 9996  26.664  37.008  12.342
41524W        W 9997  27.194  24.651   3.807
41525W        W 9998  19.550  22.656  13.335
41526W        W 9999  28.963   4.820  11.893
41527W        W10000  20.258  27.084   0.468
41528W        W10001   4.729  25.011  10.500
41529W        W10002  21.077  35.002   0.800
41530W        W10003  17.617   5.722   4.831
41531W        W10004   9.380  15.178   1.376
41532W        W10005  28.968   3.307  13.848
41533W        W10006  32.481  16.742  13.009
41534W        W10007  40.974  36.514  10.968
41535W        W10008  39.897   0.908  12.014
41536W        W10009  23.581  14.198   5.189
41537W        W10010  14.596  31.931   5.170
41538W        W10011  17.121  36.942   2.198
41539W        W10012  17.253   6.298  11.073
41540W        W10013  43.474  27.033   3.150
41541W        W10014  28.575  37.849  14.364
41542W        W10015  42.881  24.498  11.060
41543W        W10016  19.127  15.192   3.260
41544W        W10017   4.420  43.764   2.352
41545W        W10018  32.544  44.004   3.261
41546W        W10019   2.456  24.495   1.822
41547W        W10020   7.671  43.282   1.724
41548W        W10021   6.190   8.282   1.399
41549W        W10022   9.677  37.576   4.817
41550W        W10023   3.456  15.265  13.932
41551W        W10024  37.070  42.487   0.777
41552W        W10025  27.080   5.247  11.422
41553W        W10026  35.459  32.612   4.316
41554W        W10027  34.945  44.331   0.386
41555W        W10028  12.637  28.472   1.382
41556W        W10029  32.896  24.643  14.358
41557W        W10030  38.908  43.867  11.121
41558W        W10031  34.480   0.377  13.462
41559W        W10032   8.404   9.789  10.644
41560W        W10033   6.889  32.609   0.389
41561W        W10034  40.969  42.292  13.920
41562W        W10035  40.464  15.667   2.845
41563W        W10036  42.854  23.057   0.472
41564W        W10037  12.146   3.258   1.401
41565W        W10038   7.669  30.428   4.749
41566W        W10039  15.271  32.132  11.596
41567W        W10040   0.950  31.472  10.503
41568W        W10041  18.574  34.962  10.992
41569W        W10042  24.694  30.514  13.492
41570W        W10043  32.933  25.090   3.677
41571W        W10044  22.045  39.913   1.766
41572W        W10045  14.143  37.544  13.380
41573W        W10046  23.598  38.912   2.247
41574W        W10047  17.691  27.617   0.481
41575W        W10048   7.343  32.933  12.872
41576W        W10049  25.117  40.504   0.332
41577W        W10050   8.374  38.820   4.140
41578W        W10051  17.713  39.956  10.939
41579W        W10052  16.605   0.419  14.963
41580W        W10053  40.924  28.647  11.529
41581W        W10054  16.100   2.328  10.406
41582W        W10055   4.879  31.404   2.222
41583W        W10056  30.079  27.136   0.386
41584W        W10057  18.560   0.897   5.169
41585W        W10058  12.192   9.306   1.720
41586W        W10059  38.370  11.702  14.462
41587W        W10060  15.306  39.387   3.280
41588W        W10061  12.183  22.688   1.310
41589W        W10062   5.391  22.161   0.432
41590W        W10063  16.798  27.049  14.321
41591W        W10064  20.184  16.282   0.395
41592W        W10065  22.231  41.885   1.799
41593W        W10066  24.494  11.295  14.856
41594W        W10067  24.019  19.573  13.016
41595W        W10068   6.838  17.652  13.314
41596W        W10069  12.322  21.103   0.850
41597W        W10070  12.737  43.298   3.222
41598W        W10071  11.217  10.698   1.843
41599W        W10072  18.713   8.719   3.189
41600W        W10073  25.028   1.301   5.218
41601W        W10074  29.942  35.493   0.816
41602W        W10075  13.161  35.423   2.664
41603W        W10076  34.472  33.891  14.847
41604W        W10077  30.141  10.371  13.372
41605W        W10078  41.479  18.738  11.400
41606W        W10079  30.628   5.201  12.398
41607W        W10080   6.691   5.430  13.321
41608W        W10081  15.152   6.303  13.038
41609W        W10082  34.888  16.279   3.367
41610W        W10083  44.770  15.174   0.426
41611W        W10084   9.273  13.754   1.372
41612W        W10085  35.045  35.583  14.901
41613W        W10086  34.026  33.012   3.187
41614W        W10087  17.713  20.248  13.406
41615W        W10088  44.367  30.993   1.808
41616W        W10089   5.322  30.440   3.179
41617W        W10090  32.619   0.478   0.410
41618W        W10091  26.569  14.655   1.277
41619W        W10092  20.174   8.804   1.344
41620W        W10093  40.052  40.975   2.735
41621W        W10094  25.175  28.180   3.636
41622W        W10095  15.307  18.717   0.927
41623W        W10096  38.938  40.817   3.367
41624W        W10097  41.018   3.901  11.519
41625W        W10098  21.555  24.514   0.762
41626W        W10099  30.075  16.604   1.855
41627W        W10100  29.041   0.380   1.322
41628W        W10101  22.036   0.340  14.431
41629W        W10102  36.472  13.642  12.377
41630W        W10103   4.412  15.732   3.219
41631W        W10104  33.543  18.636  10.577
41632W        W10105  22.701  44.904   0.818
41633W        W10106   3.231  35.016  12.531
41634W        W10107  13.218  43.835   0.449
41635W        W10108  44.319  10.681  13.483
41636W        W10109  18.767  24.103   1.743
41637W        W10110   8.296  16.103   4.209
41638W        W10111   3.955   6.834  12.096
41639W        W10112  17.780   4.372   0.781
41640W        W10113   1.913   3.273  13.426
41641W        W10114  34.054  39.363  11.451
41642W        W10115   6.296   9.255  12.392
41643W        W10116  20.670  20.200   1.442
41644W        W10117  30.607  15.608  12.379
41645W        W10118   4.349  28.640   4.656
41646W        W10119   4.741  13.345   1.224
41647W        W10120  33.395  42.461  10.523
41648W        W10121  40.467  13.746   2.721
41649W        W10122   3.899  25.654  10.571
41650W        W10123  42.397  23.647   3.756
41651W        W10124  26.133  43.983  11.866
41652W        W10125  17.070  26.096   2.739
41653W        W10126  44.764  37.943   1.337
41654W        W10127  38.447  34.388  13.861
41655W        W10128   1.824  25.971  12.541
41656W        W10129  13.823  18.057  11.498
41657W        W10130  34.915   0.766  12.548
41658W        W10131  28.501  25.479  14.438
41659W        W10132  22.593  40.399   1.788
41660W        W10133  22.626  43.380  13.446
41661W        W10134  35.860   6.194  10.437
41662W        W10135  36.553  12.198   3.179
41663W        W10136  25.211  42.892   5.293
41664W        W10137  35.012   2.749  12.363
41665W        W10138  28.063  22.618  12.872
41666W        W10139  43.796  19.772   0.445
41667W        W10140   9.339  28.073  12.393
41668W        W10141  35.104  25.154   1.277
41669W        W10142   6.313  34.980  10.457
41670W        W10143  23.152  38.551   3.797
41671W        W10144  37.377   2.256  13.888
41672W        W10145   2.933  34.409  12.957
41673W        W10146   7.257  41.431   2.870
41674W        W10147   7.814   1.385  12.522
41675W        W10148  27.145  31.616   1.777
41676W        W10149   3.930   5.243  12.070
41677W        W10150  44.411  22.052  13.850
41678W        W10151  32.615   4.800  11.891
41679W        W10152   8.272  21.135   1.296
41680W        W10153   0.298   8.782   1.423
41681W        W10154  27.579   3.409  12.047
41682W        W10155   8.220  26.987   2.185
41683W        W10156  43.489   8.808   1.325
41684W        W10157   7.197   1.736   1.296
41685W        W10158  29.535  42.801   0.845
41686W        W10159  38.071   0.920   3.257
41687W        W10160  42.320  27.445  14.384
41688W        W10161  40.988   1.930   1.869
41689W        W10162   1.763  12.235   1.345
41690W        W10163   4.842   3.771   4.329
41691W        W10164  14.244   1.844  12.501
41692W        W10165   4.309  34.946   0.831
41693W        W10166  38.070   2.893  10.436
41694W        W10167  17.697  42.811  14.408
41695W        W10168   1.285  29.080  14.843
41696W        W10169  37.946   1.925  11.596
41697W        W10170  24.078  44.439  11.549
41698W        W10171  44.490  30.413   3.161
41699W        W10172  18.203  26.054  12.459
41700W        W10173  15.726  23.611   2.247
41701W        W10174  11.806  26.667  12.023
41702W        W10175  23.153  41.302   2.848
41703W        W10176   9.820  19.666  12.537
41704W        W10177  37.885  43.021  10.560
41705W        W10178   4.331  14.325   0.764
41706W        W10179  18.082  16.122   1.268
41707W        W10180  43.907   6.227  13.062
41708W        W10181  39.387  33.593   3.377
41709W        W10182   3.231   4.324   0.309
41710W        W10183  40.810  33.442  12.487
41711W        W10184  13.633  21.040   2.850
41712W        W10185  36.437  34.865  11.109
41713W        W10186  15.090  30.475   1.879
41714W        W10187  16.645  20.036  12.989
41715W        W10188  20.556  28.633   0.475
41716W        W10189  36.093  41.819   1.717
41717W        W10190  37.866  24.707   1.778
41718W        W10191   4.276  39.846  12.914
41719W        W10192  13.181  11.152  12.517
41720W        W10193   2.752  11.222   4.829
41721W        W10194  15.671   6.795  10.508
41722W        W10195  17.305  23.147   4.319
41723W        W10196  11.159  10.810   3.746
41724W        W10197  24.720  35.943   1.359
41725W        W10198  22.174   2.911   4.271
41726W        W10199  42.848  12.641   2.349
41727W        W10200  41.463  36.526   4.643
41728W        W10201   9.227  10.154   2.308
41729W        W10202  29.052  30.475  11.126
41730W        W10203  37.035  37.934  10.910
41731W        W10204  43.807  18.667  10.515
41732W        W10205  38.893  43.776   0.864
41733W        W10206  39.508  21.728   1.935
41734W        W10207  25.192   8.867  12.048
41735W        W10208  21.528  44.978   4.268
41736W        W10209  35.969  43.946   1.721
41737W        W10210  17.683   6.256   0.288
41738W        W10211  38.373   3.326   3.278
41739W        W10212  37.928  22.560   2.383
41740W        W10213  34.421  15.704   4.129
41741W        W10214   9.331  15.760  13.473
41742W        W10215  23.631   7.678  14.812
41743W        W10216  37.983  44.371  11.872
41744W        W10217   2.726   4.828   0.912
41745W        W10218   1.810  11.353   1.926
41746W        W10219  16.220   9.230   1.427
41747W        W10220  35.004  25.695   2.683
41748W        W10221  26.092  20.548  10.561
41749W        W10222  30.448  16.801   4.821
41750W        W10223   5.295   1.733   1.839
41751W        W10224  35.599   1.839  13.314
41752W        W10225  15.085  15.316  13.977
41753W        W10226  10.180   0.854   1.236
41754W        W10227  41.863  30.129  13.929
41755W        W10228  36.377   6.824   4.298
41756W        W10229  15.294   0.302   0.424
41757W        W10230   3.883  23.067   2.284
41758W        W10231   1.907   2.846   0.787
41759W        W10232  10.230  12.176   2.688
41760W        W10233  14.168  39.363  10.508
41761W        W10234   4.921  40.416  14.965
41762W        W10235  33.580  25.590   2.209
41763W        W10236  22.508  20.640   0.433
41764W        W10237  25.495   8.387  10.597
41765W        W10238  32.511  34.608   2.854
41766W        W10239  12.229   3.437  11.001
41767W        W10240  26.459  29.120  10.437
41768W        W10241  13.290   5.413  11.581
41769W        W10242  14.805  25.571   4.675
41770W        W10243  16.690  28.175   1.327
41771W        W10244  23.177   8.728  10.947
41772W        W10245   1.937   9.279  12.022
41773W        W10246  26.667  28.941   2.699
41774W        W10247  16.718  17.254   3.689
41775W        W10248  10.276  15.583  14.449
41776W        W10249  35.102  41.907   1.284
41777W        W10250  32.555  20.648  11.078
41778W        W10251  30.972  20.123   0.315
41779W        W10252  15.749  21.226  14.774
41780W        W10253  34.472  15.120   3.195
41781W        W10254  22.211   2.312   1.891
41782W        W10255  37.511  32.080  12.560
41783W        W10256  41.995   5.727  14.470
41784W        W10257   9.849   8.769   5.283
41785W        W10258  34.554  41.014   3.177
41786W        W10259   3.272  37.992  10.556
41787W        W10260   1.774  29.600  11.399
41788W        W10261  28.596  14.823  13.848
41789W        W10262  28.494  31.491  12.425
41790W        W10263  16.108  43.830  12.339
41791W        W10264   1.815  43.507  11.856
41792W        W10265   0.785  37.403   5.258
41793W        W10266   1.929  31.485  14.919
41794W        W10267  11.713  30.931  13.903
41795W        W10268  37.015  11.151  12.415
41796W        W10269  28.932  40.457  11.081
41797W        W10270   6.403  36.585   2.713
41798W        W10271  40.351   5.886  14.278
41799W        W10272  29.539  26.505  10.641
41800W        W10273  12.673  16.796   4.268
41801W        W10274   6.255   7.767   0.423
41802W        W10275  25.619  43.941  14.402
41803W        W10276   0.330   2.381  12.453
41804W        W10277  10.788   4.346   3.784
41805W        W10278  31.606  31.528  11.987
41806W        W10279  23.094  37.415  13.821
41807W        W10280   9.251  19.696   1.426
41808W        W10281  27.689  25.689  11.964
41809W        W10282  15.595  32.409  11.944
41810W        W10283  13.233  22.114  11.887
41811W        W10284  36.450  30.476   9.964
41812W        W10285  42.354  43.288   3.843
41813W        W10286  44.973   1.265   3.222
41814W        W10287   8.357  41.401   2.284
41815W        W10288   5.834   2.395  13.961
41816W        W10289  29.656   1.918  10.037
41817W        W10290  24.530  44.316  11.415
41818W        W10291  41.949   7.189   5.191
41819W        W10292  14.756  36.361  11.446
41820W        W10293  29.011  29.616   2.215
41821W        W10294  38.986  37.929  12.861
41822W        W10295   1.746  29.931  10.457
41823W        W10296  17.784  22.579  14.776
41824W        W10297   1.907  23.672  14.282
41825W        W10298  10.198  10.220   0.374
41826W        W10299   2.297  25.080  12.481
41827W        W10300  12.266  36.401  14.442
41828W        W10301  32.458  30.520   1.791
41829W        W10302  19.062  21.593   2.878
41830W        W10303  27.956  23.088  10.949
41831W        W10304  14.201  44.983  10.958
41832W        W10305  20.102  26.178   0.945
41833W        W10306   1.262   9.361   3.307
41834W        W10307   5.226  37.991  12.949
41835W        W10308  32.551  31.638  14.766
41836W        W10309  26.570  39.479   4.657
41837W        W10310   6.234  23.991  13.797
41838W        W10311  12.234   9.244   1.241
41839W        W10312  15.307  30.566  12.844
41840W        W10313   7.195  42.786   9.987
41841W        W10314  15.606  32.620  12.430
41842W        W10315  23.539  15.778  10.550
41843W        W10316  37.934  17.562   1.294
41844W        W10317  10.746  34.404  10.083
41845W        W10318  29.515  34.507  11.879
41846W        W10319  10.718  41.509  11.060
41847W        W10320  16.769  16.128  10.470
41848W        W10321  16.223  29.603   2.216
41849W        W10322   2.340  22.120   3.198
41850W        W10323  31.631  26.169   5.321
41851W        W10324   7.404   0.462   0.782
41852W        W10325  41.829  23.072   4.156
41853W        W10326  13.846  18.714  11.004
41854W        W10327  31.089   0.485  14.799
41855W        W10328  42.891  37.888   1.801
41856W        W10329   8.267  24.651  10.034
41857W        W10330  15.711  36.502  11.392
41858W        W10331   0.257  35.471   0.318
41859W        W10332   3.940  22.649  10.559
41860W        W10333  15.245  43.312  11.401
41861W        W10334   6.884   6.356  10.482
41862W        W10335   1.868  24.218  11.104
41863W        W10336  29.012  22.192   4.193
41864W        W10337   8.305  28.170   1.307
41865W        W10338  18.147  24.485  14.356
41866W        W10339  41.347  27.581   1.804
41867W        W10340  16.242  37.363  10.431
41868W        W10341  20.582  19.656   0.875
41869W        W10342   8.716  12.720   3.358
41870W        W10343   7.744  25.621   1.779
41871W        W10344  38.914  24.529  12.501
41872W        W10345  19.620  44.349   4.299
41873W        W10346  12.257   6.227   0.264
41874W        W10347   5.890   1.387   3.248
41875W        W10348  35.855   4.830   1.924
41876W        W10349  41.518  35.868  13.000
41877W        W10350  17.785   7.832  14.344
41878W        W10351   1.416  12.741   4.164
41879W        W10352  37.373  42.509  14.332
41880W        W10353  13.274   9.261  11.042
41881W        W10354  35.921  23.088   2.879
41882W        W10355  23.724  16.611   3.722
41883W        W10356  18.218  17.100   1.212
41884W        W10357   5.805   1.743  10.599
41885W        W10358   4.898   5.846  14.369
41886W        W10359  24.068  29.611  14.382
41887W        W10360   8.780  29.466   2.795
41888W        W10361  26.050   0.297  11.952
41889W        W10362  32.532  18.653   2.245
41890W        W10363   8.711  32.527  10.940
41891W        W10364   6.894   1.743   3.361
41892W        W10365  29.606  34.903   3.371
41893W        W10366  11.233  21.186  10.453
41894W        W10367  28.633  28.068   3.186
41895W        W10368  16.136   5.765   4.339
41896W        W10369  14.830  33.507  11.531
41897W        W10370  44.420  20.648   3.839
41898W        W10371  25.180   9.256  14.453
41899W        W10372  15.119  20.546   2.746
41900W        W10373   5.744   8.790   4.337
41901W        W10374  28.659  43.428   3.231
41902W        W10375  27.942  37.437  13.366
41903W        W10376  43.379   2.833   0.311
41904W        W10377   3.288  23.190   3.829
41905W        W10378  36.901  40.519  11.540
41906W        W10379  33.463   4.855   2.357
41907W        W10380  29.440  24.104   4.635
41908W        W10381  13.219   4.738   5.152
41909W        W10382  33.940  20.751  12.411
41910W        W10383  44.328   7.815   0.418
41911W        W10384  23.499  13.109   2.808
41912W        W10385  29.583  32.537   3.366
41913W        W10386  22.114   7.720   0.816
41914W        W10387  24.117  34.515  10.538
41915W        W10388  43.956  32.450  12.514
41916W        W10389  13.611  40.921   4.646
41917W        W10390  42.283  10.707   2.838
41918W        W10391  12.340  17.564   3.795
41919W        W10392   9.372   3.327  12.937
41920W        W10393  28.129  32.018  10.498
41921W        W10394  30.525   3.430   3.285
41922W        W10395  17.802  42.991   1.852
41923W        W10396  29.540  42.482  13.332
41924W        W10397   1.327  40.454   1.778
41925W        W10398   2.293  28.094   2.366
41926W        W10399   9.257  10.209  14.898
41927W        W10400  25.117   5.358   0.375
41928W        W10401   8.827  27.631  13.315
41929W        W10402  39.506  12.685   0.917
41930W        W10403  28.149  16.793  13.913
41931W        W10404  20.230  13.134   0.731
41932W        W10405  13.173  42.008   0.268
41933W        W10406  19.731   2.899  11.508
41934W        W10407  12.159   8.842   0.438
41935W        W10408  29.103  22.525  14.380
41936W        W10409   8.160  32.977   0.249
41937W        W10410  28.522  24.042  14.917
41938W        W10411  27.946  25.537   1.254
41939W        W10412  25.670  33.929  13.815
41940W        W10413  34.076  17.694  12.501
41941W        W10414  29.979  32.566  14.847
41942W        W10415  10.178  24.528  14.481
41943W        W10416  26.694  36.584   5.304
41944W        W10417  30.494  18.295  14.443
41945W        W10418  29.556  42.029  10.937
41946W        W10419   1.278  19.598   1.381
41947W        W10420  20.052  28.018   3.304
41948W        W10421  22.689   6.690   2.888
41949W        W10422  42.424  10.216   1.831
41950W        W10423  34.431  25.020   0.404
41951W        W10424   3.888  14.142   2.396
41952W        W10425  44.873  42.869  13.309
41953W        W10426  27.468  19.100  14.847
41954W        W10427  39.062  21.575  12.011
41955W        W10428   0.348  35.385  11.939
41956W        W10429  17.671   5.294  10.545
41957W        W10430  19.611   8.212   0.790
41958W        W10431  43.986  27.996  13.939
41959W        W10432  40.897  16.789  11.534
41960W        W10433  18.116  27.041  11.016
41961W        W10434  41.991   3.297  10.009
41962W        W10435   4.362  19.100   2.726
41963W        W10436  16.156   6.718   1.240
41964W        W10437  40.500   0.300   2.344
41965W        W10438  42.420  14.210  14.452
41966W        W10439  10.811  34.535   3.281
41967W        W10440  40.884  20.638  11.045
41968W        W10441  16.765  29.455  14.832
41969W        W10442  41.951   7.774  12.555
41970W        W10443  10.338  27.034  14.329
41971W        W10444  27.973  35.960   0.779
41972W        W10445   9.190  22.524   9.465
41973W        W10446   0.432   1.325   4.196
41974W        W10447  13.151  30.624   1.854
41975W        W10448   1.424  31.987   2.283
41976W        W10449   0.879  30.487   9.931
41977W        W10450   6.874   0.251   2.370
41978W        W10451   0.312  15.086   3.297
41979W        W10452  44.475  18.686   5.086
41980W        W10453   9.692  16.291   0.730
41981W        W10454  14.182  24.221   2.834
41982W        W10455  41.404  27.035   2.867
41983W        W10456  26.097   1.425   5.570
41984W        W10457  26.494  10.725  11.421
41985W        W10458  43.400  16.790  10.142
41986W        W10459  12.188  10.654   1.739
41987W        W10460  16.274  27.511  10.923
41988W        W10461  43.810  29.567   1.427
41989W        W10462  42.375  38.545  14.993
41990W        W10463  28.481  37.006  11.129
41991W        W10464  38.550   6.818   2.211
41992W        W10465  35.998  10.805   4.266
41993W        W10466  19.542  14.691  13.317
41994W        W10467   7.829  44.881  13.810
41995W        W10468   8.734   6.780   1.296
41996W        W10469   9.374  40.962  10.434
41997W        W10470  17.076  35.870   1.384
41998W        W10471  11.288  15.699  10.621
41999W        W10472  24.989   4.271   4.295
42000W        W10473  31.929  24.072   1.717
42001W        W10474  34.528  21.627   2.889
42002W        W10475   7.731  39.522   0.755
42003W        W10476  15.222  30.552  10.614
42004W        W10477  18.578  14.742   1.327
42005W        W10478  40.371  43.907   3.837
42006W        W10479  41.297  32.067   1.779
42007W        W10480  19.285   2.363   2.409
42008W        W10481   4.832  38.449   4.767
42009W        W10482  38.974  24.479  14.447
42010W        W10483  15.687  40.860   0.460
42011W        W10484  22.533  27.646   1.765
42012W        W10485   8.291   1.276  11.510
42013W        W10486  23.558  31.408  12.089
42014W        W10487   8.238   0.457  14.441
42015W        W10488  36.448  31.528  14.842
42016W        W10489   6.376  28.492  11.515
42017W        W10490  13.739  14.222   0.312
42018W        W10491  43.338  20.097  10.630
42019W        W10492   7.382  42.798   1.877
42020W        W10493   3.283   1.825  10.456
42021W        W10494  13.634  13.193   3.166
42022W        W10495  33.057  12.840   1.744
42023W        W10496  14.653  23.154   3.738
42024W        W10497  19.080  40.468   1.801
42025W        W10498  42.813  32.909  14.001
42026W        W10499  20.199  22.728   2.672
42027W        W10500  44.770  25.493  12.888
42028W        W10501  43.322  13.770   3.159
42029W        W10502  11.330  38.863   1.888
42030W        W10503  18.274  20.704  13.054
42031W        W10504  38.455  25.659   1.771
42032W        W10505  40.521  39.875   3.682
42033W        W10506   0.985  13.636   0.836
42034W        W10507   1.474  22.068  13.867
42035W        W10508  38.924  24.138  10.460
42036W        W10509  39.859  37.993   2.290
42037W        W10510  30.079  39.027  12.387
42038W        W10511  36.348  19.162   3.641
42039W        W10512  27.992  14.167  14.315
42040W        W10513  36.564  28.436  12.990
42041W        W10514  28.052  13.726   4.657
42042W        W10515  42.824  33.011   2.207
42043W        W10516  33.874  20.201  11.372
42044W        W10517  22.564   8.190   3.174
42045W        W10518  22.651  11.200   1.221
42046W        W10519   6.912  22.020   1.248
42047W        W10520  11.338   1.408   3.844
42048W        W10521  37.033  28.013  10.514
42049W        W10522   5.755  32.984   4.232
42050W        W10523  19.122  18.277   2.310
42051W        W10524  42.442  21.089  11.097
42052W        W10525  39.511   7.359  13.417
42053W        W10526  27.034  12.211   0.906
42054W        W10527  34.092  31.997   4.245
42055W        W10528  41.373  15.300   0.782
42056W        W10529  10.365  23.498   0.839
42057W        W10530  11.245  39.442  14.837
42058W        W10531   5.857   6.326  13.330
42059W        W10532   4.347  35.358   3.166
42060W        W10533  18.198  11.331  12.934
42061W        W10534  32.420  19.149   1.307
42062W        W10535  39.880  30.440  11.583
42063W        W10536  16.697   6.328   3.796
42064W        W10537  20.686  24.686  10.403
42065W        W10538  20.164  34.095   3.362
42066W        W10539  32.100  22.017  13.025
42067W        W10540  42.447  38.385   4.281
42068W        W10541  19.768  30.600  10.984
42069W        W10542  22.691  19.692   1.415
42070W        W10543  32.078   6.759  12.564
42071W        W10544  41.358  13.732  13.454
42072W        W10545   6.711  31.480  13.053
42073W        W10546  44.310  25.568   0.816
42074W        W10547   5.922  16.701   5.720
42075W        W10548  44.412  40.960   3.306
42076W        W10549  43.453  39.839  12.463
42077W        W10550  34.397   9.759  13.934
42078W        W10551  40.531   1.790   0.885
42079W        W10552  24.667  22.023   2.208
42080W        W10553   5.405  39.350   1.915
42081W        W10554  13.698   5.242  14.487
42082W        W10555  29.162   3.923   1.280
42083W        W10556  32.544  20.708  11.929
42084W        W10557  39.019  34.003  13.420
42085W        W10558   9.324  26.481   4.338
42086W        W10559  13.636   0.813  11.944
42087W        W10560  24.725  24.064   3.280
42088W        W10561   6.838  18.657  10.419
42089W        W10562  11.754  40.524   2.401
42090W        W10563   2.797  27.692  11.099
42091W        W10564  32.517  14.813   3.244
42092W        W10565  20.749  11.285   0.411
42093W        W10566   8.666  14.709  13.816
42094W        W10567  42.901  17.667  11.543
42095W        W10568   4.920  25.538  11.984
42096W        W10569   5.789  26.638  13.366
42097W        W10570  24.492  20.536   3.336
42098W        W10571  21.164   3.887   3.678
42099W        W10572  20.095  18.187   1.928
42100W        W10573  41.016   9.689   4.259
42101W        W10574  44.365  21.516   4.262
42102W        W10575  39.825  22.517   4.349
42103W        W10576  32.044  41.841   9.532
42104W        W10577   6.813  13.738  11.891
42105W        W10578  12.673  31.096   1.409
42106W        W10579   2.879  24.981   2.683
42107W        W10580  23.176  24.670  13.399
42108W        W10581  12.710  40.872  11.107
42109W        W10582  11.857  38.457   3.199
42110W        W10583   2.827   9.828  14.467
42111W        W10584  32.106   4.257  12.516
42112W        W10585   9.703   8.744   1.929
42113W        W10586  21.035  39.399   4.166
42114W        W10587  10.774   5.206  13.038
42115W        W10588  41.432  44.864   0.897
42116W        W10589  36.023  26.087  10.602
42117W        W10590   0.415  40.017   4.671
42118W        W10591   6.907  19.103  14.361
42119W        W10592  44.286  33.461   2.888
42120W        W10593  27.053  25.680   2.693
42121W        W10594   0.423   3.878  10.631
42122W        W10595  31.001   0.249   1.299
42123W        W10596  11.695  44.277   3.644
42124W        W10597  35.450  28.460  11.389
42125W        W10598   6.709  31.092   0.872
42126W        W10599  13.774  42.410  13.440
42127W        W10600  37.970  43.935  14.930
42128W        W10601  44.308  12.234   3.354
42129W        W10602  33.423  37.491  10.625
42130W        W10603  17.194  31.425  12.498
42131W        W10604  32.095  38.886   5.277
42132W        W10605  31.646  12.853   1.381
42133W        W10606  15.172  26.664   0.322
42134W        W10607   8.198   7.171   4.614
42135W        W10608  32.095  32.594  12.922
42136W        W10609  29.069  18.292   2.826
42137W        W10610  43.913  10.746   1.296
42138W        W10611  11.631   1.355   3.337
42139W        W10612  16.578  14.304   4.681
42140W        W10613  28.164   4.743  11.020
42141W        W10614  37.037   0.884  11.583
42142W        W10615  32.521  22.064   2.225
42143W        W10616   1.425  16.303  12.496
42144W        W10617  34.049   7.246  13.829
42145W        W10618  35.976   6.706  14.486
42146W        W10619  35.539  16.210  14.382
42147W        W10620   0.825  41.985   3.203
42148W        W10621  34.522   5.772  11.517
42149W        W10622  25.009  21.671  11.401
42150W        W10623  25.159  42.420   2.390
42151W        W10624   2.793  42.030  10.533
42152W        W10625  38.866  18.761   4.306
42153W        W10626   5.339  30.640   2.315
42154W        W10627  12.659  35.491  10.510
42155W        W10628  22.515  12.177  14.886
42156W        W10629   2.303  18.256   2.344
42157W        W10630  44.946  35.410  14.981
42158W        W10631  11.163   4.923   2.304
42159W        W10632  15.802  33.066   4.712
42160W        W10633   8.739  39.855  11.400
42161W        W10634   5.321  10.651  14.937
42162W        W10635  22.745  36.081  12.920
42163W        W10636  41.849  21.108   4.702
42164W        W10637   8.229  21.716   0.311
42165W        W10638  29.644  25.141  12.503
42166W        W10639  36.863  34.876   1.921
42167W        W10640  35.450   4.906   3.354
42168W        W10641  13.309  17.691  13.956
42169W        W10642  15.141  22.182   4.293
42170W        W10643   2.425  36.407  13.033
42171W        W10644  30.458  18.691   2.727
42172W        W10645  24.066  32.013   1.212
42173W        W10646   0.792  11.296   0.965
42174W        W10647   3.352  20.666   3.631
42175W        W10648  35.030   5.799   0.927
42176W        W10649   9.226  21.097  14.773
42177W        W10650   0.292  29.012  12.398
42178W        W10651  42.484  18.178   2.851
42179W        W10652  42.811  16.728   1.752
42180W        W10653  28.503  31.444   0.966
42181W        W10654  41.457  34.877  10.427
42182W        W10655   6.770  24.591   2.878
42183W        W10656   8.253  34.540   1.326
42184W        W10657  44.816  38.906  13.331
42185W        W10658  26.039  41.420  10.600
42186W        W10659  10.268  32.013   0.403
42187W        W10660  38.004  20.635   2.758
42188W        W10661   0.366  10.804  12.923
42189W        W10662  11.717  13.279  14.481
42190W        W10663  27.992  41.484  11.591
42191W        W10664  31.058  16.584  13.955
42192W        W10665  44.423  20.154   5.156
42193W        W10666  16.151  18.691   1.830
42194W        W10667  13.614   1.371   1.763
42195W        W10668  14.599  11.734  13.440
42196W        W10669  30.544   8.211  14.902
42197W        W10670  18.158  32.407  13.794
42198W        W10671  35.464  43.389   3.654
42199W        W10672   8.833  30.114  14.891
42200W        W10673   2.408   9.827   1.346
42201W        W10674   6.343   2.957   2.734
42202W        W10675  35.372  29.981   4.297
42203W        W10676  19.747   3.759   4.222
42204W        W10677  17.220  24.548   3.253
42205W        W10678   1.411  36.495   4.235
42206W        W10679  17.107  30.154  12.538
42207W        W10680   9.323  39.816   4.175
42208W        W10681  25.638   0.464  14.913
42209W        W10682   3.298  36.052  14.328
42210W        W10683  35.095  13.260  12.886
42211W        W10684  14.821  29.076  14.343
42212W        W10685   8.838  18.074  11.493
42213W        W10686  36.405  22.113   4.303
42214W        W10687  16.600  43.835   3.258
42215W        W10688  42.509  11.673  13.917
42216W        W10689   0.422  12.626  11.472
42217W        W10690  37.492  14.655  11.502
42218W        W10691  19.739  29.454   4.207
42219W        W10692  11.704  11.749   1.348
42220W        W10693  23.592  12.795   4.138
42221W        W10694   6.366  25.072   0.381
42222W        W10695  44.830   8.330   2.738
42223W        W10696  15.599  21.727   1.716
42224W        W10697   0.490  40.827  10.411
42225W        W10698  44.875   4.814   0.419
42226W        W10699  37.008  40.495  12.566
42227W        W10700  18.616  35.452  13.449
42228W        W10701  37.913  29.598   0.461
42229W        W10702  19.725  33.958   4.645
42230W        W10703  39.043  15.198  11.373
42231W        W10704  15.311  33.988  12.524
42232W        W10705   8.778  25.564  13.496
42233W        W10706  11.648  10.689  13.870
42234W        W10707  33.942  15.162   4.607
42235W        W10708   3.890   4.903   2.347
42236W        W10709  39.329  27.948  13.028
42237W        W10710  23.990  34.448  14.395
42238W        W10711  28.006  37.349   0.271
42239W        W10712  34.119  13.774   1.813
42240W        W10713  27.541   0.281  12.975
42241W        W10714  10.687  10.261  12.483
42242W        W10715  24.563  18.141  13.022
42243W        W10716  32.949  18.661   3.835
42244W        W10717  29.972   0.835   2.415
42245W        W10718  16.606  30.451  11.403
42246W        W10719  12.753  10.715  10.526
42247W        W10720  41.882   7.330  11.529
42248W        W10721   9.819   3.434   0.472
42249W        W10722  38.936  24.999  14.413
42250W        W10723  33.916  28.130  14.955
42251W        W10724  43.380   1.899   1.703
42252W        W10725  14.322  17.730  10.956
42253W        W10726  10.647   8.166  13.405
42254W        W10727   6.899  14.752  13.969
42255W        W10728  15.287  23.142  14.276
42256W        W10729  29.542  23.507   5.167
42257W        W10730  13.207  42.957   2.778
42258W        W10731  20.531  37.964   3.369
42259W        W10732  22.559  10.249  10.423
42260W        W10733  27.942   9.861   2.403
42261W        W10734  12.127  32.041  13.545
42262W        W10735  12.164  12.653   3.653
42263W        W10736   9.267  42.884   1.794
42264W        W10737   6.329  37.470  12.922
42265W        W10738   3.414  24.150  14.890
42266W        W10739   2.283  25.491   3.227
42267W        W10740  30.979  37.393  14.323
42268W        W10741  28.666   8.721   3.836
42269W        W10742  23.147  18.241  14.996
42270W        W10743  11.137  14.209  14.284
42271W        W10744  26.204  27.691   3.797
42272W        W10745  27.093  14.253   1.827
42273W        W10746   1.402  38.953   1.863
42274W        W10747  15.190  20.592   1.723
42275W        W10748  18.098  26.683  14.467
42276W        W10749  16.104  11.867  11.045
42277W        W10750  11.828  37.548  14.779
42278W        W10751  36.460  11.813   9.979
42279W        W10752  15.678   0.833  11.453
42280W        W10753  28.583   6.700   0.404
42281W        W10754  39.833   0.889   3.733
42282W        W10755  28.976  40.801  12.441
42283W        W10756  13.622  24.637   4.146
42284W        W10757  39.961  28.665  11.398
42285W        W10758   7.824  10.282  13.991
42286W        W10759  10.651  24.523  14.809
42287W        W10760  35.553  18.208   4.231
42288W        W10761  43.018  38.977  12.353
42289W        W10762  28.515   8.792  10.465
42290W        W10763  30.954  11.831   0.375
42291W        W10764  25.107   8.844  12.923
42292W        W10765  40.813   2.776  11.038
42293W        W10766   6.782  35.893   0.472
42294W        W10767  37.406  42.823   4.821
42295W        W10768  17.679  25.630   1.368
42296W        W10769  29.620  32.632  10.973
42297W        W10770   2.413  14.200  14.425
42298W        W10771   7.337  39.044   1.365
42299W        W10772  38.006   2.264   4.785
42300W        W10773  41.297  14.699  13.017
42301W        W10774  31.022  20.553   3.382
42302W        W10775  35.543  43.812  11.117
42303W        W10776  33.568   4.331  12.074
42304W        W10777  16.567  24.980  12.396
42305W        W10778  13.137  10.141  11.939
42306W        W10779  14.788  24.203   3.843
42307W        W10780  29.608  11.133  11.050
42308W        W10781  15.304  43.347   4.249
42309W        W10782  29.449  22.996  11.476
42310W        W10783   0.361  28.658   4.134
42311W        W10784  41.327  42.381   2.309
42312W        W10785  12.296  34.431  11.596
42313W        W10786  19.167  21.681   2.379
42314W        W10787  22.247  34.526  10.575
42315W        W10788  44.397  30.451  14.910
42316W        W10789  35.003  15.164  12.016
42317W        W10790  37.446   2.872   4.295
42318W        W10791  12.819  37.401  11.594
42319W        W10792  32.552  39.323   0.264
42320W        W10793  33.981  18.555   0.378
42321W        W10794  15.708  19.646  12.955
42322W        W10795  43.835  28.047   0.297
42323W        W10796   1.912  13.607  12.540
42324W        W10797  44.894  35.972   4.826
42325W        W10798  35.913  10.141  11.569
42326W        W10799  22.028  13.844  12.011
42327W        W10800  24.998  34.969   4.728
42328W        W10801  26.550  17.636  13.037
42329W        W10802  34.027  22.648   4.259
42330W        W10803  19.090  31.072  12.432
42331W        W10804  28.053  30.458   5.240
42332W        W10805  43.314  21.546   1.403
42333W        W10806  36.482  32.486  11.592
42334W        W10807  16.596   1.426   2.663
42335W        W10808   7.284  33.407  10.504
42336W        W10809  24.166  40.882  14.994
42337W        W10810   2.829  31.451  13.442
42338W        W10811  23.049   5.754   1.329
42339W        W10812  30.452  35.516  12.875
42340W        W10813  41.995   0.808   4.173
42341W        W10814  31.926  29.440   1.313
42342W        W10815  41.389  21.191   5.097
42343W        W10816  35.601   2.299  13.411
42344W        W10817  26.532  39.820   3.682
42345W        W10818   7.878   9.869   0.425
42346W        W10819  34.983  39.515   4.156
42347W        W10820  41.530  10.278  14.805
42348W        W10821  15.703  20.056  12.578
42349W        W10822  39.340  28.477  12.568
42350W        W10823  37.902  26.015  12.965
42351W        W10824  42.866  14.784  13.834
42352W        W10825  26.586   6.245  11.110
42353W        W10826  24.599  26.201  10.992
42354W        W10827  14.812  38.400  13.846
42355W        W10828  25.110  30.074   2.768
42356W        W10829  23.133  13.758  10.130
42357W        W10830  16.135  31.589   2.684
42358W        W10831  39.907   2.856  12.833
42359W        W10832  30.480  20.566   2.399
42360W        W10833  10.678  25.106   5.306
42361W        W10834   0.311  12.689  14.303
42362W        W10835   7.377  14.167  10.495
42363W        W10836  12.144  19.613  14.802
42364W        W10837  34.993  22.525   0.940
42365W        W10838  31.143  23.021   0.282
42366W        W10839  28.553  12.266   2.860
42367W        W10840  42.002  18.257  14.289
42368W        W10841   8.868  25.134  14.477
42369W        W10842  23.989  10.809  13.408
42370W        W10843   7.192  38.028  13.447
42371W        W10844  13.224  29.451  12.356
42372W        W10845  21.045  42.840  11.903
42373W        W10846  15.219  35.992  11.015
42374W        W10847  12.117  26.098  14.459
42375W        W10848  31.100  28.123  10.074
42376W        W10849   4.397   1.321  13.002
42377W        W10850  43.489  33.888   4.167
42378W        W10851  23.023  18.600  13.930
42379W        W10852   0.939  22.096   2.696
42380W        W10853  18.759  20.041   4.318
42381W        W10854  31.476  31.139   4.113
42382W        W10855  33.400  31.538   2.890
42383W        W10856  18.746  24.202   5.189
42384W        W10857  15.754  11.304  10.604
42385W        W10858   3.944   5.425   0.256
42386W        W10859  37.415  12.682   3.217
42387W        W10860   4.323  40.979  10.417
42388W        W10861  26.592  42.951   4.198
42389W        W10862   7.271  35.888   3.387
42390W        W10863  44.480  40.321   3.727
42391W        W10864   8.751  33.950   9.993
42392W        W10865  32.521  26.186  12.907
42393W        W10866   7.254  40.461  13.889
42394W        W10867   1.747  41.505   2.763
42395W        W10868  31.640  18.168   4.183
42396W        W10869  38.953  24.227   1.885
42397W        W10870  32.009  25.485   0.355
42398W        W10871  17.070  31.106  10.967
42399W        W10872  22.734   2.452   3.296
42400W        W10873  24.643  33.467  13.027
42401W        W10874  16.173   4.894  11.916
42402W        W10875  35.983  40.529  13.361
42403W        W10876  19.153  28.434   0.788
42404W        W10877  12.631  30.480   1.284
42405W        W10878   6.213  34.439   4.725
42406W        W10879  40.892  12.669   2.705
42407W        W10880  20.259  32.136   4.764
42408W        W10881  21.600   7.893  11.575
42409W        W10882  18.105  39.834   2.776
42410W        W10883   0.765  19.685   0.760
42411W        W10884  24.616  24.084   2.230
42412W        W10885  10.711  28.017  14.770
42413W        W10886  29.548  16.272  13.045
42414W        W10887  20.644  37.942  13.014
42415W        W10888  24.522   8.220  14.359
42416W        W10889  39.990   6.187  10.976
42417W        W10890  24.624  41.433   3.642
42418W        W10891   8.305  28.459   0.943
42419W        W10892   5.276  20.157  11.057
42420W        W10893   8.336   1.940  11.527
42421W        W10894  22.735  29.658  13.327
42422W        W10895  41.824  29.068  11.425
42423W        W10896   7.681   4.439  10.094
42424W        W10897  21.690  29.986  13.796
42425W        W10898  20.044  12.309  11.079
42426W        W10899  21.195  25.999   2.183
42427W        W10900  31.942   9.216   4.267
42428W        W10901   1.849   6.218   2.306
42429W        W10902  42.024  36.498   0.384
42430W        W10903  16.811  12.338   0.473
42431W        W10904  15.218  33.971   3.302
42432W        W10905  29.085  26.676   3.152
42433W        W10906  20.694  34.988  11.080
42434W        W10907  38.840  42.797   3.357
42435W        W10908  39.499  44.791  12.421
42436W        W10909  43.359  17.188  10.410
42437W        W10910  40.996   8.217  11.021
42438W        W10911  28.145  20.050  13.400
42439W        W10912  27.169  13.837  11.983
42440W        W10913   5.748  20.677  11.400
42441W        W10914  27.689  44.499   0.766
42442W        W10915  35.929  29.020  13.389
42443W        W10916   5.900   1.246   3.685
42444W        W10917  24.566   3.782   4.286
42445W        W10918  44.390   8.789  13.939
42446W        W10919   8.784  19.574  13.995
42447W        W10920  42.853  30.417   4.709
42448W        W10921  40.835  36.941  11.890
42449W        W10922  12.821  33.947  11.898
42450W        W10923  28.098   5.808   2.890
42451W        W10924  24.654  19.540  14.509
42452W        W10925   2.450  28.481   4.292
42453W        W10926  34.878  36.422   2.300
42454W        W10927  25.132  44.917   4.318
42455W        W10928  43.917  20.667   0.425
42456W        W10929  35.493  23.496  12.539
42457W        W10930  13.615  29.994  14.303
42458W        W10931  42.795  20.712   2.248
42459W        W10932  32.636  42.284   5.203
42460W        W10933  18.585  17.229   0.335
42461W        W10934   7.290  28.125  11.995
42462W        W10935  25.080  13.818  12.920
42463W        W10936  10.810   7.878  10.949
42464W        W10937  27.972  12.662   4.163
42465W        W10938   4.354  44.283  12.545
42466W        W10939   4.320  29.965  14.462
42467W        W10940  36.091   6.838  13.542
42468W        W10941  40.001  44.997  11.057
42469W        W10942  13.204   4.791   3.248
42470W        W10943  24.549  39.943  14.821
42471W        W10944  41.358  34.044   2.269
42472W        W10945   0.257  32.918  14.492
42473W        W10946   2.266  23.061   4.330
42474W        W10947  33.616  15.700  11.462
42475W        W10948   8.350  25.011   9.926
42476W        W10949  43.879  11.645  13.912
42477W        W10950   0.910  43.980   4.720
42478W        W10951   8.764   8.237   1.848
42479W        W10952  26.999  44.421   4.332
42480W        W10953  41.398  38.436  13.356
42481W        W10954  26.598  26.991  13.499
42482W        W10955   4.262  37.905  10.411
42483W        W10956   5.701  26.527  11.020
42484W        W10957  24.671  10.650  14.429
42485W        W10958  44.497   2.436  14.501
42486W        W10959  23.174   8.796   0.894
42487W        W10960   0.383  31.101   4.230
42488W        W10961   8.306   2.904   4.169
42489W        W10962   2.765  25.057   4.229
42490W        W10963  15.102  30.437  14.357
42491W        W10964  22.639   9.780  10.103
42492W        W10965  11.144   9.327  10.597
42493W        W10966  41.438  16.306  12.577
42494W        W10967   6.793  10.150   1.852
42495W        W10968   8.767   8.679  13.867
42496W        W10969  24.209  15.084   4.280
42497W        W10970   7.390  31.532  11.889
42498W        W10971  20.124  20.758  11.083
42499W        W10972  17.164  41.470  14.293
42500W        W10973  42.921   2.736  13.333
42501W        W10974  38.950  25.191  11.561
42502W        W10975  17.144  34.562  12.354
42503W        W10976  26.581  29.526   5.256
42504W        W10977  35.490   5.406  14.425
42505W        W10978   3.790  35.967  13.839
42506W        W10979  41.309  44.953   1.244
42507W        W10980  21.065  12.853   1.926
42508W        W10981  17.649   5.743   0.302
42509W        W10982   9.664   2.340   4.268
42510W        W10983  13.151  40.427   4.177
42511W        W10984  39.449  14.258  12.473
42512W        W10985  15.742  29.134   1.816
42513W        W10986   1.933  44.937  11.425
42514W        W10987  43.801  16.763  14.857
42515W        W10988  22.509  40.462  12.889
42516W        W10989  35.427  39.989  12.904
42517W        W10990   6.337  44.951   0.257
42518W        W10991  25.209   2.466   2.871
42519W        W10992  43.438  41.303  11.904
42520W        W10993  27.625  30.038  13.851
42521W        W10994  21.534  16.085   0.366
42522W        W10995  41.925   2.289   4.697
42523W        W10996  27.055  11.172  14.283
42524W        W10997   3.799   3.717   3.753
42525W        W10998  19.275  40.861  12.979
42526W        W10999   2.775  27.075  13.376
42527W        W11000  35.947  17.595   1.355
42528W        W11001  11.215   5.829   0.852
42529W        W11002  41.002  32.404  13.319
42530W        W11003  15.600   5.385  13.852
42531W        W11004  42.357  32.510   4.232
42532W        W11005  12.168   9.873  11.056
42533W        W11006  27.949  22.082   1.806
42534W        W11007  31.442  42.025  14.408
42535W        W11008   6.363   2.786   4.805
42536W        W11009  11.625  40.994  13.344
42537W        W11010  29.058   6.423  11.407
42538W        W11011  18.567   7.232   0.748
42539W        W11012  21.203  14.742   3.305
42540W        W11013  13.746  18.774   3.359
42541W        W11014  10.811  38.956   3.798
42542W        W11015  32.017   4.913   4.606
42543W        W11016  44.985  43.275   2.414
42544W        W11017  43.969  35.584   0.434
42545W        W11018  21.219  36.059  11.998
42546W        W11019   5.210  30.445  13.834
42547W        W11020   1.389  13.755  10.501
42548W        W11021  24.526  27.546  11.999
42549W        W11022  32.947  23.553   2.299
42550W        W11023   0.466  34.906  12.944
42551W        W11024  36.929  31.899  14.992
42552W        W11025   2.912  15.218   1.351
42553W        W11026   8.253   3.757   2.279
42554W        W11027  21.102  37.889   3.663
42555W        W11028  15.307   1.294   0.451
42556W        W11029  11.227   1.781   4.750
42557W        W11030  41.019  13.122  14.320
42558W        W11031  44.313  16.264   2.202
42559W        W11032   6.311  20.108   3.226
42560W        W11033  35.450  25.510   2.181
42561W        W11034  10.705  38.059   2.188
42562W        W11035   2.258  44.481  12.989
42563W        W11036  12.631  35.882   3.845
42564W        W11037  29.459  30.122   4.716
42565W        W11038  36.508  37.339  10.083
42566W        W11039   1.398  38.534   2.796
42567W        W11040   3.259  34.976  14.012
42568W        W11041  38.554  19.176   3.242
42569W        W11042  22.738  36.939   4.119
42570W        W11043  18.210   8.285  12.422
42571W        W11044  32.477   7.356   0.343
42572W        W11045   4.256  29.444  14.393
42573W        W11046   7.772  33.118   0.935
42574W        W11047  44.288  20.133   1.815
42575W        W11048   8.845  16.642  10.963
42576W        W11049  42.386   4.834   2.402
42577W        W11050  21.595   5.789   3.641
42578W        W11051   9.246  30.468  12.356
42579W        W11052   0.911  25.213  12.964
42580W        W11053  25.986  38.852  13.913
42581W        W11054   8.298  16.268   4.728
42582W        W11055  36.941  14.108  13.964
42583W        W11056  29.046   0.282  11.478
42584W        W11057  21.248  14.180   4.241
42585W        W11058  21.203  43.794   1.920
42586W        W11059   1.872  28.469  11.482
42587W        W11060  38.900  39.548   1.826
42588W        W11061   1.749   4.310  14.969
42589W        W11062   4.846  43.436   4.635
42590W        W11063  16.266  26.122  13.985
42591W        W11064  32.397  33.564   2.883
42592W        W11065   5.891  17.249  14.836
42593W        W11066  12.744   1.302   3.387
42594W        W11067  20.032  37.337   0.793
42595W        W11068  30.927   4.887   3.148
42596W        W11069  30.606   2.777   0.862
42597W        W11070  13.727  34.117   1.217
42598W        W11071  11.653   5.724   4.682
42599W        W11072  40.987  34.025   1.835
42600W        W11073  40.453   4.311   3.314
42601W        W11074  41.894  28.977   0.467
42602W        W11075   8.895  12.290  14.440
42603W        W11076  44.794  23.608   0.291
42604W        W11077  24.588  14.627  13.433
42605W        W11078   1.796  44.004  11.512
42606W        W11079  19.170  36.443  12.958
42607W        W11080  43.779  23.217   4.815
42608W        W11081  23.016  22.710  10.434
42609W        W11082  14.695  24.978   3.306
42610W        W11083   7.684  23.120  13.326
42611W        W11084  30.484  23.674   5.161
42612W        W11085   9.809  28.485   3.764
42613W        W11086   3.854  43.469  11.999
42614W        W11087   5.716  32.051   2.672
42615W        W11088  40.444  17.189   4.639
42616W        W11089  16.720   8.364   3.373
42617W        W11090  38.495   5.719  11.005
42618W        W11091  30.520  12.241  11.122
42619W        W11092  27.185   3.218   3.338
42620W        W11093  22.014  21.525  13.514
42621W        W11094  44.834  12.661   4.324
42622W        W11095  38.967   2.276   2.677
42623W        W11096  23.632  29.135   4.195
42624W        W11097  13.669  40.826   0.324
42625W        W11098  40.516  20.237   1.931
42626W        W11099  36.458   6.255   3.840
42627W        W11100  27.175  22.143  10.505
42628W        W11101  25.486  38.478   0.937
42629W        W11102   1.427  26.696   1.338
42630W        W11103  34.482   5.384   1.419
42631W        W11104  39.411   4.318  12.445
42632W        W11105  43.484  23.191   4.133
42633W        W11106  32.513  35.876   5.084
42634W        W11107   4.249   0.414   0.337
42635W        W11108  18.213  23.998  14.361
42636W        W11109  20.625  11.319  12.834
42637W        W11110  33.124  40.457   3.703
42638W        W11111  34.586   7.222  14.501
42639W        W11112  36.582  26.089   1.772
42640W        W11113  10.767   7.200   1.292
42641W        W11114   9.177  40.992   0.857
42642W        W11115  37.512  22.025  13.824
42643W        W11116  20.119  34.416  14.512
42644W        W11117  14.213  40.323   2.178
42645W        W11118  14.781  31.962   4.296
42646W        W11119  33.503   6.775  12.424
42647W        W11120  22.521  34.604   2.751
42648W        W11121  18.739  42.961   1.713
42649W        W11122  42.491   0.379   4.221
42650W        W11123  20.655  12.139  13.444
42651W        W11124  22.504  32.455  11.871
42652W        W11125  41.308  44.942   2.265
42653W        W11126  31.115  35.964   3.358
42654W        W11127  20.736  36.086  11.551
42655W        W11128  22.064  10.250  11.583
42656W        W11129  36.570  25.039   0.388
42657W        W11130  29.599  42.939   5.155
42658W        W11131  31.098   9.799  11.427
42659W        W11132  39.873  33.597   3.327
42660W        W11133  14.118  36.070  11.951
42661W        W11134  32.918   5.322   3.251
42662W        W11135  39.879  31.414  10.640
42663W        W11136  12.683  33.554  13.542
42664W        W11137   0.769  33.117  11.514
42665W        W11138  26.665  41.538   1.778
42666W        W11139  36.450  24.632   2.836
42667W        W11140  35.389  17.729  14.016
42668W        W11141  19.175  27.043   1.854
42669W        W11142  35.983  12.798  13.870
42670W        W11143   3.829  15.184   5.651
42671W        W11144  21.262  18.639   1.852
42672W        W11145  31.954  18.551   3.271
42673W        W11146  28.145  35.457  10.533
42674W        W11147  24.565  21.234   3.827
42675W        W11148  27.572  24.576   4.775
42676W        W11149  17.072  16.664  10.597
42677W        W11150  13.793  13.817   4.721
42678W        W11151  25.192  29.481   2.808
42679W        W11152  21.159  17.757   4.629
42680W        W11153  41.463   0.345  14.444
42681W        W11154   0.930  18.261  14.980
42682W        W11155  35.428  42.816   2.775
42683W        W11156  24.481  18.188  13.414
42684W        W11157  30.574  13.140   3.816
42685W        W11158   4.862  41.923  10.106
42686W        W11159  41.364  20.028  12.435
42687W        W11160   8.237  14.315   1.899
42688W        W11161  40.358  36.546   4.308
42689W        W11162  38.985  10.267  11.985
42690W        W11163   5.207   2.949   4.288
42691W        W11164  10.202   2.925  14.321
42692W        W11165   4.802   5.861  10.496
42693W        W11166  29.648  27.602   3.836
42694W        W11167  33.421  34.889   5.254
42695W        W11168   3.404  25.475   5.202
42696W        W11169  33.427  33.588   4.329
42697W        W11170   8.772   7.322  13.482
42698W        W11171  21.096   5.934  14.455
42699W        W11172  28.566   6.781   2.333
42700W        W11173  40.528  32.130  12.051
42701W        W11174  40.881  10.233  11.954
42702W        W11175  26.959  28.173  12.386
42703W        W11176   8.219  35.050   2.858
42704W        W11177  33.440   2.470   3.188
42705W        W11178  40.030  41.434  12.529
42706W        W11179  12.355  25.620   0.760
42707W        W11180   3.348  24.110  13.929
42708W        W11181  22.159  13.734   2.274
42709W        W11182   2.272   3.743  11.067
42710W        W11183   0.334  41.804   3.387
42711W        W11184  35.086  43.900  14.460
42712W        W11185  25.161  43.774   4.690
42713W        W11186  25.141  29.989  14.855
42714W        W11187   3.276   5.206   2.286
42715W        W11188  42.374  23.004  14.438
42716W        W11189   3.279  16.732  12.361
42717W        W11190  34.481  16.081   1.440
42718W        W11191  12.212  31.438  10.415
42719W        W11192   2.398  16.139   0.824
42720W        W11193  38.043  19.278  11.038
42721W        W11194  28.608   3.220   3.288
42722W        W11195  33.115  24.129   5.580
42723W        W11196  38.468   1.305   0.480
42724W        W11197  26.066   8.695   4.751
42725W        W11198  36.585   7.790  14.512
42726W        W11199  32.036  37.835  13.958
42727W        W11200  13.145  38.052  14.767
42728W        W11201   0.934  38.382  14.315
42729W        W11202  18.755  35.398   0.738
42730W        W11203  25.542  16.684   0.320
42731W        W11204  44.335  15.644  12.955
42732W        W11205  23.732  15.104  11.864
42733W        W11206   8.204  18.775  10.587
42734W        W11207  38.396  38.072   0.877
42735W        W11208  38.859  21.718  11.553
42736W        W11209   0.464  13.175  11.612
42737W        W11210  34.494  33.041   3.812
42738W        W11211  11.161  40.969  10.554
42739W        W11212  42.023  23.128   4.713
42740W        W11213   1.734  39.045  13.906
42741W        W11214  35.577  10.147  13.996
42742W        W11215  21.040  28.142   4.651
42743W        W11216  13.688  31.542   1.701
42744W        W11217  34.881  33.015   4.152
42745W        W11218  30.507  38.958   2.686
42746W        W11219  41.898  27.979  11.104
42747W        W11220  41.013  14.123   4.220
42748W        W11221  16.235  30.057  11.075
42749W        W11222  31.413  25.599   2.331
42750W        W11223   8.318  33.569  10.515
42751W        W11224  20.118  36.070   5.231
42752W        W11225  38.947  10.858  10.445
42753W        W11226  32.958  41.469   4.703
42754W        W11227  11.175   3.716   0.962
42755W        W11228   0.368   7.301   3.856
42756W        W11229  27.532  36.988  11.440
42757W        W11230  17.705  27.638   1.720
42758W        W11231  19.212   2.846   3.662
42759W        W11232   1.939  29.162   0.398
42760W        W11233  21.204   5.324  14.295
42761W        W11234  40.920  19.603   4.682
42762W        W11235   2.855   7.799   4.779
42763W        W11236  37.522  25.008  12.832
42764W        W11237   2.805   7.693  14.937
42765W        W11238  42.777  42.292   3.266
42766W        W11239   3.931  11.288   0.876
42767W        W11240   2.955  28.079   1.930
42768W        W11241  23.010  10.300  13.837
42769W        W11242  18.771  11.777   4.666
42770W        W11243  26.057  15.286   0.432
42771W        W11244  42.387  28.600   3.195
42772W        W11245   3.419  36.463  12.445
42773W        W11246   1.932   8.162   2.344
42774W        W11247  21.242  26.057   3.359
42775W        W11248   1.737   4.834   0.793
42776W        W11249  29.933  16.261   1.231
42777W        W11250  16.681  12.294  14.791
42778W        W11251  32.520   4.408  13.326
42779W        W11252   0.391  31.902  14.931
42780W        W11253  24.532  26.038   0.270
42781W        W11254  10.341  25.516   0.477
42782W        W11255   7.292  16.193  11.525
42783W        W11256   5.319  41.789   4.209
42784W        W11257  40.451  28.486   2.195
42785W        W11258  26.167  13.266   3.337
42786W        W11259   6.244  35.002  12.066
42787W        W11260  30.931  32.959  11.872
42788W        W11261  21.254  14.108  13.317
42789W        W11262  34.994  39.819  14.814
42790W        W11263  12.667  33.912   2.284
42791W        W11264  33.551  43.931  12.529
42792W        W11265   2.457  28.179  11.447
42793W        W11266  14.226  12.751   1.240
42794W        W11267   5.422  24.599  12.904
42795W        W11268  15.724  39.374   3.698
42796W        W11269  18.296  44.276   0.791
42797W        W11270   5.737  36.900   1.769
42798W        W11271  41.533  39.874  11.934
42799W        W11272  22.074  18.756   4.130
42800W        W11273  10.146  39.332   3.701
42801W        W11274   0.805  24.068   5.287
42802W        W11275  44.452  41.977  11.109
42803W        W11276  24.045  33.032   0.281
42804W        W11277  24.683   0.365  11.586
42805W        W11278  37.030  27.031  11.079
42806W        W11279   9.355  27.189  14.303
42807W        W11280  34.530  26.011  14.384
42808W        W11281  39.976  15.217  10.439
42809W        W11282  30.927  43.913   3.862
42810W        W11283  42.811  10.281  11.467
42811W        W11284  21.098  21.568  10.487
42812W        W11285   8.862  14.596  12.988
42813W        W11286   9.848  15.094   2.880
42814W        W11287  15.261  36.908  12.438
42815W        W11288   1.253  37.033  11.502
42816W        W11289  15.135   3.395   4.685
42817W        W11290  24.650  30.119  13.803
42818W        W11291  26.467  20.753  13.438
42819W        W11292  38.445  21.176  12.389
42820W        W11293  12.776   6.196   4.758
42821W        W11294  43.378  32.586  12.998
42822W        W11295  38.568   7.712  13.903
42823W        W11296  26.005  12.685  12.060
42824W        W11297  15.178  35.517  13.995
42825W        W11298  12.693  25.587  14.986
42826W        W11299  12.133   4.411  14.811
42827W        W11300  15.295  31.593  10.417
42828W        W11301  15.743  14.291  10.563
42829W        W11302  41.829  37.430  11.035
42830W        W11303  29.491  30.947   0.958
42831W        W11304  33.478  18.674  12.488
42832W        W11305  37.530  11.280  12.873
42833W        W11306  30.125  18.759   0.814
42834W        W11307  11.339   8.326   3.365
42835W        W11308  43.498  21.746  10.450
42836W        W11309  43.289  25.599   2.282
42837W        W11310  18.054  18.686  13.496
42838W        W11311  16.181   3.261  10.502
42839W        W11312  23.039  15.755  13.374
42840W        W11313   3.252  11.164  12.558
42841W        W11314  29.996  33.592  10.537
42842W        W11315   8.286  30.051  11.944
42843W        W11316  22.562  41.308  14.506
42844W        W11317   9.303  26.111  13.320
42845W        W11318   7.386  39.327   1.863
42846W        W11319  26.495  43.850  10.529
42847W        W11320  10.726  11.352  13.445
42848W        W11321   8.712  14.770  10.916
42849W        W11322   6.360  42.032   2.850
42850W        W11323  21.056  11.856   0.870
42851W        W11324   8.741   6.804  13.949
42852W        W11325   0.783  12.252  12.546
42853W        W11326  26.091  32.035  10.593
42854W        W11327   3.382   8.291   1.407
42855W        W11328  35.446  35.567  14.364
42856W        W11329  15.263  13.779  14.348
42857W        W11330  23.085  25.609   0.400
42858W        W11331  35.519  37.403  13.827
42859W        W11332   9.694  24.124  14.285
42860W        W11333  17.134  12.724   5.240
42861W        W11334  20.116  29.456   1.893
42862W        W11335  32.464  16.778  10.493
42863W        W11336  35.892  18.063  14.391
42864W        W11337  11.180  20.214  13.347
42865W        W11338  44.374  40.429   0.960
42866W        W11339   3.460   4.436   4.332
42867W        W11340  13.800   3.269   3.783
42868W        W11341  21.736  16.732  10.525
42869W        W11342  10.636  40.323   4.619
42870W        W11343  18.246   7.772   1.237
42871W        W11344  36.063  30.106  14.761
42872W        W11345   4.366  25.182  12.347
42873W        W11346  27.038  24.668  10.977
42874W        W11347  38.419  22.611   0.904
42875W        W11348  22.174  27.038  14.031
42876W        W11349  40.921   4.415  10.420
42877W        W11350  40.881  19.081   2.213
42878W        W11351  28.640  44.267  10.588
42879W        W11352  24.985   3.874   5.136
42880W        W11353   5.726  20.037  11.592
42881W        W11354  16.131  28.088   3.784
42882W        W11355   0.283  26.624   1.317
42883W        W11356   6.401   6.694  12.359
42884W        W11357   2.457   9.296   4.297
42885W        W11358  32.114  14.101  12.885
42886W        W11359  26.144   3.835   2.286
42887W        W11360  40.433  39.052  14.415
42888W        W11361   2.278  37.532  13.832
42889W        W11362  28.005  21.130  11.507
42890W        W11363  37.562   2.857  12.982
42891W        W11364  13.150  16.184   3.330
42892W        W11365   6.755   1.440  13.351
42893W        W11366  20.694  27.579   3.716
42894W        W11367  28.633  26.111   0.735
42895W        W11368  16.628   7.339  11.856
42896W        W11369   5.912  22.705  13.892
42897W        W11370   0.353   9.836   3.796
42898W        W11371  27.671  10.707  12.887
42899W        W11372  18.604   9.887   1.698
42900W        W11373  27.000  20.142  14.854
42901W        W11374  20.592  27.051  14.766
42902W        W11375  34.434  23.529   0.419
42903W        W11376  40.984  32.096  14.807
42904W        W11377   2.229  30.440   0.838
42905W        W11378  14.791  30.516   2.375
42906W        W11379  43.463  38.453   4.722
42907W        W11380  28.979  14.114   0.474
42908W        W11381   7.758  10.321   2.683
42909W        W11382  37.985  23.105   3.372
42910W        W11383  35.432  20.536   3.807
42911W        W11384   2.838  23.559   3.741
42912W        W11385  35.880  19.041  11.876
42913W        W11386  41.447  35.468  10.476
42914W        W11387  32.465  10.759   1.768
42915W        W11388   6.733  12.620   3.793
42916W        W11389   8.712  40.455  12.408
42917W        W11390  23.650   2.815   4.733
42918W        W11391  28.955  15.191  13.869
42919W        W11392   0.465  19.569  11.426
42920W        W11393  31.982  34.085  13.925
42921W        W11394  13.764  28.151  11.070
42922W        W11395  13.804  31.919  12.421
42923W        W11396   4.845  18.245   4.338
42924W        W11397  20.078  26.653   4.290
42925W        W11398  27.516  36.497  14.366
42926W        W11399   1.373  16.811  11.533
42927W        W11400   1.319   0.794   2.205
42928W        W11401  16.294   7.889   4.674
42929W        W11402  35.384  12.130  13.518
42930W        W11403  13.816  26.575  13.449
42931W        W11404  36.474  17.640  13.317
42932W        W11405  22.710  13.341  12.500
42933W        W11406  34.561  23.636  11.378
42934W        W11407  13.749   2.227  14.338
42935W        W11408  11.188  42.931   2.260
42936W        W11409   3.715  16.191   1.886
42937W        W11410  18.599  12.291   0.448
42938W        W11411  43.286  30.474  13.047
42939W        W11412  34.493  36.873  11.038
42940W        W11413  21.620  33.979  14.960
42941W        W11414   7.396  34.553   5.109
42942W        W11415   6.767  25.608  13.423
42943W        W11416  37.435  24.564   2.698
42944W        W11417   3.362   5.813  14.949
42945W        W11418   8.387  28.555  13.805
42946W        W11419  31.408  11.161  14.334
42947W        W11420  23.186   3.759   1.933
42948W        W11421  32.940  44.959  14.803
42949W        W11422  18.659  41.017   2.823
42950W        W11423  20.641  15.115  10.623
42951W        W11424  26.116   1.258  10.470
42952W        W11425   1.867  34.526  13.899
42953W        W11426   4.386   5.201   3.370
42954W        W11427  41.401   1.445  14.932
42955W        W11428  26.017  25.651  10.995
42956W        W11429  27.503   3.430  10.530
42957W        W11430  24.201  42.472  10.642
42958W        W11431  27.530  39.949   1.442
42959W        W11432   4.416  37.939   2.260
42960W        W11433  15.693   4.819   0.442
42961W        W11434  44.324  43.389  11.952
42962W        W11435  21.520   5.904  10.622
42963W        W11436   9.332  32.533  12.385
42964W        W11437  30.959   7.324  11.028
42965W        W11438  33.615  38.972   5.248
42966W        W11439   8.726  37.938   0.771
42967W        W11440  24.686  21.225   3.260
42968W        W11441  41.380  16.229   4.603
42969W        W11442  29.054  16.759  11.375
42970W        W11443   4.753  37.916   2.853
42971W        W11444  37.452  14.697   0.900
42972W        W11445  11.673   1.744  14.920
42973W        W11446  22.997  30.563  13.969
42974W        W11447  11.746  38.529   0.872
42975W        W11448  40.400  14.725   3.205
42976W        W11449  31.143   7.251   3.752
42977W        W11450   0.968  18.653   1.726
42978W        W11451  16.703   2.291  14.794
42979W        W11452   9.227   9.293   3.323
42980W        W11453  30.140  32.001  13.371
42981W        W11454   8.739  31.978   0.396
42982W        W11455  10.257  27.108   4.350
42983W        W11456  24.529  35.938   1.899
42984W        W11457  26.495   6.367  13.965
42985W        W11458   8.717   0.491  13.507
42986W        W11459   9.159  29.101   1.904
42987W        W11460   0.839  12.199  10.580
42988W        W11461  41.307  31.109  12.580
42989W        W11462   7.799  11.745  13.347
42990W        W11463  22.723  32.393  14.027
42991W        W11464   2.782  14.111  11.376
42992W        W11465  19.166  24.143   3.386
42993W        W11466  20.171  42.372  13.321
42994W        W11467  20.653  26.128   0.900
42995W        W11468  32.901  37.843   0.268
42996W        W11469  21.594   2.957  13.969
42997W        W11470  32.120  13.244  14.393
42998W        W11471   1.814   0.362  14.770
42999W        W11472   8.202  23.686  13.401
43000W        W11473  11.824   7.880   1.761
43001W        W11474   5.439  20.075  12.977
43002W        W11475   3.937  21.550   2.671
43003W        W11476  30.583   5.841   4.283
43004W        W11477   0.809   5.736   1.420
43005W        W11478  43.440  32.406  11.522
43006W        W11479  41.939   8.363   4.168
43007W        W11480  10.767   2.435  14.918
43008W        W11481   4.742  10.871   1.754
43009W        W11482  25.643  14.292   1.791
43010W        W11483  15.099   2.424   4.777
43011W        W11484  39.387  22.615  12.363
43012W        W11485  16.811   4.784  14.512
43013W        W11486   7.808  12.825   4.832
43014W        W11487  10.810  24.075   1.904
43015W        W11488   5.796  21.605   3.377
43016W        W11489  16.631   8.807  11.495
43017W        W11490  39.455  39.975   0.282
43018W        W11491  10.358  17.164   0.465
43019W        W11492   0.434  36.901  10.526
43020W        W11493  32.143   0.290  11.425
43021W        W11494  34.866  26.631   1.769
43022W        W11495  28.078  11.724  12.022
43023W        W11496   3.910  41.923   2.408
43024W        W11497  26.109  33.380   1.889
43025W        W11498   2.945  25.682  12.833
43026W        W11499   0.365  32.142  12.010
43027W        W11500   3.855   5.413   1.451
43028W        W11501  43.482  20.638   2.397
43029W        W11502  30.021  12.841  13.941
43030W        W11503  10.703  30.054  14.463
43031W        W11504  17.183  14.336  14.866
43032W        W11505  36.429   2.228   0.828
43033W        W11506   8.366  21.228   4.673
43034W        W11507   5.285   3.229   0.920
43035W        W11508  22.245  36.860  11.993
43036W        W11509  34.915  43.018  10.158
43037W        W11510  36.039  20.085  13.423
43038W        W11511  33.534  33.040  14.990
43039W        W11512  32.524   5.830  11.400
43040W        W11513  21.154  12.672  13.007
43041W        W11514  37.343  39.829   1.715
43042W        W11515  31.552  10.223   0.422
43043W        W11516  26.125   0.912   0.386
43044W        W11517  24.010  30.957   0.829
43045W        W11518  12.144  27.008  12.380
43046W        W11519  36.092   9.791   2.721
43047W        W11520  18.790  19.189   2.898
43048W        W11521  34.057  18.708   3.232
43049W        W11522   3.826   4.259  13.857
43050W        W11523  17.579  31.611   1.255
43051W        W11524   3.214  44.814  11.609
43052W        W11525  15.624  10.698  11.384
43053W        W11526  21.123   5.314   1.391
43054W        W11527  27.491   3.266   3.334
43055W        W11528   5.335  20.530  12.539
43056W        W11529   2.816  26.021  13.406
43057W        W11530   8.878  44.330  12.025
43058W        W11531   5.271  38.959  11.563
43059W        W11532  43.846  39.980   0.820
43060W        W11533  37.415  44.419   2.695
43061W        W11534   5.349   2.460  10.451
43062W        W11535  24.009  11.841  14.360
43063W        W11536  35.464  37.943   0.291
43064W        W11537   4.353  31.945   4.138
43065W        W11538  31.921  18.057   0.407
43066W        W11539  23.662  25.576   3.860
43067W        W11540  13.157  11.363   4.212
43068W        W11541  22.503  15.107  14.851
43069W        W11542  18.620  34.485   0.900
43070W        W11543  13.740  17.746  13.431
43071W        W11544  31.532  38.002  12.861
43072W        W11545  10.289   4.791  12.960
43073W        W11546   1.472  30.082  13.479
43074W        W11547  14.133  39.508  14.800
43075W        W11548   6.689  34.047  14.893
43076W        W11549  42.028   1.455  10.600
43077W        W11550  17.200  37.982  12.064
43078W        W11551  39.560  27.043   4.163
43079W        W11552  27.644  22.121  11.588
43080W        W11553  43.318  40.513   2.368
43081W        W11554  25.485   9.238   0.738
43082W        W11555  17.766  43.343  14.316
43083W        W11556  18.147  22.554  11.426
43084W        W11557  13.198  24.039   2.307
43085W        W11558  29.547   7.281  12.572
43086W        W11559  10.276  32.447  13.913
43087W        W11560  19.541  32.472  10.972
43088W        W11561  22.188  29.100   0.346
43089W        W11562  19.728  25.057  11.609
43090W        W11563  21.248  18.581   2.183
43091W        W11564   2.772   3.753  13.831
43092W        W11565  19.242  28.158  13.823
43093W        W11566  32.425   6.349  10.557
43094W        W11567  31.979  26.111   1.409
43095W        W11568  22.043  39.961  10.969
43096W        W11569   3.460  28.671  13.850
43097W        W11570  40.407  38.550   3.818
43098W        W11571  14.641  25.083  10.916
43099W        W11572   9.851  35.991   4.129
43100W        W11573   3.245  28.165   4.325
43101W        W11574  33.609  16.260   2.878
43102W        W11575  10.316  10.836   4.207
43103W        W11576   6.872  14.263  13.898
43104W        W11577  19.233  15.218  12.887
43105W        W11578  19.179  22.016  10.972
43106W        W11579  26.073  14.184  12.428
43107W        W11580  17.249  42.508   0.890
43108W        W11581  21.656  35.427   1.235
43109W        W11582   4.255   7.277  10.455
43110W        W11583   1.321   5.864  14.781
43111W        W11584  37.547  13.721   3.705
43112W        W11585  25.980  12.294   0.322
43113W        W11586  19.075   6.710  12.827
43114W        W11587  38.508   0.335  12.062
43115W        W11588   9.383  32.974   1.881
43116W        W11589  23.543   6.409  11.056
43117W        W11590  14.826  26.702   4.779
43118W        W11591  43.002  36.511   4.608
43119W        W11592   4.896   6.299  12.406
43120W        W11593   5.869  37.988   0.351
43121W        W11594  10.853  23.588  14.491
43122W        W11595  15.652   4.726   2.365
43123W        W11596  12.293  40.926  13.372
43124W        W11597  36.872  19.703   1.821
43125W        W11598   2.839  10.342   2.778
43126W        W11599  35.108  18.268   0.804
43127W        W11600  40.947  21.683  11.008
43128W        W11601  30.042  12.840   2.410
43129W        W11602   2.228   6.202  14.974
43130W        W11603  27.033  23.069   3.217
43131W        W11604  41.821  10.858   0.439
43132W        W11605   4.235  24.664   0.829
43133W        W11606  29.647  32.029  12.910
43134W        W11607  38.458  20.675  13.532
43135W        W11608  23.668   6.417  13.859
43136W        W11609  23.028  15.322  11.460
43137W        W11610  16.086   7.397  12.942
43138W        W11611   3.787  11.365   1.741
43139W        W11612  26.609   3.262  10.513
43140W        W11613  19.133  39.892  13.969
43141W        W11614  24.676  26.077   3.152
43142W        W11615  44.948  10.382   2.413
43143W        W11616   3.380  12.624   0.840
43144W        W11617  23.518  36.362  10.949
43145W        W11618  11.769  10.368   4.760
43146W        W11619  14.690  35.093  11.964
43147W        W11620   1.363  28.558   2.263
43148W        W11621   1.244  42.979  13.523
43149W        W11622  16.716  26.140  10.630
43150W        W11623  31.051  22.230  11.089
43151W        W11624  16.791  18.759   0.434
43152W        W11625  24.224  36.388  14.002
43153W        W11626  43.932  24.125  13.407
43154W        W11627  12.195  16.091  10.510
43155W        W11628   1.440  19.612  13.473
43156W        W11629   3.841  43.852  11.023
43157W        W11630  14.778  15.728  13.025
43158W        W11631  33.488  11.267   0.878
43159W        W11632  31.106  21.091  11.442
43160W        W11633  41.036  20.028  12.093
43161W        W11634  43.834  14.824   1.301
43162W        W11635  18.620  31.044   2.351
43163W        W11636  17.717  40.014   1.368
43164W        W11637  21.134  22.089   4.298
43165W        W11638   6.379  27.689   0.401
43166W        W11639  40.317  36.007   0.846
43167W        W11640  15.304  21.086  12.997
43168W        W11641  43.427  33.017   3.321
43169W        W11642  36.007  25.535  10.567
43170W        W11643  14.612   2.357   3.147
43171W        W11644  16.567  16.099   1.753
43172W        W11645   9.739  40.971  12.967
43173W        W11646   6.860  25.517  10.529
43174W        W11647   8.807  22.626   9.957
43175W        W11648  26.991  35.570   3.335
43176W        W11649  32.925  33.625   4.760
43177W        W11650  21.162  39.959   0.350
43178W        W11651  23.995  15.308  13.010
43179W        W11652  42.380  19.550  14.396
43180W        W11653  10.835  14.119  13.834
43181W        W11654  44.304  34.054  10.551
43182W        W11655  20.568  27.655  13.374
43183W        W11656   7.362  22.560  11.437
43184W        W11657  17.253  30.154  10.942
43185W        W11658  32.094  36.464   0.907
43186W        W11659   3.919   9.709  10.562
43187W        W11660  11.668  38.851   2.795
43188W        W11661  26.635  15.759  10.592
43189W        W11662  29.519  20.256  11.584
43190W        W11663  34.424  35.423   2.865
43191W        W11664  40.305  20.640   2.756
43192W        W11665   7.203  33.617  12.516
43193W        W11666   4.396  14.639   0.738
43194W        W11667  24.498   1.406  13.386
43195W        W11668   1.361  25.705   0.319
43196W        W11669   2.299  44.417   3.214
43197W        W11670   6.365  37.340  10.156
43198W        W11671  14.620  21.622  12.081
43199W        W11672  10.326  29.432   2.823
43200W        W11673  44.276  42.896  13.499
43201W        W11674  17.589  35.869   4.753
43202W        W11675   2.839  33.129   3.332
43203W        W11676  32.444  29.032  12.976
43204W        W11677  41.432   3.779   2.275
43205W        W11678  21.526  26.576  13.478
43206W        W11679  24.136  12.358  10.496
43207W        W11680  42.907  22.217  12.441
43208W        W11681  13.674  40.020   1.272
43209W        W11682  41.979  31.598   1.816
43210W        W11683   9.700   0.373  13.005
43211W        W11684   3.432  19.128   2.239
43212W        W11685  28.134  26.530  14.964
43213W        W11686   4.436  13.321   4.815
43214W        W11687  43.366  18.609  14.858
43215W        W11688  24.037  37.510   5.189
43216W        W11689  17.181  39.386   0.926
43217W        W11690  43.511  42.371   3.147
43218W        W11691  40.324  11.738   4.231
43219W        W11692  19.084   0.766  10.614
43220W        W11693  31.049   4.299  13.309
43221W        W11694  44.953  11.288   3.295
43222W        W11695   5.345  42.343   3.231
43223W        W11696  15.202  30.106   2.369
43224W        W11697  43.389  23.727  11.093
43225W        W11698   8.896  19.779  12.964
43226W        W11699  44.913  39.976  13.977
43227W        W11700  30.056   8.711  12.055
43228W        W11701  44.504   2.341  13.976
43229W        W11702  26.700   6.300   2.227
43230W        W11703  37.576  21.591  10.913
43231W        W11704  40.333  37.470   1.306
43232W        W11705  16.170   1.355  12.962
43233W        W11706  30.561  37.950  12.927
43234W        W11707   4.264   8.305   3.213
43235W        W11708  15.632  37.422  14.860
43236W        W11709  32.117  40.343  14.955
43237W        W11710  44.376  39.044  11.997
43238W        W11711   5.240  10.709  10.533
43239W        W11712  36.018   6.346  12.484
43240W        W11713  21.522  14.197   5.320
43241W        W11714  32.565  31.498   3.790
43242W        W11715  22.524   6.786  12.079
43243W        W11716  22.055  15.653   3.189
43244W        W11717  20.655  42.506  14.937
43245W        W11718  29.446  26.460   3.334
43246W        W11719  26.687  23.236   1.730
43247W        W11720  38.866  38.996   1.932
43248W        W11721   1.436  14.209   3.726
43249W        W11722   3.263  17.556   4.678
43250W        W11723   3.233  30.574   0.318
43251W        W11724   1.867  32.005   2.204
43252W        W11725   4.708  42.391  14.285
43253W        W11726  21.642  16.716   3.288
43254W        W11727   6.193  12.323  13.478
43255W        W11728  25.182  32.017   2.798
43256W        W11729  19.160  30.609   0.937
43257W        W11730  12.835  43.336   2.348
43258W        W11731  24.559  23.642  10.633
43259W        W11732   0.342  23.633  12.078
43260W        W11733   8.261  25.168  12.438
43261W        W11734  30.099  21.071   3.294
43262W        W11735  23.568  12.641  13.352
43263W        W11736  30.532  28.613  11.590
43264W        W11737  17.592  40.412   4.188
43265W        W11738  41.469  39.963  14.898
43266W        W11739   9.343  13.758   2.719
43267W        W11740  25.068  24.528   3.785
43268W        W11741  10.372  13.247  12.449
43269W        W11742  33.489  29.978   3.373
43270W        W11743   0.308  19.538  12.994
43271W        W11744   2.349  39.349   1.314
43272W        W11745   3.781  37.378  11.066
43273W        W11746  30.490  29.122   2.295
43274W        W11747  41.888   9.180   0.355
43275W        W11748  24.102  24.718   2.688
43276W        W11749  12.217  14.595  13.496
43277W        W11750  28.602  23.584   2.179
43278W        W11751  20.759   4.431  12.069
43279W        W11752  11.771  44.327   9.952
43280W        W11753  39.007  26.082  10.439
43281W        W11754  10.301  38.474  14.370
43282W        W11755  41.864   7.222   9.960
43283W        W11756  38.868   8.317  10.644
43284W        W11757  15.264  36.558  13.053
43285W        W11758  39.555  26.095  14.449
43286W        W11759  14.125  38.950  12.376
43287W        W11760  39.549   0.467  12.405
43288W        W11761  21.208  24.674  10.568
43289W        W11762   7.279   2.723  10.412
43290W        W11763   1.302  40.373  11.122
43291W        W11764  38.855  32.098   0.880
43292W        W11765  27.661  30.555   0.854
43293W        W11766   0.449   9.829  12.865
43294W        W11767  18.707   0.917  12.399
43295W        W11768  15.648  41.997   4.261
43296W        W11769  27.544   0.925   3.864
43297W        W11770  30.631  39.558  11.877
43298W        W11771  29.607  33.586  10.899
43299W        W11772   7.826  14.590  13.010
43300W        W11773  17.225  10.801   4.234
43301W        W11774   5.354  20.587  14.349
43302W        W11775  13.703  24.671  13.816
43303W        W11776  18.235  20.098   4.256
43304W        W11777  34.009  38.905   0.811
43305W        W11778  31.044  43.844   5.148
43306W        W11779  41.946   3.430   1.394
43307W        W11780  35.552   6.697   0.248
43308W        W11781  29.525  32.064  12.561
43309W        W11782  22.033  33.932  14.977
43310W        W11783  17.065  15.619  14.290
43311W        W11784   7.307  18.598  13.951
43312W        W11785   2.252  33.028  13.360
43313W        W11786  43.848  25.502  14.310
43314W        W11787   6.407  25.547   0.456
43315W        W11788  38.908  37.354  10.593
43316W        W11789  25.682  12.125  13.997
43317W        W11790  24.113  30.597  12.885
43318W        W11791  16.103  39.919  13.890
43319W        W11792  14.661  32.896  11.093
43320W        W11793  34.994  35.962  14.949
43321W        W11794  20.724  25.628   3.173
43322W        W11795  42.902  30.916  14.850
43323W        W11796  19.674  24.686   3.153
43324W        W11797  35.935  42.353  13.502
43325W        W11798  13.249   7.708   2.871
43326W        W11799  17.288   3.370  12.066
43327W        W11800  13.680  28.650   3.686
43328W        W11801   5.705  14.634   3.668
43329W        W11802  44.261  23.518  13.493
43330W        W11803  12.165  32.507   2.296
43331W        W11804  30.053  33.062  12.873
43332W        W11805  36.099  24.070  14.793
43333W        W11806  39.461  31.986  11.467
43334W        W11807  19.263  12.638   4.121
43335W        W11808  16.161  17.221   2.689
43336W        W11809  26.033   7.679  13.444
43337W        W11810  35.036   9.323   2.836
43338W        W11811  15.661   1.474   2.378
43339W        W11812  20.224  42.010  10.991
43340W        W11813  34.477  29.601  10.431
43341W        W11814  25.662  24.082   1.275
43342W        W11815  42.005  29.944   4.837
43343W        W11816  31.535  20.713   3.176
43344W        W11817  25.582  26.165  12.416
43345W        W11818  18.571   7.270   2.697
43346W        W11819  41.798  11.808   4.307
43347W        W11820  21.545   3.718   4.618
43348W        W11821   2.453  26.020  13.324
43349W        W11822   3.370  25.531   4.304
43350W        W11823   5.292  20.620   0.830
43351W        W11824  14.281  13.811  11.940
43352W        W11825  37.833  40.992  12.433
43353W        W11826   0.964  15.589  13.540
43354W        W11827  19.149  20.670  12.829
43355W        W11828   4.288  11.859  13.390
43356W        W11829  29.052   9.741  11.500
43357W        W11830  17.673  24.581   4.304
43358W        W11831  33.442  36.419  10.475
43359W        W11832  21.665  12.183  13.018
43360W        W11833  27.468  31.023  12.530
43361W        W11834  16.808  21.160   1.435
43362W        W11835  44.410  23.629   1.447
43363W        W11836   6.333  40.520  14.029
43364W        W11837  37.938   5.749  13.428
43365W        W11838   2.260  17.202  11.010
43366W        W11839  34.885   9.667   3.781
43367W        W11840   6.363  40.496   3.834
43368W        W11841  29.056  43.915  10.519
43369W        W11842  27.471  27.184   1.791
43370W        W11843  11.330  13.639  11.890
43371W        W11844  15.614  35.426  11.879
43372W        W11845  42.506  12.740  12.468
43373W        W11846  38.505  20.058  11.381
43374W        W11847  36.011  13.269   0.935
43375W        W11848  14.746   8.321   2.375
43376W        W11849  35.998  18.107   2.344
43377W        W11850  13.283  33.900   2.757
43378W        W11851   4.311   5.878   3.192
43379W        W11852  37.960  41.308  13.918
43380W        W11853   3.444  30.042   3.175
43381W        W11854   5.715   1.416   1.360
43382W        W11855  17.653  38.381   1.748
43383W        W11856  18.215  26.113  12.855
43384W        W11857   3.823   2.827  11.491
43385W        W11858   4.757   1.268   4.128
43386W        W11859  19.600  38.428   4.246
43387W        W11860  14.690  12.264  10.938
43388W        W11861  13.727  27.085   1.742
43389W        W11862  30.030  39.966  13.955
43390W        W11863  39.445  38.474  12.960
43391W        W11864  40.023  11.148   1.358
43392W        W11865   1.854   4.845   1.246
43393W        W11866  15.171  34.050   4.276
43394W        W11867   1.359   8.337  12.439
43395W        W11868   1.418  44.792   1.783
43396W        W11869  16.796  42.442   2.182
43397W        W11870  30.995  30.102   4.636
43398W        W11871  41.809  33.540   3.794
43399W        W11872   0.918  28.121   5.213
43400W        W11873  40.486   2.807  10.427
43401W        W11874  24.611  12.211  13.937
43402W        W11875  18.554  35.454   0.465
43403W        W11876   6.785  29.573  10.969
43404W        W11877  14.822  28.440   2.271
43405W        W11878   7.184  40.996   1.394
43406W        W11879  40.511  11.190   2.189
43407W        W11880   3.860  29.643  13.360
43408W        W11881  40.811  18.297   2.300
43409W        W11882   7.816  14.178   4.706
43410W        W11883  43.884   3.891   2.219
43411W        W11884  19.123  26.633  13.806
43412W        W11885   2.335  41.878  12.555
43413W        W11886  26.471  40.437  12.076
43414W        W11887  41.915  17.125  11.077
43415W        W11888  18.256  42.288   2.307
43416W        W11889  14.706   1.791  14.992
43417W        W11890  19.101  36.910   0.850
43418W        W11891  20.232   0.938  10.634
43419W        W11892  21.224  43.800  14.778
43420W        W11893  38.408  30.611  14.815
43421W        W11894   8.888  29.644  12.529
43422W        W11895   1.469  17.590   0.477
43423W        W11896  10.716   6.808  10.949
43424W        W11897  22.183  14.785  10.098
43425W        W11898  15.813  36.461  11.994
43426W        W11899  14.616  10.710  10.987
43427W        W11900  14.812  21.531   1.374
43428W        W11901  32.558   1.307   2.180
43429W        W11902  17.679  18.112   4.272
43430W        W11903   4.888  26.645  10.904
43431W        W11904  25.974  35.907   1.753
43432W        W11905  11.134   8.716  14.768
43433W        W11906  12.256  15.321   2.408
43434W        W11907  42.850  42.355   4.793
43435W        W11908   8.273  21.724   3.847
43436W        W11909  32.496  28.613  11.473
43437W        W11910   9.311   6.808   1.451
43438W        W11911   9.748  31.425  11.032
43439W        W11912  35.943  24.175  12.823
43440W        W11913   3.872  20.095   0.776
43441W        W11914  10.267  40.037  14.380
43442W        W11915  39.865  20.252   2.667
43443W        W11916  41.011   2.792  10.491
43444W        W11917  37.030  16.111  12.907
43445W        W11918  42.803  34.086  10.460
43446W        W11919  17.760  14.722   2.851
43447W        W11920  38.015  36.899   4.756
43448W        W11921  44.300  24.039  14.504
43449W        W11922  17.610   8.787   2.270
43450W        W11923  38.932  10.322  13.537
43451W        W11924  24.653  15.785   4.175
43452W        W11925  42.397  11.222  13.933
43453W        W11926  38.845  38.376  14.805
43454W        W11927  19.107  38.917  10.624
43455W        W11928   7.696  38.457   0.839
43456W        W11929   4.424  14.690  12.892
43457W        W11930  30.469  21.262   3.728
43458W        W11931  28.548  15.694   3.234
43459W        W11932  17.228   1.856   0.340
43460W        W11933   2.748  13.335   4.604
43461W        W11934  31.991  37.036  12.356
43462W        W11935  12.174  42.837   1.750
43463W        W11936  30.947   8.320   1.885
43464W        W11937   7.751  18.628   1.270
43465W        W11938  12.837  36.883  12.030
43466W        W11939  34.017  19.611  13.421
43467W        W11940   4.298  20.591  13.808
43468W        W11941   5.905  19.534  10.593
43469W        W11942   8.773  44.296  12.575
43470W        W11943  41.468  41.424   1.447
43471W        W11944  20.034  12.204   3.676
43472W        W11945  21.758   2.770  11.442
43473W        W11946  20.716  43.272  11.540
43474W        W11947  38.823   9.851   3.699
43475W        W11948   8.823  44.493  10.558
43476W        W11949   5.296   7.798   9.598
43477W        W11950  14.335  28.486  13.052
43478W        W11951  28.945   2.735   1.343
43479W        W11952   3.460  24.160  11.440
43480W        W11953  35.907  41.511  14.808
43481W        W11954  15.672  35.060   0.960
43482W        W11955  33.125   4.433   4.137
43483W        W11956  10.713  13.840   0.898
43484W        W11957  22.118  17.584  11.472
43485W        W11958  33.443   8.793  11.907
43486W        W11959  30.546   9.721  13.842
43487W        W11960  41.415  21.138  11.416
43488W        W11961   9.372  31.133  10.585
43489W        W11962  33.577   3.880  14.457
43490W        W11963  40.860   3.862   0.882
43491W        W11964  41.427  28.637   4.614
43492W        W11965  25.189  26.665   2.847
43493W        W11966  10.205  25.533   1.355
43494W        W11967  30.100  36.496   3.678
43495W        W11968   8.182   1.374   3.230
43496W        W11969   0.849  38.917   3.313
43497W        W11970   6.396  20.724  11.387
43498W        W11971  41.837  40.900  10.406
43499W        W11972  34.039  24.637   0.949
43500W        W11973   4.905   7.892   4.611
43501W        W11974  23.639  21.594  10.955
43502W        W11975   4.225  21.262  10.563
43503W        W11976   8.177  29.446  10.448
43504W        W11977  37.025  29.071   4.740
43505W        W11978  28.445  35.448  12.840
43506W        W11979  20.242  31.978  11.438
43507W        W11980  30.632   6.417   4.139
43508W        W11981  19.732  40.945   0.340
43509W        W11982  30.133   0.312  12.961
43510W        W11983   1.873  10.186  12.413
43511W        W11984  39.822   8.206  14.454
43512W        W11985  18.108  34.580  13.317
43513W        W11986  25.583  23.093   2.753
43514W        W11987   9.849  36.402   0.262
43515W        W11988  34.550  34.383   0.956
43516W        W11989  20.271  26.565   2.705
43517W        W11990  32.512  41.992   2.380
43518W        W11991  23.232  15.133  11.025
43519W        W11992   1.760  37.368  14.367
43520W        W11993  24.710  29.018   2.356
43521W        W11994  11.310  15.224   2.761
43522W        W11995  43.326  17.783  14.876
43523W        W11996  32.513  21.529  14.300
43524W        W11997  39.511  44.851  13.999
43525W        W11998  25.549  12.740  13.804
43526W        W11999  43.887   3.274  14.022
43527W        W12000   0.388  38.525  10.502
43528W        W12001  37.065  37.027  11.001
43529W        W12002  34.882   0.774   0.254
43530W        W12003  17.680  34.897   0.856
43531W        W12004  38.863   6.398  13.521
43532W        W12005  17.131   6.234  14.794
43533W        W12006  35.474  31.946   3.644
43534W        W12007  29.015  14.768   0.929
43535W        W12008  30.113  22.597   0.448
43536W        W12009   0.397  26.041  11.927
43537W        W12010  41.345  18.207   1.758
43538W        W12011  43.852  13.646  14.423
43539W        W12012  35.523  24.597   1.232
43540W        W12013  18.234   9.373  11.092
43541W        W12014  17.118   6.875   3.835
43542W        W12015  23.732  27.195   2.710
43543W        W12016  25.516  38.341   1.711
43544W        W12017  16.184  15.797   4.668
43545W        W12018  27.673  25.056   5.178
43546W        W12019  34.385  19.148   2.277
43547W        W12020  37.478  13.235   3.788
43548W        W12021  43.848   9.261   1.832
43549W        W12022  31.539  33.110   2.216
43550W        W12023  18.055  23.179   0.766
43551W        W12024   3.315   2.813  11.118
43552W        W12025  30.600  35.970  11.100
43553W        W12026  34.426  43.769   1.807
43554W        W12027   3.260  27.017   4.209
43555W        W12028  21.202  32.990   3.688
43556W        W12029  38.056  25.499   1.415
43557W        W12030  38.026  41.293   1.246
43558W        W12031  28.460   7.860   3.349
43559W        W12032  23.113  28.483   1.414
43560W        W12033  26.991   6.832  11.943
43561W        W12034   0.805  19.778   1.775
43562W        W12035   2.908  26.131   3.843
43563W        W12036  30.509  41.422   1.865
43564W        W12037  33.112  36.904  14.308
43565W        W12038  40.384  16.707  13.930
43566W        W12039   4.892   7.380   1.877
43567W        W12040  11.797  20.527  12.405
43568W        W12041  28.602   5.423   0.799
43569W        W12042  43.405  14.205  14.333
43570W        W12043  21.694  19.050  13.796
43571W        W12044  14.683  18.551   4.316
43572W        W12045  24.223   8.819  12.496
43573W        W12046  16.174  23.210   2.846
43574W        W12047  11.193  17.090   2.854
43575W        W12048  15.159   3.801  10.918
43576W        W12049   2.313  16.297   1.427
43577W        W12050  17.112  20.210   2.184
43578W        W12051  25.655  32.137  10.140
43579W        W12052  22.068  21.161  11.569
43580W        W12053  34.454  42.834   1.307
43581W        W12054   3.353  17.191  13.483
43582W        W12055  21.596  30.576   5.126
43583W        W12056  22.528  16.810   4.767
43584W        W12057  31.539  25.141  13.975
43585W        W12058  29.585   1.389   2.872
43586W        W12059  40.502  44.781  14.468
43587W        W12060  34.452  20.715   2.713
43588W        W12061  14.313  20.199  12.899
43589W        W12062  35.954   3.877   2.851
43590W        W12063  12.824  38.559  13.373
43591W        W12064   5.313  44.269   0.405
43592W        W12065  24.078  40.960  13.060
43593W        W12066  19.639  25.639  13.433
43594W        W12067  40.047  29.969  12.053
43595W        W12068  38.917   7.411   4.139
43596W        W12069  25.210   9.188   4.281
43597W        W12070  12.840  20.759  10.992
43598W        W12071  39.330  17.696  14.820
43599W        W12072  32.526  31.929   0.362
43600W        W12073  23.040  37.377  14.386
43601W        W12074   1.295  22.052   0.852
43602W        W12075  15.664  22.663  12.572
43603W        W12076  27.665  33.097  13.810
43604W        W12077  25.574  26.557   2.404
43605W        W12078  19.674  30.413  13.962
43606W        W12079  22.150  18.243   4.142
43607W        W12080  44.504  32.444   1.860
43608W        W12081  16.748  16.308  12.523
43609W        W12082   4.845  27.136   3.855
43610W        W12083   0.906  33.447  11.441
43611W        W12084  35.408  31.637   3.819
43612W        W12085  13.339  42.338   1.238
43613W        W12086  35.446  12.325  13.944
43614W        W12087  22.108  38.325  13.804
43615W        W12088  39.933  19.764   3.375
43616W        W12089  16.726  33.612  11.975
43617W        W12090  24.692  27.445  11.468
43618W        W12091  23.724  40.945  14.483
43619W        W12092  21.181  40.361   1.343
43620W        W12093  36.481  31.048  12.414
43621W        W12094  39.996   0.472   4.262
43622W        W12095  10.751   4.777  11.460
43623W        W12096  44.818   7.363  13.004
43624W        W12097  38.048  12.822  11.429
43625W        W12098  17.772  23.028  14.852
43626W        W12099  25.697  23.566  10.093
43627W        W12100  38.545  15.714   1.932
43628W        W12101   5.337  21.622  14.300
43629W        W12102  15.590  43.298   3.308
43630W        W12103  12.807  29.970  11.592
43631W        W12104  21.545  39.429  11.005
43632W        W12105  23.225  11.310   4.777
43633W        W12106  34.954   7.405   3.764
43634W        W12107  20.673  42.377  12.412
43635W        W12108  36.020  27.530  11.089
43636W        W12109  22.602  24.975   2.224
43637W        W12110  41.833  21.252   4.116
43638W        W12111  37.528  34.941   2.773
43639W        W12112   2.921  20.030  10.987
43640W        W12113  36.886  13.316   1.424
43641W        W12114  14.167   8.216   1.304
43642W        W12115  41.375   0.891   2.861
43643W        W12116  18.110  25.555   3.682
43644W        W12117  35.959  36.405  13.793
43645W        W12118  15.715   8.186  12.913
43646W        W12119   5.291  10.814  13.812
43647W        W12120  18.169  12.192  12.846
43648W        W12121  28.099  22.668  14.886
43649W        W12122  28.940  23.590   5.103
43650W        W12123  11.694  30.063   2.746
43651W        W12124  40.971  32.951   0.893
43652W        W12125  38.397  16.801  10.994
43653W        W12126   0.843  32.992  12.956
43654W        W12127  44.774  35.431   2.883
43655W        W12128  11.725  39.880   2.845
43656W        W12129  44.863  11.656  11.510
43657W        W12130   2.358   9.281  13.995
43658W        W12131   1.886  43.934   1.369
43659W        W12132  39.999  19.616  11.403
43660W        W12133  15.801  11.722   4.296
43661W        W12134   4.289  29.956   4.135
43662W        W12135   4.436   5.885   9.510
43663W        W12136  13.294  17.064   4.253
43664W        W12137  33.617  27.068   2.230
43665W        W12138  22.585  29.585  10.478
43666W        W12139  29.161  35.387   2.723
43667W        W12140  42.992  28.623   2.224
43668W        W12141  27.123  23.613   1.331
43669W        W12142  27.638  21.069   1.409
43670W        W12143   3.370   7.866  10.439
43671W        W12144   4.449  29.448  14.948
43672W        W12145  22.573  23.040  14.771
43673W        W12146   2.251   1.764   2.322
43674W        W12147  24.661  16.083  13.312
43675W        W12148   7.891  12.227  10.438
43676W        W12149   2.417  22.129   1.295
43677W        W12150  32.479  29.021  13.500
43678W        W12151  20.165  43.421   3.359
43679W        W12152  31.906   0.802   3.812
43680W        W12153   8.260  35.475   3.150
43681W        W12154  40.835  13.683   4.294
43682W        W12155   3.842  15.188   1.388
43683W        W12156  25.509  40.402  11.547
43684W        W12157  11.732  32.432  14.763
43685W        W12158  23.566  32.614   2.742
43686W        W12159  10.341  21.705  14.879
43687W        W12160  35.033  12.677  12.419
43688W        W12161  33.581  12.313  14.480
43689W        W12162  31.598   7.408  11.008
43690W        W12163  14.172  28.144  14.332
43691W        W12164   0.900  44.479  10.463
43692W        W12165  31.137  39.850   3.324
43693W        W12166  28.992   1.438  12.408
43694W        W12167  38.555  25.544  10.901
43695W        W12168  13.696   8.348  11.983
43696W        W12169  14.313   5.916  13.004
43697W        W12170  32.528  18.122  11.405
43698W        W12171  31.467  34.473  13.036
43699W        W12172  44.270  14.243  13.521
43700W        W12173  40.346  30.437   2.412
43701W        W12174  15.626  14.698  14.956
43702W        W12175  15.117  21.086  13.502
43703W        W12176  33.626  27.951   0.759
43704W        W12177  28.078   4.261  13.871
43705W        W12178  26.179  35.067  11.867
43706W        W12179  31.974  31.977   1.279
43707W        W12180  30.634  39.023   3.796
43708W        W12181  19.699   5.383  10.635
43709W        W12182   1.875  36.966   0.946
43710W        W12183  18.600  35.409   3.776
43711W        W12184   0.863   4.292  10.440
43712W        W12185  34.941   4.426  10.541
43713W        W12186   3.398   5.316  12.931
43714W        W12187   8.668  17.170  11.864
43715W        W12188  29.975  41.318   3.794
43716W        W12189  28.006  26.062  14.371
43717W        W12190  35.476  13.621   4.784
43718W        W12191  24.651  18.564  14.395
43719W        W12192  31.079  43.851  13.940
43720W        W12193  32.433  37.897   0.310
43721W        W12194  17.180  42.954  10.018
43722W        W12195  28.966  43.012  12.367
43723W        W12196  41.013  36.493   1.734
43724W        W12197   1.408  15.097   0.353
43725W        W12198  19.555  31.109   0.362
43726W        W12199   5.852   4.370  13.899
43727W        W12200  26.166  39.915   3.700
43728W        W12201  17.249  20.067  14.461
43729W        W12202  10.824  17.649  14.491
43730W        W12203  44.343   5.919  12.863
43731W        W12204  34.544   1.860   0.945
43732W        W12205   2.948  15.790  14.426
43733W        W12206  19.219  25.496   4.618
43734W        W12207   8.222   0.979  14.481
43735W        W12208  26.001   4.325  10.951
43736W        W12209  26.477  30.625  14.841
43737W        W12210  38.987  20.149   5.271
43738W        W12211  37.970   1.967  13.834
43739W        W12212   4.851  43.282  13.367
43740W        W12213   3.338  18.588   4.331
43741W        W12214  13.709  20.162   2.715
43742W        W12215  37.576  14.732  12.091
43743W        W12216  30.594  20.764   0.751
43744W        W12217  35.882   7.268   2.695
43745W        W12218   7.308   4.838  14.849
43746W        W12219  17.657   4.728   3.366
43747W        W12220   3.392  25.146   4.679
43748W        W12221  19.586   9.226  12.851
43749W        W12222   6.790  26.112  14.967
43750W        W12223  26.065   4.717   1.927
43751W        W12224  15.813  34.996  11.878
43752W        W12225  37.855  27.609  13.543
43753W        W12226  42.482   0.817   0.958
43754W        W12227  18.111   2.469   2.772
43755W        W12228  24.194  34.523  12.030
43756W        W12229  36.071  35.089   3.790
43757W        W12230   3.426  23.160  10.975
43758W        W12231  40.367   4.821  12.016
43759W        W12232  31.476  38.419  14.390
43760W        W12233  20.195   4.885   4.312
43761W        W12234  32.609  27.572  13.063
43762W        W12235  26.475   1.354  10.536
43763W        W12236  37.566  12.235   0.432
43764W        W12237   1.273   1.878  12.485
43765W        W12238  33.594  15.687   9.930
43766W        W12239  23.585  19.694   1.409
43767W        W12240  36.895  25.475  12.348
43768W        W12241   1.382  28.537   2.761
43769W        W12242  41.889  15.296  13.863
43770W        W12243  34.093  27.604   2.299
43771W        W12244  24.055  16.146  13.444
43772W        W12245  38.385  31.939  14.440
43773W        W12246   5.908  43.002  14.304
43774W        W12247  23.500   6.922   2.714
43775W        W12248  24.610  26.489  14.851
43776W        W12249  19.729  33.006  12.400
43777W        W12250  36.432  26.962  14.506
43778W        W12251  25.048   6.219  13.961
43779W        W12252  27.593  37.435   3.673
43780W        W12253  11.660  11.272   0.394
43781W        W12254   2.411  43.406   4.334
43782W        W12255  21.750  26.193  14.303
43783W        W12256  35.453  17.762  14.920
43784W        W12257  26.673   9.220  13.500
43785W        W12258  20.722  39.951   0.244
43786W        W12259  16.106   0.989   2.305
43787W        W12260  29.989   7.360  13.347
43788W        W12261  43.909   1.408  11.964
43789W        W12262   0.953  23.735   3.297
43790W        W12263  21.125  10.182   2.183
43791W        W12264   2.920  24.502   2.689
43792W        W12265  38.881  15.773   9.976
43793W        W12266  41.988  43.297   2.343
43794W        W12267  29.980  40.798   0.456
43795W        W12268  33.392  10.278  13.334
43796W        W12269   8.247  27.652  14.487
43797W        W12270  35.975   3.711   5.114
43798W        W12271  26.128  25.195   0.333
43799W        W12272  35.981  13.219   3.832
43800W        W12273  26.669  36.096  12.399
43801W        W12274   8.212  31.964  12.898
43802W        W12275  19.278   5.334   4.730
43803W        W12276  22.575  14.798   0.450
43804W        W12277  37.920  25.567   2.879
43805W        W12278  35.383   1.915   2.887
43806W        W12279   6.362  32.493  14.930
43807W        W12280  32.532  43.919   3.781
43808W        W12281  24.523   5.332   4.340
43809W        W12282  24.219  18.547  12.958
43810W        W12283  10.162   5.370   0.884
43811W        W12284   8.743   7.911  13.970
43812W        W12285  41.840  41.811  10.621
43813W        W12286  10.168  10.827  14.883
43814W        W12287   2.827  30.064  11.593
43815W        W12288  36.051  21.667   4.321
43816W        W12289   5.695  43.330   0.275
43817W        W12290   8.393  36.362  14.360
43818W        W12291  27.663   3.402  13.840
43819W        W12292  19.612  42.427   4.666
43820W        W12293   1.916  43.841   0.816
43821W        W12294  18.756  10.175  12.353
43822W        W12295  34.395  27.593  12.443
43823W        W12296   4.700   7.841  13.011
43824W        W12297  34.578  11.816   3.714
43825W        W12298  19.257  34.516   4.246
43826W        W12299  27.458  34.567   1.913
43827W        W12300  14.728  37.435  12.999
43828W        W12301  18.193  10.315  14.963
43829W        W12302  29.968  21.021  10.018
43830W        W12303  24.724  17.204  12.978
43831W        W12304  22.067  36.517   0.246
43832W        W12305  26.014  43.488   2.720
43833W        W12306  14.256  23.678   1.909
43834W        W12307  12.259  14.217   3.848
43835W        W12308  43.804  23.227   3.764
43836W        W12309  17.695  24.609   3.231
43837W        W12310  17.085  42.355  12.855
43838W        W12311  13.226  37.942   3.220
43839W        W12312  30.923  37.068   2.739
43840W        W12313   8.271  21.624   3.256
43841W        W12314  23.512   1.793  14.289
43842W        W12315  12.846  41.989   3.680
43843W        W12316  40.372  10.274  13.320
43844W        W12317  29.094  25.151   1.917
43845W        W12318  30.051  43.934  14.780
43846W        W12319  22.525  24.531  14.850
43847W        W12320  37.002  29.051  13.384
43848W        W12321  35.404  37.359  12.907
43849W        W12322  19.148  24.010   1.237
43850W        W12323  29.048   1.412   4.627
43851W        W12324  24.610  41.500  14.378
43852W        W12325  39.330   2.735   1.808
43853W        W12326  33.419  31.592  10.052
43854W        W12327  16.077  28.483  14.980
43855W        W12328  37.482  31.539  10.523
43856W        W12329  12.258  35.564   3.751
43857W        W12330  34.954   1.331   1.736
43858W        W12331  36.961   4.877   0.258
43859W        W12332   2.888   3.238  11.058
43860W        W12333  27.553  15.199  13.459
43861W        W12334  27.114   8.220   0.770
43862W        W12335  17.558  25.992  13.365
43863W        W12336  41.875   1.836  13.542
43864W        W12337  17.705  34.488  13.377
43865W        W12338  28.152  11.367  11.489
43866W        W12339  32.956  34.949   0.334
43867W        W12340   2.275  44.786  13.012
43868W        W12341  19.714  10.660  11.397
43869W        W12342   5.309   2.398   1.231
43870W        W12343  12.791  38.490   4.339
43871W        W12344  44.871  32.963  14.908
43872W        W12345  42.465  30.475   2.234
43873W        W12346  22.693  26.033   4.632
43874W        W12347  19.054  43.871   1.774
43875W        W12348  19.633  33.496  11.071
43876W        W12349  31.569  29.069  13.388
43877W        W12350   1.876   0.468  10.491
43878W        W12351  20.703  25.074   4.662
43879W        W12352   1.867  29.044  13.813
43880W        W12353   8.251  24.563   5.202
43881W        W12354   2.368  41.336  13.842
43882W        W12355  10.379  16.699  10.024
43883W        W12356  44.793  14.779  13.464
43884W        W12357   5.371  44.767  12.038
43885W        W12358   0.785  28.943   9.990
43886W        W12359  11.784  24.129   4.216
43887W        W12360  38.399  30.532  12.880
43888W        W12361  17.665  35.582  12.579
43889W        W12362  37.072  21.560   2.888
43890W        W12363  15.704  29.079   5.282
43891W        W12364  34.118  34.420   4.706
43892W        W12365  25.476  31.020  13.844
43893W        W12366  22.194  37.550  12.443
43894W        W12367  26.493  22.586  13.051
43895W        W12368  38.033  39.521  13.006
43896W        W12369  26.518   3.355  14.026
43897W        W12370  25.163  33.965   2.872
43898W        W12371  23.189   1.816   0.924
43899W        W12372  31.912  14.317  10.072
43900W        W12373  42.805  19.669  14.799
43901W        W12374  20.236  33.937  11.390
43902W        W12375  25.540   7.724  12.907
43903W        W12376  41.352   8.378  10.536
43904W        W12377  24.983  43.482  10.011
43905W        W12378  37.087  28.485   2.259
43906W        W12379  42.394   9.247   3.698
43907W        W12380  32.587   8.803  14.026
43908W        W12381  34.435   7.692  14.348
43909W        W12382  17.162  24.164   0.292
43910W        W12383  38.063  10.746  12.499
43911W        W12384  17.105  23.019   2.902
43912W        W12385  33.524  38.360  14.463
43913W        W12386  11.285  43.894  14.022
43914W        W12387   4.306  37.534  14.964
43915W        W12388  20.569  42.844  11.435
43916W        W12389  42.308  43.367  10.404
43917W        W12390  20.732  12.170  13.905
43918W        W12391  28.941  10.217   4.743
43919W        W12392  21.609  25.984   2.778
43920W        W12393   9.223   3.948  11.458
43921W        W12394  23.166  29.063   4.164
43922W        W12395  39.933  35.406  14.406
43923W        W12396  38.848   4.759  12.876
43924W        W12397  24.597  16.672  13.942
43925W        W12398   6.825  36.043   3.654
43926W        W12399  25.155  34.593  10.583
43927W        W12400  38.427  37.048   0.833
43928W        W12401  13.236  24.973   1.821
43929W        W12402  21.071   9.681   2.803
43930W        W12403  42.511  40.975  14.773
43931W        W12404  27.151   6.857  14.873
43932W        W12405  35.481   8.742   1.307
43933W        W12406  16.687  19.108  11.048
43934W        W12407  13.337  40.482   2.812
43935W        W12408  30.086  17.102   2.370
43936W        W12409  19.684  23.240   0.962
43937W        W12410  40.014  18.266  13.810
43938W        W12411  43.850  26.637  11.108
43939W        W12412  41.310  20.551   2.778
43940W        W12413  29.662  36.908   4.710
43941W        W12414  27.656   3.461   0.875
43942W        W12415  40.985  40.381   2.834
43943W        W12416  19.614   6.738   0.923
43944W        W12417  33.624  23.172   2.285
43945W        W12418   9.390  31.139  11.014
43946W        W12419  26.610   5.242  14.778
43947W        W12420  14.748  10.747   2.898
43948W        W12421  28.086  26.032  11.476
43949W        W12422  23.551  44.889   0.398
43950W        W12423  25.986  19.253   0.824
43951W        W12424  10.341  33.553   2.880
43952W        W12425  26.510  29.448   1.755
43953W        W12426   1.404   5.913  12.863
43954W        W12427  11.149  35.603  10.942
43955W        W12428  24.099  31.638   1.352
43956W        W12429  17.079  32.588   4.340
43957W        W12430  16.746  35.090   4.126
43958W        W12431   3.405  31.546   0.804
43959W        W12432  44.813   4.429   3.838
43960W        W12433  44.911  11.321   4.283
43961W        W12434  28.529  27.001  12.025
43962W        W12435  26.047  21.640   2.357
43963W        W12436  17.609  13.140   4.306
43964W        W12437  24.490  12.241   2.872
43965W        W12438  12.748   7.378  11.467
43966W        W12439  32.902  29.074   0.829
43967W        W12440  35.945  34.044  12.069
43968W        W12441   8.846  39.930   3.350
43969W        W12442  16.601  10.234   2.337
43970W        W12443   0.886  30.157  12.554
43971W        W12444   1.749   8.794  14.781
43972W        W12445  44.450  13.169   1.449
43973W        W12446  42.858  10.694   2.243
43974W        W12447  44.876  34.511  12.951
43975W        W12448  38.042  17.766   2.828
43976W        W12449  37.572  16.761  12.580
43977W        W12450  10.151  44.319   9.927
43978W        W12451   4.800   6.369   1.266
43979W        W12452  25.657  25.529   1.391
43980W        W12453  36.091  40.469   1.302
43981W        W12454  39.914  43.765   1.813
43982W        W12455  11.339   7.237  14.880
43983W        W12456  42.810  17.567  10.579
43984W        W12457  37.071  25.996  11.562
43985W        W12458  16.108   8.202   1.246
43986W        W12459  40.341  44.764  11.584
43987W        W12460  28.936  42.467  12.395
43988W        W12461   9.241   6.804   2.350
43989W        W12462  44.772  40.320  13.360
43990W        W12463  39.556   1.344   1.881
43991W        W12464  27.986   7.240   5.128
43992W        W12465  42.817   6.862   0.868
43993W        W12466   7.183   0.970   4.720
43994W        W12467  31.925   9.869   4.671
43995W        W12468  42.016  39.956   1.725
43996W        W12469  32.599  13.169   2.778
43997W        W12470  33.382  20.140  12.865
43998W        W12471  16.768  38.554  12.412
43999W        W12472  44.350  25.088  10.528
44000W        W12473  38.368  30.622   2.183
44001W        W12474  25.011  44.341   5.238
44002W        W12475  29.137   9.263  10.997
44003W        W12476  40.478  19.537   1.310
44004W        W12477  39.485  22.579   4.768
44005W        W12478  22.031  23.494  14.370
44006W        W12479  41.903  39.943   2.761
44007W        W12480  12.250  13.229   3.345
44008W        W12481  27.122  34.892   0.438
44009W        W12482  11.177  23.675   1.883
44010W        W12483  44.784  26.114  14.792
44011W        W12484  14.155  38.019   4.332
44012W        W12485  19.133  15.245   0.380
44013W        W12486  31.477   1.313   0.449
44014W        W12487  44.861  13.322  12.834
44015W        W12488  34.935  33.417   3.807
44016W        W12489   8.253  21.163  11.870
44017W        W12490   0.749   0.917   2.184
44018W        W12491  40.827  32.418  11.957
44019W        W12492  43.981  33.880   1.273
44020W        W12493  15.723  39.001   1.425
44021W        W12494  39.934  26.595   3.183
44022W        W12495  14.641  26.522  12.469
44023W        W12496  24.608  39.475   4.299
44024W        W12497  28.178  31.141  13.466
44025W        W12498  19.095  24.142   2.357
44026W        W12499  25.201  16.117  11.117
44027W        W12500  16.757  26.574  12.901
44028W        W12501  26.580  42.459  10.554
44029W        W12502  37.066  14.117   1.920
44030W        W12503  41.373  13.162  13.422
44031W        W12504   8.397  24.192  11.896
44032W        W12505  44.851  36.510   4.732
44033W        W12506  34.440  21.041   3.781
44034W        W12507  42.960  32.503   2.419
44035W        W12508   3.724  30.927   3.157
44036W        W12509  25.069  26.007   2.712
44037W        W12510  42.358  20.734  11.989
44038W        W12511  43.354  19.560  11.039
44039W        W12512  26.173  37.077  13.469
44040W        W12513  30.916  19.602  13.357
44041W        W12514  42.799  28.929  14.906
44042W        W12515  22.167  44.356  13.310
44043W        W12516   6.346  30.060   0.829
44044W        W12517   4.890  26.175  14.349
44045W        W12518  11.308  23.054  10.434
44046W        W12519  44.781   2.748  12.927
44047W        W12520  31.451  19.205   1.843
44048W        W12521  24.528  22.168   4.278
44049W        W12522  44.824  23.225  10.426
44050W        W12523   6.346  16.247   5.101
44051W        W12524  12.222  24.164  11.901
44052W        W12525   4.845  28.143   2.381
44053W        W12526  27.621  30.090   1.388
44054W        W12527  16.178  33.112  14.973
44055W        W12528  10.139  27.660  10.434
44056W        W12529  17.645  14.165  10.613
44057W        W12530  32.412  41.439   9.560
44058W        W12531  39.538  16.606   4.310
44059W        W12532  15.719  32.453  13.387
44060W        W12533  39.429  39.551  14.787
44061W        W12534  10.736  16.808   2.857
44062W        W12535  33.412  43.499   2.302
44063W        W12536   5.343  19.206  12.478
44064W        W12537  24.108  25.013  10.441
44065W        W12538  18.128  19.560  12.380
44066W        W12539   6.401  22.196   2.712
44067W        W12540  18.664   9.295   4.767
44068W        W12541   2.766  37.560   1.441
44069W        W12542  42.471  27.623  12.576
44070W        W12543  15.145  26.605  13.897
44071W        W12544  16.638  40.019   5.293
44072W        W12545  32.010  42.892  13.957
44073W        W12546  41.376  20.037  10.406
44074W        W12547  11.764  25.176  12.893
44075W        W12548  27.523  42.446   4.207
44076W        W12549  13.668  12.121   3.636
44077W        W12550   3.428  18.631   3.695
44078W        W12551  10.716  20.088  12.450
44079W        W12552  40.804  14.178  13.336
44080W        W12553   3.343   8.341  14.419
44081W        W12554   6.355  43.881  14.015
44082W        W12555  33.396   1.833  13.037
44083W        W12556   6.788  29.080  14.770
44084W        W12557  25.503  19.772  10.570
44085W        W12558  17.247  43.866  10.088
44086W        W12559  37.902  24.502   1.393
44087W        W12560  42.399  22.202   0.781
44088W        W12561  13.691  16.081  14.936
44089W        W12562  42.357  12.621  14.811
44090W        W12563  27.445   5.830   2.715
44091W        W12564  40.952  24.210  14.282
44092W        W12565  41.832  30.096   1.874
44093W        W12566  35.446  16.748   2.729
44094W        W12567  16.221  39.545   4.338
44095W        W12568  29.624   0.471  12.979
44096W        W12569  11.807  31.917   0.968
44097W        W12570   1.923  42.339   0.769
44098W        W12571  12.158  43.847   1.305
44099W        W12572  39.390   0.432  10.642
44100W        W12573   6.409  33.606  10.927
44101W        W12574  11.765  23.559  11.384
44102W        W12575  14.321  43.397   0.735
44103W        W12576  33.479   7.697   4.200
44104W        W12577  15.801  31.035   4.626
44105W        W12578  12.194  27.598   3.756
44106W        W12579   8.819   1.754  13.341
44107W        W12580  25.591  30.957   3.263
44108W        W12581   0.903  41.986  10.464
44109W        W12582  10.145  28.439   4.825
44110W        W12583  29.424  32.060   4.245
44111W        W12584  33.016   1.944   1.375
44112W        W12585  18.560  41.994   3.310
44113W        W12586  26.665   4.225   2.394
44114W        W12587  23.115  25.673   4.210
44115W        W12588   0.748  16.573  12.396
44116W        W12589  31.126  11.260  13.384
44117W        W12590  40.839  18.059  13.423
44118W        W12591  21.699   3.238  13.465
44119W        W12592  34.513   5.732  13.382
44120W        W12593  39.334   5.840  11.983
44121W        W12594  22.133   1.298  14.294
44122W        W12595  17.219  44.311  14.478
44123W        W12596   7.779   4.278   0.960
44124W        W12597  38.036  21.694   2.224
44125W        W12598  26.682  30.528   2.752
44126W        W12599  16.186  11.152  13.542
44127W        W12600  13.229  29.132   4.206
44128W        W12601  42.454  32.602  10.552
44129W        W12602  42.918  35.512  12.364
44130W        W12603   2.467  36.990   1.896
44131W        W12604  43.837  23.617   2.386
44132W        W12605  11.762   2.322   4.695
44133W        W12606  10.317  26.632  14.895
44134W        W12607  19.057  10.737   0.924
44135W        W12608  44.451  35.549  11.009
44136W        W12609  20.254  43.375  13.977
44137W        W12610  25.046   7.262   4.786
44138W        W12611   5.415  18.548  12.353
44139W        W12612  26.078  38.551   0.853
44140W        W12613  30.555  36.364   1.441
44141W        W12614  16.719  25.107  14.494
44142W        W12615   4.351  39.335  12.368
44143W        W12616  42.866  29.926   1.695
44144W        W12617  20.720   1.891   3.719
44145W        W12618  34.916  13.627   0.833
44146W        W12619  27.083  32.051   1.774
44147W        W12620  38.019  11.192  13.907
44148W        W12621   4.210  43.503  14.404
44149W        W12622  44.760  32.065   4.324
44150W        W12623   4.226  13.253   4.300
44151W        W12624  42.922  38.072  12.342
44152W        W12625  10.777  36.568  14.994
44153W        W12626   2.447  38.516   4.169
44154W        W12627  19.674  34.406  11.484
44155W        W12628  13.136  33.464  14.375
44156W        W12629  42.800   0.937  10.991
44157W        W12630   8.260  15.768  10.515
44158W        W12631  40.042   3.859   3.331
44159W        W12632   4.812   6.214   4.746
44160W        W12633   8.886  43.351  12.970
44161W        W12634  21.246  36.024  10.551
44162W        W12635  10.633  38.890  10.908
44163W        W12636  40.953   5.711  10.899
44164W        W12637   1.739  27.197   0.443
44165W        W12638  11.269   7.241   2.412
44166W        W12639   0.437  25.017  10.557
44167W        W12640   1.823  11.744  12.077
44168W        W12641  37.405  22.046   0.272
44169W        W12642   8.726  36.376  13.805
44170W        W12643  39.938  29.583   3.690
44171W        W12644  33.063   3.397  13.495
44172W        W12645  24.691  44.502  11.960
44173W        W12646  16.687   8.240   1.758
44174W        W12647  44.823  37.869  12.510
44175W        W12648  30.464  41.527  10.604
44176W        W12649  21.165  42.852   1.893
44177W        W12650  24.095  21.249  12.396
44178W        W12651  35.361   7.208  13.924
44179W        W12652  28.004  28.129   2.313
44180W        W12653  30.485  12.702   2.216
44181W        W12654  39.416  27.160  14.850
44182W        W12655  19.731   0.750  11.518
44183W        W12656   5.312  40.849  13.791
44184W        W12657  24.597  30.974  14.313
44185W        W12658  26.645  19.637  12.579
44186W        W12659  30.988  29.039   4.273
44187W        W12660   6.811  10.303   2.243
44188W        W12661  30.638  23.691   2.828
44189W        W12662   5.210  20.703   2.289
44190W        W12663  16.285  43.916  11.902
44191W        W12664  35.996  43.284  11.054
44192W        W12665  12.308  23.994  10.988
44193W        W12666  34.445   8.875  11.951
44194W        W12667  12.140   8.266   3.689
44195W        W12668  26.571   4.241   1.253
44196W        W12669  31.149  37.046   4.179
44197W        W12670  38.393  40.833   3.158
44198W        W12671   7.809  29.075  13.796
44199W        W12672   5.406  28.045  13.445
44200W        W12673   3.224  16.103   4.718
44201W        W12674  11.821  12.758  13.501
44202W        W12675  22.011  44.973  13.376
44203W        W12676  30.592  14.145   1.405
44204W        W12677  28.450  36.875  14.330
44205W        W12678  39.509  24.006   3.252
44206W        W12679   8.746   7.221  11.907
44207W        W12680   4.870  44.264   0.322
44208W        W12681   0.841  41.469  13.452
44209W        W12682   4.928  11.320  10.439
44210W        W12683  35.358   7.173  12.350
44211W        W12684  31.507  27.464   2.673
44212W        W12685  25.475  22.533   0.755
44213W        W12686  24.038  13.238  11.893
44214W        W12687  25.043  33.032  14.863
44215W        W12688  43.427  10.745   1.735
44216W        W12689   8.680   3.268   1.402
44217W        W12690  14.715  14.113  11.858
44218W        W12691   1.774   9.301  14.966
44219W        W12692   3.834  40.961   3.775
44220W        W12693  22.165  37.521   4.196
44221W        W12694   0.283  35.397  12.395
44222W        W12695  11.153  43.492  14.491
44223W        W12696  13.700  21.068  11.474
44224W        W12697   2.391   9.378  10.429
44225W        W12698  37.509   3.955   0.363
44226W        W12699   3.378  43.447  11.488
44227W        W12700  43.474  13.651  14.013
44228W        W12701  29.496  38.861   4.206
44229W        W12702  18.566   8.318   0.330
44230W        W12703  37.045  37.854  12.069
44231W        W12704   9.740  10.296   9.997
44232W        W12705  25.136  33.488   4.212
44233W        W12706   4.422  35.920  14.430
44234W        W12707  23.040  23.026  11.099
44235W        W12708  42.485  30.615  11.935
44236W        W12709  27.624   6.268   3.745
44237W        W12710  41.020  41.468  11.943
44238W        W12711  13.212   9.273   2.397
44239W        W12712  37.521   9.335   2.398
44240W        W12713  44.474   3.401   0.793
44241W        W12714   4.725   2.802   3.650
44242W        W12715   5.714   0.755  12.048
44243W        W12716  43.890  35.575  12.378
44244W        W12717   4.449  17.196   3.228
44245W        W12718  31.933  39.337  14.846
44246W        W12719  24.219  43.897  10.937
44247W        W12720   7.297  20.754   0.777
44248W        W12721  27.492  33.965  11.985
44249W        W12722  17.276  38.442  14.310
44250W        W12723   0.923  26.597   4.796
44251W        W12724  41.302  31.932  14.369
44252W        W12725  19.281   0.953  13.038
44253W        W12726  35.500  22.054   0.902
44254W        W12727  40.407  28.089  11.467
44255W        W12728  25.612   7.385   1.322
44256W        W12729   7.818  29.061   4.185
44257W        W12730   1.869  17.671   4.341
44258W        W12731   1.741  41.349   4.274
44259W        W12732   6.847  32.495  12.865
44260W        W12733   5.365  19.138  14.917
44261W        W12734   2.801  13.622   3.640
44262W        W12735  23.991  22.165  12.047
44263W        W12736   1.810  41.842   1.288
44264W        W12737  10.216  25.568  12.551
44265W        W12738  37.062  32.420  14.968
44266W        W12739  11.339  37.497   5.274
44267W        W12740  12.668  23.497  14.805
44268W        W12741   7.793  18.120   2.297
44269W        W12742   2.800  16.111  13.847
44270W        W12743  43.501  41.394  12.463
44271W        W12744  13.157  31.558  12.907
44272W        W12745  40.343   5.700  11.487
44273W        W12746   0.319  21.064  11.992
44274W        W12747  13.811  39.494   2.325
44275W        W12748  44.862  38.819  12.870
44276W        W12749   7.677  37.973  12.428
44277W        W12750  20.204   1.851  12.533
44278W        W12751  19.164  18.653  13.508
44279W        W12752  29.503  13.748   1.846
44280W        W12753  34.429  40.899  14.960
44281W        W12754  42.934  44.409   3.695
44282W        W12755  15.771  31.955  11.960
44283W        W12756  30.996  39.064   1.378
44284W        W12757   7.790  23.222   2.238
44285W        W12758  40.887   9.798   2.745
44286W        W12759  38.846  34.008  14.824
44287W        W12760  32.506  40.030   1.309
44288W        W12761  34.978  33.479   4.629
44289W        W12762  41.441  14.276  12.404
44290W        W12763  30.067  33.537  12.374
44291W        W12764   7.883  28.157   1.933
44292W        W12765  42.329  25.106  14.842
44293W        W12766  19.670  17.626  14.507
44294W        W12767  21.581   9.291  14.914
44295W        W12768  30.934   5.893  13.492
44296W        W12769   3.895  35.001   2.399
44297W        W12770   5.745  10.760   0.284
44298W        W12771  10.219  18.586  12.907
44299W        W12772  18.190  33.910  12.368
44300W        W12773  35.597  38.498  14.836
44301W        W12774  35.025   8.289   3.778
44302W        W12775   8.214  16.744  13.398
44303W        W12776  27.499  12.667   4.313
44304W        W12777   3.728  44.958   3.683
44305W        W12778  32.522  35.574  10.552
44306W        W12779  13.837  13.237   0.253
44307W        W12780  41.967   0.476  12.875
44308W        W12781  21.561  36.093   3.630
44309W        W12782  34.920  16.244   3.694
44310W        W12783  10.310  16.184  11.118
44311W        W12784   6.290  43.837   3.174
44312W        W12785  43.283  28.520   3.349
44313W        W12786  28.443  36.992   3.659
44314W        W12787   6.295  16.166   9.638
44315W        W12788  35.960  29.469   2.673
44316W        W12789  29.968  22.097   0.373
44317W        W12790  21.199  36.897  13.366
44318W        W12791  11.237  10.163  13.886
44319W        W12792  10.790  34.947  10.546
44320W        W12793  42.454  12.651   3.744
44321W        W12794  11.725  18.638   9.992
44322W        W12795  29.118  22.680   1.827
44323W        W12796   1.970  15.728   0.811
44324W        W12797  44.977   6.227   4.775
44325W        W12798   8.239  14.177   4.637
44326W        W12799  44.454  42.319  11.947
44327W        W12800   0.954  19.590   4.299
44328W        W12801   4.378  23.185  13.916
44329W        W12802  41.480  14.283   2.711
44330W        W12803  21.628  23.212   0.759
44331W        W12804  13.186  35.870  13.826
44332W        W12805  42.402   8.274   2.266
44333W        W12806  13.242  32.594   4.246
44334W        W12807  41.438  25.117  13.041
44335W        W12808  33.964  34.444   2.232
44336W        W12809  28.502  35.060  11.438
44337W        W12810  17.158  42.860   3.823
44338W        W12811  38.474  11.131  11.002
44339W        W12812  13.703  28.481   1.765
44340W        W12813  36.367   9.812  13.466
44341W        W12814  15.691  34.941   3.739
44342W        W12815  16.609  36.027   1.847
44343W        W12816   2.828  12.188   1.892
44344W        W12817  33.992   0.402  11.110
44345W        W12818  28.454  13.326  12.909
44346W        W12819  29.448  37.399   0.807
44347W        W12820  44.456  22.540   1.885
44348W        W12821  25.217  23.157  14.412
44349W        W12822  43.370  15.239  13.374
44350W        W12823  35.040  40.892   3.213
44351W        W12824  35.569  16.168   3.269
44352W        W12825  12.258  39.499   2.203
44353W        W12826  38.327  44.894  13.369
44354W        W12827  35.577  13.171  14.434
44355W        W12828   8.279  10.698  13.034
44356W        W12829  26.553  33.468   0.480
44357W        W12830  13.616  13.775  10.464
44358W        W12831   6.274  24.057   2.721
44359W        W12832  39.513  38.455  13.399
44360W        W12833  18.656   0.960  12.085
44361W        W12834  41.444  10.788  11.875
44362W        W12835  30.458  34.552   4.198
44363W        W12836  21.081  38.402   1.317
44364W        W12837  33.094   3.274  14.005
44365W        W12838  40.889  42.981  14.984
44366W        W12839  13.137  17.732  11.994
44367W        W12840  44.794  35.869   0.837
44368W        W12841  33.574  23.184   3.716
44369W        W12842  23.996  44.273  10.994
44370W        W12843  43.429  13.691   2.371
44371W        W12844  42.784   5.801  13.544
44372W        W12845  15.666   9.210  11.565
44373W        W12846  41.854   8.797   4.246
44374W        W12847  37.006  29.958   0.296
44375W        W12848  10.870   3.387  14.496
44376W        W12849  41.972  35.039   3.153
44377W        W12850  23.618   8.162  10.965
44378W        W12851  35.442   8.386   3.262
44379W        W12852   2.765  42.878  12.873
44380W        W12853  44.429  40.524  10.426
44381W        W12854  41.308   4.903  14.433
44382W        W12855  31.912  28.063   0.337
44383W        W12856  26.489  24.580  14.028
44384W        W12857   4.284  39.862  13.972
44385W        W12858  15.644  40.045  13.406
44386W        W12859  20.680  42.520   3.258
44387W        W12860   1.472  39.831   1.222
44388W        W12861  21.148  21.021   4.185
44389W        W12862  31.526  44.856   2.868
44390W        W12863  26.512  42.314  14.372
44391W        W12864  13.712  30.632  10.632
44392W        W12865  11.201  44.793  11.112
44393W        W12866   2.964   5.420  11.495
44394W        W12867  12.767  32.527   0.792
44395W        W12868   1.420  40.398  13.933
44396W        W12869  13.745  20.702  11.068
44397W        W12870   1.452   6.409   1.746
44398W        W12871  39.860   6.786  11.910
44399W        W12872  24.009  41.975  11.430
44400W        W12873  12.136   1.888  11.002
44401W        W12874  39.392  26.499  14.369
44402W        W12875  15.803   2.298   4.812
44403W        W12876   8.377  32.512  11.507
44404W        W12877  23.566  44.779   5.234
44405W        W12878  10.879  13.767   4.198
44406W        W12879  21.677  25.170  11.909
44407W        W12880   8.678  35.037   2.664
44408W        W12881   0.942  42.327   2.889
44409W        W12882   3.930   0.337  14.813
44410W        W12883   1.750  22.174  13.827
44411W        W12884  21.585  23.630   2.807
44412W        W12885  26.528  18.261  11.915
44413W        W12886  22.665  25.001  14.364
44414W        W12887  41.350  17.163  12.523
44415W        W12888  30.992  12.732   0.875
44416W        W12889  43.457  21.077  13.990
44417W        W12890  12.677  31.151   3.322
44418W        W12891  29.623   5.401   0.900
44419W        W12892  16.088   5.750   4.826
44420W        W12893  34.098   7.869   0.863
44421W        W12894   6.201   3.949   5.708
44422W        W12895   0.297  25.712  14.355
44423W        W12896   4.818  17.099   3.187
44424W        W12897  15.198  16.769  14.314
44425W        W12898  28.478  12.799   5.264
44426W        W12899  39.492  12.335   1.320
44427W        W12900  43.871  16.805  11.994
44428W        W12901  18.630  38.884   0.292
44429W        W12902   1.923  40.339  12.860
44430W        W12903  28.964  23.025  13.815
44431W        W12904   5.911  12.742   1.747
44432W        W12905  35.918  30.439   1.907
44433W        W12906  36.474  26.467  14.389
44434W        W12907  19.712  15.708  13.835
44435W        W12908  31.076  17.787   3.640
44436W        W12909  10.204  18.200  12.447
44437W        W12910  41.917  12.652   3.369
44438W        W12911  14.195  31.538  11.551
44439W        W12912  28.658  26.552  11.035
44440W        W12913   3.893   8.796   2.390
44441W        W12914  34.549   1.952  13.343
44442W        W12915  25.658  29.013  11.965
44443W        W12916   8.300   4.306  11.572
44444W        W12917  31.003  24.984  14.929
44445W        W12918   5.232  38.056   0.920
44446W        W12919  24.628  40.310  10.901
44447W        W12920  23.680  16.105   0.826
44448W        W12921  36.458  16.737   3.275
44449W        W12922  30.605  40.334   3.253
44450W        W12923  37.579   1.297   4.135
44451W        W12924  29.147  21.631  13.013
44452W        W12925  39.489  10.811   0.254
44453W        W12926  42.309  30.052  13.828
44454W        W12927   5.436  26.654  14.775
44455W        W12928  13.301  31.450   3.656
44456W        W12929   4.906  42.511  12.014
44457W        W12930  43.789  13.340  13.488
44458W        W12931   7.319  24.063  11.926
44459W        W12932  22.664  15.313  12.428
44460W        W12933  31.960  36.455  12.983
44461W        W12934  40.030  21.085   0.351
44462W        W12935  20.576  11.703   2.256
44463W        W12936  35.379  16.655   1.320
44464W        W12937  31.460  43.392  11.552
44465W        W12938  20.198  12.264   4.823
44466W        W12939  19.121  29.040  14.027
44467W        W12940  39.925  37.468  14.842
44468W        W12941  39.340   4.781  10.432
44469W        W12942  37.026   2.838  12.521
44470W        W12943   5.926  30.035   4.623
44471W        W12944   2.877  31.586   0.947
44472W        W12945  18.093  28.063   4.700
44473W        W12946  31.102  42.489   1.792
44474W        W12947   3.817  17.107  13.005
44475W        W12948  33.407  16.734   0.814
44476W        W12949  31.074  28.136   3.246
44477W        W12950  31.588   7.283   2.360
44478W        W12951  19.054  13.748  12.345
44479W        W12952   0.805   6.318   4.612
44480W        W12953   2.888  44.831   0.872
44481W        W12954  14.333  40.907   0.327
44482W        W12955  38.448  13.343  11.861
44483W        W12956  26.615   4.819  11.966
44484W        W12957   1.976  16.787  11.492
44485W        W12958  25.557   4.345   2.191
44486W        W12959  38.976  35.037  11.538
44487W        W12960   7.686  40.437   3.311
44488W        W12961  11.764  29.065  13.792
44489W        W12962   0.851   1.365   2.685
44490W        W12963   1.843  40.432   0.479
44491W        W12964   8.390  32.889   4.729
44492W        W12965  12.216  27.471   1.812
44493W        W12966  12.138  38.873   1.796
44494W        W12967   0.933  21.569   2.330
44495W        W12968  22.525   7.183   4.742
44496W        W12969  37.894  29.541  11.899
44497W        W12970  16.605  28.076  13.798
44498W        W12971  44.262  22.643   4.294
44499W        W12972   2.923  23.648  13.981
44500W        W12973  10.862   2.366   4.276
44501W        W12974   8.369  23.551   4.706
44502W        W12975  19.042  29.093   2.771
44503W        W12976  37.992   4.312   4.281
44504W        W12977   2.413  28.116   4.767
44505W        W12978  16.791   5.216   3.750
44506W        W12979  22.506  43.467  12.060
44507W        W12980  44.283   3.715   0.747
44508W        W12981  30.442  14.792   3.375
44509W        W12982  35.930  38.466   3.827
44510W        W12983  17.700   3.239  13.430
44511W        W12984  18.275  10.190  12.569
44512W        W12985   6.219  15.643  14.874
44513W        W12986  32.526   9.304   1.343
44514W        W12987  16.073  29.428  12.376
44515W        W12988  26.972   0.318   2.898
44516W        W12989  12.787  26.674   3.822
44517W        W12990   8.868  31.086   1.381
44518W        W12991  35.952  39.512   3.237
44519W        W12992  41.798  28.575  13.849
44520W        W12993   1.261  10.341  13.342
44521W        W12994  39.842  15.733  10.968
44522W        W12995  23.110  24.007   2.701
44523W        W12996  22.580  24.022   4.155
44524W        W12997  38.462  15.660  11.983
44525W        W12998  12.258  11.677  12.439
44526W        W12999  12.659   6.238  10.436
44527W        W13000  44.983  11.662  13.838
44528W        W13001  41.483  34.030  11.612
44529W        W13002  37.564   8.353   1.443
44530W        W13003  16.164  16.314  12.900
44531W        W13004  40.902  31.948  11.863
44532W        W13005  38.346  35.857   4.123
44533W        W13006   8.662  38.052  10.420
44534W        W13007  25.042  40.446  12.535
44535W        W13008  35.860  42.895   1.427
44536W        W13009  36.014   4.247   3.732
44537W        W13010  34.016  33.571  11.454
44538W        W13011  23.187  19.737   4.281
44539W        W13012  23.046  30.613   3.186
44540W        W13013  16.685  18.281  12.997
44541W        W13014  37.065  41.481   2.841
44542W        W13015  44.373  32.498   3.774
44543W        W13016  38.365  32.463   4.332
44544W        W13017  41.007  31.443  11.108
44545W        W13018   1.248   4.808   2.406
44546W        W13019  21.153  39.983   3.321
44547W        W13020  32.974  29.597  13.523
44548W        W13021   7.260  21.126  10.534
44549W        W13022  18.722  32.063  13.523
44550W        W13023  43.817  29.028   1.314
44551W        W13024  22.119  16.722   4.331
44552W        W13025   5.202   1.453  11.088
44553W        W13026   6.719  26.116   3.176
44554W        W13027  44.284   7.350  12.964
44555W        W13028   1.947  22.193   0.366
44556W        W13029  15.281   2.797   3.312
44557W        W13030  35.427  11.312   4.601
44558W        W13031   8.357  43.853   0.809
44559W        W13032  14.710  10.254  10.480
44560W        W13033   4.860   0.306   9.950
44561W        W13034  27.536  33.957   0.903
44562W        W13035  33.963  32.563  12.864
44563W        W13036  10.143  39.469   2.270
44564W        W13037  19.580  16.680   4.323
44565W        W13038  36.593  21.167   0.407
44566W        W13039  35.522  19.194  12.090
44567W        W13040   2.809   6.386  11.888
44568W        W13041  39.880  32.938  12.095
44569W        W13042  14.807  35.882   2.268
44570W        W13043  44.782  41.465   4.187
44571W        W13044   8.861  44.378   4.677
44572W        W13045  27.946   5.343   3.234
44573W        W13046  37.386   1.438  14.832
44574W        W13047  13.113   5.312   4.116
44575W        W13048  35.905  14.241  13.319
44576W        W13049   6.217   9.739   2.383
44577W        W13050  29.022  29.176   0.851
44578W        W13051   7.188   0.268   3.296
44579W        W13052  14.228  11.181   1.215
44580W        W13053  18.111  43.334   0.448
44581W        W13054  24.178   9.314  14.933
44582W        W13055   1.482  19.068   3.637
44583W        W13056  15.212  28.589  12.895
44584W        W13057  16.601  28.085   4.211
44585W        W13058  33.115  17.630   2.326
44586W        W13059  35.546  42.371   1.867
44587W        W13060  18.633  30.536   3.228
44588W        W13061  32.960  34.902   3.790
44589W        W13062   4.728  23.084  14.297
44590W        W13063   8.352  11.708   2.250
44591W        W13064  29.582   8.674  10.920
44592W        W13065   0.400  34.966  13.307
44593W        W13066  37.581  42.839  10.469
44594W        W13067  10.849  35.872  11.467
44595W        W13068  12.837  12.233   0.468
44596W        W13069  39.441  27.147  13.432
44597W        W13070  27.481  30.997  12.931
44598W        W13071  28.072  34.424   2.672
44599W        W13072  37.461  18.765   4.815
44600W        W13073  20.180  11.828   5.290
44601W        W13074  18.664  16.575   3.816
44602W        W13075   2.933  26.568   3.235
44603W        W13076  33.573   5.732   0.457
44604W        W13077  12.313   3.441   0.780
44605W        W13078  42.994   5.774   4.788
44606W        W13079  21.200  26.192  12.451
44607W        W13080  10.633  30.620  14.818
44608W        W13081  42.852  29.938   0.258
44609W        W13082  10.835  41.397  13.015
44610W        W13083  43.501  41.832  11.094
44611W        W13084  28.149  23.654  12.454
44612W        W13085  19.644   0.982   3.661
44613W        W13086  25.983  43.293  14.987
44614W        W13087   8.685   2.301   0.747
44615W        W13088  35.103   6.782   0.933
44616W        W13089  32.527   3.255   1.438
44617W        W13090   5.759  21.551  13.940
44618W        W13091  26.159  30.027   4.351
44619W        W13092  38.535  16.714  13.427
44620W        W13093  39.062  26.039  14.002
44621W        W13094   3.838  43.844   1.862
44622W        W13095  39.463  38.447   4.309
44623W        W13096  31.951  32.608   3.172
44624W        W13097  27.021  24.223   0.384
44625W        W13098   3.271   8.733   3.307
44626W        W13099  18.227  16.284  13.483
44627W        W13100  39.425  32.136  14.840
44628W        W13101  36.494  17.242   1.857
44629W        W13102   3.867  25.693   0.331
44630W        W13103  41.356  12.361  10.576
44631W        W13104  29.961  42.413  13.363
44632W        W13105  27.170  41.368  10.442
44633W        W13106   3.899  26.527  10.028
44634W        W13107  33.437  23.520   9.941
44635W        W13108  30.642  21.573   4.240
44636W        W13109   8.658  42.882   4.757
44637W        W13110   0.414  21.677   2.301
44638W        W13111  13.217  39.878  11.051
44639W        W13112  30.972  11.247   2.347
44640W        W13113  21.582   3.448  10.891
44641W        W13114  19.736   7.369  10.569
44642W        W13115  41.389  29.441   0.287
44643W        W13116   5.326  17.237  12.557
44644W        W13117  14.798  38.431   1.345
44645W        W13118  35.486  13.722  13.943
44646W        W13119  32.457  21.047  13.504
44647W        W13120   7.834  26.048   0.916
44648W        W13121  26.046  28.970  12.428
44649W        W13122  18.163   0.268  14.838
44650W        W13123  34.047  17.736   4.338
44651W        W13124  24.174  16.724   0.371
44652W        W13125  10.816   3.402   2.747
44653W        W13126  24.024  26.131  12.874
44654W        W13127  38.341  23.684   4.135
44655W        W13128   4.240   1.440  14.360
44656W        W13129  12.323  18.647  10.562
44657W        W13130  37.448  20.580   4.838
44658W        W13131  37.557  10.285  11.093
44659W        W13132  19.604  22.569  12.390
44660W        W13133  25.476  26.550  11.902
44661W        W13134  27.672  16.755  14.974
44662W        W13135  28.016  21.733  11.383
44663W        W13136   5.344  30.917   4.170
44664W        W13137  29.560  10.297  12.571
44665W        W13138  27.680   2.733  11.502
44666W        W13139  40.861  16.100  12.965
44667W        W13140  24.007  23.562   2.694
44668W        W13141   6.906  37.900   2.835
44669W        W13142  30.069   2.900   1.366
44670W        W13143  36.070  15.301  12.982
44671W        W13144   6.239  41.415  14.903
44672W        W13145   5.256  31.962  10.922
44673W        W13146  17.241   6.198  11.432
44674W        W13147  44.278   9.344   4.778
44675W        W13148  42.810   8.343   2.837
44676W        W13149  33.072  32.475   1.412
44677W        W13150  19.721  32.972   3.259
44678W        W13151  10.878  26.701  11.438
44679W        W13152  24.024  27.952   1.864
44680W        W13153   2.268  37.870  11.909
44681W        W13154   5.730   9.369   1.251
44682W        W13155  30.105  43.019  10.559
44683W        W13156  29.155  18.073  13.518
44684W        W13157  10.699  42.934   0.339
44685W        W13158  14.214  33.934  11.972
44686W        W13159   7.894  24.624  10.510
44687W        W13160  44.983   0.917   3.675
44688W        W13161  13.756  36.846  13.448
44689W        W13162  30.628   0.878   3.148
44690W        W13163  34.439  37.845  11.029
44691W        W13164  11.272   2.820  11.445
44692W        W13165  21.632   8.404   1.388
44693W        W13166  16.588  14.246  10.542
44694W        W13167  42.328  15.227   0.277
44695W        W13168   3.433   2.435  10.910
44696W        W13169  42.411  37.925  11.526
44697W        W13170   7.213  18.618   3.254
44698W        W13171  33.597  29.998  10.568
44699W        W13172  15.249   0.943  12.420
44700W        W13173  37.010  17.768   2.736
44701W        W13174  21.048  21.731   1.802
44702W        W13175   4.804  43.285   2.828
44703W        W13176  15.223   2.802   3.679
44704W        W13177  20.176  27.672   4.757
44705W        W13178  36.405   3.374  12.544
44706W        W13179   7.785   9.183  12.082
44707W        W13180   7.246   2.375  10.612
44708W        W13181   2.799   5.898  12.442
44709W        W13182  28.565  30.916   0.881
44710W        W13183  34.475   5.757  12.895
44711W        W13184  16.281  17.573  10.456
44712W        W13185  25.705  31.597  10.436
44713W        W13186  26.147  33.479   3.714
44714W        W13187  38.511   0.460  14.919
44715W        W13188  31.138  11.794   4.156
44716W        W13189  39.964  16.078  10.982
44717W        W13190   0.910  12.649  11.451
44718W        W13191  40.918  39.499  14.412
44719W        W13192  24.643  31.942  11.087
44720W        W13193  33.876  12.650  12.058
44721W        W13194  21.710  18.586   4.233
44722W        W13195  40.491  30.572   5.119
44723W        W13196  18.284  41.374   3.354
44724W        W13197   2.426  40.047  14.839
44725W        W13198  26.475  24.013  12.476
44726W        W13199  15.671  43.839  10.066
44727W        W13200   3.389  29.529  11.881
44728W        W13201  28.002  27.116   0.793
44729W        W13202   2.247  38.018  12.902
44730W        W13203  22.735  40.473  11.994
44731W        W13204  27.550  37.429  10.490
44732W        W13205  16.756  32.954  11.487
44733W        W13206  16.198  43.318   2.780
44734W        W13207  26.113  28.662  10.981
44735W        W13208  14.698  37.903   1.321
44736W        W13209  10.276  12.206   1.922
44737W        W13210  41.509  16.231   0.371
44738W        W13211  33.992  10.678   3.858
44739W        W13212  21.684   9.795  14.766
44740W        W13213  18.109  42.459   0.429
44741W        W13214  32.088  20.085  10.451
44742W        W13215  25.705   9.814   1.703
44743W        W13216   3.717  44.769  12.393
44744W        W13217  29.112  30.031  13.464
44745W        W13218  18.700  31.959  11.101
44746W        W13219  38.569  16.774  14.903
44747W        W13220  31.453  22.198   2.891
44748W        W13221   1.784  39.504   4.344
44749W        W13222   0.777  42.317  14.430
44750W        W13223  27.607   1.308  13.365
44751W        W13224  42.963  22.657   3.175
44752W        W13225  27.531  20.188  14.382
44753W        W13226  41.877  31.045  12.917
44754W        W13227   3.350   9.201  13.016
44755W        W13228  26.461   0.824  10.409
44756W        W13229  11.649   9.384   4.298
44757W        W13230   0.913  17.089   3.331
44758W        W13231  37.556   0.395   2.862
44759W        W13232  21.618  17.219  10.963
44760W        W13233  44.818  12.643  14.432
44761W        W13234  34.092   5.917   1.729
44762W        W13235  22.110  44.334   3.771
44763W        W13236  23.580   4.818   2.257
44764W        W13237  14.233  20.552   0.284
44765W        W13238  35.045   4.844   1.855
44766W        W13239  32.582   8.716  14.796
44767W        W13240  29.125   9.341  12.497
44768W        W13241  21.110   3.437   2.750
44769W        W13242  13.154  17.279   1.822
44770W        W13243  35.861  44.783   0.844
44771W        W13244  38.044  32.911  14.872
44772W        W13245   3.356  36.047   2.714
44773W        W13246  31.077   5.773   4.702
44774W        W13247  37.889  19.639   4.283
44775W        W13248  34.878  32.398   3.169
44776W        W13249  14.830  41.796  12.025
44777W        W13250   7.873  13.130   3.700
44778W        W13251  12.170   7.864   0.769
44779W        W13252  32.058  12.235  13.526
44780W        W13253  18.556   0.892   0.443
44781W        W13254   3.755  12.816  12.039
44782W        W13255  16.691   3.866  11.085
44783W        W13256  28.632  21.222   4.207
44784W        W13257  29.099  24.513   3.148
44785W        W13258  33.406  27.193   1.210
44786W        W13259  22.056   0.434  12.906
44787W        W13260   5.432   8.325  11.514
44788W        W13261  25.491   5.751   3.364
44789W        W13262   3.412  42.290  12.345
44790W        W13263  12.316  33.474   0.837
44791W        W13264  35.985  29.021  14.778
44792W        W13265   8.179  30.066  10.424
44793W        W13266  27.076  44.323   3.225
44794W        W13267  37.042  16.695   1.846
44795W        W13268  11.743  24.192   3.795
44796W        W13269  14.207  19.568  13.968
44797W        W13270   1.898  13.752   4.115
44798W        W13271   2.399   0.406  11.538
44799W        W13272  24.652  27.684  13.382
44800W        W13273  37.012  36.863  11.382
44801W        W13274  34.878  42.455  11.896
44802W        W13275   0.305   3.250   3.847
44803W        W13276   1.242   8.313  10.916
44804W        W13277  19.282   8.889   0.881
44805W        W13278  29.425  33.978  14.963
44806W        W13279  17.245  12.188   2.203
44807W        W13280  29.942  25.660   2.413
44808W        W13281  29.922   2.872   1.771
44809W        W13282  35.406  39.855  13.325
44810W        W13283  40.015  22.698   2.742
44811W        W13284  38.041  23.501   1.290
44812W        W13285  44.807  44.297  14.820
44813W        W13286   5.393   8.365   0.456
44814W        W13287  21.213  17.703  14.783
44815W        W13288  33.877  31.521  10.430
44816W        W13289  33.407  11.644   3.179
44817W        W13290  31.116   5.801   1.385
44818W        W13291  37.852  16.088  14.296
44819W        W13292   8.291  29.116   4.612
44820W        W13293  40.959  18.204  14.350
44821W        W13294  19.146  26.991   2.366
44822W        W13295  17.232   3.750  13.902
44823W        W13296  32.591  13.322  11.990
44824W        W13297  32.469  36.540  12.056
44825W        W13298   9.201  19.152   1.874
44826W        W13299   1.241  16.267   1.316
44827W        W13300  31.936  25.669   4.838
44828W        W13301  33.909   4.922   0.811
44829W        W13302  26.683  29.997  12.020
44830W        W13303  18.286  12.762  13.440
44831W        W13304  15.243  21.687   1.296
44832W        W13305  17.250  15.695   0.788
44833W        W13306  13.812  39.948   3.350
44834W        W13307  39.422  30.117  11.007
44835W        W13308  10.838   6.738   1.876
44836W        W13309  37.858  30.137  10.935
44837W        W13310   8.175  27.642   3.351
44838W        W13311  26.020   9.791  12.407
44839W        W13312  27.182  33.877   2.260
44840W        W13313   8.798  24.126  14.463
44841W        W13314  33.023  12.641  14.804
44842W        W13315   5.200  16.772   4.649
44843W        W13316   9.243   4.291  13.791
44844W        W13317  34.018   2.864  10.608
44845W        W13318   5.253  16.678   5.680
44846W        W13319  21.688   4.793   2.662
44847W        W13320  38.003  43.375  14.870
44848W        W13321   0.437  32.063   4.670
44849W        W13322  26.503  33.388  14.387
44850W        W13323  39.391  17.278  14.340
44851W        W13324  25.547   5.357   3.156
44852W        W13325  14.228  40.926  11.006
44853W        W13326  13.671  29.643  13.486
44854W        W13327   4.266  12.707   3.168
44855W        W13328  12.284  32.106  11.021
44856W        W13329   6.374  18.618   5.306
44857W        W13330  44.900  18.600   1.273
44858W        W13331  26.699   7.910   4.643
44859W        W13332   1.306   9.714   3.845
44860W        W13333  16.693   3.290  11.536
44861W        W13334  31.639  40.998   9.461
44862W        W13335  25.056  43.274  11.462
44863W        W13336   3.784  21.610   1.288
44864W        W13337   2.299   6.749   0.245
44865W        W13338  19.757  13.127  14.768
44866W        W13339  30.979  37.565  11.606
44867W        W13340  42.981  20.556  14.838
44868W        W13341  18.294   8.723   2.368
44869W        W13342  23.125   6.853  14.856
44870W        W13343  25.041  25.482   1.232
44871W        W13344  18.209  12.752   4.133
44872W        W13345  41.007  28.679   3.368
44873W        W13346   9.719  22.637  14.983
44874W        W13347  33.045  43.401  10.642
44875W        W13348  31.514  44.993   4.717
44876W        W13349  28.039  17.628   3.325
44877W        W13350  36.054  35.021  13.794
44878W        W13351  11.648  19.730   0.332
44879W        W13352  17.628  14.207   3.871
44880W        W13353  19.080  14.654  10.958
44881W        W13354  29.456   8.397  11.452
44882W        W13355  26.512  11.270  12.382
44883W        W13356  18.086  38.977   0.316
44884W        W13357  29.527  36.045  13.935
44885W        W13358  34.904  20.251   3.274
44886W        W13359  22.197  25.520   4.139
44887W        W13360   0.805  23.209  11.434
44888W        W13361  16.811  37.517  11.078
44889W        W13362   4.700  10.650  11.040
44890W        W13363  11.836  44.003  14.836
44891W        W13364  35.471  42.984   3.335
44892W        W13365  13.742   3.459   1.217
44893W        W13366  25.468  31.999   4.177
44894W        W13367   0.862  32.002   1.763
44895W        W13368  28.103  32.501  14.024
44896W        W13369  32.902  19.054  12.403
44897W        W13370  40.001  31.457   1.703
44898W        W13371  14.618  38.334   0.289
44899W        W13372  18.227  44.500  13.388
44900W        W13373  10.259  32.563   1.290
44901W        W13374  13.802  42.918  13.417
44902W        W13375   4.892  33.465   3.309
44903W        W13376  21.042   3.859  14.342
44904W        W13377  18.246  42.853   0.765
44905W        W13378  38.875  39.893  10.984
44906W        W13379  28.628  34.432  14.487
44907W        W13380  23.032  24.121  11.451
44908W        W13381  27.070  30.061  10.433
44909W        W13382  24.644  11.240   3.386
44910W        W13383  34.000   2.254  14.813
44911W        W13384  14.735  18.074   3.187
44912W        W13385  43.271  22.656   4.740
44913W        W13386  20.153   5.792   1.349
44914W        W13387  40.968  28.452  13.813
44915W        W13388  23.048  27.098  11.919
44916W        W13389   4.812  29.966  13.000
44917W        W13390  12.802  28.497   1.854
44918W        W13391  11.784   3.895  11.012
44919W        W13392  37.568  10.734  12.364
44920W        W13393  40.314  43.903  13.007
44921W        W13394  41.295  33.912  11.950
44922W        W13395   9.722  22.172  14.328
44923W        W13396  10.277  34.535  13.867
44924W        W13397   8.858  11.319   3.337
44925W        W13398  18.655  34.958  14.349
44926W        W13399   9.235  42.364  14.347
44927W        W13400  38.487  26.463  12.939
44928W        W13401  18.740  25.666   0.367
44929W        W13402  41.517  27.668   4.320
44930W        W13403   9.836  24.181   3.858
44931W        W13404  24.700   4.768   4.630
44932W        W13405  21.240  41.342   2.335
44933W        W13406  37.417   4.933  13.472
44934W        W13407  12.762  26.621  11.084
44935W        W13408  24.640  17.781  11.891
44936W        W13409  23.160  19.718   2.407
44937W        W13410  26.642  29.489  14.296
44938W        W13411  19.764   1.968   3.383
44939W        W13412  28.056  16.660  10.979
44940W        W13413  24.182  33.926  13.539
44941W        W13414  30.144  14.593  14.505
44942W        W13415  22.547  30.481  12.004
44943W        W13416  15.585  12.611   3.702
44944W        W13417  24.992  26.472  13.950
44945W        W13418  35.091   2.863  10.502
44946W        W13419  38.043  21.150   4.640
44947W        W13420  30.579  15.616  14.340
44948W        W13421   8.781   0.253   1.909
44949W        W13422  21.650  32.519   1.913
44950W        W13423  10.779  10.691   1.226
44951W        W13424  10.194   5.283  14.929
44952W        W13425   6.319   7.261  14.396
44953W        W13426  10.226  22.667   4.787
44954W        W13427  17.687  36.549   4.294
44955W        W13428   1.241  31.985   0.935
44956W        W13429   9.701  33.623  11.465
44957W        W13430   7.898  33.384  14.858
44958W        W13431  25.714   4.378  13.952
44959W        W13432  22.016   7.710   2.780
44960W        W13433  30.504  15.633   1.703
44961W        W13434  10.872  27.133  13.421
44962W        W13435  16.716   0.321   3.802
44963W        W13436  15.181  37.439  12.847
44964W        W13437   7.288  31.441  14.459
44965W        W13438  23.559  10.736   1.356
44966W        W13439   8.368  38.545   1.931
44967W        W13440   5.867  23.139   2.825
44968W        W13441   1.301  22.157  12.909
44969W        W13442   6.761   6.875   0.733
44970W        W13443  17.644  21.568  10.644
44971W        W13444  24.581  44.913  13.316
44972W        W13445  44.341  24.718   1.798
44973W        W13446   3.784  37.059  13.811
44974W        W13447  28.182  12.783  13.396
44975W        W13448   0.913  14.105  10.478
44976W        W13449   5.927  14.781   0.912
44977W        W13450  40.971  22.124  10.963
44978W        W13451  13.638  41.937  13.974
44979W        W13452  27.153  39.397  12.430
44980W        W13453   1.779  40.046  11.452
44981W        W13454   0.316  20.223   0.351
44982W        W13455  25.061  31.072  13.027
44983W        W13456  33.919  40.307  10.898
44984W        W13457  28.487  40.009   2.255
44985W        W13458  16.293  10.286  12.537
44986W        W13459  18.146  35.986   4.752
44987W        W13460  36.390  14.687   3.313
44988W        W13461  18.179   6.855  12.057
44989W        W13462  39.351  28.931   1.358
44990W        W13463  25.008  26.538  11.016
44991W        W13464  31.540  34.886  10.469
44992W        W13465  34.458  19.681   0.814
44993W        W13466  35.373  21.747   0.341
44994W        W13467  15.696  22.106   0.833
44995W        W13468  29.495  33.933   2.315
44996W        W13469  15.214   3.717   0.419
44997W        W13470  33.879  12.852  10.483
44998W        W13471  38.029  13.620  14.385
44999W        W13472  10.697  10.826  10.423
45000W        W13473  28.031  22.630   5.225
45001W        W13474  33.890  27.644   1.825
45002W        W13475  11.647  21.603   4.174
45003W        W13476  10.167  39.317  14.438
45004W        W13477   9.713  44.431   1.304
45005W        W13478  19.548  38.895  10.506
45006W        W13479  17.757   0.811   2.665
45007W        W13480  17.642   1.970  14.929
45008W        W13481   5.804  38.985  12.086
45009W        W13482  30.556  29.618  13.515
45010W        W13483  14.674  43.455   0.310
45011W        W13484  31.615  39.551   0.866
45012W        W13485   8.688   2.360   2.193
45013W        W13486  19.048  34.488   2.256
45014W        W13487  21.215  17.220   0.928
45015W        W13488  34.082  10.859   4.237
45016W        W13489  35.373  24.670  10.463
45017W        W13490   9.298  15.651  14.892
45018W        W13491   5.390  41.876  14.432
45019W        W13492  24.626  36.927   1.303
45020W        W13493   7.845  10.748   3.293
45021W        W13494  44.448   2.788   3.194
45022W        W13495  39.496  28.456   3.255
45023W        W13496   8.178   8.220  14.313
45024W        W13497   5.799  26.555  14.967
45025W        W13498  37.086  38.899   0.928
45026W        W13499  36.388  36.388   0.293
45027W        W13500   1.347  36.503  12.385
45028W        W13501  38.564  40.972   2.898
45029W        W13502  20.066  39.819   3.713
45030W        W13503   1.319  43.838  13.038
45031W        W13504   8.802   0.334  10.596
45032W        W13505  11.355  30.918  13.016
45033W        W13506  42.348   3.886  11.447
45034W        W13507  26.045  15.800  11.954
45035W        W13508   3.458   6.772   3.721
45036W        W13509   8.317  18.230  11.113
45037W        W13510  10.367   5.810  13.335
45038W        W13511  22.635  33.456   1.782
45039W        W13512  32.987  13.239   3.720
45040W        W13513  18.058   2.901   4.210
45041W        W13514  22.737   0.489   9.946
45042W        W13515  18.746  32.609   1.338
45043W        W13516  36.078  32.428   0.319
45044W        W13517  27.065  25.207  13.828
45045W        W13518  22.548  13.280  10.626
45046W        W13519  38.356  18.074   2.319
45047W        W13520  33.542   3.341  13.336
45048W        W13521  26.660   7.856   0.894
45049W        W13522  18.647  34.949  12.340
45050W        W13523  23.592   9.254  11.107
45051W        W13524  38.873  29.973   1.212
45052W        W13525  38.899  40.359   4.133
45053W        W13526  21.701   0.389   2.867
45054W        W13527  36.518  26.204  11.931
45055W        W13528  31.612  19.196   4.208
45056W        W13529  33.588  36.019   3.326
45057W        W13530  36.041  32.634  12.364
45058W        W13531   0.958  31.028   0.964
45059W        W13532   0.351   2.266  13.010
45060W        W13533   8.823  36.901  11.585
45061W        W13534  16.247  37.411  10.055
45062W        W13535  42.346   5.750  14.969
45063W        W13536  22.206  11.251   1.210
45064W        W13537   3.459   7.850  12.985
45065W        W13538  37.945  41.455  10.512
45066W        W13539  11.834  29.521  10.444
45067W        W13540  24.138  12.720   0.793
45068W        W13541  28.175  17.660  12.963
45069W        W13542  13.619  10.354   4.723
45070W        W13543  36.897  39.328   4.772
45071W        W13544  26.609   2.378  11.061
45072W        W13545  41.477  10.372  11.575
45073W        W13546  39.982  21.129  14.791
45074W        W13547  20.213  12.671  13.386
45075W        W13548  36.877  21.652   4.167
45076W        W13549   1.753  25.563   0.738
45077W        W13550  17.242  30.106  11.453
45078W        W13551  35.035   7.732   2.761
45079W        W13552  11.357  28.971   2.665
45080W        W13553  17.701  35.023   1.931
45081W        W13554  15.260  17.659   1.739
45082W        W13555  25.560  14.673  14.852
45083W        W13556  43.851  13.145   3.195
45084W        W13557  25.113   2.831  11.869
45085W        W13558  13.147  41.474  13.795
45086W        W13559  23.664  17.300  14.877
45087W        W13560  43.974  25.981  13.501
45088W        W13561  18.162  24.588   4.663
45089W        W13562  21.201  11.275  10.480
45090W        W13563  38.034  34.498   1.774
45091W        W13564  23.584  16.248   0.300
45092W        W13565  28.676   0.466  13.406
45093W        W13566  13.722  18.762   0.466
45094W        W13567  37.577   1.918   3.694
45095W        W13568   7.745  13.822   2.719
45096W        W13569  19.147  33.601   0.959
45097W        W13570   5.323  36.949   2.287
45098W        W13571  30.412  27.051  13.916
45099W        W13572  11.212  37.000  13.928
45100W        W13573   5.430  16.298   1.278
45101W        W13574   6.323  19.553   1.932
45102W        W13575  40.895   7.326   3.300
45103W        W13576  43.495   7.404   4.158
45104W        W13577  39.941   9.696   3.773
45105W        W13578  43.804   4.266   4.212
45106W        W13579  11.717  17.599  12.457
45107W        W13580   1.246   4.345  12.530
45108W        W13581  30.463  37.491   2.724
45109W        W13582  37.394  12.738  14.916
45110W        W13583  32.980  18.154   0.823
45111W        W13584  27.120  27.618   4.233
45112W        W13585  42.029  15.231   1.301
45113W        W13586  22.084  27.609   9.930
45114W        W13587  34.450  13.173  11.527
45115W        W13588  26.201  31.577   1.447
45116W        W13589  31.910  39.363  10.424
45117W        W13590  16.146  40.529   3.245
45118W        W13591  42.986   5.693  10.472
45119W        W13592  21.674   6.751   1.898
45120W        W13593  26.459  35.047  13.317
45121W        W13594  29.930  24.081  10.464
45122W        W13595   0.485  35.936  10.949
45123W        W13596  42.963   1.785  14.320
45124W        W13597  36.863  25.568   3.736
45125W        W13598  14.695  12.671   0.789
45126W        W13599  37.580  30.459   4.319
45127W        W13600  19.109  35.023   4.799
45128W        W13601  41.417  10.303   3.338
45129W        W13602  38.453  23.664  13.337
45130W        W13603  22.096  38.535  14.840
45131W        W13604  36.992  30.425   0.292
45132W        W13605  20.244   8.843  10.901
45133W        W13606  23.203  33.023   4.273
45134W        W13607  27.650  37.543  14.470
45135W        W13608   8.695   1.905   2.681
45136W        W13609   9.315  26.034   3.864
45137W        W13610   3.807   1.276  10.500
45138W        W13611  42.021  32.547  14.326
45139W        W13612  33.508  19.538  10.487
45140W        W13613  12.198   5.890  11.023
45141W        W13614  43.494  25.156   0.849
45142W        W13615  21.585   4.855   4.278
45143W        W13616   4.419   5.199   2.335
45144W        W13617   5.229  36.533  13.419
45145W        W13618  43.972   5.381  10.614
45146W        W13619  20.612  42.909  14.932
45147W        W13620   0.909  37.402   1.850
45148W        W13621  20.701  16.180   3.267
45149W        W13622   2.328  33.084  12.479
45150W        W13623  23.713  38.024  10.976
45151W        W13624  29.999  44.932   3.642
45152W        W13625  38.349  32.399   2.721
45153W        W13626   4.807  39.392   3.190
45154W        W13627  28.654   1.248  11.087
45155W        W13628  15.325  25.639  11.906
45156W        W13629  11.655   3.832   1.792
45157W        W13630  36.924  39.856  12.352
45158W        W13631  34.895  33.623   5.124
45159W        W13632  18.136  16.170   2.408
45160W        W13633  14.152  14.172   2.200
45161W        W13634  16.233   7.266   2.283
45162W        W13635  35.369  27.113   3.280
45163W        W13636  34.898  18.627  14.318
45164W        W13637  22.070  17.184  14.916
45165W        W13638  28.569   9.306   4.317
45166W        W13639  28.018  41.531   4.283
45167W        W13640  16.809  36.030  12.557
45168W        W13641   8.251  22.209   3.755
45169W        W13642  36.435   8.221   0.277
45170W        W13643  40.843  43.839   4.679
45171W        W13644  15.311   7.875  12.413
45172W        W13645  27.478  33.878   3.671
45173W        W13646  23.523  13.349   0.771
45174W        W13647   2.316  11.733  10.035
45175W        W13648   3.273   8.246   0.462
45176W        W13649  21.248   1.905   2.258
45177W        W13650   6.680  17.794  10.548
45178W        W13651  16.297  20.751  14.938
45179W        W13652  21.722   6.866  11.504
45180W        W13653  29.048   1.388  11.860
45181W        W13654   1.916  14.174   2.699
45182W        W13655   5.227  22.148   1.274
45183W        W13656   5.819  43.278  11.957
45184W        W13657  40.315  20.070  14.288
45185W        W13658  42.958  19.108   2.394
45186W        W13659   0.898  35.856   0.298
45187W        W13660   5.926  35.441   0.335
45188W        W13661   1.939  44.851   1.751
45189W        W13662  17.589  41.820   2.200
45190W        W13663  28.505  29.922  11.918
45191W        W13664  39.374  30.052  10.625
45192W        W13665  41.526  44.823   0.468
45193W        W13666  41.997   1.432  14.887
45194W        W13667  29.094   9.192   1.275
45195W        W13668  24.534  14.670   2.753
45196W        W13669  23.613  24.026  12.359
45197W        W13670  13.646  27.955  12.366
45198W        W13671  15.125  31.950   2.755
45199W        W13672  15.141  31.077  13.370
45200W        W13673  30.151   0.454   3.853
45201W        W13674  39.853   8.237  14.981
45202W        W13675  42.510  42.825   4.241
45203W        W13676  28.677  39.881  14.342
45204W        W13677  10.237  25.638   2.351
45205W        W13678  16.189  27.537   0.456
45206W        W13679  37.455  15.218  13.543
45207W        W13680  32.002  11.289  10.055
45208W        W13681  29.602  35.969   1.315
45209W        W13682  14.152   0.458  12.374
45210W        W13683  28.662  14.733   3.198
45211W        W13684  32.110  41.986  11.008
45212W        W13685   6.328  17.568   4.673
45213W        W13686  21.054   2.790  12.479
45214W        W13687  13.808  13.264  12.949
45215W        W13688  25.134  38.456  12.865
45216W        W13689  41.843  41.918   2.704
45217W        W13690   1.334  10.855  12.448
45218W        W13691  37.575  44.898  11.863
45219W        W13692  15.108   7.180  10.904
45220W        W13693  15.189   2.271   1.740
45221W        W13694  34.575  13.649  12.541
45222W        W13695  28.004  11.811  13.851
45223W        W13696  22.599  37.925  12.507
45224W        W13697  34.418  14.803  14.447
45225W        W13698  34.052  38.843  11.595
45226W        W13699  22.224  19.647   5.162
45227W        W13700  23.130  14.656   1.441
45228W        W13701  33.110   6.689  14.452
45229W        W13702   3.879  14.203  10.594
45230W        W13703  35.586  38.430   2.383
45231W        W13704  20.606  14.819   5.097
45232W        W13705   9.815  42.509  14.866
45233W        W13706  42.473   3.745  13.804
45234W        W13707   4.852  22.115  14.962
45235W        W13708   2.345  13.815  14.879
45236W        W13709  19.047  35.976   3.240
45237W        W13710  33.418  22.608   2.757
45238W        W13711  27.187  20.197   1.224
45239W        W13712  20.132  30.043  14.846
45240W        W13713   7.374  20.551   3.342
45241W        W13714  37.527  37.975   4.200
45242W        W13715   2.413  16.734   1.276
45243W        W13716  39.923  23.122   0.748
45244W        W13717  33.623  41.947   0.480
45245W        W13718  21.220  12.194   4.337
45246W        W13719  31.131   6.335  10.636
45247W        W13720   2.853   8.287   2.797
45248W        W13721  12.136   7.687  10.954
45249W        W13722  40.306  29.131   5.257
45250W        W13723   0.490  38.893  14.451
45251W        W13724  28.985  15.248  14.442
45252W        W13725  16.298  42.868  11.413
45253W        W13726   4.204   0.953  14.404
45254W        W13727   2.399   8.711   1.321
45255W        W13728  37.391  18.788   4.230
45256W        W13729  30.909   3.329  14.302
45257W        W13730   9.794   1.261  14.924
45258W        W13731  21.619  18.718  14.014
45259W        W13732   9.158  42.800  14.917
45260W        W13733   3.358   1.811  11.542
45261W        W13734  40.814  39.024   0.289
45262W        W13735  30.485  23.611  13.008
45263W        W13736  17.226  42.829   5.233
45264W        W13737  35.371  28.468  11.096
45265W        W13738   5.285   0.382  11.954
45266W        W13739  16.674   4.766   2.388
45267W        W13740  16.811  38.526   1.322
45268W        W13741  43.003  14.290  11.549
45269W        W13742  23.107  34.391  10.927
45270W        W13743  13.171  43.005   1.435
45271W        W13744  20.240  42.821   4.647
45272W        W13745   0.780   7.398   5.083
45273W        W13746  25.633  44.947  14.399
45274W        W13747  34.917   8.748  13.952
45275W        W13748   2.739  30.476  12.363
45276W        W13749  13.121  28.588  12.027
45277W        W13750  34.999  21.627  10.558
45278W        W13751  32.057  24.561  10.644
45279W        W13752  36.463  30.087   3.849
45280W        W13753  18.109  27.951  10.481
45281W        W13754  32.097  33.577   3.844
45282W        W13755  22.636  16.313  13.064
45283W        W13756  13.725   5.228  10.496
45284W        W13757  10.846   3.402  14.003
45285W        W13758   8.233  43.311  11.030
45286W        W13759  36.554  23.052  12.480
45287W        W13760  34.005  20.119   1.402
45288W        W13761  22.189  32.536  13.537
45289W        W13762  17.247   3.764   2.702
45290W        W13763  43.414  10.350   3.265
45291W        W13764  21.040   7.747   0.886
45292W        W13765  13.781  19.757  12.340
45293W        W13766  16.130  39.530   3.246
45294W        W13767  20.188  40.351  12.485
45295W        W13768  42.877  25.654   3.781
45296W        W13769  40.402  22.631  12.966
45297W        W13770  21.084   4.707   4.153
45298W        W13771  37.399   2.375   3.320
45299W        W13772  33.933   3.794  14.305
45300W        W13773  13.653  38.360  14.019
45301W        W13774  18.754  43.001  11.612
45302W        W13775   5.282   8.318   3.866
45303W        W13776  18.724  10.143  10.623
45304W        W13777  31.605  17.131   0.452
45305W        W13778  21.216  31.522  13.531
45306W        W13779  39.874  40.861   4.251
45307W        W13780  10.853   4.845  12.436
45308W        W13781  12.785  37.937   1.832
45309W        W13782   3.447  12.153   0.937
45310W        W13783  40.932  37.016   2.745
45311W        W13784  33.987  18.649   4.330
45312W        W13785   3.738   8.202   3.662
45313W        W13786  23.096  35.065  14.878
45314W        W13787  22.244  28.614  10.931
45315W        W13788  21.638  39.465  11.571
45316W        W13789  16.650  31.010   3.738
45317W        W13790  43.907   6.288  14.809
45318W        W13791  25.156  40.821  12.875
45319W        W13792   1.356  43.302  11.609
45320W        W13793   5.277  24.005  14.011
45321W        W13794  32.564  44.407  10.425
45322W        W13795   0.764   2.377   1.708
45323W        W13796  37.341  32.920   2.181
45324W        W13797   0.459   4.767  14.985
45325W        W13798  28.094   0.943   1.828
45326W        W13799  23.198   7.839  12.932
45327W        W13800  43.826   9.208  12.547
45328W        W13801  13.226  43.845  14.437
45329W        W13802   1.371  26.697   2.873
45330W        W13803  32.393  23.539  13.941
45331W        W13804   2.765   6.216   0.264
45332W        W13805  34.990  10.354   5.093
45333W        W13806  12.247  35.458   2.732
45334W        W13807  35.096  20.681  14.906
45335W        W13808  24.577   5.805   4.737
45336W        W13809  25.996  25.151  10.537
45337W        W13810  27.541   7.313   2.701
45338W        W13811  28.659   1.268  14.472
45339W        W13812  30.614   5.918  14.320
45340W        W13813  40.810  44.832  11.399
45341W        W13814  36.032  22.123   0.931
45342W        W13815   8.357  15.216   2.688
45343W        W13816  23.045  26.519  10.593
45344W        W13817  40.824  44.468  14.986
45345W        W13818  28.666  17.668  13.901
45346W        W13819   2.356   6.187   9.922
45347W        W13820  17.293   7.173   2.685
45348W        W13821  19.089  32.502  10.569
45349W        W13822  26.614   8.819  12.423
45350W        W13823  12.204   1.320  11.023
45351W        W13824  33.557   2.349   4.599
45352W        W13825  21.079  17.784  10.987
45353W        W13826   8.655  35.901   1.400
45354W        W13827  10.253   8.219  12.429
45355W        W13828  32.402   7.903  14.337
45356W        W13829  21.596   4.380   4.306
45357W        W13830  25.970  24.200   4.793
45358W        W13831  40.401  23.730  12.543
45359W        W13832   9.330  25.694   9.576
45360W        W13833   0.413  38.420   3.213
45361W        W13834  18.182  27.573  14.769
45362W        W13835   9.803  13.758  12.349
45363W        W13836  43.291  41.349   0.858
45364W        W13837  40.841  15.271  14.973
45365W        W13838  40.930  36.018  10.933
45366W        W13839  44.785  44.459   0.768
45367W        W13840  35.087  34.966  14.471
45368W        W13841  19.108  14.640  10.527
45369W        W13842  33.434  39.871  12.430
45370W        W13843  25.964   2.741  12.035
45371W        W13844  43.809  25.634   3.216
45372W        W13845   8.762  29.063   4.258
45373W        W13846  38.545  40.902   4.230
45374W        W13847  21.675  10.271  14.351
45375W        W13848  34.544  24.229   3.271
45376W        W13849  44.008  39.371   3.732
45377W        W13850  25.993  43.801  14.298
45378W        W13851  16.717  37.027  13.828
45379W        W13852   7.331  42.444   1.402
45380W        W13853   2.368  37.366   1.404
45381W        W13854  20.667   6.883  12.342
45382W        W13855  30.568  39.860   1.377
45383W        W13856  10.678  28.658  11.381
45384W        W13857  16.300   6.688   1.934
45385W        W13858  38.510  11.634   2.217
45386W        W13859   2.846   4.805   4.822
45387W        W13860  35.905  38.496  14.935
45388W        W13861  25.979  10.237  11.460
45389W        W13862  23.082  33.473   3.314
45390W        W13863  31.640  44.310  10.594
45391W        W13864   8.236  23.161   4.268
45392W        W13865   9.872  19.750   2.221
45393W        W13866  15.325   2.898   0.408
45394W        W13867  40.522  41.503  11.029
45395W        W13868  19.190  11.207   0.333
45396W        W13869  22.116  43.498   3.368
45397W        W13870  29.656  16.206   1.445
45398W        W13871   1.914  36.472   3.221
45399W        W13872  34.032  22.113   3.342
45400W        W13873  44.263  41.033   1.847
45401W        W13874   9.887  37.933  13.022
45402W        W13875  39.429  44.261  14.426
45403W        W13876  23.640  12.726   0.297
45404W        W13877  22.999   0.894   1.293
45405W        W13878  34.589  10.216   0.890
45406W        W13879  24.044   6.685   3.799
45407W        W13880  18.603  22.598  11.067
45408W        W13881  14.253  37.340  12.379
45409W        W13882   5.776   0.451  13.033
45410W        W13883  35.858   8.808   3.753
45411W        W13884   5.892  33.616   2.392
45412W        W13885  21.720  31.452  13.928
45413W        W13886  10.852  41.924  11.061
45414W        W13887  34.050  29.599  14.466
45415W        W13888  35.558  34.874  12.555
45416W        W13889  42.922   1.852   0.759
45417W        W13890  22.079  39.545  12.463
45418W        W13891  33.570   6.886   4.287
45419W        W13892  40.886  37.561   4.823
45420W        W13893  41.528  35.018  12.344
45421W        W13894   4.245  30.572  12.914
45422W        W13895  42.390  17.261  11.080
45423W        W13896   5.273  29.493  14.428
45424W        W13897  39.825  14.108  14.860
45425W        W13898  28.637  24.151  13.408
45426W        W13899  10.370  11.816   2.381
45427W        W13900  25.503   4.774   2.184
45428W        W13901   6.815  40.977  14.475
45429W        W13902  38.417  13.772  13.878
45430W        W13903  43.326  42.356  12.470
45431W        W13904   2.858   0.422  11.030
45432W        W13905   1.288  10.292   4.248
45433W        W13906  18.168  27.180   3.861
45434W        W13907   5.772  44.303   3.794
45435W        W13908  11.201  16.215  11.926
45436W        W13909  19.717  20.115   2.726
45437W        W13910  26.521   8.193   2.290
45438W        W13911  32.430  38.431  12.905
45439W        W13912  30.073  37.075  12.475
45440W        W13913  44.892  16.792  11.082
45441W        W13914  25.983  34.934  11.460
45442W        W13915  32.502  20.762  10.636
45443W        W13916  37.560  40.506  14.789
45444W        W13917  18.144  35.077   2.234
45445W        W13918   6.695  15.822   2.783
45446W        W13919  30.957   5.829   4.223
45447W        W13920  14.115  37.026   4.180
45448W        W13921  29.513  33.394  13.791
45449W        W13922   9.348  25.680   1.731
45450W        W13923   4.909  38.335   1.774
45451W        W13924  19.164  42.954   3.173
45452W        W13925  15.765  26.633   1.288
45453W        W13926  17.220  11.694  12.400
45454W        W13927  33.993  42.439  14.430
45455W        W13928  18.696  36.901  14.395
45456W        W13929  28.622  33.027  10.560
45457W        W13930  31.914  27.096   1.708
45458W        W13931   5.319  34.115   0.257
45459W        W13932  27.975   9.213  12.026
45460W        W13933  32.458  31.479   1.887
45461W        W13934  14.736  13.251   4.784
45462W        W13935   1.247  35.014   1.450
45463W        W13936  20.557  43.275   1.921
45464W        W13937   3.406  32.442  13.325
45465W        W13938  12.775  19.269   1.882
45466W        W13939  12.855   8.379  14.778
45467W        W13940  11.812  33.966   0.327
45468W        W13941  22.030  44.824  10.432
45469W        W13942  11.864  18.749   1.260
45470W        W13943   0.469  32.952   1.931
45471W        W13944  26.602  43.389  13.519
45472W        W13945  23.073  10.259   3.836
45473W        W13946  29.572  13.215  13.493
45474W        W13947  32.048  21.681   4.296
45475W        W13948   8.743  42.416  13.330
45476W        W13949  37.414  28.130  14.448
45477W        W13950  21.127  25.477  13.329
45478W        W13951   9.209  28.987  13.485
45479W        W13952  26.167  27.596  14.802
45480W        W13953  17.294  15.271  12.928
45481W        W13954  30.648  35.392  13.792
45482W        W13955   6.890  35.534  14.025
45483W        W13956  35.090   2.450  13.350
45484W        W13957  19.533  33.388   2.212
45485W        W13958  11.730  33.428  14.032
45486W        W13959  13.114  14.223   3.153
45487W        W13960  22.706  18.723   0.435
45488W        W13961  26.008   5.893   4.156
45489W        W13962  12.704  23.628  10.596
45490W        W13963  39.955  34.421   0.430
45491W        W13964  41.984  32.973  12.523
45492W        W13965  24.691  30.464  11.034
45493W        W13966  27.552   3.787   3.319
45494W        W13967  35.902   3.217  10.975
45495W        W13968  27.192  18.611   3.286
45496W        W13969   8.352   8.245   0.812
45497W        W13970   0.884   8.869   5.210
45498W        W13971  15.671  40.930   0.810
45499W        W13972  31.490  43.833  10.479
45500W        W13973  35.940  38.419   0.405
45501W        W13974  30.465  23.218   3.665
45502W        W13975   7.338   8.801  12.093
45503W        W13976  42.976  22.240   1.393
45504W        W13977   2.407  12.699  13.475
45505W        W13978  25.714  21.718  13.907
45506W        W13979   8.317   7.799  11.946
45507W        W13980   2.955  20.700   3.199
45508W        W13981  12.137  35.880  12.911
45509W        W13982  43.381  33.127  14.455
45510W        W13983   8.361  27.973   3.252
45511W        W13984  18.665  24.178  13.943
45512W        W13985  23.220  35.100  13.334
45513W        W13986  18.716  32.433   1.895
45514W        W13987  10.271  13.685   0.412
45515W        W13988  17.148   1.400   2.679
45516W        W13989   4.333  36.048   4.173
45517W        W13990   1.274  31.415   0.863
45518W        W13991  10.672   8.181   2.699
45519W        W13992  36.541  28.065   5.219
45520W        W13993  33.586  15.681  13.421
45521W        W13994  18.068  42.847  11.542
45522W        W13995  43.980   7.788   2.222
45523W        W13996  12.118  31.554   0.372
45524W        W13997  13.111  10.187  11.128
45525W        W13998   3.378  40.923   3.641
45526W        W13999  42.502  39.380   4.646
45527W        W14000  14.748  42.360  14.960
45528W        W14001  26.206  44.486  12.387
45529W        W14002   8.181  34.370  13.511
45530W        W14003  10.871  42.378   2.313
45531W        W14004  42.978  33.885   2.374
45532W        W14005   7.365  42.790  11.607
45533W        W14006   9.881  13.734  13.796
45534W        W14007  36.530  21.022  10.572
45535W        W14008  44.837  18.550   2.778
45536W        W14009  32.978  40.949  13.874
45537W        W14010  41.393  27.507   0.252
45538W        W14011   0.418  20.626   4.283
45539W        W14012  12.341  11.804  10.459
45540W        W14013  23.989  13.337   2.828
45541W        W14014  40.418  42.432  12.399
45542W        W14015  10.179  26.180  11.115
45543W        W14016  23.531  13.743  14.969
45544W        W14017  22.119  11.292   0.952
45545W        W14018  19.536  12.326  12.390
45546W        W14019  38.504  26.587  11.472
45547W        W14020  32.143   7.351  14.910
45548W        W14021   2.811   6.212   2.815
45549W        W14022  42.910  27.972   1.865
45550W        W14023   2.360   2.339   0.318
45551W        W14024  23.718  38.923   4.814
45552W        W14025  26.496  23.625   0.892
45553W        W14026  28.455  27.114   1.211
45554W        W14027   4.307  31.545  13.529
45555W        W14028  12.654  29.973   0.468
45556W        W14029  35.995  19.113  14.005
45557W        W14030  38.501  26.480  12.343
45558W        W14031  11.253  41.874   3.361
45559W        W14032  22.233   7.854   3.696
45560W        W14033  43.821   3.921  11.562
45561W        W14034   5.732  16.293   1.374
45562W        W14035  15.761   5.860  12.908
45563W        W14036  11.258  23.709  10.011
45564W        W14037  28.948  43.282   2.790
45565W        W14038   6.398  32.928  13.047
45566W        W14039  31.957   4.752  10.542
45567W        W14040  31.909  32.593  10.497
45568W        W14041  20.112  22.724  13.901
45569W        W14042  37.884  28.605  11.038
45570W        W14043  22.738  31.115   2.672
45571W        W14044  26.509  38.981  13.010
45572W        W14045  37.419  37.845   0.854
45573W        W14046  40.914  26.586  12.410
45574W        W14047   6.691  32.127   3.735
45575W        W14048  32.981  26.013  12.865
45576W        W14049   9.698  24.219   5.188
45577W        W14050  32.435  16.282  12.478
45578W        W14051  14.209  18.087   0.747
45579W        W14052   3.339  34.569   4.638
45580W        W14053  24.509  39.003   1.905
45581W        W14054  24.515  32.619   4.705
45582W        W14055   5.305   0.846  10.950
45583W        W14056  41.857  27.484   2.692
45584W        W14057   9.189  19.659  12.410
45585W        W14058   0.248   6.268  12.368
45586W        W14059   8.227  19.697  13.375
45587W        W14060  38.823   4.389   0.290
45588W        W14061  17.617  11.255   3.330
45589W        W14062  31.430  44.355   4.329
45590W        W14063  28.672  44.428   2.193
45591W        W14064  14.307  14.773  13.907
45592W        W14065  13.296   7.248  12.906
45593W        W14066  24.182  41.817   1.405
45594W        W14067   9.877  23.548  14.401
45595W        W14068  38.449  14.118  14.493
45596W        W14069   9.814   2.776  10.461
45597W        W14070  31.534  42.894  11.603
45598W        W14071  15.705  34.928   2.704
45599W        W14072  12.267   2.797  11.600
45600W        W14073  40.005  38.345  11.076
45601W        W14074   4.252   7.325   1.219
45602W        W14075  37.339   2.803   2.283
45603W        W14076  23.689  42.016  13.311
45604W        W14077  21.515   2.939   1.222
45605W        W14078  38.921  21.537   3.338
45606W        W14079  42.898   4.324  14.347
45607W        W14080  13.136   4.716  11.939
45608W        W14081   6.728  41.298  13.037
45609W        W14082  23.004  22.183   3.754
45610W        W14083  12.343  27.960  12.465
45611W        W14084  25.564  26.206   4.610
45612W        W14085  26.487   6.720   3.147
45613W        W14086  10.206   7.251   1.226
45614W        W14087  21.610  15.676   0.390
45615W        W14088  19.148  38.910  13.008
45616W        W14089  43.890  10.193   2.737
45617W        W14090  39.330  35.024  10.565
45618W        W14091  13.627  14.655  12.370
45619W        W14092  30.071   3.433  14.944
45620W        W14093  31.472   1.732  13.914
45621W        W14094  15.208   0.348   3.745
45622W        W14095  32.578  12.220  10.411
45623W        W14096  35.459  21.186  12.568
45624W        W14097   7.372  35.872   0.483
45625W        W14098  29.628  17.754  10.946
45626W        W14099  44.758  30.542  13.500
45627W        W14100  22.169  30.557   1.817
45628W        W14101  41.325   1.247   1.210
45629W        W14102  43.478  27.597   1.382
45630W        W14103  35.066  15.635  14.502
45631W        W14104  26.522   4.356   0.734
45632W        W14105  16.779  14.194   0.386
45633W        W14106  24.152  28.443  13.821
45634W        W14107   5.693  29.604   0.934
45635W        W14108  43.784  32.084  12.413
45636W        W14109   8.895   5.868  13.453
45637W        W14110   5.861  15.820   3.376
45638W        W14111   4.796  17.792  11.934
45639W        W14112  31.568  29.468   3.754
45640W        W14113  11.170   8.316   1.882
45641W        W14114  39.328   5.402   0.262
45642W        W14115  27.182  36.914   1.749
45643W        W14116  39.856  10.794   3.796
45644W        W14117  11.861  21.141  14.362
45645W        W14118  10.331  16.787   5.293
45646W        W14119   6.369  21.211   4.235
45647W        W14120  37.354  21.679  12.872
45648W        W14121  14.124  35.500   3.212
45649W        W14122   6.893  44.825  10.446
45650W        W14123   6.789  10.762  11.534
45651W        W14124   4.240  26.654  14.458
45652W        W14125  38.963  18.259  14.479
45653W        W14126  15.326   2.268  13.042
45654W        W14127   3.851  41.401  12.060
45655W        W14128   1.277   3.328  11.002
45656W        W14129  38.976  10.316  13.000
45657W        W14130   5.779  22.157   3.229
45658W        W14131  37.906  13.241   4.766
45659W        W14132  24.162   2.891   4.245
45660W        W14133  14.670   3.828   1.918
45661W        W14134   6.704   7.342   1.364
45662W        W14135   6.370   7.791   5.132
45663W        W14136  20.196  44.971   0.345
45664W        W14137  21.691  31.931  12.006
45665W        W14138  23.149  34.600   0.316
45666W        W14139  22.218  44.327   2.767
45667W        W14140  12.296  11.297   0.414
45668W        W14141  12.200  35.857   4.309
45669W        W14142  25.664  28.670   0.421
45670W        W14143  37.069   4.414   1.259
45671W        W14144  41.918  32.459  13.372
45672W        W14145  34.493  43.835   3.806
45673W        W14146  19.694  36.935   2.811
45674W        W14147  26.687  40.880   0.840
45675W        W14148  28.179  19.229  12.914
45676W        W14149   6.784  44.822   2.860
45677W        W14150  15.708  20.594  12.421
45678W        W14151  25.979  36.588   0.759
45679W        W14152  29.553  26.560   5.289
45680W        W14153   9.294   7.391   0.747
45681W        W14154  44.409  35.499  14.877
45682W        W14155  21.567  26.129   0.396
45683W        W14156   5.319  15.299   4.352
45684W        W14157  41.319   6.424   4.352
45685W        W14158  22.098   7.776  13.478
45686W        W14159  36.415  41.442   0.965
45687W        W14160   8.756   9.683   2.288
45688W        W14161  23.720  20.641  11.568
45689W        W14162  26.684  32.093  12.935
45690W        W14163  29.941  15.140  11.072
45691W        W14164  42.818  15.779  13.450
45692W        W14165   9.357  14.618   4.819
45693W        W14166   3.764  24.637  11.601
45694W        W14167  25.604  37.354   0.455
45695W        W14168  10.837  39.955  14.998
45696W        W14169  11.249  43.928   4.124
45697W        W14170   3.296  22.135   1.317
45698W        W14171   8.811  20.236   4.660
45699W        W14172  24.157  21.743   1.749
45700W        W14173  10.646  16.206  12.393
45701W        W14174  34.389  21.188  14.894
45702W        W14175  28.646  18.077  10.997
45703W        W14176  11.673  21.066   3.376
45704W        W14177  43.772   2.788   3.794
45705W        W14178  22.142  19.222  11.865
45706W        W14179  26.959   7.673  11.599
45707W        W14180   7.183   9.857  12.859
45708W        W14181   3.762   6.264   0.285
45709W        W14182  21.115  11.192   4.142
45710W        W14183  34.051  14.217  10.614
45711W        W14184  40.537  27.981   3.741
45712W        W14185  24.508  13.321  14.282
45713W        W14186   2.846  29.607  11.412
45714W        W14187  39.983  33.929  12.535
45715W        W14188   9.337  34.533   3.296
45716W        W14189   2.309  10.196   2.665
45717W        W14190  24.129  13.325  14.940
45718W        W14191  11.793  26.639   0.821
45719W        W14192  23.650  30.980   2.751
45720W        W14193  12.203  36.498   1.403
45721W        W14194  19.722   6.906   1.310
45722W        W14195  32.529  13.717   3.360
45723W        W14196   9.712  36.472  13.886
45724W        W14197  28.490  12.139   3.831
45725W        W14198  41.298  22.514  11.031
45726W        W14199  16.252  10.843   3.745
45727W        W14200  30.913  41.389  12.515
45728W        W14201   8.761   4.297   1.441
45729W        W14202  39.450  17.273   4.675
45730W        W14203  10.835  30.625  12.492
45731W        W14204   3.807  39.045  13.463
45732W        W14205  31.116  39.870  11.393
45733W        W14206  44.478  28.059   3.751
45734W        W14207  13.713  43.304   1.903
45735W        W14208  17.562  16.158  13.373
45736W        W14209  25.664  10.837   1.288
45737W        W14210  12.809   2.736  13.951
45738W        W14211  12.664   3.903  13.021
45739W        W14212  31.415  23.194   4.627
45740W        W14213  13.216  32.460  14.314
45741W        W14214  10.705  43.937   2.875
45742W        W14215  43.491  17.118   0.479
45743W        W14216  23.994   9.822   0.967
45744W        W14217  15.284  16.790  10.531
45745W        W14218  16.147  36.438   4.738
45746W        W14219  13.792  11.801   0.864
45747W        W14220   8.654  44.935  12.572
45748W        W14221   7.413  25.101  11.861
45749W        W14222   6.692  32.528  10.915
45750W        W14223  33.987  10.381   3.204
45751W        W14224  39.809  28.447  13.497
45752W        W14225  34.409  16.764  12.442
45753W        W14226  35.876  43.937  10.636
45754W        W14227  15.128   4.898   1.872
45755W        W14228   9.288  42.005   4.224
45756W        W14229  40.389   1.800  11.962
45757W        W14230  13.783   3.738  11.544
45758W        W14231   3.829   6.869   4.815
45759W        W14232  26.699   2.361  13.053
45760W        W14233  43.871   0.918   3.331
45761W        W14234  17.766   9.707  13.819
45762W        W14235  30.999   0.819  12.403
45763W        W14236  35.906  18.240  11.492
45764W        W14237  14.157  39.900  11.003
45765W        W14238  28.558   9.768  11.878
45766W        W14239  34.392  12.746   4.645
45767W        W14240   0.494  31.942   2.877
45768W        W14241  13.282  32.436  13.865
45769W        W14242  35.959  15.124  12.360
45770W        W14243  24.659  14.663   5.096
45771W        W14244  27.612  18.260  13.348
45772W        W14245  22.099  43.405  13.800
45773W        W14246  15.699  38.336   1.435
45774W        W14247  16.206  25.985   0.304
45775W        W14248  39.360  22.584  12.880
45776W        W14249  20.765  28.184   4.173
45777W        W14250  40.530  12.289   2.728
45778W        W14251  24.582  17.075  14.298
45779W        W14252  17.565  23.710  14.294
45780W        W14253  34.548  16.577  13.979
45781W        W14254  27.621  22.738   3.690
45782W        W14255   2.862  33.569   0.434
45783W        W14256   6.832  16.599   2.356
45784W        W14257   7.384   5.246  10.966
45785W        W14258  17.292   1.885   0.764
45786W        W14259  44.265   2.269   4.317
45787W        W14260  36.991  11.342  13.916
45788W        W14261   2.379  10.353  10.947
45789W        W14262  16.162  44.969  14.370
45790W        W14263   7.331  40.880  13.323
45791W        W14264  36.521  38.432   2.752
45792W        W14265  21.553  12.826   1.728
45793W        W14266  35.868   5.758   0.826
45794W        W14267  37.079  11.299   4.616
45795W        W14268  16.144  40.886  10.149
45796W        W14269   3.277  31.962  11.931
45797W        W14270  44.442   2.338  11.399
45798W        W14271   1.391  33.912  14.821
45799W        W14272  29.123   2.241  12.931
45800W        W14273  28.601  10.846   4.661
45801W        W14274   7.892  30.631   2.309
45802W        W14275  33.428  43.810  14.427
45803W        W14276  10.652  30.432   0.906
45804W        W14277   4.885  39.408  10.981
45805W        W14278  20.132  40.832   1.320
45806W        W14279   4.825  21.623   0.951
45807W        W14280  42.831  36.492  10.603
45808W        W14281  14.635   3.906  14.897
45809W        W14282  33.422  40.002  10.574
45810W        W14283  19.267   8.888   4.279
45811W        W14284  24.490   7.364   3.827
45812W        W14285  14.625  42.839  11.911
45813W        W14286   9.294  19.640   3.867
45814W        W14287   3.314  12.774   2.766
45815W        W14288  28.120  41.892   1.886
45816W        W14289  31.588  14.094  14.289
45817W        W14290   9.256   6.271  12.518
45818W        W14291  16.792  28.509   4.325
45819W        W14292  13.218  34.946   1.921
45820W        W14293  20.735  33.533  13.006
45821W        W14294  43.996  40.307   0.933
45822W        W14295  28.655  28.547  13.793
45823W        W14296  18.263  41.298   3.683
45824W        W14297  16.198  23.660  12.022
45825W        W14298  24.048  39.405  13.929
45826W        W14299   8.319   8.703  13.896
45827W        W14300  23.545  38.514  13.946
45828W        W14301  43.842  29.072  11.084
45829W        W14302  28.183  44.880   1.842
45830W        W14303  36.043  39.558  14.956
45831W        W14304  14.201  17.132   4.740
45832W        W14305   5.781   1.331  10.616
45833W        W14306  20.268  16.257   1.737
45834W        W14307  35.020  29.477   3.742
45835W        W14308   6.769  17.232   2.885
45836W        W14309  12.156  32.635   3.233
45837W        W14310  41.992  37.985   2.719
45838W        W14311   6.869   4.736   4.155
45839W        W14312  33.595   1.382   3.191
45840W        W14313  10.764  34.867  13.801
45841W        W14314  12.827  24.116  13.407
45842W        W14315  15.159   7.789  10.476
45843W        W14316  31.030  40.401  14.438
45844W        W14317   4.766   9.742   2.241
45845W        W14318  12.818  25.065   0.438
45846W        W14319   5.238   8.864  10.507
45847W        W14320  44.783  43.484  14.017
45848W        W14321  25.698  38.907  11.086
45849W        W14322  20.531  35.982   4.232
45850W        W14323  42.344  14.827  14.439
45851W        W14324  37.831  19.120  13.508
45852W        W14325  30.045  28.499  14.021
45853W        W14326  18.062  42.320  10.933
45854W        W14327  10.763   1.317  13.870
45855W        W14328  16.811  32.610   3.830
45856W        W14329  18.158  36.899  11.599
45857W        W14330  26.987  14.215   4.200
45858W        W14331   3.350   3.936  11.504
45859W        W14332  27.653  16.692   2.817
45860W        W14333  17.198   7.364  11.902
45861W        W14334  38.855  44.870  12.377
45862W        W14335   3.790  36.928   1.373
45863W        W14336  19.283  18.639   2.757
45864W        W14337  25.694   3.329   1.809
45865W        W14338  14.673   7.810  11.575
45866W        W14339  30.625  16.182   3.654
45867W        W14340   5.781   2.366   4.328
45868W        W14341  10.223  44.465   3.701
45869W        W14342   7.677  32.484  11.413
45870W        W14343  20.162   4.874  10.577
45871W        W14344   8.727  41.455  10.534
45872W        W14345   8.293  33.574  14.474
45873W        W14346   8.776  20.274  10.967
45874W        W14347  36.452   5.769  11.072
45875W        W14348  25.630  43.423   5.633
45876W        W14349  26.068  20.050  12.912
45877W        W14350   1.311  10.782   1.795
45878W        W14351  13.192  15.283  14.289
45879W        W14352  15.155   0.947  11.392
45880W        W14353   0.457   6.369   0.422
45881W        W14354  33.604  43.377   3.285
45882W        W14355  29.966  14.266  10.438
45883W        W14356  26.549  29.125  11.948
45884W        W14357  43.777  33.061   2.351
45885W        W14358  31.927  13.176   2.739
45886W        W14359  29.509  21.174   3.249
45887W        W14360   3.766  33.576  11.125
45888W        W14361   4.359  12.693  12.535
45889W        W14362  34.043  13.840   1.445
45890W        W14363   8.247  12.194  11.877
45891W        W14364   5.393  29.635  12.580
45892W        W14365  12.803  39.325   1.782
45893W        W14366  44.421  12.161  13.432
45894W        W14367  42.356  22.594   2.217
45895W        W14368  12.854   5.688  14.910
45896W        W14369  26.148   2.364  13.942
45897W        W14370   3.901   0.772  11.515
45898W        W14371  37.905  27.689  13.023
45899W        W14372  32.141   8.185  12.048
45900W        W14373  21.122  44.962   4.600
45901W        W14374  28.981  12.822  10.996
45902W        W14375  38.065  38.938  13.433
45903W        W14376  14.152   6.300  13.331
45904W        W14377  11.201  36.062  12.383
45905W        W14378   5.341   3.320   0.349
45906W        W14379  15.315   9.873  14.830
45907W        W14380  39.545  17.143  13.538
45908W        W14381  35.456  16.668  11.550
45909W        W14382   5.226  14.640   0.857
45910W        W14383   8.255  42.967  10.946
45911W        W14384  24.117  20.066  12.402
45912W        W14385   4.708  14.617   1.755
45913W        W14386   4.230   7.844   3.788
45914W        W14387  33.461  32.970   0.254
45915W        W14388   4.384  16.705   1.901
45916W        W14389  23.055  12.140   3.856
45917W        W14390  21.624  12.775   2.343
45918W        W14391  22.727  44.422   0.859
45919W        W14392  12.816  43.785   1.862
45920W        W14393   0.411   8.697   0.925
45921W        W14394   8.812  21.584  12.553
45922W        W14395  30.910   9.260   2.387
45923W        W14396  25.582  25.070   0.946
45924W        W14397  39.920  39.005   0.477
45925W        W14398  40.900  13.166  10.413
45926W        W14399  27.454   2.785   0.400
45927W        W14400  41.475  35.577  11.501
45928W        W14401   5.352   5.342  12.909
45929W        W14402  38.508  42.853  13.883
45930W        W14403  41.792  33.878   0.348
45931W        W14404  18.786  29.485   1.243
45932W        W14405   9.255  42.945   5.139
45933W        W14406  20.177   7.749   4.226
45934W        W14407  10.774  31.048   1.803
45935W        W14408  38.004  26.030  12.083
45936W        W14409  35.471  29.481   3.651
45937W        W14410  23.133  31.576  10.531
45938W        W14411   4.898  34.415   4.667
45939W        W14412   9.711  38.063   4.637
45940W        W14413  27.128  21.729  10.566
45941W        W14414  26.610  38.385   1.368
45942W        W14415  31.144  40.871   0.801
45943W        W14416  19.073  30.605  10.524
45944W        W14417  19.744  16.764  12.362
45945W        W14418  36.052  41.376  12.477
45946W        W14419  18.252  32.900   1.315
45947W        W14420  37.502  38.935   1.764
45948W        W14421  33.938  13.112  12.007
45949W        W14422  40.489  39.437  13.880
45950W        W14423  38.382   3.423   3.857
45951W        W14424  30.961  40.885   1.800
45952W        W14425  13.607  24.546  12.924
45953W        W14426  37.966   8.774  13.038
45954W        W14427   2.235  10.174   0.827
45955W        W14428  44.928  33.496  10.632
45956W        W14429   2.747  27.056  12.558
45957W        W14430  34.572   7.910  12.501
45958W        W14431  40.047  34.575   1.295
45959W        W14432  10.768   7.286   4.251
45960W        W14433  38.413  20.215   0.298
45961W        W14434  34.903   2.319   0.961
45962W        W14435  14.235  42.780  10.406
45963W        W14436  25.052  21.745   3.806
45964W        W14437  13.773  39.449   4.811
45965W        W14438  29.589  41.990   4.829
45966W        W14439  24.087  32.492  11.402
45967W        W14440  43.890  43.388   4.720
45968W        W14441  38.925   6.214  14.277
45969W        W14442  20.159   2.329  13.834
45970W        W14443  29.600  25.571   5.282
45971W        W14444   7.689  30.948  14.003
45972W        W14445  28.454  20.661  10.954
45973W        W14446   0.439  12.271   1.379
45974W        W14447   3.742  23.102  12.530
45975W        W14448  16.800   1.955  14.346
45976W        W14449  22.079  41.039  12.965
45977W        W14450  42.894   5.210  11.862
45978W        W14451   1.358  16.659  11.124
45979W        W14452  24.199   0.927  10.428
45980W        W14453  22.579  33.541   2.867
45981W        W14454  34.896  34.984  11.565
45982W        W14455   9.324  41.843  10.527
45983W        W14456   1.390  23.710   0.323
45984W        W14457  34.013  15.166  14.489
45985W        W14458  25.975  36.403  11.088
45986W        W14459  37.537  13.793   2.707
45987W        W14460  21.170  33.393   0.852
45988W        W14461  11.758  41.822  11.110
45989W        W14462  43.286   7.219  12.910
45990W        W14463  42.950   9.156   1.270
45991W        W14464  13.206  25.076   0.910
45992W        W14465  16.629  15.766  11.600
45993W        W14466  13.152  11.790   3.858
45994W        W14467  34.120  26.961   0.762
45995W        W14468  10.267   9.264  12.555
45996W        W14469  30.612  36.010  11.480
45997W        W14470  27.509  32.584   0.780
45998W        W14471  20.643  28.435   4.756
45999W        W14472  14.637  41.860   0.366
46000W        W14473   0.404  16.252   1.901
46001W        W14474  10.845  28.173  11.606
46002W        W14475  34.397  18.114   1.311
46003W        W14476  14.276  16.112  13.052
46004W        W14477  11.152  28.647  14.809
46005W        W14478   1.878   5.390  14.027
46006W        W14479  17.285  36.486  10.415
46007W        W14480  37.535   8.871   1.783
46008W        W14481  16.261  15.125   0.932
46009W        W14482   2.238  17.619  14.369
46010W        W14483  37.560  36.592  14.863
46011W        W14484  27.016  21.126   1.258
46012W        W14485  23.033  34.454   0.789
46013W        W14486  15.627  39.983   5.707
46014W        W14487  41.871  25.561   0.779
46015W        W14488  18.550  18.217   3.667
46016W        W14489  24.216  22.546   1.430
46017W        W14490  14.181  26.181  12.827
46018W        W14491  34.594  40.958  10.438
46019W        W14492  11.801   5.251  11.899
46020W        W14493  25.116  17.699  14.442
46021W        W14494  41.375   9.372  12.005
46022W        W14495  17.797   3.314  11.072
46023W        W14496  24.537  22.546   4.643
46024W        W14497   3.389  22.105  13.396
46025W        W14498   7.728  38.449  12.359
46026W        W14499  25.013  30.126   1.266
46027W        W14500  13.702  15.254   1.238
46028W        W14501  12.698  24.511   1.825
46029W        W14502  40.404  14.593   3.793
46030W        W14503  19.542  23.505   1.714
46031W        W14504  18.676  33.402   2.188
46032W        W14505  10.855  33.550  13.951
46033W        W14506  29.092   5.818   3.665
46034W        W14507  43.977  21.063  14.988
46035W        W14508  23.210   3.951   1.367
46036W        W14509  15.719  42.429   4.716
46037W        W14510  14.677  26.124   0.876
46038W        W14511  38.834  42.865   4.649
46039W        W14512   2.945  30.578  13.492
46040W        W14513  14.226  10.167  13.035
46041W        W14514  40.443  24.079  14.813
46042W        W14515   5.829  36.942  10.565
46043W        W14516   0.923  44.382   0.771
46044W        W14517  11.128  33.594   0.939
46045W        W14518  17.785  16.265  12.866
46046W        W14519  26.658   4.820   3.317
46047W        W14520  23.156  24.513   1.412
46048W        W14521  38.383   7.337  13.429
46049W        W14522  44.758   6.797  12.078
46050W        W14523  31.011  39.482   0.479
46051W        W14524  35.384   7.707  13.024
46052W        W14525  31.135   1.884   0.371
46053W        W14526  13.683  25.653  12.057
46054W        W14527   9.149  28.587   4.785
46055W        W14528  17.225  41.980   1.221
46056W        W14529  21.224  14.314  10.055
46057W        W14530  13.332  33.583  10.543
46058W        W14531  42.993   2.823  11.457
46059W        W14532  29.486  13.321   2.261
46060W        W14533  28.642   5.237   2.732
46061W        W14534  36.956  13.844  11.103
46062W        W14535  43.305   0.490   0.795
46063W        W14536  27.601  33.128  10.411
46064W        W14537   4.449   0.286   2.783
46065W        W14538  28.649  12.169   2.411
46066W        W14539  29.958   0.437   2.814
46067W        W14540  13.309  26.018  14.771
46068W        W14541  19.686  27.186  13.337
46069W        W14542   0.854  18.055   3.725
46070W        W14543  43.392  29.963   1.233
46071W        W14544  26.969  40.855   4.114
46072W        W14545  34.542  38.543  12.448
46073W        W14546  11.251   8.245   1.416
46074W        W14547   9.245  25.684  12.007
46075W        W14548  28.135  18.161   4.623
46076W        W14549  17.177  37.365  13.372
46077W        W14550  34.886  25.501   0.304
46078W        W14551  40.428  24.067   2.815
46079W        W14552  42.877  10.253  14.769
46080W        W14553   6.716  30.467  14.027
46081W        W14554  15.629   8.312   4.811
46082W        W14555  29.538  19.722  11.501
46083W        W14556   7.219  29.484  12.383
46084W        W14557  40.327  11.842   2.289
46085W        W14558  28.174   4.239   0.479
46086W        W14559  25.966   3.895   3.705
46087W        W14560  22.726  33.117  10.907
46088W        W14561  27.584  20.211  13.349
46089W        W14562   8.256  27.680   4.752
46090W        W14563  14.191  35.876  11.441
46091W        W14564  36.557  27.633   4.686
46092W        W14565   2.471  42.846  11.462
46093W        W14566   5.908  38.996   3.323
46094W        W14567  40.922   3.257  13.989
46095W        W14568  11.828  21.606   0.919
46096W        W14569  23.156   4.438   1.267
46097W        W14570  27.107   9.733  14.873
46098W        W14571  29.552  33.460  10.593
46099W        W14572  42.309  10.307   3.786
46100W        W14573  36.426  35.370  14.871
46101W        W14574  29.493   6.198  13.003
46102W        W14575  35.918  22.700  11.972
46103W        W14576  31.471   1.419  12.399
46104W        W14577   1.843  15.607   1.726
46105W        W14578   4.753  29.171  10.461
46106W        W14579  10.250  14.305  12.553
46107W        W14580   0.357  15.197  10.533
46108W        W14581  22.697  11.266  10.893
46109W        W14582  24.691   0.323  13.429
46110W        W14583  29.569  28.527   3.795
46111W        W14584  20.103  21.563  13.965
46112W        W14585  39.028   7.338  14.961
46113W        W14586  28.044  31.506  13.796
46114W        W14587   7.821  29.103   1.309
46115W        W14588   3.823  36.921   2.349
46116W        W14589  36.870   8.701   2.269
46117W        W14590   5.252  21.744  14.915
46118W        W14591  29.060  23.499   4.150
46119W        W14592  33.040   7.739   3.204
46120W        W14593  13.727  36.459   0.800
46121W        W14594  21.580  26.601   0.290
46122W        W14595   6.309  44.919  14.368
46123W        W14596  34.514   0.784   0.900
46124W        W14597  42.487   7.241  13.374
46125W        W14598  40.486  24.174  14.031
46126W        W14599  44.423  16.601  13.968
46127W        W14600  26.461  15.810   9.936
46128W        W14601   6.688  21.044   3.798
46129W        W14602  41.320  35.064   4.625
46130W        W14603   1.452   1.785  13.474
46131W        W14604  18.283   8.251   3.175
46132W        W14605  15.677  16.636  11.589
46133W        W14606  25.108  34.021   4.812
46134W        W14607  41.309  28.941  14.464
46135W        W14608  38.841  41.823   2.355
46136W        W14609  27.492  37.465   4.753
46137W        W14610   1.901  13.302  12.485
46138W        W14611   2.933  27.076   2.872
46139W        W14612  24.621  37.473  12.066
46140W        W14613  14.143  31.012   2.749
46141W        W14614  10.333  21.757  10.465
46142W        W14615  30.137  17.276   1.311
46143W        W14616   7.385   9.271   0.258
46144W        W14617  21.037  26.702   4.354
46145W        W14618  28.089  37.446  11.472
46146W        W14619   3.422  14.709  10.077
46147W        W14620  14.291   6.714  11.004
46148W        W14621  16.646  12.135  12.440
46149W        W14622   4.878  40.520   2.292
46150W        W14623  26.485  43.436   4.729
46151W        W14624   5.826  31.620  14.002
46152W        W14625  17.172  33.459  10.568
46153W        W14626  17.277  12.836  13.964
46154W        W14627  44.965  19.285  11.469
46155W        W14628  40.991  21.718  11.404
46156W        W14629  21.094   7.179  13.319
46157W        W14630  12.269  19.231   1.831
46158W        W14631  36.872  17.716   3.662
46159W        W14632  26.477   2.873   3.254
46160W        W14633  43.012  24.991   2.321
46161W        W14634  16.185  39.398   3.851
46162W        W14635  12.345  22.059   1.785
46163W        W14636  21.688  22.100  13.498
46164W        W14637  10.766  28.104   1.719
46165W        W14638  11.342  21.173   2.740
46166W        W14639  12.221  25.141   0.420
46167W        W14640  25.521   2.771   0.282
46168W        W14641   7.819  15.690   2.306
46169W        W14642  29.572  42.349   4.657
46170W        W14643  30.041  38.959  12.061
46171W        W14644  42.494  36.871  13.892
46172W        W14645   9.823  28.570  12.045
46173W        W14646  37.566  33.934  10.538
46174W        W14647  22.598   6.764  14.818
46175W        W14648  38.864  31.461   0.426
46176W        W14649  13.193   0.404   1.926
46177W        W14650   4.355  39.330   0.443
46178W        W14651  38.403  39.319  13.026
46179W        W14652  44.983  36.362   3.825
46180W        W14653  26.188  15.143  11.490
46181W        W14654  40.874   2.394   1.210
46182W        W14655   2.832  27.051   3.356
46183W        W14656  42.371  35.912   2.272
46184W        W14657   9.754  31.949   4.630
46185W        W14658  27.045  20.764   3.176
46186W        W14659   3.839  12.151  11.605
46187W        W14660  36.884  30.545   0.855
46188W        W14661  31.453  13.332  11.489
46189W        W14662  17.246   4.210  10.545
46190W        W14663  20.139   7.278  10.035
46191W        W14664   2.936   0.359   1.264
46192W        W14665  11.355   5.742  13.390
46193W        W14666  28.946  34.863  12.345
46194W        W14667  35.362   3.771   0.817
46195W        W14668  39.323  16.721   1.416
46196W        W14669  21.222  24.110   1.412
46197W        W14670  28.135  41.806   0.345
46198W        W14671  34.605  13.813   3.262
46199W        W14672  42.391   4.725  10.478
46200W        W14673  43.400  24.540  14.832
46201W        W14674  16.181  33.494  10.030
46202W        W14675  14.098  36.444  10.496
46203W        W14676   4.911  28.052   3.370
46204W        W14677  28.507  20.630   1.832
46205W        W14678  26.654  17.561   2.885
46206W        W14679  18.138  34.892  12.430
46207W        W14680   8.395  14.782  10.928
46208W        W14681  35.512   0.778  14.898
46209W        W14682   7.296   9.177  11.003
46210W        W14683  14.590  35.062  13.502
46211W        W14684  20.052  24.687   3.277
46212W        W14685   2.749  38.490  12.462
46213W        W14686  17.644   8.746   5.304
46214W        W14687  36.866  22.060   1.859
46215W        W14688  18.598  18.771   2.336
46216W        W14689  39.430   7.296   2.835
46217W        W14690  40.907  28.962  13.928
46218W        W14691  24.024  33.055   0.940
46219W        W14692  18.267   7.388   4.166
46220W        W14693  39.331   1.237  11.506
46221W        W14694  35.871  13.815  13.469
46222W        W14695  27.159   6.849   1.876
46223W        W14696  29.162   1.963  10.943
46224W        W14697  41.882  22.719  12.513
46225W        W14698  29.523  23.509   3.772
46226W        W14699  35.054   6.806   4.806
46227W        W14700  17.067  18.224  12.395
46228W        W14701   5.895  40.413  10.521
46229W        W14702  41.839   9.293   1.414
46230W        W14703  30.499  43.356   1.708
46231W        W14704  27.665  37.520   3.176
46232W        W14705  38.430  36.090   1.298
46233W        W14706  23.037  34.559  12.056
46234W        W14707   7.793  40.342   1.738
46235W        W14708  38.529  19.186  11.024
46236W        W14709  44.844  20.611  10.889
46237W        W14710   6.881  21.187  11.962
46238W        W14711  35.967  36.082  13.506
46239W        W14712  11.729   8.368  13.884
46240W        W14713  36.516  13.678  13.362
46241W        W14714  24.172  33.889  10.932
46242W        W14715  24.102  14.095   4.191
46243W        W14716  25.980  21.658   4.668
46244W        W14717  24.056  41.531   0.874
46245W        W14718  20.574  20.049  12.920
46246W        W14719  19.207  27.972  12.478
46247W        W14720  32.082   9.883  11.519
46248W        W14721   5.308  17.787   2.852
46249W        W14722  10.874  17.246  10.155
46250W        W14723   2.384  12.319   0.956
46251W        W14724   1.835  12.795  11.479
46252W        W14725  23.096  21.558   4.686
46253W        W14726  26.191  19.091  11.506
46254W        W14727  29.137  18.066   0.762
46255W        W14728   1.854   6.866   4.796
46256W        W14729  21.136  42.371  12.949
46257W        W14730  27.128   0.780   4.726
46258W        W14731  14.740  11.632  11.499
46259W        W14732   6.710   9.312  11.085
46260W        W14733  20.542  34.992   4.282
46261W        W14734  11.196  24.200  14.292
46262W        W14735  11.700  26.547   0.359
46263W        W14736  27.952  25.712   0.953
46264W        W14737  23.167   9.283   2.224
46265W        W14738  26.475  30.416   9.994
46266W        W14739  19.212  29.427  10.975
46267W        W14740  16.241  17.082   3.757
46268W        W14741  38.959  42.319  10.503
46269W        W14742  19.134   3.384  12.028
46270W        W14743  35.518  35.911  11.902
46271W        W14744  13.116  14.593   3.175
46272W        W14745   6.859   6.371  12.879
46273W        W14746  35.406   9.804  11.037
46274W        W14747  34.370  17.623   4.782
46275W        W14748  25.669  16.244   1.752
46276W        W14749   7.281   0.808  11.388
46277W        W14750  21.051  11.373  13.501
46278W        W14751  35.486  40.326  14.901
46279W        W14752  40.487  42.283  11.119
46280W        W14753   3.448  21.018  12.885
46281W        W14754   6.823   9.718  11.539
46282W        W14755  33.491  21.549   4.315
46283W        W14756  26.545  12.666   4.745
46284W        W14757  12.744  33.487  12.839
46285W        W14758   2.314  26.060  12.513
46286W        W14759  31.119  35.863   3.683
46287W        W14760  19.678  44.961   4.830
46288W        W14761  10.821   7.277  10.459
46289W        W14762  12.259  24.514  13.811
46290W        W14763  16.147  42.512  10.995
46291W        W14764   8.696  24.525   9.934
46292W        W14765  42.990  27.652   1.234
46293W        W14766  31.017  34.578  14.830
46294W        W14767  29.601  41.460   4.754
46295W        W14768  42.358  27.573   2.320
46296W        W14769  23.552  40.016  10.607
46297W        W14770  15.624  18.248   4.761
46298W        W14771  33.588  29.033   0.410
46299W        W14772  41.861   9.191  12.052
46300W        W14773   7.735  19.689  13.854
46301W        W14774  28.680   2.878   1.837
46302W        W14775   9.394   9.339   3.758
46303W        W14776  33.469  13.728   3.652
46304W        W14777  19.082   1.383   3.312
46305W        W14778   3.871  38.498  13.449
46306W        W14779   7.805  27.021  12.049
46307W        W14780  43.875  12.626  10.576
46308W        W14781   7.755  21.259  11.075
46309W        W14782  34.031  22.651  11.437
46310W        W14783  42.963  25.962  10.582
46311W        W14784   0.354  32.496   0.864
46312W        W14785  34.091  38.964   0.376
46313W        W14786   4.210  18.683  11.456
46314W        W14787  41.476  34.003  13.813
46315W        W14788  15.122  36.924  11.481
46316W        W14789   3.843  33.915   0.740
46317W        W14790  13.764  22.081   4.191
46318W        W14791   0.783  44.463  11.058
46319W        W14792   9.178  21.732  14.857
46320W        W14793   6.272  31.098   1.726
46321W        W14794   8.367  43.812  10.928
46322W        W14795  21.166  13.189   5.162
46323W        W14796   1.930  32.886  11.474
46324W        W14797  28.023   0.919  13.998
46325W        W14798  40.341  22.204   1.304
46326W        W14799  34.106  10.827  14.884
46327W        W14800  43.000  24.193   1.715
46328W        W14801  13.119  26.466   4.163
46329W        W14802  27.562  17.737   1.401
46330W        W14803  37.468   1.950   3.299
46331W        W14804  13.253  30.535   4.621
46332W        W14805  36.034  31.611   1.446
46333W        W14806  24.167  24.560  14.404
46334W        W14807   6.332  23.012  11.127
46335W        W14808   3.423  17.724   0.908
46336W        W14809  31.541  15.275  13.475
46337W        W14810  40.468  37.398  12.896
46338W        W14811  26.685   7.295   2.666
46339W        W14812  12.158  31.125  10.896
46340W        W14813  32.096   4.930   5.257
46341W        W14814  44.963  10.253  10.031
46342W        W14815  21.591  13.736   0.328
46343W        W14816  10.747   0.340   2.276
46344W        W14817  17.561   8.227   1.765
46345W        W14818   1.359  24.603  13.544
46346W        W14819  19.658  24.059   3.364
46347W        W14820  15.102  21.608   0.296
46348W        W14821  37.861  11.840  11.094
46349W        W14822  19.229  25.549  11.988
46350W        W14823  22.641  16.266  12.351
46351W        W14824  21.562   4.445  14.496
46352W        W14825   7.379  20.116  10.610
46353W        W14826   4.409  35.874  13.367
46354W        W14827  20.082  18.546   3.341
46355W        W14828  28.642  37.450   4.706
46356W        W14829  31.098  22.599   0.864
46357W        W14830  21.182  15.183  11.551
46358W        W14831  15.287  37.556   1.425
46359W        W14832  27.194  24.161   3.738
46360W        W14833   4.900  42.812   3.170
46361W        W14834   9.331  10.257  14.315
46362W        W14835  30.598  10.855  12.410
46363W        W14836  34.442  33.597   2.893
46364W        W14837  33.477  17.686   0.358
46365W        W14838  39.459   5.353  10.428
46366W        W14839  13.749  14.182   3.870
46367W        W14840  20.077   0.894  11.503
46368W        W14841  11.275  32.539   3.772
46369W        W14842  10.300  38.960  14.998
46370W        W14843   2.441  23.666  13.882
46371W        W14844  41.857  37.501   4.824
46372W        W14845   0.769   7.199   1.333
46373W        W14846  41.328   6.907   2.400
46374W        W14847   1.777  33.509  13.806
46375W        W14848   1.826  33.015   0.804
46376W        W14849  12.811  28.974   1.723
46377W        W14850  24.082  33.415   0.325
46378W        W14851  18.772  29.479  13.478
46379W        W14852  38.347  20.225  10.556
46380W        W14853  30.001  24.143   9.977
46381W        W14854  34.074   1.867   2.327
46382W        W14855  20.034  39.489   1.382
46383W        W14856  26.636  22.711   1.385
46384W        W14857  11.353   5.764   4.683
46385W        W14858  16.136  29.106   3.292
46386W        W14859  37.961  13.239  10.893
46387W        W14860  37.569  35.955   3.762
46388W        W14861  26.076   1.750  14.277
46389W        W14862  42.864  18.630   0.881
46390W        W14863  25.516   5.294   4.204
46391W        W14864  42.788  41.344  12.340
46392W        W14865  34.924  12.819  10.944
46393W        W14866  38.527   8.783  11.444
46394W        W14867  20.637  22.130   2.780
46395W        W14868  13.679  16.715  10.406
46396W        W14869  13.304   9.746   1.409
46397W        W14870  22.031  16.770   3.806
46398W        W14871   8.724  36.374  12.343
46399W        W14872  40.344  38.515  10.406
46400W        W14873  27.453  25.602  10.600
46401W        W14874  20.583  32.450   3.753
46402W        W14875  38.473  29.591  12.504
46403W        W14876   6.293  41.372  10.553
46404W        W14877  12.321  25.965  13.799
46405W        W14878  25.686  43.953  13.044
46406W        W14879   0.929   7.774   3.740
46407W        W14880  38.490  42.785   3.270
46408W        W14881   4.447  17.736   3.180
46409W        W14882  44.282  16.703  11.969
46410W        W14883  16.807   4.222  14.420
46411W        W14884   0.804  39.049  12.945
46412W        W14885  41.824  14.306  12.828
46413W        W14886  35.924   4.439  14.798
46414W        W14887  29.438   2.798   1.429
46415W        W14888  15.754  10.274   0.811
46416W        W14889  41.438   1.382   4.731
46417W        W14890  21.030  33.922   4.273
46418W        W14891   2.402  18.238   2.710
46419W        W14892   3.799  14.752  13.410
46420W        W14893  40.838  24.034   0.851
46421W        W14894   2.732  35.393   2.231
46422W        W14895  19.630  38.503  10.504
46423W        W14896  19.627  24.492  11.082
46424W        W14897  37.422  36.031  13.871
46425W        W14898  37.912  31.465  14.995
46426W        W14899  38.025  10.836   2.729
46427W        W14900  29.488  42.973   3.796
46428W        W14901  32.893  22.693  14.864
46429W        W14902   3.220  22.204  13.023
46430W        W14903  43.863  32.635  10.642
46431W        W14904  32.964  40.316  14.344
46432W        W14905  15.808  16.589   3.800
46433W        W14906  17.180  32.445  11.967
46434W        W14907  35.045   8.297  12.572
46435W        W14908  19.723  33.026  12.963
46436W        W14909  12.638  37.042   2.699
46437W        W14910   3.265  43.308   0.954
46438W        W14911  41.954   0.329   0.873
46439W        W14912  26.053  16.694   4.637
46440W        W14913   3.943   6.742  11.377
46441W        W14914  25.973  14.832   4.242
46442W        W14915  29.509  21.238  11.095
46443W        W14916  39.537  25.030  12.036
46444W        W14917  30.438   5.723   2.411
46445W        W14918  27.012   1.248   1.906
46446W        W14919   8.169  34.039   0.409
46447W        W14920  33.958  42.416  11.494
46448W        W14921  29.502  22.608   1.703
46449W        W14922  16.590  43.917  12.351
46450W        W14923   0.275  34.369  12.448
46451W        W14924   1.826  43.989  11.097
46452W        W14925  43.922   1.351   0.268
46453W        W14926  35.408  10.184  10.898
46454W        W14927   1.820  41.401  13.350
46455W        W14928  12.245  12.284  10.575
46456W        W14929   0.904   4.391   0.278
46457W        W14930  41.318  19.665   4.318
46458W        W14931  31.542  23.110  12.863
46459W        W14932   9.314   6.329   2.202
46460W        W14933  34.489  40.470  13.047
46461W        W14934  18.085   1.950  11.091
46462W        W14935  36.078  22.743   0.270
46463W        W14936   2.804  40.367  13.508
46464W        W14937  23.529  27.173   1.398
46465W        W14938  22.577  13.286  14.312
46466W        W14939  34.537  14.209  10.541
46467W        W14940  41.481   7.360  12.842
46468W        W14941   4.710   5.933   0.831
46469W        W14942  10.771   3.948   4.132
46470W        W14943  27.979  31.440  14.787
46471W        W14944   1.367  35.969   4.342
46472W        W14945  23.140  44.813  10.513
46473W        W14946  38.551   4.363   0.312
46474W        W14947  39.318  25.529   3.273
46475W        W14948   7.905  29.434   0.775
46476W        W14949   1.744  13.690   0.790
46477W        W14950  34.472  42.323   0.835
46478W        W14951   0.866  44.469  12.047
46479W        W14952  20.680  18.291  12.365
46480W        W14953  17.654  22.647  14.015
46481W        W14954   1.906  17.653  13.826
46482W        W14955  33.565  41.375   1.911
46483W        W14956  42.876   4.225   3.814
46484W        W14957  43.942  26.029  14.994
46485W        W14958  35.103  24.669   2.289
46486W        W14959  38.940  44.948  10.577
46487W        W14960  22.113  27.186   1.256
46488W        W14961  13.679  18.744  14.800
46489W        W14962  23.138   6.738  11.539
46490W        W14963  35.985  30.076   2.269
46491W        W14964  27.982  26.500  12.035
46492W        W14965  12.632   7.864  12.920
46493W        W14966  15.585  30.075  13.389
46494W        W14967  44.831  42.844  12.378
46495W        W14968  23.522   7.354  12.347
46496W        W14969  12.341   1.359   4.618
46497W        W14970  41.030  31.542   2.855
46498W        W14971  35.858  21.543  10.974
46499W        W14972  42.012   1.833  11.910
46500W        W14973  30.113  33.998   2.365
46501W        W14974   0.372  19.675   2.244
46502W        W14975   3.810  26.981   3.772
46503W        W14976  38.880   5.320  11.090
46504W        W14977  21.750  27.671   0.310
46505W        W14978  20.619  26.069  12.869
46506W        W14979  31.625  18.752  11.083
46507W        W14980  19.194   3.950  12.921
46508W        W14981  24.701   3.446   0.856
46509W        W14982  34.091  12.350  12.038
46510W        W14983  30.068  15.265  10.586
46511W        W14984  31.578   8.394   0.430
46512W        W14985  26.967  16.779   2.899
46513W        W14986  40.322  40.439  12.049
46514W        W14987  31.091  11.323  12.995
46515W        W14988  30.542  34.870  10.992
46516W        W14989  43.861  16.618   0.842
46517W        W14990  33.386  33.407  11.097
46518W        W14991   6.710  43.981   0.776
46519W        W14992   1.464   6.191   2.308
46520W        W14993  32.561  38.033  12.946
46521W        W14994  17.257   5.229  14.791
46522W        W14995   1.813  29.502  10.609
46523W        W14996  25.009   3.897   2.763
46524W        W14997   4.273   4.294  11.537
46525W        W14998  12.263   1.364   1.342
46526W        W14999   3.936  15.099   4.807
46527W        W15000   6.792  38.480   2.754
46528W        W15001  30.493  10.355   3.161
46529W        W15002  31.506  25.476  12.457
46530W        W15003  21.700   6.790  13.520
46531W        W15004  33.975   8.693   3.358
46532W        W15005  29.604  39.940   1.779
46533W        W15006  10.246   0.419  14.506
46534W        W15007   8.382  10.235   1.300
46535W        W15008  34.389  42.389  14.429
46536W        W15009  23.043  38.852  13.882
46537W        W15010  36.008  21.034   2.329
46538W        W15011  16.730  37.082  10.941
46539W        W15012  10.308  36.961  14.782
46540W        W15013   4.238  34.021   2.667
46541W        W15014  24.712  34.609   1.788
46542W        W15015   5.402  36.508   2.743
46543W        W15016  10.157  14.122   1.276
46544W        W15017  32.045  27.177   3.665
46545W        W15018   0.481  33.100   4.246
46546W        W15019  19.626  10.711  13.444
46547W        W15020  12.621  37.898   2.292
46548W        W15021  11.230  39.354   0.763
46549W        W15022  39.450  18.717   1.890
46550W        W15023  12.820  41.849   2.284
46551W        W15024   0.420  14.667  12.049
46552W        W15025  21.667  35.410  13.379
46553W        W15026  34.372  30.053   0.316
46554W        W15027  36.037  12.337   4.659
46555W        W15028  40.443  15.776   3.652
46556W        W15029  30.082  42.876   1.409
46557W        W15030  24.116  41.810   3.346
46558W        W15031  12.819  30.989   2.751
46559W        W15032   1.401  32.994  13.911
46560W        W15033   0.838  30.550  12.085
46561W        W15034  26.606   6.363   0.794
46562W        W15035  12.698  24.641   2.882
46563W        W15036  43.447  13.704  14.970
46564W        W15037  28.983  14.149  14.793
46565W        W15038   1.966  12.691   4.141
46566W        W15039  32.518  16.600  13.823
46567W        W15040  24.206  12.680   9.953
46568W        W15041   4.837  28.956   1.384
46569W        W15042  22.198  23.669  11.549
46570W        W15043  43.840  35.443  12.847
46571W        W15044  17.654   7.786  10.914
46572W        W15045  31.931  21.172   0.336
46573W        W15046  44.423  41.477   1.334
46574W        W15047  12.683  16.599  13.435
46575W        W15048  24.064  40.837   3.673
46576W        W15049  13.845  15.312   0.937
46577W        W15050  40.983  21.067   1.927
46578W        W15051  22.603  34.560  14.822
46579W        W15052  12.118  23.498   1.792
46580W        W15053  12.630  40.494   3.720
46581W        W15054  19.679  28.615   0.274
46582W        W15055  21.705  38.332   1.748
46583W        W15056  33.040  11.286   4.794
46584W        W15057  33.130  30.990  11.923
46585W        W15058  24.582  31.097   2.222
46586W        W15059  37.060   3.226  10.635
46587W        W15060   6.796  39.479  13.946
46588W        W15061  21.577  43.441  14.412
46589W        W15062  11.742  29.550  12.349
46590W        W15063  40.831  40.967   0.868
46591W        W15064  12.212   8.290  14.962
46592W        W15065  18.589  22.128  14.778
46593W        W15066   8.850  35.031  10.925
46594W        W15067  43.432  19.592   4.792
46595W        W15068  15.798  24.098  12.081
46596W        W15069  34.398  15.317   0.846
46597W        W15070   2.727   1.428   2.712
46598W        W15071  23.110  30.948   2.264
46599W        W15072  42.778  18.671  10.532
46600W        W15073   3.879  30.550   5.151
46601W        W15074  12.270   7.297   3.338
46602W        W15075  39.845   4.395   0.949
46603W        W15076  14.248  42.450  14.001
46604W        W15077  23.103  43.407   2.379
46605W        W15078   0.470  26.662   4.345
46606W        W15079  29.014  28.679   0.292
46607W        W15080   8.170  21.522  13.815
46608W        W15081  38.938  42.023   0.896
46609W        W15082  19.093  37.043  10.950
46610W        W15083  21.607  14.113  11.467
46611W        W15084  44.836  17.102  12.010
46612W        W15085   8.741   6.844   3.263
46613W        W15086  10.715  41.985   0.840
46614W        W15087  27.144  37.879  12.471
46615W        W15088  16.687  42.465  12.524
46616W        W15089  28.033   2.829   0.256
46617W        W15090  25.703  27.501  11.048
46618W        W15091   0.918   9.885  14.493
46619W        W15092   7.393  30.519   4.653
46620W        W15093  34.566  25.677  13.329
46621W        W15094  24.160  18.186  10.921
46622W        W15095  21.136  30.022  10.519
46623W        W15096  43.514  25.655  10.444
46624W        W15097   7.818  10.302  14.387
46625W        W15098  29.503  36.923   4.166
46626W        W15099  40.518  41.977  12.994
46627W        W15100  44.490  30.120  11.594
46628W        W15101  20.599   8.760   4.201
46629W        W15102  40.361  13.137  10.567
46630W        W15103  42.844  21.155  12.499
46631W        W15104  35.041  24.022  12.088
46632W        W15105   1.373  11.167  12.907
46633W        W15106  24.527  14.274  10.953
46634W        W15107   0.924  42.847   1.259
46635W        W15108   2.779  38.834   1.726
46636W        W15109  23.629  43.279   1.274
46637W        W15110  18.286  17.592  14.505
46638W        W15111  24.086  10.676   1.889
46639W        W15112   6.293  11.353  11.548
46640W        W15113  12.169  30.944  12.463
46641W        W15114  17.137   2.457  14.400
46642W        W15115  15.303  24.555  11.476
46643W        W15116  24.150  20.719  11.385
46644W        W15117   7.841  19.635   4.615
46645W        W15118   3.774  38.833  14.833
46646W        W15119  16.192   8.232  10.629
46647W        W15120  44.782  41.961  11.515
46648W        W15121   5.807  21.107   4.821
46649W        W15122  20.252  27.101  13.795
46650W        W15123  13.676  44.855   2.668
46651W        W15124   8.697  18.715  14.369
46652W        W15125  40.970  13.780   2.763
46653W        W15126  35.460  10.289   0.868
46654W        W15127  44.775   7.309  10.970
46655W        W15128  23.622   3.794   1.753
46656W        W15129  37.374  43.777  10.533
46657W        W15130  38.449  22.175  12.372
46658W        W15131  20.135  18.584   2.709
46659W        W15132  24.495  25.199  14.416
46660W        W15133   1.397  25.219   3.297
46661W        W15134  19.054  28.661   4.603
46662W        W15135  26.694   8.667   4.827
46663W        W15136   5.414  43.967  13.816
46664W        W15137  34.409  13.173  13.335
46665W        W15138   4.859  16.766   1.754
46666W        W15139  12.741   1.313   0.383
46667W        W15140  26.992   5.912   3.824
46668W        W15141  43.795   6.244  12.544
46669W        W15142   9.649  27.954   4.767
46670W        W15143   4.267  30.092   2.767
46671W        W15144  12.637  37.487   1.434
46672W        W15145  30.915  29.149  12.023
46673W        W15146  38.852  31.455   0.933
46674W        W15147  36.460  29.643  14.908
46675W        W15148  33.432  20.061   0.741
46676W        W15149  18.567  37.010   0.399
46677W        W15150  26.043  31.008   2.819
46678W        W15151  13.770  34.098  10.896
46679W        W15152   8.345   2.463   0.246
46680W        W15153  35.944  28.034  10.541
46681W        W15154   2.850  44.398   3.690
46682W        W15155  36.473  27.515  11.589
46683W        W15156  25.581  40.981  13.446
46684W        W15157  15.090  21.189   2.875
46685W        W15158  31.552   5.269  11.873
46686W        W15159  33.524   3.811   0.802
46687W        W15160  38.373  20.688   2.667
46688W        W15161  17.102  28.086  13.392
46689W        W15162  14.766  16.254   0.951
46690W        W15163  35.992  41.925   4.137
46691W        W15164  27.525   4.393  12.968
46692W        W15165  41.408  30.114  12.887
46693W        W15166  23.051   9.186   3.690
46694W        W15167  40.004  37.011  13.030
46695W        W15168  12.172  14.316   4.786
46696W        W15169  44.822   1.403  11.378
46697W        W15170  38.338  41.857   1.233
46698W        W15171   9.395  27.954   1.315
46699W        W15172   9.353  18.683  10.541
46700W        W15173   1.857  26.675   2.312
46701W        W15174  11.356  41.438   4.734
46702W        W15175  40.852  25.138   4.180
46703W        W15176  23.130  16.098  13.879
46704W        W15177  14.316  10.748   3.870
46705W        W15178  29.514  12.291  13.502
46706W        W15179  18.609   1.299  11.891
46707W        W15180  21.599  21.128   1.899
46708W        W15181   5.194  27.015  12.403
46709W        W15182   2.408  22.196   2.237
46710W        W15183  29.623  44.302   5.093
46711W        W15184   8.793  33.949   3.229
46712W        W15185  13.224   4.739   2.776
46713W        W15186  35.109   1.467  11.412
46714W        W15187  44.284  11.164   0.906
46715W        W15188  19.236  20.704   1.793
46716W        W15189  17.603  39.522   5.597
46717W        W15190  32.430  29.504  11.086
46718W        W15191  26.576   4.754  13.914
46719W        W15192  38.926  38.993  13.989
46720W        W15193  37.374  21.625  14.372
46721W        W15194  33.410   5.348   2.846
46722W        W15195  32.983  36.566  10.562
46723W        W15196   0.248  29.475   1.864
46724W        W15197  19.140  18.064   4.222
46725W        W15198  38.519  15.301  13.982
46726W        W15199  29.991  18.640   2.381
46727W        W15200  17.202  38.567   9.580
46728W        W15201   7.229  32.583   2.265
46729W        W15202  28.564  28.541   3.864
46730W        W15203  33.984  11.287  11.526
46731W        W15204  43.795   3.749   4.832
46732W        W15205  17.698  29.654  14.932
46733W        W15206  44.464   1.962   0.343
46734W        W15207  18.628  44.291   1.398
46735W        W15208  18.592  33.475   4.167
46736W        W15209  12.135  24.560  11.399
46737W        W15210  20.529  35.932   3.673
46738W        W15211  38.972   4.282   0.739
46739W        W15212  31.574  21.046  14.372
46740W        W15213  38.914   5.364  13.350
46741W        W15214  44.495   5.814  11.882
46742W        W15215   9.808  14.809  12.538
46743W        W15216  41.508  21.623   3.743
46744W        W15217  17.702  40.524  13.435
46745W        W15218  27.120   0.480  12.892
46746W        W15219  24.510   5.890  14.955
46747W        W15220  37.851  37.075  10.416
46748W        W15221  26.044  18.681  12.888
46749W        W15222   1.904   1.752   4.599
46750W        W15223  27.102  25.156   2.890
46751W        W15224  43.879  34.519   0.893
46752W        W15225  26.483   6.689  14.793
46753W        W15226  14.597  11.220  11.429
46754W        W15227  28.071  36.412  12.439
46755W        W15228  29.140  40.003  12.488
46756W        W15229  36.507  27.072   2.241
46757W        W15230  34.102  42.875   5.317
46758W        W15231  34.021  14.242  11.474
46759W        W15232  17.648  13.714  11.581
46760W        W15233  21.210  27.012   4.759
46761W        W15234   6.372  22.224  13.444
46762W        W15235  15.735   4.731  14.475
46763W        W15236  41.963  42.371  10.974
46764W        W15237   0.813   4.294   2.874
46765W        W15238  20.704  29.562  14.356
46766W        W15239  44.886   8.693   1.371
46767W        W15240  36.080  34.963  14.971
46768W        W15241  29.505  41.306   4.272
46769W        W15242  12.810   9.322  14.819
46770W        W15243  44.384  33.026   0.755
46771W        W15244   3.721  28.577   4.144
46772W        W15245   1.762   0.902  13.427
46773W        W15246  21.130  23.554   2.255
46774W        W15247   2.937  40.928   2.755
46775W        W15248  41.868  42.844  11.923
46776W        W15249   3.732  17.234   2.273
46777W        W15250  24.551  43.827   4.154
46778W        W15251  29.013  20.620   2.287
46779W        W15252  41.003  35.571   0.405
46780W        W15253   7.348  17.162  11.564
46781W        W15254  27.002  19.110   0.880
46782W        W15255  34.939  21.248  12.416
46783W        W15256   7.181   8.885   1.766
46784W        W15257  36.568   2.352   1.765
46785W        W15258  10.344   1.818  12.035
46786W        W15259  21.670  41.435   3.669
46787W        W15260   7.692  44.799   0.421
46788W        W15261  37.834  26.145   1.709
46789W        W15262  18.722   7.812  10.548
46790W        W15263  43.334  14.218   3.340
46791W        W15264   2.900   0.423   2.204
46792W        W15265  28.616   3.456   1.879
46793W        W15266  10.678  42.447   3.861
46794W        W15267  12.633  37.555  10.421
46795W        W15268   5.804  11.865  14.996
46796W        W15269  31.912  17.199   1.725
46797W        W15270  25.208  20.110  13.851
46798W        W15271  41.797  11.352  12.377
46799W        W15272  41.536  26.109   4.719
46800W        W15273  35.922  26.519   3.666
46801W        W15274  40.900  38.849  11.858
46802W        W15275  18.607  20.245  11.094
46803W        W15276  24.217  21.230   1.311
46804W        W15277  31.567  26.495   0.939
46805W        W15278  13.722   6.411   1.307
46806W        W15279  35.501  42.930   3.795
46807W        W15280  25.499   8.323   0.761
46808W        W15281  35.366  13.165   0.251
46809W        W15282  31.514   1.396  11.974
46810W        W15283  35.012   3.359  10.442
46811W        W15284   2.369  27.576  11.961
46812W        W15285  26.118  38.903   2.724
46813W        W15286  24.126   4.330  11.072
46814W        W15287  10.255  16.143   3.296
46815W        W15288  11.286  26.456  14.026
46816W        W15289  15.742  11.625   5.187
46817W        W15290  35.920   6.195   5.213
46818W        W15291  40.370   4.326   4.313
46819W        W15292  42.022  28.488   0.359
46820W        W15293  16.780  14.826  14.877
46821W        W15294  15.296  14.103  10.498
46822W        W15295  35.965  28.052  14.004
46823W        W15296  25.541  36.426  11.917
46824W        W15297  14.168  12.131   4.792
46825W        W15298  35.886  42.504  13.809
46826W        W15299  13.714  23.217  11.962
46827W        W15300   9.823   4.817   0.838
46828W        W15301  10.835  29.979  13.312
46829W        W15302   4.869  22.113   3.867
46830W        W15303  36.555  39.974  10.514
46831W        W15304  14.671  27.011   1.249
46832W        W15305   3.231   1.857   1.727
46833W        W15306  13.824  10.372  14.416
46834W        W15307  11.304   8.224  13.996
46835W        W15308  36.885  18.628   3.808
46836W        W15309  34.993  43.973  11.438
46837W        W15310  19.628  43.854  11.590
46838W        W15311  17.783   8.236   1.408
46839W        W15312  23.731  32.963  13.512
46840W        W15313  34.916   5.866   1.321
46841W        W15314  35.857  22.162   2.858
46842W        W15315  40.549  27.974   4.626
46843W        W15316  43.959  24.183   3.630
46844W        W15317  34.500  37.897  10.636
46845W        W15318  40.803   5.754  11.464
46846W        W15319  18.228  15.590   5.139
46847W        W15320  24.674   6.369  12.351
46848W        W15321  43.935  32.974   0.915
46849W        W15322   9.772  35.404   5.316
46850W        W15323  28.589  35.912  10.481
46851W        W15324  15.112  38.859  14.023
46852W        W15325  33.535  43.404  13.444
46853W        W15326  15.725  42.494   1.779
46854W        W15327   1.367  44.385   3.343
46855W        W15328   8.863  44.358  11.423
46856W        W15329  27.006  16.642  12.958
46857W        W15330  29.577  15.746   4.300
46858W        W15331  42.902  36.490   0.834
46859W        W15332  23.724   6.835   4.270
46860W        W15333   3.458  36.510   0.380
46861W        W15334   5.384  28.491   4.653
46862W        W15335  42.997  32.134   0.960
46863W        W15336  25.132   0.452  12.051
46864W        W15337  32.490  16.773   3.211
46865W        W15338  31.906  28.502  14.760
46866W        W15339  25.127  31.065  10.986
46867W        W15340  31.638  28.031   1.285
46868W        W15341  18.222  15.806  11.497
46869W        W15342  17.099   5.708   4.177
46870W        W15343  37.438  43.459  11.465
46871W        W15344  34.072  29.489  11.456
46872W        W15345  27.093  40.390   4.826
46873W        W15346   4.788  36.373  10.405
46874W        W15347   3.287  40.926  14.931
46875W        W15348  15.156   6.208  11.982
46876W        W15349  18.082  34.935   4.185
46877W        W15350  32.493  28.584  13.540
46878W        W15351   0.340  16.207   3.346
46879W        W15352  26.525   1.380   4.634
46880W        W15353  10.659   6.419   2.328
46881W        W15354   5.747   8.744   2.360
46882W        W15355  10.747  29.475   0.417
46883W        W15356   9.876  22.045  10.939
46884W        W15357  16.218  22.064   2.236
46885W        W15358   1.266  37.347  11.062
46886W        W15359   2.838   7.291  10.417
46887W        W15360  13.836   0.371  12.030
46888W        W15361  27.487  16.705   3.678
46889W        W15362  16.649  32.906   4.641
46890W        W15363  29.577  10.744   1.727
46891W        W15364  10.669  27.583   3.755
46892W        W15365  13.171  26.180   0.854
46893W        W15366   6.703  24.999   0.929
46894W        W15367   5.355   3.929  13.438
46895W        W15368  44.332   4.303  14.841
46896W        W15369   9.849  15.591  10.632
46897W        W15370  24.998   5.828   1.291
46898W        W15371  44.282   6.319   1.882
46899W        W15372  33.001  22.017  10.610
46900W        W15373  28.183  28.562  11.046
46901W        W15374  19.196  26.196   4.802
46902W        W15375  40.522   7.729  11.064
46903W        W15376  19.581  10.351   0.913
46904W        W15377  20.217   0.450   4.348
46905W        W15378  38.556  10.782   1.319
46906W        W15379   3.793   9.707   0.735
46907W        W15380  13.826  18.124   2.703
46908W        W15381   2.290  30.957   0.337
46909W        W15382   0.978  19.596   9.961
46910W        W15383  24.504  33.091  14.317
46911W        W15384  40.369  26.583   2.268
46912W        W15385   6.191  21.036   2.384
46913W        W15386  25.037  13.726   2.265
46914W        W15387   3.227  13.220   0.745
46915W        W15388  14.179  18.071  12.556
46916W        W15389  44.498  43.795  11.921
46917W        W15390  12.230  34.521  10.474
46918W        W15391  21.130  28.054  13.823
46919W        W15392   4.789   7.695   1.707
46920W        W15393  37.497  36.977  12.575
46921W        W15394  42.396  12.712  13.890
46922W        W15395  22.739  35.886   9.939
46923W        W15396  44.981  28.150   2.267
46924W        W15397  26.979   5.399  13.906
46925W        W15398  31.925   3.776   3.856
46926W        W15399  29.165   5.296   1.735
46927W        W15400  24.021  25.192   1.918
46928W        W15401  10.864   8.702   1.256
46929W        W15402   4.927   5.274  12.544
46930W        W15403  40.448   8.775  14.822
46931W        W15404  28.060   3.365  10.105
46932W        W15405  23.698   9.317  13.931
46933W        W15406  38.327  38.529  12.047
46934W        W15407  33.564  26.494  12.531
46935W        W15408  14.333  40.007  13.477
46936W        W15409  43.388  16.654  12.864
46937W        W15410  33.593  39.496  11.992
46938W        W15411  22.171   8.396   4.701
46939W        W15412   3.352   0.471   4.350
46940W        W15413  32.083  38.361   3.263
46941W        W15414  31.098  40.932  13.494
46942W        W15415  39.535   9.853   4.837
46943W        W15416  33.963  12.812  12.350
46944W        W15417  32.074  37.402   1.927
46945W        W15418  11.803  43.876   4.785
46946W        W15419   0.847  21.062  14.897
46947W        W15420  35.394  17.618  12.003
46948W        W15421  14.152   4.232  12.988
46949W        W15422  38.024  24.120  12.023
46950W        W15423  25.177  42.511   0.283
46951W        W15424  40.451   3.451   3.289
46952W        W15425  18.729  19.564  14.484
46953W        W15426  31.494   1.361   2.772
46954W        W15427   1.377   2.401   1.404
46955W        W15428  26.505   7.840  13.795
46956W        W15429  30.956  22.194   0.395
46957W        W15430  25.148  41.511  11.860
46958W        W15431  11.708   9.179   1.755
46959W        W15432  27.544  25.544  14.003
46960W        W15433   6.748  34.562  12.020
46961W        W15434   0.956  19.585  14.281
46962W        W15435  40.804  15.664   4.297
46963W        W15436  38.040  36.435   2.236
46964W        W15437   3.767  37.479  13.034
46965W        W15438   4.895  11.858  13.364
46966W        W15439  22.603  30.637   2.380
46967W        W15440  27.188   1.479  12.892
46968W        W15441  42.413   0.811   0.478
46969W        W15442  28.670  44.329  13.318
46970W        W15443  26.044  40.491   2.380
46971W        W15444  41.383  36.902   4.309
46972W        W15445  10.226   8.879  12.966
46973W        W15446  30.622  30.985   1.790
46974W        W15447  33.567  43.852   5.156
46975W        W15448  42.394   7.359   2.367
46976W        W15449   8.665  17.077  12.431
46977W        W15450   8.242  34.600   0.370
46978W        W15451  40.855   7.261  14.896
46979W        W15452  11.852  12.684  14.357
46980W        W15453  10.854  13.723   2.785
46981W        W15454  10.777  36.901  13.883
46982W        W15455   4.351   8.889  13.473
46983W        W15456  31.112   8.377   3.758
46984W        W15457   3.757   5.929   1.445
46985W        W15458  20.678  11.367  13.446
46986W        W15459  33.473   2.369   0.806
46987W        W15460  18.757  14.787   1.763
46988W        W15461  38.026  32.486   4.601
46989W        W15462  27.016  42.371  10.543
46990W        W15463  32.025  11.194   3.369
46991W        W15464  12.655  32.129  14.941
46992W        W15465  30.643  44.828  13.894
46993W        W15466   7.838  33.387   3.317
46994W        W15467  28.047  35.559   3.208
46995W        W15468   2.300  35.870   5.273
46996W        W15469  24.690  21.573   3.148
46997W        W15470   4.723  11.771  11.505
46998W        W15471  24.558  41.405   0.776
46999W        W15472  24.609  32.893  12.976
47000W        W15473  16.707  20.115   0.337
47001W        W15474  32.886  12.232   1.354
47002W        W15475  36.563   2.821  13.817
47003W        W15476  25.691  17.761   4.830
47004W        W15477  44.313  35.367   4.200
47005W        W15478  33.981   4.388  10.604
47006W        W15479   1.384  39.045   0.339
47007W        W15480  16.097   1.398   0.856
47008W        W15481  21.031  21.549  14.908
47009W        W15482  44.979   7.685  13.456
47010W        W15483  30.983   2.800   1.908
47011W        W15484  21.594   3.906  12.081
47012W        W15485   0.899  43.396  14.403
47013W        W15486  26.631   8.737  12.945
47014W        W15487  41.396  23.109   0.406
47015W        W15488   2.864   4.317  10.500
47016W        W15489  32.945  25.096  14.302
47017W        W15490  23.093  39.326   2.401
47018W        W15491  22.730  17.172   0.252
47019W        W15492   4.843  11.742   4.715
47020W        W15493  18.720  40.460   2.233
47021W        W15494  20.622   1.276  13.521
47022W        W15495  21.246  10.244   0.933
47023W        W15496  21.104  34.479  12.483
47024W        W15497   9.241   5.895   1.792
47025W        W15498  34.560  42.488  12.002
47026W        W15499  32.963  36.083  12.940
47027W        W15500  41.922   6.285  10.440
47028W        W15501  43.415  32.456   1.238
47029W        W15502  44.502  31.418   2.212
47030W        W15503  14.682  29.667  11.413
47031W        W15504  20.678  25.665   2.666
47032W        W15505  10.768  35.403   0.827
47033W        W15506  29.648   0.820   0.474
47034W        W15507  36.030  19.085   0.957
47035W        W15508  16.109  37.545   5.708
47036W        W15509  24.985  39.474  11.857
47037W        W15510  11.683  41.991   4.789
47038W        W15511  20.552  12.619   1.346
47039W        W15512  16.299  25.972  11.909
47040W        W15513  24.641  17.213  11.996
47041W        W15514  36.357  25.634  10.914
47042W        W15515  11.230  24.980   3.302
47043W        W15516  44.872   6.193  11.087
47044W        W15517  18.596  11.231  11.019
47045W        W15518  17.147  23.519  14.780
47046W        W15519  21.146  22.603  12.580
47047W        W15520  24.511  24.192  14.876
47048W        W15521   9.699  37.888  13.534
47049W        W15522  19.639  44.849  14.019
47050W        W15523   8.226  14.751  14.364
47051W        W15524  31.426  24.183  14.442
47052W        W15525  35.484  34.498   0.745
47053W        W15526  11.770  42.838  13.477
47054W        W15527  33.989  22.183   0.266
47055W        W15528   6.387  11.737   3.347
47056W        W15529  44.998  38.414  14.501
47057W        W15530   9.739   7.813  11.927
47058W        W15531   1.776  32.076   3.340
47059W        W15532  19.756   1.826   1.887
47060W        W15533  28.009  37.341  13.829
47061W        W15534  13.774   9.687   2.294
47062W        W15535   5.231  10.832   2.898
47063W        W15536  20.039  27.055  13.533
47064W        W15537  37.539  41.788  11.431
47065W        W15538  39.463   4.396  14.507
47066W        W15539  43.884   0.337  11.859
47067W        W15540  31.638  31.572  14.817
47068W        W15541  13.752  13.127  11.565
47069W        W15542  17.594   0.264   4.683
47070W        W15543  43.472  17.290  12.908
47071W        W15544  28.566  22.576   3.258
47072W        W15545  44.402  35.876   4.215
47073W        W15546  42.008  21.567  13.032
47074W        W15547  23.086  36.353   1.879
47075W        W15548  36.029  35.942   3.196
47076W        W15549  41.435  36.501   3.247
47077W        W15550  35.929  44.483   3.276
47078W        W15551  24.642  42.902   1.813
47079W        W15552  33.482  42.992  10.602
47080W        W15553   7.779  17.693  12.828
47081W        W15554  33.916   7.370   3.776
47082W        W15555   3.368  25.152  13.887
47083W        W15556  39.032  26.035  11.861
47084W        W15557   5.349  42.955   0.851
47085W        W15558  31.627  34.548  11.021
47086W        W15559  11.203  20.088   4.724
47087W        W15560  37.867  29.491   2.838
47088W        W15561  40.549  30.941   4.213
47089W        W15562   0.833  27.564  13.907
47090W        W15563  29.064  25.705   3.741
47091W        W15564  16.092   7.788  12.424
47092W        W15565  25.530   0.743  10.592
47093W        W15566  12.142  21.110   3.698
47094W        W15567  27.459  27.493  13.899
47095W        W15568  39.835  19.283  12.024
47096W        W15569  44.429   5.883  11.433
47097W        W15570   9.337  31.128   1.263
47098W        W15571  39.824  44.415  12.467
47099W        W15572  16.800  36.379  12.987
47100W        W15573  18.276  13.845  11.047
47101W        W15574  44.004  38.968  13.890
47102W        W15575  17.214  36.873   0.756
47103W        W15576  44.820  20.710   2.205
47104W        W15577  26.642  27.166  14.507
47105W        W15578  34.415  39.920  13.525
47106W        W15579  38.899  40.978   4.127
47107W        W15580  23.216  27.532   1.237
47108W        W15581  43.855  41.896   2.204
47109W        W15582   5.750  35.958  11.882
47110W        W15583  24.077  43.869   1.741
47111W        W15584  34.492  37.376  13.321
47112W        W15585   6.890  19.080  12.035
47113W        W15586   3.432  27.556  11.554
47114W        W15587  13.772  36.371   2.678
47115W        W15588  16.741  18.768  10.947
47116W        W15589  34.533   5.310   3.679
47117W        W15590  41.385  16.278  11.552
47118W        W15591  41.510  19.559  14.453
47119W        W15592  23.523  40.879   0.324
47120W        W15593  25.475  43.873  13.936
47121W        W15594  19.762  14.806   5.170
47122W        W15595  27.084  29.057   0.245
47123W        W15596   4.387   2.745   3.199
47124W        W15597   5.832   3.226  12.421
47125W        W15598   9.716  22.161  11.471
47126W        W15599  19.573  12.243  13.475
47127W        W15600  29.459   6.677   1.765
47128W        W15601  40.460   7.284   3.241
47129W        W15602  15.751   9.780   3.777
47130W        W15603  38.033   3.868  14.348
47131W        W15604  30.928  23.503  11.886
47132W        W15605  15.685  19.774   2.801
47133W        W15606  24.725  37.959   1.370
47134W        W15607  11.186  33.892   0.906
47135W        W15608   7.783  24.191  10.625
47136W        W15609  35.985  32.604  10.554
47137W        W15610  26.578  32.559  12.569
47138W        W15611  12.837  15.652   4.653
47139W        W15612  18.752   0.399   4.218
47140W        W15613  41.846  22.605  11.912
47141W        W15614  42.846  34.927  10.635
47142W        W15615  10.215  41.924   1.837
47143W        W15616  16.251   3.353   0.844
47144W        W15617  13.757  18.277   3.802
47145W        W15618  20.207   5.797   4.267
47146W        W15619  43.821   9.847   3.824
47147W        W15620  33.494  31.018  10.897
47148W        W15621  32.444  34.447  13.456
47149W        W15622   3.720  31.623   4.655
47150W        W15623  36.460  27.673  13.458
47151W        W15624  41.041   9.652   2.238
47152W        W15625   6.282  30.523   1.246
47153W        W15626  17.579  44.916  12.903
47154W        W15627   3.769  31.575   4.215
47155W        W15628  43.884   4.435  14.024
47156W        W15629  18.592  24.710   3.747
47157W        W15630  26.055   8.883  13.018
47158W        W15631  18.070   7.698  13.474
47159W        W15632  24.712  32.036   0.432
47160W        W15633  10.170  40.451   5.309
47161W        W15634   5.361  40.980  13.029
47162W        W15635  32.551   8.391  10.514
47163W        W15636  42.023  14.287   5.235
47164W        W15637   3.721  37.009  15.000
47165W        W15638  37.552  36.423  13.483
47166W        W15639  20.621  20.766  12.075
47167W        W15640  12.218   8.275   1.427
47168W        W15641  16.593   9.682  13.794
47169W        W15642   8.818  11.185  12.085
47170W        W15643  17.559   8.282  14.021
47171W        W15644   1.416  13.782   2.849
47172W        W15645  34.072   7.738   2.236
47173W        W15646   7.284  35.934  12.047
47174W        W15647  16.707  32.531   4.213
47175W        W15648  14.097  23.624   0.481
47176W        W15649   2.289   3.948  13.374
47177W        W15650  43.936  27.513  14.987
47178W        W15651  15.114  32.467   4.646
47179W        W15652  27.982  37.049  11.077
47180W        W15653  22.160  40.308  11.588
47181W        W15654  22.011  31.528   2.396
47182W        W15655  41.847  25.048  10.887
47183W        W15656  35.462  31.612   4.219
47184W        W15657  37.888  11.179   3.343
47185W        W15658   4.744   0.447  12.972
47186W        W15659  17.797  42.491   0.373
47187W        W15660  23.201  43.844  12.350
47188W        W15661  18.148  10.726  12.351
47189W        W15662  30.530  36.370   0.776
47190W        W15663   9.393  10.686   4.635
47191W        W15664  36.363  18.214   4.114
47192W        W15665  36.920   5.878   3.666
47193W        W15666  17.637  38.410   0.953
47194W        W15667  41.857  13.644  12.573
47195W        W15668   1.950  29.973   3.693
47196W        W15669  22.221  44.281  11.419
47197W        W15670  13.350  30.067   2.662
47198W        W15671  39.990  30.946   4.244
47199W        W15672  23.189   2.422   3.700
47200W        W15673  13.601   9.250   2.801
47201W        W15674  25.127  10.255   5.254
47202W        W15675   8.849  38.843   5.238
47203W        W15676  21.150   4.305   2.831
47204W        W15677  17.781  32.468  14.832
47205W        W15678  16.273  38.531  12.071
47206W        W15679  10.151  20.267  11.979
47207W        W15680   3.298  17.253   2.347
47208W        W15681  14.300  40.506   3.821
47209W        W15682  25.097  37.924   4.830
47210W        W15683  44.895  18.550  10.576
47211W        W15684  33.912  17.746  11.462
47212W        W15685  37.429  40.889   0.298
47213W        W15686  35.023   2.926  13.526
47214W        W15687  11.862   2.720   1.358
47215W        W15688  43.904  40.824   4.140
47216W        W15689  29.620   5.746   3.341
47217W        W15690  31.568  36.098  12.974
47218W        W15691  21.087  33.983   1.925
47219W        W15692  27.507  27.963   3.827
47220W        W15693   5.265  34.909  13.956
47221W        W15694  33.059  19.580   2.284
47222W        W15695  22.188  25.104  14.979
47223W        W15696  22.016  29.472   2.848
47224W        W15697   9.378   3.425   1.871
47225W        W15698  26.579  17.701  13.421
47226W        W15699  40.357   8.170   1.900
47227W        W15700   1.749  25.646  12.843
47228W        W15701  30.144   7.406  12.443
47229W        W15702  35.070  12.672   1.895
47230W        W15703   2.902  41.811   0.249
47231W        W15704  22.121   8.190   3.756
47232W        W15705  31.533  10.364   4.219
47233W        W15706   5.421  26.979  10.554
47234W        W15707  22.721   8.393  13.921
47235W        W15708  43.286  34.372   3.774
47236W        W15709  23.512  34.587  14.928
47237W        W15710  17.141  16.241   4.820
47238W        W15711  30.538  11.209   3.852
47239W        W15712  14.713  36.035  11.069
47240W        W15713   4.372   4.939  12.500
47241W        W15714  19.199  23.732   3.323
47242W        W15715  18.773  11.731   0.840
47243W        W15716  23.204   9.804  13.975
47244W        W15717  11.739   4.310  10.528
47245W        W15718  11.230  36.842  12.359
47246W        W15719  43.460  19.558  13.483
47247W        W15720  35.085  39.340   2.695
47248W        W15721  18.160  23.717  13.052
47249W        W15722  14.749  15.659   0.269
47250W        W15723   8.799  15.820   2.881
47251W        W15724  21.177  16.288   0.746
47252W        W15725  42.836  24.014   4.317
47253W        W15726  43.338  40.921   2.892
47254W        W15727   9.645  20.765  10.581
47255W        W15728  35.997  19.751  14.830
47256W        W15729  33.095  11.213  11.583
47257W        W15730   2.881  20.072   4.631
47258W        W15731  31.122  38.013   4.776
47259W        W15732  30.453   1.928  14.767
47260W        W15733  25.158  42.301   2.763
47261W        W15734  13.734  12.810  10.567
47262W        W15735  32.942  42.021  13.346
47263W        W15736  32.985  28.018  14.887
47264W        W15737  27.016  30.651  12.047
47265W        W15738   4.311  38.026   3.687
47266W        W15739  29.049  26.536   1.815
47267W        W15740  16.144   3.872  12.936
47268W        W15741  35.578   3.826   2.331
47269W        W15742   5.288  27.009  11.982
47270W        W15743  16.710  26.204  13.501
47271W        W15744   1.470  42.948   0.346
47272W        W15745  23.656   6.357   1.928
47273W        W15746   1.875  21.103   3.846
47274W        W15747  18.269   1.929   3.643
47275W        W15748  15.119  28.576   0.395
47276W        W15749  37.029  41.452  13.495
47277W        W15750   9.738  36.078  13.886
47278W        W15751  43.435  30.590  12.074
47279W        W15752   7.678  31.019  12.486
47280W        W15753  26.028  29.149  14.417
47281W        W15754   2.860  38.897   1.321
47282W        W15755  14.805  19.685  11.128
47283W        W15756   4.823   8.189  14.317
47284W        W15757  23.146  30.990  11.925
47285W        W15758  20.543  15.091   0.243
47286W        W15759  16.572  22.129   4.200
47287W        W15760  19.617   4.724  13.511
47288W        W15761  31.942  41.397   4.717
47289W        W15762  21.259   1.312   1.886
47290W        W15763   7.414  39.428   2.851
47291W        W15764  27.647  42.338   4.666
47292W        W15765  16.161   7.903  12.042
47293W        W15766  39.028  13.193  11.989
47294W        W15767  18.116  42.907  13.947
47295W        W15768   4.809  43.495  12.070
47296W        W15769  10.179  32.545  11.897
47297W        W15770  26.050  11.788   0.785
47298W        W15771  24.496  31.437   1.232
47299W        W15772  20.264  29.464   2.195
47300W        W15773  42.964  11.231  11.011
47301W        W15774   9.391  28.481   1.376
47302W        W15775  14.802  38.325  13.010
47303W        W15776  14.317  20.703  12.863
47304W        W15777   2.958  39.499   2.807
47305W        W15778  14.632  11.189  10.551
47306W        W15779   3.345  36.500  12.055
47307W        W15780  23.682  39.036   4.240
47308W        W15781  35.396  26.607   1.379
47309W        W15782  38.525  11.253   4.830
47310W        W15783  20.723  16.218   0.455
47311W        W15784   9.722  24.981  11.515
47312W        W15785  43.293   0.372   0.405
47313W        W15786  43.475  32.130  10.532
47314W        W15787   3.442  33.474  14.279
47315W        W15788  29.089   4.871   4.132
47316W        W15789   7.713  13.819  13.016
47317W        W15790  39.502  12.246   0.829
47318W        W15791  32.589  28.649   1.336
47319W        W15792  25.523   5.930   3.641
47320W        W15793  43.483  33.559  10.499
47321W        W15794  26.697  25.514   2.724
47322W        W15795   2.348  27.622   4.776
47323W        W15796   7.810  23.985   2.781
47324W        W15797  41.854  33.084  13.971
47325W        W15798  26.951  25.613   3.833
47326W        W15799   7.882  29.609  14.505
47327W        W15800  12.315  17.764  14.788
47328W        W15801  31.616  22.740  14.980
47329W        W15802  17.301  32.138   1.302
47330W        W15803   3.330   1.950   2.687
47331W        W15804  28.582  19.210   4.600
47332W        W15805  13.180  37.853  13.046
47333W        W15806  40.860   3.937   0.271
47334W        W15807   9.164  17.108   2.399
47335W        W15808  26.087  39.838  14.347
47336W        W15809  23.029  43.906   3.669
47337W        W15810  31.612  29.149   2.230
47338W        W15811  14.304  34.445  10.967
47339W        W15812  16.131   0.377   2.862
47340W        W15813  39.338  12.618   0.389
47341W        W15814   4.858   2.305  13.470
47342W        W15815  13.792  42.306  13.839
47343W        W15816  17.158  36.521   4.747
47344W        W15817  24.192   8.316   0.404
47345W        W15818   6.208   4.243   2.863
47346W        W15819  36.886  36.911   4.264
47347W        W15820  10.283   3.424   4.778
47348W        W15821  31.437   2.872   3.778
47349W        W15822   9.747   9.753  14.835
47350W        W15823  35.587  24.185   3.678
47351W        W15824  36.353   8.837   0.776
47352W        W15825  16.592  24.119   0.861
47353W        W15826  44.308  36.349   1.839
47354W        W15827  19.725   5.212   1.843
47355W        W15828  37.867   0.749  10.915
47356W        W15829  11.770   5.817   0.287
47357W        W15830  10.139  43.766  12.944
47358W        W15831   2.837  25.025  12.894
47359W        W15832  14.192   3.792   3.701
47360W        W15833   6.290  43.937  10.932
47361W        W15834   5.301  36.520   1.347
47362W        W15835  17.185  33.101  14.788
47363W        W15836  43.315  21.043   1.442
47364W        W15837   3.219  17.733  13.528
47365W        W15838  41.950  37.867   4.626
47366W        W15839  16.144  32.956   0.333
47367W        W15840  10.332  10.239  13.465
47368W        W15841  22.094   7.266  12.431
47369W        W15842   4.741  42.847   2.748
47370W        W15843  41.903  33.102   1.885
47371W        W15844  13.797  27.065  14.293
47372W        W15845  38.433  35.022   1.356
47373W        W15846  37.027  40.465  10.554
47374W        W15847  35.957  32.114   3.645
47375W        W15848  43.356  10.349  10.614
47376W        W15849  39.043  44.846  13.037
47377W        W15850  16.743  17.713  14.514
47378W        W15851  11.288  38.945   4.299
47379W        W15852  32.989  38.851   4.352
47380W        W15853  34.426  22.106   0.411
47381W        W15854   5.808  24.121   1.726
47382W        W15855  34.516  19.596  13.481
47383W        W15856  20.258   9.202   4.656
47384W        W15857  41.456  32.514   2.861
47385W        W15858  13.616  14.122   3.277
47386W        W15859  24.091  30.436  12.562
47387W        W15860  40.485   6.866   4.793
47388W        W15861  13.705  42.515  10.486
47389W        W15862  43.822  19.709   1.796
47390W        W15863  17.136  29.165   5.322
47391W        W15864  33.102  35.586  12.829
47392W        W15865  15.217  17.276  13.388
47393W        W15866  30.643  26.602  14.790
47394W        W15867  20.227   7.374   2.852
47395W        W15868  16.081  15.693  10.623
47396W        W15869  17.603  14.640   0.921
47397W        W15870  34.509   8.783  13.361
47398W        W15871  38.536  38.408  14.457
47399W        W15872  26.467  35.919   1.797
47400W        W15873  16.161  12.624  11.960
47401W        W15874   2.247  40.051  12.931
47402W        W15875  15.152   9.829   3.305
47403W        W15876   7.311  27.649  12.422
47404W        W15877  34.912  39.348  12.373
47405W        W15878   6.805  10.673  13.330
47406W        W15879  37.371  17.667   3.801
47407W        W15880   9.161  27.082   3.285
47408W        W15881  16.701  20.719   2.793
47409W        W15882  26.578   4.242  14.325
47410W        W15883  20.742   2.238   4.144
47411W        W15884  17.797  20.196  11.979
47412W        W15885  17.604  18.057  10.441
47413W        W15886  13.742  15.765  13.795
47414W        W15887  12.787  38.004  11.410
47415W        W15888  30.950  36.062   1.440
47416W        W15889  38.953   3.823   2.736
47417W        W15890  38.542   7.260  11.466
47418W        W15891  34.094  24.074  14.343
47419W        W15892  33.914  43.958  10.892
47420W        W15893   9.216  39.505   0.787
47421W        W15894  23.088  36.554  14.995
47422W        W15895  15.589  37.446  13.942
47423W        W15896  36.591  20.065  13.947
47424W        W15897   7.724  19.699  14.998
47425W        W15898  41.985  38.828  11.055
47426W        W15899  23.615  28.468   1.443
47427W        W15900  35.872  35.486   2.386
47428W        W15901  15.582  27.589   0.367
47429W        W15902   0.337  33.539  12.574
47430W        W15903  37.944   3.773  12.064
47431W        W15904  24.598  23.140  12.959
47432W        W15905  26.655   9.323  14.295
47433W        W15906  41.403  10.335   0.830
47434W        W15907  22.603  19.274   4.345
47435W        W15908  38.837  20.263   1.805
47436W        W15909  11.813  20.635   0.333
47437W        W15910  24.127  10.153   9.938
47438W        W15911  20.649  39.314  12.013
47439W        W15912  29.574  23.697   0.837
47440W        W15913  23.119  42.397   2.252
47441W        W15914  30.503  19.148  12.092
47442W        W15915  38.049  13.757   4.344
47443W        W15916  15.317  41.484   2.872
47444W        W15917  23.722  35.396  10.944
47445W        W15918  20.131  36.356  12.555
47446W        W15919  35.874  13.300  12.491
47447W        W15920   6.404  35.467   1.927
47448W        W15921  37.861  13.218   4.242
47449W        W15922  16.666  14.181   2.903
47450W        W15923  29.607   7.253  11.970
47451W        W15924  30.018  13.270   1.901
47452W        W15925  42.930  10.153   4.291
47453W        W15926  38.016   1.891   2.712
47454W        W15927  42.930   3.938   3.359
47455W        W15928  14.796  21.575   0.935
47456W        W15929  43.497  16.594  11.099
47457W        W15930  23.158  19.242  13.455
47458W        W15931  30.503  12.145  10.528
47459W        W15932  11.364  28.516  12.352
47460W        W15933  15.284  41.886  13.034
47461W        W15934  17.185   9.827  11.907
47462W        W15935  17.265   0.938  13.857
47463W        W15936  20.671   4.292   0.459
47464W        W15937   1.454   4.898  14.436
47465W        W15938   3.828  26.085  12.376
47466W        W15939  32.482  31.046   3.716
47467W        W15940  13.816  15.779   1.415
47468W        W15941  16.114  40.306  12.929
47469W        W15942  17.666  19.045  14.322
47470W        W15943   6.423  12.839  12.462
47471W        W15944  38.044  12.796  14.313
47472W        W15945   2.246  38.841   3.386
47473W        W15946   9.371  29.660  12.045
47474W        W15947  24.637  34.066  13.920
47475W        W15948  40.344  42.929   2.323
47476W        W15949  22.073  18.761   0.341
47477W        W15950   8.895  28.016  11.502
47478W        W15951  12.845   2.381   0.395
47479W        W15952  22.234   8.351  11.074
47480W        W15953  23.574  36.033  11.875
47481W        W15954  17.184  38.473   0.342
47482W        W15955  11.836  43.452   3.169
47483W        W15956   4.744   5.769  13.873
47484W        W15957   6.278  22.133   0.734
47485W        W15958  21.071  42.506  12.468
47486W        W15959  40.424  19.108   1.213
47487W        W15960   3.797  28.637   4.832
47488W        W15961  33.551  11.738  11.078
47489W        W15962   0.477  16.734   3.833
47490W        W15963   3.945  15.186   0.967
47491W        W15964  18.123   8.695   3.742
47492W        W15965  37.043  42.847   0.246
47493W        W15966  33.122  26.620   0.888
47494W        W15967  15.281  14.285   2.796
47495W        W15968  14.768  42.500  13.007
47496W        W15969  31.600   5.389  11.430
47497W        W15970  27.573  29.638  14.377
47498W        W15971  33.387   6.881   0.375
47499W        W15972  38.363  20.687   3.640
47500W        W15973  28.639  17.256   9.939
47501W        W15974   2.841  26.077   4.820
47502W        W15975  41.818  23.152  10.897
47503W        W15976  41.956  34.971   5.114
47504W        W15977  15.258  42.778  10.046
47505W        W15978  23.705  30.020   0.455
47506W        W15979   2.325  11.296   3.655
47507W        W15980  28.091   5.711  12.417
47508W        W15981   0.957  29.928  10.937
47509W        W15982  21.617   0.913  11.876
47510W        W15983  14.766  11.639   4.150
47511W        W15984  44.000  27.002  13.390
47512W        W15985  44.328  26.489  13.847
47513W        W15986   4.838  22.251  12.483
47514W        W15987  27.471  34.501  11.031
47515W        W15988  10.680   0.894   4.154
47516W        W15989   0.426  25.588  13.869
47517W        W15990  19.214  26.064   3.247
47518W        W15991  20.535  41.967   4.311
47519W        W15992  33.534  32.519  12.993
47520W        W15993  31.449   0.379  10.630
47521W        W15994  20.657   5.710  13.342
47522W        W15995   1.459  31.944  14.974
47523W        W15996   9.245  26.073   2.245
47524W        W15997  14.154   5.323  14.905
47525W        W15998  44.865  37.462  10.543
47526W        W15999  10.165   7.904  13.466
47527W        W16000  15.254   9.807   0.906
47528W        W16001  11.704  22.628  14.288
47529W        W16002  43.910  16.206   1.731
47530W        W16003   4.925  24.052   0.938
47531W        W16004  39.899  25.557  10.982
47532W        W16005  29.439  37.925  10.515
47533W        W16006  25.493   1.400   4.632
47534W        W16007  37.373  32.954   3.197
47535W        W16008  15.763  26.473  13.805
47536W        W16009  13.215  10.812  10.515
47537W        W16010  19.743  42.521   4.250
47538W        W16011  31.417  13.159   2.288
47539W        W16012  16.318  44.402   4.818
47540W        W16013  22.536  26.103   0.262
47541W        W16014  12.125  41.888  11.883
47542W        W16015  38.938  42.472   1.405
47543W        W16016  29.465  14.188   0.305
47544W        W16017  14.783  30.473   1.745
47545W        W16018  40.321   5.387   0.923
47546W        W16019  42.779  34.030  14.805
47547W        W16020  37.844   2.470  10.424
47548W        W16021  28.072  13.191  11.448
47549W        W16022  31.524   8.877  13.840
47550W        W16023  33.577   6.814   3.721
47551W        W16024  32.610   5.436   1.728
47552W        W16025   9.707  33.580  10.148
47553W        W16026  10.223  20.174   0.727
47554W        W16027  16.301  19.704   4.119
47555W        W16028  24.557  27.663  14.878
47556W        W16029   3.860  20.727   3.382
47557W        W16030  20.143  19.653   0.355
47558W        W16031  19.212  10.809   3.866
47559W        W16032  16.671  30.936  11.967
47560W        W16033  17.614  12.747  10.444
47561W        W16034  15.228  31.532  14.000
47562W        W16035  36.412  44.849   4.714
47563W        W16036  32.985  19.075  14.004
47564W        W16037  24.107  36.576   2.333
47565W        W16038   8.390  44.811   4.796
47566W        W16039  30.914  33.397  11.403
47567W        W16040   9.317  13.105   1.256
47568W        W16041   7.805  28.457  14.912
47569W        W16042   0.809  36.913   2.746
47570W        W16043  29.958  25.529   9.537
47571W        W16044  43.953  23.605  11.106
47572W        W16045  35.887  43.930  14.320
47573W        W16046  10.799  21.720   3.839
47574W        W16047  31.109  26.468  10.071
47575W        W16048  33.518   5.689  14.827
47576W        W16049  28.508  20.085   1.396
47577W        W16050  40.404  29.636   3.285
47578W        W16051  23.586  24.504   4.678
47579W        W16052  30.956  41.423  11.939
47580W        W16053  18.618  32.571   4.336
47581W        W16054  22.070   9.756  10.576
47582W        W16055  40.921  21.683   0.888
47583W        W16056  28.987  13.708   0.957
47584W        W16057   8.233  18.124  11.877
47585W        W16058  12.146  18.747  12.911
47586W        W16059  30.043   6.184  13.471
47587W        W16060   7.784   6.829   2.878
47588W        W16061  27.129  44.279   3.837
47589W        W16062  29.093   7.291  10.892
47590W        W16063  43.765   5.795   1.353
47591W        W16064  12.319  13.736  10.978
47592W        W16065  21.150  11.163   3.351
47593W        W16066  18.764  13.271   2.825
47594W        W16067  13.795   9.215   1.785
47595W        W16068  26.052  18.119  13.945
47596W        W16069   8.369  18.608  12.559
47597W        W16070  34.465  23.578   1.325
47598W        W16071  18.136  41.436  14.283
47599W        W16072  12.724  35.939  13.039
47600W        W16073  20.248  10.680  11.911
47601W        W16074  37.492  30.970   2.419
47602W        W16075  29.052  13.217   3.297
47603W        W16076  20.067  29.478   0.733
47604W        W16077  43.482  15.197  14.973
47605W        W16078  43.488   5.832  12.411
47606W        W16079  30.915  10.247   3.859
47607W        W16080  29.951   8.175   3.636
47608W        W16081  34.954  38.941   1.379
47609W        W16082  27.576   7.378   4.212
47610W        W16083   6.292   0.940   1.250
47611W        W16084  20.708  36.943  10.891
47612W        W16085  42.461  17.305  14.000
47613W        W16086  29.116  13.760  13.061
47614W        W16087   9.200  36.465  11.968
47615W        W16088   9.228  26.986  12.986
47616W        W16089  39.362  20.190  12.411
47617W        W16090  28.996  29.649   3.202
47618W        W16091  33.579  24.644  12.517
47619W        W16092  44.884  10.709  12.908
47620W        W16093  17.091  40.304  11.086
47621W        W16094  14.646  42.499  11.450
47622W        W16095  17.566  42.453   4.141
47623W        W16096  43.382  19.651   2.329
47624W        W16097  26.662  13.670   1.848
47625W        W16098  26.154  10.282   3.758
47626W        W16099  16.604   7.367  10.581
47627W        W16100  15.799  40.917  11.885
47628W        W16101   0.429  43.005   2.785
47629W        W16102  27.521   3.886  12.366
47630W        W16103  24.635  21.208  11.023
47631W        W16104  41.902   4.704   1.441
47632W        W16105  38.881  19.067   4.174
47633W        W16106  44.756  19.663   2.352
47634W        W16107  14.816  29.174  11.493
47635W        W16108  23.172   4.210   4.333
47636W        W16109   3.228   0.407  14.918
47637W        W16110   0.919  38.542   1.390
47638W        W16111  12.637  31.096  14.774
47639W        W16112  43.390  33.618   1.449
47640W        W16113   0.253  32.473  11.102
47641W        W16114  32.403  29.515  14.425
47642W        W16115  12.663  20.540  14.511
47643W        W16116  21.078   1.387  14.857
47644W        W16117  21.542  13.127   2.204
47645W        W16118  39.536   3.295   3.289
47646W        W16119  21.131  36.424  12.526
47647W        W16120  14.250  18.706   1.885
47648W        W16121  44.450   2.863  14.012
47649W        W16122  32.406  22.711  10.132
47650W        W16123  18.245   4.407  11.397
47651W        W16124  44.009  28.492  11.526
47652W        W16125  43.289  44.997  10.491
47653W        W16126  13.761   2.869   3.773
47654W        W16127  16.198  15.256  14.497
47655W        W16128   5.331  34.588   2.745
47656W        W16129  14.304   0.779   3.696
47657W        W16130  31.589  39.553  12.859
47658W        W16131  27.116  22.115   1.794
47659W        W16132  34.069  13.106  12.936
47660W        W16133  32.100  44.468   1.428
47661W        W16134  10.681  34.410   2.335
47662W        W16135  25.043  18.631  13.883
47663W        W16136  25.529  44.805  13.522
47664W        W16137  25.561  16.736   4.321
47665W        W16138  28.017  17.197  14.890
47666W        W16139  11.827  17.685  12.955
47667W        W16140  35.970  25.074   3.761
47668W        W16141  21.671  12.767   3.225
47669W        W16142  17.306  24.002   4.182
47670W        W16143  22.238  11.754   1.290
47671W        W16144   0.355  33.996   3.774
47672W        W16145  23.192   1.833  14.850
47673W        W16146  13.658  15.742  12.891
47674W        W16147  31.934  17.580   2.269
47675W        W16148  24.112  31.487   0.416
47676W        W16149  22.175  11.281  13.467
47677W        W16150  20.671  23.733   3.824
47678W        W16151  28.111   8.242  11.434
47679W        W16152  17.112  25.563  13.413
47680W        W16153  34.948  40.893   0.935
47681W        W16154  42.420  42.315   4.171
47682W        W16155  17.758   7.317   4.276
47683W        W16156  21.594  13.115  12.878
47684W        W16157  33.454   0.300  11.414
47685W        W16158  42.363  44.340  11.465
47686W        W16159  15.749  11.179  12.488
47687W        W16160  43.293  21.065  14.814
47688W        W16161  23.067  29.056  14.781
47689W        W16162   3.835  21.588   0.289
47690W        W16163  11.316   9.867  11.580
47691W        W16164  10.754  40.863  13.382
47692W        W16165  27.150  44.768  12.051
47693W        W16166   4.899  20.043  10.548
47694W        W16167   3.375   6.192  11.498
47695W        W16168   9.876  44.500  12.886
47696W        W16169  38.075  30.078  13.060
47697W        W16170  13.188  25.039  13.791
47698W        W16171   0.951  43.871   2.692
47699W        W16172   7.817  13.744  10.981
47700W        W16173  33.034   1.967  14.341
47701W        W16174  21.579   9.780   1.736
47702W        W16175  14.615   3.241   0.475
47703W        W16176   3.314  19.143   3.699
47704W        W16177  27.083  15.760  12.376
47705W        W16178   4.732  28.546  10.892
47706W        W16179  21.684  39.872  14.383
47707W        W16180  21.582  24.038  13.388
47708W        W16181  37.017  13.196  13.899
47709W        W16182  41.875  33.605   0.782
47710W        W16183  44.795   2.902  10.427
47711W        W16184  19.132   6.212   1.779
47712W        W16185  39.555  43.842   0.856
47713W        W16186   3.948  12.845   2.380
47714W        W16187  25.149   7.731   0.849
47715W        W16188  31.993  32.030  13.033
47716W        W16189   5.879   6.770  13.476
47717W        W16190  25.487  37.016   2.259
47718W        W16191   8.286   7.311  10.951
47719W        W16192  44.363  37.929  11.611
47720W        W16193   0.827  16.582   3.747
47721W        W16194  42.982  16.637  12.500
47722W        W16195  35.947   7.354  10.544
47723W        W16196  40.489  42.434  13.389
47724W        W16197  33.911   7.694  11.517
47725W        W16198  27.491  14.211   3.738
47726W        W16199  41.306  38.502   3.222
47727W        W16200   2.866  43.900  11.060
47728W        W16201   0.256  27.575   2.695
47729W        W16202  14.190   6.293  10.590
47730W        W16203  35.500  11.712   0.409
47731W        W16204  42.520  32.612   0.336
47732W        W16205   2.362  32.428   3.368
47733W        W16206  39.458  27.539  14.363
47734W        W16207  22.643  36.556  11.983
47735W        W16208  12.643   4.249  14.882
47736W        W16209  34.883  13.327  14.438
47737W        W16210  33.016  15.209  11.590
47738W        W16211  36.575  41.881   1.802
47739W        W16212  30.018  18.205  14.950
47740W        W16213  34.117   6.882  14.489
47741W        W16214  11.702   6.730  14.393
47742W        W16215   3.713  14.202  11.502
47743W        W16216  30.998  37.999   3.686
47744W        W16217  15.112  37.036  14.985
47745W        W16218  33.420   7.293  11.531
47746W        W16219  26.972  27.005  13.050
47747W        W16220  36.497  16.703   0.824
47748W        W16221  16.272   4.871  14.779
47749W        W16222  36.462  17.292   0.456
47750W        W16223  41.396  15.188  13.798
47751W        W16224  42.912  22.101  13.379
47752W        W16225  40.540  38.823   5.167
47753W        W16226   3.746  37.375  14.284
47754W        W16227  36.403   9.208   0.377
47755W        W16228  44.765  29.635   2.858
47756W        W16229  43.021  22.006  12.937
47757W        W16230   1.864  37.009  14.839
47758W        W16231  15.100   1.301   4.721
47759W        W16232  41.431  28.531   3.265
47760W        W16233   8.181  23.222  10.405
47761W        W16234  34.601  13.247   0.296
47762W        W16235  25.493  31.133   0.733
47763W        W16236   0.283   5.218   3.741
47764W        W16237  42.803  12.837   1.874
47765W        W16238   9.301  25.711   0.952
47766W        W16239  15.767  25.985   4.334
47767W        W16240  37.838   9.177   2.256
47768W        W16241  27.514  36.917   0.422
47769W        W16242  37.370  27.451  14.455
47770W        W16243   6.326  24.977   1.765
47771W        W16244  41.039  38.553  12.069
47772W        W16245  28.557  13.613  11.560
47773W        W16246  14.795  43.513   1.216
47774W        W16247  42.990  34.579  12.071
47775W        W16248  15.307  28.493   1.429
47776W        W16249  14.210   9.775  14.990
47777W        W16250  36.505  28.477   1.343
47778W        W16251  25.086  16.078   3.269
47779W        W16252  38.970  29.452  11.591
47780W        W16253   6.880  35.979   1.445
47781W        W16254  11.646  14.764  14.914
47782W        W16255  23.000  38.001   4.349
47783W        W16256  29.053  10.310  11.896
47784W        W16257  26.650  31.534   0.817
47785W        W16258   6.426  30.006  13.424
47786W        W16259  14.275   7.225  12.349
47787W        W16260   0.253  23.530  14.395
47788W        W16261   5.876  27.097  14.381
47789W        W16262   4.278   6.821  11.059
47790W        W16263   0.858   3.416   5.086
47791W        W16264  10.285  39.516  13.829
47792W        W16265  34.989  30.581   4.270
47793W        W16266  33.992  43.967  14.968
47794W        W16267  28.083  25.678  13.548
47795W        W16268  21.084  29.655   3.824
47796W        W16269  44.806   7.722  10.632
47797W        W16270  25.982  15.153   0.930
47798W        W16271  19.728  39.836   2.237
47799W        W16272  22.139  16.809   4.638
47800W        W16273  23.728  28.184  13.441
47801W        W16274  31.617  30.611  12.097
47802W        W16275  36.088  14.218  12.498
47803W        W16276   4.775  32.410   2.258
47804W        W16277   6.912  43.969  11.079
47805W        W16278   6.333  44.300   1.254
47806W        W16279   8.399  13.696   0.804
47807W        W16280   6.922  23.208   0.941
47808W        W16281  11.703  24.067   5.085
47809W        W16282  10.811  44.352   1.420
47810W        W16283   0.765  43.907  13.519
47811W        W16284  12.632  10.193   1.395
47812W        W16285  38.968  25.024   2.682
47813W        W16286  43.906  27.653  10.946
47814W        W16287  28.008   3.412   4.693
47815W        W16288  20.565   0.313  14.770
47816W        W16289  31.535  41.917   4.630
47817W        W16290  41.997  24.061   3.335
47818W        W16291  41.973  41.991  14.478
47819W        W16292  34.525  32.405  10.539
47820W        W16293  32.412  25.096  13.911
47821W        W16294  22.727  29.493   1.218
47822W        W16295   1.892  30.974   3.291
47823W        W16296  24.703  27.604   2.887
47824W        W16297   7.850   4.402   4.248
47825W        W16298  22.645  41.833   2.373
47826W        W16299  32.925  44.404  14.779
47827W        W16300  18.295  12.723  14.275
47828W        W16301   9.702  26.961   2.263
47829W        W16302  41.464  37.451  10.941
47830W        W16303  34.579   8.225   4.707
47831W        W16304  39.335  29.138   2.364
47832W        W16305   3.278  36.558   3.326
47833W        W16306   9.274  40.991  12.406
47834W        W16307  39.882  15.649   2.719
47835W        W16308  16.719  31.128   2.786
47836W        W16309  44.758  35.560  13.045
47837W        W16310  16.599  11.787   0.457
47838W        W16311  31.009   4.208  14.963
47839W        W16312  26.205   3.711  14.833
47840W        W16313  15.322  26.129   0.885
47841W        W16314  26.106   1.892  10.553
47842W        W16315  30.572  32.458  13.504
47843W        W16316  33.953  19.770   0.912
47844W        W16317  14.637  32.054   9.943
47845W        W16318  23.088   6.317   2.361
47846W        W16319  39.509  27.963  11.127
47847W        W16320  39.314  24.580   2.841
47848W        W16321  26.179  38.348  10.549
47849W        W16322   3.267  21.639  14.946
47850W        W16323  24.042  39.378  14.967
47851W        W16324  21.753   0.369   1.846
47852W        W16325   9.725  20.034  10.529
47853W        W16326  26.147  34.396   1.907
47854W        W16327  33.428  35.003  13.421
47855W        W16328   4.232  28.174  10.457
47856W        W16329  30.655  27.617  11.079
47857W        W16330   3.862   8.727  14.469
47858W        W16331  37.422  15.256  12.398
47859W        W16332  26.127  35.948  13.014
47860W        W16333   3.434  37.955  12.980
47861W        W16334  22.033  38.970  13.044
47862W        W16335  44.307  28.021  12.862
47863W        W16336  41.029  29.642   4.151
47864W        W16337  10.752  39.970  10.608
47865W        W16338  28.092  29.646  12.475
47866W        W16339  31.048  16.610  12.555
47867W        W16340  30.537  44.904  11.414
47868W        W16341  37.345  42.443   3.806
47869W        W16342   0.758  23.150   1.385
47870W        W16343  23.500  22.519   0.361
47871W        W16344   4.778  40.432  14.410
47872W        W16345   0.772  13.186  14.009
47873W        W16346  14.203   4.786   3.174
47874W        W16347  15.221  42.521   4.677
47875W        W16348  34.417  16.725   0.736
47876W        W16349  18.177  23.994  13.052
47877W        W16350  14.246  38.352   2.334
47878W        W16351  27.556   3.846  11.113
47879W        W16352  15.246  24.993   0.319
47880W        W16353  23.235   1.460  13.878
47881W        W16354  11.740   2.959   0.318
47882W        W16355  19.260   3.292  10.415
47883W        W16356   8.365  29.586   2.871
47884W        W16357  34.984  12.730   4.274
47885W        W16358  36.888  22.720  14.439
47886W        W16359  43.499  43.932   1.767
47887W        W16360  33.959  16.592  11.903
47888W        W16361   5.308  17.181   3.674
47889W        W16362  26.470  30.139   4.763
47890W        W16363  25.624  19.142  10.947
47891W        W16364   6.681  18.257  10.575
47892W        W16365   5.877  15.313  10.577
47893W        W16366  43.821   0.449   1.768
47894W        W16367  23.065  26.612  10.984
47895W        W16368   4.419  25.533   4.637
47896W        W16369  20.531  14.161   0.861
47897W        W16370   5.381  10.276   0.329
47898W        W16371   5.762   2.391  14.822
47899W        W16372  10.848  16.175  14.396
47900W        W16373   6.273  20.587  12.565
47901W        W16374  26.160  40.500  13.989
47902W        W16375  36.008   9.217   1.291
47903W        W16376  23.677  21.206  10.483
47904W        W16377   4.798  33.602  13.375
47905W        W16378  35.079  25.661  10.488
47906W        W16379   6.800  34.562  13.474
47907W        W16380   0.924  41.339   0.733
47908W        W16381  29.966  13.651   3.682
47909W        W16382  19.778   8.185  12.040
47910W        W16383   7.404  18.225   4.163
47911W        W16384  35.391   4.449   4.767
47912W        W16385   4.442  13.211   2.720
47913W        W16386  44.313  34.453  12.499
47914W        W16387  30.653  25.653   0.866
47915W        W16388  21.600  17.168   0.405
47916W        W16389  21.540  29.960   2.201
47917W        W16390  18.163   2.961   0.426
47918W        W16391  41.436   0.989   3.234
47919W        W16392  30.113   1.969  10.640
47920W        W16393   7.718  17.091   4.677
47921W        W16394  41.984  18.747  14.958
47922W        W16395  35.106  39.378  11.127
47923W        W16396  22.585  39.023   2.343
47924W        W16397  42.520  36.363  13.459
47925W        W16398  27.151  27.085  11.024
47926W        W16399  16.152  25.129  12.578
47927W        W16400  23.993  26.961  12.909
47928W        W16401  42.910   5.898   2.298
47929W        W16402   8.890  41.829  14.949
47930W        W16403  16.786   2.786  12.959
47931W        W16404  18.187   5.277   3.775
47932W        W16405   4.356  37.436  12.022
47933W        W16406  11.291  33.492   4.660
47934W        W16407  40.357  43.415  10.547
47935W        W16408  33.013  31.446   2.303
47936W        W16409  14.191  22.075  14.954
47937W        W16410  15.780  23.126  12.527
47938W        W16411  17.770   0.355  11.997
47939W        W16412  19.143  10.749  13.355
47940W        W16413  37.550  16.723   1.291
47941W        W16414  31.013   4.353  13.980
47942W        W16415   7.729  43.424  12.057
47943W        W16416  17.797  20.031   4.829
47944W        W16417  25.593  15.736   2.879
47945W        W16418  39.841  13.663   4.276
47946W        W16419  36.896  39.885  10.547
47947W        W16420   8.277  16.719   4.684
47948W        W16421  10.688   6.735  13.011
47949W        W16422  38.911  32.943   1.766
47950W        W16423  13.298  38.937  11.885
47951W        W16424   5.819  40.911  11.987
47952W        W16425  25.478   7.803   0.316
47953W        W16426  28.508   2.849   3.326
47954W        W16427   3.898  32.964   4.836
47955W        W16428  43.360  29.581   2.748
47956W        W16429  28.519  20.623   0.895
47957W        W16430  40.839  36.401  14.970
47958W        W16431   5.296  15.230  11.405
47959W        W16432   3.787   7.677  10.891
47960W        W16433   1.324  40.814   1.432
47961W        W16434   2.414  29.962  14.785
47962W        W16435  20.163  21.137  10.109
47963W        W16436  14.658  13.277  12.989
47964W        W16437  20.580  31.928  11.464
47965W        W16438  41.321  27.059  13.985
47966W        W16439  20.688   0.429  14.298
47967W        W16440  35.094   5.905   2.715
47968W        W16441  41.857  37.338  14.315
47969W        W16442  13.688  41.952   4.163
47970W        W16443   6.235  36.965   4.118
47971W        W16444  13.834  26.010   2.391
47972W        W16445  34.891  25.707   1.849
47973W        W16446  26.153  18.747   0.370
47974W        W16447   3.229  10.238   1.708
47975W        W16448  39.365  26.171  12.053
47976W        W16449  18.708  25.086   3.299
47977W        W16450  28.023  32.058   4.198
47978W        W16451  44.406  41.379  13.381
47979W        W16452  29.035   6.360  13.854
47980W        W16453  15.700   2.315  12.465
47981W        W16454   4.737  41.797  10.444
47982W        W16455  28.536  15.095   0.472
47983W        W16456   3.757  43.827   2.401
47984W        W16457  37.842  13.200  14.409
47985W        W16458  23.003  33.089  14.863
47986W        W16459   1.974   1.867  10.460
47987W        W16460  15.804  17.230  12.881
47988W        W16461  37.339  14.193  10.100
47989W        W16462   6.733   0.773   4.149
47990W        W16463  12.128  29.549  13.962
47991W        W16464  35.999  19.053   1.730
47992W        W16465  14.292  20.601  11.476
47993W        W16466   6.269   2.288   2.804
47994W        W16467  38.368  44.963   0.344
47995W        W16468  21.022   4.833  13.441
47996W        W16469  16.709  33.971   4.787
47997W        W16470  41.899  24.133   4.350
47998W        W16471  22.664  15.616  14.001
47999W        W16472   2.824  17.270   4.764
48000W        W16473   1.830   7.171   0.889
48001W        W16474  27.556  26.614   0.460
48002W        W16475  28.604  33.875   3.181
48003W        W16476  37.533  10.285   1.878
48004W        W16477  15.202  28.586   3.764
48005W        W16478  11.756  42.399  10.579
48006W        W16479  16.668   8.687   5.130
48007W        W16480  36.843  43.768   3.649
48008W        W16481  37.511   5.392  11.540
48009W        W16482  41.377  33.089  13.370
48010W        W16483  43.283  40.956  12.830
48011W        W16484  18.215  41.804   1.449
48012W        W16485  12.319   0.966  13.049
48013W        W16486   5.792  30.027   3.843
48014W        W16487  37.496   6.874  12.004
48015W        W16488  31.624  13.647  12.062
48016W        W16489  14.795  10.256   3.287
48017W        W16490  24.627  19.062   3.797
48018W        W16491  34.026  18.064   2.895
48019W        W16492   4.932   2.814  12.378
48020W        W16493  26.205  31.533  14.334
48021W        W16494  20.704  30.007  12.845
48022W        W16495  17.617  25.171  12.950
48023W        W16496  30.006  30.936  10.506
48024W        W16497  11.807  31.153  14.837
48025W        W16498  21.660   4.863  12.468
48026W        W16499  42.796   2.337   4.199
48027W        W16500   4.251  24.219  12.538
48028W        W16501   9.667  35.549  12.451
48029W        W16502  25.216  19.704   1.911
48030W        W16503   9.802  31.596   0.900
48031W        W16504  31.028  37.868  11.026
48032W        W16505  12.159   6.722   4.114
48033W        W16506  14.685  35.966   1.703
48034W        W16507  32.422  36.505  14.434
48035W        W16508  18.740  14.297  10.952
48036W        W16509  44.395  27.546   4.742
48037W        W16510  44.906  34.115   4.278
48038W        W16511  30.599  11.241  14.843
48039W        W16512  15.307   8.715   1.773
48040W        W16513  16.074  30.094   3.361
48041W        W16514  31.574   5.931  11.879
48042W        W16515  35.072  29.011   2.417
48043W        W16516  40.812  15.281  13.494
48044W        W16517  40.439  19.721   5.274
48045W        W16518   6.885  38.541  10.554
48046W        W16519  26.672  20.216  13.423
48047W        W16520  24.590  38.851  14.845
48048W        W16521  31.945  33.461  14.012
48049W        W16522  42.359  16.600   4.619
48050W        W16523  31.970  26.144   0.915
48051W        W16524  44.457  25.203  13.530
48052W        W16525   8.870  29.496  14.018
48053W        W16526  20.767  27.164  11.561
48054W        W16527  12.176  16.755  14.023
48055W        W16528   5.867  33.591   0.386
48056W        W16529  23.159  44.926   3.676
48057W        W16530  29.460  41.912   0.393
48058W        W16531   9.360  15.248  11.467
48059W        W16532  18.777  25.173   4.154
48060W        W16533  18.618  21.071  13.827
48061W        W16534  24.195   6.333  11.991
48062W        W16535  29.991   4.777   2.336
48063W        W16536  17.785   0.455   2.804
48064W        W16537   0.330   3.760  13.915
48065W        W16538  42.943   4.886  10.519
48066W        W16539  22.567   8.245   1.354
48067W        W16540  38.895  26.599   2.374
48068W        W16541   7.818  17.248   0.412
48069W        W16542  26.682  25.153  14.769
48070W        W16543  41.431  38.047   0.959
48071W        W16544  17.669  23.605  13.341
48072W        W16545  37.560  38.969   4.243
48073W        W16546  36.908  37.510   4.611
48074W        W16547  30.922  26.955   5.103
48075W        W16548  44.385  16.304   0.957
48076W        W16549   5.200  34.909  12.366
48077W        W16550   9.853  21.053  13.414
48078W        W16551  13.662  29.026  10.985
48079W        W16552  32.093  29.150   3.190
48080W        W16553  41.314  35.926  14.435
48081W        W16554  26.664  34.533   3.852
48082W        W16555  15.193  31.550   4.230
48083W        W16556  33.610   6.213  10.933
48084W        W16557  12.159  19.674  13.324
48085W        W16558  43.394   1.866   1.235
48086W        W16559  38.974  26.030   3.674
48087W        W16560  13.641  22.180  13.500
48088W        W16561  32.919   7.349   0.742
48089W        W16562  44.897   3.800   3.221
48090W        W16563   1.236   9.183  12.987
48091W        W16564  20.640  11.714  13.457
48092W        W16565  29.079  11.685   4.151
48093W        W16566  14.802  37.992  10.906
48094W        W16567   1.771  39.456   2.328
48095W        W16568   7.737  35.561   2.308
48096W        W16569   9.744   0.444   3.325
48097W        W16570  13.128  43.281  13.864
48098W        W16571  12.635  12.133  12.978
48099W        W16572  41.851  27.692  14.472
48100W        W16573  21.693   4.401  12.912
48101W        W16574  27.518  16.695   0.456
48102W        W16575  39.846  35.412   3.639
48103W        W16576  23.012  17.204  13.435
48104W        W16577   7.227  42.006   0.897
48105W        W16578  21.228  17.776  13.792
48106W        W16579  13.772   9.684   1.850
48107W        W16580  23.177  40.925  14.798
48108W        W16581  15.633  39.034  10.964
48109W        W16582   3.871   1.379   2.242
48110W        W16583  15.733  38.951  14.429
48111W        W16584  39.840  27.148   4.722
48112W        W16585  31.915  33.923  11.064
48113W        W16586   5.872  20.600  14.346
48114W        W16587  22.680   6.425   4.617
48115W        W16588  16.674  22.206   1.843
48116W        W16589  14.233   6.280   1.306
48117W        W16590  23.144  42.002  10.554
48118W        W16591  10.668   3.347   2.260
48119W        W16592  42.955   6.721   0.377
48120W        W16593  13.835   2.733   2.689
48121W        W16594  33.952  34.403  13.994
48122W        W16595  19.220  38.561   3.319
48123W        W16596  12.679  25.974   4.680
48124W        W16597   6.729   6.378  13.829
48125W        W16598  13.220  11.769   3.289
48126W        W16599  39.393  17.111   1.695
48127W        W16600   5.863  22.568   1.914
48128W        W16601  11.358  44.936  12.023
48129W        W16602  19.153  16.281   4.340
48130W        W16603  39.840   3.906  12.094
48131W        W16604   8.809  39.502  12.910
48132W        W16605  25.600  25.101   0.290
48133W        W16606   3.940   4.773   4.662
48134W        W16607  31.038  43.357  14.792
48135W        W16608   8.273  30.136  13.320
48136W        W16609  26.538  27.658   2.298
48137W        W16610  22.029  39.390  14.342
48138W        W16611   7.824  44.303  13.522
48139W        W16612   9.155  37.357  14.496
48140W        W16613  19.752   1.258   0.964
48141W        W16614   7.274  33.895   1.825
48142W        W16615  42.334  14.699  10.997
48143W        W16616   3.274  41.910   2.685
48144W        W16617  43.511  22.508   0.766
48145W        W16618   0.454  39.032  13.832
48146W        W16619  18.722  44.904  14.462
48147W        W16620  16.170  13.773  11.111
48148W        W16621  30.605   7.825  12.850
48149W        W16622  43.380   4.431   4.137
48150W        W16623  10.836   0.939  12.090
48151W        W16624  34.591  19.607   2.810
48152W        W16625  12.746   7.190  14.888
48153W        W16626  20.739   8.718   1.442
48154W        W16627  19.249  31.412   2.351
48155W        W16628  27.051  15.317   2.410
48156W        W16629  20.692  27.997  10.611
48157W        W16630  40.499  15.235   2.707
48158W        W16631  22.020   3.291   2.230
48159W        W16632  13.270  17.182  14.982
48160W        W16633  36.846  26.959   4.636
48161W        W16634  35.030  39.534   0.903
48162W        W16635  40.025   0.975   1.214
48163W        W16636  21.577  39.382  13.958
48164W        W16637  12.763  15.242   0.357
48165W        W16638   3.318  22.249  12.352
48166W        W16639  31.028  26.144   9.444
48167W        W16640  36.426  24.228   0.408
48168W        W16641   7.378   7.910   1.350
48169W        W16642   9.326   8.399  11.603
48170W        W16643  14.651  20.574   1.447
48171W        W16644   7.174  20.215   1.284
48172W        W16645  11.687   3.301  11.417
48173W        W16646  34.100  41.907  10.909
48174W        W16647  31.133  36.865   2.378
48175W        W16648   2.454  43.475   2.409
48176W        W16649  34.613  32.009  10.425
48177W        W16650  35.556  44.006   1.911
48178W        W16651  26.126  15.747  10.922
48179W        W16652  29.004  34.541   0.327
48180W        W16653  33.413  14.333   4.832
48181W        W16654  14.277   1.809   3.270
48182W        W16655  24.086  33.977  12.350
48183W        W16656   8.683  28.931   3.181
48184W        W16657  21.021  13.231  11.442
48185W        W16658  16.204  24.541   2.195
48186W        W16659   6.743  20.226   2.384
48187W        W16660  22.575  14.111   1.910
48188W        W16661  15.794   3.390  11.387
48189W        W16662  30.594  29.610   0.772
48190W        W16663   1.365  35.440   3.660
48191W        W16664  18.739  22.575   0.785
48192W        W16665  11.827  30.961   3.196
48193W        W16666  20.661  38.353   1.927
48194W        W16667  44.774  37.079  10.945
48195W        W16668  38.898  24.211   3.802
48196W        W16669  43.771   5.213   2.375
48197W        W16670  12.763  15.229  12.069
48198W        W16671  23.030   5.263   4.708
48199W        W16672   2.260  32.044  14.017
48200W        W16673  35.013  10.860   4.204
48201W        W16674  42.918   5.380   3.818
48202W        W16675   3.874  33.903  11.015
48203W        W16676  13.237  26.689  12.081
48204W        W16677  28.058  24.051   4.815
48205W        W16678  39.026   6.801  12.495
48206W        W16679  44.272  16.680   2.353
48207W        W16680  43.844   8.885   4.822
48208W        W16681  17.727  42.304  14.449
48209W        W16682  31.600  37.483  12.504
48210W        W16683  39.355  18.758   4.638
48211W        W16684  43.837  41.966   3.857
48212W        W16685  14.163  19.179  12.853
48213W        W16686  21.170  35.037  12.414
48214W        W16687  20.199   7.246  10.588
48215W        W16688  43.391  36.526   0.270
48216W        W16689  42.993  21.715  11.982
48217W        W16690  27.520   5.409   2.287
48218W        W16691  34.373   9.838   3.207
48219W        W16692  12.257   0.334  12.487
48220W        W16693  21.091  16.255   4.739
48221W        W16694  27.682   0.864  14.855
48222W        W16695  14.727  18.179   5.279
48223W        W16696   6.826  18.627   1.271
48224W        W16697  44.833  43.779  13.388
48225W        W16698   9.735  44.267  12.564
48226W        W16699   5.321   4.445   2.231
48227W        W16700   2.747  14.240  14.330
48228W        W16701  23.721  23.120   4.723
48229W        W16702  16.172  39.932  14.902
48230W        W16703  42.801   5.835  11.056
48231W        W16704  20.682  36.892  10.563
48232W        W16705  21.590  18.277   3.178
48233W        W16706  22.582  22.120  12.945
48234W        W16707  30.023   1.795   0.460
48235W        W16708  42.864   1.791   2.882
48236W        W16709  43.814  32.544   4.184
48237W        W16710  14.590  41.299  13.926
48238W        W16711  15.288   0.747   0.931
48239W        W16712   8.723  36.500  10.461
48240W        W16713  17.209  22.244   4.194
48241W        W16714  44.377  32.997   3.354
48242W        W16715  42.300  25.575  14.778
48243W        W16716  23.686  22.567  13.522
48244W        W16717   6.888  37.084  12.974
48245W        W16718  22.045  14.214   2.328
48246W        W16719   1.916  13.631  11.549
48247W        W16720  24.496  15.094   4.630
48248W        W16721  40.797  18.077   1.825
48249W        W16722   2.784  22.219   4.120
48250W        W16723  37.924  13.760  13.358
48251W        W16724  16.212  25.047   1.910
48252W        W16725  25.984  17.699   1.921
48253W        W16726  41.491   8.378  12.347
48254W        W16727  26.465  35.502   0.767
48255W        W16728  31.406  32.476   3.288
48256W        W16729  44.799  27.548   1.857
48257W        W16730  21.252   6.723   1.700
48258W        W16731   8.238  35.048  11.912
48259W        W16732  35.567  38.455   4.811
48260W        W16733  13.769  26.021  11.534
48261W        W16734  27.636  17.608  10.577
48262W        W16735  24.520   7.355  11.526
48263W        W16736  32.443  44.764   0.306
48264W        W16737   5.216  25.063   1.868
48265W        W16738  38.940   9.878  10.476
48266W        W16739   3.453  25.036   3.357
48267W        W16740  15.246  36.897   1.748
48268W        W16741   6.307  19.581  11.487
48269W        W16742  34.570  14.591  12.984
48270W        W16743  19.211  33.499  13.928
48271W        W16744  32.422  20.597   3.364
48272W        W16745  39.957  34.046  13.898
48273W        W16746  39.315  28.666   3.859
48274W        W16747   3.425  34.426  12.520
48275W        W16748  40.502  42.466   1.914
48276W        W16749  19.745  33.517   0.441
48277W        W16750  11.656  32.628   0.868
48278W        W16751   9.839   4.760  13.923
48279W        W16752  34.596  10.874   1.441
48280W        W16753  41.507  35.372   2.405
48281W        W16754  34.583  33.394   4.612
48282W        W16755  42.879  33.475   0.769
48283W        W16756  25.164   4.824  10.632
48284W        W16757  40.040  38.536   4.284
48285W        W16758  16.783  33.475  10.518
48286W        W16759  31.150  44.763   5.182
48287W        W16760  44.823  34.486  11.383
48288W        W16761   2.911  43.458  11.474
48289W        W16762  38.920  36.491  11.873
48290W        W16763   1.813  35.572  13.440
48291W        W16764  24.642  27.949  10.417
48292W        W16765   0.751  39.921   4.713
48293W        W16766  27.996  40.805  14.867
48294W        W16767  41.968  35.992  13.348
48295W        W16768  38.992  36.906  10.900
48296W        W16769  44.856  17.266  11.468
48297W        W16770  19.543  41.856   4.763
48298W        W16771  18.657  44.337   2.379
48299W        W16772   7.866  24.223  13.817
48300W        W16773  33.478  25.991   2.217
48301W        W16774  29.955   2.785  10.984
48302W        W16775  42.936   9.174  12.937
48303W        W16776   7.844  10.138  10.526
48304W        W16777   9.308  36.496   1.904
48305W        W16778   7.408  15.314  12.439
48306W        W16779  41.795   0.800   5.145
48307W        W16780   9.158   9.863   0.761
48308W        W16781  39.922   2.471  13.308
48309W        W16782  35.472  11.694  12.369
48310W        W16783   4.931  39.438   2.246
48311W        W16784  23.991   1.817  12.012
48312W        W16785  25.073  33.995  12.340
48313W        W16786  18.577  42.490   3.780
48314W        W16787  30.124   8.830  13.516
48315W        W16788  28.500  32.548   4.838
48316W        W16789  37.849  13.713   0.811
48317W        W16790  26.080  20.249   0.918
48318W        W16791  22.744   6.760   1.858
48319W        W16792  13.606   1.443  11.875
48320W        W16793  26.587  24.142   2.391
48321W        W16794  16.265  27.489  14.775
48322W        W16795  40.305  27.093  14.805
48323W        W16796  13.816  25.495   1.825
48324W        W16797  41.399  13.120   3.761
48325W        W16798  40.974  21.642   4.281
48326W        W16799  28.000  23.039   0.903
48327W        W16800   6.418   3.340  12.410
48328W        W16801  13.844  14.610   1.331
48329W        W16802   7.714   2.313  12.827
48330W        W16803  17.634  17.581  10.618
48331W        W16804  19.612   2.871   1.245
48332W        W16805  40.030  19.167  14.427
48333W        W16806  37.865   5.390   1.381
48334W        W16807  27.551  15.665  10.536
48335W        W16808  18.102  25.707   0.368
48336W        W16809   9.691  28.604   3.298
48337W        W16810   5.741   2.447   3.705
48338W        W16811  18.101  21.236   4.678
48339W        W16812   4.446  13.109  13.517
48340W        W16813  44.830  23.212  11.511
48341W        W16814  20.635  17.651  10.534
48342W        W16815  26.643  43.969   2.880
48343W        W16816  36.380  27.137   4.169
48344W        W16817   5.754  24.191  10.494
48345W        W16818   2.455  26.056  10.957
48346W        W16819  22.668  36.531  12.350
48347W        W16820  26.102   5.844   3.321
48348W        W16821   6.188  14.116   0.324
48349W        W16822  39.065  33.382   3.703
48350W        W16823  26.204  34.898   4.701
48351W        W16824  17.614  27.071   0.863
48352W        W16825  17.211  27.598   4.710
48353W        W16826  24.608  29.632   1.304
48354W        W16827  25.632  25.003  12.867
48355W        W16828   2.343  15.626  12.854
48356W        W16829  42.465  21.697  12.411
48357W        W16830   8.192  35.904  14.007
48358W        W16831  38.463  15.743  14.968
48359W        W16832   2.262   2.832  11.517
48360W        W16833   0.457  23.984  10.591
48361W        W16834  41.038  34.533   0.790
48362W        W16835  36.996  24.586   2.826
48363W        W16836  11.699  31.437   0.439
48364W        W16837  25.128  34.527   0.323
48365W        W16838  37.064  36.427   4.280
48366W        W16839  31.022  15.737  14.849
48367W        W16840  26.028  33.414   2.756
48368W        W16841  40.419   8.861   0.894
48369W        W16842  18.730   8.723  14.491
48370W        W16843  32.055  14.243   3.684
48371W        W16844  42.311  33.936   3.315
48372W        W16845  25.990  40.414   1.934
48373W        W16846  43.955  31.429  11.896
48374W        W16847  42.294  31.061  13.919
48375W        W16848  33.919   6.761   0.729
48376W        W16849  17.220  17.572  12.517
48377W        W16850   2.849  42.930  13.480
48378W        W16851  42.352  19.616  12.064
48379W        W16852   5.351   7.327  12.975
48380W        W16853   6.908   8.716  13.364
48381W        W16854   2.931  28.662   3.362
48382W        W16855  35.933  10.756  11.975
48383W        W16856  12.152   3.266  12.014
48384W        W16857   0.398  26.639   5.147
48385W        W16858  37.960  21.550  13.338
48386W        W16859  31.963  31.008  14.358
48387W        W16860  13.624  30.554  11.429
48388W        W16861  28.055  18.072  12.416
48389W        W16862  14.189   1.245   0.268
48390W        W16863  37.481  43.347  13.503
48391W        W16864   9.871  22.645  11.084
48392W        W16865  22.176  44.360  10.613
48393W        W16866  25.631   7.198  10.108
48394W        W16867  11.682  41.416  10.058
48395W        W16868  33.131  12.766   1.267
48396W        W16869   7.300  36.862   4.292
48397W        W16870   3.286  38.985  14.502
48398W        W16871   2.257  25.110  13.456
48399W        W16872  28.000   3.412   2.721
48400W        W16873   0.360  23.612   4.690
48401W        W16874  13.203  27.485  14.344
48402W        W16875  19.253  44.348  11.527
48403W        W16876  10.343  13.708   1.440
48404W        W16877  36.543  13.763  12.929
48405W        W16878  19.533   5.743  12.943
48406W        W16879  12.316  31.126   0.957
48407W        W16880   9.721  14.785   3.695
48408W        W16881  41.934  12.800   3.868
48409W        W16882  12.182  24.048  10.425
48410W        W16883  37.031   2.392  12.517
48411W        W16884  41.015  23.194   1.229
48412W        W16885   1.770  37.867   1.239
48413W        W16886  31.994  24.091  12.865
48414W        W16887  21.653  18.762   4.705
48415W        W16888   4.301  16.127  14.899
48416W        W16889  25.079  31.583   3.861
48417W        W16890  24.659  39.976   0.825
48418W        W16891  35.497  31.593  12.839
48419W        W16892  32.073  16.743   4.215
48420W        W16893   6.811  32.401   3.845
48421W        W16894  20.145  12.624  11.982
48422W        W16895   3.849   6.278   4.154
48423W        W16896  33.566   0.799  12.412
48424W        W16897   5.791  13.117  10.506
48425W        W16898  25.086  35.968   2.353
48426W        W16899  35.007  26.670  11.433
48427W        W16900  15.302  11.169  12.038
48428W        W16901   6.917  31.409   0.254
48429W        W16902  22.692  22.046   3.248
48430W        W16903  14.694  10.749  10.632
48431W        W16904  12.259  22.151  10.990
48432W        W16905   2.411  39.889  11.118
48433W        W16906   6.828  41.928   0.863
48434W        W16907   3.809   4.329  10.906
48435W        W16908  27.950  41.387  14.998
48436W        W16909  20.620  11.711  11.563
48437W        W16910  10.163   4.782  12.042
48438W        W16911  15.700  13.336  12.858
48439W        W16912   4.442  21.546   2.670
48440W        W16913  38.905  23.029  10.085
48441W        W16914  17.066  37.370   3.335
48442W        W16915  16.083   5.858  10.589
48443W        W16916  25.144   1.347  12.429
48444W        W16917  20.575  37.040  11.592
48445W        W16918  29.544  14.706  10.422
48446W        W16919  39.049  36.368   4.652
48447W        W16920  22.175   5.858  10.588
48448W        W16921  15.255  32.893  10.506
48449W        W16922  28.494  34.034   1.790
48450W        W16923   7.389  15.209   0.812
48451W        W16924  36.095   0.362   2.219
48452W        W16925  10.737   6.320   4.828
48453W        W16926   4.297  42.307  11.380
48454W        W16927  38.961  22.107   0.360
48455W        W16928  28.675   7.888   1.922
48456W        W16929  31.612   0.367   2.853
48457W        W16930  44.332  12.856  14.407
48458W        W16931  10.351   0.843   4.285
48459W        W16932  22.746  41.403   0.350
48460W        W16933  31.007   8.891  12.930
48461W        W16934   4.424   1.400  11.415
48462W        W16935   6.799  16.608  12.951
48463W        W16936  41.835   4.852  12.957
48464W        W16937  12.687  26.470   4.794
48465W        W16938  13.182   5.381   3.770
48466W        W16939   0.347   0.749   2.669
48467W        W16940  43.501  27.996  13.814
48468W        W16941  32.085  16.257   3.384
48469W        W16942   2.248  41.838   3.242
48470W        W16943  41.331  14.270  14.294
48471W        W16944   5.269  31.549   4.186
48472W        W16945  35.467  26.611   2.207
48473W        W16946   0.416  30.956  11.413
48474W        W16947  16.255  41.432  11.609
48475W        W16948   9.767   1.373   1.765
48476W        W16949  31.930  40.303  11.968
48477W        W16950  37.878  18.754  11.956
48478W        W16951  44.360  16.579  14.834
48479W        W16952   8.745  21.263   5.185
48480W        W16953  44.883  32.135   5.296
48481W        W16954   0.414  13.246   3.637
48482W        W16955   6.272  16.302   9.946
48483W        W16956  24.591  30.414   4.830
48484W        W16957  33.470   5.934   0.963
48485W        W16958  28.030  13.220   1.444
48486W        W16959  25.528  24.479   3.363
48487W        W16960   5.750  36.483  10.941
48488W        W16961  38.961  43.820  14.469
48489W        W16962  23.149  43.868   0.778
48490W        W16963  29.112  28.068  13.913
48491W        W16964  11.628  12.683   0.463
48492W        W16965  32.014   9.730   4.162
48493W        W16966  43.274  18.209   4.614
48494W        W16967  11.205  42.965  13.867
48495W        W16968  37.431  22.142  14.372
48496W        W16969  18.182  25.630  12.004
48497W        W16970  23.728  38.923  13.835
48498W        W16971  34.468  16.767   1.342
48499W        W16972  37.086  23.631   3.629
48500W        W16973   4.223  42.952   1.239
48501W        W16974  31.458  29.113   0.730
48502W        W16975  13.603  15.100  14.869
48503W        W16976  26.171  39.545  13.910
48504W        W16977  24.665   3.411  12.490
48505W        W16978   1.240  40.024  12.502
48506W        W16979  43.867  11.164   1.872
48507W        W16980  25.642  11.157  13.440
48508W        W16981   1.840  17.726  11.118
48509W        W16982  43.802   4.699   3.846
48510W        W16983  15.786  38.007   5.086
48511W        W16984  16.140  29.954  13.490
48512W        W16985  37.929  37.354  13.531
48513W        W16986   4.941  28.991   2.239
48514W        W16987  40.518   6.851  13.523
48515W        W16988  33.113  30.084  11.463
48516W        W16989  12.233  21.186  14.453
48517W        W16990   0.421  16.117  10.500
48518W        W16991  24.496  20.554   4.115
48519W        W16992  26.956  39.354  12.981
48520W        W16993  31.577  28.580   3.240
48521W        W16994   9.843  30.117   2.291
48522W        W16995   1.464  14.177   2.239
48523W        W16996   3.783  42.389  11.124
48524W        W16997  26.497  42.328   1.420
48525W        W16998  18.677   2.923  14.308
48526W        W16999  18.287  38.980   4.692
48527W        W17000  10.667   7.415  11.009
48528W        W17001  13.297  18.713  12.474
48529W        W17002  12.652  33.990   1.372
48530W        W17003   1.440  37.894  14.301
48531W        W17004  20.631  29.499  12.976
48532W        W17005  14.299  15.257  14.817
48533W        W17006  42.478  25.505   3.279
48534W        W17007  30.541   6.187  11.889
48535W        W17008  33.511  32.114   1.905
48536W        W17009   5.350  22.579   1.806
48537W        W17010  21.263  35.882   0.280
48538W        W17011  15.299  28.469   2.901
48539W        W17012  13.121  42.407   1.930
48540W        W17013  22.037  12.670   4.670
48541W        W17014   3.290  25.155   2.686
48542W        W17015   5.200   9.296   0.747
48543W        W17016  19.261   3.277   3.732
48544W        W17017  28.674   4.784   3.673
48545W        W17018  14.654  14.699   1.291
48546W        W17019  10.844  13.117   3.160
48547W        W17020  28.549  10.877  12.356
48548W        W17021   3.287  19.106  11.583
48549W        W17022  33.418  24.092   9.949
48550W        W17023  26.090  38.025   3.283
48551W        W17024   3.246  32.532   1.833
48552W        W17025  22.242  33.128  13.361
48553W        W17026  30.585  34.393  12.855
48554W        W17027  41.039  35.365   1.706
48555W        W17028  37.853   7.855  13.031
48556W        W17029   4.712  30.092   4.163
48557W        W17030  39.040  10.863  11.461
48558W        W17031  12.316  16.303   2.881
48559W        W17032  39.051  19.554  12.539
48560W        W17033   5.754  18.611   1.283
48561W        W17034  42.787  38.507  12.873
48562W        W17035  30.634   3.900   4.704
48563W        W17036  30.595   9.869  13.316
48564W        W17037  29.069   9.749  10.942
48565W        W17038  15.603  44.479   1.911
48566W        W17039   6.764  35.604  10.456
48567W        W17040   1.384  15.580   3.204
48568W        W17041  32.504   5.862   3.769
48569W        W17042  31.604  43.483  13.854
48570W        W17043  18.558  32.074  11.410
48571W        W17044   5.366  33.952  11.587
48572W        W17045  22.096  20.129   1.368
48573W        W17046  13.696  22.716  14.805
48574W        W17047  10.325  37.957   0.751
48575W        W17048   4.286  11.751   2.392
48576W        W17049   8.861  36.503  13.046
48577W        W17050   7.288  28.137   3.330
48578W        W17051  31.527  24.004   4.617
48579W        W17052  40.921   5.361  13.419
48580W        W17053  32.530  23.207   5.627
48581W        W17054  42.519   9.339  14.463
48582W        W17055  39.820   8.263   1.279
48583W        W17056  21.231  18.123  13.910
48584W        W17057  28.473  13.677   0.369
48585W        W17058   6.689   5.321   4.149
48586W        W17059  34.378   4.926   4.122
48587W        W17060  34.554   0.441   2.282
48588W        W17061   1.842   0.770   3.263
48589W        W17062  10.306   2.355   3.230
48590W        W17063  22.132  24.657   5.216
48591W        W17064  27.083  10.751  10.587
48592W        W17065  13.790  23.558   0.758
48593W        W17066   7.316  32.560   0.266
48594W        W17067  33.485   9.773   0.319
48595W        W17068  39.847  26.056  12.434
48596W        W17069  30.604   7.263   3.194
48597W        W17070  21.116   8.380  12.549
48598W        W17071   4.419  21.698  14.352
48599W        W17072  11.743  32.598   1.896
48600W        W17073  38.901   8.667   2.317
48601W        W17074  10.203  15.289   4.183
48602W        W17075  11.141   5.918   1.284
48603W        W17076  40.872   9.253   0.330
48604W        W17077  15.233  14.237   2.319
48605W        W17078  36.462  34.489  11.547
48606W        W17079  14.128  32.602  13.994
48607W        W17080  43.814  14.810   4.680
48608W        W17081  19.269  29.933   2.228
48609W        W17082   0.316   5.365  11.575
48610W        W17083  34.962  30.643   2.667
48611W        W17084  23.620  18.181  14.387
48612W        W17085  43.459  21.155  11.920
48613W        W17086  43.435  14.625   4.271
48614W        W17087   3.770   5.707  11.406
48615W        W17088  40.478  42.280   1.360
48616W        W17089  42.951  26.018  11.053
48617W        W17090  31.899  27.521  11.414
48618W        W17091  26.489  39.003  11.593
48619W        W17092  36.530  30.479   4.728
48620W        W17093  14.316   6.398   1.877
48621W        W17094  28.619  31.643  10.616
48622W        W17095  27.581   0.262   0.749
48623W        W17096  12.223   2.444   0.452
48624W        W17097  34.518  30.984  11.612
48625W        W17098  20.726  25.115  10.488
48626W        W17099  21.561  34.438  12.023
48627W        W17100  15.298  22.619   2.389
48628W        W17101  37.503  34.007  14.303
48629W        W17102   8.654  25.105  13.435
48630W        W17103  17.081  12.753   3.719
48631W        W17104   2.851  35.529   0.898
48632W        W17105  26.531  25.152   1.837
48633W        W17106  38.509  34.075   1.744
48634W        W17107  29.579  25.065   1.931
48635W        W17108   5.822  34.585   2.835
48636W        W17109   2.366   1.483   2.293
48637W        W17110  42.324   5.816  14.317
48638W        W17111  34.481  40.946   4.752
48639W        W17112  28.614  17.302  10.485
48640W        W17113  18.063  30.978  14.926
48641W        W17114  27.153   0.283   1.398
48642W        W17115   1.310  23.217  10.484
48643W        W17116  13.291  18.544  14.456
48644W        W17117   9.246  21.169   2.288
48645W        W17118   5.894   7.172   3.363
48646W        W17119  18.058  32.937  14.408
48647W        W17120  11.681  34.410  12.054
48648W        W17121  21.138   8.877   1.743
48649W        W17122  37.863  41.848  11.542
48650W        W17123  37.995  10.324  11.579
48651W        W17124  39.375   3.955  13.971
48652W        W17125  18.701  33.018  10.530
48653W        W17126  37.533   6.878   3.719
48654W        W17127  18.730   7.834   2.343
48655W        W17128   8.737  40.422  14.463
48656W        W17129  26.513  42.869   5.254
48657W        W17130  19.130  14.205   2.331
48658W        W17131   6.762  29.578  14.989
48659W        W17132  44.303   3.801   3.744
48660W        W17133  33.921   2.365  10.516
48661W        W17134  37.517   9.840  13.466
48662W        W17135   0.936  27.510   1.372
48663W        W17136   5.348  26.496  13.504
48664W        W17137  12.297  14.674   1.747
48665W        W17138  41.505  20.669   1.916
48666W        W17139  33.000  23.082   4.762
48667W        W17140  12.293   6.419   4.290
48668W        W17141  34.984   5.712  12.890
48669W        W17142  30.990  31.978   3.360
48670W        W17143   0.446  41.895   1.381
48671W        W17144  14.711  35.080  14.311
48672W        W17145  38.858   4.416  13.930
48673W        W17146  42.848  41.860  10.982
48674W        W17147  26.977  34.381   2.216
48675W        W17148   6.712  44.892  14.808
48676W        W17149  32.585   7.403   5.107
48677W        W17150   4.901  39.024  12.063
48678W        W17151  40.492  21.245  10.093
48679W        W17152  34.986  24.020   0.414
48680W        W17153   7.675  15.672  10.579
48681W        W17154  22.664  37.460  12.457
48682W        W17155  13.820  18.070  12.465
48683W        W17156  25.006  17.643   0.823
48684W        W17157  23.096   5.846  13.020
48685W        W17158  19.157   1.924   4.716
48686W        W17159  16.314  23.098  12.056
48687W        W17160  23.734  22.607  12.512
48688W        W17161  41.489  24.093   2.177
48689W        W17162  34.483   8.236  13.422
48690W        W17163  16.141  42.519   4.708
48691W        W17164   5.215  33.580   3.805
48692W        W17165   3.787  33.041   1.768
48693W        W17166  11.323  15.213   2.395
48694W        W17167  12.301  21.673   1.844
48695W        W17168  27.042  13.347  14.493
48696W        W17169  15.677  36.459   2.236
48697W        W17170  20.737  20.055   3.649
48698W        W17171   0.403  27.053  13.431
48699W        W17172  20.575  40.478   4.147
48700W        W17173  12.276  13.647   3.236
48701W        W17174  39.557   7.815  10.624
48702W        W17175   6.683   7.199   0.404
48703W        W17176  21.720   4.737   5.126
48704W        W17177  13.247  21.751  13.538
48705W        W17178  16.210  13.153  12.079
48706W        W17179  40.815  17.726  14.835
48707W        W17180  43.898  28.576  10.585
48708W        W17181  21.710  19.533   0.955
48709W        W17182  29.647  42.002  14.983
48710W        W17183  35.516  15.266   3.774
48711W        W17184  14.320   2.876  12.876
48712W        W17185  10.332  24.616  10.995
48713W        W17186   3.392   6.909   4.261
48714W        W17187  28.488  33.037   0.253
48715W        W17188   4.306  13.303  14.342
48716W        W17189  34.465  44.390   2.764
48717W        W17190  41.992  10.637   2.184
48718W        W17191  14.254  15.256   1.324
48719W        W17192   1.348  35.367   0.469
48720W        W17193  30.033  31.574  12.064
48721W        W17194  40.883  11.779   1.325
48722W        W17195  22.558  30.612  10.986
48723W        W17196  41.430  24.070   3.305
48724W        W17197   5.255  38.902  14.833
48725W        W17198  31.606  34.554   1.399
48726W        W17199  39.037  22.128   1.840
48727W        W17200  11.336  31.522   3.292
48728W        W17201  41.823  18.214   4.130
48729W        W17202  17.205   4.439   3.302
48730W        W17203  13.679  17.690  13.938
48731W        W17204   2.825  15.693   0.372
48732W        W17205  25.103  18.660   0.274
48733W        W17206  20.179  11.863  13.458
48734W        W17207  24.078  27.154   5.672
48735W        W17208  19.129  39.964  11.592
48736W        W17209  39.475  32.038   0.251
48737W        W17210   3.798   8.739   4.612
48738W        W17211  10.718   3.419   1.707
48739W        W17212  38.886   8.680  10.579
48740W        W17213  41.303  37.505  11.477
48741W        W17214  38.338   9.842  11.984
48742W        W17215  28.476   1.767  14.374
48743W        W17216   2.248   8.252   3.841
48744W        W17217  36.351  19.581   0.957
48745W        W17218  13.206  39.836  10.405
48746W        W17219  29.477  29.493  11.374
48747W        W17220   7.322  22.661  11.022
48748W        W17221  41.973  21.644   4.767
48749W        W17222   2.457  31.959  14.505
48750W        W17223   0.388  31.937   3.264
48751W        W17224  28.045  26.541   5.317
48752W        W17225  34.979  23.117   4.610
48753W        W17226   5.255   6.425   5.709
48754W        W17227   0.814  21.523  12.488
48755W        W17228  34.933  12.137  10.562
48756W        W17229  40.887  14.332   0.304
48757W        W17230  10.162   6.872   3.309
48758W        W17231  14.733  30.028   4.259
48759W        W17232  42.506  12.222  10.949
48760W        W17233  23.532  18.616  14.297
48761W        W17234  21.669  20.098   3.306
48762W        W17235  39.864  40.328  12.003
48763W        W17236  12.156  10.256  13.460
48764W        W17237  20.134  20.247  10.504
48765W        W17238  21.029  29.099   4.624
48766W        W17239  33.413   8.261  14.835
48767W        W17240  38.402  27.007  14.463
48768W        W17241  35.055   7.355  13.943
48769W        W17242  16.080  14.202   3.651
48770W        W17243  26.538  10.773   1.349
48771W        W17244  18.564  38.399  10.534
48772W        W17245  41.938   9.835  12.928
48773W        W17246  27.457  17.581   0.831
48774W        W17247  12.744  40.862  12.341
48775W        W17248  37.866  38.372  12.535
48776W        W17249   3.281  21.524  13.435
48777W        W17250  21.062   7.833   4.328
48778W        W17251  23.160  27.616   0.847
48779W        W17252  35.953   4.789   5.272
48780W        W17253   4.868  11.627  10.615
48781W        W17254   0.461  32.966  12.457
48782W        W17255  40.956   3.716   4.786
48783W        W17256  14.276   2.782   3.806
48784W        W17257  16.276  17.261  10.530
48785W        W17258  35.498  16.181  14.943
48786W        W17259  30.009  40.398  13.403
48787W        W17260  42.323  15.610  14.782
48788W        W17261  25.969  34.598   3.380
48789W        W17262  42.956   7.189   2.857
48790W        W17263  16.720   2.440   3.843
48791W        W17264   6.764  31.955   3.287
48792W        W17265   5.835  18.619  10.619
48793W        W17266   3.436  25.570   2.268
48794W        W17267  15.767   6.365  12.966
48795W        W17268  36.471   6.278   0.339
48796W        W17269  27.471  30.971   0.352
48797W        W17270  39.919   0.907  12.413
48798W        W17271  36.969   5.738  14.453
48799W        W17272   3.714  22.247  12.032
48800W        W17273   6.886   1.297   2.860
48801W        W17274  28.987  21.072  12.436
48802W        W17275  10.228  20.195  14.885
48803W        W17276  21.544  35.481  12.560
48804W        W17277   0.747   4.445  12.908
48805W        W17278  38.379  29.507  11.981
48806W        W17279   0.275   0.474  14.280
48807W        W17280   6.302  26.980  14.888
48808W        W17281  16.117  38.946   1.765
48809W        W17282   3.762  10.730  10.546
48810W        W17283  10.154  29.971   0.243
48811W        W17284  26.075  10.849  11.948
48812W        W17285  28.540  43.428  11.987
48813W        W17286  36.556  39.944   2.702
48814W        W17287  29.043  40.873   0.440
48815W        W17288  10.769   5.764   2.343
48816W        W17289  12.154  35.549  13.361
48817W        W17290  14.704  27.000  14.432
48818W        W17291  36.964   9.767  14.499
48819W        W17292  42.905  23.217  14.763
48820W        W17293  42.410   4.309   2.303
48821W        W17294  42.782  17.228   3.843
48822W        W17295  11.127  14.217   2.287
48823W        W17296  22.011  25.646  14.291
48824W        W17297  25.713  27.062  14.476
48825W        W17298  37.938  15.158  11.519
48826W        W17299  40.515  40.802   0.888
48827W        W17300  16.163  19.206   2.743
48828W        W17301  13.802  27.654  11.902
48829W        W17302   1.809  33.435  13.440
48830W        W17303  26.610  26.644   4.203
48831W        W17304   1.437  36.061   1.338
48832W        W17305  22.201  27.987   1.392
48833W        W17306  44.869  39.939   2.772
48834W        W17307   1.746  13.145  14.891
48835W        W17308  31.548  30.923  12.096
48836W        W17309   7.838  41.005   2.245
48837W        W17310  40.519  26.014  11.550
48838W        W17311  40.389  38.489   1.739
48839W        W17312   9.857   5.797   0.851
48840W        W17313  43.463   9.284   0.922
48841W        W17314  41.525  42.913  10.418
48842W        W17315   5.401  14.195  11.040
48843W        W17316   2.299  12.320   1.728
48844W        W17317  36.905   0.372   2.883
48845W        W17318   9.240  36.930  11.601
48846W        W17319  44.493  13.155   4.803
48847W        W17320  28.946  34.959   3.368
48848W        W17321  26.538  42.346   2.339
48849W        W17322   4.792  22.124   2.265
48850W        W17323  44.437  33.583  11.946
48851W        W17324  36.449  24.586  11.474
48852W        W17325  20.058   3.826   3.865
48853W        W17326  15.208  25.503   0.266
48854W        W17327  34.936  26.118  11.012
48855W        W17328  24.978  12.689  14.464
48856W        W17329  20.665  18.081   4.636
48857W        W17330  44.936  19.252  13.464
48858W        W17331   8.250  32.900  10.616
48859W        W17332  11.333  24.681   4.137
48860W        W17333  12.823  26.984   4.765
48861W        W17334  34.377  14.281   1.256
48862W        W17335  34.426  36.593  10.571
48863W        W17336  18.159  20.069  14.414
48864W        W17337  14.252  39.889  11.933
48865W        W17338  12.668  41.879  13.352
48866W        W17339  36.416  11.333   2.228
48867W        W17340  31.468  17.101   4.354
48868W        W17341  26.012  12.155   4.294
48869W        W17342  30.058  30.566   4.786
48870W        W17343   6.836  32.019  12.041
48871W        W17344  24.700  42.297  12.090
48872W        W17345  18.193  13.804  10.568
48873W        W17346  18.754   4.317   0.786
48874W        W17347  13.238   3.239   1.817
48875W        W17348  33.472  24.183   1.334
48876W        W17349  26.149   0.887   0.742
48877W        W17350  17.283   0.457   4.806
48878W        W17351  16.792  36.542   1.237
48879W        W17352  35.587  40.422   0.762
48880W        W17353  20.720  35.054   2.698
48881W        W17354  42.487  16.287   4.280
48882W        W17355  10.220  42.866   4.625
48883W        W17356  34.002  38.828  13.890
48884W        W17357  34.538  28.071   2.815
48885W        W17358  28.106  29.574   3.225
48886W        W17359  13.716  38.050  13.838
48887W        W17360  17.584  33.579   1.832
48888W        W17361  34.567  40.017   2.361
48889W        W17362   1.793  27.455   1.880
48890W        W17363  31.042  40.370  13.407
48891W        W17364  11.225  28.015   3.173
48892W        W17365   2.326  19.647  14.840
48893W        W17366  13.762   6.203  14.275
48894W        W17367  18.185  38.407  10.526
48895W        W17368  41.298   9.852  14.905
48896W        W17369  25.709  29.044   4.719
48897W        W17370  24.642  43.494   0.378
48898W        W17371  22.654  41.786   3.815
48899W        W17372  12.757  39.864  12.569
48900W        W17373   4.917  31.614   1.316
48901W        W17374   4.803  30.628  11.018
48902W        W17375  37.434   5.729  11.984
48903W        W17376   1.766  22.117   2.750
48904W        W17377  42.954   0.744  12.389
48905W        W17378  14.831  10.875   3.338
48906W        W17379  16.735  39.900   2.772
48907W        W17380  24.495   6.343  10.432
48908W        W17381  32.454  23.993   4.821
48909W        W17382  13.311  39.340  11.927
48910W        W17383  44.262   0.275   1.349
48911W        W17384  39.392  25.586   0.471
48912W        W17385  17.198  14.302   0.800
48913W        W17386   3.323  29.500   3.151
48914W        W17387  32.103  39.531   4.219
48915W        W17388  13.347  27.595   0.748
48916W        W17389  28.131  10.221   0.258
48917W        W17390  25.521  12.643   1.260
48918W        W17391   5.199  13.783   5.124
48919W        W17392  15.094  43.779  14.784
48920W        W17393   0.292  13.220  13.429
48921W        W17394   3.447  20.681   1.280
48922W        W17395  14.178  15.732   3.829
48923W        W17396  39.811   1.830  10.542
48924W        W17397   8.364   5.754   4.601
48925W        W17398  33.924   9.858   1.441
48926W        W17399  43.481   0.390  12.045
48927W        W17400   2.425  18.697  13.926
48928W        W17401  23.106   7.796  10.538
48929W        W17402  39.047  38.367   3.799
48930W        W17403  17.292  24.485  14.440
48931W        W17404   9.847  29.154  13.413
48932W        W17405  33.596  20.572   1.894
48933W        W17406  37.531  21.246  10.453
48934W        W17407  32.052  19.581  10.083
48935W        W17408  39.345  27.184  13.856
48936W        W17409  33.928  31.082   2.252
48937W        W17410  12.791  23.536  13.006
48938W        W17411   7.740  13.209   2.875
48939W        W17412  42.933  34.422  14.776
48940W        W17413   2.843  15.802   3.642
48941W        W17414  21.048   1.268  13.336
48942W        W17415  12.648  29.460   0.888
48943W        W17416  11.663  39.438  14.443
48944W        W17417  19.775  26.190   0.384
48945W        W17418  39.870  36.889   0.780
48946W        W17419  28.117  41.034   2.806
48947W        W17420   8.190  29.600   3.694
48948W        W17421   3.319  10.833  13.982
48949W        W17422  36.581  14.125   4.707
48950W        W17423  37.919   6.844  11.038
48951W        W17424   4.906  33.391   1.274
48952W        W17425   4.864  14.823  11.860
48953W        W17426  28.623  31.142   3.681
48954W        W17427  33.068  18.573   3.213
48955W        W17428  40.370  28.467   0.433
48956W        W17429  11.312  33.116   2.390
48957W        W17430   3.854  18.277   2.818
48958W        W17431  25.708  18.189  13.040
48959W        W17432  26.574   7.725   2.876
48960W        W17433  20.727  37.058   0.328
48961W        W17434  13.762  42.817  10.419
48962W        W17435  32.083  32.552  11.569
48963W        W17436   7.233  15.170   4.210
48964W        W17437   6.197   1.297   3.746
48965W        W17438  10.158   1.872  12.350
48966W        W17439   9.213   3.870   1.431
48967W        W17440   5.298   8.401   4.219
48968W        W17441   3.863  31.451   2.321
48969W        W17442  10.297  16.242  13.443
48970W        W17443   7.686  31.492  14.998
48971W        W17444  23.014   6.873  14.014
48972W        W17445  23.636  18.214   3.640
48973W        W17446   2.726  36.061   4.754
48974W        W17447   9.649  42.840  13.461
48975W        W17448  10.858  12.266   4.691
48976W        W17449  40.305  28.139  12.922
48977W        W17450  34.996  20.641  10.943
48978W        W17451  35.880  32.024   1.732
48979W        W17452  19.774   5.338   1.391
48980W        W17453  15.745  36.977  13.796
48981W        W17454   2.917   5.892  13.904
48982W        W17455  39.846   7.283  13.901
48983W        W17456   1.387   2.298   4.184
48984W        W17457  24.609  26.023  10.434
48985W        W17458  15.758   7.254  14.772
48986W        W17459  30.152  40.325   3.780
48987W        W17460  29.920  37.427  11.126
48988W        W17461  23.120  27.192  13.912
48989W        W17462   3.439  40.446   1.738
48990W        W17463  40.816  38.968   4.694
48991W        W17464  13.665  31.139   0.300
48992W        W17465  17.622  38.995   4.315
48993W        W17466  27.599  17.600   1.904
48994W        W17467  41.475  17.260   3.791
48995W        W17468  39.422   8.811   1.794
48996W        W17469  24.104   0.458  10.917
48997W        W17470  25.492   1.955  12.914
48998W        W17471  32.572  26.492  13.519
48999W        W17472  34.460  10.363  14.354
49000W        W17473  16.282  33.005   1.728
49001W        W17474   1.399  12.307   4.140
49002W        W17475   3.841   0.749   0.250
49003W        W17476  20.576  23.683   2.726
49004W        W17477  39.526   4.859   2.190
49005W        W17478  40.878   6.299  14.945
49006W        W17479  27.999   6.336   3.700
49007W        W17480  27.691  29.662   0.453
49008W        W17481  28.653  16.142   4.279
49009W        W17482  37.924  27.643   0.361
49010W        W17483  28.601  38.834   0.312
49011W        W17484  30.032  25.474   1.861
49012W        W17485  30.505  43.338  10.554
49013W        W17486  34.929   6.849  14.843
49014W        W17487  32.021  41.924   0.393
49015W        W17488  25.588  25.628  13.461
49016W        W17489   2.930  23.061   2.870
49017W        W17490  16.228  36.585   0.467
49018W        W17491  36.098  32.454  11.551
49019W        W17492  19.774  41.364  14.447
49020W        W17493  10.851  36.925  12.896
49021W        W17494  19.536  40.366  10.981
49022W        W17495   2.930  16.206  12.843
49023W        W17496  29.602  36.579   2.901
49024W        W17497  25.116  16.196  14.972
49025W        W17498  21.723  38.869   3.704
49026W        W17499  33.427  12.738  13.872
49027W        W17500   8.721  34.560  14.402
49028W        W17501  34.070  37.902   3.364
49029W        W17502  11.242  44.440  11.419
49030W        W17503  24.974  33.942  12.928
49031W        W17504  35.539  38.003  10.496
49032W        W17505  41.913  24.533   3.857
49033W        W17506   9.298  26.995   1.225
49034W        W17507  20.708  17.557  13.014
49035W        W17508   3.319  13.706   1.340
49036W        W17509  17.717  40.853  14.898
49037W        W17510  23.116  21.576  13.909
49038W        W17511  38.043  18.618  14.451
49039W        W17512  13.681  10.206  14.830
49040W        W17513  34.983  43.954  12.504
49041W        W17514  11.785  42.495   4.774
49042W        W17515  20.763   1.368   3.645
49043W        W17516   5.797   5.324  14.281
49044W        W17517  17.092  16.128  10.990
49045W        W17518  24.993  10.191   4.794
49046W        W17519  15.182   1.459  12.086
49047W        W17520  42.283  35.573  13.026
49048W        W17521   6.782   2.920  12.408
49049W        W17522  37.998   7.778  13.985
49050W        W17523  16.087  43.788  12.941
49051W        W17524  26.610  27.101  11.568
49052W        W17525  35.538   9.709  13.326
49053W        W17526  34.870  40.343   0.337
49054W        W17527  17.746  19.268   4.818
49055W        W17528  29.508  15.603  12.002
49056W        W17529  32.012  31.983  14.981
49057W        W17530  31.143  12.227  14.908
49058W        W17531  26.111  35.034   2.252
49059W        W17532  28.450   0.836   9.951
49060W        W17533  19.548   2.318  11.095
49061W        W17534  16.799  34.038   2.257
49062W        W17535  14.336  13.215   3.228
49063W        W17536  36.991  30.572  14.406
49064W        W17537   4.789   5.738   4.155
49065W        W17538  36.395   5.915  10.461
49066W        W17539  13.830  27.527  14.780
49067W        W17540  23.645  44.385  10.912
49068W        W17541  32.499  12.347   4.185
49069W        W17542  25.216   5.269   2.347
49070W        W17543  26.674  26.549  13.487
49071W        W17544  18.731   0.908  10.906
49072W        W17545  41.383  15.771   4.836
49073W        W17546   1.762  24.548  11.522
49074W        W17547   6.266  31.111   4.328
49075W        W17548  29.502  43.766  10.541
49076W        W17549  27.194  21.098   0.869
49077W        W17550  40.967  18.582   1.373
49078W        W17551   4.742  21.141   3.188
49079W        W17552  38.901  24.065  13.407
49080W        W17553   7.293   9.258   1.333
49081W        W17554   0.372   3.762  12.445
49082W        W17555  32.621  39.025  13.010
49083W        W17556  27.452  32.038  12.486
49084W        W17557  34.878  43.787  10.900
49085W        W17558  30.920  44.372   0.478
49086W        W17559  12.333  32.897  12.538
49087W        W17560  33.579   4.363  11.446
49088W        W17561  19.588  34.479   2.351
49089W        W17562  24.191  26.021  10.644
49090W        W17563  22.562   8.246  14.802
49091W        W17564  35.452   5.702   2.794
49092W        W17565  27.152   5.788   1.300
49093W        W17566  25.682  30.636   3.721
49094W        W17567   5.706  23.155  10.485
49095W        W17568   8.397  10.828   3.706
49096W        W17569  29.118  38.019   1.421
49097W        W17570  35.528  23.126  11.037
49098W        W17571  38.073   0.831  13.502
49099W        W17572  41.924  33.038   3.251
49100W        W17573  23.015  12.632   9.936
49101W        W17574  32.076  23.067   4.252
49102W        W17575  39.479  39.539   2.406
49103W        W17576  43.453  16.139  14.464
49104W        W17577   7.858  16.751  14.967
49105W        W17578  14.112  37.550   1.701
49106W        W17579   7.759  14.203  13.917
49107W        W17580  34.516  28.679  10.635
49108W        W17581  42.916  17.081   2.874
49109W        W17582  22.746  41.790   4.196
49110W        W17583  29.588  35.893  11.600
49111W        W17584  14.141  36.503  13.442
49112W        W17585  29.119  14.833  13.050
49113W        W17586   6.736  22.711   2.704
49114W        W17587  41.357  21.047   1.740
49115W        W17588  43.840  11.644  10.609
49116W        W17589  28.974  18.737  12.512
49117W        W17590  20.644  10.362  14.835
49118W        W17591  42.401   7.686   1.694
49119W        W17592  36.390  40.423  13.470
49120W        W17593   5.925  27.120   1.896
49121W        W17594  38.865  40.912   4.636
49122W        W17595  12.119   2.249   4.829
49123W        W17596  26.160  27.561   1.888
49124W        W17597  38.390  42.890  10.447
49125W        W17598   8.712  44.951   3.337
49126W        W17599  11.339  15.788  13.517
49127W        W17600  41.450   7.388   2.293
49128W        W17601  16.293  32.031  13.429
49129W        W17602  18.767  24.513   0.789
49130W        W17603   1.428  42.503  14.411
49131W        W17604  37.461   6.808   2.404
49132W        W17605   5.732  17.261  14.333
49133W        W17606  21.186  15.815   2.850
49134W        W17607   5.253  22.074  13.529
49135W        W17608  23.101  26.174   0.252
49136W        W17609  19.567  36.878  12.406
49137W        W17610   0.417  35.382   0.807
49138W        W17611  38.472  37.430  14.958
49139W        W17612   3.731  29.077  11.433
49140W        W17613  23.106  30.534  11.430
49141W        W17614  42.913  35.414   4.634
49142W        W17615  30.416  39.040  12.995
49143W        W17616  32.977  41.847   0.330
49144W        W17617  20.050   4.386  10.641
49145W        W17618  14.746  43.834  10.562
49146W        W17619  36.999  12.857  14.924
49147W        W17620  44.424   8.397   3.740
49148W        W17621   5.309   1.795  13.310
49149W        W17622  16.639  33.887   4.189
49150W        W17623  39.556  31.026  12.473
49151W        W17624   9.198  43.884  14.315
49152W        W17625   2.348  17.130  14.486
49153W        W17626   8.819  23.639   3.694
49154W        W17627  31.126  29.482   4.316
49155W        W17628  20.080  15.164   0.874
49156W        W17629  14.613  34.106  13.925
49157W        W17630  40.310  40.987  12.445
49158W        W17631  32.478  20.557   0.279
49159W        W17632  32.433  39.405   3.174
49160W        W17633  21.700  35.062  11.493
49161W        W17634  24.153  37.553   4.794
49162W        W17635  25.032  25.501   3.728
49163W        W17636  36.909   0.422  14.381
49164W        W17637  15.290   9.827   2.340
49165W        W17638  22.077  11.299  11.570
49166W        W17639  14.327  19.618   1.930
49167W        W17640  37.007  37.343  11.900
49168W        W17641   0.950   5.388   3.708
49169W        W17642  22.089  26.079  11.506
49170W        W17643  14.733  17.623   3.689
49171W        W17644  22.529  28.677  12.504
49172W        W17645  17.625  16.741   1.714
49173W        W17646  24.574  27.052   3.820
49174W        W17647  42.845  38.359   4.750
49175W        W17648  42.453  17.689   0.253
49176W        W17649   7.687  23.069  11.565
49177W        W17650   6.807  43.314  11.029
49178W        W17651  17.179  15.269   4.150
49179W        W17652  10.332  18.124  10.889
49180W        W17653  40.895  28.550   4.760
49181W        W17654  38.481  18.706   2.298
49182W        W17655  41.396  10.754  13.839
49183W        W17656   4.427   7.757  11.940
49184W        W17657   6.918  13.259   0.253
49185W        W17658  42.996  13.734  11.941
49186W        W17659  27.046   0.462  10.449
49187W        W17660  31.028  24.224  13.376
49188W        W17661  30.615   3.917  11.515
49189W        W17662  36.378  23.226  13.458
49190W        W17663   3.800  43.347   3.817
49191W        W17664   4.427   3.724   2.691
49192W        W17665  17.127  12.768  10.436
49193W        W17666   7.297  28.575   2.394
49194W        W17667  25.185   0.415   0.827
49195W        W17668  30.493  33.523   0.748
49196W        W17669  42.439  18.600  11.050
49197W        W17670   7.888  23.521  13.873
49198W        W17671  29.920  18.088   2.266
49199W        W17672   5.930  18.586   2.773
49200W        W17673   6.238   8.257  12.514
49201W        W17674   3.713  40.996  10.987
49202W        W17675   2.333  37.978  11.118
49203W        W17676  31.453  39.343  12.431
49204W        W17677   9.325  33.107  10.436
49205W        W17678  43.317  35.944   1.919
49206W        W17679  14.265  26.651   1.365
49207W        W17680  30.065  16.612   2.836
49208W        W17681  13.722  32.886  14.439
49209W        W17682  16.585   1.337   3.149
49210W        W17683  40.476   2.922   2.677
49211W        W17684  30.462  17.591  12.958
49212W        W17685  19.564  27.513   2.226
49213W        W17686  14.739  32.136   3.219
49214W        W17687  31.935   2.327   4.323
49215W        W17688  22.123   9.241  12.969
49216W        W17689  18.608   0.981  11.531
49217W        W17690   1.350  42.381  12.956
49218W        W17691  38.364  31.912  10.035
49219W        W17692   8.216  31.951   0.876
49220W        W17693  31.406  38.828   2.691
49221W        W17694   0.347   2.722  14.330
49222W        W17695  42.912  42.328  13.397
49223W        W17696  16.154  25.583   4.272
49224W        W17697  16.785  35.412  10.579
49225W        W17698   5.302  16.646  14.930
49226W        W17699  30.422  27.564   3.828
49227W        W17700  11.201  29.540  12.552
49228W        W17701  15.201   9.166  10.983
49229W        W17702  37.943   8.723  14.364
49230W        W17703  16.233   5.411  13.387
49231W        W17704   0.367  21.065  13.545
49232W        W17705  24.097  16.218  14.864
49233W        W17706  44.410  16.119  13.359
49234W        W17707   3.444  19.064  12.413
49235W        W17708   4.415  41.843   2.891
49236W        W17709  35.958  23.623  14.012
49237W        W17710  12.359  34.523   1.285
49238W        W17711  27.044  22.039   4.121
49239W        W17712  41.347  37.370   4.153
49240W        W17713  11.732  30.007   0.446
49241W        W17714  14.812   7.327  14.929
49242W        W17715   7.216   9.172   2.357
49243W        W17716   9.837  18.275   1.748
49244W        W17717   8.352  39.546   4.114
49245W        W17718  17.268   1.906  12.422
49246W        W17719   5.439   5.268   2.733
49247W        W17720  31.531  44.975   0.372
49248W        W17721  40.426   0.429  13.510
49249W        W17722   4.298  24.194  14.338
49250W        W17723  44.479   5.806   3.270
49251W        W17724   8.868  24.222  14.930
49252W        W17725  22.102  22.738   1.831
49253W        W17726  40.529  41.972   3.167
49254W        W17727  12.785  29.973   4.675
49255W        W17728   6.237  21.738  13.359
49256W        W17729  36.977  16.795  12.549
49257W        W17730   3.328  34.580   0.964
49258W        W17731  39.965  33.050  10.526
49259W        W17732  13.629  10.688  14.847
49260W        W17733   0.777  30.053   2.375
49261W        W17734  39.024  30.603  14.922
49262W        W17735  27.170  25.051   2.345
49263W        W17736   0.816  27.449   2.685
49264W        W17737  34.553  20.726  13.030
49265W        W17738   9.676  34.885   1.925
49266W        W17739  16.721  27.121   0.819
49267W        W17740   6.761  32.891  13.479
49268W        W17741   4.748   9.738   1.376
49269W        W17742   1.757  19.081  13.803
49270W        W17743  36.990  40.548   3.204
49271W        W17744  35.019  31.110  11.882
49272W        W17745  24.503  22.548   3.262
49273W        W17746  39.819  34.431  10.451
49274W        W17747  36.380  26.567   2.734
49275W        W17748  22.503   7.907   4.168
49276W        W17749   9.762  33.130  11.028
49277W        W17750  35.555  30.036  12.565
49278W        W17751  34.503   0.810  11.069
49279W        W17752  40.535  17.707  14.017
49280W        W17753  21.757  33.099   0.968
49281W        W17754  10.765   1.263   1.919
49282W        W17755  27.521   8.872   0.847
49283W        W17756   1.385  37.487   4.725
49284W        W17757  11.641  15.326  12.405
49285W        W17758  41.316  11.363  12.366
49286W        W17759  31.998  44.767  11.522
49287W        W17760  30.981  29.074  13.853
49288W        W17761   8.728  15.819  11.475
49289W        W17762   9.776  36.862   0.316
49290W        W17763  22.125  32.132  10.541
49291W        W17764  23.237  21.636  11.441
49292W        W17765  22.198  33.563  14.936
49293W        W17766   4.292  20.696   0.382
49294W        W17767   0.455  35.918  14.343
49295W        W17768  38.498  20.147   3.283
49296W        W17769  38.002  34.401   4.187
49297W        W17770  29.464  15.716   2.785
49298W        W17771  40.522  22.688  10.143
49299W        W17772   3.373  12.791   0.282
49300W        W17773   7.719  16.645   3.165
49301W        W17774  16.310  44.971  13.054
49302W        W17775  38.964  21.649  12.504
49303W        W17776  31.018  42.301   3.221
49304W        W17777  19.744  28.564  11.971
49305W        W17778   2.927  10.319  10.405
49306W        W17779  44.273   4.921  13.037
49307W        W17780  39.516  24.511  14.452
49308W        W17781  42.782  31.134  11.373
49309W        W17782  31.122  15.680  12.430
49310W        W17783  22.024  43.295   4.752
49311W        W17784  41.005  39.820   4.134
49312W        W17785  18.179   6.292  11.902
49313W        W17786  32.442  14.768   4.830
49314W        W17787  35.531  31.011   4.658
49315W        W17788   5.249  36.987  13.381
49316W        W17789  35.058  34.466  11.047
49317W        W17790  20.213  11.768   4.212
49318W        W17791  37.902   4.928   0.327
49319W        W17792  18.704   2.302  14.441
49320W        W17793  11.821   4.444   3.670
49321W        W17794  21.148  17.204  11.604
49322W        W17795  33.090  40.892  12.851
49323W        W17796   8.340  32.026   0.321
49324W        W17797  41.918  38.326  11.567
49325W        W17798  39.504  24.110   0.287
49326W        W17799  29.532  20.177  10.553
49327W        W17800  36.544  22.243  11.059
49328W        W17801  23.233  28.108  12.506
49329W        W17802  33.528   1.806  10.417
49330W        W17803   3.440  44.319   5.293
49331W        W17804  11.806   5.711   3.724
49332W        W17805  13.142   7.895  12.031
49333W        W17806  36.393   2.837  13.049
49334W        W17807   1.246  21.186   4.747
49335W        W17808   0.417  40.409   0.765
49336W        W17809   1.938  41.529   2.303
49337W        W17810  31.581   1.849   4.272
49338W        W17811  38.825  12.708   2.274
49339W        W17812  11.711  18.141  13.822
49340W        W17813   9.737  37.363   3.765
49341W        W17814  13.155  35.019  13.869
49342W        W17815   8.765   6.409   5.265
49343W        W17816  41.404   5.197  14.004
49344W        W17817  21.209  18.269   1.374
49345W        W17818  32.998  33.602   2.249
49346W        W17819  36.027  35.499  13.007
49347W        W17820  22.116  14.218  11.128
49348W        W17821  14.332   3.777  10.412
49349W        W17822  13.289  44.265  12.051
49350W        W17823  43.009  28.110   2.740
49351W        W17824  32.966  12.256   2.267
49352W        W17825  30.996   6.804   3.219
49353W        W17826  10.301  32.117  12.977
49354W        W17827  34.003  13.314  12.464
49355W        W17828   0.969  41.448   4.700
49356W        W17829  42.993   0.881   4.308
49357W        W17830  43.926  17.110  13.327
49358W        W17831  31.478   4.421  10.611
49359W        W17832   8.204  12.129  10.542
49360W        W17833  31.411  43.997   2.417
49361W        W17834  34.455   4.348  13.491
49362W        W17835   9.834  43.478   1.698
49363W        W17836  10.721   5.418   1.753
49364W        W17837  26.634  14.106  11.514
49365W        W17838   1.244  37.074   3.287
49366W        W17839  18.112  12.127  13.385
49367W        W17840  24.035  17.150   1.311
49368W        W17841  16.697  28.595   2.327
49369W        W17842  42.487   4.433  13.480
49370W        W17843   4.738  28.536   1.708
49371W        W17844  18.642  19.145   0.335
49372W        W17845   6.728  24.222   2.824
49373W        W17846  37.037  29.115   4.255
49374W        W17847  39.343  44.352  10.997
49375W        W17848  17.086   8.730   1.307
49376W        W17849   9.707  42.021   1.880
49377W        W17850  24.162  28.489  10.560
49378W        W17851  33.592   4.778   0.302
49379W        W17852   5.896  43.411   4.129
49380W        W17853  39.056   8.899  14.429
49381W        W17854  27.600  43.276   0.448
49382W        W17855  30.015  11.859   0.740
49383W        W17856  28.181  11.302  10.951
49384W        W17857  36.041  41.847  10.636
49385W        W17858  44.402  19.576   9.982
49386W        W17859   6.729  20.623  12.837
49387W        W17860  44.356  18.077   4.185
49388W        W17861  19.212  10.797  12.075
49389W        W17862  10.189  34.977   4.347
49390W        W17863  36.564  26.563   1.882
49391W        W17864  32.413  13.325   3.846
49392W        W17865   4.908   2.441  11.948
49393W        W17866  10.689  25.691  13.808
49394W        W17867  23.195  33.545   2.222
49395W        W17868  32.992   6.345   2.762
49396W        W17869  43.270  14.239   5.137
49397W        W17870  36.926  15.791   0.878
49398W        W17871   5.281  16.689   3.869
49399W        W17872  20.523  19.114   3.332
49400W        W17873  24.723  33.561  12.418
49401W        W17874  43.818  36.080  10.593
49402W        W17875   6.843  35.401  12.091
49403W        W17876   4.837  13.295   2.230
49404W        W17877  44.333   4.844   0.342
49405W        W17878  18.201  21.112  10.112
49406W        W17879  20.717  15.622   3.247
49407W        W17880  19.632  11.635   4.647
49408W        W17881  28.625  15.803   3.809
49409W        W17882  38.436   7.411   4.673
49410W        W17883  22.035   2.268   0.757
49411W        W17884  44.411   1.895   3.730
49412W        W17885  12.325  27.169   4.622
49413W        W17886   5.234  37.961   4.292
49414W        W17887  14.190  26.569  12.432
49415W        W17888   5.337   0.487   4.236
49416W        W17889   8.847  22.103   0.944
49417W        W17890  29.068  39.491   0.845
49418W        W17891  20.232  15.085  12.872
49419W        W17892   4.715   7.341  14.957
49420W        W17893  18.549   7.252   2.382
49421W        W17894   8.717   8.792  13.310
49422W        W17895  29.031  23.115  10.415
49423W        W17896   4.863  42.408  12.466
49424W        W17897  14.277  29.029  12.066
49425W        W17898  35.572   4.699  14.456
49426W        W17899  31.491  44.926   3.746
49427W        W17900  25.468  37.842   4.693
49428W        W17901  17.735  41.492  12.431
49429W        W17902   7.222  44.399  12.566
49430W        W17903  43.984  17.283  11.442
49431W        W17904  24.194  33.622   3.168
49432W        W17905  40.331  38.911  10.613
49433W        W17906   0.779  24.135  11.044
49434W        W17907  37.045   2.856   2.250
49435W        W17908  27.074  24.556  13.028
49436W        W17909  35.400  38.901   2.751
49437W        W17910   8.334  25.636   5.624
49438W        W17911  24.152  44.500  14.977
49439W        W17912   3.241  17.583  12.497
49440W        W17913  36.436  19.622   4.601
49441W        W17914  42.865  32.970   0.393
49442W        W17915  44.494  14.196   4.247
49443W        W17916  44.938   4.864   4.277
49444W        W17917   0.803  26.041  14.992
49445W        W17918  33.902  37.954  14.006
49446W        W17919   3.836   2.264   2.730
49447W        W17920  43.405  16.737  11.419
49448W        W17921  17.712  32.977   1.234
49449W        W17922   0.455  35.557   4.738
49450W        W17923  37.358   7.886  13.497
49451W        W17924  39.396  44.849   2.737
49452W        W17925  26.980   9.258  13.979
49453W        W17926  10.169  19.690   0.932
49454W        W17927  34.492  22.633  14.797
49455W        W17928  16.777  23.673  14.317
49456W        W17929   8.837  17.679  13.416
49457W        W17930  23.554  43.973   4.234
49458W        W17931  29.569  16.290  12.553
49459W        W17932  15.642  25.638   4.315
49460W        W17933  37.581  43.478   3.853
49461W        W17934  12.717  27.516   3.780
49462W        W17935   9.209  36.048   2.747
49463W        W17936   0.932  23.593   4.313
49464W        W17937  24.526  39.455  13.031
49465W        W17938  31.575  38.393   3.762
49466W        W17939   2.747   1.864   2.890
49467W        W17940  15.733  25.472  10.497
49468W        W17941  16.206  32.960   3.650
49469W        W17942  34.071  26.531  11.380
49470W        W17943  20.667   5.373  10.485
49471W        W17944  22.634  35.953  12.550
49472W        W17945  42.397  28.155   3.837
49473W        W17946  36.008  26.657   0.380
49474W        W17947   3.848  23.012   4.726
49475W        W17948  22.179   2.920   1.821
49476W        W17949  30.496   2.427   4.273
49477W        W17950  41.536  35.460   3.713
49478W        W17951   8.877  11.625  11.860
49479W        W17952  15.192   6.857   1.877
49480W        W17953  21.571  15.117   5.203
49481W        W17954  29.607  13.673   4.803
49482W        W17955   8.317   0.976   4.712
49483W        W17956  36.484  43.811   1.742
49484W        W17957  36.058  37.075   2.718
49485W        W17958  37.938  17.705  13.316
49486W        W17959  41.945  20.056   0.795
49487W        W17960  16.619  11.225   2.724
49488W        W17961  22.621  32.971   9.994
49489W        W17962  34.964  27.140   3.748
49490W        W17963  26.156  24.650  13.358
49491W        W17964   9.179  32.445  12.987
49492W        W17965  37.868  26.646  11.443
49493W        W17966  14.627  26.627  14.418
49494W        W17967  40.808  44.810  10.587
49495W        W17968  25.022  34.060  11.930
49496W        W17969  24.160   2.231  11.046
49497W        W17970  25.560  43.813  11.542
49498W        W17971  33.130   4.935  14.000
49499W        W17972  44.910  36.995   1.819
49500W        W17973  19.174   1.417   2.184
49501W        W17974  26.064  42.502   3.831
49502W        W17975  28.052  11.132  10.085
49503W        W17976   6.748  41.790   3.248
49504W        W17977  43.799  32.470   4.683
49505W        W17978  36.508  41.367   3.220
49506W        W17979  13.829  33.516  12.495
49507W        W17980  31.032  18.763  13.403
49508W        W17981  25.635  18.132  11.606
49509W        W17982  38.407  36.445   2.895
49510W        W17983  17.693   4.845   0.441
49511W        W17984  33.540  19.664  10.905
49512W        W17985  37.963  40.425   2.340
49513W        W17986   6.683  10.653  13.018
49514W        W17987  22.647  26.959  14.891
49515W        W17988  30.000   6.816  13.360
49516W        W17989   1.956  10.692  12.053
49517W        W17990   3.259  11.861  11.989
49518W        W17991  38.051  25.483  10.553
49519W        W17992  39.518  21.584   0.775
49520W        W17993  18.760   7.304   0.396
49521W        W17994   2.830  21.134  14.766
49522W        W17995  37.936  23.117   3.774
49523W        W17996  30.541  32.619   1.367
49524W        W17997   1.848   7.750   3.278
49525W        W17998   5.776  24.103   1.347
49526W        W17999  18.119  25.705   1.280
49527W        W18000  13.315   5.844  14.303
49528W        W18001  42.489  20.061  10.944
49529W        W18002  25.096   9.853  11.996
49530W        W18003  35.869  21.630   2.706
49531W        W18004  24.021  31.143  11.417
49532W        W18005  43.941  10.263   3.660
49533W        W18006  24.489   1.282   0.750
49534W        W18007  28.618   4.704   0.874
49535W        W18008  39.816   3.879  14.508
49536W        W18009   9.261   3.412   3.665
49537W        W18010  30.041   9.305  11.382
49538W        W18011  28.026   7.171  13.826
49539W        W18012  26.505  15.709  11.440
49540W        W18013  13.818   0.479   1.417
49541W        W18014  12.660  20.085  12.837
49542W        W18015  22.727  28.567   1.705
49543W        W18016  31.504  41.926   5.270
49544W        W18017  42.345  34.495   2.786
49545W        W18018   2.895  10.282   1.279
49546W        W18019  38.970  24.634  13.923
49547W        W18020   2.932   5.768  13.016
49548W        W18021   8.828  42.424   4.645
49549W        W18022  26.118  13.261  11.431
49550W        W18023   4.854  12.820  10.443
49551W        W18024  14.625  25.979  10.462
49552W        W18025   1.835  12.223  11.024
49553W        W18026  22.026  37.891   2.277
49554W        W18027  25.147  41.518   4.298
49555W        W18028  17.184  20.662  14.839
49556W        W18029   4.860  26.037  10.999
49557W        W18030  41.947  14.335  14.483
49558W        W18031  27.125   2.335  12.003
49559W        W18032  31.936  33.463   2.335
49560W        W18033  27.136  10.326  12.089
49561W        W18034  23.130  10.709  14.460
49562W        W18035  24.010  30.099  14.023
49563W        W18036  22.060  38.836   2.875
49564W        W18037  41.800  24.980   2.663
49565W        W18038  44.823  36.880  13.793
49566W        W18039  28.116  33.454  11.489
49567W        W18040  15.744   5.434  14.786
49568W        W18041  21.632  31.481   4.197
49569W        W18042  32.968  42.310   3.793
49570W        W18043  10.320  37.422   0.401
49571W        W18044  14.162   3.440  10.458
49572W        W18045  43.346  16.754  13.485
49573W        W18046  28.059  32.888  13.989
49574W        W18047  40.831  37.901   1.920
49575W        W18048  17.762  20.658  10.487
49576W        W18049  23.010  34.976   4.227
49577W        W18050  31.039  42.873   9.963
49578W        W18051   0.748  13.672   4.266
49579W        W18052  27.560  28.137  13.967
49580W        W18053  24.230   7.743   3.230
49581W        W18054   0.858  44.267  12.946
49582W        W18055  32.474  24.100   5.234
49583W        W18056  19.644  41.816   4.237
49584W        W18057  36.848  34.904   3.791
49585W        W18058  11.673  33.386  14.403
49586W        W18059  16.201  17.573  11.012
49587W        W18060  28.451  29.602   0.803
49588W        W18061   6.889  44.761  12.983
49589W        W18062  43.897  19.122  13.329
49590W        W18063  20.083  26.628  10.554
49591W        W18064  33.090  38.558  14.863
49592W        W18065  27.129   6.830  12.362
49593W        W18066  27.451  29.460   2.851
49594W        W18067  28.650  19.636  14.468
49595W        W18068  44.006   0.289   0.387
49596W        W18069  20.160  29.071   3.719
49597W        W18070  34.949  36.026   4.195
49598W        W18071  41.842  41.506   1.413
49599W        W18072  11.848  40.532   0.915
49600W        W18073  17.214   6.234   2.266
49601W        W18074   8.701  20.724   3.202
49602W        W18075  21.562   8.208  11.596
49603W        W18076   7.910  34.504   4.348
49604W        W18077   6.773  37.928   3.383
49605W        W18078  31.629  19.606   2.690
49606W        W18079  34.118  32.589  10.600
49607W        W18080   9.860  11.684   1.398
49608W        W18081  13.729  41.345   2.295
49609W        W18082  15.266  35.401  12.394
49610W        W18083  32.613  44.327   3.760
49611W        W18084  35.996  29.943   1.807
49612W        W18085  19.140  30.928   3.846
49613W        W18086  12.154  27.550   2.852
49614W        W18087  16.107  11.163  14.467
49615W        W18088  31.898   2.928   0.884
49616W        W18089  40.467  14.753  12.905
49617W        W18090  24.127  35.539   4.170
49618W        W18091  29.491   7.834  12.030
49619W        W18092   8.402  25.662   3.666
49620W        W18093  32.491  44.820  14.494
49621W        W18094   6.373  28.134   2.220
49622W        W18095   5.775  18.060  14.327
49623W        W18096   9.169  33.381   5.229
49624W        W18097  20.212  26.675  12.883
49625W        W18098  31.575  31.623   2.865
49626W        W18099  13.179  31.520  13.971
49627W        W18100   1.238   9.696   1.300
49628W        W18101   3.748  12.351   1.360
49629W        W18102  33.427  17.096   5.190
49630W        W18103  12.122  35.540   1.745
49631W        W18104  43.470  18.112   1.365
49632W        W18105   0.407  38.545   4.774
49633W        W18106  26.033  26.146  12.029
49634W        W18107  19.635  30.055  13.958
49635W        W18108  44.874  25.977  12.080
49636W        W18109  29.603  37.060   0.936
49637W        W18110  36.944  29.975   1.340
49638W        W18111  17.282  31.971   3.328
49639W        W18112  37.411  25.477   0.285
49640W        W18113  19.537   3.829  13.854
49641W        W18114   0.272   1.415   2.306
49642W        W18115  36.943   0.452  14.903
49643W        W18116  26.678  21.207  14.965
49644W        W18117   6.692  16.805  14.024
49645W        W18118  39.427  20.245  10.998
49646W        W18119  21.053   5.883  13.395
49647W        W18120  38.473  36.455   0.785
49648W        W18121   7.760  31.101   4.671
49649W        W18122  26.625  38.923   1.768
49650W        W18123  21.516  37.433  13.976
49651W        W18124   2.724  36.360  12.888
49652W        W18125   4.291  26.973  13.895
49653W        W18126  41.919  31.054   0.274
49654W        W18127  21.682   7.683   3.761
49655W        W18128  33.108  14.787  13.459
49656W        W18129  30.557  13.662   3.387
49657W        W18130  11.219  29.589   3.719
49658W        W18131  44.308   3.809  10.450
49659W        W18132   6.257  20.097  10.536
49660W        W18133  19.106  28.486   2.775
49661W        W18134   7.744  12.628   4.284
49662W        W18135   4.787  31.962   4.324
49663W        W18136  19.236  15.317   2.861
49664W        W18137  38.474  11.743  12.939
49665W        W18138  11.792   9.835  14.901
49666W        W18139  14.681  38.907  14.456
49667W        W18140  28.577  33.596  13.533
49668W        W18141   1.238  40.400  14.299
49669W        W18142  32.624  41.012   9.624
49670W        W18143   7.846  10.678  11.877
49671W        W18144   0.751  16.117  13.903
49672W        W18145  41.960   1.290  12.913
49673W        W18146   1.401  36.977  14.942
49674W        W18147  12.247   1.477  11.595
49675W        W18148   0.430  19.212  12.060
49676W        W18149   5.243   8.209  13.912
49677W        W18150   8.712  42.837   2.327
49678W        W18151  28.065   1.300   2.706
49679W        W18152  27.571   5.886  10.518
49680W        W18153   1.767  34.469  14.850
49681W        W18154  36.045  33.423  14.798
49682W        W18155  15.087  28.448   3.163
49683W        W18156   0.337   8.728  14.800
49684W        W18157   5.916  16.795   2.741
49685W        W18158  23.024  32.013  11.491
49686W        W18159  22.172   4.896   3.857
49687W        W18160   2.366  30.568   5.169
49688W        W18161  30.441  16.677  13.056
49689W        W18162  10.334  13.733   1.779
49690W        W18163  28.486  43.998  13.865
49691W        W18164  42.513  22.665   3.320
49692W        W18165  22.591  39.963  11.908
49693W        W18166  24.632  34.909  14.977
49694W        W18167  24.072  22.678   4.630
49695W        W18168  13.708  38.004   4.166
49696W        W18169  28.678  42.292  13.832
49697W        W18170  42.901  10.680   0.250
49698W        W18171  30.416   0.809   1.903
49699W        W18172  33.982  31.452  12.427
49700W        W18173  21.669   8.695   2.232
49701W        W18174  29.547   5.282  11.400
49702W        W18175  34.930  29.121   1.389
49703W        W18176   3.922  38.976   4.260
49704W        W18177  34.605   4.945   0.483
49705W        W18178  20.622  34.552   4.239
49706W        W18179  21.160  26.486  11.586
49707W        W18180  44.345  26.025  12.407
49708W        W18181  14.806  27.555   3.698
49709W        W18182  22.094  39.810  11.906
49710W        W18183   1.773  22.683  14.780
49711W        W18184   9.204  17.705  13.906
49712W        W18185  38.059   0.876   9.958
49713W        W18186  40.494  20.048   2.400
49714W        W18187  44.458   0.400  14.974
49715W        W18188  28.009   2.893   4.721
49716W        W18189  19.161  13.189  14.354
49717W        W18190   0.292   7.861   0.482
49718W        W18191   5.730  44.392   2.675
49719W        W18192  43.966  23.653   1.886
49720W        W18193   1.806  16.703  10.637
49721W        W18194   0.758  18.126  13.791
49722W        W18195  22.500  26.163  14.925
49723W        W18196  21.098  24.708  14.863
49724W        W18197  15.719  17.689  14.953
49725W        W18198  31.420  37.398  11.389
49726W        W18199   3.937   0.296  13.801
49727W        W18200   6.303   0.786   1.744
49728W        W18201  43.932  41.408  10.991
49729W        W18202  37.994  44.933   0.932
49730W        W18203  11.274  37.033   0.345
49731W        W18204  22.628  13.807  13.958
49732W        W18205  25.672  34.414   0.436
49733W        W18206  11.139  39.379  14.316
49734W        W18207  23.642  39.537   2.267
49735W        W18208  17.066  10.277  13.395
49736W        W18209  16.625  43.321  13.540
49737W        W18210   2.855   2.256  11.436
49738W        W18211   0.785  33.017  13.357
49739W        W18212  23.999   6.861  12.389
49740W        W18213  12.283  35.095  10.472
49741W        W18214  28.604   4.818  13.541
49742W        W18215  31.141  32.892  12.573
49743W        W18216  12.177  33.095   1.439
49744W        W18217   0.448  13.836   2.221
49745W        W18218  11.841   9.805   0.453
49746W        W18219  18.181  23.667   4.203
49747W        W18220  15.259   3.730  11.582
49748W        W18221  44.464  41.908  14.406
49749W        W18222  27.109  37.549  10.028
49750W        W18223   1.826  38.563   0.926
49751W        W18224  11.752  16.812   2.714
49752W        W18225  29.565  35.396   1.388
49753W        W18226  23.594  22.619  11.455
49754W        W18227  26.036  25.007   1.877
49755W        W18228  43.823  39.051  11.096
49756W        W18229  21.667  18.598  10.915
49757W        W18230  40.456  27.597  10.913
49758W        W18231  30.911  29.973  10.411
49759W        W18232  32.115  23.632  14.017
49760W        W18233   4.749  30.053  14.816
49761W        W18234  31.475  20.746  10.469
49762W        W18235   0.359  10.648  13.408
49763W        W18236  41.325   5.205   2.335
49764W        W18237   3.229  29.017   4.835
49765W        W18238  10.318   5.695  14.302
49766W        W18239  23.520  10.643  12.016
49767W        W18240   0.854  12.626  14.976
49768W        W18241  24.143  21.181  14.381
49769W        W18242  29.949  28.511  12.345
49770W        W18243  29.044  16.235  13.843
49771W        W18244  16.316  32.964  10.996
49772W        W18245  23.699  40.963  14.819
49773W        W18246  30.553  29.961   0.334
49774W        W18247  35.467  16.790   2.262
49775W        W18248  10.246   2.248  14.981
49776W        W18249   5.732   8.261  14.276
49777W        W18250  18.128  22.188  10.583
49778W        W18251  27.565   1.882  11.526
49779W        W18252  13.222  19.228   3.361
49780W        W18253  27.113  41.873  11.382
49781W        W18254  41.935  12.317   4.144
49782W        W18255  30.113  30.572   1.704
49783W        W18256   3.777   5.410  14.024
49784W        W18257   5.358  25.138  12.395
49785W        W18258  18.138  32.003  14.345
49786W        W18259   0.988  32.565  14.459
49787W        W18260  43.288  32.481   0.836
49788W        W18261  44.893  31.079   3.725
49789W        W18262  18.142  37.342  12.048
49790W        W18263   0.838   3.853   0.407
49791W        W18264   9.261  34.991   1.221
49792W        W18265   3.909  19.077  12.502
49793W        W18266  31.477  11.674  11.105
49794W        W18267  24.206   6.316   1.310
49795W        W18268  34.970   8.376  12.960
49796W        W18269  37.878  11.751  14.029
49797W        W18270   4.316  39.993   1.827
49798W        W18271  38.434  20.729   0.891
49799W        W18272   2.228  28.550   2.774
49800W        W18273  20.133  38.928  11.535
49801W        W18274   7.771  28.134  14.003
49802W        W18275  35.095  43.499  11.006
49803W        W18276  11.688  12.194   1.864
49804W        W18277   9.188   2.859   0.252
49805W        W18278  19.552   6.332  12.514
49806W        W18279  43.013  26.976  12.827
49807W        W18280  44.461  43.021  14.779
49808W        W18281  17.650   5.732   4.226
49809W        W18282  19.185  31.117   4.173
49810W        W18283   2.259   0.336  11.858
49811W        W18284  31.116  24.560  11.083
49812W        W18285  17.562  15.208  14.382
49813W        W18286  30.150  12.212  14.394
49814W        W18287  38.865  17.698   4.738
49815W        W18288  33.450   3.907  11.577
49816W        W18289   0.378  17.781   3.343
49817W        W18290  41.453  34.879  10.910
49818W        W18291   2.379   0.846   1.286
49819W        W18292  11.132   0.973   2.180
49820W        W18293  22.096  24.671   1.765
49821W        W18294  11.836  17.074  14.386
49822W        W18295  23.242  43.897   4.705
49823W        W18296  36.098  37.032  14.323
49824W        W18297  23.134  37.338  13.345
49825W        W18298  21.249   8.759   4.777
49826W        W18299  44.888  43.350  11.451
49827W        W18300  12.790  18.081   1.815
49828W        W18301  30.978  19.697   2.794
49829W        W18302  17.151  43.904   2.238
49830W        W18303  27.565  32.079  11.610
49831W        W18304  36.882  11.766   1.896
49832W        W18305  24.568  22.035  10.911
49833W        W18306   7.207  28.581   1.705
49834W        W18307  20.554  36.381   3.683
49835W        W18308  16.183  21.153  14.794
49836W        W18309  44.786  11.789  14.964
49837W        W18310   3.956  13.273  12.924
49838W        W18311  13.308   3.806   2.837
49839W        W18312  41.803   6.816  14.812
49840W        W18313  41.025  21.097  10.450
49841W        W18314  15.709  31.489   4.345
49842W        W18315  12.253  21.722  11.458
49843W        W18316  38.016  33.600   1.844
49844W        W18317  36.495   5.836  14.875
49845W        W18318  17.147  29.435   2.230
49846W        W18319  39.888   8.271   3.767
49847W        W18320  24.631  28.149   0.289
49848W        W18321  18.762  34.473  14.927
49849W        W18322  25.483  16.143  14.780
49850W        W18323  27.195   2.344  13.331
49851W        W18324  43.319   7.677  10.472
49852W        W18325  21.749  10.298  14.955
49853W        W18326  11.783  12.737  13.975
49854W        W18327   5.799  27.188  11.962
49855W        W18328  17.741   6.216   4.614
49856W        W18329  25.712  44.440  12.470
49857W        W18330   2.824  11.829   3.204
49858W        W18331   8.389   1.932  14.296
49859W        W18332  35.553  10.753  11.098
49860W        W18333  14.746   9.844   4.810
49861W        W18334  30.419   3.738  12.828
49862W        W18335  31.003   6.699  12.456
49863W        W18336  11.174  35.502   4.339
49864W        W18337  37.843  40.904  14.867
49865W        W18338  21.050   7.308  14.357
49866W        W18339  43.388  29.437   0.797
49867W        W18340  18.564  12.761   1.787
49868W        W18341   1.468   6.682   3.703
49869W        W18342  31.029   1.473  14.822
49870W        W18343  27.485   6.256   0.790
49871W        W18344  40.000  14.144   0.770
49872W        W18345  20.069  10.347   4.661
49873W        W18346  32.926  19.759  13.910
49874W        W18347   4.273  37.407   3.330
49875W        W18348  38.463   2.230  12.009
49876W        W18349   3.776   1.461  14.959
49877W        W18350  26.493  39.975  12.477
49878W        W18351  23.621  44.882   2.669
49879W        W18352   1.913   5.254   1.880
49880W        W18353  13.198  16.281   2.755
49881W        W18354  36.940  39.059   4.808
49882W        W18355  37.413  14.823   1.910
49883W        W18356  40.811  43.791  13.813
49884W        W18357  37.411   6.355  13.907
49885W        W18358   6.713  32.089   4.609
49886W        W18359   4.292  42.492  12.991
49887W        W18360  34.502  44.392   2.357
49888W        W18361  16.570   8.658  11.939
49889W        W18362  33.123   9.780   0.928
49890W        W18363  12.633   9.726  12.525
49891W        W18364  33.047  12.125  14.927
49892W        W18365  16.786  41.415   0.347
49893W        W18366   5.802  34.940  14.764
49894W        W18367  31.480  22.110  12.980
49895W        W18368  25.520   7.764  14.783
49896W        W18369  32.484  12.657  12.398
49897W        W18370  37.970   3.401  11.434
49898W        W18371   4.917  26.679  10.580
49899W        W18372   8.265  29.029  14.285
49900W        W18373  38.031  24.567  10.583
49901W        W18374  31.905  39.493  11.867
49902W        W18375  43.309  34.032   0.400
49903W        W18376  30.160  26.033  10.102
49904W        W18377  12.174  27.646  14.833
49905W        W18378  38.479  33.464  11.901
49906W        W18379  11.825  31.403   4.345
49907W        W18380  15.208   9.180   1.926
49908W        W18381  19.094  22.579   3.817
49909W        W18382  26.016  43.850  13.463
49910W        W18383  25.670  27.098  12.452
49911W        W18384  36.072   5.774  11.576
49912W        W18385  39.534  33.487  14.475
49913W        W18386  16.628   7.409  14.798
49914W        W18387  27.621   4.743   1.296
49915W        W18388  37.976  40.332   4.783
49916W        W18389  21.128  14.833   4.607
49917W        W18390  30.501  38.367   4.117
49918W        W18391  25.010   5.225  10.898
49919W        W18392  39.819   1.254   1.436
49920W        W18393  33.875  14.251   2.822
49921W        W18394  27.967  28.014   5.117
49922W        W18395  41.315  10.701   3.156
49923W        W18396  43.996   9.889  14.863
49924W        W18397   0.977   1.913  13.824
49925W        W18398  14.224  41.896   3.207
49926W        W18399  26.983  14.698   4.617
49927W        W18400   1.366   7.740  13.361
49928W        W18401   4.414  36.454   0.387
49929W        W18402   6.183  20.601   4.672
49930W        W18403  20.628  32.586   4.322
49931W        W18404  23.210   9.807  10.958
49932W        W18405  12.815  15.259   3.791
49933W        W18406  20.030  36.948  12.408
49934W        W18407   2.822  16.278  12.075
49935W        W18408  31.555  27.966   1.914
49936W        W18409  14.829  36.456   3.186
49937W        W18410  12.352  36.454   3.777
49938W        W18411   7.393  15.578  13.929
49939W        W18412  20.614  24.036   0.913
49940W        W18413  31.417  13.837  13.801
49941W        W18414   9.756  40.904  10.610
49942W        W18415  42.462  40.447   3.778
49943W        W18416  29.114   4.833  12.958
49944W        W18417  22.169  27.614   2.263
49945W        W18418  25.515   9.378   0.302
49946W        W18419  16.647  32.046  11.073
49947W        W18420  24.183  22.719   1.731
49948W        W18421  25.023  16.648  10.921
49949W        W18422  24.109  13.793   4.805
49950W        W18423  34.027  32.061  14.905
49951W        W18424   4.258   9.833   0.860
49952W        W18425  36.454  20.116  10.972
49953W        W18426  26.576  40.895   0.319
49954W        W18427  29.069  11.675  14.324
49955W        W18428  39.987  44.936   2.309
49956W        W18429   8.901  35.439  11.902
49957W        W18430  32.405  19.219  14.277
49958W        W18431   2.861   1.815  14.949
49959W        W18432  31.584  19.533   2.374
49960W        W18433  32.554   6.405   4.708
49961W        W18434  41.414  19.567  11.938
49962W        W18435  21.061  22.693   3.211
49963W        W18436  44.867  22.220  13.448
49964W        W18437  35.865  27.131   1.847
49965W        W18438  24.628  43.360   1.795
49966W        W18439   5.209   5.852  12.372
49967W        W18440  11.263  14.104  11.050
49968W        W18441  41.940  26.563   1.337
49969W        W18442  12.277  13.264  10.984
49970W        W18443   2.317  33.384   3.197
49971W        W18444   3.325  36.959  14.856
49972W        W18445  31.069   9.736   1.877
49973W        W18446   7.859  21.134   2.749
49974W        W18447  22.528  34.876   4.114
49975W        W18448  12.811   8.690   0.802
49976W        W18449  12.615   3.383  14.829
49977W        W18450  21.545   7.687   4.317
49978W        W18451  40.976   2.395   4.693
49979W        W18452  39.516  33.487   4.333
49980W        W18453   6.710  19.109   3.630
49981W        W18454  41.996   2.308  13.490
49982W        W18455  23.223  18.114   5.197
49983W        W18456  18.755  44.475   0.846
49984W        W18457  43.022  38.993   1.705
49985W        W18458  43.361  15.155  11.113
49986W        W18459  31.029  22.083   4.710
49987W        W18460  31.504   2.333  11.473
49988W        W18461  28.446   3.719   2.771
49989W        W18462  10.153  43.284  13.431
49990W        W18463   8.872  18.663   0.470
49991W        W18464  35.466  19.283   1.723
49992W        W18465  15.186  24.572  14.833
49993W        W18466  15.753  25.033   2.418
49994W        W18467  31.970  17.740  14.800
49995W        W18468  24.512  25.987  10.056
49996W        W18469   2.447  30.926   2.845
49997W        W18470  13.275  19.152  13.999
49998W        W18471  25.592  12.746   1.925
49999W        W18472  13.846  24.582  11.453
50000W        W18473  12.222   5.295   2.829
50001W        W18474  26.519   6.193  14.381
50002W        W18475   2.352   2.438   2.868
50003W        W18476  35.417  25.523  10.947
50004W        W18477  21.077  36.948   0.914
50005W        W18478  17.620  28.956   1.929
50006W        W18479  26.984  26.640   4.202
50007W        W18480  25.990  42.360   3.204
50008W        W18481  20.060  39.947   2.371
50009W        W18482  23.232  42.306  13.921
50010W        W18483  16.794  21.539  13.311
50011W        W18484  34.039   3.381   3.322
50012W        W18485  35.470  14.787  14.390
50013W        W18486  17.772   5.397  11.564
50014W        W18487  14.690  42.822   3.222
50015W        W18488  42.921  15.231  13.423
50016W        W18489   0.387  40.994   2.722
50017W        W18490  10.874  35.527   9.939
50018W        W18491  34.533   2.457  14.408
50019W        W18492  13.238  23.111   0.753
50020W        W18493  28.608  31.032  11.559
50021W        W18494  12.686  18.633   2.686
50022W        W18495  13.248  12.644   3.736
50023W        W18496  25.967  13.256   4.821
50024W        W18497  21.103   2.266  10.977
50025W        W18498   1.413  29.630  14.775
50026W        W18499   1.328  27.533  14.816
50027W        W18500   5.694  41.955   3.679
50028W        W18501  31.453  39.888   2.180
50029W        W18502  39.909  11.192  10.987
50030W        W18503  17.565  17.577  12.409
50031W        W18504  11.172  20.089  14.031
50032W        W18505  16.106   6.822  12.019
50033W        W18506  23.222  32.512  11.071
50034W        W18507   9.841  43.463  11.948
50035W        W18508  30.451  18.231   0.453
50036W        W18509  17.623  12.817   2.859
50037W        W18510  41.440  16.210  11.048
50038W        W18511  16.273  14.701  14.960
50039W        W18512  17.195  30.078  13.322
50040W        W18513  10.254  12.219   2.306
50041W        W18514  29.457  11.153   0.784
50042W        W18515  15.295  33.512   4.230
50043W        W18516  29.018  43.465  10.624
50044W        W18517  12.262   8.275   3.332
50045W        W18518   1.895  12.340   3.657
50046W        W18519  17.714  26.665  12.036
50047W        W18520  40.472   8.714  13.976
50048W        W18521  42.404   4.325   3.840
50049W        W18522  39.853  32.015  12.897
50050W        W18523  21.578   6.801  14.829
50051W        W18524  21.189   3.224   0.423
50052W        W18525   1.906  37.955   4.299
50053W        W18526   5.277  11.769   9.962
50054W        W18527  17.212  22.609   4.224
50055W        W18528  39.059  23.690   1.810
50056W        W18529  25.611  12.776   4.246
50057W        W18530  40.995  20.617  11.426
50058W        W18531   9.170  22.611  13.845
50059W        W18532  27.477   5.754  11.025
50060W        W18533   8.812  44.859   4.318
50061W        W18534  31.470  28.440  13.009
50062W        W18535  44.264   7.754  10.894
50063W        W18536  21.559   8.892   3.837
50064W        W18537  22.716  19.105   0.265
50065W        W18538  40.503   8.842  13.051
50066W        W18539   5.235  32.628  11.517
50067W        W18540  39.502  18.291   4.180
50068W        W18541  12.275  40.524   1.304
50069W        W18542  33.063  31.991   0.364
50070W        W18543  29.169  38.851  12.900
50071W        W18544  17.194   6.910  13.348
50072W        W18545  20.261  21.634   4.230
50073W        W18546  12.722  24.503  12.074
50074W        W18547  33.110  16.203   1.286
50075W        W18548  15.225  35.009   3.649
50076W        W18549  16.592  31.645   2.820
50077W        W18550  42.409   4.932   3.635
50078W        W18551   1.472   9.165   1.451
50079W        W18552   4.812   9.689  10.556
50080W        W18553  20.532  21.061   0.449
50081W        W18554  17.789  38.548  14.799
50082W        W18555   2.453  23.569   0.761
50083W        W18556  16.701  39.815   0.849
50084W        W18557  14.599  23.588   1.443
50085W        W18558   3.279  32.105  13.503
50086W        W18559  14.325   9.345   0.324
50087W        W18560   4.806   5.256  12.889
50088W        W18561  25.144  39.333  10.926
50089W        W18562  29.020   8.397  10.989
50090W        W18563  35.531  24.042   4.309
50091W        W18564  14.321  39.898  12.887
50092W        W18565  12.815  40.990   1.857
50093W        W18566  15.634   3.234   2.353
50094W        W18567  24.480  41.801   2.262
50095W        W18568  25.093  17.151   4.738
50096W        W18569  12.610  25.672  11.059
50097W        W18570  19.218   7.330  13.391
50098W        W18571  26.499  11.853   1.210
50099W        W18572  17.239  41.294   4.734
50100W        W18573  25.985  44.955   2.309
50101W        W18574  29.005  31.024  11.989
50102W        W18575  44.861  19.068   2.190
50103W        W18576  37.532  38.434   2.319
50104W        W18577  40.042  25.664   1.925
50105W        W18578  40.886  23.002  14.398
50106W        W18579  30.435  39.954   2.708
50107W        W18580  35.936  19.733   0.784
50108W        W18581  33.053  36.973  14.981
50109W        W18582  23.623   7.685   3.217
50110W        W18583  26.061  27.669   4.646
50111W        W18584  11.767  19.572   3.669
50112W        W18585  12.705  19.722   4.816
50113W        W18586   5.719  18.586  12.441
50114W        W18587  39.391  40.498  11.415
50115W        W18588  38.429   4.348   1.917
50116W        W18589  16.078  12.282  11.926
50117W        W18590   6.318  26.010  13.508
50118W        W18591  32.532   3.746   4.298
50119W        W18592  35.108  30.913   4.122
50120W        W18593  31.037  21.564  11.402
50121W        W18594   5.295  19.600  10.447
50122W        W18595  18.631  31.939   3.680
50123W        W18596   2.335  33.909   4.226
50124W        W18597   0.989  44.760  13.906
50125W        W18598  40.048  36.519  13.546
50126W        W18599  42.511  17.224   0.811
50127W        W18600  33.009   8.819   3.700
50128W        W18601  30.615   4.770  11.442
50129W        W18602   1.347  20.571  14.489
50130W        W18603   8.678  35.868  13.996
50131W        W18604  10.272   1.920   0.352
50132W        W18605   9.689  34.443  13.486
50133W        W18606  12.752  25.642   1.304
50134W        W18607  14.308  38.016  14.774
50135W        W18608  17.260  34.576  13.987
50136W        W18609  32.913  33.073  10.481
50137W        W18610   5.224  42.329  10.619
50138W        W18611  12.700   9.225  11.935
50139W        W18612  42.897  32.912  14.417
50140W        W18613  34.506  44.774  13.969
50141W        W18614  44.812  43.349   4.126
50142W        W18615  32.891   7.905   4.190
50143W        W18616   5.402  26.527   1.289
50144W        W18617  20.194  40.836   0.832
50145W        W18618   5.892   9.193  14.302
50146W        W18619   6.682  21.758  14.280
50147W        W18620  37.367  28.021   4.259
50148W        W18621  41.437  13.170  14.504
50149W        W18622  12.160   0.818   4.645
50150W        W18623  24.492  34.613   4.697
50151W        W18624  35.390  26.477  11.900
50152W        W18625  12.816  31.099  14.341
50153W        W18626   4.820  29.048  11.086
50154W        W18627  11.725   6.798  12.895
50155W        W18628  39.434  11.129   4.251
50156W        W18629   2.787  40.877  10.472
50157W        W18630  16.776   1.877  14.758
50158W        W18631  25.595   0.887   1.744
50159W        W18632  37.040  22.195  14.326
50160W        W18633  25.187   4.749   0.938
50161W        W18634  40.047  35.364  13.521
50162W        W18635  44.285  27.101   2.289
50163W        W18636  29.482  23.224  13.807
50164W        W18637  12.143  13.208   3.807
50165W        W18638  37.854  25.116  13.383
50166W        W18639  10.228  21.190   0.484
50167W        W18640  33.601  12.278   0.397
50168W        W18641  33.475   3.811  10.555
50169W        W18642   1.480  13.138   1.274
50170W        W18643  23.612  28.968  13.928
50171W        W18644   5.881   9.774   2.900
50172W        W18645  20.071  24.024   4.765
50173W        W18646  42.303   9.654   0.811
50174W        W18647  29.487   5.828   2.766
50175W        W18648  28.006  27.007   3.865
50176W        W18649   3.716  20.256   4.687
50177W        W18650  36.866  39.003  14.999
50178W        W18651  10.186  44.332  14.395
50179W        W18652  22.243  36.515  13.888
50180W        W18653  14.761  16.184  11.072
50181W        W18654  10.317   6.189   5.121
50182W        W18655   0.305  21.531  10.469
50183W        W18656  26.638  24.541   4.649
50184W        W18657  25.163  31.601  10.503
50185W        W18658  32.553  13.189  12.833
50186W        W18659  20.067  37.934   0.741
50187W        W18660   1.252  15.719   1.864
50188W        W18661   4.387  20.751   2.187
50189W        W18662  17.071  12.258  14.506
50190W        W18663  32.096  34.431   3.324
50191W        W18664  17.743   8.655  13.370
50192W        W18665  30.071  31.927  12.925
50193W        W18666  44.420   2.326  13.395
50194W        W18667  33.048  40.048   4.208
50195W        W18668  15.309  27.165  14.419
50196W        W18669   4.905   7.233   2.780
50197W        W18670  18.057  30.505  10.451
50198W        W18671  44.800  39.866   3.779
50199W        W18672  34.571  12.831  10.633
50200W        W18673  21.676   3.424   3.730
50201W        W18674  44.503  33.881  13.036
50202W        W18675  39.912   3.954   4.684
50203W        W18676  25.575  41.476  13.459
50204W        W18677  39.425  39.431  12.355
50205W        W18678   1.477  36.969   2.709
50206W        W18679   0.453  32.917   0.298
50207W        W18680  28.154  11.660   0.967
50208W        W18681  15.263   5.825  12.939
50209W        W18682  15.258  16.151   2.320
50210W        W18683  10.801  35.575  12.961
50211W        W18684  20.620  31.009   1.857
50212W        W18685  33.471   5.869  11.020
50213W        W18686  40.533  40.993   4.352
50214W        W18687  10.288   2.929  14.866
50215W        W18688  41.526  13.694   3.741
50216W        W18689  38.951  17.778   0.280
50217W        W18690   1.787  35.896   4.708
50218W        W18691  11.240  24.706  10.575
50219W        W18692  16.269  14.255   1.400
50220W        W18693  20.031   9.760   0.381
50221W        W18694   8.810   4.777   1.871
50222W        W18695  44.497   7.243  13.495
50223W        W18696   7.260  13.161  13.854
50224W        W18697   6.705  43.495  14.375
50225W        W18698   8.753  13.756   0.243
50226W        W18699  17.736  20.687   4.823
50227W        W18700  23.135   3.411   0.946
50228W        W18701  41.456  23.500  11.612
50229W        W18702  42.796  30.626  11.549
50230W        W18703  19.086  30.998  14.429
50231W        W18704   6.833  16.193  14.996
50232W        W18705  27.196  23.506   1.917
50233W        W18706  34.093  21.021   2.292
50234W        W18707   3.309   9.804   3.313
50235W        W18708  30.148  24.636   4.755
50236W        W18709  40.807  27.067  12.340
50237W        W18710  21.670  19.162  12.363
50238W        W18711  19.650  12.659   2.301
50239W        W18712  38.571  32.528  11.005
50240W        W18713  17.062   6.219   1.792
50241W        W18714  11.851  17.161   5.126
50242W        W18715  13.828  35.471   4.834
50243W        W18716  21.233  16.289   2.845
50244W        W18717  17.177  34.966  13.332
50245W        W18718  44.445  18.117  13.814
50246W        W18719  38.332  14.283   1.920
50247W        W18720  40.037  22.029   2.792
50248W        W18721  39.392  12.791  11.470
50249W        W18722  38.325  38.403  13.024
50250W        W18723  42.299  41.936  11.462
50251W        W18724  28.176  38.546   2.662
50252W        W18725  36.055  22.176  12.520
50253W        W18726  33.532  23.710  14.362
50254W        W18727   3.282  23.165   4.238
50255W        W18728  24.567  18.594   4.668
50256W        W18729  19.751   9.170   2.755
50257W        W18730   3.817  18.081   3.726
50258W        W18731  30.481  10.709   2.811
50259W        W18732  24.042  40.053   3.773
50260W        W18733  37.899  36.065  12.419
50261W        W18734   9.658  13.827   2.388
50262W        W18735   0.960   7.898   0.728
50263W        W18736   1.829  26.690   1.300
50264W        W18737  12.312  12.167   0.859
50265W        W18738  36.923  29.670  10.606
50266W        W18739  22.731  24.085  10.538
50267W        W18740   5.714  14.693  11.939
50268W        W18741  34.599  40.992   4.267
50269W        W18742   6.333   5.222  10.486
50270W        W18743  32.109  11.848   0.728
50271W        W18744   4.741  34.551   2.256
50272W        W18745  34.391  33.443   0.899
50273W        W18746  32.627   3.924  10.414
50274W        W18747  15.765  12.340  12.051
50275W        W18748  36.074  43.500   4.246
50276W        W18749   3.276  41.329  10.641
50277W        W18750  11.717  32.457   1.215
50278W        W18751  19.281  33.047  13.914
50279W        W18752   3.874   4.410  12.561
50280W        W18753   2.408  15.691   3.851
50281W        W18754  37.861  12.227   2.269
50282W        W18755   5.739  27.045   2.337
50283W        W18756  11.186   6.283  13.983
50284W        W18757  17.195  18.189  10.408
50285W        W18758  28.570  14.706   0.372
50286W        W18759  31.085  34.407  12.402
50287W        W18760  27.474   8.292  10.409
50288W        W18761  24.543  28.485   1.819
50289W        W18762  16.756  37.939  12.021
50290W        W18763  17.752   4.388   3.661
50291W        W18764  34.417  21.663  13.019
50292W        W18765  40.861   1.426  10.527
50293W        W18766  16.810  24.033   3.166
50294W        W18767  12.175  42.918  12.397
50295W        W18768  20.683  44.895  13.411
50296W        W18769  11.183  23.175  10.956
50297W        W18770  44.287  13.129   0.775
50298W        W18771  34.397  23.121  12.481
50299W        W18772  18.786   7.295   3.723
50300W        W18773  19.100  16.269   3.226
50301W        W18774  36.356  24.987  14.431
50302W        W18775   7.326  36.427   3.194
50303W        W18776  36.453  10.203  14.485
50304W        W18777  40.005  39.479   2.196
50305W        W18778  40.011  30.925  10.486
50306W        W18779  34.438  17.178  12.091
50307W        W18780  31.038  31.476   4.139
50308W        W18781  34.873  14.268  11.458
50309W        W18782  19.275  16.738  10.911
50310W        W18783  20.253   2.732   0.394
50311W        W18784   7.399  16.611   0.847
50312W        W18785   6.199  32.057  11.496
50313W        W18786  41.315  18.582   4.802
50314W        W18787   4.405   9.824   2.212
50315W        W18788   9.394   3.402   0.929
50316W        W18789  18.789  24.986  11.973
50317W        W18790  29.458  42.410  13.930
50318W        W18791  36.002   5.834   2.819
50319W        W18792  24.043  16.681   1.294
50320W        W18793  31.450  38.824   3.202
50321W        W18794  12.255   1.930   2.206
50322W        W18795  33.953  11.239  11.037
50323W        W18796  10.699  35.027  12.525
50324W        W18797  42.310  36.474   2.272
50325W        W18798  21.263  44.332  12.562
50326W        W18799   0.936  18.610  13.012
50327W        W18800  16.689  17.117   1.902
50328W        W18801  14.646  31.149  12.985
50329W        W18802  42.962   3.721  14.374
50330W        W18803  21.639  35.494  11.516
50331W        W18804  43.898  11.213  11.108
50332W        W18805  10.217  14.768  14.912
50333W        W18806   3.737   0.400  10.957
50334W        W18807   3.811  39.931   0.911
50335W        W18808  43.403   9.171   4.813
50336W        W18809  36.539  33.403  11.112
50337W        W18810   6.828   3.360   3.812
50338W        W18811   8.221   4.251   1.245
50339W        W18812  12.234  37.384  14.294
50340W        W18813  11.165  23.573   3.294
50341W        W18814  23.581  32.017  11.439
50342W        W18815  12.798  17.714   2.208
50343W        W18816  38.445  22.719  12.900
50344W        W18817  36.397  44.478  14.445
50345W        W18818  33.985  37.835   2.718
50346W        W18819  41.498  37.033  13.534
50347W        W18820  18.258  34.983  14.803
50348W        W18821  17.612  36.419   0.439
50349W        W18822  33.101  27.178   2.808
50350W        W18823  28.497  15.233  10.926
50351W        W18824   8.761  28.638   4.145
50352W        W18825  32.496   5.249  11.016
50353W        W18826   8.746  24.000   5.223
50354W        W18827  30.581  34.892   5.240
50355W        W18828  13.303  18.704   0.780
50356W        W18829  31.571  38.852   0.463
50357W        W18830  31.139  41.477   4.137
50358W        W18831  32.121   7.726  12.086
50359W        W18832  40.971  35.555  12.488
50360W        W18833  21.749  10.874  13.505
50361W        W18834  33.066   1.474  13.928
50362W        W18835  28.518  30.489  13.544
50363W        W18836  39.373  39.855  13.892
50364W        W18837  36.537  30.461   5.315
50365W        W18838  10.314  25.635   0.781
50366W        W18839   2.341  27.003   1.315
50367W        W18840  32.968  32.559  11.412
50368W        W18841   4.434   0.457  10.919
50369W        W18842  33.002   5.718  12.060
50370W        W18843  15.139  28.534   2.389
50371W        W18844   9.337  43.819  13.898
50372W        W18845  21.541  40.458   4.827
50373W        W18846   8.877  29.937  13.338
50374W        W18847  40.804  37.082  10.889
50375W        W18848  33.537  43.918  11.948
50376W        W18849  27.002  42.479  11.893
50377W        W18850  37.553  24.151  10.508
50378W        W18851   4.800  13.719   0.768
50379W        W18852  16.287  24.670   4.267
50380W        W18853   0.894  44.821  13.528
50381W        W18854  23.537  23.061   3.230
50382W        W18855  32.414  38.351   2.788
50383W        W18856   9.162  26.158  11.486
50384W        W18857  12.734  12.738  13.507
50385W        W18858  10.330  35.436  12.427
50386W        W18859  25.664  21.604   3.832
50387W        W18860  28.930   9.221   4.258
50388W        W18861  14.680  19.069  11.877
50389W        W18862   0.845  35.903   4.265
50390W        W18863   5.810  40.820  14.954
50391W        W18864  37.042   3.935  14.030
50392W        W18865  16.281  26.464   1.434
50393W        W18866  12.225  17.704   3.214
50394W        W18867  19.699  30.585   0.821
50395W        W18868   0.468   0.979  13.319
50396W        W18869  41.021  12.768  10.548
50397W        W18870   8.195   4.929  12.976
50398W        W18871  34.032  28.537   3.806
50399W        W18872  11.685  12.749   1.708
50400W        W18873  37.905  31.513   2.860
50401W        W18874  36.560  20.760  14.772
50402W        W18875  37.963  35.888   1.806
50403W        W18876  24.687  28.574  11.071
50404W        W18877  20.112  22.035   3.798
50405W        W18878   8.321  19.617   0.877
50406W        W18879  30.527   1.960   4.746
50407W        W18880  13.288  33.412   4.248
50408W        W18881   4.359   9.746   4.132
50409W        W18882   6.805  15.222   1.309
50410W        W18883  41.898  17.263  13.874
50411W        W18884  21.148  21.741   4.802
50412W        W18885  20.728   1.278  11.937
50413W        W18886  14.705  28.458  14.987
50414W        W18887  25.532  32.589   1.346
50415W        W18888  34.382  17.195   3.635
50416W        W18889  37.935  28.949   1.697
50417W        W18890  38.064  17.220  14.875
50418W        W18891  11.641  20.268   0.359
50419W        W18892  14.690  31.117   2.349
50420W        W18893  17.183  23.522  13.988
50421W        W18894   6.773  42.834  13.877
50422W        W18895  32.967  31.577  11.872
50423W        W18896   2.352  21.081  10.485
50424W        W18897  12.822  36.352   3.688
50425W        W18898  39.826   9.843  10.924
50426W        W18899  42.378   9.666  13.418
50427W        W18900  19.686  13.340   3.777
50428W        W18901  33.535  24.557   3.149
50429W        W18902  31.590  21.212  14.781
50430W        W18903  16.280  15.727   1.708
50431W        W18904  10.789  27.552  14.493
50432W        W18905   1.816  32.579  13.417
50433W        W18906  36.428   9.354  12.549
50434W        W18907   6.882  10.316  13.498
50435W        W18908  26.052   5.811  12.039
50436W        W18909  16.607   4.360   3.834
50437W        W18910  12.645  17.190  12.025
50438W        W18911  36.493  23.018   4.613
50439W        W18912   9.299  12.736  14.510
50440W        W18913  23.735  10.872  10.412
50441W        W18914  36.387  15.249   0.344
50442W        W18915  33.027  13.760   1.922
50443W        W18916  22.040  42.493   1.349
50444W        W18917  29.124   4.212   3.185
50445W        W18918   0.315   0.917   4.176
50446W        W18919  28.101  14.813   2.834
50447W        W18920  44.881  33.498   4.354
50448W        W18921  21.222   9.826  14.003
50449W        W18922  18.063  19.060  11.876
50450W        W18923   5.208   4.385   5.252
50451W        W18924  40.468  33.431  13.830
50452W        W18925  42.001  39.501   3.715
50453W        W18926  10.138   9.678   3.706
50454W        W18927  40.807  28.001   2.200
50455W        W18928  35.443  21.641   1.765
50456W        W18929  39.339   2.324   0.791
50457W        W18930  25.160  16.108   4.254
50458W        W18931  30.122  33.396   2.318
50459W        W18932   9.680  13.193  14.482
50460W        W18933   5.245   2.773   3.688
50461W        W18934  39.883   9.708   2.738
50462W        W18935  30.962  17.282   3.385
50463W        W18936  19.213  18.549  10.922
50464W        W18937   0.356  42.480   2.271
50465W        W18938  17.586  34.420  11.880
50466W        W18939  38.352  44.996  14.980
50467W        W18940   8.655  31.532   0.386
50468W        W18941  22.570  21.681   2.721
50469W        W18942  14.594  16.761   4.700
50470W        W18943  30.478   0.861   5.143
50471W        W18944  38.828  13.261   3.278
50472W        W18945   1.796  34.917  14.340
50473W        W18946   8.728   2.257  10.951
50474W        W18947   1.835  37.561   4.170
50475W        W18948  25.040  32.010  14.985
50476W        W18949  30.122   4.238   1.315
50477W        W18950  30.582   2.305  11.521
50478W        W18951  20.681  23.074   1.885
50479W        W18952  19.752   5.218   2.774
50480W        W18953  19.727  42.845   3.757
50481W        W18954   4.416  28.678   3.729
50482W        W18955  23.560  12.779   2.250
50483W        W18956  11.263  20.057   1.438
50484W        W18957   3.312  12.178  12.558
50485W        W18958  36.365   4.404   3.228
50486W        W18959  28.609  38.989   4.323
50487W        W18960   1.783   0.491   4.255
50488W        W18961  25.985  33.893  13.410
50489W        W18962  10.774   7.218  13.985
50490W        W18963  41.454  43.368   3.376
50491W        W18964  36.416  23.581  12.563
50492W        W18965  42.476  44.789   2.325
50493W        W18966  21.200  19.085   1.821
50494W        W18967  26.700   1.782  13.826
50495W        W18968   2.444  25.674  11.476
50496W        W18969   0.833  11.775  12.946
50497W        W18970  13.607   9.682   3.823
50498W        W18971  21.552  11.247  14.463
50499W        W18972  10.642  25.119  11.897
50500W        W18973  42.818  26.084  14.820
50501W        W18974  38.007  12.317  12.343
50502W        W18975  13.172  20.695  11.536
50503W        W18976   4.429  31.418   3.675
50504W        W18977   1.295  43.499   4.187
50505W        W18978  11.325   9.843  14.939
50506W        W18979  38.378   2.917   1.894
50507W        W18980   7.221   3.394  13.844
50508W        W18981   3.867   9.822  12.491
50509W        W18982  12.334  18.659   3.154
50510W        W18983  29.622  15.674   9.931
50511W        W18984  19.586  21.623  11.128
50512W        W18985   4.430  17.214   1.745
50513W        W18986  10.234   4.829   3.711
50514W        W18987  36.501   5.720  13.978
50515W        W18988  31.024  41.535   3.277
50516W        W18989   3.951  31.958   2.852
50517W        W18990  27.100  13.687   4.235
50518W        W18991   4.894   0.348   4.312
50519W        W18992  24.224  19.745   1.807
50520W        W18993  35.507  31.146   3.387
50521W        W18994  42.844  15.780  11.999
50522W        W18995   8.174  10.178   4.789
50523W        W18996  24.643  22.057  13.500
50524W        W18997  38.870  15.600  11.536
50525W        W18998  17.172   1.840  13.846
50526W        W18999  42.891  11.711  11.082
50527W        W19000   4.929  36.878   0.380
50528W        W19001  15.155  18.158  11.475
50529W        W19002  44.976  42.326   0.402
50530W        W19003  22.583  29.007  11.042
50531W        W19004  41.994  42.782   1.745
50532W        W19005   4.337  32.997   3.328
50533W        W19006  44.997  29.503  12.884
50534W        W19007  44.487  22.087   4.718
50535W        W19008  28.570  19.594  12.526
50536W        W19009   7.198   4.307  13.034
50537W        W19010  20.651  36.921  14.026
50538W        W19011  24.046  26.155   0.455
50539W        W19012  43.428  37.473   5.104
50540W        W19013  29.474  17.229   3.822
50541W        W19014  22.742  12.691  10.125
50542W        W19015  31.491   1.422  14.305
50543W        W19016  11.180  42.823  12.087
50544W        W19017   0.392   3.231   0.302
50545W        W19018   6.225  43.465  13.528
50546W        W19019  39.512   9.844  14.379
50547W        W19020  34.372  15.597   3.680
50548W        W19021   7.749  20.641  11.898
50549W        W19022  33.512  24.161   3.719
50550W        W19023   6.213  10.710   1.807
50551W        W19024   7.345  22.539  14.479
50552W        W19025  41.321  26.037   2.280
50553W        W19026   8.889  21.512  10.486
50554W        W19027  15.665  35.096   1.362
50555W        W19028  23.132  27.622  14.309
50556W        W19029   5.881  42.387  13.472
50557W        W19030  21.244  15.651   4.781
50558W        W19031  34.424  33.459  11.609
50559W        W19032  10.718  20.112   0.466
50560W        W19033  44.310   8.332  12.823
50561W        W19034  18.748  28.118   1.916
50562W        W19035  26.125  14.694  12.005
50563W        W19036  37.859  36.467  13.049
50564W        W19037  23.705  20.729   0.951
50565W        W19038  28.484   5.902  11.503
50566W        W19039   7.249   6.256  14.829
50567W        W19040  19.067   3.812   1.741
50568W        W19041  34.946  18.134  13.886
50569W        W19042  38.821  19.621  13.803
50570W        W19043  26.686  34.979   4.682
50571W        W19044  27.000  28.640  13.965
50572W        W19045  27.504  34.404   0.264
50573W        W19046  34.490  44.276  13.376
50574W        W19047   1.388  20.047   1.277
50575W        W19048  41.438  39.319   2.354
50576W        W19049  32.135  24.093  13.314
50577W        W19050  37.020  18.079  13.846
50578W        W19051  30.076   3.751  12.405
50579W        W19052  12.804  20.629   1.253
50580W        W19053  17.689  13.682  14.831
50581W        W19054  17.303  40.975  12.859
50582W        W19055  41.022  26.984   1.814
50583W        W19056   3.292  33.044  14.882
50584W        W19057  42.026  27.549   0.367
50585W        W19058  20.131  14.323  14.892
50586W        W19059   7.190  22.712  13.978
50587W        W19060  42.301  24.141  14.328
50588W        W19061  38.398  15.599  14.422
50589W        W19062   2.924  19.544   4.247
50590W        W19063  36.900   7.217   0.344
50591W        W19064  31.124   5.902  13.054
50592W        W19065  41.411  11.727   0.248
50593W        W19066  33.525  33.496   9.928
50594W        W19067  36.928  38.450   1.809
50595W        W19068  32.484  21.530  10.907
50596W        W19069  33.908   0.402   2.374
50597W        W19070  11.850  23.567   0.445
50598W        W19071  22.619  20.166   3.346
50599W        W19072  38.534  23.115   2.836
50600W        W19073  34.030  12.853   3.696
50601W        W19074  27.569   8.835   4.177
50602W        W19075   3.934  19.167   0.472
50603W        W19076  24.518  25.012   1.802
50604W        W19077  30.139  34.452   1.909
50605W        W19078  23.064   6.255  11.535
50606W        W19079  36.586  19.594   0.435
50607W        W19080   3.446  40.446  12.542
50608W        W19081  17.567  34.120  13.938
50609W        W19082  39.033  27.449  12.855
50610W        W19083  44.765   4.329   2.216
50611W        W19084  15.758  21.575   4.701
50612W        W19085   1.765  26.037   1.403
50613W        W19086  17.587   9.242   3.240
50614W        W19087  11.176  27.183  14.359
50615W        W19088  19.658  40.026  12.344
50616W        W19089   1.440  22.567  13.904
50617W        W19090   6.702  23.567   0.371
50618W        W19091  38.937  20.122   0.967
50619W        W19092  11.626  13.340   1.790
50620W        W19093  17.674  32.499  11.432
50621W        W19094  24.008  20.274   2.391
50622W        W19095  31.459  31.554   0.876
50623W        W19096  29.015  31.131   3.830
50624W        W19097  35.569  10.376  12.079
50625W        W19098  40.863  25.517   2.840
50626W        W19099   4.780  36.562  13.424
50627W        W19100  27.073  14.648  14.763
50628W        W19101  16.256  35.104  11.919
50629W        W19102  22.147  12.354   5.694
50630W        W19103  34.919   9.232  12.842
50631W        W19104  21.623  29.920   2.750
50632W        W19105  41.910  33.999   3.805
50633W        W19106  31.627   7.772  12.352
50634W        W19107  13.128  20.237   0.269
50635W        W19108  24.168   1.781   5.293
50636W        W19109   2.361  32.960   4.671
50637W        W19110  17.565  24.202   4.170
50638W        W19111  43.466   4.754  12.017
50639W        W19112  21.252  42.909   2.416
50640W        W19113  34.560   1.876  13.949
50641W        W19114  34.477  11.647   1.265
50642W        W19115  24.230  41.328   4.305
50643W        W19116   3.925   8.374  13.021
50644W        W19117  13.142  11.174   2.412
50645W        W19118  24.087  34.543  12.956
50646W        W19119  30.072  26.081   4.675
50647W        W19120  17.716   0.820   1.269
50648W        W19121  36.396  37.471  13.981
50649W        W19122  34.555  18.657  13.885
50650W        W19123  15.806  28.169   3.772
50651W        W19124  40.804  10.854   3.250
50652W        W19125  16.298  42.518   0.249
50653W        W19126  25.201  43.898  12.064
50654W        W19127  35.527  33.585  10.498
50655W        W19128  13.128   8.722  14.883
50656W        W19129  22.059  38.845  10.574
50657W        W19130  37.020  35.022  13.966
50658W        W19131  44.991  30.522   0.343
50659W        W19132  33.384  31.074   3.781
50660W        W19133  39.938  18.575   1.851
50661W        W19134  16.772  19.224  14.468
50662W        W19135  27.492  23.676   4.608
50663W        W19136   3.460  23.173   0.726
50664W        W19137  43.010  29.154  13.489
50665W        W19138  17.270  26.197  12.957
50666W        W19139   2.946  32.512   3.803
50667W        W19140  26.059  39.823  11.383
50668W        W19141   7.408  36.923  13.950
50669W        W19142   6.299  18.621   4.812
50670W        W19143  21.247  44.820  14.809
50671W        W19144  23.991  13.792   2.291
50672W        W19145  25.663  37.944  11.032
50673W        W19146   0.943  15.765  11.521
50674W        W19147  39.396   5.920   2.229
50675W        W19148  26.470  39.892  14.276
50676W        W19149  21.602  11.367  12.035
50677W        W19150  15.584  14.796  12.416
50678W        W19151  13.737   2.783  13.923
50679W        W19152  26.009  21.706   3.355
50680W        W19153   7.683  44.406   0.736
50681W        W19154  30.448  27.070  12.537
50682W        W19155  36.538   3.908  14.382
50683W        W19156   0.470   3.900  14.840
50684W        W19157  14.789  19.759  10.597
50685W        W19158  33.061   8.709   0.844
50686W        W19159  10.321   3.403  14.997
50687W        W19160  34.965  24.712  13.038
50688W        W19161  38.844  20.222  13.422
50689W        W19162  15.109  25.542  13.457
50690W        W19163  32.447   8.234  11.954
50691W        W19164  24.172   7.323  10.920
50692W        W19165  10.297  21.107   2.267
50693W        W19166  24.135   4.772   1.370
50694W        W19167  41.458   4.395  14.842
50695W        W19168   7.736  37.358  11.548
50696W        W19169   6.913  10.684  13.963
50697W        W19170  41.789  25.175   3.777
50698W        W19171   6.722  17.557  14.313
50699W        W19172  13.168  21.167   5.304
50700W        W19173  13.184   9.681   3.740
50701W        W19174  30.125  33.047   1.900
50702W        W19175  17.145  14.224  11.060
50703W        W19176  22.049  44.300  12.342
50704W        W19177  41.485  12.251  10.918
50705W        W19178  41.021  41.914  10.539
50706W        W19179   4.852  36.520  14.958
50707W        W19180   3.765  34.944   0.246
50708W        W19181   4.824   6.810   4.132
50709W        W19182  18.118  37.382   5.189
50710W        W19183  20.590  23.235  10.517
50711W        W19184  40.509  21.256   4.668
50712W        W19185  42.840   9.786  10.904
50713W        W19186  12.799  16.667  10.525
50714W        W19187  23.996  32.078  13.901
50715W        W19188  23.733  36.942   3.285
50716W        W19189  37.068  39.319   3.723
50717W        W19190  36.531  13.232  10.499
50718W        W19191   9.712  41.795  10.930
50719W        W19192  32.969  43.788  12.034
50720W        W19193  15.774  26.644  13.324
50721W        W19194  12.147  44.421  14.899
50722W        W19195  12.760  23.492   0.809
50723W        W19196  28.518  17.644  13.383
50724W        W19197  19.193  41.414  14.005
50725W        W19198  27.946  41.831  14.441
50726W        W19199   9.289   1.746  11.902
50727W        W19200  11.159  30.579  13.952
50728W        W19201  14.122  13.815   4.281
50729W        W19202  44.959  21.022   0.932
50730W        W19203  35.382   6.725   3.383
50731W        W19204   6.213  21.585  14.419
50732W        W19205   5.723  12.705  12.464
50733W        W19206  14.281  18.109   2.822
50734W        W19207  40.488  23.561  11.093
50735W        W19208   0.828  38.522  11.054
50736W        W19209  35.938  28.498  13.467
50737W        W19210  19.737  18.177  10.457
50738W        W19211  13.705   3.946   4.226
50739W        W19212  15.276   0.282   4.260
50740W        W19213  35.931  24.689  10.440
50741W        W19214  16.710  36.848   4.174
50742W        W19215  15.107  43.503   2.260
50743W        W19216  21.632  42.860  11.449
50744W        W19217  44.353  29.169   3.335
50745W        W19218  21.663  40.493  14.004
50746W        W19219  29.441   0.909  10.097
50747W        W19220  19.063  31.645  11.530
50748W        W19221  38.840   1.451   2.732
50749W        W19222  26.535  30.497   0.783
50750W        W19223  20.565   6.389  10.487
50751W        W19224  29.085  42.878  14.020
50752W        W19225  44.481  14.202  10.470
50753W        W19226  11.738  28.486   2.816
50754W        W19227  39.845   1.376   4.598
50755W        W19228  31.922  24.592  14.871
50756W        W19229  23.050  42.882   1.331
50757W        W19230  33.100  13.609   0.278
50758W        W19231  26.581  25.163   5.260
50759W        W19232  26.023  37.470  14.809
50760W        W19233  34.886  39.004   4.761
50761W        W19234   0.399  12.180   2.316
50762W        W19235  32.620   0.415  13.834
50763W        W19236  39.912  41.036  12.413
50764W        W19237  32.947  34.494   3.380
50765W        W19238  15.169  23.046  13.310
50766W        W19239  18.716   8.354   1.775
50767W        W19240   8.869  36.368   2.860
50768W        W19241   6.298  27.946   0.893
50769W        W19242  28.593  25.013   4.672
50770W        W19243   5.874  18.649   4.251
50771W        W19244  19.716   4.727   4.791
50772W        W19245  39.409  34.007  13.922
50773W        W19246  15.623  42.376  10.489
50774W        W19247   3.888  26.505  14.021
50775W        W19248  20.750   9.275  14.006
50776W        W19249  28.644  35.955  14.798
50777W        W19250   8.676  28.513  13.427
50778W        W19251  42.477  43.340  13.350
50779W        W19252  37.578  10.349   4.191
50780W        W19253  36.025  11.730  10.437
50781W        W19254  30.037   0.804  13.365
50782W        W19255  43.764  38.823  13.338
50783W        W19256  31.552  43.510  11.907
50784W        W19257  31.950  35.507   2.834
50785W        W19258  30.625  38.911  13.876
50786W        W19259  10.875  38.861   2.233
50787W        W19260  16.739   3.345   3.789
50788W        W19261  28.158  43.436  11.076
50789W        W19262  38.569  37.830  13.987
50790W        W19263  33.945   0.366  12.435
50791W        W19264   4.240  18.086  13.856
50792W        W19265  38.485  42.912  12.356
50793W        W19266   9.323  37.534  10.583
50794W        W19267  19.537  11.364  14.006
50795W        W19268   5.296  26.523   3.379
50796W        W19269  11.726   1.851  10.615
50797W        W19270   9.715  33.488   1.316
50798W        W19271  17.674  31.968  11.458
50799W        W19272  21.147  15.703  13.802
50800W        W19273  15.798  44.934   3.256
50801W        W19274  42.466  37.526   4.747
50802W        W19275   7.189   1.290   3.822
50803W        W19276  29.665  44.320   4.615
50804W        W19277  31.071  25.586   9.576
50805W        W19278  43.271  42.840  11.607
50806W        W19279   1.761  32.517  11.558
50807W        W19280  20.714  31.007   3.227
50808W        W19281  33.009   2.845   4.705
50809W        W19282   8.881  35.874  13.528
50810W        W19283  42.914  36.915  12.961
50811W        W19284  43.484   3.335   5.168
50812W        W19285  24.695  35.978   3.645
50813W        W19286  15.747   3.286   4.153
50814W        W19287  18.218  34.997  14.367
50815W        W19288  44.868  29.554   4.690
50816W        W19289  18.556  31.896  10.441
50817W        W19290  37.022  17.174   3.718
50818W        W19291  19.610  40.427  12.474
50819W        W19292  18.236  44.982   4.680
50820W        W19293  28.496  11.254  10.569
50821W        W19294  22.720  23.519   3.199
50822W        W19295  17.625  20.765  14.786
50823W        W19296  20.564  25.532   4.176
50824W        W19297  10.697   7.371  12.056
50825W        W19298  16.253  42.818   0.802
50826W        W19299  27.629   2.335  11.528
50827W        W19300  42.912  31.115  10.597
50828W        W19301   7.260   6.895  10.005
50829W        W19302  37.837  24.510  13.889
50830W        W19303  13.707  28.588   2.318
50831W        W19304  25.132   3.954   4.341
50832W        W19305   3.324  15.778   2.185
50833W        W19306  37.932   2.370  13.997
50834W        W19307  14.207   0.323   1.787
50835W        W19308  27.504  26.996  12.014
50836W        W19309  38.877  26.554   1.733
50837W        W19310   2.795  42.028  11.942
50838W        W19311  44.830  27.945  12.884
50839W        W19312  16.191   9.707  10.605
50840W        W19313  23.549  42.836  14.977
50841W        W19314  35.852   5.331   2.179
50842W        W19315  43.789  31.932  11.938
50843W        W19316   1.298   6.872  11.117
50844W        W19317  21.187  41.948  11.610
50845W        W19318  24.995  32.441   3.278
50846W        W19319   1.847  32.056   0.814
50847W        W19320   0.491  34.553   0.809
50848W        W19321  15.226  38.533   0.748
50849W        W19322  33.506  25.662  10.565
50850W        W19323  37.391  42.779  11.950
50851W        W19324  19.052  12.284   2.865
50852W        W19325  43.848  42.292  11.009
50853W        W19326   6.819   6.869  11.595
50854W        W19327  31.149   6.374   5.108
50855W        W19328  34.890  41.992   5.179
50856W        W19329  40.984  30.559  11.419
50857W        W19330  29.619   7.702   1.837
50858W        W19331  25.704   8.807   1.252
50859W        W19332  36.861  43.839  11.999
50860W        W19333  29.964  15.643  10.888
50861W        W19334  22.111  15.823  12.524
50862W        W19335  39.895   7.385  10.963
50863W        W19336  40.452   7.263   4.619
50864W        W19337   6.737  39.382  13.311
50865W        W19338  43.916  33.978   3.221
50866W        W19339  16.267  11.738  12.347
50867W        W19340  36.426   3.896   2.707
50868W        W19341  18.601   9.322   3.670
50869W        W19342   2.855   1.298   0.376
50870W        W19343  43.979  28.604   0.385
50871W        W19344  35.013   9.154   3.767
50872W        W19345   3.926  37.517   4.275
50873W        W19346  40.881  26.586   0.793
50874W        W19347  10.779   8.804   3.332
50875W        W19348  27.510  42.336   3.776
50876W        W19349  38.862   1.358   2.397
50877W        W19350  23.518   9.340   1.224
50878W        W19351  41.410  33.436   3.385
50879W        W19352  28.481  30.499  11.606
50880W        W19353  10.801  27.655   1.274
50881W        W19354  38.430   0.426   3.300
50882W        W19355  23.001  39.341  13.854
50883W        W19356  43.392  40.357  12.854
50884W        W19357  12.220  23.150  13.327
50885W        W19358  35.452  42.453  13.896
50886W        W19359  23.033   9.877   3.652
50887W        W19360  42.777  37.494   1.423
50888W        W19361   3.840  17.237   9.979
50889W        W19362  21.582  14.302   2.780
50890W        W19363  31.902  20.208   2.242
50891W        W19364  38.370  13.290   2.886
50892W        W19365  43.466  34.592   0.348
50893W        W19366  40.045  10.342  13.357
50894W        W19367  20.230   7.387   5.167
50895W        W19368  41.514  37.840  11.400
50896W        W19369  37.566  10.768   4.283
50897W        W19370   2.380  27.002   2.672
50898W        W19371  16.171  17.591  14.810
50899W        W19372  38.538  38.998  11.952
50900W        W19373  21.260  27.495  10.990
50901W        W19374   0.914  12.735  10.903
50902W        W19375  36.413  41.918  11.611
50903W        W19376   4.315  33.557  13.336
50904W        W19377   5.813  12.184  11.565
50905W        W19378   6.319   7.786  11.947
50906W        W19379  13.691  15.200  13.982
50907W        W19380  16.707   9.773  14.320
50908W        W19381  38.357  43.434   0.270
50909W        W19382   1.765  44.892  14.881
50910W        W19383  23.065  20.141   2.255
50911W        W19384  29.128  10.742   3.322
50912W        W19385   8.269  31.007  11.084
50913W        W19386   3.728  13.187   3.219
50914W        W19387  32.886   0.482   4.783
50915W        W19388  39.848   8.810   1.694
50916W        W19389   2.771  35.028  14.389
50917W        W19390  29.990   7.897  11.484
50918W        W19391  24.541  40.341   3.674
50919W        W19392  15.212   1.798   4.792
50920W        W19393  41.812  14.120   0.381
50921W        W19394   0.416  34.611   4.598
50922W        W19395  12.801   9.868  13.825
50923W        W19396  12.193  40.531  11.964
50924W        W19397   5.827  19.113   4.333
50925W        W19398  13.220  23.545  12.454
50926W        W19399  12.628  20.713  12.022
50927W        W19400  30.129  34.532   4.169
50928W        W19401  31.560  40.432   4.239
50929W        W19402  33.001   1.772  12.530
50930W        W19403   6.313  21.707   3.312
50931W        W19404  17.754  37.064  14.413
50932W        W19405  13.833   9.323  11.382
50933W        W19406  25.196   3.713   0.270
50934W        W19407  22.659  38.885   1.920
50935W        W19408   2.966  36.531   4.741
50936W        W19409  29.648  14.626   1.877
50937W        W19410  14.315   0.449   0.334
50938W        W19411  37.059   5.742  12.870
50939W        W19412  10.851  24.571   3.260
50940W        W19413  16.143   8.402  14.388
50941W        W19414  38.057  35.958   0.784
50942W        W19415  27.452   3.259  11.113
50943W        W19416  20.752  14.175  13.546
50944W        W19417  44.761  12.779  11.969
50945W        W19418   2.296   8.172   0.942
50946W        W19419   5.401  33.013   1.347
50947W        W19420  26.992  10.191   4.822
50948W        W19421  19.592  21.227  11.516
50949W        W19422   9.309  26.465   9.929
50950W        W19423  15.810   7.767  10.507
50951W        W19424  28.964  26.131  11.034
50952W        W19425   2.390  41.474  12.965
50953W        W19426  29.587   7.770   0.766
50954W        W19427  34.588   1.269  11.971
50955W        W19428   4.410   1.841  14.387
50956W        W19429  18.778  42.887  14.000
50957W        W19430  35.366  18.070  14.353
50958W        W19431  30.996   5.385   4.806
50959W        W19432   8.720  43.920   2.856
50960W        W19433  37.335  34.015   0.772
50961W        W19434  39.341  37.837   2.840
50962W        W19435  19.576  17.647   3.814
50963W        W19436  32.032  21.229  12.866
50964W        W19437   9.808  30.569   1.745
50965W        W19438  42.405  15.142   0.961
50966W        W19439  37.456   8.810   3.736
50967W        W19440  29.548  39.329  13.443
50968W        W19441  15.799  22.134  10.892
50969W        W19442  44.299  31.575  11.566
50970W        W19443   8.403  31.598  11.498
50971W        W19444   5.851   9.648  14.020
50972W        W19445   5.736  21.078  14.289
50973W        W19446  27.950  32.447  14.408
50974W        W19447  23.564   2.412  12.880
50975W        W19448  11.864   2.761  12.086
50976W        W19449  41.951  13.105   1.747
50977W        W19450   9.304   5.717  10.968
50978W        W19451   6.418  41.529   1.913
50979W        W19452  31.531  12.768  11.418
50980W        W19453  42.323   1.483   4.765
50981W        W19454  37.401  31.013  10.590
50982W        W19455   9.723   3.722  12.520
50983W        W19456  36.016  18.782  14.028
50984W        W19457   6.272  38.324  10.544
50985W        W19458  13.322   4.333   3.871
50986W        W19459  15.614  29.486  11.858
50987W        W19460  32.007   8.353   1.287
50988W        W19461  30.534  39.440  13.882
50989W        W19462  35.001  11.246  14.408
50990W        W19463   8.293  43.799  13.851
50991W        W19464  19.671  19.217  12.007
50992W        W19465  19.096  18.651   1.443
50993W        W19466  23.062  16.662  14.791
50994W        W19467   8.832  15.099  12.363
50995W        W19468  38.990  21.721   2.279
50996W        W19469  39.868  15.265  13.922
50997W        W19470  39.361  35.368   4.642
50998W        W19471  14.177  33.084   1.418
50999W        W19472   4.822  19.730  10.447
51000W        W19473   0.314  24.068  10.938
51001W        W19474  33.462  22.717   2.308
51002W        W19475  30.566  27.523   2.310
51003W        W19476  18.180   1.975   3.164
51004W        W19477  36.879  28.550  13.391
51005W        W19478  19.666   6.750  12.072
51006W        W19479  36.442  18.271  11.427
51007W        W19480  44.396   1.941   2.248
51008W        W19481   6.853  24.519   3.207
51009W        W19482  34.537   5.433   4.679
51010W        W19483  44.948  11.203  13.545
51011W        W19484  19.130  36.431  14.955
51012W        W19485  36.366  35.917   2.372
51013W        W19486  18.565  20.696  13.317
51014W        W19487   3.728  42.866  11.912
51015W        W19488   8.324   1.268   1.375
51016W        W19489  23.198  25.564   1.777
51017W        W19490  14.686   2.347  11.874
51018W        W19491  20.203   0.304  10.577
51019W        W19492   9.182  43.481  14.789
51020W        W19493  39.029  22.160  13.363
51021W        W19494  31.002  14.291   0.305
51022W        W19495  30.064  32.419   1.818
51023W        W19496  15.113   6.781   4.141
51024W        W19497  17.665  37.023   0.436
51025W        W19498  12.138  20.711  11.050
51026W        W19499  33.575  26.475   3.824
51027W        W19500  39.377  25.983   1.802
51028W        W19501  32.942  44.989  13.837
51029W        W19502  43.426   7.892  13.864
51030W        W19503  37.453   0.913  12.856
51031W        W19504  25.689  35.944  10.098
51032W        W19505   5.907  10.145  13.467
51033W        W19506  42.011  29.134   3.685
51034W        W19507  43.480  26.018  13.981
51035W        W19508  35.103  29.597  12.417
51036W        W19509  23.141  16.182   3.231
51037W        W19510  12.303  37.557   4.785
51038W        W19511  23.123  29.082   3.864
51039W        W19512  43.907  25.678   0.454
51040W        W19513   3.456   3.314  13.340
51041W        W19514  33.601  13.193  11.061
51042W        W19515  31.120  19.569   5.164
51043W        W19516  13.713  17.148  10.501
51044W        W19517  21.145  12.760  11.559
51045W        W19518  36.013  38.950  12.369
51046W        W19519   5.909   9.185  11.050
51047W        W19520  42.861  11.664  13.897
51048W        W19521  27.504  31.107  11.097
51049W        W19522  13.336  39.832   1.235
51050W        W19523  25.660  13.683   1.763
51051W        W19524   4.854  13.763   0.288
51052W        W19525  13.802  26.958  13.342
51053W        W19526   4.217  19.220  11.385
51054W        W19527  26.624   1.258  11.605
51055W        W19528  13.724  20.208  12.897
51056W        W19529  25.565  32.637   2.698
51057W        W19530   7.714   4.273   5.707
51058W        W19531  31.544   0.375  12.050
51059W        W19532  20.757  26.023   2.217
51060W        W19533  28.441  11.832  11.445
51061W        W19534   4.294   3.294  13.388
51062W        W19535   5.329  34.937   4.116
51063W        W19536  35.388  23.209   2.882
51064W        W19537  37.405  29.092  12.052
51065W        W19538   6.783  16.194   0.771
51066W        W19539  15.675  42.942   3.685
51067W        W19540  44.930  29.525  14.483
51068W        W19541  11.271   0.334  11.941
51069W        W19542  34.912  25.210   2.785
51070W        W19543  23.521   5.721  11.900
51071W        W19544  32.037  34.997  11.528
51072W        W19545  37.939   4.746   1.364
51073W        W19546   7.339  44.395  14.916
51074W        W19547  41.466  37.343   2.696
51075W        W19548   0.357  27.032   3.671
51076W        W19549  22.066  41.380   3.798
51077W        W19550  42.501  33.579  13.053
51078W        W19551  33.957  33.998  13.489
51079W        W19552  18.738   4.909  11.424
51080W        W19553  17.755  42.287   3.663
51081W        W19554  35.091   8.774   2.809
51082W        W19555  44.919   6.313   3.650
51083W        W19556   3.427  38.435  12.956
51084W        W19557  20.576  31.555  11.402
51085W        W19558  23.672  23.120   4.249
51086W        W19559  32.413   9.678   4.708
51087W        W19560  12.240  38.932   4.208
51088W        W19561  10.261   4.324   2.705
51089W        W19562  28.095   2.273  12.939
51090W        W19563  34.569  18.285   3.329
51091W        W19564  15.653   3.913   0.845
51092W        W19565  33.920   4.714  14.958
51093W        W19566  36.950  43.882   4.219
51094W        W19567  15.228   4.832   4.216
51095W        W19568   8.873  39.847  10.628
51096W        W19569  12.740  13.344  13.381
51097W        W19570  27.034  24.588  14.761
51098W        W19571   4.343   3.446   3.341
51099W        W19572   8.338  16.602   3.776
51100W        W19573  33.540  33.010  13.307
51101W        W19574  33.615   3.312   0.776
51102W        W19575   8.219  39.989  14.310
51103W        W19576  17.677  13.153   1.786
51104W        W19577  34.459   0.461   4.122
51105W        W19578  28.585   3.359   0.828
51106W        W19579  32.913  15.615   3.853
51107W        W19580  13.246  38.482   4.645
51108W        W19581  10.353  33.111  10.989
51109W        W19582  41.334  41.887   0.876
51110W        W19583   2.745  15.722   1.831
51111W        W19584   8.809  23.714   2.216
51112W        W19585  22.644  18.286  10.107
51113W        W19586  28.115  15.290  14.915
51114W        W19587   7.852   0.926  12.937
51115W        W19588  22.526  12.337   9.474
51116W        W19589  34.375  28.650  14.959
51117W        W19590  43.903   3.253  10.907
51118W        W19591   3.432  38.873   2.829
51119W        W19592  43.954  30.941  14.881
51120W        W19593  35.501  38.003  10.913
51121W        W19594   7.275  24.051   0.464
51122W        W19595  40.448  18.786   4.727
51123W        W19596   3.917  10.633   4.159
51124W        W19597  37.929  21.619  14.934
51125W        W19598   0.824  10.854  12.040
51126W        W19599  11.228   0.355   1.697
51127W        W19600  34.551  15.284  13.396
51128W        W19601   4.899  32.084   2.204
51129W        W19602  30.627  14.626  10.600
51130W        W19603  10.189  14.316  11.495
51131W        W19604  27.157   6.805   4.727
51132W        W19605  11.711  16.571   4.204
51133W        W19606   9.688  28.011   3.271
51134W        W19607  14.603  44.273  13.806
51135W        W19608  35.098  35.930   2.724
51136W        W19609  10.719  44.873   1.884
51137W        W19610   3.293  35.477  12.079
51138W        W19611  19.644  27.039   0.308
51139W        W19612  37.404  35.854   0.320
51140W        W19613   7.408   7.407   4.702
51141W        W19614  22.121  35.425   2.901
51142W        W19615  18.779  21.088  12.941
51143W        W19616   6.747   9.741   0.954
51144W        W19617  43.850  14.705   0.442
51145W        W19618  38.567  29.021  12.949
51146W        W19619  33.406   3.409   2.855
51147W        W19620  19.766  16.096   1.875
51148W        W19621  40.859  10.364   1.298
51149W        W19622  21.064  35.434   0.868
51150W        W19623  24.117  40.934  10.537
51151W        W19624  40.324  28.950  10.895
51152W        W19625  20.211   7.676  12.500
51153W        W19626  36.972  29.976  10.531
51154W        W19627  11.633  25.052  11.534
51155W        W19628  25.153  26.199  11.129
51156W        W19629  34.869  20.162   3.638
51157W        W19630  27.085  17.203  13.531
51158W        W19631  41.381  33.464   0.941
51159W        W19632  13.296  23.732  12.911
51160W        W19633  23.580  33.584   4.317
51161W        W19634  35.520  13.767  10.941
51162W        W19635   7.217  38.517  13.370
51163W        W19636  10.162  41.997   0.746
51164W        W19637   6.678  26.583   0.851
51165W        W19638  23.153  25.073  12.875
51166W        W19639  29.109  16.131  13.043
51167W        W19640  28.498  41.389   0.367
51168W        W19641  17.764  44.824   2.828
51169W        W19642  37.399  19.266   4.720
51170W        W19643   9.726  25.670   0.855
51171W        W19644  28.472  34.922  12.492
51172W        W19645   9.877  28.499   4.826
51173W        W19646  35.536  16.290  13.518
51174W        W19647  31.919  44.975   3.786
51175W        W19648  37.832   4.895  13.988
51176W        W19649   9.197  28.681  11.930
51177W        W19650  35.004  40.821  12.429
51178W        W19651   0.294  44.447   1.791
51179W        W19652  23.523  28.039  12.441
51180W        W19653   1.265  25.517  11.921
51181W        W19654  26.021  20.564   4.787
51182W        W19655   2.848   8.884   4.793
51183W        W19656  26.104  27.136   3.240
51184W        W19657   0.749  18.603   1.303
51185W        W19658  39.019  11.242   2.830
51186W        W19659  40.920  23.145  10.437
51187W        W19660  19.167  44.858   4.267
51188W        W19661   3.736  10.672   4.773
51189W        W19662  30.060  18.681   3.345
51190W        W19663  23.603   1.237   4.165
51191W        W19664  40.479  18.583   1.915
51192W        W19665  26.102  11.223   2.743
51193W        W19666  43.866  44.374  10.981
51194W        W19667  33.077  31.474   1.339
51195W        W19668  35.862  33.049   4.200
51196W        W19669   9.240  28.994   3.752
51197W        W19670  24.624  14.198  14.344
51198W        W19671  34.552  30.008  14.442
51199W        W19672  10.833  33.517  11.594
51200W        W19673  44.810  21.582   3.840
51201W        W19674  13.160  21.178   0.247
51202W        W19675   6.409  41.953   2.358
51203W        W19676  44.332  18.637   2.209
51204W        W19677  39.350  13.277   2.218
51205W        W19678  28.512  35.406   0.374
51206W        W19679   4.309   4.892   3.317
51207W        W19680  24.162  12.330   5.285
51208W        W19681  38.486  39.900  14.446
51209W        W19682  10.196  30.095   1.925
51210W        W19683  42.910  14.659   2.322
51211W        W19684  23.717  34.020  11.380
51212W        W19685  34.499   1.927  11.884
51213W        W19686  31.121  21.152  13.009
51214W        W19687  25.696  17.218   4.322
51215W        W19688  22.589  26.489   3.654
51216W        W19689  33.995  18.179   3.865
51217W        W19690   9.743  26.472  13.548
51218W        W19691  15.284  33.119   0.845
51219W        W19692  32.594  42.452   4.116
51220W        W19693   2.371  14.126  13.353
51221W        W19694  19.778   2.944  13.869
51222W        W19695  19.712  22.651  13.959
51223W        W19696  30.449  41.918   1.778
51224W        W19697   4.845  24.170   4.815
51225W        W19698  13.138  35.413   0.832
51226W        W19699  29.569   3.828   2.292
51227W        W19700  41.871  24.563  12.955
51228W        W19701  31.996  38.497   0.879
51229W        W19702  27.489  21.201  12.048
51230W        W19703  15.234  17.276   1.811
51231W        W19704  13.230  29.942   0.338
51232W        W19705   3.345   8.785  14.953
51233W        W19706   5.771  22.032   1.805
51234W        W19707  17.284  21.085   5.173
51235W        W19708  36.412  26.032   0.787
51236W        W19709  21.064  34.982  10.459
51237W        W19710  16.678   2.306   3.235
51238W        W19711  12.231  23.597  13.486
51239W        W19712  36.028  27.064   0.415
51240W        W19713  31.518  10.857  12.406
51241W        W19714  38.992  25.988   0.276
51242W        W19715  32.125  12.137   3.204
51243W        W19716  34.567  42.839   4.797
51244W        W19717   0.862  25.651   4.341
51245W        W19718   3.298  41.373  11.035
51246W        W19719  15.298  23.571   3.816
51247W        W19720   6.244   3.773   3.838
51248W        W19721   6.422  26.046   3.329
51249W        W19722  40.007  44.793  12.354
51250W        W19723  38.417  29.591   0.428
51251W        W19724  38.359  26.496  13.935
51252W        W19725   2.727   4.325  12.565
51253W        W19726  44.859  29.074   0.414
51254W        W19727  23.028   8.885  14.936
51255W        W19728  41.434  26.480   4.689
51256W        W19729  23.718  27.681   2.772
51257W        W19730  43.813  15.652   2.877
51258W        W19731  19.566  22.243   3.317
51259W        W19732  25.000  34.386   1.354
51260W        W19733  40.817   0.973   2.229
51261W        W19734  11.756  13.325   0.922
51262W        W19735  11.176  10.146  11.895
51263W        W19736   0.798  28.148  12.444
51264W        W19737  39.047  35.967   2.859
51265W        W19738  19.241  32.031   3.737
51266W        W19739  21.057  42.519   0.447
51267W        W19740  32.016   8.803   3.677
51268W        W19741  18.175  30.434  14.856
51269W        W19742  38.991   9.742  11.067
51270W        W19743  30.916  41.878   1.710
51271W        W19744  21.552  14.114  11.035
51272W        W19745  28.982  25.156   4.614
51273W        W19746   2.437  27.136  14.802
51274W        W19747  24.666  24.053  10.418
51275W        W19748  42.453  37.410  12.394
51276W        W19749  18.790   5.278  12.478
51277W        W19750  33.114  36.536   1.324
51278W        W19751   4.721  39.461  11.516
51279W        W19752  21.153  15.099   1.773
51280W        W19753  28.531  38.986  10.936
51281W        W19754  17.149  10.879  10.404
51282W        W19755   7.805  40.394   0.358
51283W        W19756  14.835  19.262   1.266
51284W        W19757   3.378  42.993   0.430
51285W        W19758  43.373  14.628  11.918
51286W        W19759  17.286   5.362  11.084
51287W        W19760  23.027  32.893  13.006
51288W        W19761  32.489  34.598  10.962
51289W        W19762   4.891   1.886   1.357
51290W        W19763  43.987  30.097   1.326
51291W        W19764  15.602   4.837  12.469
51292W        W19765   7.882  42.805  13.978
51293W        W19766  31.000  12.612   2.840
51294W        W19767  23.667  16.630  11.914
51295W        W19768  21.623  24.031  10.466
51296W        W19769  44.419   0.936   3.291
51297W        W19770   7.910  33.472   4.315
51298W        W19771  37.534  36.516  12.398
51299W        W19772   9.358  21.671   3.250
51300W        W19773  18.554   3.377   5.168
51301W        W19774   6.831  18.575   3.384
51302W        W19775  17.144  20.230   1.427
51303W        W19776   4.334  31.114   0.961
51304W        W19777  42.388   0.774  13.329
51305W        W19778   7.718  34.872   4.624
51306W        W19779   3.437  37.068  12.863
51307W        W19780   5.382  31.110   1.860
51308W        W19781   1.483  42.506   1.306
51309W        W19782  28.510   2.860  10.534
51310W        W19783  25.551  31.597  11.498
51311W        W19784  34.418  42.296  13.971
51312W        W19785  26.139  21.019  13.867
51313W        W19786   7.875  17.691   2.247
51314W        W19787  20.259  12.284  11.585
51315W        W19788   4.731   1.911  10.058
51316W        W19789   1.356   1.968  11.961
51317W        W19790  24.521   3.905   2.380
51318W        W19791  15.632  10.177  13.347
51319W        W19792  21.537  12.264   5.183
51320W        W19793  40.364  37.548   0.832
51321W        W19794  33.420  12.771   1.439
51322W        W19795  27.188  43.369  14.317
51323W        W19796  18.709  30.500  14.390
51324W        W19797  29.470  40.967  12.859
51325W        W19798  26.075  22.006  11.892
51326W        W19799  30.143  26.516   1.711
51327W        W19800   5.705  21.235   2.333
51328W        W19801  15.221  33.482  12.000
51329W        W19802  10.718  23.563  12.856
51330W        W19803  23.576  24.138   2.748
51331W        W19804  15.323   6.388   1.744
51332W        W19805   6.363  36.980   2.313
51333W        W19806   3.719   3.457  11.538
51334W        W19807  36.586  21.570   4.671
51335W        W19808   6.807  12.322  10.962
51336W        W19809  23.600  22.104   0.967
51337W        W19810  34.867  28.094   0.861
51338W        W19811  44.335  10.147   2.242
51339W        W19812   0.894  43.371  10.452
51340W        W19813  22.681  44.836  12.373
51341W        W19814  33.469  37.466  14.836
51342W        W19815   1.308  36.460   3.198
51343W        W19816  17.746  28.002  14.861
51344W        W19817  27.064  42.421   3.759
51345W        W19818  18.773  40.883   4.699
51346W        W19819  17.622   0.485   0.902
51347W        W19820  26.040  11.240   4.188
51348W        W19821   4.225  26.664   4.601
51349W        W19822  21.601  12.257   3.690
51350W        W19823  34.542   7.373   3.317
51351W        W19824   5.423  18.557   2.279
51352W        W19825  32.896  33.103   4.284
51353W        W19826  22.555  12.617  13.917
51354W        W19827  19.142   6.219  12.053
51355W        W19828  10.209   8.856  10.642
51356W        W19829  23.566   4.824  14.924
51357W        W19830  12.178  16.639  14.956
51358W        W19831  10.858  32.938   3.833
51359W        W19832  20.607  22.247  13.869
51360W        W19833  15.698  17.264  13.956
51361W        W19834  22.616  11.723   4.189
51362W        W19835  33.523  28.592  14.286
51363W        W19836  34.497  25.596  13.949
51364W        W19837  13.260  40.455   9.980
51365W        W19838   0.481  17.213  13.064
51366W        W19839  39.366  35.972   2.678
51367W        W19840   4.406  25.534  12.096
51368W        W19841  12.814  15.764  11.104
51369W        W19842  11.153  36.507  13.333
51370W        W19843  13.767  11.196  10.902
51371W        W19844   5.231  10.187  10.455
51372W        W19845  41.293  28.940   0.393
51373W        W19846  44.964   7.721   0.873
51374W        W19847   5.433   0.930  14.904
51375W        W19848  13.217  30.436   0.907
51376W        W19849  35.066   6.279   2.787
51377W        W19850  41.493  28.960  11.414
51378W        W19851  34.464  24.094   1.753
51379W        W19852  35.052  23.140   3.276
51380W        W19853  28.464  14.783  13.534
51381W        W19854  12.185  40.981   0.962
51382W        W19855   2.825   3.366  10.632
51383W        W19856   0.878  29.639  10.452
51384W        W19857   2.457  26.108  11.414
51385W        W19858  24.016  44.821  14.815
51386W        W19859  40.504  22.556  11.607
51387W        W19860  30.634   6.838  11.104
51388W        W19861  22.008  26.488   9.943
51389W        W19862  35.547  21.200   2.297
51390W        W19863  11.855   8.385   3.229
51391W        W19864  19.093   1.870   1.758
51392W        W19865  20.673  16.158   0.945
51393W        W19866  22.542   6.697   4.754
51394W        W19867  34.586   3.226   2.839
51395W        W19868   8.329   6.890   2.378
51396W        W19869  39.550  32.993   2.217
51397W        W19870  32.619  11.843   1.254
51398W        W19871   8.762  33.923  10.457
51399W        W19872   0.765  42.840   5.121
51400W        W19873   7.877   5.847  10.645
51401W        W19874  25.490  22.711   2.397
51402W        W19875  26.695   5.859  14.007
51403W        W19876  23.539  22.525  13.054
51404W        W19877  25.570  29.508  10.960
51405W        W19878   0.890  16.157   0.832
51406W        W19879   9.299  25.148  12.865
51407W        W19880  15.616   5.246   2.812
51408W        W19881  26.489  17.191   2.853
51409W        W19882   8.224  34.378   1.840
51410W        W19883  13.219  25.180  10.918
51411W        W19884  28.438  38.038  12.467
51412W        W19885  35.879  41.792  14.367
51413W        W19886  22.024   5.410  14.853
51414W        W19887   6.807  40.514   2.415
51415W        W19888  18.731  30.917   0.767
51416W        W19889  30.567  12.777   3.172
51417W        W19890  12.728   2.394  10.501
51418W        W19891  12.130  20.664   0.853
51419W        W19892  18.558  11.668  12.557
51420W        W19893  41.020  24.645   4.789
51421W        W19894   4.439  39.878  14.502
51422W        W19895  33.882  17.757  13.547
51423W        W19896  41.812  23.492   4.271
51424W        W19897   8.274  42.937  13.799
51425W        W19898   3.896  26.603  12.011
51426W        W19899   0.336   7.409  13.941
51427W        W19900  30.526  11.314   2.663
51428W        W19901   1.419  13.838  12.966
51429W        W19902   9.337  16.191   1.213
51430W        W19903   8.219  38.327  13.010
51431W        W19904  43.514  30.089   1.854
51432W        W19905  31.536   1.858   0.387
51433W        W19906   1.735  15.297  13.975
51434W        W19907  27.083  34.065   4.675
51435W        W19908  13.190   9.738  13.856
51436W        W19909  44.424  13.617  10.462
51437W        W19910  18.672   3.777   3.757
51438W        W19911  22.047  25.083   2.662
51439W        W19912  44.950   8.676  12.895
51440W        W19913  29.937  39.516   0.789
51441W        W19914   0.751  26.495  12.478
51442W        W19915  16.219  44.495  14.962
51443W        W19916  29.438  14.616   1.237
51444W        W19917  41.902  31.464  13.482
51445W        W19918  18.281  23.538   3.815
51446W        W19919  13.314  36.087   2.662
51447W        W19920   2.337  20.252  13.950
51448W        W19921  35.048  31.636   4.313
51449W        W19922  40.903  32.401   3.354
51450W        W19923  11.197  42.817  11.469
51451W        W19924   2.773   7.665  11.427
51452W        W19925   6.211  38.984   2.305
51453W        W19926   7.893   1.326  10.625
51454W        W19927  27.057   0.904  11.428
51455W        W19928  33.550  22.612   0.948
51456W        W19929  18.159  32.538   2.829
51457W        W19930  29.047  12.137  13.424
51458W        W19931   7.241  41.934  12.080
51459W        W19932  33.109  17.100  13.918
51460W        W19933  16.172  33.604  13.989
51461W        W19934  21.622  13.216  12.432
51462W        W19935  10.710   6.356  13.449
51463W        W19936  36.580  39.496  10.472
51464W        W19937  10.696  43.834  13.851
51465W        W19938  37.479   9.719   1.414
51466W        W19939  31.136  22.667  12.020
51467W        W19940  22.512  32.090   0.810
51468W        W19941  37.541  23.111  13.508
51469W        W19942   9.888  20.243  11.035
51470W        W19943   9.690  20.668  12.488
51471W        W19944  12.848  14.603  10.967
51472W        W19945  17.061  41.350  11.929
51473W        W19946  13.676  32.494   0.887
51474W        W19947   7.213  23.685   0.406
51475W        W19948  15.171   1.281  13.054
51476W        W19949  37.923  14.759  12.832
51477W        W19950  39.355  11.129   0.284
51478W        W19951  23.065  39.343  12.017
51479W        W19952  27.015   7.172   0.851
51480W        W19953  40.901  25.096  14.913
51481W        W19954   7.877  29.941  13.339
51482W        W19955  34.906  14.645   3.851
51483W        W19956  38.010  15.208   3.869
51484W        W19957  25.697   9.698  13.835
51485W        W19958  19.718  35.414   0.889
51486W        W19959  35.991   3.834   4.342
51487W        W19960  21.563   2.785   2.811
51488W        W19961  39.486  36.892   4.735
51489W        W19962  27.969  40.486  10.040
51490W        W19963  15.814  22.709   4.167
51491W        W19964  32.898  18.055  14.881
51492W        W19965  10.751  29.124   1.901
51493W        W19966   9.869  36.943   5.135
51494W        W19967  27.103   7.399   0.447
51495W        W19968   4.338  19.598   4.193
51496W        W19969   9.764  36.011   0.770
51497W        W19970   1.464  25.486  12.396
51498W        W19971   4.879  24.059   0.393
51499W        W19972   7.354   1.385   0.273
51500W        W19973   8.687  43.921   3.300
51501W        W19974  29.458  18.269   3.264
51502W        W19975   1.439  34.003   4.278
51503W        W19976  30.530   2.808   1.260
51504W        W19977  28.157  39.993  14.858
51505W        W19978  27.665  16.311   1.233
51506W        W19979  14.722  36.960  10.956
51507W        W19980  30.940  10.159  10.988
51508W        W19981  36.027  28.163  10.959
51509W        W19982  21.117  14.254   0.744
51510W        W19983  11.739  26.496   3.372
51511W        W19984  40.399   9.889  12.848
51512W        W19985  18.761  27.534   1.445
51513W        W19986  16.741   5.384  10.617
51514W        W19987   6.281  42.524  13.827
51515W        W19988  44.284  27.981  13.409
51516W        W19989  35.944  29.504  11.395
51517W        W19990   4.927  10.356  13.034
51518W        W19991   8.182  35.862   4.618
51519W        W19992  13.270   7.688   1.416
51520W        W19993  15.626  40.853   5.699
51521W        W19994   8.164  35.993   1.242
51522W        W19995  24.677  36.552   2.883
51523W        W19996   3.247  15.743   3.172
51524W        W19997   9.681  32.558   2.787
51525W        W19998  17.179  23.111  11.864
51526W        W19999  18.723   4.334  12.984
51527W        W20000  22.173   0.481   4.175
51528W        W20001  10.334   7.296   9.933
51529W        W20002   1.472  32.553   2.188
51530W        W20003  26.183  12.784   1.774
51531W        W20004  10.707  13.188   0.803
51532W        W20005  10.197  35.084   1.448
51533W        W20006  34.574  28.067   2.397
51534W        W20007   8.656  20.602   2.676
51535W        W20008   5.373   5.200   3.343
51536W        W20009   6.825  16.264  10.062
51537W        W20010  43.282  15.123   2.185
51538W        W20011  29.954  24.137   9.581
51539W        W20012  42.501   5.428  14.494
51540W        W20013   5.415  16.165   4.626
51541W        W20014  10.799  16.644  11.945
51542W        W20015  30.130  31.139   0.915
51543W        W20016   5.732  19.633  11.857
51544W        W20017   7.316  27.152  11.462
51545W        W20018  43.862  29.985  10.969
51546W        W20019  14.109  36.029  13.045
51547W        W20020  38.419   5.363   3.258
51548W        W20021  44.838   5.325  12.505
51549W        W20022  32.402   2.264   2.714
51550W        W20023  20.215  24.499  13.010
51551W        W20024  34.035   3.940  10.451
51552W        W20025   0.277  35.095  10.494
51553W        W20026  22.095  31.427  12.557
51554W        W20027  44.783  13.219   3.252
51555W        W20028  44.421  34.032   3.721
51556W        W20029  19.693  10.649   1.416
51557W        W20030   4.818  29.640  12.559
51558W        W20031  11.251  26.113  14.513
51559W        W20032  19.051  39.313   3.757
51560W        W20033   1.791  21.520  11.885
51561W        W20034  42.452   2.444  11.859
51562W        W20035  13.720  17.090   4.781
51563W        W20036  43.814  32.076   2.189
51564W        W20037  32.953   9.269   2.314
51565W        W20038  35.479  10.850   3.269
51566W        W20039  26.551  32.563   3.713
51567W        W20040  10.341  35.397   0.334
51568W        W20041   3.928  14.780  11.877
51569W        W20042  10.329  23.507   1.281
51570W        W20043  14.110  25.201  10.414
51571W        W20044   2.952  28.450  14.471
51572W        W20045  14.653  38.028   0.739
51573W        W20046  17.799  42.436  10.981
51574W        W20047   7.262   1.968   4.135
51575W        W20048  33.504   0.799  10.465
51576W        W20049   1.742   1.292  13.330
51577W        W20050   9.341  25.107  14.412
51578W        W20051  25.487  29.095  13.328
51579W        W20052  41.847  26.671   4.696
51580W        W20053   1.741  12.781   3.378
51581W        W20054  24.503  34.913  12.370
51582W        W20055  40.393   4.389  10.483
51583W        W20056  36.538  35.989   1.340
51584W        W20057   5.698  39.325   3.228
51585W        W20058  18.150  27.180  10.426
51586W        W20059  23.203  17.653  11.122
51587W        W20060  33.901   2.248  11.424
51588W        W20061  44.325  29.424   4.823
51589W        W20062  34.403  19.754  13.845
51590W        W20063  12.692   9.833   1.905
51591W        W20064  42.809   6.425  14.348
51592W        W20065  22.646  33.608  13.869
51593W        W20066  32.460  30.617  13.055
51594W        W20067   2.761  20.111   2.695
51595W        W20068  18.582  21.085   2.413
51596W        W20069  25.170   3.366  12.898
51597W        W20070  24.553   2.951   3.340
51598W        W20071  36.883  20.163   2.192
51599W        W20072  16.747  44.873   4.631
51600W        W20073   3.937  36.037  13.325
51601W        W20074  37.033   0.336   4.742
51602W        W20075  14.790  10.814  12.023
51603W        W20076  30.557  32.890   3.247
51604W        W20077  25.597  20.576  13.364
51605W        W20078   9.683  15.112   1.731
51606W        W20079   7.794  13.252  13.010
51607W        W20080  20.259  14.631  11.001
51608W        W20081  23.206  29.044   0.851
51609W        W20082  22.250   8.386  13.313
51610W        W20083   9.857  17.772   4.675
51611W        W20084  40.467  10.215   4.293
51612W        W20085   3.874  35.395   2.220
51613W        W20086   0.253  25.096  10.952
51614W        W20087  19.571   4.224   0.420
51615W        W20088  36.014  13.659   1.433
51616W        W20089  37.980  41.294  14.994
51617W        W20090  31.611  32.014   3.812
51618W        W20091  16.633   7.717   1.307
51619W        W20092  22.695  30.529   1.260
51620W        W20093  17.278  11.302  12.530
51621W        W20094  29.517  40.538   1.797
51622W        W20095   9.738  33.550  10.411
51623W        W20096  43.275  37.867  11.564
51624W        W20097  10.863  40.996  11.422
51625W        W20098  28.101   6.678  10.477
51626W        W20099  30.636  23.686  13.801
51627W        W20100  30.510  34.087   3.172
51628W        W20101  35.885  16.184  12.431
51629W        W20102  32.950  14.754   3.230
51630W        W20103   5.207  40.503   4.618
51631W        W20104  21.694  15.740   2.360
51632W        W20105   0.292   0.811   1.834
51633W        W20106   0.448   4.858  13.493
51634W        W20107   5.847  18.136   3.247
51635W        W20108  21.536  30.117  12.066
51636W        W20109  28.157  39.871  13.373
51637W        W20110  39.408   8.337  13.399
51638W        W20111  18.207  33.088  10.580
51639W        W20112  33.512   7.289   3.169
51640W        W20113  23.155  19.252   3.328
51641W        W20114  24.154  11.706   2.389
51642W        W20115   3.374  25.969   0.814
51643W        W20116  22.742  11.798  12.896
51644W        W20117  15.676  13.644   1.386
51645W        W20118  20.764   4.246  12.829
51646W        W20119   3.301  10.334   0.865
51647W        W20120  37.454  44.488  13.524
51648W        W20121  39.028  18.279  12.061
51649W        W20122  37.574  10.835  13.861
51650W        W20123  16.674  12.725  12.074
51651W        W20124   1.283  34.965  14.844
51652W        W20125  31.634   3.766  11.455
51653W        W20126  26.668  36.447  13.019
51654W        W20127  10.351  43.993   1.223
51655W        W20128  20.607  26.202   4.321
51656W        W20129  24.030  27.655   2.392
51657W        W20130   5.401  36.561   4.607
51658W        W20131  33.613  37.557  11.521
51659W        W20132  43.907  30.551   0.855
51660W        W20133  37.955  36.843   3.640
51661W        W20134  25.508   7.172   2.783
51662W        W20135  44.482  18.674  14.418
51663W        W20136  41.929  16.274   4.718
51664W        W20137  25.623  22.167  12.005
51665W        W20138   4.761  25.111   2.901
51666W        W20139  25.677  21.191   0.912
51667W        W20140  31.430  14.592  13.388
51668W        W20141  14.748   3.429   0.791
51669W        W20142  33.078  16.087   2.767
51670W        W20143  42.926  35.550  13.534
51671W        W20144   2.943  21.565  14.893
51672W        W20145  32.614  37.524   2.843
51673W        W20146  17.766  27.992   4.645
51674W        W20147  37.357  10.795   3.808
51675W        W20148   5.922  35.911   0.800
51676W        W20149  21.138  23.196  13.929
51677W        W20150  29.112  18.646   2.306
51678W        W20151  12.262  38.998  11.420
51679W        W20152  21.214  30.135  14.284
51680W        W20153   7.293   8.401  13.886
51681W        W20154  34.393  18.157  14.014
51682W        W20155  36.536  33.039   2.257
51683W        W20156   8.875  27.471   2.881
51684W        W20157  10.733   1.237  12.416
51685W        W20158  30.445  28.516  13.856
51686W        W20159  29.991  22.666  12.422
51687W        W20160  12.689  29.170  14.452
51688W        W20161   7.378  40.985  11.547
51689W        W20162   6.756  12.148   4.352
51690W        W20163  25.621   3.448   4.780
51691W        W20164  20.165   9.251  12.349
51692W        W20165  24.655   2.238   3.310
51693W        W20166   2.234  25.047   2.362
51694W        W20167   8.314   2.470  12.478
51695W        W20168   2.729  39.969  11.994
51696W        W20169  10.184  44.316  10.926
51697W        W20170   4.821  43.328  12.882
51698W        W20171  22.687  38.390   1.348
51699W        W20172  43.307  28.669  12.403
51700W        W20173  12.237  29.505  13.335
51701W        W20174  19.284  12.733   1.216
51702W        W20175  39.379  17.097   2.297
51703W        W20176  38.338  44.287   4.823
51704W        W20177  33.120  23.114   3.272
51705W        W20178   8.836  31.507  12.838
51706W        W20179  43.997  15.103  12.542
51707W        W20180  18.746  40.483  10.548
51708W        W20181  35.854  40.931   0.910
51709W        W20182  42.963  42.317   0.955
51710W        W20183  38.916  29.526   4.752
51711W        W20184  23.139  19.173  14.459
51712W        W20185  19.732  19.220   4.257
51713W        W20186  16.073  12.762  12.925
51714W        W20187  37.879   8.239  11.552
51715W        W20188   1.860  10.278   5.289
51716W        W20189  33.923  36.947  11.536
51717W        W20190   7.812  42.304   3.213
51718W        W20191  14.248  43.874  14.427
51719W        W20192   7.758   9.655  10.892
51720W        W20193  13.742  43.805  14.805
51721W        W20194  32.556  27.498  12.482
51722W        W20195   1.408  13.638  13.517
51723W        W20196  25.197   7.695   3.192
51724W        W20197   3.727   5.897  13.443
51725W        W20198  26.142  38.496   4.345
51726W        W20199  33.987  42.302  14.873
51727W        W20200  13.764  12.249  10.960
51728W        W20201  37.883   1.925   0.932
51729W        W20202  20.711  30.614   0.848
51730W        W20203  25.703  44.959   3.714
51731W        W20204   4.429   2.275   4.185
51732W        W20205  19.281  31.465   3.304
51733W        W20206  20.660  38.824   2.852
51734W        W20207  28.539  15.722  14.883
51735W        W20208  37.379  40.937  12.905
51736W        W20209  42.015  23.680  11.932
51737W        W20210  14.822   9.159   2.781
51738W        W20211  24.020  35.893   3.328
51739W        W20212   4.433  14.253   4.278
51740W        W20213  27.682  40.032   2.686
51741W        W20214   0.916  12.697   4.316
51742W        W20215  22.562  37.372   2.217
51743W        W20216  24.128  22.675   4.300
51744W        W20217  17.574  34.003   0.275
51745W        W20218  32.136  11.661   3.806
51746W        W20219  15.805  19.266   1.714
51747W        W20220   5.319   5.920  11.390
51748W        W20221  23.188   8.400  12.826
51749W        W20222  28.140  36.450  11.575
51750W        W20223  18.099   9.204   4.707
51751W        W20224  34.879  18.626  14.826
51752W        W20225   7.414   6.262  11.986
51753W        W20226  35.094  16.123   4.266
51754W        W20227   1.911  17.720   1.400
51755W        W20228  17.703   4.858  13.441
51756W        W20229  13.781  21.050  13.334
51757W        W20230  10.384   8.810  11.375
51758W        W20231  15.267   8.365  12.976
51759W        W20232  11.630   4.758  14.888
51760W        W20233  32.636  36.048   2.771
51761W        W20234  32.617  28.584  12.343
51762W        W20235  32.014  12.775  10.571
51763W        W20236  19.046   9.231   4.795
51764W        W20237  17.690  35.972   3.726
51765W        W20238   1.401   2.453   2.415
51766W        W20239  20.241   2.944  14.402
51767W        W20240  43.954  20.621  12.840
51768W        W20241  10.680  19.087  11.948
51769W        W20242  33.080  25.612   2.776
51770W        W20243  41.830  22.654  10.024
51771W        W20244  28.035   8.826  10.513
51772W        W20245  26.158  38.458   2.178
51773W        W20246  25.161  11.365   0.884
51774W        W20247   1.775  11.356   1.359
51775W        W20248  24.984  33.477   4.674
51776W        W20249   1.384  32.600   0.441
51777W        W20250  31.957  10.797   3.749
51778W        W20251  37.021  10.227   4.625
51779W        W20252  26.616   9.158   3.630
51780W        W20253  28.005  28.942  13.420
51781W        W20254   1.819  13.107  10.640
51782W        W20255  10.633  35.001   3.802
51783W        W20256  12.850  14.102  12.542
51784W        W20257  27.454  27.528  11.434
51785W        W20258   4.380  11.762  12.986
51786W        W20259  20.080  13.669  14.889
51787W        W20260   2.282  14.623   4.726
51788W        W20261  41.354  32.438   3.292
51789W        W20262   4.259  25.207   1.416
51790W        W20263  18.547   2.339   4.777
51791W        W20264  32.567   8.858  10.425
51792W        W20265   8.226  32.424  12.525
51793W        W20266  26.197  22.671   4.251
51794W        W20267  24.099  12.159   2.340
51795W        W20268  34.962   1.264   4.702
51796W        W20269   8.816  12.252   3.666
51797W        W20270  38.357   1.445   2.890
51798W        W20271  30.012  30.017  12.526
51799W        W20272  11.293  28.933  11.902
51800W        W20273  24.714  26.529   4.653
51801W        W20274  41.505   5.776  10.958
51802W        W20275  19.688   6.375   3.212
51803W        W20276  37.883  37.483  10.948
51804W        W20277  42.352  41.925   4.648
51805W        W20278  44.846  27.003  14.996
51806W        W20279  28.098   3.938   1.856
51807W        W20280   5.910  11.321  11.088
51808W        W20281  42.863  44.409   4.788
51809W        W20282  29.940  36.535   4.278
51810W        W20283   4.870  19.710   0.954
51811W        W20284  30.108  41.534   0.797
51812W        W20285  21.109  18.641   3.178
51813W        W20286   2.335  25.060  11.022
51814W        W20287  13.683  39.391   4.328
51815W        W20288  13.294  30.916   4.319
51816W        W20289  35.494   0.317  13.931
51817W        W20290  26.102  18.292   1.795
51818W        W20291  10.779   8.768   0.727
51819W        W20292  26.021  26.481   4.338
51820W        W20293  17.277  28.517   0.449
51821W        W20294  11.625  37.373  13.499
51822W        W20295  23.030  12.637  13.793
51823W        W20296  33.935  23.663   0.263
51824W        W20297  41.538  17.659  12.351
51825W        W20298  38.908   5.422  11.992
51826W        W20299  20.647  12.809  14.865
51827W        W20300  13.695   8.274   3.771
51828W        W20301  10.724  34.431   0.763
51829W        W20302  22.743  29.161  10.090
51830W        W20303  20.662  28.119  12.066
51831W        W20304  33.942  30.049   3.696
51832W        W20305   0.484  40.896   0.378
51833W        W20306  11.199  36.041   0.430
51834W        W20307  33.911  27.105   1.713
51835W        W20308   8.343  23.518   1.716
51836W        W20309  12.682  20.702   4.657
51837W        W20310  10.298   6.877  11.601
51838W        W20311  18.160   7.233   0.337
51839W        W20312  26.107   8.683  13.463
51840W        W20313   4.427  17.729  13.016
51841W        W20314  38.858  11.833   2.842
51842W        W20315  27.670  14.319  14.977
51843W        W20316   3.287  10.286   1.306
51844W        W20317  11.161  24.161   2.668
51845W        W20318  24.666  36.405   0.382
51846W        W20319  31.925  15.302   3.672
51847W        W20320  19.187  35.583  11.884
51848W        W20321  44.388  14.592   1.789
51849W        W20322  22.093  12.837   0.341
51850W        W20323  21.566  36.351  14.337
51851W        W20324  37.349  24.210   3.733
51852W        W20325   2.923   8.884   4.188
51853W        W20326   4.851  43.880  12.561
51854W        W20327  44.267  28.986   2.831
51855W        W20328  36.014  21.178  13.993
51856W        W20329  35.572  24.110  11.869
51857W        W20330  21.120  31.596   1.732
51858W        W20331  22.688   2.881   1.441
51859W        W20332  32.131  14.138   4.245
51860W        W20333  19.766  21.082  11.993
51861W        W20334   5.841  13.329   3.770
51862W        W20335  35.535  27.455   1.750
51863W        W20336  35.857  41.328   4.661
51864W        W20337  24.709  15.122  12.363
51865W        W20338  43.814  40.936   3.214
51866W        W20339  18.104  32.908  12.478
51867W        W20340  13.842  38.545  14.412
51868W        W20341  40.422  21.559  12.885
51869W        W20342  30.024  30.435  14.010
51870W        W20343  11.644  31.019  14.371
51871W        W20344  20.119  22.116  14.018
51872W        W20345  14.652  11.317   3.370
51873W        W20346   3.760  26.682  13.438
51874W        W20347   8.375  26.123  11.038
51875W        W20348   8.329  29.999   0.475
51876W        W20349   3.239   0.903  11.498
51877W        W20350  23.578   3.875   1.424
51878W        W20351  10.801  29.529  11.037
51879W        W20352  40.036  34.420   2.332
51880W        W20353  16.178  20.094   1.736
51881W        W20354  41.472  31.572   1.796
51882W        W20355  42.359  28.976  11.429
51883W        W20356  19.611  39.967  13.943
51884W        W20357   1.326  26.667  12.530
51885W        W20358  23.000  21.693   1.763
51886W        W20359  42.990  42.938   1.381
51887W        W20360   0.917  27.117   3.256
51888W        W20361  37.479  17.196   3.735
51889W        W20362  20.126   4.894  11.876
51890W        W20363  10.760  26.512   4.288
51891W        W20364  37.375  22.574  10.995
51892W        W20365  11.262   9.377   4.165
51893W        W20366  17.206  10.331   4.831
51894W        W20367  43.852   4.395   3.193
51895W        W20368  11.297  30.972   1.362
51896W        W20369  29.624  24.568   0.862
51897W        W20370  23.984  39.937  13.914
51898W        W20371  39.905   0.793   0.319
51899W        W20372  12.825   7.337  13.021
51900W        W20373  29.141  42.391  11.528
51901W        W20374  24.690   8.685   2.364
51902W        W20375  12.121  19.047   0.388
51903W        W20376  14.743  38.820  11.865
51904W        W20377  19.261  29.602   3.167
51905W        W20378  29.175  20.624   1.920
51906W        W20379  24.176  37.458  14.994
51907W        W20380  35.087  31.910   3.688
51908W        W20381  21.208  36.032  14.472
51909W        W20382   2.357  43.922   1.245
51910W        W20383   9.805   0.939   0.398
51911W        W20384   6.201  44.761   0.910
51912W        W20385  31.043   7.791  14.386
51913W        W20386  35.871  42.342   1.863
51914W        W20387  44.493  14.751  12.002
51915W        W20388  19.220  22.574   4.825
51916W        W20389  14.112  30.045   2.204
51917W        W20390  26.193  20.738  13.491
51918W        W20391  15.186  36.916  12.051
51919W        W20392  32.434  44.274   2.371
51920W        W20393   5.706   6.688   3.195
51921W        W20394  24.525  12.339   0.481
51922W        W20395   8.307  32.587   2.730
51923W        W20396   5.255  18.547   0.316
51924W        W20397   3.890  19.779  11.987
51925W        W20398  12.293  17.145  13.986
51926W        W20399   3.796   2.730   4.208
51927W        W20400  14.724  30.652  13.484
51928W        W20401  21.100  26.991   2.373
51929W        W20402  35.893  28.039   0.907
51930W        W20403  31.434  13.166   0.400
51931W        W20404  17.232  40.305  13.515
51932W        W20405  44.411  20.052  14.864
51933W        W20406  31.502  16.216  13.923
51934W        W20407   9.290  43.396   4.742
51935W        W20408  15.307  36.930   0.481
51936W        W20409  30.579   4.384   0.901
51937W        W20410  37.574   8.387  13.442
51938W        W20411  40.797  35.902   4.711
51939W        W20412   8.814  22.015  14.292
51940W        W20413  35.073   5.410  11.598
51941W        W20414  28.667  11.272   0.737
51942W        W20415  18.144   0.843   2.896
51943W        W20416  22.661   9.743  14.281
51944W        W20417  22.725  31.541   2.744
51945W        W20418  30.968  22.112  13.930
51946W        W20419  42.345  34.081   3.832
51947W        W20420  32.549  18.147  10.889
51948W        W20421  15.651  26.482  10.602
51949W        W20422   1.238  30.462  12.037
51950W        W20423  36.480  37.022   4.149
51951W        W20424   4.395  29.440  10.975
51952W        W20425   7.254  40.365   5.163
51953W        W20426  38.560  30.031   4.348
51954W        W20427   5.203  12.704   2.716
51955W        W20428   6.313  40.410   5.272
51956W        W20429  26.680  11.827   0.244
51957W        W20430   4.356   5.423   9.969
51958W        W20431  31.628  24.119  12.963
51959W        W20432   3.400  30.091  10.538
51960W        W20433  20.548  15.259   3.190
51961W        W20434  13.205  36.549   4.121
51962W        W20435  12.315  12.841  14.335
51963W        W20436   8.865  16.731   2.372
51964W        W20437  27.954  28.434  12.481
51965W        W20438  43.320  18.148  12.841
51966W        W20439  12.643  16.632  13.000
51967W        W20440   6.219  16.306   0.264
51968W        W20441   9.815  24.710  12.989
51969W        W20442  19.219  15.234  11.946
51970W        W20443  31.077  31.928  11.896
51971W        W20444  16.631  33.614   1.874
51972W        W20445  19.198  23.054  11.921
51973W        W20446  44.965  20.052  12.863
51974W        W20447   8.793  34.435   3.822
51975W        W20448  40.409  23.192   4.741
51976W        W20449  18.573  31.126  12.364
51977W        W20450  38.399  40.347   0.341
51978W        W20451  18.631  20.740  14.989
51979W        W20452  30.029  25.661   5.709
51980W        W20453   1.456  14.663   1.841
51981W        W20454  22.636  13.835  12.860
51982W        W20455  36.382  38.899  13.956
51983W        W20456  33.990   6.324   4.691
51984W        W20457  22.013  32.054   1.236
51985W        W20458  20.524  11.802   4.158
51986W        W20459   0.321  13.214   1.418
51987W        W20460  26.576   7.199   0.956
51988W        W20461  30.536  41.351   5.175
51989W        W20462  32.106  27.598   3.167
51990W        W20463  27.193   9.747  11.102
51991W        W20464  39.898  15.284   4.139
51992W        W20465   6.911  11.790  14.438
51993W        W20466  41.022   4.368  13.498
51994W        W20467   6.692  23.572   1.925
51995W        W20468  15.148  31.591  11.049
51996W        W20469  44.309   8.893   2.691
51997W        W20470  37.974  34.885   1.887
51998W        W20471  14.681  15.090   3.700
51999W        W20472   2.881   1.966  14.363
52000W        W20473  15.693  15.590   2.807
52001W        W20474  11.365  20.107  12.459
52002W        W20475  26.637  42.842  14.838
52003W        W20476  37.057  29.985   0.786
52004W        W20477  28.589   2.379   0.731
52005W        W20478  15.207  26.128   2.188
52006W        W20479  10.214  39.536  11.490
52007W        W20480  41.803  33.435  13.359
52008W        W20481  22.578  10.731   2.749
52009W        W20482  32.921  12.190  10.628
52010W        W20483  17.211  30.529   3.346
52011W        W20484  28.600  37.882  11.385
52012W        W20485   0.456  28.449  14.940
52013W        W20486  38.377   0.405  13.033
52014W        W20487   7.342  11.774   1.363
52015W        W20488  36.364  33.404  10.050
52016W        W20489  22.134  24.653  10.120
52017W        W20490  29.117  36.909  12.867
52018W        W20491   4.250   4.445   5.684
52019W        W20492   8.376  40.539   0.782
52020W        W20493   5.344   3.242  12.460
52021W        W20494  21.736  18.056  13.958
52022W        W20495  39.320   4.435  11.441
52023W        W20496   7.353  21.129   1.294
52024W        W20497   6.415   2.390  14.760
52025W        W20498  32.529   9.297  11.544
52026W        W20499  31.456  29.543  11.967
52027W        W20500  21.537  26.495  14.903
52028W        W20501  44.381  34.612   3.213
52029W        W20502  35.435  21.153   1.760
52030W        W20503  12.248  38.060   1.444
52031W        W20504   4.879  40.041   0.740
52032W        W20505  36.901  33.058   0.274
52033W        W20506  19.183  25.514   3.818
52034W        W20507  36.491  15.238  11.376
52035W        W20508  32.566  11.637   1.905
52036W        W20509  21.570   8.816  12.063
52037W        W20510  22.221  34.572   1.766
52038W        W20511  18.102  12.174   0.283
52039W        W20512   9.171  23.041  10.565
52040W        W20513  23.646  16.135  11.026
52041W        W20514  42.514  24.481   2.293
52042W        W20515  39.982  16.806  11.888
52043W        W20516  38.450  20.048  11.023
52044W        W20517  36.884  40.537   4.664
52045W        W20518  28.137  31.444  11.610
52046W        W20519  20.699  16.731   3.328
52047W        W20520  22.740  17.303   4.756
52048W        W20521  30.105  31.999   3.377
52049W        W20522  36.375   8.733   1.357
52050W        W20523  17.172  16.129  10.466
52051W        W20524  11.864  25.026   1.719
52052W        W20525  25.534   1.375   1.906
52053W        W20526   8.747  35.048  10.007
52054W        W20527  12.344  43.498  12.042
52055W        W20528  26.001  44.795   3.368
52056W        W20529   6.242   5.820  12.030
52057W        W20530  33.514  14.648   3.259
52058W        W20531  20.080  26.153  14.309
52059W        W20532  38.444   1.267  14.363
52060W        W20533   1.874   3.408  12.369
52061W        W20534  42.906  13.311   2.821
52062W        W20535  15.750  37.948  14.014
52063W        W20536   6.705  20.102  13.350
52064W        W20537  19.580   4.366   0.964
52065W        W20538  20.072  35.376   0.846
52066W        W20539   2.772  14.809   2.200
52067W        W20540   2.924  24.661  11.520
52068W        W20541  38.905  37.520  12.544
52069W        W20542   4.882  25.575   2.840
52070W        W20543  35.458  38.918   3.223
52071W        W20544  41.787  16.668  14.418
52072W        W20545  29.124   6.678   3.249
52073W        W20546   2.871   7.721  14.370
52074W        W20547  31.131  15.310   4.257
52075W        W20548   0.944   3.852   4.319
52076W        W20549  11.755  34.083   2.253
52077W        W20550   2.227  19.069  14.956
52078W        W20551  40.427  24.222  11.928
52079W        W20552   5.413  14.700  13.002
52080W        W20553   2.756  23.639   1.846
52081W        W20554  28.026  18.090   3.202
52082W        W20555  28.063  16.730  14.417
52083W        W20556  43.021  33.463   1.866
52084W        W20557  36.574   1.280  11.011
52085W        W20558  40.512  12.182   1.412
52086W        W20559   2.367  41.930  13.956
52087W        W20560   2.428  24.085   0.791
52088W        W20561  43.426  38.429   1.820
52089W        W20562  25.661   1.318  12.869
52090W        W20563  40.029  13.337   0.748
52091W        W20564   5.787  39.935  11.069
52092W        W20565  43.899  39.375   3.269
52093W        W20566  36.521  23.026   2.355
52094W        W20567   5.397  40.469   1.326
52095W        W20568  35.370  40.305   2.896
52096W        W20569  25.188  25.156   1.870
52097W        W20570  42.775  38.008   0.863
52098W        W20571  19.650  41.406   2.410
52099W        W20572  11.634  21.535  12.975
52100W        W20573  18.681  40.316  14.802
52101W        W20574  43.365  32.039  12.473
52102W        W20575   2.456  23.712   1.919
52103W        W20576  25.179  38.424  11.973
52104W        W20577  29.967  32.010  14.838
52105W        W20578   1.831  38.072   2.751
52106W        W20579   9.685  11.155   3.801
52107W        W20580  26.584  22.093   1.856
52108W        W20581  43.008  36.909  13.313
52109W        W20582   0.388  21.751   4.633
52110W        W20583  10.672   1.347   0.478
52111W        W20584   6.790  11.180  13.426
52112W        W20585  36.540  33.464  14.511
52113W        W20586   7.370  34.956   5.283
52114W        W20587   9.314  28.000  10.505
52115W        W20588   7.700  36.402   0.944
52116W        W20589  38.553  25.142   4.200
52117W        W20590  31.073   4.797   4.765
52118W        W20591   5.701  35.926   1.866
52119W        W20592  39.332  26.030   0.789
52120W        W20593  29.934  25.663   0.277
52121W        W20594  28.041   1.963  10.159
52122W        W20595   8.175  34.871  11.483
52123W        W20596  41.487   6.375  12.093
52124W        W20597   4.421   4.834  14.995
52125W        W20598   4.348  24.184   4.769
52126W        W20599   6.874  39.463   2.287
52127W        W20600   4.757   2.925  10.421
52128W        W20601   7.388  27.114   3.226
52129W        W20602  14.232  16.206  13.903
52130W        W20603  23.071  33.946  12.534
52131W        W20604  39.053  28.058   2.827
52132W        W20605  31.502  18.702  12.486
52133W        W20606  41.516   6.416  13.456
52134W        W20607  13.227  39.882  12.433
52135W        W20608   5.265  12.780  13.959
52136W        W20609  39.908   4.702   0.335
52137W        W20610   9.272  28.604   2.193
52138W        W20611  40.010  43.985  12.341
52139W        W20612  24.195  43.401   3.634
52140W        W20613  39.055  41.878   4.617
52141W        W20614   1.804  21.569  10.473
52142W        W20615  40.933  30.028  14.397
52143W        W20616  20.126  25.690  13.035
52144W        W20617  28.127  11.304  14.865
52145W        W20618   6.185   9.849  14.493
52146W        W20619   5.836  40.477  12.046
52147W        W20620  22.076  42.415   4.319
52148W        W20621   0.915  29.448   1.366
52149W        W20622  14.275  20.645   3.833
52150W        W20623  26.017  32.026   0.267
52151W        W20624  32.903  37.416  13.401
52152W        W20625  19.115  29.964  14.338
52153W        W20626  22.209  34.911  10.472
52154W        W20627   7.206   5.276  10.628
52155W        W20628  22.064  40.969  14.003
52156W        W20629  20.681   1.875  13.905
52157W        W20630  29.470  10.355   4.757
52158W        W20631  44.863  21.205  13.923
52159W        W20632  16.305  15.115  13.370
52160W        W20633  37.532  17.644   4.159
52161W        W20634  16.678  31.971  14.329
52162W        W20635  35.518   3.869   4.163
52163W        W20636   7.828  21.562  14.444
52164W        W20637  18.116   2.922  14.278
52165W        W20638  39.490  28.139  14.463
52166W        W20639  15.641  39.370   0.331
52167W        W20640  34.523  26.695   1.320
52168W        W20641   3.247  19.760   2.863
52169W        W20642  26.635  10.797   2.380
52170W        W20643  30.977  36.372  13.320
52171W        W20644  25.544   7.826  11.587
52172W        W20645  31.143  24.973   3.634
52173W        W20646  26.034  40.376   3.633
52174W        W20647  30.611   1.262  14.425
52175W        W20648  35.363  17.700  14.505
52176W        W20649  34.040  19.623   2.868
52177W        W20650  13.775  42.994   3.867
52178W        W20651   5.707  24.705   0.416
52179W        W20652  43.937  36.532   4.726
52180W        W20653  32.582  25.188   2.862
52181W        W20654   5.267  41.825   2.742
52182W        W20655  16.590   2.835  14.363
52183W        W20656  40.351   8.355   2.355
52184W        W20657  39.913  22.080  10.461
52185W        W20658  42.370   7.297   3.211
52186W        W20659   7.704   9.171   3.152
52187W        W20660  25.512  34.964  14.780
52188W        W20661   5.268  27.609  11.492
52189W        W20662  32.921  40.942  11.504
52190W        W20663  19.651  14.160   0.828
52191W        W20664  13.763  10.342   1.434
52192W        W20665   0.386   8.405   0.964
52193W        W20666  21.556  43.359   2.712
52194W        W20667  35.898  32.496  13.809
52195W        W20668  31.900   6.854  12.888
52196W        W20669  19.169  19.688   4.147
52197W        W20670  31.490  27.979  11.604
52198W        W20671  10.329  26.496   3.760
52199W        W20672   8.195   4.820  10.966
52200W        W20673  26.016  19.178   3.321
52201W        W20674   3.907  42.862  12.532
52202W        W20675  32.503  33.043   2.786
52203W        W20676  18.258  26.974   0.928
52204W        W20677  14.320  12.693  12.833
52205W        W20678  31.419  17.286  11.416
52206W        W20679  28.146  44.287   0.428
52207W        W20680  24.984  11.859   0.278
52208W        W20681  43.808   5.380  14.007
52209W        W20682  12.699   6.391  11.086
52210W        W20683  32.138  15.258   1.839
52211W        W20684  30.518  23.515   1.858
52212W        W20685   7.676  15.734  12.097
52213W        W20686  16.611  35.068   1.759
52214W        W20687  20.668  19.622   3.266
52215W        W20688  29.065  13.227   3.820
52216W        W20689  17.182   1.340   1.800
52217W        W20690  20.614  23.726  12.513
52218W        W20691   6.705  42.905   4.708
52219W        W20692  43.286  30.931   0.734
52220W        W20693  42.886  37.933  13.470
52221W        W20694   5.439  11.151  12.532
52222W        W20695   3.224  20.153  11.376
52223W        W20696  26.500  26.561  13.854
52224W        W20697  12.169  31.457  14.816
52225W        W20698   4.883   0.836  10.896
52226W        W20699   6.326  26.099   0.850
52227W        W20700  29.088   5.834   4.642
52228W        W20701  33.462  34.444   3.666
52229W        W20702  31.438  27.103   5.566
52230W        W20703  39.329  23.707   3.745
52231W        W20704  12.706   2.358  14.300
52232W        W20705  17.568  28.151   2.889
52233W        W20706  40.384  41.535   5.206
52234W        W20707  21.149  31.937  12.445
52235W        W20708  42.447   4.777  12.551
52236W        W20709  25.525  11.849   4.146
52237W        W20710   1.377  41.882   1.392
52238W        W20711  14.783  36.938  11.479
52239W        W20712  32.497  43.515   1.364
52240W        W20713  16.633   8.783   2.840
52241W        W20714  29.919  21.052  14.982
52242W        W20715   8.848  33.439  11.070
52243W        W20716   0.944  38.387   4.751
52244W        W20717  12.787   2.747   2.360
52245W        W20718  29.999  44.891   0.940
52246W        W20719  33.432   5.363  13.932
52247W        W20720  43.311  37.063   3.848
52248W        W20721  36.860  17.072  10.540
52249W        W20722  32.529  42.016  12.096
52250W        W20723  26.563  13.838  10.955
52251W        W20724   8.343  35.023  11.120
52252W        W20725  30.564  26.172  14.389
52253W        W20726  19.619  24.159  11.434
52254W        W20727   2.272  14.223  11.450
52255W        W20728  31.519  40.411   2.282
52256W        W20729  25.693   1.265   0.393
52257W        W20730  28.084  43.990  14.851
52258W        W20731   5.777  17.142  10.439
52259W        W20732  13.670  43.830   4.799
52260W        W20733  24.105   0.412  10.601
52261W        W20734   5.748  39.906  13.884
52262W        W20735  19.159  23.631   1.792
52263W        W20736   6.186  14.812   3.642
52264W        W20737  13.208  39.536  14.337
52265W        W20738  40.040  42.400  10.486
52266W        W20739  20.229  23.043  10.637
52267W        W20740   1.953  18.284   0.392
52268W        W20741  10.230   7.245   2.686
52269W        W20742  19.700  26.974   2.867
52270W        W20743  11.810   3.222  14.943
52271W        W20744  33.386  42.521  10.971
52272W        W20745  24.645  10.302   2.801
52273W        W20746  36.464  22.033   0.467
52274W        W20747  20.749  30.500   3.830
52275W        W20748   6.889  16.726   0.246
52276W        W20749  28.030  27.577  14.013
52277W        W20750   7.322  12.334  10.528
52278W        W20751  17.751  16.764   1.407
52279W        W20752   8.760  24.066   0.844
52280W        W20753   6.759  34.591   0.483
52281W        W20754  26.970  27.133  11.438
52282W        W20755   3.872  17.755   3.856
52283W        W20756  33.023  43.428   2.850
52284W        W20757  35.584  26.130   4.749
52285W        W20758  28.964   3.282   3.213
52286W        W20759  42.883  27.144  13.911
52287W        W20760  44.375  28.677   3.376
52288W        W20761   4.346  10.160   0.272
52289W        W20762  39.552  34.585  14.508
52290W        W20763  19.723   3.955   2.808
52291W        W20764  13.214   3.290  11.026
52292W        W20765  15.126   3.224   2.203
52293W        W20766  38.047  19.143   2.685
52294W        W20767  35.603  14.724   3.254
52295W        W20768  18.546  39.457  14.988
52296W        W20769  32.052  35.976  12.407
52297W        W20770  37.372  29.926  11.982
52298W        W20771  19.567  24.671   1.748
52299W        W20772   4.707  25.523  13.013
52300W        W20773  30.440  21.604   2.687
52301W        W20774  22.637  36.996  11.955
52302W        W20775  12.699  19.047   0.364
52303W        W20776  24.695  35.506  10.996
52304W        W20777  40.939  39.348  11.578
52305W        W20778   1.299   3.328   1.273
52306W        W20779  11.737  27.993  10.145
52307W        W20780  44.801  24.478   3.380
52308W        W20781  19.088  23.061  14.362
52309W        W20782  24.144  18.266  10.086
52310W        W20783   6.332  28.491  10.906
52311W        W20784  24.081  37.988  12.524
52312W        W20785  28.580  16.658  13.961
52313W        W20786  43.495  37.428  12.057
52314W        W20787  38.990  39.002   0.471
52315W        W20788  32.906   3.719   4.335
52316W        W20789  21.739  31.132  14.772
52317W        W20790  21.661  30.494   4.743
52318W        W20791  27.523  43.307   0.884
52319W        W20792  29.982  31.118  11.914
52320W        W20793   9.343   0.456  10.624
52321W        W20794   3.939  34.057  12.052
52322W        W20795  24.630   5.313  12.050
52323W        W20796  34.583  29.558   2.255
52324W        W20797  19.231  11.856  10.990
52325W        W20798   6.426  10.712  13.487
52326W        W20799  43.013  22.074  14.334
52327W        W20800  32.556   8.257   2.315
52328W        W20801  35.932   9.643  10.924
52329W        W20802  21.131  23.237  13.534
52330W        W20803  22.185  38.509   0.366
52331W        W20804  11.277  15.773  11.443
52332W        W20805   3.443   6.373   4.307
52333W        W20806   1.882   5.894  14.820
52334W        W20807   0.879  43.824   0.392
52335W        W20808   1.911  17.606   0.290
52336W        W20809   3.429  21.518   0.924
52337W        W20810   8.664  37.078   1.759
52338W        W20811   4.289  42.874  11.873
52339W        W20812  40.853  17.599  12.550
52340W        W20813   9.150  10.266   0.393
52341W        W20814  32.607   3.365  14.912
52342W        W20815  40.392  43.452   1.388
52343W        W20816   9.345   8.215  13.372
52344W        W20817  26.144   4.899   3.175
52345W        W20818   7.389  41.488   0.470
52346W        W20819  20.125  34.438  10.627
52347W        W20820   5.350  40.318  12.908
52348W        W20821  41.901  23.717  10.563
52349W        W20822  42.811  26.464   1.450
52350W        W20823  11.329  33.521   3.771
52351W        W20824  27.688  34.592   0.830
52352W        W20825  38.950  29.633  14.942
52353W        W20826  36.066  21.221  10.464
52354W        W20827   9.231  34.382   4.235
52355W        W20828   2.397  44.766  14.893
52356W        W20829  16.712   3.716  12.573
52357W        W20830   0.868  35.577  13.795
52358W        W20831  41.414  39.942   2.205
52359W        W20832  24.144  44.818   5.089
52360W        W20833  38.331  26.087   4.236
52361W        W20834  12.734  40.971  13.029
52362W        W20835  44.465  21.512   0.316
52363W        W20836  34.419  33.416   1.429
52364W        W20837  12.350   0.418   3.222
52365W        W20838  33.617  40.510   2.677
52366W        W20839  25.168  22.745   1.779
52367W        W20840  40.426  31.635  12.078
52368W        W20841  20.098  44.837  12.569
52369W        W20842  24.978   5.275   1.782
52370W        W20843  25.612   6.195  11.950
52371W        W20844  42.961   7.777   3.255
52372W        W20845  27.137   6.749  14.009
52373W        W20846   3.418  24.193   1.709
52374W        W20847   1.873  36.519  14.865
52375W        W20848   3.832  39.421   1.364
52376W        W20849  42.023  20.261  10.572
52377W        W20850   4.755  26.529  14.954
52378W        W20851  41.932  43.998  14.393
52379W        W20852  31.097  23.511  11.532
52380W        W20853  44.344   2.894   3.658
52381W        W20854   9.746  15.249  12.064
52382W        W20855  37.393  43.804  13.398
52383W        W20856  34.013  24.132   1.310
52384W        W20857  40.028  13.605   2.235
52385W        W20858  29.500   9.203  14.839
52386W        W20859  41.357  37.983  11.957
52387W        W20860  21.073  23.100   3.699
52388W        W20861   6.728  20.764   1.748
52389W        W20862  22.685  28.541  14.377
52390W        W20863  17.087   4.760   3.658
52391W        W20864  27.092  23.712  12.385
52392W        W20865  37.006  22.557  14.881
52393W        W20866  22.214  28.635   1.393
52394W        W20867   5.429  13.129  14.939
52395W        W20868  42.832  19.659  12.351
52396W        W20869  12.313  31.896   4.314
52397W        W20870  42.850  38.329  14.883
52398W        W20871  17.662  40.999   4.174
52399W        W20872  13.339  19.086  13.500
52400W        W20873   7.846   6.249  13.412
52401W        W20874   7.198  19.166  14.982
52402W        W20875  17.081  33.112   0.283
52403W        W20876  32.952   7.258  13.357
52404W        W20877  28.576  23.564   0.848
52405W        W20878  27.096  35.542  11.920
52406W        W20879  35.011  43.963   2.262
52407W        W20880  42.472  21.021   4.185
52408W        W20881  31.037  33.059  14.277
52409W        W20882  27.599  20.046   4.222
52410W        W20883   4.283  25.131   0.398
52411W        W20884  11.325  43.864  14.896
52412W        W20885  14.315  36.429  14.441
52413W        W20886  38.939  22.028   4.789
52414W        W20887  22.595  19.125   3.296
52415W        W20888  27.981  39.466  12.372
52416W        W20889   5.805  16.292   5.723
52417W        W20890   0.970   3.241   3.697
52418W        W20891  20.548  21.083   2.348
52419W        W20892  42.866  38.998  14.995
52420W        W20893  29.176  35.978   1.447
52421W        W20894  16.783   5.751  14.276
52422W        W20895  16.251  21.608  10.494
52423W        W20896  40.481   0.918   4.344
52424W        W20897   5.720  18.731  12.063
52425W        W20898  29.640  21.702  12.467
52426W        W20899  25.178  29.985  13.424
52427W        W20900  30.577  12.746  10.619
52428W        W20901  15.127  19.048   2.370
52429W        W20902  33.465   0.779   1.706
52430W        W20903  40.971  29.482   2.228
52431W        W20904   7.248   5.276   5.106
52432W        W20905  31.446  40.835   2.718
52433W        W20906  44.433  43.461  14.815
52434W        W20907   7.789   3.842   0.475
52435W        W20908  44.775  23.165  13.817
52436W        W20909  30.960   3.394   1.829
52437W        W20910   2.276  11.281   4.806
52438W        W20911   3.871  27.155  13.446
52439W        W20912  20.578   9.186   2.745
52440W        W20913   6.380   4.391   1.402
52441W        W20914  20.145  43.383   3.722
52442W        W20915  42.782  13.658   1.870
52443W        W20916  32.594  18.181   2.282
52444W        W20917  36.398  36.363  10.912
52445W        W20918   7.208   5.399  13.971
52446W        W20919  34.578   8.844  14.378
52447W        W20920   2.372  30.934  13.000
52448W        W20921  15.172  35.971   0.800
52449W        W20922  28.053   6.772   3.169
52450W        W20923  13.234  41.834  12.094
52451W        W20924  44.810  40.035   1.441
52452W        W20925  32.599  25.185   5.085
52453W        W20926  22.213   7.233  10.439
52454W        W20927  15.751  22.608   3.820
52455W        W20928  25.982  38.878  12.950
52456W        W20929   7.677  42.919  13.023
52457W        W20930  25.468  20.763   1.387
52458W        W20931  39.337  37.342  10.996
52459W        W20932  44.917  42.983  11.031
52460W        W20933  33.586   5.321  12.397
52461W        W20934  35.366  27.197   3.727
52462W        W20935  36.562  15.706  10.638
52463W        W20936  37.466  43.365   0.939
52464W        W20937  12.680  23.148  11.857
52465W        W20938   2.294  18.638   3.199
52466W        W20939  26.700  27.564  14.988
52467W        W20940  32.023   2.863  14.900
52468W        W20941  15.616  43.787  14.939
52469W        W20942   5.343  39.951   2.342
52470W        W20943  26.572  28.086   5.100
52471W        W20944   8.299   8.666   1.726
52472W        W20945  24.134  30.985   4.714
52473W        W20946  19.039  42.003  11.865
52474W        W20947  15.123  32.886   3.747
52475W        W20948  29.652  26.498  14.926
52476W        W20949  35.989   3.914   3.351
52477W        W20950  30.998   8.818   3.771
52478W        W20951  17.215  21.642  10.500
52479W        W20952  32.009  26.654  11.448
52480W        W20953  29.978  38.858  13.800
52481W        W20954   2.388  24.648  10.510
52482W        W20955   0.747   9.249   4.690
52483W        W20956  29.119  40.380  13.432
52484W        W20957  11.861   7.731   4.224
52485W        W20958  33.439  11.142   2.370
52486W        W20959  33.997  13.768  14.413
52487W        W20960   1.925  30.534  12.038
52488W        W20961  14.765   2.469   0.883
52489W        W20962  38.375  29.987  13.438
52490W        W20963  37.384  22.524   3.201
52491W        W20964  14.793  33.948   0.459
52492W        W20965  11.233  27.037   4.729
52493W        W20966  38.453  15.612  12.566
52494W        W20967  38.968  17.654  14.449
52495W        W20968  12.727  16.662  13.967
52496W        W20969  35.507  10.866   2.823
52497W        W20970  21.151   7.726   2.258
52498W        W20971   3.341  35.519   3.694
52499W        W20972  41.444  39.559  14.384
52500W        W20973   6.408  30.617   3.296
52501W        W20974   6.859  27.611  10.444
52502W        W20975  32.558  36.096  10.502
52503W        W20976   1.807   4.396  11.887
52504W        W20977  28.608  26.047   2.856
52505W        W20978   0.307  24.616   3.367
52506W        W20979   2.248   1.798   1.404
52507W        W20980  14.595  37.073  12.425
52508W        W20981  14.774  26.556  11.944
52509W        W20982  12.779   3.427   1.790
52510W        W20983  13.668  23.666  11.475
52511W        W20984  38.541  33.429   3.834
52512W        W20985   6.861   6.752  10.156
52513W        W20986  20.153  15.285   1.418
52514W        W20987  11.758  37.463   3.328
52515W        W20988  12.637  42.477  12.539
52516W        W20989  12.158  34.382   0.266
52517W        W20990   4.839  13.284  13.476
52518W        W20991  28.064   3.744  12.922
52519W        W20992   0.947  25.608  10.891
52520W        W20993  30.478  26.050   2.374
52521W        W20994  42.460  38.863   3.349
52522W        W20995   9.205   0.296  12.959
52523W        W20996  40.863  43.325  14.422
52524W        W20997  17.738  14.662  13.367
52525W        W20998  38.380  28.083  10.933
52526W        W20999  26.675   6.869   0.731
52527W        W21000  28.067  19.707   3.658
52528W        W21001  20.657  24.543  10.968
52529W        W21002  22.150   9.338   0.312
52530W        W21003   1.320  27.093  11.918
52531W        W21004  42.983   9.332  11.892
52532W        W21005  37.431  24.012  13.843
52533W        W21006  30.448  26.051  11.584
52534W        W21007   7.208   8.682  10.944
52535W        W21008   8.384  44.276   3.679
52536W        W21009  31.912  35.906   4.241
52537W        W21010  39.547  39.517  10.961
52538W        W21011  23.540  20.644   3.355
52539W        W21012  15.594  13.298   4.329
52540W        W21013   4.704  12.823  14.401
52541W        W21014  22.579  25.575  10.423
52542W        W21015   2.317   6.894  14.932
52543W        W21016  38.867  29.513   3.736
52544W        W21017  27.595  39.974   3.173
52545W        W21018  20.660  12.262   3.285
52546W        W21019  26.653  11.349  11.862
52547W        W21020  10.847  23.069   1.355
52548W        W21021  29.477  16.092   0.958
52549W        W21022  41.902  22.559   1.444
52550W        W21023  24.179   0.768   4.754
52551W        W21024  29.668  25.601  11.503
52552W        W21025  26.597  13.224   2.881
52553W        W21026  13.180  23.497  10.643
52554W        W21027   6.920   3.404   1.732
52555W        W21028  15.220  28.133  14.498
52556W        W21029   3.890  24.647  13.890
52557W        W21030  42.820  11.794  11.390
52558W        W21031  13.200  31.549  10.531
52559W        W21032  43.416  37.565   2.195
52560W        W21033  15.597  34.475   3.226
52561W        W21034   3.771  30.137  12.858
52562W        W21035  35.923  11.747  13.850
52563W        W21036  10.304  15.812   1.806
52564W        W21037  37.080  41.352   4.753
52565W        W21038  38.533  22.585  11.576
52566W        W21039  10.820  11.291   4.251
52567W        W21040  11.771  43.019  11.032
52568W        W21041  40.508  22.674   4.820
52569W        W21042   4.704  39.835  11.404
52570W        W21043  11.708  33.949   1.883
52571W        W21044  12.234  44.887   0.913
52572W        W21045   6.201   8.777  10.595
52573W        W21046  17.618  20.532  10.996
52574W        W21047  28.030   3.818   2.258
52575W        W21048  42.800  15.762  12.442
52576W        W21049   3.860  36.930   3.850
52577W        W21050  25.076   5.740   2.745
52578W        W21051  23.158   8.328   2.723
52579W        W21052   8.345  40.440  12.037
52580W        W21053  40.398  23.020  14.840
52581W        W21054  19.139  34.484   1.878
52582W        W21055  24.616  35.370  14.449
52583W        W21056   9.829  20.030  12.364
52584W        W21057   8.821  14.742   1.411
52585W        W21058  23.057  19.071  12.532
52586W        W21059  31.097   8.736   0.248
52587W        W21060   1.801  31.606  10.965
52588W        W21061  11.210  44.435   2.830
52589W        W21062  31.415   8.348  12.840
52590W        W21063   8.872  42.009  13.386
52591W        W21064   6.696  14.758  12.491
52592W        W21065   4.292   1.934   0.364
52593W        W21066   2.337   3.309   4.280
52594W        W21067   9.259   3.314  12.475
52595W        W21068  11.316  12.327  12.964
52596W        W21069  38.543  25.186   1.845
52597W        W21070  23.608  42.855   0.793
52598W        W21071  20.096  13.611  11.504
52599W        W21072  33.039  18.640   0.414
52600W        W21073  36.421  33.438  12.541
52601W        W21074   1.339  27.661  11.881
52602W        W21075   3.720   5.349  11.500
52603W        W21076   5.914  17.728  10.525
52604W        W21077   6.751   2.940   2.767
52605W        W21078   9.159  12.196   0.258
52606W        W21079  24.120  19.048   0.451
52607W        W21080  22.514  43.935  11.010
52608W        W21081  37.396  14.815   5.261
52609W        W21082  11.740  37.048   0.244
52610W        W21083  21.603  30.155   4.672
52611W        W21084   0.337   7.888  10.995
52612W        W21085  33.969  33.540   0.744
52613W        W21086   6.724  17.740   1.695
52614W        W21087  41.357  18.142  12.370
52615W        W21088  17.111  44.451   5.213
52616W        W21089   1.237  30.958  13.871
52617W        W21090  20.586   8.243   0.396
52618W        W21091  38.513  25.074   3.291
52619W        W21092   2.860  37.574  12.430
52620W        W21093   6.274   6.919  13.321
52621W        W21094   5.779   4.789  10.066
52622W        W21095  20.578  30.547   0.338
52623W        W21096   6.339   3.844   1.697
52624W        W21097   4.392  21.147   0.446
52625W        W21098  13.117  26.961   2.365
52626W        W21099  14.645   1.839   9.987
52627W        W21100  36.981  19.221   3.309
52628W        W21101  19.561  36.414   2.357
52629W        W21102  21.574  44.263  10.932
52630W        W21103   7.670  27.152  12.492
52631W        W21104  19.182  36.923  12.025
52632W        W21105  43.285  21.708   2.873
52633W        W21106   0.295   2.248   0.334
52634W        W21107  29.978   4.755   4.176
52635W        W21108  25.664  42.374  12.909
52636W        W21109  13.136  22.164   2.755
52637W        W21110  40.323  25.172   0.316
52638W        W21111  13.256  38.518   2.186
52639W        W21112   1.335  37.544  14.368
52640W        W21113  37.057  22.200  11.958
52641W        W21114  31.434  17.733  13.046
52642W        W21115  19.283  26.112   0.735
52643W        W21116  43.479  20.105  11.976
52644W        W21117  39.034  39.384  12.517
52645W        W21118   2.413  34.012   4.783
52646W        W21119  37.406  14.289  13.512
52647W        W21120   5.371  22.231  13.794
52648W        W21121   1.256   0.951   0.414
52649W        W21122  19.243   3.853   0.447
52650W        W21123  29.553  12.643   4.812
52651W        W21124  32.921   3.253   1.379
52652W        W21125   9.890  17.703   2.313
52653W        W21126  26.459  44.454  13.809
52654W        W21127  25.105  29.552  11.981
52655W        W21128  43.440   4.699  14.445
52656W        W21129   7.300  11.840  13.548
52657W        W21130  15.591  11.854  14.327
52658W        W21131  22.086  17.640   4.197
52659W        W21132  44.329  13.644  14.410
52660W        W21133  36.923  11.364  10.940
52661W        W21134  27.632  16.072   2.803
52662W        W21135  34.062  24.050   2.793
52663W        W21136  19.058   3.382   0.262
52664W        W21137  11.698  19.153   3.348
52665W        W21138  40.376  23.236  11.915
52666W        W21139   8.361   8.879   2.210
52667W        W21140  15.164  39.896  12.373
52668W        W21141   9.726  14.661  14.278
52669W        W21142  44.810  43.844   1.309
52670W        W21143  27.529  35.977   0.264
52671W        W21144  33.900   8.674   0.821
52672W        W21145  34.119  34.924  11.030
52673W        W21146  34.090   8.671   4.609
52674W        W21147  41.531   0.790   4.303
52675W        W21148   3.439  34.093  11.030
52676W        W21149  15.121  32.588   2.829
52677W        W21150  13.297  41.007  11.065
52678W        W21151  35.503  26.520  12.382
52679W        W21152  31.976  15.779   3.233
52680W        W21153   2.424  44.417   0.728
52681W        W21154  15.327  12.241   1.781
52682W        W21155  15.819  44.410   1.376
52683W        W21156  20.579  10.343   3.789
52684W        W21157  29.517  42.826   1.215
52685W        W21158  36.970  32.914  10.530
52686W        W21159  18.120  29.644   0.957
52687W        W21160  10.364  13.658   3.325
52688W        W21161  22.192  38.386  12.824
52689W        W21162  25.700   7.785  12.442
52690W        W21163  36.523  22.506  11.500
52691W        W21164  36.450   9.173   1.836
52692W        W21165  37.037   6.784   2.690
52693W        W21166   4.404  27.143   4.769
52694W        W21167  42.863  13.126  12.072
52695W        W21168   6.351  41.899  11.900
52696W        W21169  26.007   6.881  11.922
52697W        W21170  20.210  23.536  11.435
52698W        W21171  17.634  35.899  13.936
52699W        W21172   1.964  21.190  12.950
52700W        W21173   4.304  43.350   1.831
52701W        W21174  35.039  24.713   1.298
52702W        W21175   2.899  16.210  13.395
52703W        W21176  23.524   2.352   3.832
52704W        W21177  25.622   0.307   9.942
52705W        W21178   0.476   9.307   1.431
52706W        W21179  30.613  16.242   3.159
52707W        W21180  44.006  11.786  11.892
52708W        W21181   3.280  30.577  11.544
52709W        W21182   8.849  11.257   4.169
52710W        W21183  35.907   1.817   3.224
52711W        W21184  18.774  35.947  13.524
52712W        W21185  33.486  33.555   3.235
52713W        W21186  26.501  17.137  12.844
52714W        W21187  38.928  18.787  12.950
52715W        W21188  44.843   7.286  13.869
52716W        W21189   6.311  40.471  13.408
52717W        W21190   0.929  39.319  10.418
52718W        W21191  39.019  18.595   4.615
52719W        W21192  28.542  25.517   0.962
52720W        W21193  44.873  26.681   1.905
52721W        W21194  28.454  40.928   4.261
52722W        W21195  41.398   1.851   0.864
52723W        W21196  25.092  12.726  12.506
52724W        W21197   5.831  28.035  14.354
52725W        W21198  42.296  17.714  13.976
52726W        W21199  11.687  18.639  10.421
52727W        W21200  42.429  23.734   1.925
52728W        W21201  41.345  32.633  10.956
52729W        W21202  33.578   0.852   2.692
52730W        W21203  28.465   2.264  10.924
52731W        W21204  30.077  41.940   4.333
52732W        W21205   0.773  31.143  13.005
52733W        W21206  42.463   3.892  14.981
52734W        W21207  28.161  39.971   0.247
52735W        W21208   8.366  28.660  12.005
52736W        W21209  12.799  12.765   4.651
52737W        W21210   2.421   5.744   3.369
52738W        W21211   7.361  21.197   4.121
52739W        W21212   0.763  44.901   4.303
52740W        W21213   5.382  25.020   4.710
52741W        W21214   6.711  19.535  11.875
52742W        W21215   0.335  17.168  14.402
52743W        W21216  10.150  28.501  10.423
52744W        W21217  25.650  19.689  11.553
52745W        W21218   0.489  42.856   9.961
52746W        W21219  38.056   3.743   3.172
52747W        W21220  38.331   5.761   2.730
52748W        W21221  13.703   7.201  12.839
52749W        W21222  24.508  27.458   0.336
52750W        W21223   5.310  11.822   4.759
52751W        W21224  35.425  18.265  12.059
52752W        W21225  36.930  21.745   3.757
52753W        W21226  39.022  12.758   0.465
52754W        W21227  31.009  19.091   4.267
52755W        W21228   3.273  33.876  13.958
52756W        W21229  18.106  18.197   3.747
52757W        W21230  31.560  39.439   2.734
52758W        W21231   8.706  19.114   1.420
52759W        W21232  34.927  13.146  13.362
52760W        W21233  12.642  36.410   4.338
52761W        W21234   1.447  42.932  14.495
52762W        W21235  30.921  38.558   1.727
52763W        W21236  37.570  30.652  13.347
52764W        W21237  13.246  42.929   4.196
52765W        W21238  12.178  25.661  14.319
52766W        W21239  41.446   4.287   1.273
52767W        W21240  34.393  16.120  13.345
52768W        W21241  28.085  33.983  10.601
52769W        W21242  33.484  15.685  13.015
52770W        W21243  17.661  19.216  11.432
52771W        W21244   9.789  34.887   5.126
52772W        W21245  33.424  43.767   1.863
52773W        W21246   1.804  18.746  12.484
52774W        W21247  21.110  38.497  10.962
52775W        W21248  16.720   0.965  12.486
52776W        W21249  26.164  14.589   0.335
52777W        W21250  38.047  32.017   0.376
52778W        W21251  29.528  19.575   0.964
52779W        W21252  32.138  41.423   1.311
52780W        W21253  42.821  44.406  12.850
52781W        W21254   3.426  31.411   0.379
52782W        W21255  37.512  33.421   1.229
52783W        W21256   3.810  25.195  14.319
52784W        W21257  30.486  39.053  11.473
52785W        W21258  20.167  25.109  13.987
52786W        W21259  10.360  31.060   0.419
52787W        W21260  37.535   3.429  11.053
52788W        W21261  21.052  10.192   3.784
52789W        W21262  29.173  20.737  14.464
52790W        W21263  28.506  27.127  14.336
52791W        W21264  25.157   2.226   4.135
52792W        W21265   5.403  43.338   4.183
52793W        W21266  21.656  21.698   4.355
52794W        W21267  41.505  39.468   2.724
52795W        W21268  20.753  28.548  12.991
52796W        W21269  31.643  23.520  11.521
52797W        W21270  38.409  12.161   1.921
52798W        W21271  13.212  30.002  10.596
52799W        W21272  29.971   4.296  11.033
52800W        W21273  17.210  19.660  10.092
52801W        W21274   7.258  33.528  14.332
52802W        W21275  34.902  35.408  11.491
52803W        W21276  19.243  23.027  13.955
52804W        W21277  19.666  20.213  13.004
52805W        W21278   1.891  32.982   4.837
52806W        W21279  34.513  41.447   4.838
52807W        W21280  14.833  37.568  11.076
52808W        W21281   3.880   2.790  12.342
52809W        W21282  13.679  43.462   3.364
52810W        W21283   3.907  19.560   1.695
52811W        W21284  39.992  29.619  13.347
52812W        W21285   4.933   0.819   3.758
52813W        W21286  12.199  33.443   1.798
52814W        W21287   1.967   2.776   1.714
52815W        W21288  42.008  25.194  11.467
52816W        W21289  18.712  24.572  13.349
52817W        W21290  23.210  34.453  12.369
52818W        W21291  21.607  32.574  14.970
52819W        W21292  38.019  24.122  13.413
52820W        W21293   3.434  38.054   3.733
52821W        W21294  17.215  19.166  12.456
52822W        W21295  26.478  32.073  13.478
52823W        W21296  17.081  12.770  13.399
52824W        W21297  14.118   5.849  11.482
52825W        W21298  35.994  13.636  10.972
52826W        W21299  24.695  42.382  10.903
52827W        W21300  29.059  26.181  11.887
52828W        W21301   9.793  19.125  14.293
52829W        W21302  18.656  34.113   4.325
52830W        W21303  14.798  27.958  11.874
52831W        W21304  43.856  25.549   4.142
52832W        W21305   9.351  37.930   3.297
52833W        W21306  25.486   6.378   1.859
52834W        W21307  26.579  38.407  11.445
52835W        W21308  23.493  41.357  14.510
52836W        W21309  41.402  41.366  14.407
52837W        W21310  32.533  19.571  12.015
52838W        W21311  18.210  25.150   0.436
52839W        W21312  14.307  15.309  10.959
52840W        W21313  13.246  36.880   0.345
52841W        W21314  19.646  21.255   0.826
52842W        W21315  41.403  28.499   1.442
52843W        W21316  13.203   8.163  13.442
52844W        W21317  33.027  34.958  14.857
52845W        W21318  21.150  24.601  12.340
52846W        W21319   0.300   8.850   0.456
52847W        W21320  29.612  43.979  14.288
52848W        W21321  14.309  19.573  12.055
52849W        W21322  21.576  14.700  13.873
52850W        W21323  42.368   1.976  12.580
52851W        W21324   7.688  34.470   4.669
52852W        W21325  16.586  13.768  13.484
52853W        W21326  12.269   6.716  11.036
52854W        W21327   6.240  32.617   4.241
52855W        W21328   4.261  15.697  13.461
52856W        W21329  11.712  27.953  11.497
52857W        W21330   8.211   9.645  11.446
52858W        W21331  27.534  15.626   3.771
52859W        W21332   0.345   5.387  12.525
52860W        W21333  32.016  26.669  12.056
52861W        W21334  14.162  16.658   2.763
52862W        W21335  36.522  18.735  12.845
52863W        W21336  32.931  29.640   4.342
52864W        W21337  38.872  42.001   4.262
52865W        W21338  12.843  21.640  12.430
52866W        W21339  26.050  33.950  12.984
52867W        W21340  18.279  13.773   1.349
52868W        W21341  26.461  15.206  14.487
52869W        W21342  37.441  30.934  11.431
52870W        W21343   2.774   8.726  11.461
52871W        W21344  38.392  36.471   1.226
52872W        W21345   2.941   3.944  11.599
52873W        W21346   1.411  32.901  11.004
52874W        W21347  14.288  19.640   0.766
52875W        W21348  21.254   8.790   2.801
52876W        W21349  24.524  44.895  10.477
52877W        W21350  27.589  24.486   2.703
52878W        W21351   0.274  37.075  14.326
52879W        W21352  31.502  17.098  14.946
52880W        W21353   7.251   6.181   0.939
52881W        W21354  13.337  22.665  10.147
52882W        W21355   3.222  14.329  10.411
52883W        W21356  11.783  14.606  11.450
52884W        W21357  27.130  20.724   4.251
52885W        W21358  35.885  27.527   3.276
52886W        W21359  40.501  28.017  13.315
52887W        W21360   8.789  30.505   4.222
52888W        W21361  39.467  30.579   2.219
52889W        W21362  24.486  41.495   1.221
52890W        W21363  18.264  15.228  12.452
52891W        W21364  15.787  41.955   5.126
52892W        W21365  37.835  11.635  11.987
52893W        W21366  33.976  28.117   3.351
52894W        W21367  32.534  41.320   4.671
52895W        W21368  25.613  30.534   5.291
52896W        W21369  21.744  38.857  14.032
52897W        W21370  10.355  26.078   0.325
52898W        W21371   0.834  36.029  14.862
52899W        W21372   8.835  43.950   1.722
52900W        W21373  31.906  42.858  13.317
52901W        W21374   4.941  16.177   2.185
52902W        W21375  43.304   1.874  13.841
52903W        W21376  20.747  10.273  13.497
52904W        W21377  28.064  24.490  14.800
52905W        W21378  26.663   1.966  13.397
52906W        W21379  33.414  18.661   3.804
52907W        W21380   4.707  36.353   4.817
52908W        W21381   6.197   2.772  12.398
52909W        W21382   2.321  26.106   1.756
52910W        W21383  43.016  37.992  12.078
52911W        W21384  27.051  15.634   3.216
52912W        W21385  16.210  11.748  14.024
52913W        W21386  44.325  43.436  12.390
52914W        W21387   9.229  43.874  11.049
52915W        W21388  37.026  24.989  12.340
52916W        W21389  15.235  43.974   3.282
52917W        W21390   8.328  17.266   4.279
52918W        W21391  16.083  40.821   1.276
52919W        W21392   8.349  38.837  13.006
52920W        W21393  34.411  17.790  11.545
52921W        W21394  32.455  25.593   2.356
52922W        W21395  21.568  30.498   3.839
52923W        W21396  22.551   8.763  13.334
52924W        W21397  23.183  26.684   4.656
52925W        W21398  25.090  40.843  13.473
52926W        W21399  28.097  22.518   0.298
52927W        W21400  33.986  43.330   3.656
52928W        W21401  29.993   4.267   3.155
52929W        W21402  40.428  10.731   4.297
52930W        W21403  11.766  20.215  10.628
52931W        W21404  15.622  19.642  14.851
52932W        W21405  36.031   0.966  11.397
52933W        W21406  10.296   2.794   9.926
52934W        W21407   9.342   2.810  11.960
52935W        W21408  30.019  28.540  10.512
52936W        W21409  33.023  15.697  10.605
52937W        W21410  40.415  39.016   2.295
52938W        W21411   0.454  34.942   3.186
52939W        W21412  19.713  20.716  11.116
52940W        W21413  32.950  28.627  13.814
52941W        W21414  21.646  18.122   2.269
52942W        W21415  14.611  13.603   0.277
52943W        W21416  28.681  38.065  11.956
52944W        W21417  17.613  31.588   3.308
52945W        W21418  22.151  13.600   4.832
52946W        W21419  26.656  36.556  10.451
52947W        W21420  21.127  32.425   3.265
52948W        W21421   8.854  16.808  11.472
52949W        W21422  44.804   4.914  12.498
52950W        W21423   8.774   3.375  11.479
52951W        W21424  39.011  18.193  13.973
52952W        W21425  32.607   1.348   4.131
52953W        W21426  17.717  37.544  12.972
52954W        W21427  30.510  12.304   3.647
52955W        W21428  17.742   3.437   4.134
52956W        W21429  32.118  27.168  13.502
52957W        W21430  41.947  12.637  10.115
52958W        W21431  30.090  24.118  13.948
52959W        W21432  28.480  30.542  14.430
52960W        W21433   1.867  19.225   2.314
52961W        W21434  22.227  43.309  11.477
52962W        W21435  34.554  18.230  14.295
52963W        W21436   7.911   2.443   4.181
52964W        W21437   0.784  13.293  11.570
52965W        W21438  30.162  18.780  10.606
52966W        W21439  39.056   2.410   5.296
52967W        W21440   8.658  41.042  13.847
52968W        W21441  43.516  27.584  10.531
52969W        W21442  11.271  29.540   4.639
52970W        W21443  28.435  16.778  12.888
52971W        W21444  14.263   9.676   2.374
52972W        W21445  16.655   6.751  12.852
52973W        W21446  39.876  20.081  12.363
52974W        W21447  37.432  12.158  13.480
52975W        W21448  41.405  25.083  12.345
52976W        W21449  17.612  13.254   4.657
52977W        W21450   2.409  15.110  13.387
52978W        W21451  17.078   7.720  12.938
52979W        W21452  20.538  20.086   2.780
52980W        W21453  42.384  18.717   0.760
52981W        W21454  21.630   0.968   0.422
52982W        W21455  25.055   6.330   2.828
52983W        W21456   3.324  44.268  13.010
52984W        W21457  36.954  42.901  12.455
52985W        W21458  15.687  27.086   3.160
52986W        W21459  26.081  17.622  11.590
52987W        W21460  28.960  26.137   0.374
52988W        W21461  40.322   2.883  10.975
52989W        W21462  44.375  20.114   3.301
52990W        W21463  16.076  31.455   1.844
52991W        W21464   5.400  19.777  12.385
52992W        W21465   3.216  14.125   2.811
52993W        W21466  20.088  38.065   2.401
52994W        W21467   9.889   7.694  12.491
52995W        W21468  30.100  24.558   0.747
52996W        W21469  14.652  42.344   0.398
52997W        W21470   9.647  42.930   4.605
52998W        W21471  42.845   8.663   3.646
52999W        W21472  43.467  19.239  10.482
53000W        W21473  17.079  21.249   2.837
53001W        W21474  13.226  41.803  12.410
53002W        W21475  35.489   8.823  13.902
53003W        W21476  21.102   6.319   3.288
53004W        W21477  11.708  39.849  14.501
53005W        W21478  13.683  23.069  10.976
53006W        W21479   9.341  40.427  11.465
53007W        W21480  37.356  16.687   4.197
53008W        W21481  36.406  27.532  12.496
53009W        W21482   4.929  14.792  11.410
53010W        W21483   9.679  24.168   2.403
53011W        W21484  27.600  16.720   0.885
53012W        W21485  25.105   8.865  13.910
53013W        W21486  20.049  43.481   4.750
53014W        W21487  11.729  14.163  11.493
53015W        W21488   9.675   2.921   3.341
53016W        W21489  28.035   2.940  11.453
53017W        W21490   7.739   9.853   4.657
53018W        W21491  37.521   0.754   5.204
53019W        W21492  31.401  29.653  14.912
53020W        W21493  16.598  31.494   2.343
53021W        W21494   7.358  22.618   3.160
53022W        W21495  22.502   6.194   3.354
53023W        W21496  34.462  13.328   3.728
53024W        W21497  33.879  42.786   2.284
53025W        W21498   4.267  19.641   1.363
53026W        W21499  27.992  15.127  10.615
53027W        W21500  20.726  11.159  10.575
53028W        W21501  11.324  19.083   0.477
53029W        W21502   4.894  24.534   5.109
53030W        W21503  28.504  30.123  13.935
53031W        W21504  25.515  20.134   1.382
53032W        W21505  17.239  40.874  14.376
53033W        W21506  13.697  40.314  14.848
53034W        W21507  14.320  30.056   4.243
53035W        W21508  23.717   1.732   4.694
53036W        W21509  41.382   6.846  11.897
53037W        W21510  26.590  26.497  10.098
53038W        W21511  34.941   5.405  11.075
53039W        W21512  30.446   0.263   2.406
53040W        W21513  25.127   7.208  13.888
53041W        W21514   6.788  40.533   4.650
53042W        W21515  16.198  35.038  12.847
53043W        W21516  41.427  23.183   2.711
53044W        W21517  20.081  18.061   3.759
53045W        W21518  36.933   0.350  10.430
53046W        W21519  13.661  33.434  14.817
53047W        W21520  36.950  23.121   4.275
53048W        W21521  36.373   5.909   0.828
53049W        W21522  28.456  12.718  14.823
53050W        W21523  11.798  15.302  11.558
53051W        W21524  32.963   6.751   4.786
53052W        W21525  18.171  23.230   2.295
53053W        W21526   6.728   6.777   2.392
53054W        W21527  14.797  44.977   1.761
53055W        W21528  39.921  32.955  12.952
53056W        W21529  18.603  40.989  12.475
53057W        W21530  32.561  12.192   2.822
53058W        W21531  16.578  42.381  11.414
53059W        W21532   5.834  35.410   2.718
53060W        W21533   6.708  12.653   4.203
53061W        W21534  31.643  27.649  14.859
53062W        W21535  14.320   8.876  11.378
53063W        W21536  15.257   3.925   4.698
53064W        W21537  25.657  15.614  14.020
53065W        W21538  44.500  18.576   1.768
53066W        W21539  16.308  26.966   3.370
53067W        W21540  15.153  41.928   4.153
53068W        W21541  16.573  42.364   4.337
53069W        W21542  39.888  14.827  11.555
53070W        W21543  20.640  19.158  12.090
53071W        W21544  30.454  15.278   3.213
53072W        W21545  28.175  43.509  12.937
53073W        W21546  39.984  10.855  10.987
53074W        W21547  40.883  41.820   1.694
53075W        W21548  12.266  43.941  11.583
53076W        W21549  34.094  44.278  11.114
53077W        W21550  17.581  33.009  11.992
53078W        W21551  39.416  27.571   4.232
53079W        W21552  42.007   9.725   2.888
53080W        W21553  40.531  33.533  14.798
53081W        W21554  24.644  32.515   3.714
53082W        W21555  12.158  21.526   0.887
53083W        W21556  32.928  21.253  10.600
53084W        W21557  43.438  10.849   2.718
53085W        W21558  35.406  20.592  14.029
53086W        W21559  33.936  11.780   2.694
53087W        W21560   8.708  25.046   2.720
53088W        W21561  37.510  36.470   0.272
53089W        W21562  36.875   6.902   3.761
53090W        W21563  14.123  40.832  14.979
53091W        W21564   5.902  26.531   2.263
53092W        W21565  11.801  14.809   1.347
53093W        W21566  12.742   9.669  12.848
53094W        W21567  41.842  25.013  14.956
53095W        W21568  26.098  27.449   0.879
53096W        W21569   6.699  43.913  11.875
53097W        W21570   0.405  37.467   1.743
53098W        W21571  18.178  33.399  12.472
53099W        W21572  10.647  26.174  11.572
53100W        W21573  43.455  15.612  14.360
53101W        W21574   0.416  40.526   1.421
53102W        W21575  35.424  38.431   0.315
53103W        W21576   7.323  31.128   4.610
53104W        W21577   3.353   7.302  14.813
53105W        W21578  18.086  22.163  14.817
53106W        W21579  21.224  15.247  14.801
53107W        W21580  38.992  34.478  13.420
53108W        W21581  35.604  17.225  13.040
53109W        W21582  44.461  41.798   1.821
53110W        W21583  39.828  44.337   1.901
53111W        W21584  33.102  41.975  14.282
53112W        W21585  23.138  29.463   3.220
53113W        W21586  35.047  24.561   0.846
53114W        W21587  40.875  12.350   2.883
53115W        W21588  36.578   2.470  11.125
53116W        W21589  43.002   5.854   2.844
53117W        W21590  14.754  36.474   2.690
53118W        W21591  39.953  30.468  12.993
53119W        W21592  20.179  23.084   0.304
53120W        W21593  40.007  35.406   4.201
53121W        W21594  20.530  13.330  10.122
53122W        W21595   5.865  32.568  14.405
53123W        W21596   0.463  29.959  14.008
53124W        W21597  22.671  40.510  14.281
53125W        W21598  23.122   5.369  14.870
53126W        W21599   2.772  37.006   2.218
53127W        W21600  31.120   7.784   2.891
53128W        W21601  24.626  11.137  10.583
53129W        W21602  40.995  24.022   4.649
53130W        W21603   1.833  31.527   4.702
53131W        W21604  16.311  18.568  11.408
53132W        W21605  36.562   6.682   4.761
53133W        W21606  19.187  44.850   2.867
53134W        W21607  11.751   1.915   1.830
53135W        W21608   2.352  37.346  13.026
53136W        W21609  38.347  37.353   0.457
53137W        W21610  15.649  32.428   0.264
53138W        W21611  40.416  18.085  11.871
53139W        W21612  29.986  28.044   0.926
53140W        W21613  11.657   4.317   4.199
53141W        W21614   6.421  15.761  12.510
53142W        W21615  36.986  18.140  14.959
53143W        W21616   8.813  20.189   1.770
53144W        W21617  24.703  20.636   2.365
53145W        W21618  31.591   2.889  12.572
53146W        W21619  33.453  41.503  12.452
53147W        W21620  42.323  30.963  11.072
53148W        W21621   8.702  25.597  14.411
53149W        W21622   0.811  28.606   3.301
53150W        W21623   3.270   5.224  12.456
53151W        W21624  25.164  19.696   0.389
53152W        W21625  18.579  21.039   0.339
53153W        W21626   8.825  24.605   4.828
53154W        W21627   7.880  43.280   1.262
53155W        W21628  28.471  37.938   4.742
53156W        W21629  18.138  41.949   3.296
53157W        W21630  36.477  31.059   3.779
53158W        W21631  40.378   1.271  12.556
53159W        W21632  17.248  26.034  14.383
53160W        W21633  28.050  44.844   4.256
53161W        W21634   0.314  43.906  13.413
53162W        W21635  28.102  33.942   0.920
53163W        W21636  33.121  26.001   4.799
53164W        W21637  31.599  11.653  11.510
53165W        W21638  40.485   3.873  14.791
53166W        W21639  40.366  14.735   2.342
53167W        W21640  18.637   3.332   4.763
53168W        W21641  32.464  24.705  13.997
53169W        W21642  24.711  23.549   3.739
53170W        W21643  10.786  15.777  13.372
53171W        W21644  36.453  28.016   3.640
53172W        W21645  29.116  36.942  10.910
53173W        W21646  13.322  28.506  12.369
53174W        W21647  40.832  37.831   0.914
53175W        W21648   6.920  22.996  13.883
53176W        W21649  36.952  27.191  13.827
53177W        W21650  32.447  17.580  11.941
53178W        W21651  35.909  25.632  11.862
53179W        W21652  30.433   2.419   1.700
53180W        W21653  40.953  41.040   2.666
53181W        W21654   6.695  28.489  13.388
53182W        W21655  29.163   8.850   3.862
53183W        W21656  44.955  31.011  12.524
53184W        W21657  28.458  32.030   3.861
53185W        W21658   3.301   7.185  13.468
53186W        W21659  15.210   3.720   3.760
53187W        W21660   8.382  26.984   0.333
53188W        W21661  18.174  10.142   1.913
53189W        W21662  15.585  27.151   4.666
53190W        W21663  38.370  12.660   3.797
53191W        W21664  27.600  28.614  11.925
53192W        W21665  34.929   7.904  11.438
53193W        W21666  19.650  42.905  13.887
53194W        W21667  36.368   2.244  11.410
53195W        W21668  25.559  31.436  10.938
53196W        W21669   6.409  15.587   3.212
53197W        W21670   9.328  24.985   9.942
53198W        W21671  14.292   2.256   3.782
53199W        W21672  15.740   8.888   3.860
53200W        W21673   2.915   3.756   2.341
53201W        W21674  27.683  17.703   3.854
53202W        W21675  15.656  24.694  13.397
53203W        W21676  28.467  32.498   4.272
53204W        W21677  17.695  36.959  13.906
53205W        W21678  44.885  10.331  13.837
53206W        W21679   5.857  29.595  10.902
53207W        W21680  16.650  13.138  14.841
53208W        W21681  42.963  18.203  12.839
53209W        W21682   8.395  11.335  14.469
53210W        W21683   6.771  35.094   0.373
53211W        W21684   2.836  30.455  10.529
53212W        W21685  28.136  13.697   2.252
53213W        W21686  32.018  25.181  10.988
53214W        W21687  17.177  23.733  14.505
53215W        W21688  40.539  14.108   1.732
53216W        W21689  28.487  34.874  11.066
53217W        W21690  13.351  15.129  11.101
53218W        W21691  26.531   4.872   0.469
53219W        W21692   6.897  21.529   0.843
53220W        W21693   0.895   5.687  13.046
53221W        W21694   3.409  43.873   3.311
53222W        W21695  11.130  30.616   0.814
53223W        W21696  42.485  41.503  13.051
53224W        W21697  13.226  31.596  11.046
53225W        W21698  16.736  43.816   4.718
53226W        W21699   5.841  30.004   4.139
53227W        W21700  16.789   4.814  11.490
53228W        W21701  35.907  17.250   3.652
53229W        W21702  43.840   7.289   4.243
53230W        W21703  23.128  29.499   2.782
53231W        W21704  30.022  44.390   2.800
53232W        W21705  18.233  12.256  11.373
53233W        W21706  14.773   9.850   1.922
53234W        W21707   2.232   3.761  10.420
53235W        W21708  44.480  36.054   0.268
53236W        W21709  21.622  35.550  14.336
53237W        W21710   2.381  43.946  11.453
53238W        W21711  21.142  34.436  14.449
53239W        W21712  27.953  16.709  11.429
53240W        W21713   4.292  32.103  11.603
53241W        W21714  35.963  33.562  14.416
53242W        W21715   4.250   1.753   1.783
53243W        W21716  18.672  19.697   1.820
53244W        W21717  40.507   1.818   3.364
53245W        W21718  22.714  17.746   3.321
53246W        W21719  12.817   0.929  13.895
53247W        W21720  20.749  27.999   0.405
53248W        W21721  42.285   8.661  14.818
53249W        W21722  27.979  13.258  11.091
53250W        W21723  29.165  15.685  14.790
53251W        W21724  30.954  42.886  11.096
53252W        W21725  39.982   6.344   4.658
53253W        W21726  28.635  18.679   1.753
53254W        W21727  33.933   8.183  10.901
53255W        W21728  21.052   0.826  11.991
53256W        W21729  15.684  10.277  12.508
53257W        W21730  14.747  40.810  10.594
53258W        W21731   3.452  17.575  14.340
53259W        W21732   4.875  30.462  11.881
53260W        W21733  32.951  39.499  11.532
53261W        W21734  18.754  16.613  11.050
53262W        W21735  27.473   6.864   1.764
53263W        W21736  19.695  40.505   4.711
53264W        W21737  14.757   0.376  11.929
53265W        W21738  37.545  25.006   1.778
53266W        W21739  26.952   4.817  11.015
53267W        W21740  42.347   5.347  13.827
53268W        W21741  18.104   2.843  11.005
53269W        W21742  18.691  44.291  10.901
53270W        W21743  13.225  31.550   0.862
53271W        W21744  43.342  40.984   4.196
53272W        W21745  23.074  12.263   0.357
53273W        W21746  38.022  22.244  10.513
53274W        W21747  44.263  12.837  10.121
53275W        W21748   0.439   0.888  14.404
53276W        W21749  15.640  35.902  12.463
53277W        W21750  36.380  22.551  12.387
53278W        W21751  44.293  40.997  13.514
53279W        W21752  44.977  19.732   0.367
53280W        W21753   6.803  29.430   4.244
53281W        W21754  38.489   0.450  13.830
53282W        W21755  19.236   4.758  11.001
53283W        W21756  21.594  22.534   2.698
53284W        W21757  41.818  19.230   0.312
53285W        W21758   2.254  21.577   4.695
53286W        W21759  10.682  15.698   9.995
53287W        W21760  44.785  31.537   3.751
53288W        W21761   6.382   0.786   4.766
53289W        W21762   2.334  23.143  12.865
53290W        W21763  11.654  33.061  13.007
53291W        W21764  39.943  30.996  12.031
53292W        W21765  32.557  17.083   3.782
53293W        W21766  40.507  24.572   0.290
53294W        W21767  17.120   2.345  12.858
53295W        W21768  26.057  18.594  12.083
53296W        W21769  10.747  26.603   0.758
53297W        W21770  41.880  35.033  10.966
53298W        W21771   9.758  19.099   4.135
53299W        W21772   9.296  36.048  10.610
53300W        W21773  14.299  42.522   4.653
53301W        W21774  10.301  16.250   3.756
53302W        W21775  39.420  32.053   2.250
53303W        W21776  40.023  37.514   0.334
53304W        W21777  26.986  18.703   1.430
53305W        W21778  31.069  13.157  12.459
53306W        W21779  26.582   7.352  13.381
53307W        W21780  44.975  23.672  10.551
53308W        W21781  13.662  19.651  11.925
53309W        W21782  44.993  24.213  12.364
53310W        W21783  30.158   3.921   3.344
53311W        W21784  17.694  38.540  14.477
53312W        W21785  36.534  22.577   3.177
53313W        W21786  34.612  28.548  11.957
53314W        W21787  23.147  24.056   1.217
53315W        W21788  16.262  34.875   3.260
53316W        W21789  21.598  21.029  14.861
53317W        W21790  35.082   5.840   3.689
53318W        W21791  12.260  24.586   0.288
53319W        W21792  36.986   4.403   1.855
53320W        W21793   4.244   8.750  11.506
53321W        W21794  27.661  13.840  11.604
53322W        W21795  40.939  41.487   2.840
53323W        W21796  13.788  38.058  10.984
53324W        W21797   8.309  38.926   2.357
53325W        W21798  28.119  24.152   0.366
53326W        W21799  36.525   0.944   5.183
53327W        W21800  40.500  19.539  11.418
53328W        W21801  24.660  25.066   2.219
53329W        W21802   1.406   8.715   0.286
53330W        W21803  15.753  40.025  10.993
53331W        W21804   0.876   3.445   4.820
53332W        W21805  33.557  20.531   2.330
53333W        W21806  20.086  24.655  11.579
53334W        W21807  13.198  32.569  10.515
53335W        W21808  34.608  30.053   1.409
53336W        W21809  39.531   3.275   3.715
53337W        W21810   9.693   6.697   2.792
53338W        W21811   8.897   2.463   4.734
53339W        W21812  39.396  40.472  12.085
53340W        W21813  15.242   4.934  13.459
53341W        W21814  14.247   0.414   3.859
53342W        W21815   8.203  40.054  10.558
53343W        W21816  38.045  25.075  10.101
53344W        W21817  16.623  32.515  14.324
53345W        W21818  27.971  35.109   0.822
53346W        W21819  16.101  40.371   0.841
53347W        W21820   5.227   4.825  11.462
53348W        W21821  12.181  27.096  12.943
53349W        W21822  42.382   9.294  12.450
53350W        W21823  25.682  38.057  14.851
53351W        W21824  25.052  15.250   1.250
53352W        W21825  34.065  43.441   9.451
53353W        W21826   1.440  38.541   3.268
53354W        W21827  20.718   7.693  12.086
53355W        W21828   2.403  30.477  13.797
53356W        W21829  27.454  39.006  11.024
53357W        W21830   2.346  35.079  11.048
53358W        W21831  36.431   1.878  13.317
53359W        W21832  38.522   4.312  14.969
53360W        W21833   2.471  18.239  13.336
53361W        W21834   1.783  44.425   1.361
53362W        W21835  32.465  32.399   1.289
53363W        W21836   4.340   3.830  10.546
53364W        W21837  19.220   0.337   1.300
53365W        W21838  26.014  35.870   4.788
53366W        W21839  44.382  33.913   2.196
53367W        W21840  42.786   4.752  13.012
53368W        W21841  24.139  41.444   3.653
53369W        W21842  24.991  12.659   2.395
53370W        W21843  13.647  25.576  13.852
53371W        W21844   9.281  27.649  14.274
53372W        W21845  44.968  11.711   2.332
53373W        W21846   8.167  14.654   0.801
53374W        W21847  25.535  34.103  11.071
53375W        W21848  22.675  11.758   1.738
53376W        W21849   8.335   2.796  11.026
53377W        W21850  28.676  11.347   3.217
53378W        W21851  33.127  41.443  14.911
53379W        W21852  11.777  15.086  14.306
53380W        W21853  38.445  14.202  11.489
53381W        W21854   4.772  13.244   1.880
53382W        W21855   0.315  28.671   2.673
53383W        W21856  42.365   2.297   4.614
53384W        W21857  23.151  28.958   3.325
53385W        W21858   5.731   6.268  10.577
53386W        W21859   9.160  30.615  10.969
53387W        W21860  35.934   7.858   0.472
53388W        W21861  16.777   1.812   4.330
53389W        W21862  36.551  32.057  10.498
53390W        W21863  37.397   6.273   1.431
53391W        W21864  14.630   8.175   0.350
53392W        W21865  39.064  17.222  13.912
53393W        W21866   7.782   9.726   3.858
53394W        W21867   4.862   4.885  11.033
53395W        W21868  21.666  38.888   1.781
53396W        W21869  20.534   6.904   4.283
53397W        W21870  25.709  27.022   1.306
53398W        W21871  41.945   1.400   3.705
53399W        W21872  24.991  26.583  10.144
53400W        W21873  21.177   3.892   2.417
53401W        W21874   5.766  33.589  10.915
53402W        W21875  10.318   9.796   5.213
53403W        W21876  40.428  32.412   3.203
53404W        W21877  44.894  28.613  10.441
53405W        W21878   4.432  12.643   3.722
53406W        W21879  11.734   8.294   4.730
53407W        W21880  40.520  16.801   1.398
53408W        W21881   1.765  43.436   2.224
53409W        W21882   9.675  13.843   0.962
53410W        W21883  27.067  16.169   0.302
53411W        W21884  38.934  43.305  11.870
53412W        W21885  20.718   8.778  12.961
53413W        W21886   3.714   6.822   0.774
53414W        W21887   9.195  31.898  10.456
53415W        W21888  25.114  10.813  12.015
53416W        W21889  37.507  44.292  12.412
53417W        W21890   6.708  30.019  12.876
53418W        W21891  12.147  27.131  11.859
53419W        W21892  18.641  37.049   2.336
53420W        W21893   7.869  31.074   0.733
53421W        W21894  31.627  35.103  12.069
53422W        W21895  35.918   0.892  12.560
53423W        W21896  30.543  37.398  10.940
53424W        W21897  26.110  20.209   3.179
53425W        W21898   0.783   8.212   1.411
53426W        W21899  20.684  24.602   0.469
53427W        W21900  19.678  37.375  10.588
53428W        W21901  37.574  19.537   4.739
53429W        W21902   1.419  20.725   0.377
53430W        W21903  29.544   4.220   1.748
53431W        W21904   4.867   5.219   4.636
53432W        W21905   1.921   8.708   5.172
53433W        W21906  44.417  25.047   2.737
53434W        W21907  35.417  14.807   0.843
53435W        W21908  25.972  13.615  11.525
53436W        W21909  37.564   3.373  14.969
53437W        W21910  41.340  36.883  12.954
53438W        W21911   3.381  15.093  12.442
53439W        W21912  43.844   6.210  10.937
53440W        W21913  43.994   5.297   1.905
53441W        W21914  27.102   7.904   4.274
53442W        W21915  25.542  15.793  10.538
53443W        W21916  39.987  15.089   3.823
53444W        W21917  39.833   9.708  14.316
53445W        W21918  35.378  34.035   4.233
53446W        W21919  22.538   4.268   4.805
53447W        W21920  25.553   1.386   9.512
53448W        W21921  23.194  18.273   1.261
53449W        W21922  43.506  18.790  11.025
53450W        W21923  38.475  30.074  12.047
53451W        W21924  13.336  30.146  12.887
53452W        W21925  29.592   8.315   0.818
53453W        W21926   0.872  16.226  10.956
53454W        W21927  33.550  41.434   0.734
53455W        W21928  42.004  39.912  10.978
53456W        W21929  35.571  28.039  13.338
53457W        W21930  23.164  37.960  12.959
53458W        W21931  14.219   4.877   4.283
53459W        W21932  17.600  32.541  13.921
53460W        W21933   4.208  33.521   0.380
53461W        W21934  43.848  25.644   1.411
53462W        W21935  27.943   1.828  13.892
53463W        W21936  36.973  16.744   2.263
53464W        W21937  14.652   8.707   2.770
53465W        W21938  39.520  14.119  12.917
53466W        W21939   0.767  17.275  13.520
53467W        W21940  40.008  28.014  12.892
53468W        W21941   3.767   2.448   1.339
53469W        W21942  30.579  20.762   4.137
53470W        W21943   7.281  39.372   2.259
53471W        W21944   4.872   8.731   3.796
53472W        W21945  21.129  11.194  10.033
53473W        W21946  21.032  29.496  12.075
53474W        W21947  33.604  43.462  11.991
53475W        W21948  26.049  10.355   2.361
53476W        W21949  26.541  10.637   3.227
53477W        W21950  10.868   7.788   3.660
53478W        W21951  24.224  38.553  13.039
53479W        W21952  39.322  44.808   3.150
53480W        W21953   4.371  35.602  12.068
53481W        W21954   8.669  43.960   2.271
53482W        W21955   2.842  14.748  13.859
53483W        W21956   3.369  37.408   1.735
53484W        W21957  42.422  11.772   1.349
53485W        W21958  22.534  19.585  13.542
53486W        W21959   2.836   8.305   4.614
53487W        W21960   0.374  13.794  12.946
53488W        W21961  43.515  25.567   0.477
53489W        W21962   7.851  36.576  10.565
53490W        W21963  29.512  25.187  12.888
53491W        W21964  13.257  22.032  14.448
53492W        W21965  30.062  41.421   4.180
53493W        W21966  31.009  32.955   0.760
53494W        W21967  14.818  29.059   3.681
53495W        W21968   8.706   0.383   3.644
53496W        W21969  14.123  10.767  10.497
53497W        W21970   9.680  23.121   5.202
53498W        W21971  35.968  18.769   1.704
53499W        W21972  10.721  27.025  13.854
53500W        W21973  21.718   4.851   3.213
53501W        W21974  29.018  28.017   0.443
53502W        W21975  38.833  24.027  14.951
53503W        W21976  22.505  23.731  12.528
53504W        W21977  16.237   0.474   4.611
53505W        W21978  42.968   4.243   4.617
53506W        W21979  18.727  29.077   4.127
53507W        W21980  35.068  20.212   0.880
53508W        W21981  27.647   5.399   1.282
53509W        W21982  22.597   1.781   5.287
53510W        W21983   8.707  24.035   3.741
53511W        W21984  23.528   8.265   3.291
53512W        W21985  39.003  21.139  13.317
53513W        W21986  21.512  24.050  11.001
53514W        W21987  43.373  15.719   1.251
53515W        W21988  27.106   0.468   4.135
53516W        W21989  11.173  11.731   1.782
53517W        W21990  11.826  41.015   0.449
53518W        W21991  32.570   6.266  13.442
53519W        W21992   6.757   1.329  10.452
53520W        W21993  24.501  28.148   4.289
53521W        W21994   2.782   1.788   3.843
53522W        W21995  37.389  41.501   2.691
53523W        W21996  33.391   1.443   2.716
53524W        W21997  29.527   9.808   3.329
53525W        W21998  28.128  30.504   4.198
53526W        W21999   1.263  18.255  13.364
53527W        W22000   3.744   5.274   2.787
53528W        W22001  13.702   6.290   3.203
53529W        W22002  43.491  31.616   0.269
53530W        W22003   5.263   7.697   3.156
53531W        W22004  31.916   1.798  11.965
53532W        W22005  21.608   0.460  12.366
53533W        W22006   8.236  21.525   4.666
53534W        W22007  14.281   6.757  14.940
53535W        W22008  33.526  32.119  13.895
53536W        W22009  15.687   9.712   3.255
53537W        W22010   9.328  41.021   4.266
53538W        W22011  32.964  42.451  12.955
53539W        W22012  34.613  19.173  10.469
53540W        W22013  22.009  38.459   0.854
53541W        W22014  36.943  26.117  13.039
53542W        W22015  36.478  11.333   3.151
53543W        W22016   3.398   1.752  12.838
53544W        W22017  35.576   2.917  13.986
53545W        W22018  25.562  23.104  13.976
53546W        W22019  14.140  29.960   4.718
53547W        W22020  35.374  26.176   3.649
53548W        W22021   4.284   4.424   4.718
53549W        W22022   8.862  22.656   3.238
53550W        W22023  32.949  41.870   3.665
53551W        W22024   3.863  10.638  13.840
53552W        W22025  31.468  27.596  13.492
53553W        W22026  27.001  33.503  11.115
53554W        W22027  35.589  41.313   4.634
53555W        W22028  28.147  12.729   2.782
53556W        W22029  23.532   5.420   2.200
53557W        W22030  21.614  40.863   1.739
53558W        W22031  27.037  13.226  13.014
53559W        W22032  36.989  23.022  14.897
53560W        W22033  12.241   6.911  13.329
53561W        W22034  24.228  39.481   3.762
53562W        W22035   4.881  24.116  10.537
53563W        W22036  33.382  35.903   2.192
53564W        W22037  14.809  24.643  12.950
53565W        W22038  42.910  40.517   1.701
53566W        W22039   1.368  18.654   2.864
53567W        W22040   7.687  11.838  10.408
53568W        W22041   2.964  31.092  11.529
53569W        W22042   7.735  19.585  12.966
53570W        W22043  44.767  41.504  14.317
53571W        W22044   0.939  17.753  14.972
53572W        W22045   3.370  23.702  13.431
53573W        W22046  34.566   6.248  13.022
53574W        W22047  36.448  28.067  10.416
53575W        W22048  32.105  11.670  14.982
53576W        W22049  26.061  32.551  11.083
53577W        W22050  10.335  12.797  12.371
53578W        W22051  25.533   1.328  10.490
53579W        W22052  31.143  15.589   2.296
53580W        W22053  31.142  18.645  12.958
53581W        W22054  41.874  26.665   1.712
53582W        W22055  14.241  37.405   3.303
53583W        W22056  34.520  44.494   3.688
53584W        W22057  44.313  19.232  11.986
53585W        W22058  36.423  27.190  12.459
53586W        W22059  24.115  13.791   1.254
53587W        W22060   8.796  18.069  12.354
53588W        W22061  28.963  44.369   2.378
53589W        W22062  24.001  29.106   1.403
53590W        W22063  18.133  31.565   0.946
53591W        W22064  31.008  39.875  14.335
53592W        W22065   6.888  37.417  13.511
53593W        W22066  30.473  28.636  11.974
53594W        W22067   3.784   3.787   3.248
53595W        W22068   4.717  42.970  14.483
53596W        W22069  24.616  15.299  13.794
53597W        W22070  25.508  13.664   2.856
53598W        W22071   5.853   5.815   4.281
53599W        W22072   3.947  35.068   2.681
53600W        W22073  14.239  15.196   3.800
53601W        W22074  19.190  27.129  13.997
53602W        W22075  29.068  31.139  11.405
53603W        W22076  16.187  23.151   3.639
53604W        W22077  31.471  15.214   4.614
53605W        W22078  20.597   4.723  12.953
53606W        W22079  19.678  35.053  11.911
53607W        W22080  40.035  35.971   1.285
53608W        W22081  33.024  25.042   2.706
53609W        W22082   2.327  37.575   4.670
53610W        W22083  24.225   8.262  11.543
53611W        W22084   6.681   4.216  11.474
53612W        W22085   3.366   7.271  12.979
53613W        W22086  19.261  28.144   3.857
53614W        W22087  28.653   0.779  11.452
53615W        W22088  31.077  16.111  14.852
53616W        W22089  43.472   1.373   3.862
53617W        W22090  35.426   3.875  12.942
53618W        W22091  13.245  13.239   4.709
53619W        W22092  12.340  15.756   4.236
53620W        W22093   3.350  39.020  10.522
53621W        W22094  27.543  10.158   0.309
53622W        W22095  28.092  42.925   1.358
53623W        W22096  28.604  13.809   1.768
53624W        W22097   7.232   1.896  11.578
53625W        W22098  21.105  25.158   9.951
53626W        W22099  11.290   7.359   4.287
53627W        W22100  35.539  31.049   1.834
53628W        W22101  22.089   9.207   1.904
53629W        W22102  33.612  35.407  14.499
53630W        W22103   2.331   6.764   2.727
53631W        W22104  39.560  23.996   4.314
53632W        W22105  37.417  16.075   2.723
53633W        W22106  44.991   8.215   4.604
53634W        W22107  27.118  22.224  11.545
53635W        W22108  21.067  26.006   4.259
53636W        W22109  44.350  14.597  10.635
53637W        W22110   3.764  39.941   4.228
53638W        W22111   2.867   1.429   4.230
53639W        W22112  34.524   0.887  11.515
53640W        W22113  32.545  17.229   1.318
53641W        W22114  24.618  37.352   2.748
53642W        W22115  34.556  12.797  11.032
53643W        W22116   9.230   9.268   4.639
53644W        W22117  35.507  36.582   2.718
53645W        W22118   4.238  37.848  12.014
53646W        W22119   3.844  40.859  14.782
53647W        W22120  29.016  41.950   3.379
53648W        W22121  35.882  17.712  10.983
53649W        W22122  40.933  31.027   2.296
53650W        W22123  43.967  13.712   2.736
53651W        W22124  14.627  11.273   2.406
53652W        W22125   8.666  22.165   4.634
53653W        W22126  35.458  30.055  11.548
53654W        W22127  19.773  37.911   4.231
53655W        W22128  34.914  14.624  11.438
53656W        W22129   9.756  18.067  13.311
53657W        W22130  38.447  13.241  11.036
53658W        W22131  24.127  37.051   4.183
53659W        W22132  26.583   3.438   1.774
53660W        W22133  35.058   4.208   1.222
53661W        W22134   8.191   6.393   3.277
53662W        W22135   0.435  10.182   0.906
53663W        W22136   7.204  11.686  12.885
53664W        W22137  33.548  25.991   3.666
53665W        W22138   0.987  44.294   0.401
53666W        W22139  34.600  24.982  14.994
53667W        W22140  18.724  35.598   1.451
53668W        W22141  25.595   6.394  13.396
53669W        W22142  34.614  33.934  10.637
53670W        W22143  29.570  37.561  14.312
53671W        W22144  29.429  39.374   1.764
53672W        W22145  39.956  43.775   0.251
53673W        W22146  26.650   5.316  12.015
53674W        W22147  14.590  40.424  10.441
53675W        W22148  15.639  24.114   0.243
53676W        W22149   0.823   6.247  11.401
53677W        W22150  40.471   2.448   1.925
53678W        W22151  16.253  21.219  11.576
53679W        W22152  14.765  40.520   1.859
53680W        W22153  17.750  11.203  14.775
53681W        W22154  13.676   7.247   3.859
53682W        W22155  22.583  10.380  14.396
53683W        W22156  11.331  22.241   4.130
53684W        W22157  15.693  36.064  14.471
53685W        W22158  26.478  40.892   4.223
53686W        W22159  29.549   7.749   1.322
53687W        W22160  42.413  11.261   1.890
53688W        W22161   9.343  30.569   3.812
53689W        W22162   0.347  25.063  13.832
53690W        W22163  32.480  36.993   0.482
53691W        W22164   8.163  34.600  11.505
53692W        W22165  35.014  27.040  12.993
53693W        W22166  31.140  14.595   1.861
53694W        W22167  13.350  16.794   0.330
53695W        W22168   0.386  27.582   0.380
53696W        W22169  12.747  17.109  12.419
53697W        W22170  39.948  14.287   0.322
53698W        W22171  10.707  40.500   0.861
53699W        W22172  15.186  44.264   4.311
53700W        W22173   2.743  19.712   1.331
53701W        W22174  30.546   1.316   0.365
53702W        W22175  22.019   7.887   1.281
53703W        W22176   4.326   1.301   0.375
53704W        W22177  24.669  44.291  12.345
53705W        W22178   9.174  33.583  10.496
53706W        W22179  33.021   4.882  14.936
53707W        W22180   1.473  36.986  10.615
53708W        W22181  10.846  18.694   4.190
53709W        W22182   6.914  38.529  11.385
53710W        W22183  29.128  26.521  12.367
53711W        W22184  16.233   1.940   2.723
53712W        W22185  15.088  44.338  11.887
53713W        W22186  23.608  43.291   4.177
53714W        W22187   7.216   0.833   3.177
53715W        W22188  27.528  11.207  10.479
53716W        W22189  38.032  30.458   0.845
53717W        W22190  32.102  37.542   3.665
53718W        W22191  37.042  15.778  13.938
53719W        W22192  32.994  28.064  12.353
53720W        W22193  11.824  39.518  10.975
53721W        W22194  16.707  41.391  14.964
53722W        W22195  17.660  18.661  11.090
53723W        W22196   5.254   7.884   1.868
53724W        W22197   0.799  31.071  11.113
53725W        W22198   8.728  44.317   4.228
53726W        W22199  26.651  28.005   1.431
53727W        W22200  34.538  17.656  10.641
53728W        W22201   2.416  25.568   2.778
53729W        W22202   6.185   2.763  10.604
53730W        W22203  24.225   0.465   5.804
53731W        W22204  30.130  35.538  12.867
53732W        W22205   2.963   8.275  10.579
53733W        W22206  44.357  10.686   2.251
53734W        W22207  29.656  12.740  13.432
53735W        W22208  14.734  12.640   3.710
53736W        W22209  43.395  15.221   1.430
53737W        W22210  18.222   8.860   4.689
53738W        W22211  28.546  23.109  10.412
53739W        W22212  11.298  40.395  13.051
53740W        W22213  29.610  39.930   3.830
53741W        W22214  40.547  39.821  13.950
53742W        W22215   5.309  24.097   3.722
53743W        W22216  15.715  40.354   9.649
53744W        W22217   0.941   4.313  14.283
53745W        W22218  13.157  42.922  13.962
53746W        W22219  13.599  11.349   3.641
53747W        W22220  42.293  36.490   3.169
53748W        W22221  12.336  35.986  13.795
53749W        W22222  40.852  15.127   2.405
53750W        W22223  32.131  43.872  10.981
53751W        W22224  18.281  14.138  13.522
53752W        W22225  23.670  14.669   2.826
53753W        W22226  40.039   6.758  11.001
53754W        W22227  39.482  17.293  11.563
53755W        W22228  43.774   4.852  12.927
53756W        W22229  43.387  10.358  12.960
53757W        W22230  31.962  34.089   1.316
53758W        W22231  37.877  25.712   0.318
53759W        W22232  25.975  11.780   4.702
53760W        W22233  18.126   8.731   1.326
53761W        W22234  39.881   5.195   3.354
53762W        W22235  42.981   6.344  13.494
53763W        W22236  39.542  10.165  13.941
53764W        W22237  29.643  39.899  10.483
53765W        W22238  16.698  14.105   1.813
53766W        W22239  37.857  28.182   4.673
53767W        W22240   6.891  33.953   0.957
53768W        W22241  44.779  37.357  12.394
53769W        W22242  44.345  39.502   0.918
53770W        W22243  40.483  31.421  14.880
53771W        W22244  31.943  12.847   1.817
53772W        W22245  27.108  36.870  11.070
53773W        W22246  42.802   3.277   4.252
53774W        W22247  31.541  37.344  10.912
53775W        W22248  19.073  38.018  13.845
53776W        W22249  10.791  11.336  12.428
53777W        W22250  23.076  11.823   0.869
53778W        W22251   3.815  24.521  14.904
53779W        W22252  26.961  44.944   0.759
53780W        W22253   9.812  24.014  10.130
53781W        W22254  25.482  14.150  12.409
53782W        W22255  26.070  17.188  13.435
53783W        W22256   3.365  25.187  10.962
53784W        W22257   0.943   7.308  11.121
53785W        W22258  28.470  18.164   3.238
53786W        W22259  36.514  44.479  11.402
53787W        W22260  24.504  33.576   0.871
53788W        W22261  33.578   9.753   0.894
53789W        W22262  37.541  16.292  10.484
53790W        W22263  29.941  36.510  11.052
53791W        W22264  31.921  44.372  12.957
53792W        W22265  12.787   1.959  12.960
53793W        W22266  40.328  27.152  13.839
53794W        W22267  16.570  31.996   2.759
53795W        W22268  14.623  22.545   1.277
53796W        W22269  28.134  42.503  13.994
53797W        W22270  37.952  37.423   2.764
53798W        W22271   2.856  18.727   0.797
53799W        W22272  22.011  27.634  11.590
53800W        W22273   4.296  37.459   1.915
53801W        W22274   3.842  31.946   1.313
53802W        W22275  43.934   2.888   3.296
53803W        W22276  23.726   2.777  13.954
53804W        W22277  26.162  13.691  13.992
53805W        W22278  11.800  32.031  11.093
53806W        W22279   9.308  42.355   1.729
53807W        W22280  18.692  44.003  11.029
53808W        W22281  24.019   5.421   3.372
53809W        W22282  41.357  42.393  11.391
53810W        W22283  34.874  14.144   1.928
53811W        W22284  20.139  11.682   2.307
53812W        W22285   3.778   4.721  10.487
53813W        W22286  35.853  38.997   4.320
53814W        W22287  12.249   8.326  10.594
53815W        W22288  12.217  21.521  14.929
53816W        W22289  23.065   3.457   2.338
53817W        W22290  11.138  41.860  10.502
53818W        W22291  34.576  13.729   4.139
53819W        W22292  33.464  19.733   1.432
53820W        W22293  26.159  37.375   4.156
53821W        W22294  43.788   6.342  11.489
53822W        W22295   9.217  27.655   2.315
53823W        W22296  44.008  10.870  12.566
53824W        W22297  24.518  42.927   5.227
53825W        W22298  11.262  35.952   4.296
53826W        W22299   8.861   8.234   0.285
53827W        W22300  38.466  39.058  12.576
53828W        W22301  44.479  37.447   3.241
53829W        W22302   6.678   2.917   3.697
53830W        W22303   2.254  33.477  10.645
53831W        W22304  25.600   4.762  11.128
53832W        W22305  16.678  42.019  11.495
53833W        W22306  39.397  13.260   1.917
53834W        W22307  38.854  20.766  13.883
53835W        W22308  33.562   5.370   4.668
53836W        W22309  32.051  23.644   3.775
53837W        W22310  42.892  21.573  13.415
53838W        W22311  11.296  38.970  10.448
53839W        W22312  30.123  17.248   2.856
53840W        W22313  11.344   7.203  11.534
53841W        W22314   4.783  16.704   1.345
53842W        W22315   8.689  38.028  14.862
53843W        W22316  35.546  36.536  14.388
53844W        W22317  22.122   3.387   2.875
53845W        W22318  14.728  35.593   1.269
53846W        W22319  33.419  17.163   1.265
53847W        W22320   1.295  33.087  11.999
53848W        W22321  29.505  26.093   2.392
53849W        W22322  18.743  43.443   4.220
53850W        W22323   5.401   4.730  11.931
53851W        W22324  27.953  35.015  11.865
53852W        W22325  13.269  32.075  10.564
53853W        W22326  36.992  21.590  14.299
53854W        W22327  16.757  34.570   1.882
53855W        W22328  13.120  19.262   1.282
53856W        W22329  20.232  35.039   2.223
53857W        W22330  39.376  16.581  10.903
53858W        W22331  18.293  38.476   1.836
53859W        W22332  26.986  37.525  11.915
53860W        W22333  37.551  32.009  11.122
53861W        W22334  33.401  24.076  10.437
53862W        W22335  23.653  29.928  14.965
53863W        W22336  43.952   8.697   1.300
53864W        W22337  16.628  24.716  14.505
53865W        W22338  19.191  21.621  13.951
53866W        W22339  18.055  41.012  12.971
53867W        W22340   9.841  22.110  10.160
53868W        W22341  19.198  25.000   3.370
53869W        W22342   3.228   3.709  13.475
53870W        W22343   2.955   5.715  13.399
53871W        W22344   4.862  34.381   1.279
53872W        W22345  20.045  36.979   0.364
53873W        W22346  38.513  35.465  14.508
53874W        W22347  27.504  19.731  13.314
53875W        W22348  40.005   5.920  11.926
53876W        W22349  12.810   3.946  10.925
53877W        W22350  43.827   4.317  12.574
53878W        W22351  16.581  15.753  13.422
53879W        W22352   2.891   7.895   2.292
53880W        W22353   8.310  39.477  11.415
53881W        W22354  27.160  37.872  14.007
53882W        W22355  14.119  42.789  12.071
53883W        W22356   2.801  29.623  12.894
53884W        W22357  24.493  10.341  13.421
53885W        W22358  10.230  10.338   4.728
53886W        W22359  26.187  17.795  13.374
53887W        W22360  13.783  31.920   3.247
53888W        W22361  35.857   9.708  13.853
53889W        W22362  43.833  38.025   4.753
53890W        W22363  23.129  15.135  10.573
53891W        W22364   0.985  34.440  10.092
53892W        W22365  22.077   4.773  11.570
53893W        W22366  11.665   0.933   5.113
53894W        W22367  17.578   1.443  11.871
53895W        W22368  23.511  12.809   4.625
53896W        W22369  24.999  22.093  14.019
53897W        W22370   3.451  39.416  11.408
53898W        W22371   0.483  28.054   2.209
53899W        W22372  23.657  28.070  14.808
53900W        W22373   8.197  41.807   0.287
53901W        W22374  14.730  39.045   2.826
53902W        W22375  11.369  11.626  13.545
53903W        W22376   0.323  12.784  14.788
53904W        W22377  28.158   3.358   4.290
53905W        W22378  18.268   0.778  11.015
53906W        W22379  42.321   9.794   2.891
53907W        W22380  32.081  35.554  14.351
53908W        W22381   5.323  24.039  14.477
53909W        W22382  41.969   1.946   0.280
53910W        W22383  40.452   9.766  14.855
53911W        W22384  16.296   0.283   4.115
53912W        W22385  34.477  42.911  10.521
53913W        W22386  37.013  36.466  14.332
53914W        W22387  13.281  12.833  11.921
53915W        W22388  33.951  11.213   4.805
53916W        W22389  29.460  19.076  14.344
53917W        W22390  15.230  10.374   2.224
53918W        W22391  29.504  19.246  14.980
53919W        W22392  12.857  39.056   4.685
53920W        W22393   8.705  20.153   0.959
53921W        W22394   4.401  32.120  13.417
53922W        W22395  18.192  26.638   1.928
53923W        W22396  19.117   9.297   0.854
53924W        W22397  38.934   4.906  14.476
53925W        W22398  42.992   9.226   3.268
53926W        W22399  23.226  14.651  10.012
53927W        W22400  30.446   3.386  10.612
53928W        W22401  10.847  24.052   2.797
53929W        W22402  36.378   8.385  12.455
53930W        W22403  20.209  43.407   2.715
53931W        W22404  29.553  18.269   3.662
53932W        W22405  33.996  43.912  11.543
53933W        W22406  19.562  32.524   1.336
53934W        W22407  26.561  10.240   2.737
53935W        W22408  15.593   8.847  11.089
53936W        W22409  29.102  23.661   2.361
53937W        W22410   8.382  25.513  14.931
53938W        W22411  30.994  40.910   3.790
53939W        W22412  29.475  18.215   2.253
53940W        W22413   2.310  31.505   3.288
53941W        W22414  15.191  36.447  13.964
53942W        W22415   8.271  12.148  13.905
53943W        W22416   6.420  26.174  14.334
53944W        W22417  43.768  15.269  10.959
53945W        W22418  37.917  21.046  12.911
53946W        W22419   7.358   0.454  10.589
53947W        W22420   1.334   3.390   0.286
53948W        W22421  40.306  31.607  12.425
53949W        W22422   7.245   4.263  14.303
53950W        W22423  39.031  23.510  14.327
53951W        W22424  41.389   2.292  12.482
53952W        W22425   5.888  42.856   0.481
53953W        W22426  22.590  21.561   1.395
53954W        W22427   6.184  38.325   3.781
53955W        W22428  43.844  28.031  14.306
53956W        W22429  25.185  29.531   1.380
53957W        W22430  17.597  11.340   3.737
53958W        W22431  23.194  18.581  12.552
53959W        W22432   5.894  10.219   1.284
53960W        W22433  27.073  24.045  12.986
53961W        W22434  36.443  42.807   3.689
53962W        W22435  26.987  38.004   4.682
53963W        W22436  21.738   0.782   2.739
53964W        W22437  14.148  22.731  13.376
53965W        W22438   1.852  38.860  12.878
53966W        W22439  16.574  16.735  13.958
53967W        W22440  19.240  19.767   1.924
53968W        W22441  18.642  33.943  13.883
53969W        W22442  19.206   8.227  13.542
53970W        W22443  20.073   0.968  12.832
53971W        W22444  10.228   0.366  13.827
53972W        W22445   0.926  40.988  12.014
53973W        W22446  32.595   7.242   2.722
53974W        W22447   9.762   7.300  11.054
53975W        W22448   6.191  28.455  10.594
53976W        W22449  36.994   6.873   0.384
53977W        W22450  25.003  22.136  14.465
53978W        W22451  19.157  31.060   2.803
53979W        W22452   3.424  28.661   1.868
53980W        W22453  15.588  26.118   4.637
53981W        W22454  38.932  39.536  11.088
53982W        W22455   7.276  34.028  11.511
53983W        W22456  12.813  15.624   1.818
53984W        W22457   0.293  17.592   1.840
53985W        W22458  22.636  14.733  10.624
53986W        W22459   2.775  13.712   1.328
53987W        W22460  41.910  19.746   5.207
53988W        W22461   4.387  34.067  10.619
53989W        W22462   1.328  41.404  13.993
53990W        W22463   1.776  39.951  10.960
53991W        W22464  26.137  38.024  14.851
53992W        W22465  30.950   4.833   3.737
53993W        W22466  41.888  41.378   4.739
53994W        W22467  29.064  34.068  13.483
53995W        W22468  11.306  43.004  11.051
53996W        W22469  39.423   8.364   0.327
53997W        W22470   4.863   8.184  10.945
53998W        W22471  20.529  20.704   3.732
53999W        W22472  41.477  43.406   0.834
54000W        W22473  27.589  13.327  12.538
54001W        W22474  10.700   0.436   3.380
54002W        W22475  44.470  29.547   2.836
54003W        W22476   0.907   2.244  11.488
54004W        W22477  26.060   0.808   4.619
54005W        W22478  13.786   4.818  10.957
54006W        W22479  29.072  25.184  14.767
54007W        W22480  33.569  22.635  14.872
54008W        W22481   9.203   9.301   0.426
54009W        W22482  40.858  16.638  12.447
54010W        W22483  14.252   8.371  12.461
54011W        W22484  27.595  36.017   3.269
54012W        W22485  21.210  37.454   2.822
54013W        W22486   0.779   6.295  12.358
54014W        W22487  30.424  42.359   9.991
54015W        W22488  13.150  28.603   2.708
54016W        W22489  40.368  36.502   1.799
54017W        W22490  16.626   2.755   3.231
54018W        W22491   7.327   5.776   0.324
54019W        W22492  36.562  19.548  14.478
54020W        W22493  34.487   2.883  10.471
54021W        W22494  19.676  44.380  10.448
54022W        W22495  44.928  38.390   2.679
54023W        W22496   5.763   7.703   2.236
54024W        W22497  22.652  15.277   2.848
54025W        W22498   2.351  31.564   1.863
54026W        W22499  21.066  42.847   3.782
54027W        W22500   7.901  32.070   2.835
54028W        W22501  14.322  21.205  11.981
54029W        W22502   7.686  41.787   1.442
54030W        W22503  44.792  27.681  10.612
54031W        W22504   3.220   8.784  10.917
54032W        W22505  37.402  26.990   0.852
54033W        W22506  27.465  35.920  10.480
54034W        W22507   1.824   5.792   0.882
54035W        W22508   8.808   9.151   3.704
54036W        W22509   3.421  17.266   2.772
54037W        W22510  10.167   2.802   4.146
54038W        W22511  12.784  24.008  13.037
54039W        W22512  19.214  21.513   1.740
54040W        W22513   8.795  30.929   0.262
54041W        W22514   6.731   6.855   5.716
54042W        W22515   6.406  33.584   3.763
54043W        W22516   1.289   2.379  11.927
54044W        W22517  30.057   7.730   2.680
54045W        W22518  40.476  30.552   3.323
54046W        W22519  29.435  36.863   0.405
54047W        W22520   2.758  18.631   3.642
54048W        W22521  21.746  35.010  13.858
54049W        W22522  33.609  35.095   0.960
54050W        W22523   5.759  16.665   3.722
54051W        W22524  29.079  20.183  13.436
54052W        W22525  37.403  28.496   4.235
54053W        W22526   6.240   5.376  13.509
54054W        W22527   0.887   8.203   3.229
54055W        W22528   8.839  30.618  12.045
54056W        W22529  26.966  40.310   0.787
54057W        W22530  34.927  30.910   3.308
54058W        W22531  29.170  38.947  11.414
54059W        W22532  20.197  14.665  11.937
54060W        W22533  24.134  26.651  13.547
54061W        W22534   6.190  29.036  13.377
54062W        W22535  32.935  33.967  10.518
54063W        W22536  22.112   9.364   4.240
54064W        W22537  26.154  31.549  14.991
54065W        W22538  12.167  29.556   0.870
54066W        W22539   1.807  42.949   3.204
54067W        W22540  36.570  43.376  11.380
54068W        W22541   9.293  41.314  11.487
54069W        W22542  32.929  19.666  13.465
54070W        W22543  10.242  37.913  13.888
54071W        W22544   5.708  32.558  11.544
54072W        W22545   9.285  37.997   0.443
54073W        W22546  13.132  43.299   1.225
54074W        W22547  28.573  24.679   0.275
54075W        W22548  40.393  37.925   1.215
54076W        W22549   2.819  38.072   3.344
54077W        W22550  23.490   3.216   4.760
54078W        W22551  19.162   2.358  14.806
54079W        W22552  11.674  43.428  11.480
54080W        W22553   4.747   5.879  10.901
54081W        W22554  24.661   9.820   1.246
54082W        W22555  20.711   0.393   4.768
54083W        W22556  32.636   6.853   4.290
54084W        W22557  24.596  38.460   1.351
54085W        W22558   5.232  29.474   2.413
54086W        W22559   7.909  16.807  12.482
54087W        W22560   2.815  31.016   0.943
54088W        W22561  17.296  37.373  12.865
54089W        W22562  38.946  13.323  14.435
54090W        W22563   0.758  35.596   1.429
54091W        W22564  10.162   3.801  13.992
54092W        W22565  28.982   4.881  12.346
54093W        W22566  32.535  35.580   3.279
54094W        W22567   9.264  43.864   1.364
54095W        W22568  33.127  23.242  13.853
54096W        W22569  32.401  26.999  14.772
54097W        W22570  23.999  35.892   4.152
54098W        W22571   8.323  17.208   4.807
54099W        W22572  18.593  16.298  12.833
54100W        W22573   8.204  33.033   3.302
54101W        W22574  14.811  30.540   4.802
54102W        W22575   7.398   9.772   1.439
54103W        W22576  36.497  20.685   0.456
54104W        W22577  15.208  33.073  12.969
54105W        W22578   8.340  23.578   5.691
54106W        W22579  27.661  10.362   2.668
54107W        W22580  11.136  12.316  13.480
54108W        W22581   3.380  40.373   4.290
54109W        W22582   1.404  15.230   2.302
54110W        W22583  19.124  33.895   3.383
54111W        W22584  33.914  33.984  11.946
54112W        W22585  21.665  30.540   2.251
54113W        W22586  28.984  36.019   1.694
54114W        W22587  38.880  17.670  13.936
54115W        W22588   8.742  15.095  11.923
54116W        W22589  31.467  44.876   3.348
54117W        W22590  36.501  17.217   1.272
54118W        W22591  36.089  18.784   1.355
54119W        W22592  22.527   2.343   2.316
54120W        W22593  16.605  19.084   3.231
54121W        W22594  41.365   4.743   1.420
54122W        W22595   4.746  38.865  14.366
54123W        W22596  39.478  18.570  10.535
54124W        W22597  23.124   5.770  14.828
54125W        W22598  35.431  41.995   4.737
54126W        W22599   6.879   0.848   0.452
54127W        W22600   6.242  14.705   5.116
54128W        W22601  10.190   2.844   2.879
54129W        W22602  21.263   1.789  14.449
54130W        W22603  38.529  19.688   0.876
54131W        W22604  41.518  44.466   1.398
54132W        W22605  38.353   2.907  10.560
54133W        W22606  30.579  42.827  13.017
54134W        W22607  39.320  13.310  10.616
54135W        W22608  22.564  25.526  12.835
54136W        W22609  34.374   5.882   4.806
54137W        W22610  16.139  22.516  11.558
54138W        W22611   4.791   7.720  12.557
54139W        W22612   3.348  20.141   1.778
54140W        W22613   3.263  42.495   4.276
54141W        W22614  28.000  10.180  13.499
54142W        W22615  35.600  38.508  12.847
54143W        W22616  24.717   7.826   2.284
54144W        W22617  20.621  28.079   1.340
54145W        W22618   7.696  30.998   1.935
54146W        W22619  31.497  37.851  14.275
54147W        W22620  27.983  11.212   1.796
54148W        W22621  18.060   9.341   3.869
54149W        W22622  27.538  35.103   0.959
54150W        W22623  20.111  42.929   0.353
54151W        W22624   8.257   3.407   3.291
54152W        W22625  25.086  35.022  11.043
54153W        W22626  23.146  31.025   3.688
54154W        W22627  21.758  35.412   1.845
54155W        W22628  36.962  23.004   4.685
54156W        W22629  25.679   8.238  12.368
54157W        W22630  41.398   3.305   4.640
54158W        W22631   0.943   0.419   0.303
54159W        W22632  25.646  23.105   4.838
54160W        W22633   5.881   6.407  11.397
54161W        W22634   3.367  30.006   2.257
54162W        W22635  11.726  43.458   4.329
54163W        W22636  41.939  24.493   0.932
54164W        W22637  14.245  38.422  14.865
54165W        W22638  31.483  26.458   1.730
54166W        W22639  34.013   9.686  11.947
54167W        W22640  40.860  36.508   2.700
54168W        W22641  21.191  11.259  10.889
54169W        W22642  40.399   6.424  10.618
54170W        W22643   2.870  32.613  12.875
54171W        W22644  44.864  17.248   1.248
54172W        W22645  37.868   8.300   4.659
54173W        W22646  18.668  16.734  11.488
54174W        W22647  31.907  34.553  14.023
54175W        W22648  34.988  44.952  13.431
54176W        W22649  25.685   7.348   0.932
54177W        W22650  24.201  28.507  12.455
54178W        W22651  22.127   8.277   0.279
54179W        W22652   2.321  31.130  13.403
54180W        W22653  44.487   9.189   0.798
54181W        W22654  25.607  24.640  10.949
54182W        W22655  10.717  30.595   3.239
54183W        W22656  22.122  34.454  11.872
54184W        W22657   2.363  40.332   1.809
54185W        W22658  22.512  24.724   9.965
54186W        W22659  36.072  18.788  14.311
54187W        W22660  19.262  31.510  10.498
54188W        W22661   2.423  19.614  10.121
54189W        W22662  11.129  27.496  14.453
54190W        W22663  31.487  34.436  11.455
54191W        W22664  38.885  33.588  13.997
54192W        W22665  26.989   2.908   0.756
54193W        W22666  26.135  29.969   1.777
54194W        W22667  34.375  40.046  14.783
54195W        W22668  19.204   0.374  12.962
54196W        W22669  13.152  31.602   1.870
54197W        W22670  13.136  37.358   1.806
54198W        W22671  32.110   0.252   0.289
54199W        W22672  13.274  10.153  11.472
54200W        W22673  15.091  14.277   4.229
54201W        W22674  42.967  22.502   5.133
54202W        W22675  18.069  28.125  13.035
54203W        W22676  23.569  41.512  11.864
54204W        W22677  42.984  15.733   1.715
54205W        W22678  21.188  23.519   3.202
54206W        W22679  29.163   6.226   1.835
54207W        W22680  35.025  17.249  11.891
54208W        W22681   9.757   9.889   0.846
54209W        W22682  40.338  22.136  14.355
54210W        W22683  31.037   7.263   3.156
54211W        W22684  35.007  34.059   1.930
54212W        W22685  42.845  35.590   3.774
54213W        W22686  29.637   1.474  11.421
54214W        W22687   4.334  18.546  14.840
54215W        W22688  30.604   2.283  12.836
54216W        W22689   6.738   7.782   3.854
54217W        W22690   3.852  29.622   4.664
54218W        W22691   0.748  10.326  11.380
54219W        W22692  36.917  42.003  12.952
54220W        W22693  27.502  27.947  14.374
54221W        W22694  26.534  12.225  12.395
54222W        W22695  24.704  33.003  13.310
54223W        W22696  39.345  44.292  12.949
54224W        W22697  19.229  20.129   3.386
54225W        W22698   2.773  34.383   4.300
54226W        W22699  10.643  12.352  14.917
54227W        W22700  33.057   9.791   2.293
54228W        W22701   9.856  40.977  14.012
54229W        W22702   5.691   6.768  12.016
54230W        W22703  26.983  42.995  13.455
54231W        W22704   2.824  21.147   2.269
54232W        W22705  26.082  38.028  12.036
54233W        W22706  30.654  31.401   1.441
54234W        W22707  11.623   2.343  14.909
54235W        W22708  44.905  30.655   3.778
54236W        W22709  44.786  25.988  14.455
54237W        W22710  21.091  43.005   4.222
54238W        W22711  29.433  35.361   4.773
54239W        W22712  17.750  22.603   1.324
54240W        W22713  44.476   8.884  10.010
54241W        W22714  23.009  26.024  10.633
54242W        W22715  17.155   9.229  12.988
54243W        W22716  38.065  29.537   0.799
54244W        W22717  23.715  43.813   0.734
54245W        W22718   0.335   6.682   1.433
54246W        W22719  22.630  41.489  11.484
54247W        W22720   0.347  11.653   0.751
54248W        W22721   3.779   7.213  13.875
54249W        W22722  14.789  15.156  11.910
54250W        W22723   1.806  42.009  12.359
54251W        W22724  25.094  26.610  11.556
54252W        W22725   1.438  31.630   1.767
54253W        W22726  26.078  34.942   0.458
54254W        W22727   7.371  39.945   0.859
54255W        W22728   4.273  16.090  14.371
54256W        W22729  17.631  14.115  11.466
54257W        W22730  14.225   0.986  10.949
54258W        W22731  10.262  38.379  11.524
54259W        W22732  20.696  12.185  11.435
54260W        W22733  10.752   0.414  11.464
54261W        W22734  27.971   0.772  10.408
54262W        W22735  38.480  30.059  10.616
54263W        W22736   2.896  22.653   0.479
54264W        W22737  31.472  36.406  12.876
54265W        W22738  41.318  33.084   1.905
54266W        W22739  42.918   3.314  10.999
54267W        W22740   4.935   3.877   5.104
54268W        W22741  24.491  23.001  11.579
54269W        W22742   7.817  36.515  10.968
54270W        W22743   8.692  40.396  11.545
54271W        W22744  35.470  26.060   1.929
54272W        W22745  15.766  28.490  11.493
54273W        W22746  38.391  29.586   0.916
54274W        W22747  18.789  44.940  12.909
54275W        W22748  38.390  37.916  13.054
54276W        W22749   3.850  29.594   0.847
54277W        W22750  13.219  12.741   2.690
54278W        W22751  11.317  33.119   2.860
54279W        W22752  20.271   4.733  12.900
54280W        W22753   5.329   6.390  12.469
54281W        W22754  28.670   2.423   4.306
54282W        W22755  32.613  28.069  12.841
54283W        W22756  42.016  10.725   4.157
54284W        W22757   2.461  24.589  11.972
54285W        W22758  14.178   4.208   4.195
54286W        W22759  32.592  12.351   1.786
54287W        W22760   3.939  20.061   1.328
54288W        W22761  18.605  36.903   1.765
54289W        W22762  35.087   8.659  10.944
54290W        W22763  11.785  42.464  11.029
54291W        W22764  29.564  34.523  11.515
54292W        W22765  11.636   5.691  11.114
54293W        W22766  44.480   5.202   1.405
54294W        W22767  40.403   2.245   2.227
54295W        W22768   4.911  38.959   4.210
54296W        W22769  32.511  12.316  12.940
54297W        W22770  18.558  38.003  11.514
54298W        W22771  24.181  38.456   3.663
54299W        W22772   8.313   0.902   4.316
54300W        W22773  26.542  21.240   3.311
54301W        W22774  14.337  11.202  12.532
54302W        W22775  19.768  24.996   0.917
54303W        W22776  27.070  19.598   0.743
54304W        W22777   3.746   0.403   2.696
54305W        W22778  39.392  24.097  11.507
54306W        W22779  39.037  30.000  11.575
54307W        W22780  36.573  30.987  11.952
54308W        W22781   0.331   1.411   3.821
54309W        W22782  37.051  14.169   2.828
54310W        W22783  17.568   3.920   1.411
54311W        W22784  44.369  16.671   1.407
54312W        W22785  22.018  36.912   1.927
54313W        W22786  20.693  19.759   3.734
54314W        W22787  30.526  26.483   4.722
54315W        W22788  19.182  21.547  14.915
54316W        W22789   8.331  10.704  12.539
54317W        W22790  26.056  28.968  13.937
54318W        W22791   7.209  23.046   4.715
54319W        W22792  34.580  16.239   2.677
54320W        W22793  19.662  13.212   3.282
54321W        W22794  23.204  31.120  10.551
54322W        W22795   9.700  14.218   2.820
54323W        W22796   3.820  27.038   4.833
54324W        W22797   0.863  31.506  13.870
54325W        W22798  36.999  38.877  12.928
54326W        W22799  27.197   7.782   3.317
54327W        W22800  34.389  38.895  14.380
54328W        W22801  32.915  16.198  13.322
54329W        W22802  22.585  39.897   0.284
54330W        W22803  14.784  19.543   3.705
54331W        W22804   7.756  27.609  13.435
54332W        W22805  25.713  44.004  10.074
54333W        W22806  35.578  32.024  11.515
54334W        W22807  33.570   6.770   0.820
54335W        W22808   1.387  34.527  13.334
54336W        W22809  35.436  14.098  12.484
54337W        W22810  40.333  13.235  12.031
54338W        W22811  22.516  34.537   3.166
54339W        W22812  24.665  23.176  11.014
54340W        W22813  14.199   4.882   5.257
54341W        W22814  12.677  14.137   1.235
54342W        W22815   4.814  29.106   4.814
54343W        W22816  28.518   0.447  11.556
54344W        W22817  11.180  40.868   0.445
54345W        W22818   1.847   8.873   2.824
54346W        W22819  29.523  11.348   2.858
54347W        W22820  26.526  23.150   4.835
54348W        W22821   9.332  40.972  14.028
54349W        W22822  41.363  40.406   1.728
54350W        W22823   3.901  39.013   4.664
54351W        W22824  41.380   4.414   0.854
54352W        W22825  16.109   5.363  14.473
54353W        W22826  17.287   3.811  12.050
54354W        W22827  40.860  44.965   2.365
54355W        W22828   1.477   9.782   4.755
54356W        W22829  38.498  26.582  14.923
54357W        W22830  28.140  15.685   0.952
54358W        W22831  10.301  29.538  10.611
54359W        W22832  27.146   2.296  11.476
54360W        W22833  22.112  11.143  14.446
54361W        W22834   5.353   7.887   0.256
54362W        W22835  16.212   3.384   3.806
54363W        W22836  31.028  26.152   1.733
54364W        W22837   4.750   7.864  14.363
54365W        W22838  23.542  29.925   0.874
54366W        W22839  25.988  29.518  11.470
54367W        W22840  39.933  22.066  14.864
54368W        W22841  27.063  44.361   0.314
54369W        W22842  31.961  15.631  13.409
54370W        W22843  14.269  18.227   3.829
54371W        W22844  19.621  28.437  11.398
54372W        W22845  28.931  14.823  14.293
54373W        W22846  22.682  26.202   3.789
54374W        W22847   0.283  29.561   3.793
54375W        W22848  13.245  25.649   2.769
54376W        W22849  16.144   3.910   0.318
54377W        W22850   1.857  32.908   0.363
54378W        W22851  16.587  44.393   4.218
54379W        W22852  21.718  39.980   3.718
54380W        W22853  19.542  13.731   1.776
54381W        W22854   1.300  28.140  12.865
54382W        W22855   4.334  34.441   3.839
54383W        W22856  16.800  16.172  10.918
54384W        W22857  10.172  34.864   1.811
54385W        W22858  24.617   5.887   0.351
54386W        W22859  28.520  34.935   4.740
54387W        W22860  41.815  33.392  13.041
54388W        W22861  14.196   1.245   2.668
54389W        W22862   7.900  16.262  11.527
54390W        W22863  27.022  33.000   0.423
54391W        W22864  40.520   3.252   1.699
54392W        W22865  42.499  32.625   3.343
54393W        W22866  44.785  15.196  11.610
54394W        W22867  33.978   7.823  12.531
54395W        W22868   5.382   5.737  10.091
54396W        W22869  10.335  37.369   5.159
54397W        W22870  14.213  20.751   0.826
54398W        W22871   4.877  31.424  12.477
54399W        W22872  25.488  34.559  14.959
54400W        W22873  20.136  36.023   4.787
54401W        W22874   5.886  27.954   4.828
54402W        W22875  17.134  40.001   4.317
54403W        W22876  33.003  18.112  13.975
54404W        W22877  13.626   7.282  13.899
54405W        W22878  31.909  12.848  11.969
54406W        W22879  40.976  28.137  12.384
54407W        W22880   9.649  25.082  14.305
54408W        W22881  29.635  17.104  14.961
54409W        W22882  23.216  29.115  12.394
54410W        W22883  35.099  37.882  13.850
54411W        W22884   0.753  40.453   2.267
54412W        W22885  11.801  22.667  10.575
54413W        W22886  29.616  31.060   2.242
54414W        W22887   3.818  27.667  13.435
54415W        W22888  31.426   0.883   4.821
54416W        W22889  43.935  27.966   0.831
54417W        W22890   9.829  34.566   1.394
54418W        W22891  37.869  17.306   1.305
54419W        W22892  43.352  35.499   4.174
54420W        W22893  22.503  37.391   0.270
54421W        W22894   4.428  33.981  14.010
54422W        W22895  33.457  36.537  13.532
54423W        W22896  37.953   5.730   3.713
54424W        W22897  44.877  36.480  14.892
54425W        W22898  23.127   2.729  13.985
54426W        W22899  41.438  26.107  14.943
54427W        W22900  17.600   6.239  14.480
54428W        W22901   9.751   7.881  13.981
54429W        W22902   7.877  32.121  13.054
54430W        W22903   0.972  31.898  13.496
54431W        W22904  36.490  43.381   1.831
54432W        W22905   9.248  15.643   0.270
54433W        W22906  28.074  39.972   5.095
54434W        W22907   7.214  33.902   1.352
54435W        W22908  28.115  27.466   5.254
54436W        W22909  21.087   0.949  14.946
54437W        W22910  26.601  17.577  14.863
54438W        W22911  10.633  43.918  10.421
54439W        W22912  28.981  16.584   4.155
54440W        W22913  34.588  40.868   2.824
54441W        W22914  29.489  13.264   2.743
54442W        W22915   8.758   8.219  13.863
54443W        W22916  27.484  16.178   3.781
54444W        W22917  31.977  26.589   2.300
54445W        W22918  10.282  43.830   2.379
54446W        W22919  26.462  21.533   4.285
54447W        W22920  35.030  24.681  14.332
54448W        W22921  18.135  11.776   1.442
54449W        W22922  14.180  38.451  12.409
54450W        W22923  14.646  39.942   4.196
54451W        W22924  44.888  30.162   0.811
54452W        W22925  11.838   1.463  11.072
54453W        W22926   5.698   4.413   1.915
54454W        W22927  15.746   0.406  13.544
54455W        W22928   2.747   2.942   2.242
54456W        W22929   6.696  18.224  14.027
54457W        W22930  10.696  32.563  12.432
54458W        W22931  20.541  34.600  10.480
54459W        W22932  37.003  34.926  13.387
54460W        W22933  24.488   4.253  11.989
54461W        W22934  11.754  37.976  14.344
54462W        W22935  41.902  15.112  13.518
54463W        W22936  35.034  11.827   2.280
54464W        W22937  41.806  31.065  11.019
54465W        W22938  32.889  31.421   1.883
54466W        W22939   7.352  28.567   1.442
54467W        W22940   1.382  29.093  12.911
54468W        W22941   2.823  43.491   1.270
54469W        W22942  38.378  14.152  12.063
54470W        W22943  10.642  19.045   2.756
54471W        W22944  44.385  14.825   0.402
54472W        W22945  35.537   3.251  13.939
54473W        W22946  38.539   0.747  14.309
54474W        W22947  11.855  17.083  11.872
54475W        W22948  22.072  20.116  12.500
54476W        W22949   5.304   4.223  10.965
54477W        W22950  17.606  25.661   3.184
54478W        W22951   5.271  20.674  11.474
54479W        W22952  17.725  22.207   0.758
54480W        W22953  22.041  28.449   3.774
54481W        W22954  36.455  23.144  14.314
54482W        W22955   2.727   1.329  11.031
54483W        W22956  10.299  12.633  14.984
54484W        W22957  43.375   3.373   0.252
54485W        W22958  27.039  11.823   0.334
54486W        W22959  33.111  22.659   3.339
54487W        W22960  34.533   2.910  13.954
54488W        W22961  31.013  20.583  10.408
54489W        W22962   2.863  19.697   1.858
54490W        W22963  22.203  35.105  13.797
54491W        W22964   1.844   6.744   4.144
54492W        W22965  12.322   8.739  10.634
54493W        W22966  18.075  17.117  11.507
54494W        W22967   2.769  34.448  13.827
54495W        W22968  16.750  29.106   4.792
54496W        W22969   6.855  23.012   4.187
54497W        W22970  42.826  31.924   2.252
54498W        W22971  41.488   2.893  12.977
54499W        W22972  24.586  16.651  10.542
54500W        W22973  25.207  42.419  14.893
54501W        W22974  32.123  17.072   3.662
54502W        W22975  42.897  16.098   4.312
54503W        W22976  40.027  32.104  11.878
54504W        W22977  22.510  20.167   1.782
54505W        W22978   3.773  44.987   4.275
54506W        W22979  13.630   2.310  12.012
54507W        W22980  40.954   2.358   0.909
54508W        W22981  24.056  12.246   3.174
54509W        W22982   3.446   2.888  11.371
54510W        W22983  44.453  13.776   1.233
54511W        W22984  24.059  30.599  11.577
54512W        W22985  42.440  27.177  10.939
54513W        W22986  41.980   7.769  10.896
54514W        W22987  23.153  39.871   4.187
54515W        W22988  10.752  14.222  11.108
54516W        W22989  34.473  36.931  10.572
54517W        W22990  18.704  17.272   4.334
54518W        W22991   7.380  29.608   2.261
54519W        W22992  34.909  16.225   1.226
54520W        W22993  27.010   7.894  10.997
54521W        W22994  41.295   4.210   2.806
54522W        W22995  29.543  29.569  13.877
54523W        W22996  23.555   9.701  11.563
54524W        W22997  44.912  37.544   4.691
54525W        W22998  18.663   4.435   1.241
54526W        W22999  27.519   0.952  14.315
54527W        W23000  17.172  28.047   3.292
54528W        W23001   2.359  22.532   0.794
54529W        W23002  23.171  10.226  14.814
54530W        W23003  44.914   3.422  11.026
54531W        W23004  31.464  14.718  11.960
54532W        W23005  17.572  24.128   1.792
54533W        W23006  32.955  28.161   3.727
54534W        W23007   0.284  28.044   4.334
54535W        W23008   5.812  11.823   4.628
54536W        W23009  29.631  25.605  10.629
54537W        W23010   9.848  33.493   3.783
54538W        W23011  44.781  30.089  14.423
54539W        W23012  35.583  34.073  12.921
54540W        W23013   8.313   8.773  10.950
54541W        W23014  12.802  41.338  12.023
54542W        W23015  41.414  38.523  14.289
54543W        W23016   0.980   8.690   0.481
54544W        W23017  12.658  36.059   2.667
54545W        W23018  27.588  13.132  11.114
54546W        W23019  23.200  25.672  10.957
54547W        W23020  20.261  35.421   1.923
54548W        W23021  43.003  40.822  14.303
54549W        W23022  11.217  12.125  13.967
54550W        W23023  26.656  18.217  11.512
54551W        W23024  28.467  38.466  11.033
54552W        W23025  41.870  22.160   2.411
54553W        W23026  21.162  25.196  14.814
54554W        W23027   4.924  24.511  10.614
54555W        W23028  12.696  33.116  12.407
54556W        W23029  13.306  16.634  13.036
54557W        W23030   5.376  28.101  11.984
54558W        W23031   1.438  36.515   1.768
54559W        W23032  33.443  43.355  14.297
54560W        W23033  16.171  32.039  12.452
54561W        W23034  37.045  20.179  13.911
54562W        W23035  39.498  11.128  12.849
54563W        W23036  39.539  30.484  13.359
54564W        W23037  35.945  18.717   4.259
54565W        W23038  35.510  29.594  12.521
54566W        W23039  36.407  31.444  11.103
54567W        W23040  43.929  36.913   4.835
54568W        W23041  25.514  26.084  11.492
54569W        W23042  31.444   3.337  14.030
54570W        W23043   0.908  22.154  14.338
54571W        W23044  18.639  28.183   1.298
54572W        W23045  16.785  21.227  13.418
54573W        W23046  27.168  25.148  14.804
54574W        W23047  28.066   1.734   1.231
54575W        W23048  16.086  11.150   1.778
54576W        W23049  40.937   8.292   4.833
54577W        W23050  14.634  15.264   3.336
54578W        W23051  39.449   1.750  14.318
54579W        W23052  30.501  22.208  10.916
54580W        W23053  42.890  16.166  10.435
54581W        W23054  22.182  27.586  13.846
54582W        W23055  13.681  38.537   3.704
54583W        W23056  30.920  38.845  12.830
54584W        W23057  31.058   8.837   2.345
54585W        W23058  16.640   2.780   1.344
54586W        W23059  26.569  31.015  12.062
54587W        W23060  34.504  20.144  13.950
54588W        W23061  30.932  11.736  11.120
54589W        W23062  18.645  19.780  11.960
54590W        W23063  28.569  10.780  14.796
54591W        W23064  42.961  36.439  11.971
54592W        W23065  27.448  34.586  12.934
54593W        W23066   9.843  20.646   4.193
54594W        W23067  34.090  25.162   2.397
54595W        W23068  26.050  18.576  13.976
54596W        W23069   3.774  44.336  11.944
54597W        W23070  38.447  13.231   2.221
54598W        W23071  25.060  11.219  11.574
54599W        W23072  12.313   9.666  11.881
54600W        W23073   9.252   6.354  10.433
54601W        W23074   0.401  36.932  12.380
54602W        W23075   2.758  15.789  12.030
54603W        W23076   5.759  41.989   1.282
54604W        W23077  10.674  26.097  11.019
54605W        W23078  23.489  21.246   2.361
54606W        W23079  13.670  36.474   0.288
54607W        W23080  39.910  30.058  12.350
54608W        W23081   9.333  30.091   2.307
54609W        W23082  26.970  29.030   3.662
54610W        W23083  23.551   2.341   3.228
54611W        W23084  44.905  32.096  10.520
54612W        W23085  17.638   9.820  10.631
54613W        W23086  27.645  29.434  13.363
54614W        W23087   1.759  24.194  11.575
54615W        W23088  13.119   6.870   4.343
54616W        W23089  23.534  38.055   0.450
54617W        W23090   1.400  34.416   0.466
54618W        W23091  38.476  44.464  12.881
54619W        W23092  40.361  34.388  10.047
54620W        W23093  22.689  31.584  10.601
54621W        W23094  31.534   6.735  14.867
54622W        W23095  26.170  42.959   3.790
54623W        W23096   2.746  35.014   3.201
54624W        W23097  12.780  28.103   2.888
54625W        W23098  29.439  11.773  12.022
54626W        W23099  13.795   6.867   1.313
54627W        W23100   7.332  42.436   3.304
54628W        W23101  37.336  32.022  11.577
54629W        W23102   0.770  18.772   0.343
54630W        W23103  21.527  36.504  14.026
54631W        W23104  30.059  25.049   1.350
54632W        W23105  24.690  39.412  14.794
54633W        W23106  35.447  13.620   3.817
54634W        W23107  32.478  20.589   3.831
54635W        W23108  18.658  27.608   3.790
54636W        W23109  44.323  12.612  10.561
54637W        W23110   0.843   2.314  14.853
54638W        W23111  19.155   8.232   4.821
54639W        W23112  15.733  16.158   4.218
54640W        W23113  43.794  11.814   1.302
54641W        W23114   0.767  15.592  11.914
54642W        W23115  40.359  25.467  13.899
54643W        W23116  10.244  19.190  12.404
54644W        W23117  39.909  29.472   4.748
54645W        W23118  39.018  36.526  12.568
54646W        W23119   4.853  40.549   4.299
54647W        W23120  32.922  23.049   3.631
54648W        W23121  25.650   0.451   3.156
54649W        W23122  16.103  31.041  12.892
54650W        W23123  11.626   4.812  13.911
54651W        W23124  28.669  24.538   1.350
54652W        W23125  39.557   9.284  14.338
54653W        W23126  44.876  19.672   0.882
54654W        W23127  32.988   0.451  11.999
54655W        W23128  22.575  27.050   4.722
54656W        W23129  32.447  44.924   9.536
54657W        W23130   9.358   5.773  12.537
54658W        W23131   3.828  16.594   0.808
54659W        W23132  14.146  36.434   2.362
54660W        W23133  34.584   4.238   2.693
54661W        W23134  22.102  19.650  14.026
54662W        W23135  37.082  33.570   2.322
54663W        W23136  22.697  14.680   2.731
54664W        W23137  39.481  34.929  10.932
54665W        W23138   6.767   1.953  13.895
54666W        W23139  32.603  12.846   1.750
54667W        W23140  13.735  40.893  12.920
54668W        W23141   6.281  22.069   3.236
54669W        W23142   8.659  25.675  12.004
54670W        W23143  11.239  11.732  12.086
54671W        W23144   7.703  33.898   4.345
54672W        W23145  44.505  18.771   0.274
54673W        W23146  14.255  14.322  13.502
54674W        W23147  16.746  15.823   0.289
54675W        W23148   4.415  25.157  14.933
54676W        W23149  27.159   5.710  14.986
54677W        W23150  17.193  30.600  14.799
54678W        W23151  26.189  34.869   4.176
54679W        W23152  22.518  32.536   1.727
54680W        W23153  11.189  13.330  13.979
54681W        W23154  17.623  27.684  14.474
54682W        W23155  32.107   4.891   1.310
54683W        W23156  37.947  21.130   0.376
54684W        W23157  18.054  41.957   3.744
54685W        W23158  44.900  25.529  14.438
54686W        W23159   8.737  29.611   4.196
54687W        W23160   1.828  30.418   2.841
54688W        W23161  20.237  34.613  13.353
54689W        W23162  29.515  21.586   2.830
54690W        W23163  24.589  38.337  10.446
54691W        W23164  28.520  44.931  13.381
54692W        W23165  29.663  41.453  13.933
54693W        W23166  15.297  12.801   2.265
54694W        W23167  31.897  36.466   0.389
54695W        W23168  44.811   8.256  14.952
54696W        W23169   7.346  12.202  12.079
54697W        W23170  28.588  13.812   2.824
54698W        W23171  26.009   4.825   0.952
54699W        W23172   6.810  25.203   1.889
54700W        W23173  39.430   5.373   1.727
54701W        W23174   3.367  16.083  12.075
54702W        W23175  11.854  39.040  12.045
54703W        W23176  12.698  27.166  14.513
54704W        W23177  24.136  32.521  12.395
54705W        W23178  18.097  10.667   1.229
54706W        W23179  33.915  31.052  13.992
54707W        W23180  24.688  22.639  11.582
54708W        W23181  44.974  41.315  11.081
54709W        W23182  38.985   0.326  13.411
54710W        W23183  32.404  43.986  14.432
54711W        W23184  13.755  36.513   2.221
54712W        W23185   9.313  41.863  11.469
54713W        W23186  27.176   0.780   1.742
54714W        W23187  23.142  15.675   0.959
54715W        W23188  18.081  19.731   0.886
54716W        W23189  24.152  44.989   5.626
54717W        W23190   8.282  24.562   1.254
54718W        W23191  20.661  25.517   5.593
54719W        W23192  14.730   9.227  11.995
54720W        W23193  26.971   6.707   1.336
54721W        W23194  30.494  34.565   2.745
54722W        W23195  10.632  40.867  11.115
54723W        W23196   4.889   1.307  11.893
54724W        W23197  10.634  14.832  11.037
54725W        W23198  34.054  29.083  12.035
54726W        W23199  28.650   6.203  13.529
54727W        W23200  37.519  42.489  12.513
54728W        W23201  15.782  23.730  10.643
54729W        W23202  27.502   8.745   0.413
54730W        W23203  41.434   7.807   3.274
54731W        W23204   7.872   5.227  12.422
54732W        W23205  22.253  18.267   0.301
54733W        W23206  33.533  31.417  12.439
54734W        W23207  31.107   9.226  11.863
54735W        W23208  39.548   9.263   1.383
54736W        W23209  34.385  24.653   0.444
54737W        W23210  23.015  26.103   3.382
54738W        W23211  32.996  41.991  12.969
54739W        W23212  11.359  31.592   1.868
54740W        W23213  40.937   8.377   1.341
54741W        W23214  20.091  44.790  10.632
54742W        W23215  23.108  38.930  13.471
54743W        W23216  14.338   2.835  12.431
54744W        W23217  15.101   4.288   1.375
54745W        W23218  30.928  17.139  12.404
54746W        W23219  32.037  35.885   2.372
54747W        W23220  36.358  41.903  12.356
54748W        W23221  26.046  17.740  11.981
54749W        W23222  41.435  32.052   0.896
54750W        W23223  15.108  26.001   4.655
54751W        W23224   2.294  14.754   4.179
54752W        W23225   3.832  23.703   0.279
54753W        W23226  10.712  27.652   3.367
54754W        W23227  23.193   9.349   4.734
54755W        W23228  18.550  33.472   1.237
54756W        W23229  33.533  15.098  13.835
54757W        W23230  38.838   4.266   2.245
54758W        W23231  17.777  31.067  14.409
54759W        W23232  29.620  23.106   1.449
54760W        W23233  12.347  31.141   3.701
54761W        W23234  13.208  34.536   2.181
54762W        W23235  13.157  31.494   3.274
54763W        W23236  43.001  23.227   3.247
54764W        W23237   2.859   6.835   4.610
54765W        W23238  21.645  25.094   4.707
54766W        W23239  41.000  24.720  12.913
54767W        W23240   3.881  32.580  11.870
54768W        W23241  44.918  21.655   2.775
54769W        W23242  10.269  30.923  12.500
54770W        W23243  39.971  31.124   3.802
54771W        W23244  16.634  23.045  10.464
54772W        W23245  15.235  33.431   0.464
54773W        W23246  42.485  30.611  14.317
54774W        W23247  32.005  21.042   2.303
54775W        W23248  34.510   7.291  11.917
54776W        W23249  16.740   5.426  11.963
54777W        W23250  31.902  37.951  14.363
54778W        W23251  39.953  32.023  14.773
54779W        W23252   9.152  35.455  11.943
54780W        W23253   4.450  19.667   1.912
54781W        W23254  21.150   9.706  10.001
54782W        W23255  37.894  44.805  14.853
54783W        W23256  24.184  18.677  11.964
54784W        W23257   3.373  33.917   2.845
54785W        W23258  29.107  43.957   4.645
54786W        W23259  20.215  36.072  10.466
54787W        W23260  35.587   7.329  10.553
54788W        W23261  11.154  39.062   0.906
54789W        W23262  17.751   3.738  12.542
54790W        W23263  16.728  40.868  14.298
54791W        W23264  44.463  16.651   1.882
54792W        W23265  21.585  13.149  10.008
54793W        W23266  39.503  18.721   2.844
54794W        W23267  23.526   2.905   2.839
54795W        W23268  33.422  16.765  12.020
54796W        W23269  18.767  10.159   0.790
54797W        W23270   4.261  32.961   0.463
54798W        W23271  16.252  15.145   1.275
54799W        W23272  30.921   5.769   0.879
54800W        W23273  38.914  38.516  12.537
54801W        W23274  29.614  41.524  13.330
54802W        W23275   0.476  24.492  13.925
54803W        W23276  16.205  16.107  13.929
54804W        W23277   9.665  27.541  11.935
54805W        W23278  16.611  15.125  12.452
54806W        W23279   7.690  40.358   3.678
54807W        W23280  29.145  33.428   1.363
54808W        W23281  20.717  14.689   3.786
54809W        W23282   9.801   7.732   4.304
54810W        W23283  10.213  14.628   3.311
54811W        W23284  14.816   3.745   2.378
54812W        W23285  42.831  39.895  14.933
54813W        W23286   1.330  43.375  10.498
54814W        W23287  29.470  39.025  12.370
54815W        W23288  27.047  24.006   1.425
54816W        W23289  21.045  24.593   1.880
54817W        W23290   8.173  42.349  13.027
54818W        W23291  44.499  42.950  13.902
54819W        W23292  30.920  16.234  11.572
54820W        W23293  14.321  39.034  10.006
54821W        W23294  42.379  27.081   2.733
54822W        W23295  38.545   6.873  10.569
54823W        W23296  28.056  34.034  14.388
54824W        W23297  42.476  29.095   3.160
54825W        W23298   1.893  15.232  14.276
54826W        W23299  28.143  39.395  10.603
54827W        W23300  20.731  16.763   0.381
54828W        W23301  28.490  41.946   2.194
54829W        W23302  41.336  32.548   1.328
54830W        W23303  12.165  28.660  12.525
54831W        W23304  36.855  12.319  13.527
54832W        W23305  14.809  11.794  13.982
54833W        W23306  21.718  33.897  11.904
54834W        W23307   6.254  24.718  13.810
54835W        W23308  26.993  41.890   3.733
54836W        W23309  41.945  40.480   1.277
54837W        W23310  12.666  20.240   0.460
54838W        W23311   2.425   0.810  10.414
54839W        W23312  13.212  17.186   3.866
54840W        W23313  40.824  25.193   1.254
54841W        W23314  34.557  25.073  10.430
54842W        W23315  13.654   3.283  13.513
54843W        W23316  40.537  41.925  14.001
54844W        W23317  40.826   3.914   2.852
54845W        W23318  27.461  27.598   2.354
54846W        W23319  38.389  36.904   4.787
54847W        W23320  22.167  42.935  10.454
54848W        W23321   6.815  31.942   2.385
54849W        W23322  14.608  32.433   1.241
54850W        W23323   7.799  13.719  10.457
54851W        W23324  27.681  28.939  12.521
54852W        W23325   9.187  32.981  11.125
54853W        W23326  33.454  15.179  14.409
54854W        W23327  22.720  16.636  10.439
54855W        W23328   8.748  24.048   0.257
54856W        W23329  15.236  43.465   1.932
54857W        W23330  21.225   5.740   1.908
54858W        W23331  32.397  41.007  13.416
54859W        W23332  24.184  35.955   0.292
54860W        W23333  23.640  21.192   1.369
54861W        W23334  34.966  37.890   2.239
54862W        W23335  27.622  10.758  13.386
54863W        W23336  26.068   9.827   4.320
54864W        W23337  36.042  15.611  13.383
54865W        W23338   3.392  27.192  14.394
54866W        W23339  10.648  13.744   3.192
54867W        W23340  17.557   2.411   4.711
54868W        W23341  40.977  33.522   0.809
54869W        W23342  40.486   2.393  13.001
54870W        W23343  21.577  28.556  12.448
54871W        W23344   7.296  35.458  14.985
54872W        W23345  35.359  39.323   1.798
54873W        W23346  15.725  23.556   9.937
54874W        W23347  31.039  10.814  12.006
54875W        W23348  32.083  26.652   1.266
54876W        W23349  13.340  12.164   1.772
54877W        W23350   8.294  33.548   4.233
54878W        W23351  16.664  18.273  13.931
54879W        W23352  25.569  29.108   4.345
54880W        W23353   6.792   8.891  12.454
54881W        W23354  24.113  39.022  12.434
54882W        W23355  30.972  35.506  11.393
54883W        W23356  12.846  11.247   0.372
54884W        W23357  28.518  21.075   1.906
54885W        W23358  16.803  40.361   0.938
54886W        W23359  28.484  14.325   4.243
54887W        W23360  15.293  12.128   3.735
54888W        W23361  13.226  37.565  10.002
54889W        W23362  18.552  26.103  11.019
54890W        W23363  37.836  22.701  14.390
54891W        W23364  14.168   8.359  10.489
54892W        W23365  35.413  43.814   3.210
54893W        W23366  23.545  30.126   3.366
54894W        W23367  38.896   3.802   5.230
54895W        W23368  21.069  39.539  13.365
54896W        W23369  13.189  36.995  14.817
54897W        W23370   0.750   3.363  13.363
54898W        W23371  10.759  11.334   1.795
54899W        W23372  20.041  19.100   3.838
54900W        W23373  11.233   1.469  12.027
54901W        W23374   3.740  17.586  11.527
54902W        W23375  34.871  27.506  10.944
54903W        W23376   5.807  12.164   4.254
54904W        W23377  10.264  39.323   1.250
54905W        W23378  19.101  21.532  14.339
54906W        W23379  26.140   9.268  10.912
54907W        W23380  14.234   7.303  13.050
54908W        W23381  31.429  34.915  12.507
54909W        W23382   8.891  10.197  13.522
54910W        W23383  20.038  37.430  10.991
54911W        W23384   5.713  41.027   0.268
54912W        W23385  30.437   9.242  12.992
54913W        W23386  25.611  15.709   5.282
54914W        W23387  43.289   6.298   0.726
54915W        W23388  16.803  26.482   0.289
54916W        W23389  28.074   3.391   2.247
54917W        W23390  33.410   6.298   5.133
54918W        W23391  38.520  40.906   0.878
54919W        W23392  27.075  43.276  11.406
54920W        W23393  27.617  37.885   4.803
54921W        W23394  28.102  27.134  11.982
54922W        W23395  20.593  12.841   9.979
54923W        W23396  43.468  11.193  10.636
54924W        W23397  33.933  29.922   4.803
54925W        W23398  20.239  21.247  11.587
54926W        W23399  31.043  38.567  11.106
54927W        W23400  15.757  42.843  14.787
54928W        W23401  13.191   6.774   0.280
54929W        W23402  24.696  21.720   1.277
54930W        W23403  44.794  37.495   1.249
54931W        W23404  11.220  35.068   3.746
54932W        W23405  43.930   0.767  12.079
54933W        W23406  33.384  23.986  13.989
54934W        W23407  39.944  13.676  13.042
54935W        W23408  32.620  37.843  14.906
54936W        W23409  32.084  21.684   1.439
54937W        W23410  15.763   1.839  11.924
54938W        W23411   4.259  21.103   5.122
54939W        W23412  18.732  29.030   3.246
54940W        W23413  13.669  11.838   0.412
54941W        W23414  11.815  25.516  13.860
54942W        W23415  18.151   8.807  11.902
54943W        W23416  38.450  15.289   3.373
54944W        W23417  14.297  27.456  13.901
54945W        W23418  22.117  10.211  13.878
54946W        W23419   3.233   4.871   1.773
54947W        W23420   5.832  21.751   0.867
54948W        W23421  23.615  44.418  12.907
54949W        W23422  10.858  44.914   2.375
54950W        W23423  44.819  19.046   3.260
54951W        W23424  28.165   0.774   5.095
54952W        W23425  27.991  30.916   2.897
54953W        W23426  34.915  42.783  14.987
54954W        W23427  31.586  32.530  12.458
54955W        W23428  26.978  25.620  11.970
54956W        W23429  15.258  21.017   1.804
54957W        W23430   1.438  11.711  14.838
54958W        W23431  25.122  24.598  12.415
54959W        W23432  27.125  23.579  10.579
54960W        W23433  37.904  20.273   4.218
54961W        W23434  44.954  34.460   1.924
54962W        W23435  14.801  38.835   3.377
54963W        W23436  44.405  43.915  12.957
54964W        W23437  35.104  14.301  12.939
54965W        W23438  12.855  43.443  14.851
54966W        W23439  17.717  13.236  11.395
54967W        W23440  13.745   4.719  12.521
54968W        W23441  22.600  14.277  10.435
54969W        W23442  24.125  44.821   0.306
54970W        W23443  20.166   4.747  11.556
54971W        W23444  39.976  19.744   1.446
54972W        W23445   9.783  33.920   0.328
54973W        W23446  39.360  11.862   0.889
54974W        W23447  35.020  22.601   3.691
54975W        W23448   7.337  29.149   3.203
54976W        W23449   3.319   6.330  14.808
54977W        W23450  22.118  21.203   1.370
54978W        W23451  43.934  26.985   0.965
54979W        W23452  18.246  44.482   1.292
54980W        W23453   5.365   2.332   4.605
54981W        W23454  30.935  42.439   5.147
54982W        W23455  20.586  18.672  11.443
54983W        W23456  11.193  19.667   4.236
54984W        W23457  34.968  34.094   3.828
54985W        W23458  13.272  13.792   4.286
54986W        W23459  21.541  14.306   3.285
54987W        W23460   6.323  42.346   0.806
54988W        W23461  22.598  41.411  14.970
54989W        W23462   0.417  19.740   2.688
54990W        W23463  39.021  40.462   2.355
54991W        W23464  22.181  15.110   4.299
54992W        W23465  37.878   5.911   4.353
54993W        W23466   1.955   5.350  10.930
54994W        W23467   1.241   4.428  13.018
54995W        W23468  42.429  23.007  12.459
54996W        W23469  11.326  35.438   3.171
54997W        W23470  16.117  26.012  12.416
54998W        W23471  39.522  40.856   1.236
54999W        W23472  24.150   2.747   3.750
55000W        W23473  42.888  15.309   3.280
55001W        W23474   4.266  14.171   1.700
55002W        W23475  42.350  22.611  12.481
55003W        W23476  34.592  43.010  11.597
55004W        W23477  35.457   2.887   4.829
55005W        W23478  18.716   7.259  10.642
55006W        W23479  38.571   8.660   3.768
55007W        W23480  40.401  37.430  13.363
55008W        W23481  44.443  38.025   1.832
55009W        W23482  44.462  17.775   1.701
55010W        W23483  38.003   5.390  11.954
55011W        W23484  31.127  42.442   0.478
55012W        W23485  10.806   9.251  12.061
55013W        W23486  44.850  27.011  13.010
55014W        W23487  30.032   7.858   2.383
55015W        W23488  29.050  21.023   4.194
55016W        W23489  25.711  13.816  14.400
55017W        W23490  26.510   4.771   3.708
55018W        W23491  19.580  36.967  13.974
55019W        W23492  16.727  23.187  14.961
55020W        W23493   7.220  22.605  11.949
55021W        W23494  39.820   7.227   1.357
55022W        W23495   5.704  44.809  11.123
55023W        W23496   9.305  10.177  14.011
55024W        W23497  18.602  32.915   4.630
55025W        W23498   3.833  40.026   1.310
55026W        W23499  33.483  27.641  12.559
55027W        W23500  30.633  22.564  11.443
55028W        W23501  18.126  35.940  13.409
55029W        W23502  26.536  43.379  12.546
55030W        W23503  41.400  27.030   0.460
55031W        W23504  14.761  19.580   2.799
55032W        W23505  12.139   7.408  12.038
55033W        W23506  23.556  33.419  13.041
55034W        W23507  44.912  44.492  13.515
55035W        W23508  42.436  35.440   4.315
55036W        W23509   9.185  12.648  10.416
55037W        W23510   7.806   5.392  11.062
55038W        W23511  26.536  33.482  12.551
55039W        W23512   5.779  22.522   0.791
55040W        W23513  44.986  32.626   2.674
55041W        W23514  18.753   1.301  11.048
55042W        W23515  30.975  22.018   2.346
55043W        W23516  22.017  20.574  10.642
55044W        W23517  43.500  25.698   1.373
55045W        W23518  19.091  20.256  12.452
55046W        W23519   9.779   4.930  10.490
55047W        W23520  18.545  44.479  10.054
55048W        W23521  43.994  36.908   4.220
55049W        W23522  34.870  34.072  13.961
55050W        W23523  42.370  34.404   2.400
55051W        W23524  27.006  21.742  12.004
55052W        W23525  30.070  19.177  10.992
55053W        W23526  25.618  39.445   3.299
55054W        W23527  29.492  34.561  12.869
55055W        W23528  33.474  33.452  12.549
55056W        W23529  31.937  35.929  13.314
55057W        W23530  34.922  21.133   2.218
55058W        W23531  11.757   0.418  11.940
55059W        W23532  38.376  34.067  14.949
55060W        W23533  13.160  27.173   0.431
55061W        W23534  29.503  14.813   4.669
55062W        W23535  19.170  11.728   0.754
55063W        W23536  35.464  22.135  13.837
55064W        W23537  34.109   1.374   4.300
55065W        W23538  44.498  32.474  14.971
55066W        W23539  36.373  23.020   3.767
55067W        W23540  21.125   5.884  12.512
55068W        W23541  38.504  17.116  11.861
55069W        W23542  40.046  17.627   0.466
55070W        W23543  36.954   4.424  12.021
55071W        W23544  20.703   0.750  10.540
55072W        W23545  17.063  11.802  13.506
55073W        W23546  25.011  28.657  11.919
55074W        W23547  20.229  11.700   1.932
55075W        W23548  15.792  36.098  12.015
55076W        W23549  44.460  23.216   4.623
55077W        W23550   0.455  15.806   4.336
55078W        W23551   1.747  40.459   1.420
55079W        W23552  35.424  29.011   3.724
55080W        W23553  24.518  26.155  14.491
55081W        W23554  43.470  16.716   3.639
55082W        W23555  41.043  23.639  13.012
55083W        W23556  22.091   7.309  13.434
55084W        W23557  44.911  20.092  14.338
55085W        W23558  23.589  33.084  11.575
55086W        W23559  40.855  11.236  11.917
55087W        W23560  28.463  11.768   3.817
55088W        W23561  26.209  24.032   1.719
55089W        W23562  36.399  33.016   3.638
55090W        W23563  16.257  21.658  14.960
55091W        W23564  37.433  15.782   2.253
55092W        W23565   3.718   9.231  11.388
55093W        W23566  11.211  26.492  14.297
55094W        W23567  16.096  27.122  10.978
55095W        W23568  36.960  13.737  11.859
55096W        W23569  41.473  21.194  12.975
55097W        W23570  41.469  40.324   5.214
55098W        W23571  33.974  32.945  12.540
55099W        W23572  27.607  24.166   0.356
55100W        W23573  32.909  30.444  11.124
55101W        W23574  21.252  43.020  10.154
55102W        W23575  42.976   7.262   3.255
55103W        W23576  11.180  35.536   1.737
55104W        W23577  21.723  30.428   0.771
55105W        W23578  18.271  43.452   3.241
55106W        W23579  19.185  26.102  12.041
55107W        W23580  28.150   7.776   4.351
55108W        W23581  41.495   7.347  14.488
55109W        W23582  35.484  21.225   0.243
55110W        W23583   2.422  36.068   2.398
55111W        W23584  16.692  44.846   3.322
55112W        W23585  43.359  18.599   1.255
55113W        W23586  31.072  35.533  12.013
55114W        W23587  29.598   5.734   4.127
55115W        W23588  17.070  23.111   1.210
55116W        W23589  35.462   1.292  11.422
55117W        W23590  13.674  14.683   0.901
55118W        W23591  16.150  34.410   2.350
55119W        W23592  21.182  18.644  12.068
55120W        W23593  18.551  18.695   0.396
55121W        W23594  26.171  37.988  14.291
55122W        W23595  10.276  31.079  12.909
55123W        W23596  39.032  26.156  14.294
55124W        W23597  16.110  38.937  14.822
55125W        W23598  10.220  20.109  10.112
55126W        W23599  10.291  43.909  12.384
55127W        W23600   1.335  31.039   4.187
55128W        W23601  20.229  44.369  13.055
55129W        W23602   3.392  40.948   3.228
55130W        W23603   9.358   6.904   2.705
55131W        W23604  28.447   6.251  14.849
55132W        W23605  15.301  22.163  10.600
55133W        W23606  27.570  36.569   0.879
55134W        W23607  35.509  15.583   4.728
55135W        W23608   6.356  43.422  12.982
55136W        W23609  40.934  17.238  11.992
55137W        W23610  28.475  38.998   3.755
55138W        W23611  15.284  27.624  13.991
55139W        W23612  39.058  33.026   4.712
55140W        W23613  19.228  17.706   1.376
55141W        W23614  24.590  33.490  13.855
55142W        W23615  24.529  16.670  12.981
55143W        W23616  37.472  37.481   3.233
55144W        W23617  38.035  43.951  11.576
55145W        W23618  16.131   7.714   3.204
55146W        W23619  29.104  37.875   2.314
55147W        W23620   1.892  23.510   3.776
55148W        W23621  27.594  36.059   4.783
55149W        W23622  30.485  19.073   0.407
55150W        W23623  26.203  26.471   1.239
55151W        W23624  26.175  26.970  13.044
55152W        W23625  24.520  19.746  10.509
55153W        W23626  29.430   7.191   4.814
55154W        W23627  30.927  33.548  13.964
55155W        W23628  40.866  17.744  12.917
55156W        W23629  13.650  32.551   4.267
55157W        W23630   6.326   3.372  12.918
55158W        W23631  42.982   4.298   2.361
55159W        W23632  37.929  28.933   4.752
55160W        W23633  40.323   6.202   4.143
55161W        W23634   0.286  40.396  14.938
55162W        W23635   8.744  17.605  11.038
55163W        W23636  34.509  11.314   1.905
55164W        W23637  41.029  27.141  12.051
55165W        W23638  21.180  39.330  10.476
55166W        W23639  19.767  27.065   0.866
55167W        W23640  34.596  14.607  13.353
55168W        W23641  31.434  26.965   0.812
55169W        W23642  44.955  44.854  13.936
55170W        W23643   2.772   1.927  11.996
55171W        W23644  19.251  13.279   2.688
55172W        W23645  34.395   9.375  12.993
55173W        W23646  26.143   8.336   1.381
55174W        W23647  15.269   9.331  12.953
55175W        W23648  15.804  27.124   2.380
55176W        W23649  39.474  36.360   1.281
55177W        W23650  23.235  31.916  13.911
55178W        W23651  15.662   5.360  10.899
55179W        W23652  31.967  36.962   2.281
55180W        W23653  27.510  27.487  12.020
55181W        W23654  26.088  36.036  10.962
55182W        W23655  13.127  28.051  10.497
55183W        W23656   9.784  35.982  10.982
55184W        W23657  20.565   1.381  12.926
55185W        W23658  11.769  23.142   3.345
55186W        W23659  17.068  15.133  12.357
55187W        W23660  40.310  31.628  12.956
55188W        W23661  26.558   5.927  11.435
55189W        W23662   8.198  17.198  10.622
55190W        W23663   7.723  44.837  14.500
55191W        W23664  23.079  16.092   3.701
55192W        W23665  18.129  11.686   3.754
55193W        W23666  14.755   1.376   1.873
55194W        W23667  37.564   8.833   9.976
55195W        W23668  14.283  12.701   2.372
55196W        W23669  31.081  20.748  12.850
55197W        W23670  14.095  17.100  12.482
55198W        W23671  33.053  25.543  10.120
55199W        W23672  11.674  40.844   4.274
55200W        W23673  44.350  19.079  10.440
55201W        W23674  35.490  19.218  11.607
55202W        W23675  27.489   9.676   4.613
55203W        W23676  29.051  13.287  11.967
55204W        W23677  19.115  14.265   3.768
55205W        W23678  20.622  38.501   2.325
55206W        W23679  39.487  42.911  14.434
55207W        W23680   1.742  20.558  12.546
55208W        W23681  40.531  42.029  10.955
55209W        W23682  21.138  34.540   4.630
55210W        W23683  36.476  32.406   4.317
55211W        W23684  31.478   6.210  14.783
55212W        W23685  40.306  35.021   4.757
55213W        W23686  24.201  40.410  12.927
55214W        W23687  24.200  14.284   4.712
55215W        W23688  42.971  29.529   1.230
55216W        W23689  17.716  36.034   3.181
55217W        W23690  23.081  25.142  14.298
55218W        W23691  30.472  38.418   3.729
55219W        W23692  31.127   2.827  12.068
55220W        W23693  25.080  24.113  10.982
55221W        W23694  29.107  21.124   1.221
55222W        W23695  15.264  18.189  12.901
55223W        W23696   1.919  17.787   3.321
55224W        W23697  25.096  25.195  13.048
55225W        W23698  17.150  37.553   4.694
55226W        W23699   2.290   4.829   2.679
55227W        W23700  38.996  44.436  14.445
55228W        W23701   4.879  40.831   1.868
55229W        W23702   1.284  28.501  11.860
55230W        W23703  40.400  41.466  13.931
55231W        W23704   3.457  10.815  14.326
55232W        W23705  21.262  39.969   1.889
55233W        W23706  29.003  43.788   0.376
55234W        W23707  32.465  12.326   3.351
55235W        W23708  10.798  25.014  13.864
55236W        W23709  24.015  11.839   4.168
55237W        W23710   6.901   1.943   4.713
55238W        W23711  25.124  37.885   4.239
55239W        W23712  18.645  38.854   3.680
55240W        W23713  10.313  16.688  12.833
55241W        W23714  38.517  14.620  10.580
55242W        W23715  27.008  28.526  11.123
55243W        W23716  13.122   8.805   0.844
55244W        W23717   2.909   1.830   0.956
55245W        W23718  23.636  41.335  10.477
55246W        W23719  35.879   6.783  14.774
55247W        W23720  10.257   1.401   4.822
55248W        W23721  19.706   6.416   4.710
55249W        W23722  19.159  30.522  12.504
55250W        W23723  22.539  36.466   2.778
55251W        W23724  31.502  35.449  11.434
55252W        W23725  42.979   7.810   3.632
55253W        W23726  36.979  23.697   2.718
55254W        W23727  12.195  22.023  10.483
55255W        W23728   6.789  34.120  12.485
55256W        W23729   1.903  32.460  13.913
55257W        W23730   9.719  25.713   5.228
55258W        W23731  16.215  34.909   1.298
55259W        W23732  20.272  29.633   3.223
55260W        W23733  17.099   6.227   2.819
55261W        W23734  29.559  44.371   0.944
55262W        W23735  13.314  35.394   4.817
55263W        W23736   8.297  29.014  11.400
55264W        W23737  33.595  11.828  14.923
55265W        W23738   4.759  13.655   4.245
55266W        W23739   2.892  44.443  12.027
55267W        W23740   8.352  32.896  12.083
55268W        W23741  12.697   2.966   0.913
55269W        W23742  19.243  38.030  13.034
55270W        W23743  24.224  36.378  11.539
55271W        W23744   2.448  30.014   2.262
55272W        W23745  12.723  15.266  14.509
55273W        W23746   5.787  43.469   1.298
55274W        W23747   4.902  26.037  12.446
55275W        W23748   6.306  23.107   0.341
55276W        W23749  40.008   2.270   1.307
55277W        W23750   8.801  14.709   3.220
55278W        W23751  42.488   4.278   3.243
55279W        W23752  38.391  44.337  11.594
55280W        W23753  16.637   9.358  11.972
55281W        W23754  32.572  38.431   1.225
55282W        W23755  18.074  36.556  13.868
55283W        W23756  10.664   2.349  12.996
55284W        W23757  42.517  36.916   1.907
55285W        W23758  10.321  39.057  12.980
55286W        W23759   7.322   7.230  12.503
55287W        W23760  15.665  44.941   1.908
55288W        W23761  39.989  20.136  12.869
55289W        W23762  11.290  21.702   2.835
55290W        W23763  38.921  41.374   2.242
55291W        W23764  35.050  40.910  11.384
55292W        W23765   5.785   1.789  14.478
55293W        W23766   1.975  19.231   4.657
55294W        W23767  31.451  21.179   4.155
55295W        W23768  29.005  23.692   0.897
55296W        W23769  18.595  21.173   5.232
55297W        W23770   2.246  30.573   1.444
55298W        W23771  12.832  23.699   4.264
55299W        W23772  23.718  24.988   2.889
55300W        W23773   9.343  10.843  13.923
55301W        W23774  13.754   1.474   2.727
55302W        W23775  33.052  27.117  10.915
55303W        W23776  17.669  26.619   0.291
55304W        W23777  10.823   0.303  13.043
55305W        W23778  35.103  41.476  14.293
55306W        W23779  19.223   5.366   1.708
55307W        W23780  22.742  32.102   0.387
55308W        W23781  10.171   8.655  12.348
55309W        W23782  41.872  40.893  14.921
55310W        W23783  32.924  24.104  12.863
55311W        W23784  23.093   4.327   2.666
55312W        W23785   8.689  18.656   4.683
55313W        W23786  26.526  41.914   3.695
55314W        W23787  30.515  24.556   2.363
55315W        W23788   9.811   8.258   4.237
55316W        W23789  33.436  36.951   0.243
55317W        W23790  18.758  17.075   5.261
55318W        W23791   4.943   0.847   1.260
55319W        W23792   6.875  43.407   0.431
55320W        W23793   8.824  29.985   0.953
55321W        W23794  33.402  27.677   1.379
55322W        W23795  15.712   6.322  13.942
55323W        W23796  15.159  10.648  13.897
55324W        W23797  33.571  12.325   3.170
55325W        W23798  38.472   3.733   3.757
55326W        W23799  26.087   9.839   2.778
55327W        W23800  18.600   0.938  13.515
55328W        W23801  11.741  13.159   5.266
55329W        W23802   0.358  17.670  12.339
55330W        W23803  28.061  18.621   3.858
55331W        W23804  18.203  34.958  13.457
55332W        W23805  17.192   1.441  14.785
55333W        W23806  21.048  41.944   0.960
55334W        W23807  34.906  17.061   5.124
55335W        W23808   2.829  32.027   4.269
55336W        W23809  29.641  10.174   3.685
55337W        W23810   8.217  36.079   3.690
55338W        W23811  29.583   6.904   0.401
55339W        W23812  35.982   3.889   0.844
55340W        W23813   7.268  23.067  12.022
55341W        W23814  13.167  37.506   4.643
55342W        W23815  24.718  16.188   2.794
55343W        W23816  14.234  20.527   4.692
55344W        W23817   6.197  19.125  12.862
55345W        W23818  39.389  12.275   3.704
55346W        W23819  38.567  22.199  11.388
55347W        W23820  14.188  43.467   0.457
55348W        W23821  29.109  19.082  10.941
55349W        W23822  33.098   9.715   1.447
55350W        W23823  35.006   5.411   0.338
55351W        W23824  22.107  18.198  12.388
55352W        W23825  10.177   0.303   3.259
55353W        W23826  25.556  39.834  11.572
55354W        W23827  10.864   6.875  13.481
55355W        W23828  18.232  28.539   3.198
55356W        W23829  23.231  30.645   2.749
55357W        W23830   8.823   3.439  10.954
55358W        W23831  35.864  10.698   0.265
55359W        W23832   2.955  37.061  13.539
55360W        W23833  27.458  20.683   1.262
55361W        W23834  21.237  23.102  11.998
55362W        W23835   0.965  31.038  13.932
55363W        W23836  39.510  17.700  10.902
55364W        W23837  34.499   6.826  10.565
55365W        W23838  28.468   2.296   2.783
55366W        W23839   8.328  34.036  10.579
55367W        W23840  39.925  31.022  14.786
55368W        W23841  14.243   9.808  12.376
55369W        W23842  41.390  10.676  12.848
55370W        W23843  22.696  23.139   3.340
55371W        W23844  40.400  15.165  12.981
55372W        W23845   5.383  20.524   1.287
55373W        W23846  42.876  26.192   3.365
55374W        W23847  10.268  39.359  12.578
55375W        W23848  40.345   7.818  14.985
55376W        W23849  11.706   0.768  12.406
55377W        W23850  43.325  22.093  10.889
55378W        W23851   9.269  41.471  10.077
55379W        W23852  38.961  43.514   0.919
55380W        W23853   5.319   3.806  11.489
55381W        W23854   0.397  15.100  13.440
55382W        W23855  29.960  12.802   2.828
55383W        W23856   2.834  41.385   0.277
55384W        W23857  38.887  18.284   3.709
55385W        W23858  26.574  20.242  14.924
55386W        W23859  17.242   1.400  13.923
55387W        W23860  22.603  25.656   5.133
55388W        W23861  32.498  35.510  11.392
55389W        W23862  30.051  10.235   0.345
55390W        W23863  32.414  25.530   2.885
55391W        W23864  22.009  21.524  12.951
55392W        W23865  37.861  13.641  12.374
55393W        W23866  42.505  40.825  11.431
55394W        W23867  29.458  25.055   2.688
55395W        W23868  36.376   6.292  13.366
55396W        W23869   7.379  43.872   1.914
55397W        W23870   1.352  44.293   2.331
55398W        W23871  23.613  30.950   4.255
55399W        W23872  11.784  44.894   0.881
55400W        W23873  16.116   9.275   0.930
55401W        W23874  12.673  13.126   4.689
55402W        W23875  41.789  14.651  13.433
55403W        W23876  15.271  22.053   2.867
55404W        W23877  32.911  38.460   0.831
55405W        W23878  17.167  29.016  12.021
55406W        W23879  12.808   2.848  12.018
55407W        W23880  19.742   0.336  13.307
55408W        W23881  24.510  23.094   2.419
55409W        W23882  25.666  34.932   9.940
55410W        W23883  36.910  43.872  12.425
55411W        W23884  40.478  17.068   1.325
55412W        W23885  19.054  19.099  12.835
55413W        W23886   1.853   1.298  11.543
55414W        W23887  33.458   5.284  11.531
55415W        W23888   5.408  39.022  11.876
55416W        W23889  40.931  11.724   2.178
55417W        W23890  32.554  10.242  11.954
55418W        W23891  15.201   4.808   0.452
55419W        W23892  18.770  44.422   5.311
55420W        W23893  21.648  26.617   1.304
55421W        W23894  15.242  44.831  10.492
55422W        W23895   9.357  24.042   2.864
55423W        W23896  16.599  24.533  13.912
55424W        W23897  19.727  22.253   4.230
55425W        W23898  34.612   3.242   0.802
55426W        W23899  25.100   7.213   3.370
55427W        W23900   9.343   8.214   2.198
55428W        W23901  31.413   5.365  14.348
55429W        W23902  23.203  37.473  10.966
55430W        W23903  32.483  38.011  10.625
55431W        W23904  14.741  26.092   0.419
55432W        W23905   8.892  20.558   4.798
55433W        W23906  38.427   4.392   3.695
55434W        W23907  19.678  28.512  12.484
55435W        W23908  43.998  40.033   2.745
55436W        W23909   1.349  40.404   1.289
55437W        W23910  24.004  16.615  12.397
55438W        W23911  18.184  10.690   0.726
55439W        W23912  12.222  44.875   1.710
55440W        W23913  32.409  43.516   4.783
55441W        W23914  24.575   1.930   3.709
55442W        W23915   0.743  14.783  12.416
55443W        W23916  41.345  13.116   1.258
55444W        W23917  14.819  21.214  12.499
55445W        W23918   5.847  41.865  13.838
55446W        W23919   7.882  40.346   2.339
55447W        W23920  31.627  16.619   3.692
55448W        W23921   5.321  11.372   0.380
55449W        W23922  36.357  12.218  14.332
55450W        W23923  24.076  20.708   2.847
55451W        W23924  13.212  44.370   5.154
55452W        W23925  41.519   0.945  11.035
55453W        W23926   5.344  41.461   4.786
55454W        W23927  44.489   5.354   4.617
55455W        W23928   2.823  43.414   4.190
55456W        W23929  31.059  18.083  12.900
55457W        W23930   9.725   2.848   2.677
55458W        W23931  34.950  38.927  13.424
55459W        W23932  18.726  30.560   4.739
55460W        W23933  28.977  33.563  12.410
55461W        W23934  37.525  42.468   2.272
55462W        W23935   2.417  36.054  13.894
55463W        W23936  23.594  42.316   4.198
55464W        W23937   6.241  20.685  12.863
55465W        W23938  40.940   8.339  11.505
55466W        W23939  38.990  34.048  12.568
55467W        W23940   4.927   8.163   1.398
55468W        W23941   9.835  28.442  13.054
55469W        W23942  36.090  36.954  14.882
55470W        W23943  43.509  12.817  14.447
55471W        W23944  26.953  17.799   1.437
55472W        W23945   4.331   9.877   1.389
55473W        W23946   1.846  37.955  14.961
55474W        W23947  44.440  12.285   2.892
55475W        W23948  38.350   9.693   3.183
55476W        W23949  44.844  39.941   4.730
55477W        W23950  33.400  14.722   2.267
55478W        W23951   9.242  30.573   5.304
55479W        W23952   6.394  40.887  13.841
55480W        W23953  29.574   6.426  13.395
55481W        W23954  25.043  11.370  14.439
55482W        W23955  30.432   7.894   2.405
55483W        W23956  37.867  33.618  12.439
55484W        W23957  20.215  25.018  12.571
55485W        W23958  35.549  20.109   3.286
55486W        W23959  35.497   9.808  13.033
55487W        W23960   3.799  22.532  13.849
55488W        W23961  29.007  26.621  10.049
55489W        W23962  10.689  35.024   5.215
55490W        W23963  15.614  42.823  12.057
55491W        W23964  31.048  38.034   1.858
55492W        W23965   8.862   6.233   0.405
55493W        W23966   5.817  31.897  12.997
55494W        W23967  42.800   7.342  10.928
55495W        W23968  10.681   5.914  14.466
55496W        W23969  31.965  30.121  10.513
55497W        W23970  24.058  32.046   1.794
55498W        W23971   7.852  23.498   4.247
55499W        W23972  13.233   1.408   4.188
55500W        W23973  39.340   6.918  11.119
55501W        W23974  20.588  17.785   2.239
55502W        W23975  20.225   9.726   2.771
55503W        W23976  32.026  31.628   2.185
55504W        W23977  33.594  44.495   3.689
55505W        W23978  15.262  12.212  10.504
55506W        W23979  43.981  27.164  10.514
55507W        W23980  44.425   9.253  11.536
55508W        W23981   3.816  44.931  11.997
55509W        W23982  38.555   7.240  14.803
55510W        W23983   4.242   5.208   5.169
55511W        W23984  10.639  11.865  10.498
55512W        W23985  37.453  38.506  10.612
55513W        W23986   2.375  18.778  11.473
55514W        W23987  44.288  32.970   0.347
55515W        W23988  25.179  35.109   3.746
55516W        W23989  30.420  35.564  14.401
55517W        W23990   3.832  35.497  12.012
55518W        W23991  41.391   9.869   4.211
55519W        W23992  27.034   3.918  14.835
55520W        W23993  16.220  17.788  11.887
55521W        W23994   9.231  39.987  14.391
55522W        W23995   1.459  38.827   2.763
55523W        W23996  15.131  44.782   4.708
55524W        W23997  11.857  33.924  10.027
55525W        W23998   5.871  41.328  12.997
55526W        W23999  15.153  23.639  11.426
55527W        W24000  38.891  24.616   1.779
55528W        W24001   7.774  29.043  12.493
55529W        W24002  19.761   2.796  11.983
55530W        W24003   9.648  13.298  10.436
55531W        W24004  12.712   2.291   1.768
55532W        W24005  28.174  15.637  10.492
55533W        W24006  22.580  29.524  11.495
55534W        W24007  13.327   0.457   3.786
55535W        W24008  40.533  31.631  13.874
55536W        W24009  38.368  23.509   2.196
55537W        W24010  26.056   8.328  11.952
55538W        W24011  13.315  22.623   3.765
55539W        W24012  19.558  11.205   1.433
55540W        W24013  33.551  28.168   5.235
55541W        W24014  17.681  43.011  12.422
55542W        W24015  24.194  22.138   3.168
55543W        W24016  29.573   9.184  10.624
55544W        W24017  41.362  33.569   4.679
55545W        W24018  24.025  28.146  13.884
55546W        W24019  40.825   2.415  12.472
55547W        W24020  28.140  23.206   2.721
55548W        W24021  27.633   9.308   0.326
55549W        W24022  26.532  22.703  10.641
55550W        W24023  38.067  14.707  11.413
55551W        W24024  36.925   4.247   3.280
55552W        W24025  32.619  31.107  13.361
55553W        W24026  13.780  10.755  12.376
55554W        W24027  22.692   9.775   0.363
55555W        W24028  23.210  33.425   0.469
55556W        W24029   9.804  31.913   4.215
55557W        W24030  32.527  23.146  10.919
55558W        W24031   7.209  10.359   2.809
55559W        W24032  28.437  41.534   4.771
55560W        W24033  27.665   0.263  10.933
55561W        W24034  20.768  30.926   4.231
55562W        W24035  31.592  25.989   1.211
55563W        W24036  13.807  30.550   0.321
55564W        W24037  12.229  43.406   1.225
55565W        W24038  17.764  24.620   4.797
55566W        W24039  11.854  15.583   1.396
55567W        W24040  15.650   5.390  11.549
55568W        W24041  23.634  30.482   1.850
55569W        W24042  29.985  27.964  12.535
55570W        W24043  23.002  11.319  11.946
55571W        W24044   8.199  39.828  11.441
55572W        W24045  28.442  17.790  11.511
55573W        W24046  29.522  24.620  10.404
55574W        W24047  34.436  40.513  13.905
55575W        W24048  16.112  43.345   4.161
55576W        W24049  30.510  37.838   2.267
55577W        W24050  15.667  10.313   3.776
55578W        W24051  16.588   2.356  11.448
55579W        W24052   4.303  43.958  10.960
55580W        W24053   3.417  44.008   2.418
55581W        W24054  12.259  30.105  11.126
55582W        W24055  18.186  33.073   3.714
55583W        W24056  39.448  44.281   4.151
55584W        W24057  22.567  16.261  10.521
55585W        W24058   2.362   9.261  11.113
55586W        W24059  25.633   7.399   4.750
55587W        W24060  35.409  16.094   0.807
55588W        W24061  32.949  41.345   0.962
55589W        W24062  17.646  31.074  13.799
55590W        W24063   8.701   3.774  13.809
55591W        W24064  43.974   5.230   3.186
55592W        W24065  41.526  37.511   0.352
55593W        W24066  30.461  38.449   1.859
55594W        W24067  22.210  19.587   0.442
55595W        W24068  14.738  25.212   2.247
55596W        W24069  34.882  14.618  10.428
55597W        W24070   1.297  34.528   1.360
55598W        W24071  41.495  20.200   0.745
55599W        W24072   7.358  42.503   2.854
55600W        W24073   7.806  42.463   4.675
55601W        W24074  17.647   3.215   0.462
55602W        W24075  13.276   8.389   1.362
55603W        W24076  32.115  39.005   2.879
55604W        W24077  38.367  13.796  14.340
55605W        W24078  10.207  14.169   5.199
55606W        W24079  29.481  33.107  14.992
55607W        W24080  16.074   4.924   4.253
55608W        W24081   1.776  44.467  12.855
55609W        W24082   6.332  22.500  13.848
55610W        W24083  14.675  10.147  12.947
55611W        W24084  26.076  27.022   4.607
55612W        W24085   0.294  41.869   4.347
55613W        W24086  12.630   1.760   4.114
55614W        W24087  15.771  30.601   0.380
55615W        W24088  32.494  33.498  11.520
55616W        W24089  23.509   4.853   0.376
55617W        W24090  39.421  23.030  11.880
55618W        W24091  30.094  26.082  14.425
55619W        W24092  33.925  36.467  11.536
55620W        W24093  39.995  22.580  10.479
55621W        W24094   1.412  43.302  10.888
55622W        W24095  24.110  27.951   5.308
55623W        W24096  11.705  11.237  11.975
55624W        W24097  29.074  14.120  13.407
55625W        W24098  10.785  17.732  14.882
55626W        W24099   4.252  42.514  13.328
55627W        W24100  10.660  36.587  13.455
55628W        W24101  14.109  31.106   1.293
55629W        W24102  38.491   7.681   4.347
55630W        W24103  40.919  42.804  11.912
55631W        W24104   9.287  30.544  12.027
55632W        W24105   1.357  27.466   0.377
55633W        W24106  25.087  43.409   2.183
55634W        W24107  21.596  14.184  14.032
55635W        W24108   1.237   5.432  14.355
55636W        W24109   0.936  14.833   2.265
55637W        W24110  42.400  26.466   4.338
55638W        W24111  27.570  18.754   4.641
55639W        W24112  13.137   7.259  14.399
55640W        W24113  34.511  24.580  11.521
55641W        W24114   1.359  34.436  12.055
55642W        W24115  24.685  14.168   3.806
55643W        W24116  19.542   0.338   1.358
55644W        W24117   7.357   5.211   1.817
55645W        W24118   2.329  14.756   2.766
55646W        W24119  26.954  27.664  10.618
55647W        W24120  18.109  15.221  12.968
55648W        W24121  34.955  27.147  14.466
55649W        W24122   6.749   3.861  10.579
55650W        W24123  20.129  22.228  11.401
55651W        W24124  14.143  33.494   4.830
55652W        W24125   3.363  25.017  13.413
55653W        W24126  17.556  34.577   4.353
55654W        W24127  17.267  32.557  10.611
55655W        W24128   4.800  30.513  13.947
55656W        W24129  39.420  21.750  13.945
55657W        W24130   2.342  33.436  13.453
55658W        W24131  27.024   7.741  14.924
55659W        W24132   7.394  38.980   4.181
55660W        W24133   3.254  42.304   1.846
55661W        W24134  28.112   0.453  13.062
55662W        W24135  37.456  34.878  13.910
55663W        W24136  39.324  15.782  13.379
55664W        W24137  19.271  13.187  13.463
55665W        W24138  39.504  35.558  13.016
55666W        W24139  22.565  36.014  10.421
55667W        W24140  18.205  26.051  13.410
55668W        W24141  28.183  30.154   9.933
55669W        W24142  15.596  41.367   1.426
55670W        W24143   1.882  28.182  10.419
55671W        W24144   0.474  17.664  13.386
55672W        W24145   3.395  38.509  11.937
55673W        W24146  12.346  20.215  13.322
55674W        W24147   0.979  21.108   4.154
55675W        W24148  12.748  31.932   4.122
55676W        W24149  13.812   9.827  13.316
55677W        W24150   8.835  30.644  12.491
55678W        W24151   1.769  38.852   4.296
55679W        W24152  11.195   0.325  11.074
55680W        W24153  10.833  34.601  10.932
55681W        W24154  34.556  10.675  10.605
55682W        W24155   5.343  30.598   5.274
55683W        W24156  25.074   4.405   1.296
55684W        W24157   2.788  26.123  14.511
55685W        W24158  14.627  18.243   4.133
55686W        W24159  12.137  31.911  13.013
55687W        W24160  29.516   4.895   1.828
55688W        W24161  27.959  41.388   1.444
55689W        W24162  42.903  36.545  14.808
55690W        W24163  34.938  34.537  12.913
55691W        W24164   9.364  10.383  11.958
55692W        W24165  35.102   7.716   0.944
55693W        W24166  25.649  24.979  12.372
55694W        W24167   3.257  19.088   3.238
55695W        W24168  17.307   6.810  14.474
55696W        W24169  34.445   7.720   4.342
55697W        W24170  21.701  42.436  10.446
55698W        W24171  14.290  40.374  12.921
55699W        W24172  18.242  44.776  11.076
55700W        W24173   1.460  16.730   1.356
55701W        W24174   9.760  25.571  10.908
55702W        W24175  43.869  17.752  10.638
55703W        W24176  17.124   4.412  11.965
55704W        W24177  43.430  38.942   1.844
55705W        W24178  39.526  32.515  14.816
55706W        W24179  41.966   6.252  14.385
55707W        W24180  24.720  44.842  11.936
55708W        W24181  11.844   4.789  12.536
55709W        W24182  15.739  32.111  12.856
55710W        W24183   2.237  27.539  11.107
55711W        W24184   0.291  18.773   1.248
55712W        W24185  12.788  11.305  12.452
55713W        W24186   7.736  27.567  11.470
55714W        W24187  34.414  21.142   2.246
55715W        W24188  17.583  33.390   4.122
55716W        W24189  43.435  41.803   1.895
55717W        W24190  21.584   9.327   0.434
55718W        W24191  38.381  41.493   4.205
55719W        W24192  33.512  43.468  14.866
55720W        W24193  17.571   5.270  14.429
55721W        W24194   0.803  20.128  11.932
55722W        W24195  26.461  44.812   2.284
55723W        W24196  42.398   3.932   3.194
55724W        W24197  21.622  33.065   1.872
55725W        W24198   4.867  34.076   1.789
55726W        W24199   5.886  37.862  12.850
55727W        W24200   3.225  16.104   4.293
55728W        W24201  22.501  13.230   4.174
55729W        W24202   5.391   4.278   5.693
55730W        W24203  36.871  13.309  13.450
55731W        W24204  21.629  24.189  12.511
55732W        W24205   7.261  27.619   1.218
55733W        W24206  34.406  44.374  14.879
55734W        W24207  24.552  43.901  11.587
55735W        W24208  27.637  25.978   2.855
55736W        W24209  43.981  44.450  10.513
55737W        W24210  30.620  29.028  10.915
55738W        W24211  33.977  38.365   1.760
55739W        W24212  33.923  21.754   1.833
55740W        W24213  17.715  29.970  10.499
55741W        W24214  26.045  44.978   4.649
55742W        W24215  25.207  15.600  12.445
55743W        W24216  36.565  19.160  12.504
55744W        W24217  39.893   9.350  12.913
55745W        W24218   3.812   7.817   4.116
55746W        W24219  31.011   4.909  13.798
55747W        W24220  32.979  28.508   2.760
55748W        W24221   3.458  31.559   2.260
55749W        W24222   3.258  33.566   1.895
55750W        W24223  19.572  25.134   1.368
55751W        W24224   1.765  38.838  10.541
55752W        W24225  30.505  43.442  13.886
55753W        W24226  10.180  15.733   5.260
55754W        W24227  11.848  24.701   5.088
55755W        W24228  22.135  42.447   4.715
55756W        W24229  38.971  44.862  11.417
55757W        W24230  39.349  19.599   3.856
55758W        W24231  38.411  15.604   3.646
55759W        W24232  37.916  40.907   1.773
55760W        W24233  27.550  39.906  12.034
55761W        W24234   5.204  41.295   2.294
55762W        W24235  37.523  21.601   4.656
55763W        W24236   4.944  37.852   3.869
55764W        W24237  34.041  27.969  11.870
55765W        W24238   0.275  15.213   1.296
55766W        W24239  16.704  44.453   2.707
55767W        W24240  31.917  19.776   3.671
55768W        W24241  13.317  41.514  10.916
55769W        W24242  36.358   9.706   4.216
55770W        W24243  16.697  29.621   3.861
55771W        W24244   0.941  14.159  14.463
55772W        W24245   2.789  42.438   2.798
55773W        W24246   3.955  19.096  14.331
55774W        W24247  10.335  27.474   2.350
55775W        W24248   8.737  44.434  13.426
55776W        W24249  21.143   7.864   3.336
55777W        W24250  43.318   9.769  10.489
55778W        W24251  38.351  38.383   0.781
55779W        W24252   4.332  15.196   2.230
55780W        W24253  26.161  26.520  14.292
55781W        W24254  43.900  21.751  14.468
55782W        W24255  34.941  29.047  10.511
55783W        W24256  16.724  34.574  11.550
55784W        W24257  10.744   6.765   1.212
55785W        W24258  26.534   8.275  11.923
55786W        W24259  28.672  39.540   3.672
55787W        W24260  37.896  39.052  12.085
55788W        W24261  35.945   6.701  12.402
55789W        W24262  33.598   3.331  13.857
55790W        W24263   8.775   9.733   2.900
55791W        W24264  27.070  10.878   3.245
55792W        W24265  25.621   5.333   4.784
55793W        W24266   8.834  21.705  14.986
55794W        W24267  42.848  27.149  11.472
55795W        W24268  15.814  15.140   4.821
55796W        W24269  31.458  30.926  14.467
55797W        W24270  42.356  38.874   2.740
55798W        W24271  39.457  19.600   0.731
55799W        W24272  32.580   4.411   1.289
55800W        W24273   4.707   1.381   3.319
55801W        W24274  32.104  41.989   9.933
55802W        W24275   4.332  21.621  13.471
55803W        W24276  17.116   4.887  12.000
55804W        W24277  37.467   9.797   0.819
55805W        W24278   3.243   1.864   1.232
55806W        W24279  19.203  37.014   3.704
55807W        W24280  29.030   4.786   0.948
55808W        W24281  24.495  35.456  14.874
55809W        W24282   7.311  35.426  13.985
55810W        W24283   1.274   8.813   4.663
55811W        W24284  30.473   0.971   3.791
55812W        W24285  44.970  10.786  11.031
55813W        W24286  24.133  22.213  11.557
55814W        W24287  43.297  30.589   1.763
55815W        W24288  20.262  14.189  11.485
55816W        W24289  24.531  15.283   0.299
55817W        W24290   0.268  38.539   4.275
55818W        W24291  35.913  32.896  12.942
55819W        W24292  12.239  38.361   1.879
55820W        W24293  44.316  34.404   2.708
55821W        W24294   7.358  39.514  14.773
55822W        W24295   4.332  40.454   1.284
55823W        W24296  21.115  36.879   3.332
55824W        W24297  44.474   0.972   2.253
55825W        W24298  38.046  25.080   1.275
55826W        W24299  37.961   5.435  13.038
55827W        W24300  23.002  26.675  12.517
55828W        W24301   1.825   5.194   3.804
55829W        W24302  18.719  36.577  13.392
55830W        W24303   7.838   4.764   2.211
55831W        W24304  22.115  25.031   5.235
55832W        W24305  22.649   9.887   1.804
55833W        W24306   8.776  43.374  10.888
55834W        W24307  11.719   2.322  11.980
55835W        W24308   6.762  14.725  10.484
55836W        W24309  37.911  26.519  12.553
55837W        W24310   9.238  17.277  13.318
55838W        W24311  23.004  41.431   0.805
55839W        W24312  13.212  28.044  12.963
55840W        W24313  43.364   9.870  10.901
55841W        W24314  24.645  40.863  14.511
55842W        W24315  36.589   2.923   2.734
55843W        W24316  26.506  16.252   4.290
55844W        W24317  36.878  13.690  12.852
55845W        W24318  40.312  20.586  13.368
55846W        W24319   1.870  24.646   3.236
55847W        W24320  12.134   2.301   1.900
55848W        W24321  43.008   3.823   5.240
55849W        W24322  42.838  34.875  14.320
55850W        W24323  41.451  13.153   2.359
55851W        W24324  21.739  29.600  11.097
55852W        W24325  15.680  15.671   1.352
55853W        W24326   7.180   1.431  13.428
55854W        W24327  23.664  17.174   3.838
55855W        W24328  33.118  23.702   0.389
55856W        W24329  35.590   3.855  11.401
55857W        W24330  30.599  12.737  11.539
55858W        W24331  20.684  22.594   0.755
55859W        W24332   3.234   2.804  14.305
55860W        W24333   1.406  24.978   0.462
55861W        W24334  11.192  31.986  12.989
55862W        W24335  31.116  14.786  11.481
55863W        W24336  12.362  31.609  13.325
55864W        W24337   6.378  14.256   2.185
55865W        W24338   2.272  25.198   4.790
55866W        W24339  13.670  19.152  12.052
55867W        W24340  12.807  12.709   2.368
55868W        W24341  30.911   4.444  12.486
55869W        W24342   7.408  16.091   5.590
55870W        W24343   7.266  37.462  11.121
55871W        W24344   8.729  24.133   3.385
55872W        W24345  31.599  24.574  13.948
55873W        W24346  14.644  10.327   9.970
55874W        W24347  36.938  29.551   0.247
55875W        W24348  28.174  41.512  12.541
55876W        W24349  31.573  26.033  12.095
55877W        W24350  27.547  19.637   0.380
55878W        W24351  15.090  22.711  14.488
55879W        W24352  36.369  28.578   4.666
55880W        W24353  32.499  43.432  11.008
55881W        W24354   8.686  30.460  10.414
55882W        W24355  14.260  25.474   5.266
55883W        W24356  12.309  24.053  11.541
55884W        W24357  22.735   2.772   0.755
55885W        W24358  31.986  26.526  12.927
55886W        W24359  19.705  22.554   0.292
55887W        W24360  38.866   8.180  13.824
55888W        W24361  13.311  32.430   0.385
55889W        W24362   0.917  15.163  10.558
55890W        W24363  44.956  30.941  11.563
55891W        W24364  16.745  12.837  10.489
55892W        W24365  20.532  30.989  10.926
55893W        W24366  18.672  20.743   2.400
55894W        W24367  30.085   9.308   3.763
55895W        W24368  27.484  15.120   2.227
55896W        W24369  24.648  40.040  10.548
55897W        W24370  43.295  38.927   1.322
55898W        W24371   5.767  42.821  13.309
55899W        W24372  37.468  17.163   4.116
55900W        W24373  18.270  15.266  13.327
55901W        W24374   2.450  28.938  13.839
55902W        W24375   5.350   2.432  13.883
55903W        W24376  23.002  11.630  12.941
55904W        W24377  42.494   8.350   1.384
55905W        W24378  22.007  22.695   3.739
55906W        W24379  25.636  13.285  11.092
55907W        W24380   4.308  25.491   2.766
55908W        W24381  37.045  35.854  11.994
55909W        W24382  39.919   8.192  10.622
55910W        W24383  34.398   1.282  14.840
55911W        W24384  40.345  36.928   1.332
55912W        W24385  38.882  33.495   1.735
55913W        W24386  38.496  13.821  11.377
55914W        W24387  28.954  21.756  13.926
55915W        W24388  43.389  10.223   2.314
55916W        W24389  21.026   1.793   4.698
55917W        W24390  39.844  23.004   2.403
55918W        W24391  25.056  14.778   0.806
55919W        W24392  18.570  33.019   0.786
55920W        W24393  16.131  41.862   3.847
55921W        W24394  11.155  31.064   3.373
55922W        W24395  34.074   5.218   1.697
55923W        W24396  16.607   1.459   2.363
55924W        W24397  32.516  11.173   0.402
55925W        W24398   7.845  21.532  12.469
55926W        W24399  27.494   4.379   1.906
55927W        W24400  35.522  30.415  14.780
55928W        W24401   8.379  25.023   5.742
55929W        W24402  43.461  35.914  14.889
55930W        W24403  44.859  31.091   1.290
55931W        W24404  44.868  44.402  10.050
55932W        W24405  25.063  30.963   2.394
55933W        W24406  15.316  34.511   0.262
55934W        W24407  35.070  19.093  13.053
55935W        W24408  36.033  34.989  10.434
55936W        W24409  23.232  28.636   3.688
55937W        W24410  19.075  19.062   3.359
55938W        W24411  34.612   0.390  11.004
55939W        W24412  28.636  43.413  14.468
55940W        W24413  39.528  37.961   2.252
55941W        W24414  18.191  42.411   3.852
55942W        W24415  30.435  35.042  11.376
55943W        W24416  14.266  10.254  13.422
55944W        W24417  40.813   1.469  11.456
55945W        W24418  40.428  10.236   4.809
55946W        W24419  29.455   7.200   0.365
55947W        W24420  21.757  27.674   0.795
55948W        W24421   7.722  19.609   0.388
55949W        W24422   8.826   7.214   4.667
55950W        W24423   1.244  30.534   3.731
55951W        W24424  41.814  44.288  13.881
55952W        W24425   8.894  31.953  14.877
55953W        W24426   1.475  35.540   2.239
55954W        W24427  36.917  32.081  10.570
55955W        W24428  29.937   7.353   2.761
55956W        W24429  10.640   9.337   1.816
55957W        W24430  27.954  25.488  12.979
55958W        W24431   4.917   3.431  12.849
55959W        W24432  23.999  31.008  12.983
55960W        W24433  40.538  42.856   4.631
55961W        W24434   0.311  12.771   2.858
55962W        W24435   5.726   7.739   0.416
55963W        W24436  11.176  41.374   2.871
55964W        W24437  37.982   5.763  12.559
55965W        W24438   6.760  36.860   2.323
55966W        W24439  35.525   2.270  14.802
55967W        W24440  21.147   1.819  10.566
55968W        W24441  13.667  44.415   3.751
55969W        W24442  19.581  36.501   4.650
55970W        W24443  41.810  25.098  12.499
55971W        W24444  15.584  19.161  14.353
55972W        W24445  40.310  26.697   3.784
55973W        W24446  20.196  28.465  11.415
55974W        W24447  24.655   8.877   3.344
55975W        W24448  19.662  41.395   1.707
55976W        W24449  24.111  27.156   0.291
55977W        W24450  11.712   9.773   4.618
55978W        W24451   0.910  20.607   3.687
55979W        W24452   0.853   3.309  11.543
55980W        W24453  41.032  17.259   0.280
55981W        W24454   5.377  22.657   3.671
55982W        W24455  38.467   4.431   2.391
55983W        W24456   7.189  26.066   4.685
55984W        W24457   2.295  32.453   0.246
55985W        W24458  21.151  27.536  13.311
55986W        W24459   5.884  11.697   2.661
55987W        W24460  32.942   8.243   4.644
55988W        W24461  42.928  36.951  14.512
55989W        W24462  41.516   2.368  12.830
55990W        W24463  15.240  19.256  14.944
55991W        W24464  22.682  14.827  14.407
55992W        W24465  42.022  33.090  13.402
55993W        W24466  14.200  26.039  10.496
55994W        W24467  27.635  42.018  14.338
55995W        W24468  40.021  44.003   2.821
55996W        W24469  10.865  35.590   5.281
55997W        W24470  29.029  32.976   3.356
55998W        W24471  40.511   3.867   0.882
55999W        W24472  23.157  28.551  10.925
56000W        W24473  26.046  44.338   5.205
56001W        W24474  20.625  25.127   0.350
56002W        W24475  32.014  42.856  14.295
56003W        W24476  24.986   7.206  14.768
56004W        W24477  38.046   6.865   4.755
56005W        W24478   8.737  34.579  12.970
56006W        W24479  39.507  29.130  14.373
56007W        W24480  39.500  20.641   0.426
56008W        W24481  32.973  29.622  13.799
56009W        W24482  29.017  37.480  10.626
56010W        W24483  34.999  26.205  12.915
56011W        W24484  34.560  30.081  11.923
56012W        W24485  38.976  20.263  10.938
56013W        W24486  32.525  40.037  11.053
56014W        W24487  10.762   0.850  14.783
56015W        W24488  44.881  40.344  12.399
56016W        W24489  27.137  44.991   4.183
56017W        W24490  27.055  39.824  10.505
56018W        W24491  10.333  21.224  13.362
56019W        W24492   9.341  33.544   0.351
56020W        W24493  10.177  44.463   1.241
56021W        W24494  13.253   5.276   3.387
56022W        W24495  16.773  28.666   0.802
56023W        W24496  31.152  39.909  10.979
56024W        W24497  24.694  29.567  14.799
56025W        W24498  40.319  35.995   1.385
56026W        W24499  33.119  17.127   1.350
56027W        W24500  33.978  44.781   0.781
56028W        W24501   1.267  25.615  13.903
56029W        W24502  21.143  17.790  12.430
56030W        W24503   1.315   8.310  13.910
56031W        W24504  28.616  12.317  10.543
56032W        W24505   6.370  23.040   0.909
56033W        W24506  34.996  40.442   3.375
56034W        W24507   6.352  15.686   2.860
56035W        W24508  12.715  20.635  12.961
56036W        W24509  17.634   7.218  10.914
56037W        W24510  24.228  42.866  11.091
56038W        W24511   8.253   7.290  13.937
56039W        W24512  10.837  23.700  12.409
56040W        W24513  31.579  29.527   2.869
56041W        W24514  24.566  22.173   2.877
56042W        W24515  37.884  24.611  14.939
56043W        W24516  30.443  44.819  12.365
56044W        W24517  34.373   9.374   1.921
56045W        W24518  26.114  35.599  14.495
56046W        W24519  20.058   0.379  11.562
56047W        W24520   8.690   7.758   4.774
56048W        W24521   5.792  43.915  14.773
56049W        W24522   0.422  36.854   2.675
56050W        W24523   4.713   9.790   0.886
56051W        W24524  37.981  18.725   2.745
56052W        W24525  20.266  41.398  14.459
56053W        W24526  12.291  32.017   9.921
56054W        W24527  38.520  39.899   3.145
56055W        W24528   0.469  37.535  11.598
56056W        W24529   1.339  27.172   4.774
56057W        W24530  36.487   3.773  12.376
56058W        W24531   0.377  35.595  11.519
56059W        W24532  13.734   3.373  11.072
56060W        W24533  30.583   8.724  11.542
56061W        W24534  24.574  27.081  12.065
56062W        W24535   5.718  15.319  11.447
56063W        W24536  32.967   9.378   1.211
56064W        W24537  44.449   1.878  14.948
56065W        W24538  37.937   2.408  12.987
56066W        W24539  41.832  13.128   0.368
56067W        W24540  34.494  43.911  12.034
56068W        W24541  39.830   3.831   0.732
56069W        W24542   8.893  35.449  14.503
56070W        W24543   2.338   8.798   0.383
56071W        W24544   0.297   7.838   3.772
56072W        W24545  40.497  44.837   0.734
56073W        W24546  33.917  31.958  12.859
56074W        W24547  20.647  23.495  14.304
56075W        W24548   4.225  42.817  12.466
56076W        W24549  25.708  20.622   2.885
56077W        W24550  24.127  41.929  13.515
56078W        W24551   6.372  10.160  11.904
56079W        W24552  22.111  32.425   0.334
56080W        W24553  29.072   9.253  13.522
56081W        W24554   9.326  19.680  12.991
56082W        W24555  21.216   4.236   4.276
56083W        W24556   0.456  29.009  12.015
56084W        W24557  37.523   7.745  14.422
56085W        W24558  34.605  36.370   1.215
56086W        W24559   9.222  21.688   3.755
56087W        W24560   0.344  44.476   4.228
56088W        W24561  31.949  25.180   3.333
56089W        W24562   8.256   6.423   3.662
56090W        W24563  38.892  26.474   3.208
56091W        W24564  25.617  27.014   2.722
56092W        W24565  22.690  29.491  14.776
56093W        W24566   2.328  14.192   0.818
56094W        W24567   9.684  37.838   3.705
56095W        W24568   8.207  15.324  14.437
56096W        W24569   1.958  17.108  11.520
56097W        W24570   8.386  37.360  13.013
56098W        W24571  12.630  43.975   0.809
56099W        W24572  17.638  41.002   1.859
56100W        W24573  15.715  42.894  13.877
56101W        W24574  17.607  10.727   1.244
56102W        W24575  23.586  24.478   2.776
56103W        W24576   8.361   4.790  12.377
56104W        W24577  26.501  23.607  14.768
56105W        W24578   3.798  41.306   4.729
56106W        W24579   1.364  20.099   4.268
56107W        W24580  32.092  17.089  11.444
56108W        W24581  34.386  38.000   2.185
56109W        W24582  29.566   2.466   2.902
56110W        W24583  32.565  24.105  11.885
56111W        W24584  34.096  42.826   1.269
56112W        W24585  19.196  15.613  12.058
56113W        W24586  29.526  34.448   2.874
56114W        W24587   1.761  44.291   2.718
56115W        W24588  43.987   6.764   4.154
56116W        W24589  24.062  26.193   5.228
56117W        W24590  39.554  42.431  12.391
56118W        W24591  23.995  36.986  12.876
56119W        W24592  39.835  19.696  10.531
56120W        W24593  29.045  44.289  12.976
56121W        W24594   3.954  25.191  14.878
56122W        W24595  32.018   3.927   2.798
56123W        W24596  31.532  22.227  14.821
56124W        W24597   7.324   2.831   3.805
56125W        W24598   9.831  41.438  12.001
56126W        W24599  44.363   8.697  11.965
56127W        W24600  21.541   1.936  12.864
56128W        W24601   5.324  36.545   3.176
56129W        W24602   5.788  36.425  12.845
56130W        W24603  14.707  23.503   3.154
56131W        W24604   5.908  35.554  11.118
56132W        W24605  13.740  27.668   3.786
56133W        W24606  43.787  13.740  14.775
56134W        W24607   3.709  19.057  11.956
56135W        W24608  16.573  31.451  13.948
56136W        W24609   2.454  11.251  12.968
56137W        W24610  20.626  36.509   0.350
56138W        W24611  24.639  11.278   2.314
56139W        W24612  35.483  43.862  13.972
56140W        W24613   6.230  34.537  14.308
56141W        W24614  13.192  29.633   4.645
56142W        W24615   0.933  42.516  10.469
56143W        W24616  28.084  19.731   2.306
56144W        W24617  26.495  28.615  10.521
56145W        W24618  34.486  22.555   0.747
56146W        W24619  38.357  28.534   0.781
56147W        W24620  39.862  41.518   1.795
56148W        W24621  12.732  36.565  13.481
56149W        W24622   7.364  19.611  11.400
56150W        W24623  17.123   7.389   5.308
56151W        W24624  10.186  16.808   2.817
56152W        W24625  17.068  37.839   0.887
56153W        W24626  36.881   5.262   2.320
56154W        W24627  38.983  21.084   3.828
56155W        W24628  25.565  29.159  14.839
56156W        W24629  37.499  18.786  13.464
56157W        W24630  14.298  27.677   3.234
56158W        W24631   7.788  40.512  10.419
56159W        W24632  32.102   0.392   2.734
56160W        W24633  37.472  30.594  10.978
56161W        W24634   0.875  27.982  14.872
56162W        W24635  32.623  36.549  11.471
56163W        W24636   7.180   6.244  11.098
56164W        W24637  41.899  28.016  14.915
56165W        W24638  27.640  21.223   0.929
56166W        W24639  24.508  34.029   1.276
56167W        W24640   2.334  19.109   0.774
56168W        W24641  39.480  38.550   0.860
56169W        W24642   1.462  35.561  10.574
56170W        W24643  28.982   7.868   4.625
56171W        W24644  25.030  36.523   0.397
56172W        W24645  30.548  35.109  12.438
56173W        W24646   9.210  22.693   2.227
56174W        W24647   1.482  17.232   2.210
56175W        W24648   8.682  33.113   2.216
56176W        W24649  43.387  26.037   3.802
56177W        W24650  21.155  23.558  11.518
56178W        W24651  34.569   9.318  11.090
56179W        W24652  37.515  11.267  13.948
56180W        W24653   8.892  38.524   4.276
56181W        W24654  25.148   2.849  10.448
56182W        W24655  21.691  37.997   3.684
56183W        W24656  34.566  13.702   1.227
56184W        W24657   6.253  34.559   2.401
56185W        W24658   6.711  16.156  11.524
56186W        W24659  22.556  15.224   3.329
56187W        W24660  21.702  29.991  10.454
56188W        W24661  40.945  12.212  14.483
56189W        W24662  42.359  37.576   5.286
56190W        W24663  16.221   6.392  12.871
56191W        W24664  13.766  27.541  12.922
56192W        W24665  13.686   5.825  12.927
56193W        W24666  37.356  28.553  10.971
56194W        W24667  40.882   5.808  10.427
56195W        W24668   2.944  42.299   4.658
56196W        W24669   9.870  10.755  11.564
56197W        W24670  23.082  39.975  10.410
56198W        W24671  19.055  33.511   2.773
56199W        W24672   0.343  21.200  10.135
56200W        W24673  40.016   6.395  13.794
56201W        W24674  17.721  39.316  14.765
56202W        W24675   2.847  17.658  14.878
56203W        W24676  42.924  13.137  13.911
56204W        W24677   3.839  21.120  12.515
56205W        W24678  44.344  38.568   0.294
56206W        W24679  35.505  10.331   1.326
56207W        W24680  17.252  12.218   4.634
56208W        W24681   9.878   5.194   0.942
56209W        W24682  31.613  38.847  12.576
56210W        W24683  21.713   3.376   0.369
56211W        W24684  14.830  38.442   2.318
56212W        W24685   0.927   8.888  11.129
56213W        W24686  23.037  36.066   2.856
56214W        W24687  22.728   0.257   2.896
56215W        W24688  44.967  37.051   3.765
56216W        W24689  42.516  38.500   1.872
56217W        W24690   4.699  33.420  14.336
56218W        W24691   0.852  16.304   3.646
56219W        W24692  44.399  14.205   4.736
56220W        W24693   4.900  14.781   2.269
56221W        W24694  31.522  24.484   2.741
56222W        W24695  18.121  44.353   3.778
56223W        W24696  18.657  29.481   4.316
56224W        W24697   7.682  36.912  14.022
56225W        W24698   1.785  44.964   1.284
56226W        W24699   5.899  32.456  14.831
56227W        W24700  14.778  39.034  11.397
56228W        W24701   7.815  28.033   5.116
56229W        W24702   1.332  11.710  12.388
56230W        W24703  14.716   9.732   3.306
56231W        W24704  26.062  13.251  13.450
56232W        W24705   2.778  10.793  12.083
56233W        W24706  34.950  13.135   1.288
56234W        W24707   9.293  39.526   4.773
56235W        W24708  15.592  17.195  11.591
56236W        W24709   2.356   3.902   1.891
56237W        W24710  15.644  14.319   1.734
56238W        W24711  43.466  12.190   2.224
56239W        W24712  23.226  21.239   4.730
56240W        W24713  27.563  42.342  14.472
56241W        W24714   3.233  16.130   1.911
56242W        W24715   8.267  31.967   1.444
56243W        W24716   0.334   0.967   0.439
56244W        W24717  33.985  23.085   4.752
56245W        W24718  36.545  21.045   3.265
56246W        W24719   9.271   0.944   4.611
56247W        W24720  41.034  10.842   1.254
56248W        W24721  18.114   1.461  14.788
56249W        W24722  44.434   9.247   4.337
56250W        W24723   8.273   6.854   1.360
56251W        W24724  20.146  44.005  14.294
56252W        W24725  25.206  23.159   2.825
56253W        W24726  28.500  17.671   1.439
56254W        W24727  37.364  19.671  10.432
56255W        W24728  12.296  27.049  13.424
56256W        W24729   6.839  13.113  10.968
56257W        W24730  25.174  15.167  14.316
56258W        W24731  42.418   8.207   3.276
56259W        W24732  43.879   1.807  12.917
56260W        W24733  17.295  21.250   4.340
56261W        W24734  17.763  20.269   1.243
56262W        W24735  34.013  17.204  11.919
56263W        W24736  33.045   9.847   2.753
56264W        W24737  31.154  31.014  12.557
56265W        W24738  39.052  41.458  12.877
56266W        W24739  29.111  14.771  13.381
56267W        W24740   2.272   8.272  10.643
56268W        W24741  40.459  33.874  12.918
56269W        W24742  11.244  21.556   0.851
56270W        W24743  18.570  15.264   4.188
56271W        W24744  18.733  14.633   3.825
56272W        W24745  39.815  17.727  12.413
56273W        W24746  33.525   4.795  13.918
56274W        W24747  17.128  32.553   2.411
56275W        W24748  43.487   9.344  10.436
56276W        W24749  34.087  27.033  11.572
56277W        W24750  10.771  44.436  11.018
56278W        W24751  30.549  31.564  11.482
56279W        W24752  35.428  26.979  11.389
56280W        W24753   5.849  44.985   1.299
56281W        W24754  12.799  27.164   1.696
56282W        W24755   2.347  36.964  14.415
56283W        W24756  26.006  10.244   1.308
56284W        W24757   5.313  35.894   2.318
56285W        W24758  18.567  15.693   5.271
56286W        W24759   7.761  12.636  12.842
56287W        W24760  35.503  19.705  11.536
56288W        W24761  12.836  39.971  13.489
56289W        W24762  39.029  36.853   2.351
56290W        W24763   6.224  25.042   2.268
56291W        W24764  18.643  42.792   3.763
56292W        W24765  38.983   4.343  10.592
56293W        W24766  37.457  30.019   0.482
56294W        W24767  31.966  29.086  11.956
56295W        W24768  12.274  25.688   4.201
56296W        W24769   9.355  36.349  14.373
56297W        W24770  36.560   5.215  10.921
56298W        W24771  22.726  14.830  11.578
56299W        W24772  33.095  44.371   1.401
56300W        W24773  14.211  27.066  12.388
56301W        W24774  21.525  41.989  11.061
56302W        W24775  31.093  41.526   2.181
56303W        W24776  28.089  28.074  10.935
56304W        W24777  44.810  12.773   1.814
56305W        W24778   2.444  21.075  13.464
56306W        W24779  15.183  42.423   0.851
56307W        W24780  41.432  42.008  12.972
56308W        W24781   2.318  39.875  12.463
56309W        W24782   7.682  16.607  10.442
56310W        W24783   4.752  26.121   3.263
56311W        W24784  23.655  24.595   2.417
56312W        W24785  41.513   4.710   5.241
56313W        W24786  21.104  33.930  13.865
56314W        W24787  21.683  41.371   4.735
56315W        W24788  30.648  12.175  13.885
56316W        W24789  17.635  40.835  12.984
56317W        W24790   8.689   1.434  13.338
56318W        W24791  24.479  12.842   0.882
56319W        W24792  12.663   1.427   2.379
56320W        W24793  17.559  35.439  12.943
56321W        W24794  15.139  13.741   4.619
56322W        W24795   9.178   3.377   0.341
56323W        W24796  25.608  11.689  11.945
56324W        W24797  34.538  11.284  10.533
56325W        W24798  10.845  37.848   3.720
56326W        W24799  12.167  41.537   4.668
56327W        W24800  44.456  44.884   3.630
56328W        W24801  33.102  38.913   0.759
56329W        W24802  21.636  38.474  14.317
56330W        W24803  27.507  15.711  10.141
56331W        W24804  18.788  21.114  12.044
56332W        W24805  15.650   9.386   2.417
56333W        W24806  14.112  10.216  14.370
56334W        W24807  33.586  14.182  13.979
56335W        W24808  13.741  37.844  12.398
56336W        W24809  20.148  15.624   0.800
56337W        W24810  30.989  42.319  13.872
56338W        W24811  44.820  23.730  12.509
56339W        W24812  35.420   9.773  11.887
56340W        W24813  44.973  34.543  14.982
56341W        W24814   2.470  13.127  12.833
56342W        W24815   0.367  24.693   0.781
56343W        W24816  37.530  30.164  14.836
56344W        W24817   3.920   3.277   2.740
56345W        W24818  24.141  27.054  11.043
56346W        W24819  25.702  11.334   0.810
56347W        W24820  15.111  19.585   0.951
56348W        W24821  24.672  40.043  11.380
56349W        W24822  27.987  18.188  14.994
56350W        W24823  26.126   8.278  10.564
56351W        W24824  43.423  35.376  14.939
56352W        W24825  11.699  11.253  12.832
56353W        W24826  16.233  32.061   2.846
56354W        W24827  10.857  40.476  10.992
56355W        W24828   4.281  27.630  13.433
56356W        W24829  16.728  27.059   1.777
56357W        W24830   8.781  39.442  10.524
56358W        W24831  12.847   4.376   2.294
56359W        W24832  38.935  17.236   2.840
56360W        W24833  10.641  27.539  10.533
56361W        W24834  25.529  19.761   2.360
56362W        W24835  19.251  41.417  13.005
56363W        W24836  38.928  37.006  14.821
56364W        W24837   7.886  37.367  14.841
56365W        W24838  30.147   7.849  14.884
56366W        W24839  22.707  28.019  13.015
56367W        W24840   5.231  25.523   0.802
56368W        W24841  28.017  12.648   4.787
56369W        W24842  30.930  12.251  10.991
56370W        W24843   3.956  26.978  12.354
56371W        W24844   1.877  43.812  14.848
56372W        W24845  37.996  41.479  10.952
56373W        W24846  35.939  14.751   1.330
56374W        W24847  39.008  41.431  10.013
56375W        W24848  37.079   6.381  10.434
56376W        W24849   2.463  40.847  14.967
56377W        W24850  13.844  42.881  11.436
56378W        W24851  41.309  35.889  11.553
56379W        W24852  11.363  39.351  11.904
56380W        W24853  12.804  11.794   3.167
56381W        W24854  18.279  11.211   4.598
56382W        W24855  44.476  14.250  12.069
56383W        W24856  41.952   8.782  10.408
56384W        W24857  13.633  30.984   1.427
56385W        W24858  37.542   2.887   4.781
56386W        W24859  18.675  22.544   4.624
56387W        W24860  43.942  10.223  12.018
56388W        W24861  17.205  11.339   2.718
56389W        W24862  13.343  18.296   0.410
56390W        W24863  20.038  17.706   4.711
56391W        W24864  42.839   8.361  12.339
56392W        W24865   8.813  19.227   1.838
56393W        W24866  37.427  32.604   3.249
56394W        W24867   1.446   3.904   1.340
56395W        W24868  39.389  36.446  13.792
56396W        W24869  25.059  24.561  10.594
56397W        W24870  42.305  38.506  12.938
56398W        W24871   4.447  33.920   4.230
56399W        W24872  43.360  20.555   4.316
56400W        W24873  26.003  27.196  10.551
56401W        W24874   4.771  40.856   1.279
56402W        W24875  39.347   5.861   1.298
56403W        W24876  41.510  39.059   3.787
56404W        W24877   9.882  38.503   4.688
56405W        W24878  40.319  43.789   2.405
56406W        W24879  39.497   8.347   2.663
56407W        W24880  24.553  13.214   0.451
56408W        W24881  38.073  23.684   3.770
56409W        W24882  29.512  37.419  10.007
56410W        W24883  33.082  22.026   3.280
56411W        W24884  32.517  42.005  13.953
56412W        W24885  44.993  26.009  13.965
56413W        W24886  19.635   4.402  12.089
56414W        W24887   0.832  38.344   3.329
56415W        W24888  32.563   9.327   0.809
56416W        W24889  11.824  31.945  11.939
56417W        W24890  24.175  10.801  10.493
56418W        W24891  16.170  28.959  14.800
56419W        W24892  34.506  19.163   3.192
56420W        W24893   4.776  42.521  11.500
56421W        W24894   3.862  31.130   4.820
56422W        W24895  16.073  28.064  11.531
56423W        W24896  39.830  30.416  14.470
56424W        W24897  43.373  12.302   0.298
56425W        W24898   1.759  37.467   1.822
56426W        W24899  27.184  17.145  12.430
56427W        W24900  29.614  10.786   1.341
56428W        W24901  24.686  13.621  10.410
56429W        W24902  29.129  40.343  11.989
56430W        W24903  36.008  24.201  11.446
56431W        W24904   4.436  19.618  13.009
56432W        W24905  26.540   9.772  10.609
56433W        W24906   3.885  11.238  14.939
56434W        W24907  18.268  41.846  12.853
56435W        W24908  19.542  19.178  13.377
56436W        W24909  13.169  12.755  10.467
56437W        W24910  32.128  20.061  13.879
56438W        W24911  40.468   4.868  11.512
56439W        W24912  23.145  17.717  12.852
56440W        W24913  33.549  28.165   1.765
56441W        W24914  31.896  20.767   4.751
56442W        W24915  11.313  29.532   3.280
56443W        W24916  22.996  20.591   4.638
56444W        W24917  28.013  33.942   3.766
56445W        W24918   7.375  24.671  12.847
56446W        W24919  13.755  26.193   2.782
56447W        W24920  28.565  25.645  11.091
56448W        W24921   5.716  30.474   0.283
56449W        W24922  43.957  35.591  14.336
56450W        W24923  31.950   9.687  10.098
56451W        W24924  21.527  15.103   3.356
56452W        W24925  25.015  29.481  13.868
56453W        W24926  33.473   2.913   2.342
56454W        W24927  26.460  23.589   3.694
56455W        W24928  38.995   9.659   0.728
56456W        W24929  35.402  36.023  11.029
56457W        W24930  14.703   2.795  14.305
56458W        W24931  27.133  24.636  13.968
56459W        W24932  29.107   9.839   0.793
56460W        W24933  13.748   3.748  14.891
56461W        W24934  25.047  31.630  13.394
56462W        W24935  42.459  19.611   0.384
56463W        W24936  36.968   3.298  12.380
56464W        W24937  12.147   7.689   0.385
56465W        W24938  24.107  25.693   5.246
56466W        W24939  36.572  40.523   4.743
56467W        W24940  10.161  32.966   3.651
56468W        W24941  20.255  15.301  14.788
56469W        W24942   9.374  27.501   0.934
56470W        W24943  31.513   5.805  10.441
56471W        W24944  20.632  13.338  11.875
56472W        W24945  27.607  43.835   2.222
56473W        W24946  13.615  22.186  14.939
56474W        W24947   1.470   3.455   3.369
56475W        W24948  35.456  43.318  12.512
56476W        W24949   2.379  40.932   4.655
56477W        W24950   3.222   4.740   0.929
56478W        W24951   8.216  31.551  13.922
56479W        W24952  38.503  32.032  14.767
56480W        W24953  32.564  30.011   4.816
56481W        W24954   4.899  17.267   2.252
56482W        W24955  13.703  12.625   3.736
56483W        W24956  14.274  43.304  11.119
56484W        W24957   7.884  12.829   3.848
56485W        W24958  14.799  18.605  11.063
56486W        W24959   4.782   5.370  14.004
56487W        W24960  15.226  14.705  13.876
56488W        W24961  19.730  39.032   1.375
56489W        W24962  36.028  23.031  14.481
56490W        W24963  33.890  15.652   3.320
56491W        W24964  19.746   6.760  13.891
56492W        W24965  10.681  25.129   9.448
56493W        W24966   1.929  33.433  12.515
56494W        W24967  44.259   0.467   4.604
56495W        W24968  25.574  11.806   4.722
56496W        W24969  24.088  19.628   2.418
56497W        W24970  32.430  33.884   2.216
56498W        W24971  40.351  22.541  13.876
56499W        W24972   0.471   0.964  12.365
56500W        W24973   8.341  33.925  14.007
56501W        W24974  31.041  36.998   3.381
56502W        W24975  25.130  13.212  14.449
56503W        W24976   1.333  37.981   1.238
56504W        W24977  44.287  25.675   4.139
56505W        W24978  25.213  20.093   3.316
56506W        W24979  25.016   0.272  11.097
56507W        W24980  21.210  17.733  11.905
56508W        W24981  30.437  40.442   0.376
56509W        W24982   1.968  38.920   4.701
56510W        W24983  32.019  12.792   4.645
56511W        W24984  37.525   3.843  10.941
56512W        W24985   2.918  38.426   2.299
56513W        W24986  17.600   8.256  14.316
56514W        W24987   6.425   8.213  13.823
56515W        W24988  41.474  44.880  13.814
56516W        W24989  20.274  17.712  11.567
56517W        W24990  24.628  15.647  14.013
56518W        W24991   1.774   0.297   3.201
56519W        W24992  20.133  43.978   3.276
56520W        W24993   8.331  36.950  10.582
56521W        W24994  23.664  11.719  13.886
56522W        W24995  16.699  37.873  14.472
56523W        W24996  35.480  18.138   0.469
56524W        W24997   1.240  25.166  14.356
56525W        W24998   5.415  26.034   3.374
56526W        W24999  29.963  23.596  10.060
56527W        W25000  37.079  13.350   4.613
56528W        W25001  42.972  29.543   2.873
56529W        W25002  20.746  11.823   0.307
56530W        W25003   3.374   6.367   3.257
56531W        W25004   3.950   1.869   1.911
56532W        W25005  40.872  36.923  14.341
56533W        W25006  24.554  24.501   0.260
56534W        W25007  26.962  39.501   2.348
56535W        W25008  32.938  11.277   1.827
56536W        W25009  16.183  27.014  13.398
56537W        W25010  36.370  16.667  14.381
56538W        W25011  27.998  24.198   2.327
56539W        W25012   6.343  15.728  11.926
56540W        W25013  11.226  39.523   2.857
56541W        W25014  38.933  41.396   0.939
56542W        W25015  34.050  29.472   0.293
56543W        W25016  20.740  20.046  11.006
56544W        W25017  44.469  42.784  13.062
56545W        W25018  31.489   3.383  12.095
56546W        W25019  26.038  27.987   2.313
56547W        W25020  32.913  43.991   3.653
56548W        W25021  25.631  12.829  13.485
56549W        W25022  17.707  42.908   3.676
56550W        W25023  28.469  34.996  14.879
56551W        W25024  16.800  38.005  13.465
56552W        W25025  43.917  25.096  11.603
56553W        W25026  10.803  40.430   0.431
56554W        W25027  42.518  17.675   3.732
56555W        W25028  38.394  18.604  12.498
56556W        W25029  41.830  23.710  10.067
56557W        W25030  13.743  14.771   3.179
56558W        W25031  34.020  17.223  13.887
56559W        W25032  22.640  28.573  13.932
56560W        W25033  34.582  18.599   1.382
56561W        W25034   4.449   4.708   1.296
56562W        W25035  16.725   8.693   4.641
56563W        W25036   6.386  34.419  14.001
56564W        W25037  28.504  19.561  11.109
56565W        W25038  30.907  14.339  12.456
56566W        W25039  36.557  39.968  14.350
56567W        W25040  34.057  36.463  13.049
56568W        W25041  29.109  29.931   0.422
56569W        W25042  30.614  29.536   0.418
56570W        W25043   5.774   2.771   1.225
56571W        W25044  14.150  19.187   3.809
56572W        W25045  35.444  40.495   1.255
56573W        W25046  11.347  14.114  12.935
56574W        W25047   6.746  40.308   2.876
56575W        W25048   2.807  13.247   1.324
56576W        W25049  37.549   4.300  10.581
56577W        W25050  20.551  43.443  12.524
56578W        W25051  37.444  37.056   0.301
56579W        W25052   3.890   4.274  14.350
56580W        W25053   7.786  18.091  11.609
56581W        W25054  36.859  19.553  13.904
56582W        W25055  38.350  20.232  13.469
56583W        W25056  40.382   4.726  13.966
56584W        W25057  24.183  33.440  14.384
56585W        W25058  40.535  33.551   5.112
56586W        W25059  38.927  28.666   4.799
56587W        W25060  20.134   1.895  11.962
56588W        W25061   9.162  29.607  10.633
56589W        W25062  26.464  32.058  11.114
56590W        W25063  16.806  17.699   0.276
56591W        W25064  18.191  34.378  12.877
56592W        W25065  12.610  24.215  12.038
56593W        W25066  36.392  41.862   4.705
56594W        W25067  29.474  41.809   2.347
56595W        W25068  42.381  12.221  12.574
56596W        W25069  33.559   2.342   2.365
56597W        W25070  20.569   6.236  11.451
56598W        W25071   1.380  14.718   3.343
56599W        W25072  13.322  30.032  13.449
56600W        W25073  21.249  25.546  14.457
56601W        W25074  34.076  18.783  14.876
56602W        W25075   6.218  27.053   3.211
56603W        W25076  25.010   7.790  11.439
56604W        W25077  24.698   1.942   1.317
56605W        W25078  38.905  28.125  12.053
56606W        W25079  28.089  13.256   2.370
56607W        W25080  26.592  37.080  14.461
56608W        W25081  27.589  43.846   1.718
56609W        W25082  27.677  43.969  12.469
56610W        W25083  19.080  17.746   0.864
56611W        W25084  37.927  15.314   3.243
56612W        W25085  19.674  27.116  10.409
56613W        W25086   7.372  35.580  10.470
56614W        W25087  10.665  22.708   2.734
56615W        W25088  28.996   1.917  14.959
56616W        W25089  32.064  24.625   3.661
56617W        W25090  33.494  42.898  11.544
56618W        W25091  41.481   1.775  13.822
56619W        W25092   7.363  15.133  13.442
56620W        W25093  27.146  20.108   4.129
56621W        W25094  36.529  10.766   1.241
56622W        W25095   0.914  11.654   2.234
56623W        W25096  33.625   0.367   0.252
56624W        W25097  10.228   2.421  10.485
56625W        W25098  26.696  32.001   4.697
56626W        W25099  43.376  40.436  10.494
56627W        W25100  10.809  29.029   0.420
56628W        W25101  43.835  14.191   5.232
56629W        W25102  40.512   2.923  11.909
56630W        W25103  40.957  12.215   1.935
56631W        W25104  43.956  31.131  14.275
56632W        W25105   4.829  12.780  12.871
56633W        W25106   5.907   7.394  10.568
56634W        W25107  16.682  29.477   2.896
56635W        W25108   2.885   9.264   2.322
56636W        W25109  39.435  21.715   2.902
56637W        W25110  27.095  19.271  13.501
56638W        W25111  20.713  33.483  13.933
56639W        W25112   3.910  22.239  11.101
56640W        W25113  44.823  12.341  11.071
56641W        W25114  11.626  33.544  11.115
56642W        W25115  42.861   5.391   1.247
56643W        W25116  30.599  33.434  10.999
56644W        W25117   3.908  24.190   1.226
56645W        W25118   6.708   2.756   0.258
56646W        W25119  36.847  23.002   0.407
56647W        W25120  20.124  41.411   4.613
56648W        W25121   7.767  12.665  13.334
56649W        W25122   1.811  25.016   3.178
56650W        W25123  22.077   7.760   1.811
56651W        W25124   4.896  15.593  13.515
56652W        W25125  27.141  22.035   3.238
56653W        W25126  25.015  20.104  14.940
56654W        W25127  10.236  33.616   1.234
56655W        W25128  39.024  18.778   3.812
56656W        W25129  24.988  37.054  13.899
56657W        W25130  22.064   6.400   4.145
56658W        W25131  25.031   1.391  14.369
56659W        W25132   2.467  28.031   0.728
56660W        W25133  30.025  20.638   3.668
56661W        W25134  25.681  30.635  14.392
56662W        W25135  40.354  20.661   2.346
56663W        W25136  44.904  11.665   1.831
56664W        W25137  25.680  16.148  10.566
56665W        W25138   7.266  25.017  13.445
56666W        W25139  26.006  12.715   3.784
56667W        W25140  21.031  30.620  10.645
56668W        W25141  37.913  34.599  13.057
56669W        W25142  20.554  34.576  11.477
56670W        W25143   6.807   7.713  12.422
56671W        W25144  14.249   7.697   2.702
56672W        W25145  36.920  21.743  11.859
56673W        W25146  33.602  38.856  12.858
56674W        W25147  32.003  39.553  12.365
56675W        W25148  42.500  40.045  13.059
56676W        W25149  38.854  16.234  14.986
56677W        W25150  39.458  42.921  11.939
56678W        W25151  11.371  20.539   2.893
56679W        W25152  44.473  34.971  11.488
56680W        W25153  28.557  44.831  10.449
56681W        W25154  29.169   0.355   4.775
56682W        W25155  30.440  18.237  12.504
56683W        W25156  19.682  40.798  11.434
56684W        W25157  18.081  42.394   4.265
56685W        W25158  15.822  24.223   2.181
56686W        W25159  25.561  15.800   1.858
56687W        W25160  12.354  17.234  10.427
56688W        W25161  27.475  30.989   2.760
56689W        W25162  33.429  21.127  10.410
56690W        W25163   0.348   2.363   0.788
56691W        W25164  26.475  15.245   0.477
56692W        W25165  25.057  24.595   4.302
56693W        W25166  10.324  32.635   1.889
56694W        W25167  11.678  19.051   2.367
56695W        W25168  29.125  15.175  11.878
56696W        W25169  16.767  44.915  14.431
56697W        W25170   1.975  33.449  11.907
56698W        W25171  14.746  40.310   3.657
56699W        W25172  43.343  21.120   1.841
56700W        W25173  23.984   8.206   2.875
56701W        W25174   2.823  40.380   1.767
56702W        W25175  43.894  37.852   1.853
56703W        W25176   7.734  33.436   3.871
56704W        W25177  40.497   0.870   5.214
56705W        W25178  34.075  37.502  11.422
56706W        W25179  38.417  39.015  14.453
56707W        W25180  36.573   8.783  14.859
56708W        W25181   2.756  31.433   1.328
56709W        W25182  12.343  19.738  12.368
56710W        W25183   8.766  10.220  10.410
56711W        W25184  30.008  25.620  12.498
56712W        W25185  20.621  27.490  12.824
56713W        W25186  34.071  32.904  14.492
56714W        W25187  42.359   4.726  11.058
56715W        W25188  29.996   5.699  12.030
56716W        W25189  33.536  32.419   3.786
56717W        W25190  19.698  39.487  12.553
56718W        W25191  30.530  23.232  10.454
56719W        W25192   5.874  33.085  12.507
56720W        W25193  14.617  42.301   4.832
56721W        W25194   2.308  22.123  11.432
56722W        W25195  18.295  39.521   1.308
56723W        W25196  15.130  10.246   1.371
56724W        W25197  23.587  35.487  13.047
56725W        W25198  37.971  33.442  10.994
56726W        W25199   5.899  15.584   1.240
56727W        W25200   9.309   7.295  14.402
56728W        W25201  40.460   7.814   4.779
56729W        W25202  37.032   0.809   4.325
56730W        W25203  37.005  13.839   3.366
56731W        W25204  23.632   9.248   4.233
56732W        W25205  23.102  14.665  10.563
56733W        W25206  34.932   7.685  14.802
56734W        W25207   3.241  13.741  11.933
56735W        W25208   2.895  33.509  10.619
56736W        W25209  16.584   6.772  11.869
56737W        W25210  20.575  30.498  12.403
56738W        W25211   8.787   7.365   1.802
56739W        W25212  44.912  42.779   2.221
56740W        W25213  43.993  27.546   1.834
56741W        W25214  12.123  16.246  14.889
56742W        W25215  26.537  30.097   3.267
56743W        W25216   7.244  37.539   1.374
56744W        W25217  41.969  42.319   4.673
56745W        W25218  38.047   2.363   2.765
56746W        W25219   7.407  25.073  14.981
56747W        W25220  24.986  10.696  13.858
56748W        W25221  32.087  31.461  13.915
56749W        W25222  25.628  27.461   2.691
56750W        W25223  40.942  38.973   2.898
56751W        W25224  18.699  35.537  14.941
56752W        W25225  23.694  27.079   5.235
56753W        W25226  24.604  33.572  10.565
56754W        W25227   6.789  37.561   1.298
56755W        W25228  23.546  30.515  12.083
56756W        W25229  37.543  27.510  12.429
56757W        W25230  21.680  27.455  13.515
56758W        W25231  22.707  27.617   2.753
56759W        W25232  14.731  19.254   2.360
56760W        W25233  19.581  14.720  11.522
56761W        W25234  32.939  42.430   4.696
56762W        W25235  30.911  14.741  10.644
56763W        W25236   6.428  12.659   2.889
56764W        W25237  25.696  20.172   0.736
56765W        W25238  18.593  36.359  14.868
56766W        W25239  33.080  35.013   3.331
56767W        W25240  42.784  35.876  11.049
56768W        W25241  32.432  20.653   1.343
56769W        W25242  44.920   2.902   4.668
56770W        W25243  13.263  14.785  14.420
56771W        W25244  29.610  10.234  13.920
56772W        W25245   0.324  33.432  14.863
56773W        W25246  37.414  19.776   0.809
56774W        W25247  41.897  39.008  13.418
56775W        W25248  36.494  44.945   1.354
56776W        W25249  35.422  32.892   0.387
56777W        W25250  23.726   5.866   1.900
56778W        W25251  21.028   0.405  12.958
56779W        W25252  36.538  39.047  12.982
56780W        W25253  37.555  29.505  13.415
56781W        W25254  29.130  38.072   3.328
56782W        W25255  35.956  43.328   2.876
56783W        W25256   5.357  10.775   3.768
56784W        W25257  36.011   4.441  12.410
56785W        W25258  19.651   9.287  11.988
56786W        W25259  34.974   2.915   3.255
56787W        W25260   9.844  11.766  12.946
56788W        W25261  19.591  24.015  13.910
56789W        W25262  44.396  24.071  14.834
56790W        W25263   4.900  21.570  14.009
56791W        W25264  34.092  44.346   1.832
56792W        W25265  42.490  12.325  14.022
56793W        W25266  31.496  21.153  10.502
56794W        W25267  30.498  41.929  11.870
56795W        W25268   5.763   1.967   4.140
56796W        W25269  12.772  21.262  14.971
56797W        W25270  35.880  39.544   0.441
56798W        W25271  35.975  27.659  12.867
56799W        W25272  27.072  12.245   3.851
56800W        W25273  16.746   6.418  13.934
56801W        W25274  11.160  26.983   1.241
56802W        W25275  21.121  32.906   0.803
56803W        W25276  36.350  21.113   1.849
56804W        W25277   4.930  13.344  10.546
56805W        W25278  42.803  19.575   0.826
56806W        W25279  20.644  37.022   1.229
56807W        W25280   2.953   9.839   2.862
56808W        W25281   0.913  40.317   1.902
56809W        W25282  41.894  10.319  11.075
56810W        W25283  20.032   1.470  11.567
56811W        W25284  33.591  24.591  11.491
56812W        W25285  21.106  41.840   2.283
56813W        W25286  25.588  38.866   2.805
56814W        W25287   1.909   6.194  10.583
56815W        W25288  28.440   9.354  11.410
56816W        W25289  38.553  23.674  14.398
56817W        W25290  37.564  25.154   3.700
56818W        W25291  37.835  25.012   4.131
56819W        W25292  23.567   7.890  14.343
56820W        W25293  18.248  37.368  14.300
56821W        W25294  18.242  16.784  12.560
56822W        W25295  29.481   7.710   4.694
56823W        W25296  43.996  37.908  14.925
56824W        W25297   8.362   3.386  13.976
56825W        W25298  40.952  19.279  11.509
56826W        W25299  14.713  25.966   2.821
56827W        W25300   2.248  43.359   0.909
56828W        W25301  21.184  32.392  14.015
56829W        W25302  23.005  18.072   4.823
56830W        W25303  20.103  26.173  12.510
56831W        W25304  20.573   1.437  14.932
56832W        W25305  34.369  24.724   0.770
56833W        W25306   0.475  38.339  13.009
56834W        W25307  19.593  10.361  13.492
56835W        W25308  30.983  34.086   3.183
56836W        W25309   9.803  13.172   2.840
56837W        W25310  22.707  30.953  14.763
56838W        W25311  29.619  33.980  13.358
56839W        W25312  33.483  43.454  10.952
56840W        W25313   8.253  26.486   1.345
56841W        W25314   9.348  31.919  13.501
56842W        W25315  14.773  29.104  11.094
56843W        W25316   6.291  15.681   0.397
56844W        W25317  37.999  30.413  14.291
56845W        W25318  24.695  43.884  14.999
56846W        W25319  25.042  14.763   3.863
56847W        W25320   2.839  20.577  13.889
56848W        W25321  35.988  13.115   4.688
56849W        W25322  16.744  10.851   0.338
56850W        W25323  10.346   7.798  14.334
56851W        W25324  22.731  41.970   0.818
56852W        W25325   2.248   9.700   4.710
56853W        W25326  30.945  12.714  11.427
56854W        W25327  18.219  21.694   0.928
56855W        W25328   5.305  30.155   0.960
56856W        W25329  26.526  36.490  13.445
56857W        W25330   8.225   2.955  10.568
56858W        W25331  26.018  29.045  11.380
56859W        W25332  44.788  33.476  11.004
56860W        W25333  42.996  44.410   0.373
56861W        W25334  38.887  41.922  12.487
56862W        W25335  34.417  44.775  14.462
56863W        W25336  14.749   4.394   3.281
56864W        W25337  12.677  35.430  10.991
56865W        W25338  11.695  23.149   2.700
56866W        W25339   8.219  11.227  11.939
56867W        W25340  35.371  15.630  13.027
56868W        W25341  21.210  11.706  11.053
56869W        W25342  40.399  31.635   0.423
56870W        W25343  25.596  34.934  12.531
56871W        W25344   2.233   2.228  14.767
56872W        W25345  19.607  34.493  12.895
56873W        W25346  42.918   9.704   3.193
56874W        W25347  24.178   0.336   5.141
56875W        W25348  29.028  25.073   5.241
56876W        W25349  10.715  26.660   3.346
56877W        W25350  27.059   1.292   3.278
56878W        W25351  21.192  44.475  12.031
56879W        W25352  26.552   5.233  10.464
56880W        W25353  31.481  18.122   3.353
56881W        W25354  21.596  15.277   9.636
56882W        W25355  28.643   4.347  14.515
56883W        W25356  33.963   2.951   3.738
56884W        W25357  23.589   6.798   0.403
56885W        W25358  33.505  17.142   2.770
56886W        W25359  31.524  12.646  10.624
56887W        W25360  41.348  18.644  13.835
56888W        W25361   8.799  36.439  11.474
56889W        W25362  28.606  31.445   1.845
56890W        W25363  19.673   4.850   2.853
56891W        W25364   0.268  10.867  12.413
56892W        W25365  33.000  14.208  13.018
56893W        W25366  38.882  34.373  14.772
56894W        W25367  18.673  43.917   4.195
56895W        W25368  29.582  32.586  12.019
56896W        W25369  27.987  16.219   0.363
56897W        W25370  42.860  17.080   2.250
56898W        W25371  28.653   7.796  12.509
56899W        W25372  13.700  27.676   4.780
56900W        W25373  33.533  10.208  10.999
56901W        W25374  43.432   7.779   0.908
56902W        W25375  27.689  32.433   4.782
56903W        W25376  24.098  22.030  10.963
56904W        W25377  12.720   6.733  11.961
56905W        W25378   8.828  23.720   0.881
56906W        W25379  20.609  33.536  10.941
56907W        W25380   3.777   1.846  14.446
56908W        W25381   9.379  10.742   2.347
56909W        W25382  28.066  43.933  10.442
56910W        W25383  30.019  10.764   4.736
56911W        W25384  11.733  43.398  11.949
56912W        W25385  37.972  17.649   0.440
56913W        W25386  35.092  23.620   3.312
56914W        W25387   6.378  32.891   3.158
56915W        W25388  36.360   1.805   1.837
56916W        W25389  18.757  19.709  13.407
56917W        W25390   5.419  15.091   1.776
56918W        W25391  18.742  31.011  13.443
56919W        W25392  30.623  31.995   0.288
56920W        W25393  38.435  14.172   0.825
56921W        W25394   6.746   4.716  12.487
56922W        W25395  14.226  34.586   3.317
56923W        W25396  42.919  42.881   4.162
56924W        W25397  20.691   7.866   3.634
56925W        W25398  30.971  23.080   9.932
56926W        W25399  23.150   3.848  11.947
56927W        W25400  13.769  38.357   3.160
56928W        W25401  17.677  43.381   3.867
56929W        W25402  15.756  30.558  11.124
56930W        W25403  31.402  13.322   4.605
56931W        W25404  13.317  30.963   1.372
56932W        W25405   3.231  15.252  10.421
56933W        W25406   6.286   2.304   0.263
56934W        W25407  37.078  31.563   0.915
56935W        W25408  23.114  23.051  13.416
56936W        W25409  30.543  24.549   3.827
56937W        W25410  25.623  25.648  13.871
56938W        W25411  32.539  19.679   5.108
56939W        W25412   2.889   4.751   1.906
56940W        W25413  30.528  17.778   1.880
56941W        W25414  26.079  33.980   1.904
56942W        W25415  15.133   5.245  11.876
56943W        W25416  30.104  16.250   1.761
56944W        W25417   5.332  27.067  13.410
56945W        W25418  38.018  44.450   4.281
56946W        W25419  30.592  14.760   1.435
56947W        W25420  14.310  30.515  12.080
56948W        W25421  19.213  18.236  14.514
56949W        W25422  24.019  14.659  13.447
56950W        W25423  23.137  24.045   4.781
56951W        W25424  29.558   2.351   1.234
56952W        W25425  41.865  11.661  12.010
56953W        W25426  13.304  23.516   2.874
56954W        W25427  26.493   9.762  13.019
56955W        W25428  16.085   1.469  13.873
56956W        W25429  41.331   5.323  12.542
56957W        W25430  43.354  18.230  12.066
56958W        W25431  15.163  19.757  14.391
56959W        W25432  25.661   3.819  11.879
56960W        W25433  29.444  10.770  10.610
56961W        W25434  44.944   5.195  11.040
56962W        W25435   0.432   0.344   3.293
56963W        W25436  39.361  37.451  10.622
56964W        W25437   3.244  37.971   1.877
56965W        W25438  15.211  20.054   0.836
56966W        W25439  23.207   1.875  10.974
56967W        W25440  19.106   2.796   2.341
56968W        W25441  38.826  39.476   0.812
56969W        W25442  29.462  28.106   0.905
56970W        W25443  42.894  43.955  11.943
56971W        W25444   3.806  16.660  11.088
56972W        W25445  35.933  23.162   2.220
56973W        W25446  13.654   2.243   2.196
56974W        W25447  15.275  11.748  12.522
56975W        W25448  39.872  32.637   0.360
56976W        W25449   9.347   9.340  11.888
56977W        W25450  12.267  30.596  12.996
56978W        W25451  10.191  38.529  13.400
56979W        W25452  25.612  21.719   1.229
56980W        W25453  22.065   1.362  12.038
56981W        W25454   2.411  25.610   3.694
56982W        W25455   5.830  36.437   0.911
56983W        W25456  13.132  16.128   0.463
56984W        W25457  15.767  10.636  14.767
56985W        W25458  33.057  22.609  14.286
56986W        W25459   6.398  16.287  13.983
56987W        W25460   4.409   9.205  14.934
56988W        W25461  13.122   3.835  14.878
56989W        W25462   2.406   0.458   1.783
56990W        W25463  14.762   5.249  11.533
56991W        W25464  32.969  29.142  13.984
56992W        W25465  16.255  44.797   0.464
56993W        W25466  21.630   5.408  11.882
56994W        W25467   7.856  21.645   2.282
56995W        W25468  28.545  29.653  11.401
56996W        W25469  44.927  18.654  12.851
56997W        W25470  40.544  36.375  14.870
56998W        W25471  34.571  23.572  12.465
56999W        W25472   8.390  18.782   3.774
57000W        W25473   6.840  24.581  11.053
57001W        W25474  27.155  39.809   4.334
57002W        W25475  44.332   2.245   2.889
57003W        W25476  36.847   6.250   0.310
57004W        W25477  14.660  36.907  14.930
57005W        W25478  44.311   9.291  12.457
57006W        W25479  21.578  32.131   1.448
57007W        W25480   8.680   1.881   4.761
57008W        W25481  19.690  21.192   1.224
57009W        W25482  30.137  38.914  13.494
57010W        W25483  33.924   4.764  10.435
57011W        W25484   8.225  30.164  11.086
57012W        W25485  32.568  16.117   3.807
57013W        W25486  13.605  41.525  11.394
57014W        W25487  30.536  39.477   2.848
57015W        W25488  41.846  20.258  14.415
57016W        W25489  21.123  31.622   2.395
57017W        W25490  20.102  12.224   0.784
57018W        W25491  28.469  26.670  11.545
57019W        W25492  35.857  14.145   1.868
57020W        W25493  43.386  39.047   3.775
57021W        W25494   7.194   8.862   3.318
57022W        W25495  16.749  26.555   4.637
57023W        W25496  24.587  41.972  14.442
57024W        W25497   5.206  18.615  12.080
57025W        W25498  21.622   3.780  13.045
57026W        W25499  25.145  27.613   2.286
57027W        W25500  32.955  43.282   4.626
57028W        W25501  19.544  12.810  14.421
57029W        W25502  17.655  10.325  10.947
57030W        W25503  19.150   4.271   4.687
57031W        W25504  24.626  15.318   0.955
57032W        W25505  11.216  30.514   2.382
57033W        W25506  12.711   9.734  10.542
57034W        W25507  39.431  27.633  12.975
57035W        W25508  43.777   7.333   3.272
57036W        W25509   0.861   2.322   1.235
57037W        W25510  15.632  41.485   4.262
57038W        W25511  22.543  19.198   2.732
57039W        W25512  21.030   9.291   2.206
57040W        W25513  29.660  26.164   4.646
57041W        W25514  15.168  27.560   1.218
57042W        W25515  38.963  34.922   0.962
57043W        W25516  15.602   2.941   1.385
57044W        W25517  35.425  27.522   3.735
57045W        W25518   2.231  39.380  14.977
57046W        W25519  26.152  29.666   4.729
57047W        W25520  32.045  33.066  11.120
57048W        W25521  41.007   0.744  10.642
57049W        W25522  42.425   7.814   2.868
57050W        W25523  21.609  16.233   1.442
57051W        W25524   5.708  35.043   4.727
57052W        W25525  15.723   2.767   3.330
57053W        W25526   5.705  24.651  10.907
57054W        W25527   1.843   2.364  10.449
57055W        W25528  31.001  22.175  10.516
57056W        W25529  17.086   7.317   3.298
57057W        W25530  30.010   4.220   1.738
57058W        W25531  20.723  35.862  10.466
57059W        W25532  26.957  14.200  10.156
57060W        W25533  26.035   1.755   3.370
57061W        W25534   7.912  35.942   1.216
57062W        W25535  31.944   1.751   3.194
57063W        W25536  44.428  31.897   5.241
57064W        W25537  43.422  40.389  13.450
57065W        W25538   8.674  43.968   3.771
57066W        W25539  21.077   9.298  13.487
57067W        W25540   0.834  35.438  13.376
57068W        W25541  35.558  28.469   2.359
57069W        W25542   4.333  41.386   0.427
57070W        W25543  12.191  22.734  13.951
57071W        W25544  19.202  17.612  13.925
57072W        W25545  28.541  17.760  14.779
57073W        W25546   0.383  14.785   1.323
57074W        W25547  14.098  43.773  14.951
57075W        W25548  31.960   6.262  11.398
57076W        W25549  32.580  13.636   4.260
57077W        W25550  41.375   1.877  14.965
57078W        W25551  38.410  37.495   3.800
57079W        W25552  31.496  41.847  11.403
57080W        W25553  42.297  12.780   1.824
57081W        W25554  20.267   4.944  13.859
57082W        W25555   0.256  19.274   3.296
57083W        W25556  19.205  13.797  12.894
57084W        W25557   6.319  24.090   4.658
57085W        W25558  22.737  18.770   0.804
57086W        W25559  15.176  23.123   2.688
57087W        W25560  23.237   0.315   0.857
57088W        W25561  30.637  41.399  12.575
57089W        W25562  34.384  11.269   3.199
57090W        W25563  42.342  21.620  13.899
57091W        W25564  44.270  13.744   4.295
57092W        W25565  20.676  10.255   2.191
57093W        W25566  40.963   9.389  12.571
57094W        W25567  11.825  34.901   1.227
57095W        W25568  11.366  20.537   4.290
57096W        W25569  11.676   3.780   4.142
57097W        W25570  17.291  32.959   1.797
57098W        W25571  31.599  44.843   2.281
57099W        W25572  23.011   8.689  11.880
57100W        W25573  34.887  17.214  11.129
57101W        W25574  16.741  14.768  12.015
57102W        W25575  31.144  11.685   1.235
57103W        W25576  22.156  12.336  14.984
57104W        W25577  28.528  36.039  13.311
57105W        W25578   4.256   9.707  10.585
57106W        W25579  42.522  31.051   1.271
57107W        W25580   5.411  14.755  10.510
57108W        W25581  26.063  26.047  14.445
57109W        W25582  32.963  27.551  12.384
57110W        W25583  12.141  25.096   4.615
57111W        W25584  41.839   6.916   4.607
57112W        W25585  36.089  24.521   0.740
57113W        W25586  20.577  18.128   1.910
57114W        W25587  44.375   1.736   2.670
57115W        W25588   2.807  17.618   3.208
57116W        W25589  42.526  44.997  11.019
57117W        W25590  40.527  13.631  14.290
57118W        W25591  16.117  39.817  13.431
57119W        W25592  44.783   6.694  14.381
57120W        W25593   8.186  26.478  10.438
57121W        W25594   3.906   0.465  11.963
57122W        W25595  26.479  24.166   0.820
57123W        W25596  24.987  22.552  10.429
57124W        W25597  33.508  15.289  10.542
57125W        W25598  20.602  20.059  10.522
57126W        W25599  38.871   9.878   1.760
57127W        W25600   9.159   0.357   1.843
57128W        W25601  13.693  29.931  13.400
57129W        W25602  32.924  30.450  11.895
57130W        W25603  17.647   7.240   2.817
57131W        W25604  19.612   7.813  12.015
57132W        W25605  43.331  22.528  12.476
57133W        W25606  18.243  39.400   2.370
57134W        W25607  34.876  24.063   4.163
57135W        W25608   9.860   2.722  12.046
57136W        W25609  38.969  14.185  10.957
57137W        W25610  18.275   1.738  14.456
57138W        W25611  24.221  22.111  10.423
57139W        W25612  22.170   5.927   4.256
57140W        W25613   6.832  27.507  11.409
57141W        W25614  39.467  40.335   0.957
57142W        W25615   9.149  41.855  13.881
57143W        W25616   2.356  26.193  14.024
57144W        W25617  28.007  17.292  11.915
57145W        W25618  43.911  11.176  12.491
57146W        W25619  42.935   0.815   4.748
57147W        W25620  43.326  22.206  13.435
57148W        W25621  24.677  37.415  13.333
57149W        W25622  13.212   6.354   0.913
57150W        W25623   1.777  30.107   0.243
57151W        W25624  39.395   6.692  13.880
57152W        W25625  30.961   3.955   1.263
57153W        W25626  24.230  36.963  14.501
57154W        W25627  42.294  25.200   2.802
57155W        W25628  31.969  30.532  14.873
57156W        W25629  25.127  19.737  14.982
57157W        W25630  26.163   0.259   5.748
57158W        W25631  32.435  17.263  12.911
57159W        W25632  14.128  11.213   1.914
57160W        W25633   5.391  14.806   2.761
57161W        W25634   1.453  29.427  13.971
57162W        W25635  15.723  38.433  14.416
57163W        W25636   8.876  31.415  10.589
57164W        W25637  26.145  21.711  13.811
57165W        W25638   8.836   0.314   2.764
57166W        W25639  24.098  29.514   4.276
57167W        W25640   4.360   2.337  14.326
57168W        W25641  34.614  32.137  14.938
57169W        W25642  44.268  11.691   2.369
57170W        W25643  31.578   8.671   1.413
57171W        W25644  34.050  22.071  12.980
57172W        W25645  17.148  10.764   1.286
57173W        W25646  22.203  30.417  14.379
57174W        W25647  31.602  13.142   3.695
57175W        W25648  43.346   4.392   0.852
57176W        W25649   1.252  22.010  14.305
57177W        W25650  34.886  12.341  14.424
57178W        W25651  23.086  16.180   1.357
57179W        W25652   7.908  42.293  12.471
57180W        W25653  15.822  11.856  13.457
57181W        W25654  33.028  43.853  12.838
57182W        W25655  26.003  16.148   2.286
57183W        W25656  35.893  18.593   0.809
57184W        W25657  29.462   7.329   2.247
57185W        W25658  30.622  34.497  12.505
57186W        W25659  13.267   5.328   0.781
57187W        W25660  13.601  42.316   1.842
57188W        W25661  19.178  21.672  12.548
57189W        W25662  42.426  30.078   4.734
57190W        W25663  38.819  12.319  11.891
57191W        W25664  23.190  16.114   0.432
57192W        W25665  34.909  29.437   1.245
57193W        W25666   9.197  40.828  12.904
57194W        W25667   8.755  12.694   1.247
57195W        W25668  27.552  10.204   4.726
57196W        W25669  21.026  20.731  10.588
57197W        W25670  11.796  30.654   1.798
57198W        W25671   7.724  44.968   2.770
57199W        W25672  21.057  31.953   0.282
57200W        W25673  31.570   9.807  13.847
57201W        W25674   6.288  14.116   3.245
57202W        W25675  23.085  32.635  12.351
57203W        W25676  32.468  22.130  11.862
57204W        W25677  19.656  17.195   0.277
57205W        W25678   4.317  38.985   2.397
57206W        W25679  36.064  43.344  12.031
57207W        W25680  39.466  25.539  12.412
57208W        W25681  30.420  13.132   2.280
57209W        W25682  13.346   0.841   4.766
57210W        W25683  14.245  35.078  13.362
57211W        W25684   4.803  40.045   2.390
57212W        W25685  41.477  38.347   4.638
57213W        W25686   2.725  15.294  10.964
57214W        W25687  16.269  22.548   4.169
57215W        W25688  22.533  37.530  14.813
57216W        W25689  27.678   5.271  12.446
57217W        W25690  34.903  15.700  11.030
57218W        W25691  10.699  12.296   2.867
57219W        W25692  22.620  26.166  10.446
57220W        W25693   5.803  19.167  11.957
57221W        W25694  43.280  27.540  13.048
57222W        W25695  29.446  31.557  11.115
57223W        W25696  12.347  10.750   2.268
57224W        W25697  39.905  18.559   0.854
57225W        W25698  10.176  40.417   4.304
57226W        W25699  34.590  14.138   3.678
57227W        W25700  18.062  12.252  12.379
57228W        W25701   4.331  39.468   1.861
57229W        W25702  42.783  17.081   0.350
57230W        W25703   4.273  23.711  14.481
57231W        W25704  22.089   8.197   1.439
57232W        W25705  19.638   6.885  10.981
57233W        W25706  23.661  39.333  14.879
57234W        W25707  30.577  11.366  14.362
57235W        W25708  33.580  11.155  10.090
57236W        W25709  32.138  42.407   2.798
57237W        W25710  24.071  44.910  10.638
57238W        W25711  35.891  36.949   3.304
57239W        W25712  26.558  40.034  12.970
57240W        W25713  27.147  33.954   2.662
57241W        W25714  16.809  38.917   3.179
57242W        W25715  19.198  33.876  10.491
57243W        W25716  15.196  15.145  13.007
57244W        W25717  25.201   3.884  12.401
57245W        W25718   8.681   8.788  11.916
57246W        W25719  31.403  29.580  11.470
57247W        W25720  28.088  37.547   1.751
57248W        W25721  16.674   0.362   4.832
57249W        W25722  19.197  24.539   2.395
57250W        W25723  11.757  24.541  12.463
57251W        W25724  26.529  20.113   0.439
57252W        W25725   2.933  20.042   2.277
57253W        W25726  44.971  24.715   0.333
57254W        W25727  40.445   3.265   5.094
57255W        W25728  29.542  43.387  11.575
57256W        W25729  20.646  33.487  12.467
57257W        W25730   4.795   4.357  14.843
57258W        W25731   5.904   1.425  11.577
57259W        W25732  13.832  27.196  12.478
57260W        W25733  41.794  16.104  11.894
57261W        W25734   1.816  37.373   0.920
57262W        W25735  23.159  16.707  13.892
57263W        W25736  17.133  18.646  13.865
57264W        W25737  19.555  43.829  14.779
57265W        W25738  15.207  43.431   0.306
57266W        W25739  37.847  22.017  13.355
57267W        W25740  20.660  20.697   0.863
57268W        W25741  40.835   9.767   3.365
57269W        W25742  43.838   2.841   1.307
57270W        W25743  21.195  30.133  11.522
57271W        W25744  23.059  11.776   1.437
57272W        W25745  27.070  27.944  13.440
57273W        W25746  21.518  14.599   2.835
57274W        W25747  29.008  23.531   1.341
57275W        W25748  11.781  11.371  10.413
57276W        W25749   8.891   2.799  10.601
57277W        W25750  23.051   7.891  14.357
57278W        W25751  25.965   2.359  14.405
57279W        W25752  14.822  20.272  11.574
57280W        W25753  14.807  13.143   3.316
57281W        W25754  32.506  21.729  11.511
57282W        W25755   3.767   9.181  12.946
57283W        W25756  37.078  36.563  13.060
57284W        W25757  20.131  28.933  14.400
57285W        W25758  19.078  17.256  14.933
57286W        W25759  38.388   1.869   4.693
57287W        W25760   1.908  23.189  12.460
57288W        W25761   9.348   8.872   2.686
57289W        W25762  36.865  14.277  12.560
57290W        W25763  34.410  40.459   1.210
57291W        W25764  35.588   6.395   0.306
57292W        W25765  20.028  19.695   3.839
57293W        W25766  37.960   5.351   2.362
57294W        W25767   9.748  25.545   1.337
57295W        W25768   1.898  30.648   2.292
57296W        W25769  23.490   7.904   1.304
57297W        W25770  13.759   2.884   3.281
57298W        W25771  10.236  12.815  13.877
57299W        W25772   8.404   4.207  12.367
57300W        W25773  35.080  29.570   3.300
57301W        W25774   1.416  23.169   3.271
57302W        W25775  44.321   2.744   2.280
57303W        W25776  31.614   9.705  14.839
57304W        W25777   1.356  14.652   4.733
57305W        W25778  27.448  12.689   0.831
57306W        W25779  40.321  13.691   1.719
57307W        W25780  34.115   0.402  11.965
57308W        W25781   1.258  42.453   1.712
57309W        W25782  12.622  42.876  13.984
57310W        W25783  25.490  18.146  10.443
57311W        W25784  26.642  17.557  12.437
57312W        W25785  37.349  21.581   4.301
57313W        W25786  22.128  26.019  12.039
57314W        W25787   2.826  37.394  13.523
57315W        W25788  26.558  18.287   0.938
57316W        W25789   4.799   5.877   3.716
57317W        W25790   6.426   6.418   5.155
57318W        W25791   3.733  32.525   1.779
57319W        W25792   9.774  18.742   0.315
57320W        W25793   8.348  38.028  12.845
57321W        W25794  24.980  44.910   2.382
57322W        W25795   1.301   4.362   1.283
57323W        W25796  21.246   1.320  11.574
57324W        W25797   1.948   7.780   3.669
57325W        W25798  20.618  26.629   4.354
57326W        W25799  26.074   2.827   4.183
57327W        W25800  22.576  39.547  14.920
57328W        W25801   6.243  30.552  13.929
57329W        W25802  44.274  33.620   0.383
57330W        W25803  16.093  15.166  13.890
57331W        W25804  12.277  31.152   2.295
57332W        W25805   5.824   7.724   3.361
57333W        W25806  28.569  23.109   4.722
57334W        W25807  32.126  28.160   3.794
57335W        W25808   9.671  24.599   1.739
57336W        W25809  24.663  12.620   1.355
57337W        W25810  21.138  40.042  14.798
57338W        W25811  33.409  19.251  14.292
57339W        W25812  40.499  25.534  13.496
57340W        W25813   5.867  42.372  14.363
57341W        W25814  38.402  42.865   0.380
57342W        W25815  22.217  16.723  13.827
57343W        W25816  35.454  23.643  14.372
57344W        W25817  18.599  31.440  10.991
57345W        W25818   5.738   3.882  10.155
57346W        W25819   3.899  16.620  11.887
57347W        W25820   5.927  22.070  12.068
57348W        W25821  36.502  42.902  14.030
57349W        W25822  23.059  37.487   0.820
57350W        W25823   6.897  35.580   2.218
57351W        W25824  15.169   0.370   1.284
57352W        W25825  32.036  37.476  10.070
57353W        W25826  19.574   5.737   0.421
57354W        W25827  23.619   8.336   3.709
57355W        W25828   3.285  25.524   3.682
57356W        W25829  10.301  20.753   3.263
57357W        W25830   1.424  40.927   2.219
57358W        W25831  25.574  11.720   1.416
57359W        W25832  21.212  39.051   3.745
57360W        W25833  26.490  31.947  11.511
57361W        W25834   3.900  11.324   2.270
57362W        W25835  39.878  12.242  12.443
57363W        W25836  38.472   5.244   0.784
57364W        W25837  35.364  39.001  14.904
57365W        W25838   6.818  32.088  14.948
57366W        W25839  16.084  41.796  11.395
57367W        W25840  39.398  16.286  14.804
57368W        W25841   3.422  15.656  13.332
57369W        W25842  22.543  22.208   2.855
57370W        W25843  29.576  38.448  13.977
57371W        W25844  32.517   4.792  14.439
57372W        W25845  13.307  14.768  13.459
57373W        W25846  14.246  32.059   2.215
57374W        W25847   8.225   9.325  11.898
57375W        W25848  12.687  29.589   0.387
57376W        W25849  36.020  41.393  11.067
57377W        W25850  21.576  13.340   5.188
57378W        W25851  37.582  24.612  14.480
57379W        W25852  38.911  40.524  14.823
57380W        W25853   8.866  34.418   3.322
57381W        W25854   7.708   6.381   2.783
57382W        W25855  40.817  39.406   0.763
57383W        W25856  26.613  28.626  11.027
57384W        W25857   6.252   5.719  11.584
57385W        W25858   2.784   6.774  12.924
57386W        W25859  25.146  21.679  13.397
57387W        W25860   4.764  40.970   4.132
57388W        W25861   5.378   5.212   0.409
57389W        W25862  36.427  33.403   3.334
57390W        W25863  19.594  30.478   0.283
57391W        W25864  25.504  31.125  12.423
57392W        W25865   6.350  31.614  10.625
57393W        W25866   7.728  38.844   2.717
57394W        W25867  15.782  30.161  13.919
57395W        W25868  29.068  34.878  11.431
57396W        W25869  39.382   0.907  13.362
57397W        W25870   5.306  12.121   1.927
57398W        W25871   4.323  29.141   0.885
57399W        W25872   6.259  42.348   3.804
57400W        W25873  35.507   3.296   0.836
57401W        W25874  20.274  44.371   1.390
57402W        W25875   8.287  27.647  10.483
57403W        W25876  13.275  41.374   3.810
57404W        W25877  22.631   8.166   2.179
57405W        W25878   6.855   9.193   3.177
57406W        W25879   6.399  10.755  12.561
57407W        W25880   8.330   2.781   1.901
57408W        W25881  13.791  19.564  13.486
57409W        W25882  31.445   2.847  14.944
57410W        W25883  40.023   3.318  11.408
57411W        W25884  22.647   4.735   2.313
57412W        W25885  33.037  12.245  13.500
57413W        W25886  32.115  29.026  13.506
57414W        W25887   4.880  15.579   2.361
57415W        W25888   2.888  34.059  10.511
57416W        W25889   8.351  12.171  12.450
57417W        W25890  29.488   6.701  10.562
57418W        W25891  30.952  16.759   1.905
57419W        W25892  42.882  16.208  12.442
57420W        W25893  32.565  24.695  12.401
57421W        W25894  36.968   2.888   4.313
57422W        W25895  10.202   4.435   1.715
57423W        W25896   6.271  39.891   9.993
57424W        W25897  22.533   9.237   0.309
57425W        W25898  31.524  31.123  13.846
57426W        W25899  24.528  14.830  13.867
57427W        W25900  22.507   0.948   1.391
57428W        W25901   0.829  10.194   3.836
57429W        W25902  29.654  30.447   3.320
57430W        W25903  33.405  20.212  11.892
57431W        W25904  21.671  41.354   3.243
57432W        W25905  32.437  17.291   1.810
57433W        W25906  24.045  15.273  10.614
57434W        W25907  16.201  33.498  11.534
57435W        W25908   1.382  30.550   1.893
57436W        W25909  13.182   2.392  10.944
57437W        W25910  23.496   0.443   0.468
57438W        W25911  34.998   8.704  10.024
57439W        W25912   2.813  24.699   4.220
57440W        W25913  30.513   7.811  10.447
57441W        W25914  37.339  20.579   0.816
57442W        W25915  12.843  14.661   2.282
57443W        W25916   6.317   1.331  11.565
57444W        W25917  23.105  34.552  13.468
57445W        W25918   0.799  24.127   1.879
57446W        W25919   7.838   7.405  13.896
57447W        W25920   1.974  37.479   2.691
57448W        W25921  41.931  24.044   5.229
57449W        W25922  38.850  40.844  12.395
57450W        W25923  37.474  26.145   0.951
57451W        W25924   7.247  36.964  11.993
57452W        W25925  19.660  25.163   4.273
57453W        W25926  37.954  22.008  14.932
57454W        W25927  36.995   7.887   0.360
57455W        W25928   7.904  34.589  12.013
57456W        W25929  39.813  38.998  14.514
57457W        W25930  11.296   6.358  14.277
57458W        W25931  39.037  32.473  13.799
57459W        W25932   7.783  19.624  11.523
57460W        W25933  35.976  39.060   4.693
57461W        W25934  25.145  33.047  12.366
57462W        W25935  42.350  17.610   2.339
57463W        W25936  41.428  38.529   0.316
57464W        W25937  23.182  20.654   0.787
57465W        W25938   6.884  42.524  14.939
57466W        W25939  12.267  39.053  13.346
57467W        W25940  16.174  43.903   3.315
57468W        W25941  41.523   1.462  13.431
57469W        W25942  16.610  18.254   0.436
57470W        W25943  15.132  29.648   3.807
57471W        W25944  36.057  31.013  12.488
57472W        W25945  19.163  25.164  11.584
57473W        W25946  22.063  25.671  10.432
57474W        W25947  38.062  32.636  14.315
57475W        W25948  24.202  35.405  10.437
57476W        W25949   8.663  21.244   4.204
57477W        W25950  14.132  40.414  14.804
57478W        W25951  38.346  24.524   4.683
57479W        W25952  15.307  34.976  12.064
57480W        W25953   1.817  15.109  14.855
57481W        W25954  24.180  33.060   3.278
57482W        W25955   3.348  10.206   0.420
57483W        W25956  25.548  22.118   0.482
57484W        W25957  32.962  29.507   1.778
57485W        W25958  24.547  25.047   4.282
57486W        W25959  42.815  35.558   3.288
57487W        W25960   8.289  35.030   4.316
57488W        W25961   1.255  41.466   0.272
57489W        W25962  38.861  14.790   3.733
57490W        W25963  43.764  36.474   1.786
57491W        W25964  10.694  29.629   9.942
57492W        W25965  12.140  13.232  14.507
57493W        W25966  44.497  34.384   0.746
57494W        W25967  44.898  35.578  14.303
57495W        W25968  30.424  31.115   1.415
57496W        W25969  41.344  19.559  13.036
57497W        W25970  17.587  21.087   0.782
57498W        W25971  20.604  12.181   1.838
57499W        W25972  21.729  22.567  14.328
57500W        W25973   4.366  26.068  14.959
57501W        W25974   4.285  40.318  12.063
57502W        W25975  40.830  41.357  13.975
57503W        W25976  31.933   9.172   3.346
57504W        W25977   4.449   6.192  10.905
57505W        W25978  37.350  15.139   1.754
57506W        W25979  31.963   9.684   0.749
57507W        W25980  34.594  35.453  12.843
57508W        W25981   8.164   0.864  13.881
57509W        W25982  23.685  41.317  13.520
57510W        W25983  44.367  31.936   1.797
57511W        W25984  12.357  34.041   0.733
57512W        W25985   4.398  18.659   4.734
57513W        W25986  37.553  28.471   0.790
57514W        W25987  28.660   6.715  14.810
57515W        W25988   2.396  17.276  10.108
57516W        W25989  28.461  44.871   4.243
57517W        W25990  35.359  43.408  14.289
57518W        W25991  24.691  15.310   3.246
57519W        W25992  40.967  35.479  13.852
57520W        W25993  13.288   8.723   4.162
57521W        W25994  41.957  43.442  12.860
57522W        W25995  21.692  21.589   2.840
57523W        W25996  26.629  25.022   0.732
57524W        W25997   7.253  18.106  11.104
57525W        W25998  11.202  39.924   4.788
57526W        W25999  37.495  33.081   2.820
57527W        W26000  44.906  25.115   3.164
57528W        W26001   0.253  34.035  11.438
57529W        W26002   2.329  15.292   1.785
57530W        W26003  37.354  32.955  14.911
57531W        W26004  42.286   8.343   3.771
57532W        W26005  13.701  35.995  10.522
57533W        W26006  11.372  18.732   3.284
57534W        W26007  10.787  12.731  11.972
57535W        W26008  35.855  37.863   2.368
57536W        W26009  20.747  23.556  13.337
57537W        W26010   6.256  11.692  13.048
57538W        W26011   2.901  16.279   3.285
57539W        W26012   8.765  30.112   2.790
57540W        W26013  22.126  35.037   4.271
57541W        W26014   9.346  16.169   0.906
57542W        W26015  30.038  22.664  10.920
57543W        W26016  40.882   5.215   0.945
57544W        W26017  33.980   1.402   1.866
57545W        W26018  21.749  15.314   0.476
57546W        W26019  27.008  44.869   0.381
57547W        W26020   7.253  42.969  10.508
57548W        W26021  23.218  21.124   1.421
57549W        W26022  20.177  18.703  10.970
57550W        W26023  35.047  20.736  13.969
57551W        W26024  16.078  27.470  13.817
57552W        W26025  43.510   6.703   4.185
57553W        W26026  23.235  18.755   0.910
57554W        W26027  26.549  33.439   3.805
57555W        W26028   2.796   9.194  12.823
57556W        W26029   7.704  43.951  12.495
57557W        W26030  17.703   7.368  10.570
57558W        W26031  33.530  30.618   0.783
57559W        W26032  19.657  37.433  13.997
57560W        W26033  16.166  37.388  11.962
57561W        W26034  15.283  27.030  13.920
57562W        W26035   4.885  15.269   3.679
57563W        W26036  35.019   7.218   2.790
57564W        W26037  18.293  38.475   4.689
57565W        W26038  44.820  31.540   3.156
57566W        W26039  36.449  30.474  11.388
57567W        W26040  32.544   6.726  14.505
57568W        W26041  24.125   4.375   2.372
57569W        W26042   7.751  14.185   2.385
57570W        W26043  32.996  11.749   3.685
57571W        W26044  27.573   1.733   1.805
57572W        W26045  25.519   4.773   4.339
57573W        W26046  32.604  11.296   4.119
57574W        W26047  31.029   9.667  11.036
57575W        W26048  37.376  29.046   4.697
57576W        W26049  33.120  37.370  14.463
57577W        W26050   1.972  14.618   3.269
57578W        W26051  15.306  21.047  14.510
57579W        W26052  39.526  13.653  14.278
57580W        W26053  39.936  24.180  10.439
57581W        W26054  11.781  43.782   0.956
57582W        W26055  21.125   0.344   1.890
57583W        W26056  21.154  38.510  10.613
57584W        W26057  40.541  43.020  10.993
57585W        W26058   3.859  11.761  11.031
57586W        W26059  37.065  38.394   2.324
57587W        W26060   5.242  16.227  12.885
57588W        W26061  20.668  27.659   2.363
57589W        W26062   2.747  21.096  11.372
57590W        W26063  23.545  16.196  10.572
57591W        W26064   6.812  30.162  11.108
57592W        W26065  15.143  24.620   3.690
57593W        W26066  23.210   1.398  11.002
57594W        W26067  27.183  31.538   2.896
57595W        W26068  25.694  25.081  14.494
57596W        W26069  23.611  21.107   0.963
57597W        W26070  44.777  27.600   1.420
57598W        W26071  31.561  14.243  11.597
57599W        W26072   2.729  40.807  10.951
57600W        W26073  27.057  34.508   4.135
57601W        W26074  20.705   5.392   1.848
57602W        W26075   7.389  41.389  13.933
57603W        W26076  41.822  34.524   4.322
57604W        W26077   7.909   1.310  12.864
57605W        W26078   5.270  43.372   3.716
57606W        W26079   5.757  20.629   2.223
57607W        W26080  38.917  41.808  13.522
57608W        W26081  40.900  19.228   2.715
57609W        W26082   9.799  21.675  14.838
57610W        W26083  17.774  43.286  14.764
57611W        W26084   4.844  22.128  10.958
57612W        W26085  20.105  37.859  14.771
57613W        W26086  34.466  23.202   2.683
57614W        W26087   4.774  19.103  12.452
57615W        W26088  27.479  44.909   3.845
57616W        W26089  31.142  29.467  10.010
57617W        W26090  16.657  10.223  12.861
57618W        W26091  44.313   8.231   1.289
57619W        W26092  40.942  26.071   1.711
57620W        W26093  15.585  23.105   4.182
57621W        W26094  15.327  16.768   1.740
57622W        W26095  41.499  34.058   3.270
57623W        W26096  35.536  24.103  14.003
57624W        W26097   5.193   5.355   1.267
57625W        W26098  13.665  41.538   0.783
57626W        W26099  44.396   7.403   4.249
57627W        W26100  43.436   0.487   4.630
57628W        W26101  42.951  27.189   2.304
57629W        W26102  16.088   8.815  14.937
57630W        W26103  24.222  19.082  11.990
57631W        W26104  10.670  37.985  14.311
57632W        W26105  32.908   9.265  13.009
57633W        W26106   6.229  24.082  13.063
57634W        W26107  42.440  11.304  13.309
57635W        W26108   8.393  19.605   4.334
57636W        W26109  42.377  13.719  14.959
57637W        W26110  40.453  14.149  14.892
57638W        W26111  34.037  34.558   1.452
57639W        W26112  11.853   3.727  11.372
57640W        W26113  42.862  43.451   3.635
57641W        W26114  15.108   9.685   3.730
57642W        W26115  21.517  44.336   4.705
57643W        W26116   3.341  29.430  12.410
57644W        W26117  39.929  43.513  12.955
57645W        W26118  16.577  18.184  11.606
57646W        W26119  41.037  38.886  11.525
57647W        W26120  39.426  34.491   3.233
57648W        W26121  16.194  31.910   0.269
57649W        W26122  10.853   8.313   1.364
57650W        W26123   4.222  42.956   2.196
57651W        W26124   8.289  44.331   3.340
57652W        W26125  12.655  30.919   0.253
57653W        W26126  25.032  36.069   0.255
57654W        W26127  37.869  16.097   0.948
57655W        W26128  24.628   3.944  13.513
57656W        W26129  33.462  34.064  12.908
57657W        W26130  12.358  40.512  11.046
57658W        W26131  11.245   1.391   1.417
57659W        W26132   8.701   4.942  13.311
57660W        W26133  18.556   4.232  10.427
57661W        W26134  33.609   0.378  14.513
57662W        W26135  16.169  16.763  12.021
57663W        W26136  24.076  14.819  12.470
57664W        W26137  25.487  24.713  14.282
57665W        W26138   9.660  32.896   4.113
57666W        W26139  24.999   8.300  10.520
57667W        W26140  31.898  32.977   3.194
57668W        W26141  28.125   8.339   4.281
57669W        W26142  28.588   6.372   0.276
57670W        W26143  36.488   5.721  13.467
57671W        W26144  14.216   3.955   2.880
57672W        W26145   5.418  24.055  12.499
57673W        W26146  24.592  25.098  11.124
57674W        W26147  19.146  18.723   3.766
57675W        W26148   2.386  28.097  10.085
57676W        W26149  13.150  21.226  14.404
57677W        W26150   9.777   2.347   4.612
57678W        W26151  28.983   7.808   1.249
57679W        W26152   4.222  16.680  10.406
57680W        W26153  13.734  34.604  10.465
57681W        W26154  21.552  13.107  10.516
57682W        W26155  42.379  19.049   0.774
57683W        W26156  20.085  34.401  11.061
57684W        W26157   8.241  16.609  11.043
57685W        W26158  21.027  11.815   4.700
57686W        W26159  40.391   1.470   3.672
57687W        W26160  17.208  33.606   0.340
57688W        W26161  44.882   8.696  11.015
57689W        W26162  39.980  21.029   3.746
57690W        W26163  35.970  14.703   2.200
57691W        W26164  32.474  24.699   5.179
57692W        W26165   0.354  10.172  12.477
57693W        W26166  22.080  40.027  12.455
57694W        W26167  30.614  39.546   1.784
57695W        W26168  40.866  44.804   4.353
57696W        W26169  10.797  27.533   2.695
57697W        W26170  38.994  32.046   1.832
57698W        W26171  22.124  10.793  14.891
57699W        W26172  17.254  42.434   1.860
57700W        W26173  16.226  31.501  12.360
57701W        W26174  32.045   5.293  11.990
57702W        W26175   9.326  39.361  14.817
57703W        W26176  36.531  35.585   0.754
57704W        W26177  35.852   5.812   1.902
57705W        W26178  29.014  11.856   0.740
57706W        W26179  29.114  29.160   3.752
57707W        W26180  39.322   4.239   0.379
57708W        W26181  29.099  27.057  14.891
57709W        W26182   7.715  37.957   1.432
57710W        W26183  17.292  22.190   0.729
57711W        W26184  21.572   1.949  10.631
57712W        W26185  35.444  44.416  13.881
57713W        W26186   8.243  22.241   1.292
57714W        W26187  34.961  11.151   4.651
57715W        W26188  44.779  24.695  14.512
57716W        W26189  31.563  22.612  10.505
57717W        W26190  29.490  14.248   2.899
57718W        W26191   5.258  15.232   1.451
57719W        W26192  25.161  24.153   4.782
57720W        W26193   5.896  37.463  10.014
57721W        W26194  17.104  22.069   3.779
57722W        W26195   5.737  15.796  13.367
57723W        W26196  33.451   1.956  10.016
57724W        W26197  17.692  29.124  11.415
57725W        W26198  28.494  22.098  10.509
57726W        W26199  41.436  19.204  13.368
57727W        W26200   5.400  23.611   4.296
57728W        W26201  40.045  14.328  11.544
57729W        W26202  34.108   9.687  14.855
57730W        W26203  35.077   5.345  12.531
57731W        W26204  28.179   6.789   1.420
57732W        W26205  18.564  32.452   2.763
57733W        W26206  32.028  13.271  14.915
57734W        W26207  24.185  43.486   4.785
57735W        W26208   6.404  40.355  12.378
57736W        W26209  37.045  27.948   1.383
57737W        W26210  12.120  34.486  11.093
57738W        W26211  14.598  32.616  13.036
57739W        W26212  29.946  12.360   0.863
57740W        W26213   2.349  40.897  12.033
57741W        W26214  43.386  44.361  12.353
57742W        W26215   8.900   7.778  14.296
57743W        W26216  44.294  43.854  13.797
57744W        W26217   9.825   6.855   1.239
57745W        W26218  21.135  37.488   3.360
57746W        W26219  12.125  19.711  10.987
57747W        W26220   7.190   1.745   2.251
57748W        W26221  39.029  20.668   4.245
57749W        W26222  14.186  13.838  11.534
57750W        W26223   4.438  33.054  14.492
57751W        W26224  44.403   0.275  12.533
57752W        W26225   7.397  29.083  12.965
57753W        W26226  40.928  44.969  13.870
57754W        W26227  14.276  33.625  14.336
57755W        W26228   6.685  31.616  13.889
57756W        W26229   3.825  39.530  11.420
57757W        W26230  30.113  21.672  14.984
57758W        W26231   9.669  26.569   3.267
57759W        W26232  38.839  27.524   1.288
57760W        W26233  21.218  35.016  13.997
57761W        W26234  25.528  17.076   1.791
57762W        W26235  22.524  25.215   3.352
57763W        W26236   9.703  36.899   0.781
57764W        W26237  34.968  12.238  11.503
57765W        W26238   5.422   1.359  13.037
57766W        W26239  37.539  31.586   3.377
57767W        W26240   0.377  11.249   4.277
57768W        W26241   4.936   3.797   3.797
57769W        W26242  28.991   3.328   2.287
57770W        W26243  36.940   8.232   4.295
57771W        W26244  21.191  21.073   3.268
57772W        W26245  31.123  10.713  10.437
57773W        W26246  18.648  38.912  11.558
57774W        W26247  31.120  15.818  11.096
57775W        W26248   9.333  28.479  11.541
57776W        W26249  18.267  41.304  12.045
57777W        W26250  38.458  25.483   0.345
57778W        W26251  38.495  26.506  11.003
57779W        W26252  44.303  36.066  14.479
57780W        W26253  27.495  37.931  11.473
57781W        W26254   3.264  44.787  12.917
57782W        W26255  17.301  37.060   0.262
57783W        W26256  28.181  32.909   1.439
57784W        W26257  41.900  27.617  12.939
57785W        W26258  20.188  44.426   3.223
57786W        W26259  43.443  13.688  11.089
57787W        W26260  12.169  12.305  14.387
57788W        W26261  14.815  16.735  10.898
57789W        W26262   3.444   4.911  14.334
57790W        W26263  18.149  17.755  12.876
57791W        W26264  14.689  33.396   1.781
57792W        W26265  41.524  33.595  14.924
57793W        W26266  29.625  30.489   5.308
57794W        W26267  21.643  27.557   5.229
57795W        W26268  25.703  37.543   3.644
57796W        W26269  33.909   4.333  13.948
57797W        W26270  17.092  35.382  11.873
57798W        W26271  22.631   1.843  12.852
57799W        W26272  31.126  36.414   0.267
57800W        W26273  19.608  34.375  11.969
57801W        W26274  24.558  31.482  12.939
57802W        W26275  35.911   2.789   3.169
57803W        W26276  31.537  32.441   1.265
57804W        W26277  36.374  28.149   2.343
57805W        W26278  39.959  31.104   1.880
57806W        W26279  25.037  34.941  11.593
57807W        W26280  20.529  11.764   2.834
57808W        W26281   6.780  30.940  11.866
57809W        W26282   5.274  18.624   1.336
57810W        W26283   9.270  39.506  10.922
57811W        W26284  13.806  16.779   1.216
57812W        W26285  24.715   6.362  14.927
57813W        W26286  13.240  40.536   1.812
57814W        W26287  31.051  22.998  12.929
57815W        W26288  34.030  40.980  10.994
57816W        W26289  13.659   4.443   1.892
57817W        W26290   0.352  37.455   4.604
57818W        W26291   7.814  32.924  13.803
57819W        W26292  44.965  13.711  10.981
57820W        W26293  27.508  10.802  12.528
57821W        W26294   9.226  19.143   2.249
57822W        W26295   0.954  27.554  11.902
57823W        W26296  16.283   7.404  10.451
57824W        W26297   1.783  28.057   4.303
57825W        W26298  38.966   1.241  13.540
57826W        W26299  24.628  11.843  12.032
57827W        W26300   6.348   7.791   3.673
57828W        W26301  35.106  13.288   4.214
57829W        W26302  13.314  31.134  12.453
57830W        W26303  13.166  12.689  11.123
57831W        W26304  34.054  23.234   1.406
57832W        W26305  34.569  15.783  10.426
57833W        W26306  11.853  36.020  12.985
57834W        W26307  18.160  12.129   4.216
57835W        W26308  27.501   0.337   3.796
57836W        W26309  33.110  33.525   4.212
57837W        W26310  40.400  43.487  11.999
57838W        W26311   2.721  37.481   0.962
57839W        W26312  22.590  20.202  10.579
57840W        W26313  22.609  30.073  11.948
57841W        W26314   2.272   0.930   3.162
57842W        W26315  38.966   4.930  12.013
57843W        W26316  27.512  18.735   1.899
57844W        W26317  30.415  41.358   1.319
57845W        W26318  30.438   6.240  14.982
57846W        W26319  20.723  28.627  13.522
57847W        W26320  21.110  44.362   1.388
57848W        W26321  34.610  34.389  13.921
57849W        W26322  22.125  17.789  12.480
57850W        W26323  37.509  31.539  14.913
57851W        W26324  33.941  30.115   4.264
57852W        W26325  24.496  35.989  12.912
57853W        W26326  38.523  39.387  10.946
57854W        W26327  39.978  22.631  14.881
57855W        W26328   0.357   6.286   1.742
57856W        W26329  26.986  17.103  14.364
57857W        W26330   3.840  44.262   0.795
57858W        W26331  22.532  19.060  13.413
57859W        W26332  43.486  43.899   2.280
57860W        W26333  27.615  41.030  12.950
57861W        W26334  40.903  24.991   1.849
57862W        W26335   4.250  33.596   1.402
57863W        W26336  35.038   2.801   0.289
57864W        W26337   1.238  19.096  13.846
57865W        W26338  22.564  39.928  13.876
57866W        W26339   6.410  27.581  14.306
57867W        W26340  44.837  21.093   3.657
57868W        W26341   4.385  23.493   2.685
57869W        W26342  19.249  27.489   0.742
57870W        W26343  37.919  43.995   3.672
57871W        W26344  36.989  35.421  12.905
57872W        W26345  36.396  41.951   2.849
57873W        W26346  14.109  37.992   1.295
57874W        W26347  14.298   5.769   1.818
57875W        W26348  39.886  20.223  10.941
57876W        W26349  19.153  43.009   1.727
57877W        W26350  36.084  16.224   3.240
57878W        W26351  26.129   3.910  14.296
57879W        W26352  31.119  21.728  10.586
57880W        W26353  16.767  32.980  11.020
57881W        W26354  18.581  28.954  12.401
57882W        W26355  43.825   7.809   4.201
57883W        W26356  20.034  15.154   1.783
57884W        W26357  11.202   1.311  11.443
57885W        W26358  25.079   8.796  12.341
57886W        W26359  25.634  28.677  11.470
57887W        W26360  35.466  26.462  13.996
57888W        W26361  22.998  41.376  14.772
57889W        W26362  34.453  19.605  13.032
57890W        W26363  25.041  26.015   4.768
57891W        W26364  26.102  15.597   2.762
57892W        W26365  11.800  32.422  10.442
57893W        W26366  27.501  30.098   2.717
57894W        W26367  18.052  22.043  13.314
57895W        W26368   2.226  13.178   2.887
57896W        W26369   0.930   9.736   4.194
57897W        W26370  10.328  28.110  13.005
57898W        W26371  29.588  35.579  11.432
57899W        W26372  12.349  31.945  11.419
57900W        W26373  33.078  37.888   2.215
57901W        W26374  25.972  23.159  13.843
57902W        W26375   7.674   2.229   4.818
57903W        W26376   3.340  11.196  13.540
57904W        W26377  12.727  33.984  13.853
57905W        W26378   4.416   7.334  12.481
57906W        W26379   8.734  38.993  13.403
57907W        W26380   9.644  24.005  12.538
57908W        W26381  31.623   4.828   0.375
57909W        W26382  14.256  32.932  11.895
57910W        W26383   0.480  44.988   4.608
57911W        W26384   9.217  15.107   3.748
57912W        W26385  41.469   0.450  11.525
57913W        W26386  33.104  27.484   3.293
57914W        W26387  37.479  31.020  12.885
57915W        W26388  43.007  15.278   0.332
57916W        W26389  31.489  44.932  10.521
57917W        W26390  36.542  23.508  10.909
57918W        W26391  32.471  14.731   4.200
57919W        W26392  22.099  24.214  14.397
57920W        W26393   2.448  16.678   3.790
57921W        W26394   2.455  26.538   0.363
57922W        W26395  41.829  39.416  12.055
57923W        W26396  18.655   3.267  12.385
57924W        W26397  14.633  30.513   4.177
57925W        W26398  15.159  18.122  11.963
57926W        W26399  21.659  22.095   1.743
57927W        W26400  12.835  19.535  14.946
57928W        W26401  10.276  35.920   2.272
57929W        W26402  17.799  19.282  13.910
57930W        W26403  23.213  44.490   3.328
57931W        W26404  44.375  32.109  11.377
57932W        W26405  14.110  35.015   5.092
57933W        W26406   2.289  20.192   4.779
57934W        W26407  33.069  42.926  11.424
57935W        W26408  23.205  37.361   3.712
57936W        W26409  14.173  15.629  12.941
57937W        W26410  33.532  32.893  12.991
57938W        W26411   1.374   4.917  13.313
57939W        W26412  40.359   9.352  14.449
57940W        W26413  21.686  41.317   2.781
57941W        W26414  25.068   6.397  14.945
57942W        W26415   1.923  33.935  14.032
57943W        W26416   3.454  27.651   2.788
57944W        W26417   4.283  20.585   4.156
57945W        W26418  40.331   4.733   4.303
57946W        W26419  31.997  23.214  14.759
57947W        W26420  21.126  13.682   2.717
57948W        W26421  22.711  39.316  13.884
57949W        W26422  30.030   8.211   4.713
57950W        W26423  13.252  21.071  12.339
57951W        W26424  30.093  25.977   0.800
57952W        W26425  37.983   4.727   2.794
57953W        W26426  38.362   1.957   1.897
57954W        W26427  13.324  30.467  10.415
57955W        W26428  16.224   4.734   1.300
57956W        W26429  37.423  21.123   0.758
57957W        W26430  31.482   1.437  11.047
57958W        W26431  35.415  31.542  11.409
57959W        W26432   8.314  43.965   1.225
57960W        W26433  25.046  41.489   0.247
57961W        W26434   2.382  40.412  13.001
57962W        W26435  40.436  10.865  13.972
57963W        W26436  44.325  21.754  14.831
57964W        W26437  19.202  27.155  12.897
57965W        W26438  20.542  21.536   0.948
57966W        W26439  16.594   9.191  12.441
57967W        W26440  12.700  17.136  14.325
57968W        W26441  38.927  16.108   2.662
57969W        W26442  42.803  29.021  10.506
57970W        W26443  37.368  36.502   1.356
57971W        W26444  12.705  15.620  12.502
57972W        W26445   7.813  29.056   0.861
57973W        W26446  24.497  23.650  12.884
57974W        W26447  33.026  34.432  13.854
57975W        W26448  16.307  12.328   2.854
57976W        W26449  40.309   0.751   2.330
57977W        W26450  41.513  14.651  13.381
57978W        W26451  24.664  44.892   2.294
57979W        W26452  37.558  28.008   1.893
57980W        W26453  43.021  39.895   0.808
57981W        W26454  40.307  30.109  14.428
57982W        W26455  34.442  29.137   0.254
57983W        W26456  27.972   5.785   0.480
57984W        W26457  16.721  19.094  13.036
57985W        W26458  34.518  24.183  14.460
57986W        W26459  37.488  44.792   4.201
57987W        W26460   0.448   6.344  13.000
57988W        W26461  13.146  28.174   1.796
57989W        W26462  25.049  15.600  11.022
57990W        W26463  10.204  36.439   3.377
57991W        W26464  32.141  36.375  12.421
57992W        W26465  42.890  13.162   5.268
57993W        W26466  43.294  41.498  10.620
57994W        W26467  31.922  31.152   4.230
57995W        W26468  34.968  32.100   2.183
57996W        W26469  30.044  32.037   0.756
57997W        W26470  16.718  34.947  11.452
57998W        W26471  24.226  25.630  14.410
57999W        W26472  39.916   4.787  11.073
58000W        W26473  26.557  21.214   1.774
58001W        W26474  10.834   5.831  12.387
58002W        W26475   7.903  35.882   2.701
58003W        W26476  22.027   1.341  13.001
58004W        W26477  39.369  18.232   4.653
58005W        W26478   8.821  11.173   1.376
58006W        W26479  15.296  36.489   2.283
58007W        W26480  18.585  28.095  11.577
58008W        W26481  30.439  26.096  12.475
58009W        W26482  24.575  43.849  13.538
58010W        W26483  34.028  37.559  12.059
58011W        W26484  16.697  25.549  13.031
58012W        W26485  33.976  34.517  14.989
58013W        W26486   9.750   0.365   0.930
58014W        W26487  36.477  43.381  14.766
58015W        W26488   6.271  31.112  11.504
58016W        W26489   2.275   1.802  12.022
58017W        W26490  44.766   2.758   2.865
58018W        W26491   7.891  12.716   1.754
58019W        W26492  40.448  29.109  13.469
58020W        W26493  26.011  21.714  14.997
58021W        W26494  11.649  38.421  11.535
58022W        W26495  42.805   8.184  14.502
58023W        W26496  27.589  18.634  11.474
58024W        W26497   9.313  36.039  14.003
58025W        W26498   8.378   1.820   2.859
58026W        W26499   5.697   4.730  13.503
58027W        W26500  22.685  10.684   3.757
58028W        W26501  25.213   7.330  10.635
58029W        W26502  12.851  36.966  12.426
58030W        W26503  43.987   1.332   3.811
58031W        W26504  21.682  33.402   4.791
58032W        W26505  18.196  30.075   1.751
58033W        W26506  34.441  13.307   0.774
58034W        W26507   2.888  44.492   2.689
58035W        W26508  31.567  12.276  11.586
58036W        W26509  39.412  42.398   1.773
58037W        W26510   3.458  23.070  13.482
58038W        W26511   2.747  39.838  14.908
58039W        W26512   8.737  28.934   2.747
58040W        W26513  11.816  20.737  12.926
58041W        W26514  25.610  24.591   0.481
58042W        W26515  22.510  28.621   1.283
58043W        W26516  26.623  41.001   1.311
58044W        W26517  43.473  15.752  12.427
58045W        W26518  12.118  14.789   0.245
58046W        W26519   8.345   6.859   4.248
58047W        W26520  33.944  22.673   3.159
58048W        W26521  25.557  30.019   4.640
58049W        W26522  12.239  31.952   1.833
58050W        W26523  22.510   1.910  10.443
58051W        W26524  43.362  17.122   4.680
58052W        W26525  35.917  23.204  14.003
58053W        W26526  33.395  40.467   2.359
58054W        W26527  36.062   1.417   4.329
58055W        W26528  19.180  26.462   0.793
58056W        W26529  24.499  20.705   3.709
58057W        W26530  35.906  17.731  13.988
58058W        W26531  10.184  33.112   9.976
58059W        W26532  21.727  17.583   0.872
58060W        W26533  35.437   9.820   0.882
58061W        W26534  31.484  34.937  13.913
58062W        W26535  39.409  14.614  13.375
58063W        W26536  12.337  15.612   2.784
58064W        W26537   2.471   5.930  12.441
58065W        W26538   6.909  15.317  13.457
58066W        W26539  15.766  29.943   1.436
58067W        W26540   4.745  31.024   0.936
58068W        W26541  37.874  18.132   2.841
58069W        W26542   4.248  25.053  11.374
58070W        W26543   9.157  41.501  13.458
58071W        W26544   4.867  35.854  11.475
58072W        W26545  33.388  21.655  11.602
58073W        W26546  28.059  37.994  14.329
58074W        W26547  26.663  31.431  12.828
58075W        W26548  44.798  12.282  11.486
58076W        W26549   5.369  11.149  11.586
58077W        W26550  24.482   2.781  14.845
58078W        W26551  44.960  22.223  11.027
58079W        W26552   0.909  12.204   1.746
58080W        W26553  15.276  41.042   5.123
58081W        W26554  28.063  40.842   3.327
58082W        W26555  19.701  42.501   3.221
58083W        W26556  10.863   0.425  14.825
58084W        W26557   6.246   9.245  12.028
58085W        W26558  38.949  40.929  13.960
58086W        W26559  17.119  11.309  12.095
58087W        W26560   5.708  23.558  14.853
58088W        W26561   0.300  15.205   0.867
58089W        W26562   1.397  43.281  12.919
58090W        W26563  14.126  17.294   0.359
58091W        W26564  44.483  36.473   1.318
58092W        W26565  27.666  23.105  14.855
58093W        W26566  26.056   0.945  13.803
58094W        W26567  40.469  21.088   2.265
58095W        W26568  39.041  21.157   0.941
58096W        W26569  31.450   0.357   4.119
58097W        W26570  21.675  41.315   0.429
58098W        W26571   4.397  38.490  11.996
58099W        W26572  34.898  32.499  11.079
58100W        W26573  41.797  19.554  13.919
58101W        W26574  29.445  44.769   0.939
58102W        W26575  35.454  31.096  12.878
58103W        W26576   0.813  16.653  13.940
58104W        W26577  28.131  25.978   3.171
58105W        W26578  32.430  36.507   4.192
58106W        W26579   7.728  41.384   3.385
58107W        W26580  28.952  39.500   1.257
58108W        W26581  40.991   6.905  12.824
58109W        W26582  27.475  18.189  14.317
58110W        W26583  13.805  15.765   0.409
58111W        W26584  14.182   2.798  10.620
58112W        W26585  15.657  40.323   5.100
58113W        W26586   6.372  20.704   3.376
58114W        W26587  33.397  41.498   0.450
58115W        W26588   8.782  14.665   0.914
58116W        W26589   8.791  15.110   4.772
58117W        W26590  42.282  31.946   1.405
58118W        W26591  22.734  34.505  12.545
58119W        W26592  30.968   6.418   2.332
58120W        W26593  38.876  40.484   0.281
58121W        W26594  43.391  16.146   1.930
58122W        W26595  17.114  30.489   4.323
58123W        W26596  15.598  21.105   2.406
58124W        W26597  19.653   7.746   1.267
58125W        W26598  39.411  10.662   2.873
58126W        W26599  13.260   0.873  13.979
58127W        W26600  29.007  29.156   1.745
58128W        W26601  41.515  11.153  12.933
58129W        W26602  14.707  24.218  11.034
58130W        W26603   4.226  37.972   0.482
58131W        W26604   0.846   5.241   1.419
58132W        W26605   4.244  40.834   4.613
58133W        W26606  15.812   0.404  11.029
58134W        W26607  19.123  29.043  10.458
58135W        W26608  29.101  20.537   0.848
58136W        W26609  27.978  35.928   1.393
58137W        W26610   9.760   0.493   4.287
58138W        W26611  10.173  25.016   3.843
58139W        W26612  10.347  14.660  12.971
58140W        W26613  25.156  24.061  14.321
58141W        W26614   6.315  41.022   4.333
58142W        W26615  10.317  20.761  10.576
58143W        W26616  19.594  10.333  12.928
58144W        W26617  26.490  31.052   5.248
58145W        W26618  20.707  34.105   0.414
58146W        W26619  24.560   4.739   2.829
58147W        W26620  16.601  30.042   1.865
58148W        W26621   5.895  14.135   1.827
58149W        W26622  37.340  44.818  13.315
58150W        W26623  16.248  40.951   0.952
58151W        W26624  20.707  40.407   3.719
58152W        W26625   7.317  20.234  12.826
58153W        W26626   5.261  27.173  11.069
58154W        W26627  18.772  24.610   2.319
58155W        W26628  43.512   3.257   2.760
58156W        W26629  32.101  19.591  11.992
58157W        W26630  19.182  13.655  13.980
58158W        W26631  25.584  32.608   2.352
58159W        W26632  44.969   7.316  11.513
58160W        W26633  39.840  13.634  14.860
58161W        W26634  38.915   9.219   2.305
58162W        W26635  44.432  33.917  10.961
58163W        W26636  18.776  32.994   2.334
58164W        W26637  13.274  22.705  13.820
58165W        W26638   1.933  33.910  11.471
58166W        W26639  30.449  12.257   4.181
58167W        W26640  39.973  20.119  11.425
58168W        W26641  30.142  31.952  14.424
58169W        W26642  38.882  30.477   3.804
58170W        W26643  20.679  11.683   1.862
58171W        W26644  12.851  34.372   1.408
58172W        W26645  29.000   9.841   3.202
58173W        W26646   3.744   1.737  12.389
58174W        W26647  27.011  15.784   4.134
58175W        W26648  15.237  31.598  14.919
58176W        W26649  35.104   3.855   1.762
58177W        W26650  23.219   8.896   2.894
58178W        W26651  38.391  35.412   4.604
58179W        W26652   5.232  35.422  10.404
58180W        W26653  42.795  37.862   4.779
58181W        W26654  38.503  34.383  10.477
58182W        W26655  13.672  12.844   2.735
58183W        W26656  13.775   8.901   2.801
58184W        W26657   7.813  17.654   2.863
58185W        W26658  20.115  12.852  13.959
58186W        W26659   9.788  23.540  13.465
58187W        W26660  30.110  39.020  14.302
58188W        W26661  34.439  37.582   0.281
58189W        W26662  41.844  11.311   3.776
58190W        W26663  23.116  18.555  12.937
58191W        W26664  20.039  29.138   4.607
58192W        W26665  20.108   3.893  10.565
58193W        W26666  35.385  17.107   4.137
58194W        W26667  42.377  40.903  10.423
58195W        W26668  33.914   1.316  13.334
58196W        W26669   9.362  35.886   4.324
58197W        W26670  16.281   5.242  12.096
58198W        W26671  22.673   4.820  14.400
58199W        W26672  21.157  19.751  12.351
58200W        W26673  35.423  15.651   0.891
58201W        W26674  30.961  16.700  13.492
58202W        W26675  41.808  14.768  11.528
58203W        W26676  35.546  34.493   4.291
58204W        W26677  34.588  10.273  12.867
58205W        W26678  31.555   4.886   0.964
58206W        W26679  22.054  33.385   1.763
58207W        W26680  32.128  43.911   1.246
58208W        W26681  20.170  25.179   0.788
58209W        W26682  13.824  30.959   0.824
58210W        W26683  16.625  40.951  13.977
58211W        W26684  14.709  13.217  10.600
58212W        W26685  23.000  13.634   1.798
58213W        W26686  29.632  37.971   2.412
58214W        W26687  15.318  22.703  11.416
58215W        W26688  34.456  24.682   4.616
58216W        W26689  22.613  19.724  13.064
58217W        W26690  37.008  18.742  10.626
58218W        W26691   3.747  27.654  14.014
58219W        W26692  23.679  26.661   3.213
58220W        W26693  35.049  28.946   4.235
58221W        W26694  25.681   1.457  14.808
58222W        W26695   4.762  26.981   9.984
58223W        W26696  40.953  43.299  13.454
58224W        W26697   5.694  44.487  10.011
58225W        W26698  33.929  21.555  12.535
58226W        W26699  15.113  26.991  11.900
58227W        W26700   8.820  43.780  13.506
58228W        W26701  38.465  35.027  14.285
58229W        W26702  26.633  31.981   2.186
58230W        W26703   5.366  10.706  12.961
58231W        W26704  29.491  41.432   9.933
58232W        W26705   3.775  37.843  12.463
58233W        W26706  23.704   3.752   0.260
58234W        W26707  28.561  15.694  14.441
58235W        W26708  27.146  37.553  12.386
58236W        W26709  27.590  18.278   2.359
58237W        W26710  32.008  25.507  11.478
58238W        W26711  26.020  30.572   0.874
58239W        W26712  25.552   9.791   0.273
58240W        W26713  34.428  36.551  12.071
58241W        W26714  40.317  43.784   1.311
58242W        W26715  39.397  43.877  11.088
58243W        W26716  25.012  23.515   3.319
58244W        W26717  11.253  16.202   2.791
58245W        W26718   0.377  22.515  12.921
58246W        W26719  29.015  34.449  12.029
58247W        W26720   9.201   7.736   3.256
58248W        W26721   9.843  35.094  10.492
58249W        W26722  41.043  37.890   3.246
58250W        W26723   3.240   1.464   2.408
58251W        W26724  40.325   2.734   2.237
58252W        W26725   4.837  12.124  11.906
58253W        W26726  38.376  26.122   0.911
58254W        W26727  30.908  13.749   4.684
58255W        W26728  32.050  44.469   4.165
58256W        W26729  41.318   9.773  11.896
58257W        W26730  33.091   4.894  12.862
58258W        W26731  29.930   2.952  10.453
58259W        W26732   8.846  23.049   1.381
58260W        W26733  35.985  16.805   1.305
58261W        W26734  28.588  23.985   4.133
58262W        W26735   0.478  12.725   1.828
58263W        W26736  13.622  19.720   4.837
58264W        W26737  19.637   7.203   1.253
58265W        W26738  22.705  29.546   2.253
58266W        W26739  12.270  37.335  14.847
58267W        W26740  31.109   6.721   2.183
58268W        W26741  37.537   1.375   2.849
58269W        W26742  29.638   4.757  12.973
58270W        W26743  28.440  35.407   3.261
58271W        W26744  35.059   3.229   1.376
58272W        W26745  30.021   3.458   1.245
58273W        W26746   3.423  31.554  13.910
58274W        W26747  20.173  30.430   0.787
58275W        W26748   0.411  32.911  13.948
58276W        W26749  20.541  16.681  10.965
58277W        W26750   9.366  36.916  13.942
58278W        W26751   3.739   8.267   4.635
58279W        W26752  22.514  26.999  14.400
58280W        W26753  35.930  30.568   0.249
58281W        W26754  23.145  32.594   3.650
58282W        W26755  16.806  10.280  14.368
58283W        W26756  30.957  43.961   2.380
58284W        W26757   7.842  42.892   4.682
58285W        W26758  30.592  10.790  13.454
58286W        W26759  20.702  38.398   0.781
58287W        W26760   5.352  10.348  13.846
58288W        W26761  29.592   9.262  12.474
58289W        W26762  40.879  27.183  11.603
58290W        W26763  16.167  35.074  12.390
58291W        W26764   5.193  15.282  11.109
58292W        W26765  35.575   4.925   0.726
58293W        W26766  19.690  33.942   2.799
58294W        W26767  34.988  29.500  14.404
58295W        W26768  22.224  23.648   1.843
58296W        W26769   0.751  33.927  11.565
58297W        W26770  36.457  30.973   4.293
58298W        W26771  13.769  40.999  12.448
58299W        W26772  20.099  36.952   2.352
58300W        W26773  12.205  18.143  12.052
58301W        W26774  36.497  33.959  11.464
58302W        W26775  28.113  14.110  13.812
58303W        W26776  22.646  27.508  10.514
58304W        W26777  43.384  12.252  10.506
58305W        W26778  22.196  44.974   0.829
58306W        W26779   5.310   1.925   5.081
58307W        W26780  22.686  14.106   0.299
58308W        W26781  36.448   1.265  12.999
58309W        W26782   8.338   6.372   0.342
58310W        W26783  15.630  38.978   3.844
58311W        W26784  30.419  10.651  11.412
58312W        W26785   6.426  19.069  10.157
58313W        W26786  40.482   8.835   3.151
58314W        W26787  12.195  28.069   3.298
58315W        W26788  28.579   2.243   4.626
58316W        W26789  26.538  17.228  13.862
58317W        W26790  28.111  31.629  12.578
58318W        W26791  41.514  31.401  10.447
58319W        W26792  29.559   5.292  14.469
58320W        W26793  18.566  42.015  10.524
58321W        W26794  12.747  31.594  12.951
58322W        W26795  13.606   5.711  13.891
58323W        W26796  28.610  17.076  14.017
58324W        W26797  36.994  31.508   3.229
58325W        W26798   7.756  22.522  12.074
58326W        W26799  20.640  25.612   1.387
58327W        W26800  11.761  11.210  12.490
58328W        W26801  41.301  34.456   3.798
58329W        W26802  25.498  21.138   3.738
58330W        W26803   5.762  43.481  13.844
58331W        W26804  15.769  33.092  10.430
58332W        W26805   2.404  25.633   0.803
58333W        W26806  11.304  35.380   1.359
58334W        W26807  25.682  23.640   3.824
58335W        W26808  12.709  16.116  10.976
58336W        W26809  18.280  26.495  10.476
58337W        W26810   4.940  10.358   2.255
58338W        W26811   9.228  37.009  10.615
58339W        W26812  26.477   1.366  11.943
58340W        W26813  11.779  25.538  11.403
58341W        W26814  25.606   1.283   2.294
58342W        W26815   3.452  31.040   5.273
58343W        W26816   0.307  34.419   3.785
58344W        W26817  28.501  21.252  14.927
58345W        W26818  31.629  39.351  14.889
58346W        W26819  13.180  37.847  11.500
58347W        W26820   5.839  25.098   1.375
58348W        W26821   0.930  37.043   0.807
58349W        W26822  17.744  37.489   1.293
58350W        W26823  43.781  43.342  13.985
58351W        W26824   7.271  14.652   3.358
58352W        W26825  42.347  26.958  10.529
58353W        W26826   2.394  12.319   2.363
58354W        W26827  38.981  37.972  12.552
58355W        W26828  30.990  21.581  12.379
58356W        W26829  32.955  10.185   1.354
58357W        W26830  26.131  15.773  12.426
58358W        W26831  18.681  25.482  10.601
58359W        W26832   3.783  29.082   4.749
58360W        W26833   1.747  26.480  11.510
58361W        W26834  13.776  15.280   1.751
58362W        W26835  34.480  17.607   4.260
58363W        W26836   3.377  27.449   0.862
58364W        W26837  11.621  20.633  13.354
58365W        W26838  35.508  36.853  13.443
58366W        W26839  25.200   2.368  13.911
58367W        W26840  38.493  15.166   0.805
58368W        W26841  22.534  29.011  10.513
58369W        W26842  11.717   8.182  12.381
58370W        W26843  15.804  33.585  12.405
58371W        W26844  10.836  40.501   1.392
58372W        W26845  21.093  19.114  13.023
58373W        W26846   5.198  37.435  13.834
58374W        W26847  22.235  41.379  11.412
58375W        W26848  38.947  10.826  12.035
58376W        W26849  20.713  20.610   2.368
58377W        W26850  24.666  11.742  14.495
58378W        W26851   8.760  44.845   0.426
58379W        W26852  31.537  20.753  12.402
58380W        W26853  20.189  16.103  11.377
58381W        W26854   9.380  37.002   3.247
58382W        W26855  22.121  19.178  11.597
58383W        W26856   4.883  36.520  12.052
58384W        W26857  30.418   0.890  12.873
58385W        W26858  37.895  39.966  11.572
58386W        W26859  41.535  23.117  14.787
58387W        W26860  34.400  30.582  14.318
58388W        W26861  19.191  23.533  10.545
58389W        W26862   9.215  18.158  10.521
58390W        W26863   4.369  42.834  13.538
58391W        W26864  32.544  22.681   0.392
58392W        W26865  13.311   6.853  13.804
58393W        W26866  14.102  35.049  14.865
58394W        W26867  24.217  28.611  14.783
58395W        W26868  36.388  12.713  13.965
58396W        W26869  40.507  22.744  11.083
58397W        W26870  37.406   8.264   4.137
58398W        W26871  17.626  11.219   2.192
58399W        W26872  36.424  16.762  12.531
58400W        W26873  15.630   7.260  13.419
58401W        W26874   6.849  15.253   2.368
58402W        W26875  41.875   7.409  12.078
58403W        W26876  28.637  35.548  12.048
58404W        W26877   7.368  15.783   2.240
58405W        W26878   4.886  17.107  11.954
58406W        W26879  28.036  36.552  14.388
58407W        W26880   6.777  23.549  10.634
58408W        W26881   4.355  20.197  12.882
58409W        W26882   8.251  16.132   0.826
58410W        W26883  19.659  32.122  10.451
58411W        W26884  31.491  23.599  14.907
58412W        W26885  12.191   9.164   4.310
58413W        W26886  21.612  26.530   4.834
58414W        W26887  41.488  15.656   4.275
58415W        W26888   4.905  35.526   4.257
58416W        W26889  14.709  15.578  11.009
58417W        W26890   0.818  11.820  12.408
58418W        W26891  17.720   8.179  11.541
58419W        W26892  44.967  33.087   4.132
58420W        W26893  25.500  44.385  10.988
58421W        W26894  41.905  38.339  12.478
58422W        W26895  13.292  36.909  10.527
58423W        W26896   6.295  41.298   4.736
58424W        W26897  15.255  39.908  11.036
58425W        W26898   2.424  18.695  13.061
58426W        W26899  34.874   8.843   1.403
58427W        W26900  22.237  38.547   3.828
58428W        W26901  29.515  13.132   4.200
58429W        W26902  14.746  39.436  11.856
58430W        W26903  19.175  26.602   2.391
58431W        W26904  30.946  19.624  10.093
58432W        W26905  31.964  35.888  10.574
58433W        W26906  42.802  30.611   3.310
58434W        W26907  16.716  36.438   0.273
58435W        W26908  36.393  40.447  11.415
58436W        W26909  14.619  21.256   1.781
58437W        W26910  18.621  13.620  13.051
58438W        W26911   6.905   6.809  14.986
58439W        W26912  37.347  27.553  11.062
58440W        W26913  31.138  28.674  10.966
58441W        W26914   9.209  14.627   2.860
58442W        W26915  26.697   1.834   3.766
58443W        W26916  21.554   6.374  14.384
58444W        W26917  37.975  24.650   2.889
58445W        W26918  34.574  23.994  12.082
58446W        W26919   0.906  29.661   4.822
58447W        W26920  20.030   3.728   3.192
58448W        W26921  12.725  19.545  13.038
58449W        W26922   7.317   0.383   1.450
58450W        W26923  20.094  32.458  14.816
58451W        W26924  40.499  22.042  11.913
58452W        W26925  11.842   5.250  14.759
58453W        W26926  13.135  19.213  12.921
58454W        W26927  21.199  25.654  11.506
58455W        W26928  40.924  25.123   3.378
58456W        W26929  42.364   1.876   0.754
58457W        W26930   8.365   2.314   1.934
58458W        W26931  22.177  19.140  10.981
58459W        W26932  35.920   9.203  11.023
58460W        W26933  13.775  18.289   1.723
58461W        W26934  15.653  22.174   2.769
58462W        W26935  33.450   2.803  14.008
58463W        W26936  29.963  38.433  13.429
58464W        W26937   2.300  28.104  12.375
58465W        W26938  12.777  31.921  13.354
58466W        W26939   2.837   5.234   1.414
58467W        W26940  17.596  27.594  11.401
58468W        W26941  28.515  41.432  13.307
58469W        W26942  41.522  18.596  14.808
58470W        W26943  16.075   5.803  11.524
58471W        W26944  43.945  36.017  11.550
58472W        W26945  28.081  42.351  12.517
58473W        W26946  16.313  27.525   2.364
58474W        W26947   3.834  25.219   4.606
58475W        W26948  21.169  33.589  10.407
58476W        W26949   1.281  40.529  12.954
58477W        W26950  35.412  38.384   1.858
58478W        W26951  16.761   0.819   4.818
58479W        W26952  11.301  43.482  14.802
58480W        W26953  19.541  40.477   2.330
58481W        W26954  24.578  26.626   3.801
58482W        W26955  34.574  25.655   4.655
58483W        W26956   6.886  21.203  14.387
58484W        W26957  26.466  42.335   0.908
58485W        W26958  16.237  13.644  10.639
58486W        W26959  15.676   7.378   4.199
58487W        W26960   9.388  37.950  10.631
58488W        W26961   0.367   4.909  12.010
58489W        W26962  35.864   3.459  12.886
58490W        W26963  21.061  31.073   3.346
58491W        W26964  25.585  40.047   0.940
58492W        W26965  10.733  37.992  12.019
58493W        W26966  34.931  14.787  11.094
58494W        W26967   4.904  29.493   1.298
58495W        W26968  19.722  15.255  14.905
58496W        W26969  34.101  28.937   2.896
58497W        W26970   8.768  34.864  10.593
58498W        W26971  31.472  12.679  14.996
58499W        W26972  29.670  22.027  12.519
58500W        W26973   2.953  44.399   0.811
58501W        W26974  11.363   0.412   2.792
58502W        W26975  33.449   0.774   1.272
58503W        W26976  19.675  17.566   2.247
58504W        W26977  40.851   0.975  11.607
58505W        W26978  33.082  14.770  11.506
58506W        W26979  19.711   4.816   1.920
58507W        W26980  27.574  28.036   3.309
58508W        W26981  23.078  44.765   1.215
58509W        W26982  34.090  43.299  11.949
58510W        W26983  41.919  34.599   3.781
58511W        W26984  13.699  11.679   3.661
58512W        W26985   8.393  24.587  11.953
58513W        W26986  27.548  38.538  13.943
58514W        W26987  40.306  36.958   2.833
58515W        W26988  12.700  18.721  10.461
58516W        W26989  35.358   9.217   1.293
58517W        W26990   0.922  28.071  12.021
58518W        W26991  36.498  25.137  13.472
58519W        W26992  21.757   1.824   0.419
58520W        W26993   9.189  24.559  10.974
58521W        W26994  30.949  37.516   2.778
58522W        W26995  20.705  40.988   0.739
58523W        W26996  11.195  38.912  14.343
58524W        W26997  32.484   6.418   2.888
58525W        W26998   4.378  24.534  14.442
58526W        W26999  11.868  40.901   2.726
58527W        W27000  40.878  21.561   0.306
58528W        W27001   1.962  24.215  12.547
58529W        W27002   0.461  18.153   2.181
58530W        W27003  19.778   3.245  11.595
58531W        W27004   7.750  25.163   4.249
58532W        W27005  44.755  42.450   4.282
58533W        W27006  28.459  11.181  13.443
58534W        W27007  39.902  29.618  14.822
58535W        W27008  30.965  24.162   4.715
58536W        W27009   6.189   5.273  14.001
58537W        W27010  41.370  44.458  11.968
58538W        W27011  37.055  12.844  10.456
58539W        W27012  33.422  23.052   1.896
58540W        W27013  27.507   2.826  13.901
58541W        W27014  42.899   7.278   3.678
58542W        W27015  31.518   9.191  11.596
58543W        W27016   5.878  35.383   1.794
58544W        W27017   3.848   1.443  12.083
58545W        W27018  12.238  40.919   1.229
58546W        W27019  27.567   7.884  11.074
58547W        W27020   6.695  24.689  13.967
58548W        W27021  34.100  35.430  10.454
58549W        W27022  12.691  13.235  13.955
58550W        W27023   2.886   4.802  14.295
58551W        W27024  23.122  28.019   1.907
58552W        W27025  44.384   0.389   1.774
58553W        W27026  12.124  11.210   3.352
58554W        W27027   8.712  43.944  10.442
58555W        W27028  21.683   8.724  13.865
58556W        W27029  41.312  18.098   2.783
58557W        W27030   7.715  33.055  12.383
58558W        W27031   0.884   5.344   4.193
58559W        W27032  41.936   3.333  13.955
58560W        W27033   3.741  24.526  12.401
58561W        W27034  29.101   5.309   0.246
58562W        W27035   8.822   4.788  14.814
58563W        W27036  32.061  39.316  14.481
58564W        W27037   2.337   4.394  13.057
58565W        W27038  44.397  11.792  14.311
58566W        W27039  27.015   7.363  12.482
58567W        W27040  20.078  20.156   0.260
58568W        W27041  31.958  42.801  11.961
58569W        W27042   5.272  14.163   1.321
58570W        W27043  10.277   3.449  11.578
58571W        W27044  31.451  30.630   0.730
58572W        W27045  21.254  28.563   4.789
58573W        W27046  37.929   4.333   1.348
58574W        W27047  33.989  21.025   4.608
58575W        W27048  42.828   9.302   0.365
58576W        W27049  10.835   3.816   0.766
58577W        W27050  31.054  13.327   3.220
58578W        W27051  17.131  40.915  11.498
58579W        W27052   4.318  17.702  14.784
58580W        W27053   5.819  43.969  13.957
58581W        W27054  10.804  13.757  14.025
58582W        W27055  13.270  36.428   3.224
58583W        W27056  31.575  13.829   0.838
58584W        W27057   0.841  19.069  11.915
58585W        W27058  34.867  16.716  12.498
58586W        W27059  26.528  16.658   1.917
58587W        W27060  23.505  22.531  13.993
58588W        W27061  38.931   6.680  12.067
58589W        W27062  13.824  24.549  11.053
58590W        W27063  44.431  30.155  10.916
58591W        W27064  34.058  40.866   4.192
58592W        W27065  33.046  30.650  14.504
58593W        W27066   3.822  31.609   1.699
58594W        W27067   9.658  22.696  13.799
58595W        W27068  22.132   6.891   1.705
58596W        W27069   6.183  18.072   4.819
58597W        W27070  29.043  23.649   1.933
58598W        W27071  13.834  35.107   2.787
58599W        W27072  44.879  24.172  10.442
58600W        W27073  32.085  42.319   2.240
58601W        W27074  22.999  40.823  12.514
58602W        W27075  16.628   5.790   0.944
58603W        W27076  18.056  12.222   0.812
58604W        W27077  23.169   6.806  10.943
58605W        W27078  32.070  42.373   4.268
58606W        W27079  13.296   2.942   2.319
58607W        W27080  15.159  32.946   3.294
58608W        W27081  34.022  24.508  10.640
58609W        W27082   9.712  33.065  11.538
58610W        W27083   2.747  13.689  13.420
58611W        W27084  41.502  24.973  10.433
58612W        W27085  29.174  23.718  11.075
58613W        W27086   6.814   7.771   2.352
58614W        W27087  43.454  23.074  10.977
58615W        W27088  20.115  26.170  13.907
58616W        W27089   2.879  37.377   0.331
58617W        W27090  39.972  27.080  13.994
58618W        W27091  40.473   6.407  13.514
58619W        W27092  35.922  35.604   2.742
58620W        W27093  26.611  39.818  13.809
58621W        W27094  20.609  11.143   3.274
58622W        W27095  35.517  11.306  12.906
58623W        W27096   2.820   7.358   0.913
58624W        W27097  38.988   9.349   4.744
58625W        W27098  13.287  29.463  13.545
58626W        W27099   2.863  37.983  10.406
58627W        W27100  13.812  34.529  14.979
58628W        W27101   6.373  37.505  11.528
58629W        W27102   4.324  11.127  12.084
58630W        W27103  31.491  33.979  12.981
58631W        W27104  28.977   7.679  13.992
58632W        W27105  36.514  11.655   0.475
58633W        W27106  29.173  22.054   4.637
58634W        W27107   2.260  20.240   1.279
58635W        W27108  29.944  30.548  13.511
58636W        W27109   0.291   5.252   4.656
58637W        W27110  33.101   4.341   3.324
58638W        W27111  36.526  18.675   0.909
58639W        W27112  20.657  37.434  11.878
58640W        W27113  20.098  38.984  14.795
58641W        W27114  42.852  38.531   9.969
58642W        W27115  15.779  15.232  14.430
58643W        W27116  32.064   7.395   2.267
58644W        W27117  18.746   8.183  13.358
58645W        W27118   9.185  23.015  11.581
58646W        W27119  37.042   8.321  12.505
58647W        W27120  13.665  29.063  10.607
58648W        W27121   4.853  30.585  10.439
58649W        W27122   5.251   6.678   4.635
58650W        W27123  17.743  35.868  12.922
58651W        W27124  21.206  17.609  12.977
58652W        W27125  23.092  43.303  10.604
58653W        W27126  18.678   3.929   3.175
58654W        W27127  14.680  38.494   0.760
58655W        W27128  12.323  15.111  14.511
58656W        W27129  32.141   5.436   3.361
58657W        W27130   3.364  31.919  11.548
58658W        W27131  28.553  18.592   2.198
58659W        W27132  40.321  39.888  14.478
58660W        W27133  22.126  25.963   3.358
58661W        W27134  44.890  26.972  11.085
58662W        W27135  35.584  43.912   4.748
58663W        W27136  43.908  17.079   2.190
58664W        W27137  12.249  17.211  13.342
58665W        W27138  35.973  17.265  10.573
58666W        W27139  30.062  20.557  14.865
58667W        W27140  17.276  35.515   4.117
58668W        W27141  25.128  41.993   0.402
58669W        W27142  20.216  26.508   0.968
58670W        W27143  18.727   1.343  13.393
58671W        W27144   0.486  24.674   2.254
58672W        W27145  41.381  29.156  11.018
58673W        W27146  21.109  13.659  12.463
58674W        W27147   6.263  18.559   3.683
58675W        W27148  44.475  44.851   1.282
58676W        W27149  40.519  12.652  14.473
58677W        W27150  13.107  36.394   1.292
58678W        W27151  29.516  31.912  13.436
58679W        W27152  42.886  22.212   1.741
58680W        W27153  27.623  18.676  10.997
58681W        W27154  20.716  25.605   5.165
58682W        W27155  35.591  42.907  14.834
58683W        W27156  24.022   4.784   2.293
58684W        W27157  21.186  22.227  14.807
58685W        W27158   3.373  33.446   0.380
58686W        W27159  16.133  16.216   0.729
58687W        W27160  28.640  25.981  12.857
58688W        W27161  16.178  37.979  12.565
58689W        W27162  23.188  31.921   0.472
58690W        W27163  20.569  23.226   3.780
58691W        W27164   9.782  13.706  14.419
58692W        W27165   7.256  25.469  13.537
58693W        W27166  21.646  21.199  13.420
58694W        W27167  26.092  37.524  12.054
58695W        W27168  29.062  25.976  14.440
58696W        W27169  40.313   0.481   2.662
58697W        W27170  28.601   0.749  13.023
58698W        W27171  26.703   8.809   2.826
58699W        W27172  40.454  25.053   5.122
58700W        W27173  33.542   0.259   2.317
58701W        W27174  42.299   0.339   3.700
58702W        W27175   7.761  12.199   3.188
58703W        W27176  20.677  19.545  12.009
58704W        W27177  24.629  19.195   4.598
58705W        W27178  14.646  33.561   3.639
58706W        W27179  13.795  10.667   3.684
58707W        W27180  39.373  39.946  11.001
58708W        W27181   4.887  18.050  11.044
58709W        W27182  39.032  39.996  14.886
58710W        W27183  44.982  42.398   4.760
58711W        W27184  29.628   3.256   5.114
58712W        W27185  40.822   6.863   0.964
58713W        W27186  19.723  30.946   2.400
58714W        W27187  33.877  31.568  12.987
58715W        W27188  39.523  23.027  11.521
58716W        W27189   3.752  11.693  13.405
58717W        W27190  10.761  43.330  11.548
58718W        W27191  27.499   0.441  10.613
58719W        W27192  13.122  44.959   2.347
58720W        W27193  20.215  29.570   3.677
58721W        W27194  32.070  44.926   1.827
58722W        W27195  38.031  37.854   1.316
58723W        W27196   0.884  24.074  11.920
58724W        W27197  38.474  37.982  14.425
58725W        W27198   3.745  31.943   1.804
58726W        W27199  12.703  38.976  13.361
58727W        W27200   9.280  30.988   4.663
58728W        W27201   9.839  37.846   1.786
58729W        W27202  29.960  35.004  14.939
58730W        W27203  41.822  12.196  11.996
58731W        W27204  15.278  21.637  10.421
58732W        W27205  29.645  25.965   0.269
58733W        W27206  26.588  39.372  13.800
58734W        W27207  19.600   7.751  12.478
58735W        W27208   0.785  15.677  13.038
58736W        W27209  35.490  36.575   4.791
58737W        W27210  43.925  40.970   3.648
58738W        W27211  18.221  26.036   2.843
58739W        W27212  11.139  27.474  10.989
58740W        W27213  43.962  10.206  14.467
58741W        W27214  10.678   4.206   0.446
58742W        W27215  36.367  39.852   3.167
58743W        W27216  18.629  12.340  10.436
58744W        W27217   9.702  21.693   1.426
58745W        W27218   2.327  24.130   0.287
58746W        W27219  15.670   9.881   1.797
58747W        W27220   0.346   8.306  12.548
58748W        W27221  42.462  31.949   1.836
58749W        W27222  20.686  40.465  14.447
58750W        W27223  39.971  23.693  14.324
58751W        W27224  10.198  21.179   3.222
58752W        W27225  23.685  22.711   0.803
58753W        W27226  32.970  16.787  10.895
58754W        W27227  29.524  42.828  14.437
58755W        W27228  22.550  40.855  12.455
58756W        W27229  37.843  26.563   4.727
58757W        W27230  24.671   7.706  11.015
58758W        W27231   1.259  31.122   1.414
58759W        W27232   9.645  36.505  14.435
58760W        W27233  29.494  39.048   1.785
58761W        W27234  29.581  24.672   1.235
58762W        W27235  39.359  35.447   0.870
58763W        W27236  26.153  23.736   3.820
58764W        W27237  15.761  13.821  10.625
58765W        W27238  14.617   7.824   1.760
58766W        W27239  27.986  41.339   1.897
58767W        W27240  22.523  20.164   3.748
58768W        W27241  31.647  23.070  14.010
58769W        W27242  30.102  21.198  11.972
58770W        W27243  44.964   5.913   4.130
58771W        W27244  35.600  40.012  10.940
58772W        W27245  39.317   0.802   4.703
58773W        W27246  25.653  22.095   0.784
58774W        W27247  28.112  44.280   3.244
58775W        W27248  20.715  11.327   4.790
58776W        W27249  31.642  20.075   2.298
58777W        W27250  29.971  18.628   2.899
58778W        W27251   3.460  33.515  13.323
58779W        W27252  20.116   8.770  10.459
58780W        W27253  26.526  42.815  10.033
58781W        W27254   7.266   2.836   4.698
58782W        W27255  25.565   3.393  12.083
58783W        W27256  24.048  25.593   2.372
58784W        W27257  40.432   3.916  10.626
58785W        W27258  12.166  42.779   1.274
58786W        W27259  29.152  39.405  13.525
58787W        W27260  43.019  28.593   0.260
58788W        W27261  28.616   7.385   1.243
58789W        W27262  31.088  11.679   1.896
58790W        W27263  42.783   2.956  14.428
58791W        W27264  29.964  32.462   0.482
58792W        W27265   7.726  25.157   0.960
58793W        W27266  36.886   7.787   1.811
58794W        W27267  10.633  10.260   1.822
58795W        W27268   8.765  34.008   5.081
58796W        W27269  21.517  19.663  10.567
58797W        W27270  26.525  10.637  13.310
58798W        W27271  19.741  14.738  12.533
58799W        W27272   9.789  28.101   0.841
58800W        W27273  22.666  20.256   0.293
58801W        W27274   0.875  29.100   4.312
58802W        W27275  37.891  18.712  12.341
58803W        W27276   1.388  40.490  13.472
58804W        W27277  18.673  24.501  14.887
58805W        W27278   8.371   5.309  11.372
58806W        W27279  16.187  16.232  14.910
58807W        W27280   1.864   0.475  11.976
58808W        W27281  33.447  29.538  10.953
58809W        W27282  33.073  16.135   3.847
58810W        W27283  41.799  41.887   5.255
58811W        W27284   9.822  31.945  10.551
58812W        W27285  44.791   8.259  13.040
58813W        W27286  41.345  27.992  12.921
58814W        W27287  25.170  26.089  11.567
58815W        W27288  23.213  27.487   4.799
58816W        W27289  32.010  43.369  12.565
58817W        W27290  28.479  23.089   1.737
58818W        W27291  30.963   8.255   3.243
58819W        W27292  41.886  18.233   9.925
58820W        W27293  19.727  35.440  13.863
58821W        W27294   5.701  15.611  10.920
58822W        W27295  32.137   9.370  10.487
58823W        W27296  33.523   2.271  11.468
58824W        W27297   0.945   9.226  13.411
58825W        W27298  18.615  44.434   4.240
58826W        W27299  28.954  20.620  14.016
58827W        W27300  14.781   3.316   2.367
58828W        W27301   1.783  26.012  10.566
58829W        W27302  17.738   8.832   3.200
58830W        W27303  38.048   3.885   2.812
58831W        W27304   2.251  35.519  12.455
58832W        W27305  17.609  43.868  14.924
58833W        W27306  39.924   7.189  14.969
58834W        W27307  12.342  15.789   3.746
58835W        W27308  32.579  30.636   1.280
58836W        W27309  39.892  28.121   0.823
58837W        W27310  34.071  40.387  10.601
58838W        W27311  18.755  14.205  12.550
58839W        W27312  12.646  27.589  14.303
58840W        W27313  37.543   6.380  14.988
58841W        W27314   4.241  36.069   2.262
58842W        W27315   7.686  12.763  12.015
58843W        W27316   5.423  21.244   3.632
58844W        W27317  22.545  10.730  14.762
58845W        W27318  36.900  28.497   3.287
58846W        W27319  19.578   7.381   0.955
58847W        W27320  13.149  31.524   1.442
58848W        W27321  25.607  11.161  12.532
58849W        W27322  11.722  31.095  11.494
58850W        W27323  38.828   3.868   1.830
58851W        W27324  15.136  18.068   4.741
58852W        W27325  17.779  36.436   3.380
58853W        W27326  32.088  10.877   3.377
58854W        W27327   8.813   3.908  11.975
58855W        W27328  23.013  40.019  14.841
58856W        W27329   8.736   2.350  11.586
58857W        W27330   5.400  29.078  13.040
58858W        W27331  22.691  11.248  11.513
58859W        W27332  32.473  26.951   0.338
58860W        W27333  21.590  44.807  10.959
58861W        W27334  24.118  28.101  13.462
58862W        W27335  38.872  23.729   4.335
58863W        W27336  39.333  38.936  14.813
58864W        W27337  32.005   0.923  11.568
58865W        W27338  35.986   5.822  12.514
58866W        W27339   4.263  29.998  13.513
58867W        W27340  19.210  29.590  12.979
58868W        W27341  19.091  31.989  12.453
58869W        W27342  28.586  25.171  10.918
58870W        W27343  20.134   5.843   0.917
58871W        W27344  15.732   4.337   2.772
58872W        W27345  42.871  26.687  12.979
58873W        W27346  22.567  39.447   1.877
58874W        W27347  29.474  42.000  11.389
58875W        W27348  36.951  23.602  12.412
58876W        W27349  35.872  36.483   1.753
58877W        W27350  42.425  22.676  13.348
58878W        W27351  36.900  39.899   0.819
58879W        W27352  32.631  32.546   2.831
58880W        W27353  13.177  43.357  14.976
58881W        W27354  13.270  22.100  13.363
58882W        W27355   4.296  28.971  14.447
58883W        W27356  13.761   9.322   3.213
58884W        W27357  28.006  23.090   3.729
58885W        W27358   2.721  11.164  14.493
58886W        W27359  20.753  19.679  10.493
58887W        W27360  29.476  27.176  13.449
58888W        W27361   1.909  10.644  13.875
58889W        W27362  31.411   8.277   2.310
58890W        W27363   5.334  43.868  14.810
58891W        W27364   6.246   3.260   3.838
58892W        W27365  26.560   4.258  12.090
58893W        W27366   7.872   7.905   3.152
58894W        W27367  40.452  36.474  12.094
58895W        W27368   1.368  40.460  11.529
58896W        W27369   1.965   1.237   3.724
58897W        W27370   7.831   4.763  11.939
58898W        W27371  13.733  35.568   3.338
58899W        W27372  26.063  28.557   2.202
58900W        W27373  28.136  14.180   1.891
58901W        W27374  25.476   4.303  11.608
58902W        W27375  23.526  22.741  10.987
58903W        W27376  27.554  41.901  13.980
58904W        W27377  32.096  24.169   3.347
58905W        W27378  29.504   3.711  11.973
58906W        W27379  16.659  16.080  14.893
58907W        W27380  29.638  20.242   2.317
58908W        W27381  37.505  31.012   5.191
58909W        W27382  38.892  23.122   0.300
58910W        W27383  37.980  35.033  13.025
58911W        W27384  17.652   7.233   0.273
58912W        W27385  26.581   4.726  14.374
58913W        W27386   7.190  16.112   4.712
58914W        W27387  15.645  37.905   3.292
58915W        W27388  38.033  44.908  14.480
58916W        W27389  16.615  19.616  12.936
58917W        W27390  29.622  13.328  14.504
58918W        W27391   5.914  12.198   0.441
58919W        W27392  12.657  43.803  12.369
58920W        W27393   3.383   9.241   4.146
58921W        W27394  20.089  26.579   0.425
58922W        W27395  13.807  40.935   3.337
58923W        W27396  12.336  29.637   4.135
58924W        W27397  12.160  33.623   0.380
58925W        W27398  13.778   7.304  13.379
58926W        W27399  37.455   6.331   2.742
58927W        W27400  22.076  11.260  13.012
58928W        W27401   7.859  35.919   1.794
58929W        W27402  29.132  11.200  13.981
58930W        W27403  27.593   9.260   3.645
58931W        W27404  22.234  13.316  11.083
58932W        W27405  16.664   0.887  13.388
58933W        W27406  25.979  11.306  13.424
58934W        W27407  32.582  31.592   4.751
58935W        W27408   2.812   4.938   0.356
58936W        W27409  37.887  16.569  10.470
58937W        W27410  26.475  29.958  12.570
58938W        W27411  31.599  36.075   4.295
58939W        W27412  21.582  13.200  11.077
58940W        W27413   6.264   2.914   3.286
58941W        W27414   9.364  39.404   2.752
58942W        W27415  29.556  12.690   0.824
58943W        W27416  36.047   0.928  13.347
58944W        W27417   8.817  21.161  11.599
58945W        W27418  38.505  31.999   1.324
58946W        W27419  29.012   8.359   2.402
58947W        W27420   4.204  37.439   2.900
58948W        W27421  10.718  18.112  14.954
58949W        W27422  43.011   1.823   4.623
58950W        W27423  31.551  41.299   2.274
58951W        W27424  29.105  27.109  10.457
58952W        W27425   8.303  40.547  12.508
58953W        W27426  35.967  26.489   4.710
58954W        W27427   5.270  13.144   1.434
58955W        W27428  24.683  36.365  14.020
58956W        W27429   5.340  41.467   2.883
58957W        W27430  17.085  42.031   3.853
58958W        W27431  41.931  41.526   2.835
58959W        W27432   2.815   1.870   4.746
58960W        W27433  32.110  40.898  11.860
58961W        W27434  38.823   1.942   2.205
58962W        W27435   1.399   8.839   2.223
58963W        W27436  22.526  41.885  13.546
58964W        W27437  30.108   4.824  11.985
58965W        W27438  42.943  10.726   4.218
58966W        W27439  13.642  36.853   3.728
58967W        W27440   7.372  23.048  14.013
58968W        W27441  14.303  11.719  12.429
58969W        W27442  42.406  17.162   0.384
58970W        W27443  43.418  13.138   3.322
58971W        W27444   7.323   7.797  13.002
58972W        W27445   2.400   1.472   1.891
58973W        W27446  40.036  13.711   4.737
58974W        W27447  22.589  42.865  12.859
58975W        W27448  33.959  39.998   1.312
58976W        W27449  22.611   6.333   4.156
58977W        W27450  26.995  32.002   3.783
58978W        W27451  44.979  36.395   0.967
58979W        W27452  38.565   8.729  13.308
58980W        W27453   9.803  12.696   2.218
58981W        W27454  35.475   7.313   0.901
58982W        W27455  21.598   1.751  12.437
58983W        W27456  40.404  32.427  13.921
58984W        W27457   3.890  18.554   0.364
58985W        W27458  25.589  22.229  14.399
58986W        W27459  18.247  11.745   1.707
58987W        W27460  29.000   3.925   2.878
58988W        W27461  23.110  19.764  13.507
58989W        W27462  17.260  32.511   1.901
58990W        W27463  19.135  42.454  11.559
58991W        W27464  18.689  42.824  12.456
58992W        W27465  40.383  30.117   4.647
58993W        W27466  16.301  16.649  14.016
58994W        W27467  42.845  38.960   0.735
58995W        W27468  37.924  18.081   2.400
58996W        W27469   7.195  19.706   3.772
58997W        W27470  26.097  10.318   2.842
58998W        W27471  33.081  31.021  14.410
58999W        W27472  21.074  38.496  11.593
59000W        W27473  23.678  25.140  14.021
59001W        W27474  25.638  19.658   3.193
59002W        W27475   5.845  19.766  11.118
59003W        W27476   6.231  29.090   1.431
59004W        W27477  15.272   6.717  12.340
59005W        W27478  19.052  28.532   1.335
59006W        W27479  38.410  32.531   4.664
59007W        W27480   0.830  17.778   2.248
59008W        W27481  17.222  42.998   0.400
59009W        W27482  15.630  14.753   3.292
59010W        W27483  38.028  11.138   2.336
59011W        W27484  30.158  43.940   3.764
59012W        W27485  36.065  27.155  13.307
59013W        W27486  25.218  22.589  11.586
59014W        W27487  15.181  13.318   1.268
59015W        W27488  36.957  21.231   4.697
59016W        W27489  35.917   6.853   1.315
59017W        W27490  41.501  42.957   0.771
59018W        W27491   1.731  33.625   4.134
59019W        W27492  30.489  42.887   1.420
59020W        W27493   2.855  20.134   4.289
59021W        W27494  43.486  22.737  11.376
59022W        W27495  33.950  19.769  13.018
59023W        W27496  20.721  32.427   1.915
59024W        W27497  44.273  32.615   4.806
59025W        W27498   5.224  28.053  14.502
59026W        W27499   6.311  28.000   5.322
59027W        W27500  12.118  25.126   0.816
59028W        W27501  26.008   5.717   3.809
59029W        W27502  27.048  36.008   1.368
59030W        W27503  23.227  26.482  12.842
59031W        W27504  12.361   7.180   1.428
59032W        W27505  22.508   2.956  11.955
59033W        W27506  16.200   2.829   4.668
59034W        W27507   9.647  25.549   9.987
59035W        W27508  11.730  32.000   4.226
59036W        W27509  21.062  26.599   3.214
59037W        W27510  26.621  30.959   2.403
59038W        W27511  21.236  41.005   1.752
59039W        W27512  33.924  12.247   2.281
59040W        W27513  21.652  27.644   2.307
59041W        W27514  25.550  32.619  12.905
59042W        W27515  39.396  26.517   0.764
59043W        W27516  36.093  28.596   4.178
59044W        W27517  14.721  17.179   4.750
59045W        W27518  12.656   8.709  11.089
59046W        W27519  21.217  22.020  11.497
59047W        W27520  23.196  44.475  10.995
59048W        W27521  32.893  21.540   0.752
59049W        W27522  17.271  36.544   1.363
59050W        W27523  34.040  13.344   4.834
59051W        W27524  13.835  43.947   3.725
59052W        W27525   4.801   0.802   2.364
59053W        W27526  33.904  14.193  14.965
59054W        W27527  19.686   2.898   0.399
59055W        W27528  17.276  40.421  13.820
59056W        W27529   8.283  24.019  12.462
59057W        W27530   0.323  30.938   1.224
59058W        W27531  11.316  41.861  13.899
59059W        W27532  21.045  37.862   4.252
59060W        W27533  15.726  37.448   0.446
59061W        W27534  44.398  20.042  12.478
59062W        W27535  15.637   9.266   2.711
59063W        W27536  11.819  10.773   0.328
59064W        W27537  20.675  37.497  14.868
59065W        W27538  40.481   8.810  12.350
59066W        W27539  12.730  44.818  13.400
59067W        W27540  21.212  30.578  12.842
59068W        W27541  40.401  13.256  14.016
59069W        W27542  21.243  31.449  14.855
59070W        W27543   5.248   7.692  13.312
59071W        W27544  13.840  31.445  11.862
59072W        W27545  31.949  17.100   5.112
59073W        W27546   9.868  26.661  13.994
59074W        W27547   3.743  42.873  11.564
59075W        W27548   3.873  34.995   1.428
59076W        W27549  24.199  17.731  13.808
59077W        W27550  17.798  31.986  10.530
59078W        W27551  18.142  10.147  13.802
59079W        W27552  20.574   1.411   0.858
59080W        W27553  18.272  37.036  11.060
59081W        W27554  15.251  25.071   4.710
59082W        W27555  24.106  33.452  12.915
59083W        W27556  27.517  22.052  14.500
59084W        W27557  11.289  34.524   2.300
59085W        W27558  33.940  12.625   0.771
59086W        W27559  13.159  26.989  11.509
59087W        W27560   3.431  14.764   0.449
59088W        W27561  20.119   9.295  10.963
59089W        W27562   0.745   3.716  11.024
59090W        W27563  24.195  21.039  13.889
59091W        W27564  29.433   4.808   4.229
59092W        W27565  36.066   7.260   4.755
59093W        W27566   8.310  44.352  13.350
59094W        W27567   2.878  24.610  10.907
59095W        W27568  28.483  38.534   0.470
59096W        W27569   3.364  37.030   4.224
59097W        W27570  38.500  23.671  12.383
59098W        W27571   1.839  21.216   0.388
59099W        W27572  44.946  35.965   3.795
59100W        W27573   8.185  26.204  11.429
59101W        W27574   6.346   3.215  13.827
59102W        W27575  22.596   8.302   4.155
59103W        W27576  37.015  27.563   3.284
59104W        W27577  13.758  36.879   3.208
59105W        W27578  13.134   1.817  12.349
59106W        W27579  15.630  43.344   2.245
59107W        W27580   6.401  18.192  11.589
59108W        W27581  28.473  10.168  11.482
59109W        W27582  12.826  25.479   2.761
59110W        W27583  26.527  44.868   1.905
59111W        W27584  36.466  31.006  13.505
59112W        W27585  42.525  10.242   4.617
59113W        W27586  22.590   0.910   0.819
59114W        W27587   1.927  14.606  13.841
59115W        W27588  25.563   7.872   1.844
59116W        W27589  14.710  12.830  14.279
59117W        W27590  31.421  31.039  14.785
59118W        W27591   2.283  21.536  13.367
59119W        W27592  43.897   2.816  13.874
59120W        W27593  10.846  11.241   3.374
59121W        W27594  36.577  34.086  13.030
59122W        W27595  20.729  38.537  13.802
59123W        W27596  13.777  42.779  11.981
59124W        W27597  17.306  29.002   4.136
59125W        W27598   3.940  40.976   4.775
59126W        W27599  12.814  28.952  10.914
59127W        W27600  33.399  27.044  12.040
59128W        W27601  13.256  21.596   3.719
59129W        W27602   1.395  17.577   4.334
59130W        W27603   0.311  41.902  13.053
59131W        W27604  39.499   6.280  13.333
59132W        W27605   6.883  31.405  10.595
59133W        W27606  11.769  33.950   0.773
59134W        W27607  40.359  13.295   2.703
59135W        W27608  10.178  40.340  11.046
59136W        W27609  13.712  25.097  11.000
59137W        W27610  34.490  23.155  10.595
59138W        W27611  37.521  23.576  11.067
59139W        W27612  31.964  11.234   1.278
59140W        W27613  36.029  22.520   0.900
59141W        W27614  32.135   6.428  11.865
59142W        W27615  35.083  39.526   0.281
59143W        W27616  27.607   7.196   3.727
59144W        W27617   7.690  25.480  14.351
59145W        W27618   5.310  18.142  11.111
59146W        W27619   4.380  18.277  12.437
59147W        W27620  11.338  35.860   3.680
59148W        W27621  15.648  11.197   1.316
59149W        W27622   4.723  22.181  14.306
59150W        W27623  34.467  41.822  10.995
59151W        W27624   2.820  21.076  10.954
59152W        W27625  26.187  37.939   0.416
59153W        W27626  31.574   3.857  11.906
59154W        W27627  29.485  22.018   4.718
59155W        W27628  17.279  35.537   0.316
59156W        W27629  15.196  35.433   1.232
59157W        W27630  27.170  35.480   1.924
59158W        W27631  25.104  44.277   3.798
59159W        W27632  35.047  19.209  13.857
59160W        W27633  35.039   5.308   1.370
59161W        W27634  22.614  22.702  14.425
59162W        W27635  27.163  40.534  12.983
59163W        W27636  25.607   6.794  10.627
59164W        W27637  24.567   7.409   4.196
59165W        W27638   7.269  14.734  10.499
59166W        W27639   7.772  42.354   1.694
59167W        W27640  29.168  41.329   2.188
59168W        W27641  12.645   0.481   0.472
59169W        W27642  11.852  13.340  12.829
59170W        W27643   8.375  22.197   2.184
59171W        W27644  29.551  43.887   1.834
59172W        W27645  22.193  21.149  12.949
59173W        W27646  30.149  41.914  14.866
59174W        W27647  31.935   3.751  13.975
59175W        W27648   8.883  41.312  12.379
59176W        W27649  39.895  15.136  13.343
59177W        W27650  43.830   2.769  13.394
59178W        W27651  21.231  12.696  11.910
59179W        W27652  40.809   2.463  11.974
59180W        W27653   5.268   7.356   2.758
59181W        W27654   7.223   3.734  12.878
59182W        W27655  44.293  15.632   2.784
59183W        W27656  34.571   5.385   0.806
59184W        W27657  15.199   7.905   2.865
59185W        W27658  21.183   4.385  12.412
59186W        W27659  13.647  41.996   1.249
59187W        W27660  13.734  41.941  11.383
59188W        W27661  23.669  11.360   4.794
59189W        W27662  31.098  21.038  13.397
59190W        W27663   6.335  30.057   3.700
59191W        W27664  16.798  32.552   2.668
59192W        W27665  35.943  14.242  13.970
59193W        W27666  18.776  41.499   1.810
59194W        W27667  23.579  25.564   1.878
59195W        W27668  25.529  42.361   3.145
59196W        W27669  30.578  20.139   2.333
59197W        W27670  36.864  28.621  12.031
59198W        W27671  23.684  24.043   3.728
59199W        W27672  29.509  15.633  12.431
59200W        W27673  43.296  14.122  14.000
59201W        W27674  12.188  43.497  10.614
59202W        W27675  20.759  42.501   4.794
59203W        W27676   0.285  41.432   0.768
59204W        W27677  25.670  15.226   4.774
59205W        W27678  37.530  41.502   3.854
59206W        W27679  16.777  20.569  10.464
59207W        W27680   5.774  22.165  10.407
59208W        W27681  44.274  39.819  10.930
59209W        W27682  44.270  30.110  14.484
59210W        W27683  21.145  39.902   2.867
59211W        W27684  44.285  31.023   3.261
59212W        W27685  35.471  26.625   3.667
59213W        W27686  27.673   7.329  11.105
59214W        W27687  12.283  35.455   4.286
59215W        W27688  10.260  30.430   3.831
59216W        W27689  11.665  28.626  14.340
59217W        W27690  11.784  44.349   5.313
59218W        W27691  38.034  33.965   3.305
59219W        W27692  44.783   1.290   1.304
59220W        W27693  32.484  25.124   3.377
59221W        W27694  32.946   3.417   2.902
59222W        W27695  39.371  43.847  14.001
59223W        W27696  15.294  29.037  11.431
59224W        W27697   0.763  40.490   2.733
59225W        W27698  24.576  25.676   2.379
59226W        W27699  11.145  15.662   3.743
59227W        W27700  20.682   2.455  13.975
59228W        W27701  33.046  31.143   1.216
59229W        W27702  36.994  40.799  10.452
59230W        W27703  23.201  15.660   2.831
59231W        W27704  33.469   1.902   1.912
59232W        W27705   8.332  33.551  12.911
59233W        W27706   0.354  33.529   0.754
59234W        W27707   5.820   0.463  11.874
59235W        W27708   8.382  33.483  12.073
59236W        W27709  18.133  10.645   4.822
59237W        W27710   0.870  36.928  14.994
59238W        W27711  24.713  25.528  14.311
59239W        W27712  33.548  42.967   1.761
59240W        W27713  21.040  40.460  10.495
59241W        W27714   9.239   9.205  12.396
59242W        W27715  44.878  35.048  12.935
59243W        W27716  32.398   0.988  13.853
59244W        W27717  36.861  25.529   4.113
59245W        W27718  16.248  35.062   2.408
59246W        W27719  39.017  19.723   4.196
59247W        W27720   2.798  37.450  11.608
59248W        W27721  28.027   0.852  14.392
59249W        W27722  20.622  12.615  13.018
59250W        W27723  33.516  18.269   4.776
59251W        W27724  27.483  20.216   0.316
59252W        W27725  15.140  28.634   0.883
59253W        W27726  32.933  44.989   3.340
59254W        W27727  40.320   0.255   4.743
59255W        W27728  26.509   1.300  10.153
59256W        W27729   3.817  12.820  10.429
59257W        W27730  28.980   3.314   3.644
59258W        W27731   5.747  11.360   2.293
59259W        W27732  19.559  22.229  11.599
59260W        W27733   7.705  18.263  11.939
59261W        W27734  10.739  44.486   4.161
59262W        W27735  36.024   9.885   3.281
59263W        W27736   0.809   6.910   0.960
59264W        W27737  30.574  32.409   1.759
59265W        W27738  19.263  17.651  13.006
59266W        W27739   0.948  30.934   3.242
59267W        W27740   4.216   2.891   4.688
59268W        W27741  15.099  38.337   2.806
59269W        W27742   6.300  13.685   4.312
59270W        W27743  37.966  10.302  13.979
59271W        W27744  41.828  14.708   3.262
59272W        W27745  40.802  36.850  13.374
59273W        W27746  26.147  29.022   3.235
59274W        W27747  32.048  24.559  12.549
59275W        W27748  14.114   2.886  12.058
59276W        W27749  14.139   6.750   0.436
59277W        W27750  31.596  29.608   1.386
59278W        W27751  14.722  24.566  10.907
59279W        W27752  16.161   4.942   2.192
59280W        W27753  18.184  23.607  12.447
59281W        W27754  40.541  10.782  13.061
59282W        W27755   4.787  27.472   3.318
59283W        W27756   5.737  17.169   0.961
59284W        W27757  22.059  39.348   3.631
59285W        W27758  27.174  37.401   3.242
59286W        W27759  10.858  29.660   1.229
59287W        W27760  24.157   2.964   0.296
59288W        W27761  20.084   1.454   2.674
59289W        W27762  39.972   7.873   4.199
59290W        W27763  13.680   8.809   4.799
59291W        W27764  10.196  16.633  10.925
59292W        W27765  26.471  38.977  10.496
59293W        W27766  36.881  21.186  10.628
59294W        W27767  34.038  29.459   4.758
59295W        W27768  18.268  12.612  14.945
59296W        W27769  31.009  26.009  13.039
59297W        W27770  36.532  34.571   3.862
59298W        W27771   4.896   9.738  10.917
59299W        W27772  19.710  24.583  12.532
59300W        W27773  33.078  42.851  12.362
59301W        W27774   3.836  14.216   5.161
59302W        W27775  38.350  17.563  10.462
59303W        W27776  28.557  18.545  11.945
59304W        W27777   3.408  11.806  14.854
59305W        W27778  42.892  25.659   1.303
59306W        W27779  26.076   8.300   4.716
59307W        W27780  24.553  30.634  13.984
59308W        W27781  42.977  11.780   0.808
59309W        W27782   9.370  30.590  13.349
59310W        W27783  20.240  40.419   0.299
59311W        W27784  25.595  42.297   4.236
59312W        W27785  22.096  16.196   3.280
59313W        W27786  18.086  10.273   0.432
59314W        W27787  40.960  38.060  14.832
59315W        W27788  11.713  36.415   4.199
59316W        W27789   4.345  27.974  12.999
59317W        W27790  10.249  36.478  12.403
59318W        W27791  14.119  30.142  13.494
59319W        W27792   4.274  18.266   4.620
59320W        W27793  31.104  39.025  14.515
59321W        W27794  34.480  13.678   4.664
59322W        W27795   9.395  26.090   3.233
59323W        W27796  12.687  36.888  10.434
59324W        W27797  12.802  32.583  12.549
59325W        W27798  30.019  39.896  11.538
59326W        W27799  11.297  37.539   4.693
59327W        W27800  26.952  43.976   4.347
59328W        W27801  42.290  10.662   3.380
59329W        W27802  29.116  23.551  10.590
59330W        W27803  15.109  21.621   4.141
59331W        W27804  36.542   7.190   4.215
59332W        W27805  41.013  18.709  10.560
59333W        W27806  10.632  35.106   1.761
59334W        W27807   9.188  18.580   4.325
59335W        W27808  28.041   3.892   0.445
59336W        W27809  44.833  37.917  14.780
59337W        W27810  28.545  18.769  14.446
59338W        W27811   9.247  20.061  14.342
59339W        W27812  34.945  13.154   4.814
59340W        W27813  37.418  11.149  12.448
59341W        W27814   1.878  28.009   1.797
59342W        W27815  39.408  42.286   2.361
59343W        W27816   8.321  42.510  12.081
59344W        W27817   4.429  24.079  12.023
59345W        W27818   5.367  22.563  10.944
59346W        W27819  25.101  41.524   1.250
59347W        W27820  37.438  21.037  11.052
59348W        W27821  23.061  12.342   4.607
59349W        W27822   3.908  28.133  12.837
59350W        W27823  38.895  12.268  12.883
59351W        W27824  16.085  41.525  12.956
59352W        W27825  30.990  10.868   3.326
59353W        W27826  16.104  17.254  13.824
59354W        W27827   0.983  36.355   0.822
59355W        W27828  27.040  30.935   4.201
59356W        W27829  44.404  19.626  14.491
59357W        W27830  10.721  25.535   0.431
59358W        W27831  35.978  41.461  11.455
59359W        W27832  18.105  33.483  12.973
59360W        W27833  23.145  20.719  13.529
59361W        W27834  43.402  20.191  13.930
59362W        W27835   9.304  34.554   4.663
59363W        W27836  22.588   5.809  13.384
59364W        W27837  42.376   1.866  10.985
59365W        W27838  29.958  33.983  14.800
59366W        W27839  11.800  41.921   2.707
59367W        W27840  10.807  43.440   2.352
59368W        W27841  33.529  18.129   0.389
59369W        W27842   3.846  20.094  10.913
59370W        W27843  40.370  20.134  13.388
59371W        W27844  32.391  29.443   3.661
59372W        W27845  42.867  39.026   4.315
59373W        W27846  24.614  34.404  12.537
59374W        W27847   9.675  37.944   1.378
59375W        W27848   6.917   3.226   3.264
59376W        W27849   5.208   2.792   2.244
59377W        W27850   6.713   7.199  12.526
59378W        W27851  22.209   4.394  10.571
59379W        W27852  25.097  39.414  12.854
59380W        W27853  36.085  30.600   2.240
59381W        W27854  27.667   2.252  12.827
59382W        W27855  39.838  22.568  12.846
59383W        W27856  33.075   3.326  11.051
59384W        W27857  16.607  28.159  14.389
59385W        W27858  38.448  12.775  14.515
59386W        W27859  15.211  30.498  12.023
59387W        W27860  19.625  43.814   1.860
59388W        W27861  17.599  10.301  13.064
59389W        W27862  13.244   5.865  13.376
59390W        W27863   2.869  38.992   3.222
59391W        W27864  22.189  39.520   1.827
59392W        W27865  22.182  19.056   4.289
59393W        W27866  27.075  36.027  12.859
59394W        W27867   3.793  22.097   1.727
59395W        W27868   1.753  26.530   4.309
59396W        W27869  40.387   0.833   1.274
59397W        W27870  32.128  25.105  12.041
59398W        W27871   4.235  14.206   0.361
59399W        W27872   3.929  33.027  13.518
59400W        W27873  33.386  21.152   9.924
59401W        W27874  41.826   6.917   1.820
59402W        W27875  11.720  13.682  11.588
59403W        W27876  44.452  37.470   2.818
59404W        W27877  26.605  16.275  12.937
59405W        W27878  26.673  44.444   3.222
59406W        W27879   6.320  28.492  14.780
59407W        W27880  18.666  35.369  13.961
59408W        W27881  14.269   7.734  12.357
59409W        W27882   1.468  24.503  13.871
59410W        W27883  40.834  10.772   2.212
59411W        W27884  15.192  22.666  13.492
59412W        W27885  26.965   0.972  14.473
59413W        W27886  10.708  15.269  11.466
59414W        W27887  29.622  37.026   3.265
59415W        W27888  27.552  31.508  11.948
59416W        W27889  19.649  22.687  14.816
59417W        W27890  13.622  27.017  14.817
59418W        W27891  16.715  35.023   2.662
59419W        W27892  18.135  25.980  11.924
59420W        W27893  42.418  30.039  11.379
59421W        W27894   2.955  37.566  10.512
59422W        W27895  22.114  26.633   4.645
59423W        W27896  35.947  31.647  12.029
59424W        W27897  12.121  19.129   3.271
59425W        W27898  36.508  26.109  12.538
59426W        W27899  10.320  28.165   3.629
59427W        W27900  39.827  42.855  11.123
59428W        W27901  15.600  27.040  12.090
59429W        W27902   6.289  16.303   1.730
59430W        W27903  37.832   4.374  14.946
59431W        W27904   8.382  42.030   0.930
59432W        W27905  18.249   1.789   2.394
59433W        W27906  24.668  30.013  12.352
59434W        W27907  25.658   0.318  10.516
59435W        W27908  35.938  18.778   2.333
59436W        W27909  10.813  19.168   4.292
59437W        W27910   3.401  41.415   4.833
59438W        W27911   6.704  42.404   1.780
59439W        W27912   2.824   2.947   3.664
59440W        W27913  22.692  23.727   1.809
59441W        W27914  36.044  44.859  10.628
59442W        W27915   2.770  23.550   0.767
59443W        W27916  36.397  32.593  11.092
59444W        W27917   6.714  42.493   1.350
59445W        W27918   1.968  29.033  13.510
59446W        W27919   8.795  32.885  14.783
59447W        W27920  41.464  30.069  13.541
59448W        W27921  16.772   7.225  13.979
59449W        W27922  29.978  31.476  11.554
59450W        W27923   7.834  19.600  12.372
59451W        W27924  14.672  35.414  11.987
59452W        W27925  35.492  36.586  14.785
59453W        W27926  13.790  28.080   0.350
59454W        W27927  11.373  25.539   5.245
59455W        W27928   4.762  17.190  11.065
59456W        W27929   5.299   2.405  14.847
59457W        W27930   6.372  18.677  12.492
59458W        W27931  27.679   7.191  13.934
59459W        W27932  37.835  42.386  13.885
59460W        W27933  32.086  25.201  13.383
59461W        W27934  17.767  39.393   2.723
59462W        W27935  13.779   7.834   3.275
59463W        W27936  25.684  19.691  12.990
59464W        W27937  21.633  23.187  10.915
59465W        W27938  25.706  12.314   1.871
59466W        W27939  25.503   8.383   3.788
59467W        W27940  30.626   5.271   1.280
59468W        W27941  34.477  12.623   2.836
59469W        W27942  29.618  27.574   1.339
59470W        W27943   9.276   9.773  12.086
59471W        W27944  13.738   3.773  13.362
59472W        W27945  12.139  42.525   4.283
59473W        W27946  41.530  17.235  11.399
59474W        W27947  40.503  23.696   4.353
59475W        W27948  13.730  35.061  12.543
59476W        W27949   8.792  27.571   0.938
59477W        W27950  44.425  37.371   4.192
59478W        W27951  44.930  25.032  11.990
59479W        W27952  37.969  31.513  13.984
59480W        W27953  40.938   2.274   4.298
59481W        W27954  27.968  38.877   3.372
59482W        W27955  11.204  38.520  12.409
59483W        W27956  38.517  21.598   3.710
59484W        W27957  33.388  34.410   0.453
59485W        W27958  37.528  27.454   4.791
59486W        W27959  12.653  15.730  10.441
59487W        W27960  21.663  20.654  10.985
59488W        W27961  20.551  44.357   0.328
59489W        W27962   0.278  35.505   1.414
59490W        W27963  13.221  26.605  14.285
59491W        W27964  38.027   6.222   4.600
59492W        W27965  26.627  31.549   4.157
59493W        W27966  36.000  36.515   4.780
59494W        W27967  11.251  40.001   0.342
59495W        W27968  33.413  17.085  14.804
59496W        W27969  24.663  21.214  13.368
59497W        W27970  36.043  12.758  10.456
59498W        W27971  18.787  22.647   2.872
59499W        W27972   1.756  28.044  12.913
59500W        W27973  28.467  20.708  10.437
59501W        W27974  41.325  24.691   3.836
59502W        W27975  30.085  31.928  10.578
59503W        W27976  25.643  11.741  12.917
59504W        W27977  31.605  10.651   2.850
59505W        W27978  21.035  33.943  11.422
59506W        W27979  27.994   8.710   2.335
59507W        W27980  42.843  10.214  11.085
59508W        W27981  35.584   4.346  11.469
59509W        W27982  25.473   8.670  14.388
59510W        W27983  11.815  42.345  14.468
59511W        W27984  44.492  27.537   2.794
59512W        W27985  38.423   3.922   2.687
59513W        W27986  15.171  40.898  10.550
59514W        W27987   6.781  30.010  13.803
59515W        W27988  40.037  28.604  12.484
59516W        W27989   9.885   4.908   4.183
59517W        W27990  29.002  40.354   3.201
59518W        W27991   6.704  38.926   1.297
59519W        W27992  14.686  44.874  13.932
59520W        W27993  23.670  16.673  13.547
59521W        W27994  23.230  31.923  14.495
59522W        W27995  12.214   4.239   4.702
59523W        W27996  14.670  41.926   4.600
59524W        W27997  19.585  28.152  11.467
59525W        W27998  27.189  15.088  10.475
59526W        W27999   6.921  16.084   5.182
59527W        W28000  31.565  42.392  10.086
59528W        W28001  14.146  27.583  12.514
59529W        W28002  42.311  16.131  13.492
59530W        W28003  37.014  23.030   0.909
59531W        W28004   4.292   5.248   4.720
59532W        W28005  37.054   9.741  14.786
59533W        W28006  16.073  37.831  14.445
59534W        W28007  11.196  25.067   5.200
59535W        W28008  37.489  12.303  12.434
59536W        W28009  35.988  34.040   1.354
59537W        W28010  40.498  42.818   0.770
59538W        W28011  21.032  19.189   2.228
59539W        W28012  13.267  15.626  13.503
59540W        W28013   5.216   3.865   1.836
59541W        W28014   4.857  11.809  14.479
59542W        W28015  11.368  14.199  11.943
59543W        W28016   5.348  36.843   2.862
59544W        W28017  32.932  17.096   0.300
59545W        W28018  24.093  23.491  11.904
59546W        W28019  26.525   9.781   3.780
59547W        W28020   7.381  40.429  11.058
59548W        W28021   3.746  42.953  11.021
59549W        W28022   3.371  29.021  12.347
59550W        W28023   1.940  40.435  11.010
59551W        W28024  33.103  24.071   3.352
59552W        W28025  43.388  11.166   3.823
59553W        W28026  20.616  27.968  13.980
59554W        W28027  25.653  21.214   2.736
59555W        W28028   8.212   2.407  12.057
59556W        W28029  31.543  28.656  11.991
59557W        W28030  35.920  37.556   0.451
59558W        W28031  32.093  18.781   5.107
59559W        W28032  33.024   5.349   0.245
59560W        W28033  39.498  18.709  13.910
59561W        W28034  24.002  19.102  12.491
59562W        W28035  28.551  11.846  13.048
59563W        W28036  23.727   4.726   1.230
59564W        W28037  14.203  43.953   1.331
59565W        W28038  43.903  31.955   0.463
59566W        W28039  12.238  34.022   4.765
59567W        W28040  44.353  18.549  11.888
59568W        W28041  34.109  23.132  11.548
59569W        W28042  13.215  17.139   2.754
59570W        W28043  26.618  30.548  10.564
59571W        W28044  39.468  27.648  13.842
59572W        W28045  39.845  35.915  13.391
59573W        W28046  37.457  12.186  10.554
59574W        W28047  35.002  41.372   1.769
59575W        W28048  24.221   6.833  11.419
59576W        W28049  29.115  24.096  12.580
59577W        W28050   1.458  34.438   0.910
59578W        W28051  34.386  25.692   1.248
59579W        W28052  30.945  22.575   4.319
59580W        W28053   0.378  33.961   3.369
59581W        W28054  18.063  43.890  10.928
59582W        W28055  27.559  18.133  11.584
59583W        W28056  36.872  42.987   1.343
59584W        W28057  28.513  21.127  12.859
59585W        W28058  19.765  32.526  10.511
59586W        W28059  21.049   1.933  12.898
59587W        W28060  36.425  10.202   1.418
59588W        W28061  42.852  17.146   4.237
59589W        W28062  39.956  20.128   4.753
59590W        W28063   3.281   1.899   0.380
59591W        W28064   2.905  19.687  13.012
59592W        W28065  34.932  15.247  11.556
59593W        W28066  42.939  35.003   4.159
59594W        W28067  39.391  17.260   0.427
59595W        W28068  39.531  12.144  12.036
59596W        W28069  28.061  15.128  11.439
59597W        W28070  29.563   0.323  11.966
59598W        W28071  37.087  36.414   3.661
59599W        W28072  19.124  30.561   1.256
59600W        W28073  42.384  15.146   3.814
59601W        W28074  38.898   2.887  12.377
59602W        W28075   1.322  26.121   0.847
59603W        W28076  30.453  12.228   1.821
59604W        W28077  25.026   4.812   1.734
59605W        W28078  26.097   8.713  13.886
59606W        W28079  35.457   5.347   3.288
59607W        W28080  21.163   4.743   4.810
59608W        W28081  12.849  15.227   1.835
59609W        W28082  10.829  12.350   0.366
59610W        W28083  33.461  19.193   1.708
59611W        W28084   9.758  36.553   2.391
59612W        W28085   1.767   2.813  11.886
59613W        W28086  33.459  20.629   2.772
59614W        W28087  26.036  14.282   3.182
59615W        W28088   9.855  32.562  14.846
59616W        W28089  10.797  15.329   0.730
59617W        W28090  10.638  25.018   3.766
59618W        W28091  44.804  16.257  13.454
59619W        W28092   0.829  12.821   2.415
59620W        W28093  27.153   8.204  14.474
59621W        W28094  31.440   8.383   0.727
59622W        W28095  22.094  13.770  11.048
59623W        W28096  12.822  27.167  11.995
59624W        W28097  21.198  11.223  14.488
59625W        W28098  42.476  30.052   0.870
59626W        W28099   0.826  13.111  11.949
59627W        W28100  25.714  43.418   4.230
59628W        W28101   2.904  22.232   0.403
59629W        W28102  13.786  14.717  10.572
59630W        W28103  22.995  37.452   1.757
59631W        W28104   1.907   2.896   2.691
59632W        W28105   9.329  14.282  13.986
59633W        W28106  24.084  37.371   2.793
59634W        W28107  18.240   3.792  11.882
59635W        W28108  44.909   7.830  14.868
59636W        W28109  33.031  44.842   1.901
59637W        W28110  44.342  38.892   0.453
59638W        W28111   6.788  33.586  14.936
59639W        W28112  12.211  40.954  11.936
59640W        W28113  16.284   4.261  11.014
59641W        W28114  38.962  11.658  13.966
59642W        W28115  17.731  28.663   3.632
59643W        W28116  33.460  33.625  12.849
59644W        W28117  10.341  24.661  12.952
59645W        W28118   4.866  35.510   0.324
59646W        W28119  30.069  30.158   0.450
59647W        W28120  35.430  10.724   0.340
59648W        W28121  21.699  24.504   4.120
59649W        W28122  13.630  18.672   2.272
59650W        W28123   8.403  27.129  10.566
59651W        W28124  39.990  43.787   3.226
59652W        W28125   0.808  42.464   1.224
59653W        W28126  36.988  23.173   2.369
59654W        W28127  22.125  34.966   2.766
59655W        W28128   6.303  15.686   2.321
59656W        W28129   7.798  40.549   1.236
59657W        W28130  22.234  26.506  14.344
59658W        W28131  38.550   8.835   2.395
59659W        W28132   0.817  42.811  13.809
59660W        W28133  41.455  17.284  13.867
59661W        W28134  30.111  36.484  14.373
59662W        W28135   4.267  18.775   2.334
59663W        W28136  14.832  34.478   4.641
59664W        W28137  26.594  33.117   1.909
59665W        W28138   9.878  35.432  14.364
59666W        W28139  20.192  16.796   0.919
59667W        W28140  35.377  20.560  12.994
59668W        W28141  29.455  34.921  12.382
59669W        W28142  41.515  42.839   2.886
59670W        W28143  37.902  41.042  13.488
59671W        W28144  16.777  33.909  13.525
59672W        W28145  35.488  25.598   0.828
59673W        W28146   7.400   3.328  14.406
59674W        W28147  41.307   9.826   2.843
59675W        W28148  20.077  29.507  13.375
59676W        W28149  33.490  40.435  10.913
59677W        W28150  36.448  30.618  10.559
59678W        W28151  30.006  22.131  12.442
59679W        W28152   0.407  18.561  14.333
59680W        W28153  36.466  15.768  11.556
59681W        W28154  10.267  39.994   3.332
59682W        W28155  42.895  40.844  14.775
59683W        W28156  42.907   5.747  13.005
59684W        W28157  38.924  11.312   4.115
59685W        W28158  36.467  19.140  14.437
59686W        W28159  22.667  21.721  14.428
59687W        W28160  29.661  11.860   9.936
59688W        W28161  22.081  37.910  12.565
59689W        W28162  12.270  39.987   1.929
59690W        W28163  20.539  36.538   1.334
59691W        W28164  23.224  20.628   1.214
59692W        W28165  15.220  17.608  10.603
59693W        W28166   5.821  19.158   0.814
59694W        W28167  34.554  10.353  11.027
59695W        W28168  25.132  30.018  12.424
59696W        W28169  22.685  18.160  11.951
59697W        W28170  10.236  24.498   4.335
59698W        W28171  15.155  40.521  10.470
59699W        W28172  10.659  30.027  14.924
59700W        W28173  29.048  30.022   3.859
59701W        W28174  34.994  17.154  10.115
59702W        W28175  10.717   1.820   5.288
59703W        W28176   6.771   7.794  12.939
59704W        W28177  21.702  19.660  11.059
59705W        W28178  26.081  39.560  13.415
59706W        W28179   6.684  43.382   4.734
59707W        W28180  24.079  22.521  12.956
59708W        W28181   0.881  35.973   0.805
59709W        W28182  27.636  27.089   3.259
59710W        W28183  14.759   0.394  12.577
59711W        W28184  12.276  19.720   0.469
59712W        W28185  32.617  11.161  13.901
59713W        W28186  44.275  21.546   2.779
59714W        W28187   2.303   2.417  11.918
59715W        W28188  30.480  10.690   1.857
59716W        W28189   0.833   9.734   2.299
59717W        W28190  11.280   5.773  12.542
59718W        W28191   9.344  22.252   0.908
59719W        W28192  40.439  40.410  11.435
59720W        W28193   3.771  15.195  11.601
59721W        W28194  26.614  39.465   3.356
59722W        W28195   2.396   7.393   3.781
59723W        W28196  36.360   6.214  10.520
59724W        W28197   3.437  33.933  10.565
59725W        W28198  30.985   5.706  10.514
59726W        W28199  37.524   5.765  12.509
59727W        W28200   0.314  35.033   1.707
59728W        W28201  16.612  37.458  14.990
59729W        W28202  43.497  40.012  14.798
59730W        W28203   4.278  30.416  11.937
59731W        W28204  34.597  16.235  12.435
59732W        W28205  35.070  32.632   2.180
59733W        W28206   9.189   7.801   1.743
59734W        W28207  27.078  13.662  12.512
59735W        W28208  21.180  14.111  12.441
59736W        W28209  12.357  24.138   0.429
59737W        W28210   0.331  24.548   4.140
59738W        W28211  39.508  20.542  11.611
59739W        W28212  44.895  16.655  13.309
59740W        W28213  42.928  37.899  13.821
59741W        W28214  33.438  18.723   4.750
59742W        W28215  29.946  35.490   3.752
59743W        W28216  25.060  15.313  12.957
59744W        W28217  14.825  35.375   2.178
59745W        W28218   8.227  29.147   0.738
59746W        W28219  27.174  27.492   4.803
59747W        W28220  18.588  23.988   2.285
59748W        W28221   6.731  17.588  14.908
59749W        W28222  22.083  37.565  13.820
59750W        W28223  17.259  38.916  12.488
59751W        W28224  24.086  39.971   0.936
59752W        W28225   7.314  13.626  12.356
59753W        W28226   9.379  20.706  12.007
59754W        W28227  27.031  41.341  13.547
59755W        W28228  11.275  15.194  14.334
59756W        W28229   6.298  30.086   2.301
59757W        W28230  40.410  40.367   3.374
59758W        W28231   9.334  20.625  12.909
59759W        W28232  23.025  10.298  14.276
59760W        W28233  33.982   1.401   3.368
59761W        W28234   2.883   5.700   0.364
59762W        W28235  16.612  43.781   3.677
59763W        W28236  15.225  12.786  11.961
59764W        W28237  25.559  19.706  13.802
59765W        W28238   6.809  10.174  13.045
59766W        W28239  16.195  11.133   3.789
59767W        W28240  28.962  27.978  14.944
59768W        W28241   9.692  33.485   9.589
59769W        W28242  14.713  15.803   3.816
59770W        W28243  32.939  12.856   2.392
59771W        W28244   2.433   0.312   1.276
59772W        W28245  32.900  16.785   1.743
59773W        W28246  12.259  36.582  13.842
59774W        W28247  42.834  21.677  14.395
59775W        W28248   6.699  31.648  13.448
59776W        W28249   4.297  20.101   2.204
59777W        W28250  28.069   5.437   2.756
59778W        W28251   7.738  22.051  12.520
59779W        W28252  28.945  37.019  14.358
59780W        W28253  28.150  20.096   2.213
59781W        W28254  21.044  34.119   2.299
59782W        W28255  21.563  42.782  10.898
59783W        W28256   1.807  32.119  11.876
59784W        W28257  28.088  42.364   2.349
59785W        W28258   8.399  12.356  11.522
59786W        W28259  22.121  16.189  11.518
59787W        W28260  10.824   3.860  13.466
59788W        W28261  34.470   5.703  12.060
59789W        W28262  34.115  12.818   2.744
59790W        W28263   4.841   4.746  11.382
59791W        W28264   0.761  17.139   5.130
59792W        W28265   7.299  25.209   4.609
59793W        W28266  26.578  36.048   2.773
59794W        W28267  30.439  15.235  11.019
59795W        W28268  12.167   5.307  11.016
59796W        W28269  20.180  16.673   1.758
59797W        W28270   9.880  23.676   3.197
59798W        W28271  39.340  20.079  13.477
59799W        W28272  39.456  34.398  10.624
59800W        W28273   0.886  15.289  13.457
59801W        W28274   3.224  23.592   4.780
59802W        W28275  19.715  39.955  14.329
59803W        W28276   1.880  23.155  11.440
59804W        W28277  10.803  33.912  12.956
59805W        W28278  27.093  28.666   4.684
59806W        W28279  38.373  22.186   2.273
59807W        W28280   5.850  39.457  14.812
59808W        W28281  13.321  36.405   3.653
59809W        W28282   5.695  26.143  11.927
59810W        W28283  10.782  27.062   3.266
59811W        W28284   6.785  15.678   3.378
59812W        W28285  13.259  32.140  13.966
59813W        W28286  23.130  34.991  11.399
59814W        W28287  17.128  38.332  13.943
59815W        W28288   7.765  39.379   2.179
59816W        W28289  13.243  38.531  11.382
59817W        W28290  30.570   8.889   2.302
59818W        W28291  15.739  10.306  14.998
59819W        W28292  26.967  20.148   3.278
59820W        W28293  38.337  31.521  11.106
59821W        W28294  31.456  31.087  13.521
59822W        W28295  21.241  26.616   5.129
59823W        W28296  37.922  32.411  12.910
59824W        W28297  15.802  27.194  11.483
59825W        W28298  40.921  19.233   3.345
59826W        W28299  43.350  30.577  10.423
59827W        W28300  31.461  22.020  11.598
59828W        W28301  30.416  38.852   0.455
59829W        W28302  20.670  32.406  12.430
59830W        W28303  14.810  27.655  11.068
59831W        W28304   2.338  16.102   3.856
59832W        W28305  34.996  13.332   2.711
59833W        W28306  27.992  44.807  14.822
59834W        W28307  29.015   3.398  14.981
59835W        W28308  36.072   9.799   2.306
59836W        W28309  42.800  33.108  11.858
59837W        W28310  19.115   4.732   1.716
59838W        W28311  38.985   6.696  13.893
59839W        W28312  29.017  14.274   4.234
59840W        W28313   2.335   5.857   4.207
59841W        W28314   1.370  25.186  10.543
59842W        W28315  14.271  32.982   0.942
59843W        W28316  12.714  33.071  11.111
59844W        W28317   1.307  17.284   4.668
59845W        W28318  38.391  17.622   2.339
59846W        W28319  23.594  23.549   4.259
59847W        W28320  18.662  24.230   1.322
59848W        W28321  33.414  26.980  13.961
59849W        W28322   1.794  44.343   3.177
59850W        W28323  16.126  29.074   4.663
59851W        W28324   4.309  15.759  11.538
59852W        W28325   7.192  34.878  10.102
59853W        W28326   0.947  37.468   0.737
59854W        W28327  19.142   0.772   4.225
59855W        W28328   9.689  35.892  13.350
59856W        W28329  10.838  32.578  11.079
59857W        W28330  44.334  37.453  14.453
59858W        W28331  38.515  35.959  11.886
59859W        W28332  41.354  22.651   4.152
59860W        W28333  43.828  34.907  10.993
59861W        W28334  38.348   9.888   0.887
59862W        W28335  33.526  41.960   1.261
59863W        W28336  37.989  37.998   4.292
59864W        W28337  27.627  20.532   1.821
59865W        W28338  22.128  40.519   2.395
59866W        W28339  19.731  24.668   4.334
59867W        W28340  26.142  31.410   4.245
59868W        W28341   3.285   3.348   2.830
59869W        W28342  24.645   7.329  12.545
59870W        W28343  20.744  32.442  13.520
59871W        W28344  25.218  28.000   2.194
59872W        W28345  22.575  22.074  11.606
59873W        W28346   1.459  31.430   3.660
59874W        W28347  33.878  20.661  12.056
59875W        W28348  17.277  19.227  14.295
59876W        W28349   6.368   9.728   3.257
59877W        W28350  39.372  16.275  10.447
59878W        W28351  18.623  36.450   3.640
59879W        W28352  41.999  13.829  11.125
59880W        W28353   4.938   8.291  10.534
59881W        W28354  18.704   2.443  12.952
59882W        W28355  16.732  28.930   2.699
59883W        W28356  20.209  42.881  13.972
59884W        W28357  22.252  27.664   5.753
59885W        W28358  32.592  28.628  11.074
59886W        W28359  42.321  38.382  12.408
59887W        W28360  29.926   8.662   5.213
59888W        W28361  38.447  14.735   4.175
59889W        W28362  30.543  35.875   4.678
59890W        W28363   7.819   1.916  13.959
59891W        W28364  26.133  21.143   0.840
59892W        W28365  21.260  44.387  13.367
59893W        W28366  33.452  39.828  10.929
59894W        W28367  29.137   1.744  13.417
59895W        W28368   6.283  16.719   4.666
59896W        W28369  36.947  40.458  13.810
59897W        W28370  28.168   8.764  14.317
59898W        W28371  22.646   2.901  11.468
59899W        W28372   5.722  13.823   2.757
59900W        W28373  16.181  43.831   0.889
59901W        W28374  37.916   1.470  11.373
59902W        W28375  26.528  39.044   4.304
59903W        W28376  32.891  42.851  14.479
59904W        W28377  38.046  23.708   4.728
59905W        W28378  25.598  21.606  12.030
59906W        W28379  37.356  30.626  12.046
59907W        W28380  26.638  41.938   1.382
59908W        W28381  19.674  32.578   4.772
59909W        W28382  42.391   7.753  14.764
59910W        W28383  25.590  22.656  14.349
59911W        W28384   9.196   2.889  14.809
59912W        W28385  10.268  37.048  11.857
59913W        W28386  30.658  33.556   3.349
59914W        W28387  43.386  42.290  10.404
59915W        W28388  13.662   9.756  13.966
59916W        W28389  24.068  15.679   2.838
59917W        W28390  25.683   2.458   3.278
59918W        W28391  32.034  43.475  14.477
59919W        W28392  35.075  24.570   2.794
59920W        W28393  23.640  17.666  14.869
59921W        W28394  38.039  12.698  14.789
59922W        W28395  44.843  13.261   4.687
59923W        W28396  10.329  38.461   9.977
59924W        W28397  44.986  21.056   5.096
59925W        W28398  15.092  32.886  14.028
59926W        W28399  36.075   2.328  14.927
59927W        W28400   2.903  21.118  12.878
59928W        W28401  32.129   3.718  11.882
59929W        W28402   4.443  41.877   1.355
59930W        W28403  28.594   9.281   2.878
59931W        W28404   6.892  11.300   3.868
59932W        W28405  23.642  31.647   1.286
59933W        W28406  26.995  43.818   3.861
59934W        W28407  23.676  24.633  11.493
59935W        W28408  36.096   3.913   0.445
59936W        W28409  43.323  33.473  13.945
59937W        W28410   8.276  34.958   1.728
59938W        W28411   2.939  41.880   2.274
59939W        W28412  17.095  15.083  11.910
59940W        W28413  35.032  19.765  11.112
59941W        W28414  31.608   6.825  10.995
59942W        W28415  13.229  13.206   0.395
59943W        W28416   5.394  21.255   4.819
59944W        W28417   6.805   7.373  13.035
59945W        W28418  16.132  37.443   0.851
59946W        W28419  39.046  43.835   2.800
59947W        W28420  42.930  20.748   0.279
59948W        W28421  12.156  17.616  14.343
59949W        W28422   8.856  37.012  14.917
59950W        W28423  11.800  34.058   5.309
59951W        W28424  35.069  44.859   1.929
59952W        W28425  19.543   1.299   1.400
59953W        W28426   8.764  29.945   3.748
59954W        W28427  23.125  16.234   2.734
59955W        W28428  23.734  17.270   0.386
59956W        W28429  11.717  12.266  14.399
59957W        W28430  27.505   9.350  14.926
59958W        W28431   4.427  18.742  12.027
59959W        W28432  22.210  31.484   1.213
59960W        W28433  31.529  11.686  14.819
59961W        W28434  15.780  10.248   3.297
59962W        W28435  36.083  35.080   2.668
59963W        W28436  37.057  22.104  14.938
59964W        W28437  31.093  28.143   0.248
59965W        W28438   6.414  33.586  11.570
59966W        W28439  18.618  28.077  14.414
59967W        W28440  16.715  10.289   1.364
59968W        W28441  11.200  24.111  11.570
59969W        W28442  36.357   0.931   2.684
59970W        W28443  14.251   2.232  13.033
59971W        W28444   5.819  18.762  14.952
59972W        W28445  43.283  23.544  14.323
59973W        W28446  43.917  38.350   3.311
59974W        W28447  30.079  11.719   3.734
59975W        W28448   9.201  29.991   3.698
59976W        W28449   2.446  13.763   3.660
59977W        W28450   1.868  43.880   0.319
59978W        W28451   6.788  33.579   1.340
59979W        W28452   4.374   1.750  10.905
59980W        W28453   3.896  42.336   3.788
59981W        W28454  11.226   2.731   1.215
59982W        W28455  34.488  35.875  13.847
59983W        W28456  15.241  25.696  10.612
59984W        W28457   5.893   5.904  14.797
59985W        W28458  25.573   7.244   2.362
59986W        W28459  33.964  18.713   1.728
59987W        W28460  33.510  38.985   3.239
59988W        W28461  35.550  29.043   1.341
59989W        W28462  10.770  12.733   2.213
59990W        W28463  39.913  37.510  13.922
59991W        W28464   2.406  14.273   2.412
59992W        W28465   2.391  12.829  14.975
59993W        W28466  41.529   9.306  12.830
59994W        W28467  13.117  43.327  12.057
59995W        W28468  16.719  22.578   3.210
59996W        W28469   0.765  13.653   1.449
59997W        W28470  36.910   2.469   1.246
59998W        W28471  34.484  11.816   3.369
59999W        W28472  27.003  37.870  11.393
60000W        W28473  43.828  39.847  13.423
60001W        W28474  10.370  43.354  14.778
60002W        W28475  12.128  40.474   1.909
60003W        W28476  29.513  16.737  14.331
60004W        W28477  10.870  36.484   5.117
60005W        W28478  20.213  23.021   3.252
60006W        W28479   7.328   8.311  11.598
60007W        W28480  27.596  22.142   0.260
60008W        W28481  44.438   7.385   1.922
60009W        W28482  12.344   9.701   3.691
60010W        W28483  35.561  13.815  14.484
60011W        W28484  11.780  11.187   2.805
60012W        W28485  12.677  27.525  11.512
60013W        W28486  39.943  10.686  14.760
60014W        W28487  20.722  27.143   1.791
60015W        W28488  30.421   9.254   0.736
60016W        W28489  25.631  10.257   3.779
60017W        W28490  20.722   0.407   2.869
60018W        W28491  28.061  15.779  12.096
60019W        W28492  20.131  34.504   1.352
60020W        W28493   3.771   4.231   3.165
60021W        W28494  40.904  28.946   2.212
60022W        W28495  21.149  37.835   2.763
60023W        W28496  43.286  42.891  12.839
60024W        W28497   5.783  39.895   0.293
60025W        W28498  32.442  42.980   5.268
60026W        W28499  39.381  29.936   0.887
60027W        W28500  15.656   3.232  11.122
60028W        W28501  41.026  23.612   0.469
60029W        W28502   6.857  11.204   3.279
60030W        W28503   6.248  31.501   0.957
60031W        W28504  14.831   0.352  10.133
60032W        W28505  34.593  27.043  14.342
60033W        W28506  25.204  18.761   4.222
60034W        W28507  33.486  12.726   3.753
60035W        W28508  43.020  18.583   1.384
60036W        W28509  19.193  34.054  11.959
60037W        W28510  24.984   0.963  14.773
60038W        W28511  25.128   8.687   3.255
60039W        W28512  21.666  17.270  10.578
60040W        W28513  16.262   0.882  10.965
60041W        W28514  27.043  22.694   3.684
60042W        W28515  44.335   5.781   2.876
60043W        W28516  23.635  28.634  10.449
60044W        W28517  38.466  16.674   1.214
60045W        W28518  34.979  18.060   1.811
60046W        W28519  10.324  10.278   1.292
60047W        W28520  42.947  16.275   4.600
60048W        W28521  43.828  28.583   0.877
60049W        W28522  31.967  16.282   1.374
60050W        W28523  44.885  36.382  14.315
60051W        W28524  26.464  22.556   1.712
60052W        W28525  20.230   4.428  14.356
60053W        W28526  43.514  35.045   4.811
60054W        W28527   7.359  12.337  12.386
60055W        W28528  23.560  10.207   1.283
60056W        W28529  10.696  26.017  12.979
60057W        W28530  16.076  34.932  11.546
60058W        W28531   9.315  31.490   1.922
60059W        W28532  11.179   8.241  13.314
60060W        W28533  22.206   9.208  10.599
60061W        W28534  21.163   8.403  14.311
60062W        W28535  38.836  41.919   3.659
60063W        W28536  16.203  28.044  10.974
60064W        W28537   3.386  29.545   0.761
60065W        W28538  14.630  33.396  14.959
60066W        W28539  34.413  26.636   3.251
60067W        W28540  21.111  36.580  13.437
60068W        W28541  20.053  28.608   0.917
60069W        W28542   0.323   9.253   3.747
60070W        W28543  35.929   1.456   0.844
60071W        W28544  31.462  38.069   3.760
60072W        W28545  35.526  30.930  11.088
60073W        W28546  31.090  14.816   1.371
60074W        W28547  21.641  40.362   1.757
60075W        W28548  32.542  25.511   5.805
60076W        W28549  25.660  16.083  12.439
60077W        W28550  37.035   6.317   4.212
60078W        W28551  35.449  43.981   0.784
60079W        W28552  18.614   2.742   2.681
60080W        W28553  26.092  42.873   2.685
60081W        W28554  13.823  19.637  10.965
60082W        W28555  17.785  39.324  14.329
60083W        W28556  27.087   2.958   2.348
60084W        W28557   6.284  38.976  11.859
60085W        W28558   8.270  10.196  12.563
60086W        W28559  39.384   7.232   1.796
60087W        W28560  15.666  29.466  13.814
60088W        W28561  30.010  33.528  12.952
60089W        W28562  34.536  24.517   3.744
60090W        W28563   5.439  10.787   4.777
60091W        W28564  10.272  33.539  10.965
60092W        W28565  43.942   2.351   3.308
60093W        W28566  11.801  29.664   3.228
60094W        W28567  13.750  22.198   1.425
60095W        W28568  15.779  25.585   3.258
60096W        W28569  22.669   6.863  10.421
60097W        W28570   3.815  30.153  11.053
60098W        W28571  40.841  12.665  11.052
60099W        W28572  33.959  11.831   0.467
60100W        W28573  33.625  39.483  10.509
60101W        W28574  24.168  32.508   4.662
60102W        W28575  44.937   4.423  11.576
60103W        W28576   2.440   7.242  14.452
60104W        W28577  27.140  18.186   4.180
60105W        W28578  37.071  13.132  12.411
60106W        W28579   8.768  44.270  14.484
60107W        W28580  10.861  10.195   0.748
60108W        W28581  25.621  12.636   3.690
60109W        W28582  42.527  41.861   2.877
60110W        W28583  41.395  37.078  14.930
60111W        W28584  12.329   0.457  12.084
60112W        W28585  15.126  26.589  11.121
60113W        W28586  23.611  13.120   1.248
60114W        W28587  30.439  18.576   5.269
60115W        W28588  15.266  42.796  13.817
60116W        W28589  13.645   0.930  11.551
60117W        W28590  25.081  17.245  14.986
60118W        W28591  36.881  31.407  11.521
60119W        W28592   0.369  28.156  11.925
60120W        W28593  33.494  41.893   1.804
60121W        W28594  12.728  14.179  11.504
60122W        W28595   8.343   9.328   1.908
60123W        W28596   3.251  39.453   3.823
60124W        W28597  17.081  27.627   1.284
60125W        W28598   6.347  10.337  14.893
60126W        W28599  36.494  23.079   3.383
60127W        W28600  23.673  38.337  14.773
60128W        W28601  40.508  43.460   0.824
60129W        W28602  38.994  13.180   1.262
60130W        W28603  21.048  20.055   0.405
60131W        W28604  14.114  22.627   3.736
60132W        W28605  34.033  21.750  11.445
60133W        W28606  34.042  33.092   0.960
60134W        W28607   1.322  10.692   4.238
60135W        W28608   7.367   2.436  13.881
60136W        W28609   2.415   6.747   2.198
60137W        W28610  31.991  42.983  12.876
60138W        W28611  37.579   7.846   2.713
60139W        W28612  17.083  32.490   0.430
60140W        W28613   7.737  23.563  12.071
60141W        W28614  30.546  38.440   2.765
60142W        W28615  22.013  12.162  11.511
60143W        W28616  12.300  35.552   1.364
60144W        W28617  12.362  36.013   1.418
60145W        W28618  34.003   0.276  14.422
60146W        W28619  44.473  32.068  10.463
60147W        W28620  15.302   9.874   2.812
60148W        W28621  16.728  43.940   1.336
60149W        W28622   4.250  27.456   2.720
60150W        W28623  11.271  16.690  13.514
60151W        W28624  13.600  21.253  13.899
60152W        W28625  43.882  26.051  11.433
60153W        W28626  21.100  27.140  12.931
60154W        W28627  35.897  19.263   1.262
60155W        W28628  13.747  17.097   2.800
60156W        W28629  12.844  21.070  12.831
60157W        W28630  32.962  38.525  11.974
60158W        W28631  23.500  40.894   3.705
60159W        W28632   3.217  44.336   2.311
60160W        W28633  13.844  22.616  10.422
60161W        W28634  13.146   9.164   3.366
60162W        W28635   1.247  37.464   2.356
60163W        W28636  12.796   1.787  11.910
60164W        W28637  19.742  36.045   1.882
60165W        W28638  34.466   0.320   1.705
60166W        W28639  16.136  24.043   4.321
60167W        W28640  14.670  39.919  12.498
60168W        W28641  29.571  12.277   2.208
60169W        W28642   7.398   9.283   4.604
60170W        W28643   9.674   6.768  14.922
60171W        W28644  23.191  28.115  13.522
60172W        W28645  35.926  15.164  14.458
60173W        W28646  44.337  34.977   1.842
60174W        W28647  15.276   4.329   2.851
60175W        W28648  12.670  25.578  13.328
60176W        W28649  28.514  25.206   2.800
60177W        W28650  20.115  10.200   1.837
60178W        W28651  30.086  36.532  12.526
60179W        W28652  42.499  19.225   1.402
60180W        W28653  32.961  31.941  13.494
60181W        W28654  40.395  41.912  11.861
60182W        W28655  16.277  22.540  14.475
60183W        W28656  29.049  22.636   0.302
60184W        W28657  32.093   8.244   0.249
60185W        W28658  38.557  17.072  10.968
60186W        W28659  18.646  24.679  12.077
60187W        W28660   9.672  44.296   4.632
60188W        W28661   1.466  30.144   3.217
60189W        W28662   4.873   8.821  12.506
60190W        W28663   1.941  41.886   2.181
60191W        W28664  20.030  18.107  13.986
60192W        W28665  40.863  18.252  11.610
60193W        W28666   7.292  35.066   1.317
60194W        W28667  25.199  25.027  12.479
60195W        W28668  43.427   1.766  10.955
60196W        W28669  44.392   4.204   4.159
60197W        W28670   8.795   1.339   1.764
60198W        W28671  27.068  25.655   1.216
60199W        W28672  14.312  30.520   4.613
60200W        W28673  28.053   0.390   2.685
60201W        W28674   0.749  38.834  11.441
60202W        W28675  14.763  22.694  14.979
60203W        W28676  41.950  32.106  13.414
60204W        W28677   6.760  18.267  11.116
60205W        W28678   7.342  14.700  11.416
60206W        W28679  37.570  32.587  11.386
60207W        W28680  34.110  44.901  10.449
60208W        W28681   3.947  15.790   5.254
60209W        W28682  32.614  25.980   0.374
60210W        W28683  36.571   4.362  11.438
60211W        W28684  10.231  36.988   0.445
60212W        W28685   4.247  13.275  14.760
60213W        W28686  13.663  31.101   3.240
60214W        W28687   5.873   6.247   4.728
60215W        W28688  23.026   6.261  12.934
60216W        W28689  36.492  42.321  10.579
60217W        W28690  28.186  33.427  10.467
60218W        W28691  25.093  43.446  13.374
60219W        W28692  15.808   6.187   3.237
60220W        W28693   8.195   3.374  13.425
60221W        W28694  22.053  34.983  12.871
60222W        W28695  17.194   8.751   2.259
60223W        W28696  10.662   1.370   4.335
60224W        W28697  17.221  43.421  13.062
60225W        W28698  23.646  38.387   0.247
60226W        W28699  26.664  38.048  10.405
60227W        W28700  31.563  38.412   0.928
60228W        W28701   0.759   3.772   4.762
60229W        W28702  26.010  24.037   0.412
60230W        W28703  25.152  17.179   4.173
60231W        W28704  17.218  35.378  12.384
60232W        W28705   0.494   9.747  11.446
60233W        W28706  44.893  31.955   0.467
60234W        W28707  25.587  35.879  12.884
60235W        W28708  31.098  17.168  11.018
60236W        W28709   3.422  13.796  10.033
60237W        W28710  21.572  27.950   1.346
60238W        W28711   4.430  41.975  11.950
60239W        W28712  19.776  21.126   3.829
60240W        W28713  14.779  37.447  12.081
60241W        W28714  20.171  17.724   0.281
60242W        W28715  22.187  40.517  12.086
60243W        W28716  21.688  18.788   2.306
60244W        W28717  34.518  43.286   3.351
60245W        W28718   5.228  30.424  13.432
60246W        W28719  15.818  34.586   2.389
60247W        W28720   8.324  18.741   4.136
60248W        W28721  32.089  20.655   3.835
60249W        W28722  33.390  40.475  10.571
60250W        W28723   4.943  10.808   3.277
60251W        W28724  21.629  41.360  10.985
60252W        W28725  32.520  35.375  12.091
60253W        W28726  44.842   0.447  10.430
60254W        W28727  35.031  19.582   1.814
60255W        W28728   2.958  23.581  14.383
60256W        W28729  35.409   9.210   0.823
60257W        W28730  25.524  18.055   1.723
60258W        W28731  43.347  41.325   5.248
60259W        W28732  40.813  24.678   2.338
60260W        W28733  20.248  31.095  14.330
60261W        W28734  44.983   7.747  13.957
60262W        W28735  42.459   2.941  13.324
60263W        W28736   6.804  26.508  13.343
60264W        W28737  29.938  43.348   1.382
60265W        W28738  24.180  35.521   2.889
60266W        W28739   5.365  20.130   2.733
60267W        W28740   7.348   8.351  12.444
60268W        W28741  40.350  23.602  10.448
60269W        W28742  31.969  34.006   0.890
60270W        W28743  22.693  36.593   3.242
60271W        W28744  22.658  36.508  14.431
60272W        W28745   0.872  43.809  14.966
60273W        W28746  28.166  39.858   1.244
60274W        W28747  31.989  34.894  13.520
60275W        W28748  26.662  24.558  11.463
60276W        W28749  20.609  43.021  12.830
60277W        W28750   7.884  31.009  13.486
60278W        W28751  41.502  43.850  11.860
60279W        W28752   1.930  25.694   3.651
60280W        W28753  44.996  14.226   2.695
60281W        W28754  33.556  18.224  10.920
60282W        W28755  39.380  40.522   1.303
60283W        W28756  31.909   3.710  12.926
60284W        W28757  29.979  38.061   1.906
60285W        W28758   9.664  31.937  14.933
60286W        W28759  24.033  28.098   4.784
60287W        W28760  25.034   3.738  10.636
60288W        W28761   7.787   8.706   1.298
60289W        W28762  23.121  28.571   2.778
60290W        W28763  20.526  27.065  10.572
60291W        W28764  31.640  25.103   2.376
60292W        W28765  35.569  42.811  12.055
60293W        W28766  33.903  15.196  11.991
60294W        W28767  34.917  32.504   4.334
60295W        W28768  31.151  29.624  13.797
60296W        W28769  44.768   7.899  13.030
60297W        W28770  26.094   5.826  12.565
60298W        W28771   7.249   1.908  13.037
60299W        W28772  34.443   4.757  14.836
60300W        W28773  23.588  16.784   3.153
60301W        W28774  23.512  33.979   3.282
60302W        W28775  12.246  22.223   4.619
60303W        W28776  29.121  27.130   2.888
60304W        W28777  20.601  26.702  12.092
60305W        W28778   3.841  39.546  12.002
60306W        W28779   2.852  14.108  12.414
60307W        W28780  35.525  10.791  13.804
60308W        W28781  16.665  23.034  12.569
60309W        W28782  19.150   9.744   1.760
60310W        W28783  30.481  23.152   9.961
60311W        W28784  33.967  11.778   1.855
60312W        W28785  11.822  26.476  14.499
60313W        W28786  33.876  35.044   0.390
60314W        W28787  24.071  35.477  12.378
60315W        W28788  26.208  10.773  13.415
60316W        W28789  38.049   9.871  12.003
60317W        W28790  11.144  41.425   0.735
60318W        W28791   9.326   7.247   3.767
60319W        W28792  13.141  16.188   1.794
60320W        W28793  44.321   7.328  12.093
60321W        W28794  19.134   8.811   2.852
60322W        W28795  19.651   3.221  13.861
60323W        W28796  27.641  36.082  11.533
60324W        W28797  25.643  30.642  10.064
60325W        W28798  37.009   9.691   1.904
60326W        W28799  17.787  36.926   3.649
60327W        W28800  31.552  29.547   0.469
60328W        W28801   5.347  24.542  14.889
60329W        W28802  19.558  37.074  10.568
60330W        W28803   9.814  27.073  10.568
60331W        W28804  33.034  19.675   3.190
60332W        W28805  19.741  41.384   0.442
60333W        W28806   4.746  23.648   5.188
60334W        W28807  39.371  17.235   1.419
60335W        W28808  17.066  39.361   3.233
60336W        W28809  29.553  14.277   3.247
60337W        W28810  11.250  32.137   4.322
60338W        W28811  31.646   3.784  11.073
60339W        W28812  32.578  18.166   2.867
60340W        W28813  12.818  37.406   2.308
60341W        W28814  37.517  17.715  13.943
60342W        W28815  11.680  40.926  12.845
60343W        W28816  15.659   1.761   3.264
60344W        W28817  20.581  21.084  11.071
60345W        W28818  42.911  26.638  13.957
60346W        W28819  14.138  21.170  12.514
60347W        W28820  27.636  10.653  11.890
60348W        W28821  15.590  27.543   0.902
60349W        W28822  13.661   8.334  12.914
60350W        W28823  16.608  17.111  14.865
60351W        W28824  21.632  44.805  10.627
60352W        W28825  10.347  29.054  10.911
60353W        W28826  32.545  44.297  12.064
60354W        W28827   8.788   9.345  11.091
60355W        W28828  10.287  31.029   0.809
60356W        W28829  24.079  40.356   4.818
60357W        W28830  38.910  20.082   2.813
60358W        W28831  11.372  40.495   4.134
60359W        W28832  13.277  13.846   1.353
60360W        W28833  15.799  12.713   2.226
60361W        W28834  42.804  14.642  12.990
60362W        W28835  21.639  38.925  14.975
60363W        W28836  36.447  31.438  12.837
60364W        W28837  26.987   5.375  14.972
60365W        W28838  42.017  34.081  14.508
60366W        W28839   1.887   5.887   2.250
60367W        W28840  21.213  15.638   0.944
60368W        W28841  34.554  39.011  13.484
60369W        W28842  43.773  28.979  13.907
60370W        W28843  27.062  12.324  10.596
60371W        W28844   8.748  26.468  13.382
60372W        W28845  27.512   7.280  13.033
60373W        W28846  14.658  41.989  12.472
60374W        W28847  13.707  32.954  13.481
60375W        W28848  25.486  11.861   3.194
60376W        W28849  10.293  35.459  11.956
60377W        W28850   2.354  13.291  13.420
60378W        W28851  24.017  22.219  14.331
60379W        W28852  26.039  15.212  13.357
60380W        W28853  24.625  18.677  13.950
60381W        W28854  17.220  30.068   4.278
60382W        W28855  40.967  42.964   3.217
60383W        W28856  28.480  26.701   2.224
60384W        W28857  29.531  24.661   3.704
60385W        W28858  31.144   7.324   4.692
60386W        W28859   9.809  18.150  11.380
60387W        W28860  22.667  36.501   4.180
60388W        W28861  31.915  38.336  11.573
60389W        W28862  20.678  28.954   0.434
60390W        W28863  32.116   8.830  12.003
60391W        W28864   3.293   6.362   2.811
60392W        W28865   5.865  18.169  13.963
60393W        W28866   9.269  18.782   3.656
60394W        W28867  37.392  42.819  11.084
60395W        W28868   6.316  13.304   1.848
60396W        W28869  17.700  10.804   3.370
60397W        W28870  26.147  24.983   3.754
60398W        W28871  37.857  15.821   0.396
60399W        W28872  31.409  17.221   2.282
60400W        W28873  19.598  12.242  12.852
60401W        W28874   3.364  34.440  11.000
60402W        W28875  20.663  28.969  11.528
60403W        W28876  23.164   6.814  11.882
60404W        W28877  39.923  17.707  12.901
60405W        W28878  37.364   5.688  10.968
60406W        W28879   0.887   0.869  13.442
60407W        W28880   5.214  24.484   4.801
60408W        W28881   9.291  18.260   2.733
60409W        W28882  23.659  14.226  12.465
60410W        W28883  38.964  39.338   2.877
60411W        W28884  29.006  39.358  10.987
60412W        W28885  10.759  29.131  12.965
60413W        W28886  21.639  12.352   5.781
60414W        W28887  40.867   9.687  14.838
60415W        W28888  31.479  15.220   3.778
60416W        W28889  40.404  30.655  10.997
60417W        W28890  18.194   1.358   3.821
60418W        W28891  44.410  17.129   1.770
60419W        W28892  19.779  17.605   3.265
60420W        W28893   2.308   8.808   4.814
60421W        W28894  13.282  20.572   0.863
60422W        W28895  17.145  44.285  10.038
60423W        W28896   3.423  27.099   4.636
60424W        W28897  19.089   8.843   4.805
60425W        W28898  14.261  34.090   3.387
60426W        W28899   4.740  21.666   4.639
60427W        W28900  32.523  15.783   2.802
60428W        W28901   5.835  25.978   2.357
60429W        W28902  18.152  21.036   3.703
60430W        W28903  44.793  43.944  11.890
60431W        W28904  13.666  17.197   1.440
60432W        W28905   0.781   9.151   0.279
60433W        W28906  36.425   0.470  11.053
60434W        W28907  18.743  16.086   0.907
60435W        W28908  17.758  40.827  12.467
60436W        W28909  33.947  16.701  14.832
60437W        W28910   5.334  32.942   0.899
60438W        W28911  22.722  43.001  11.581
60439W        W28912  11.331  24.512  12.962
60440W        W28913  20.077  11.304   4.340
60441W        W28914  28.068  11.305  13.527
60442W        W28915  15.788  28.123   1.801
60443W        W28916  39.876  28.001   1.352
60444W        W28917   5.750  24.227  13.414
60445W        W28918  37.543  18.574  12.363
60446W        W28919  40.473  18.270   0.926
60447W        W28920  11.321  24.167  13.535
60448W        W28921  28.533  34.454   4.700
60449W        W28922  18.071   1.471  13.492
60450W        W28923  29.985   9.693   3.637
60451W        W28924  25.645  41.427   3.769
60452W        W28925  37.456  40.477  13.339
60453W        W28926  36.085  29.965   3.749
60454W        W28927   0.938  22.719   2.372
60455W        W28928  20.693  32.573   3.223
60456W        W28929  17.295  44.412   0.857
60457W        W28930  20.076  43.453   1.366
60458W        W28931  39.017  20.764   2.373
60459W        W28932  44.479  33.099  14.350
60460W        W28933  24.519  17.638  10.530
60461W        W28934  19.102  24.717  10.932
60462W        W28935  19.574  18.200  14.965
60463W        W28936  28.096  38.986  14.404
60464W        W28937  41.964  15.762   1.900
60465W        W28938  20.249  12.235  14.811
60466W        W28939  30.991  34.012   3.779
60467W        W28940   4.313   6.365   3.254
60468W        W28941  11.208  30.441  12.828
60469W        W28942  27.976   5.253  13.918
60470W        W28943  42.413   3.871   2.268
60471W        W28944  24.175  12.799  10.565
60472W        W28945  43.894   7.263  10.627
60473W        W28946  41.955  42.029   1.708
60474W        W28947  22.580  32.520   0.376
60475W        W28948  40.816  41.942  13.458
60476W        W28949   0.305  26.146  13.486
60477W        W28950  22.669  26.506  12.066
60478W        W28951   8.340   5.797   2.390
60479W        W28952  10.837  36.883   3.716
60480W        W28953  25.043  13.190   2.809
60481W        W28954  22.108  14.732  11.926
60482W        W28955   1.898  26.959  12.501
60483W        W28956   2.308  35.392   3.363
60484W        W28957   9.836   8.816   0.286
60485W        W28958  29.951  10.689   0.312
60486W        W28959  30.064  20.203   4.194
60487W        W28960  17.069   2.731  14.840
60488W        W28961   4.283  32.518   1.297
60489W        W28962  33.525  27.490  14.299
60490W        W28963  24.536  23.101  14.920
60491W        W28964  16.139  32.104  11.982
60492W        W28965   9.381  17.760   4.201
60493W        W28966  32.973   7.812   1.833
60494W        W28967   9.817   2.921  14.813
60495W        W28968   3.276  26.027   4.208
60496W        W28969  35.374   7.765   0.253
60497W        W28970  28.473   6.889  11.607
60498W        W28971  10.206  12.610   4.696
60499W        W28972   7.764  31.002  14.460
60500W        W28973  10.363   7.687  14.813
60501W        W28974  26.607  42.351  14.955
60502W        W28975  25.176  32.011   2.312
60503W        W28976  27.072   6.811   3.796
60504W        W28977  21.148  27.987  10.976
60505W        W28978   5.881  25.151   3.811
60506W        W28979  29.061  29.978   2.889
60507W        W28980   1.764  37.025  13.978
60508W        W28981  19.127  43.865   1.245
60509W        W28982   7.382  12.656   4.648
60510W        W28983  43.835   2.269  14.372
60511W        W28984  16.603  13.222   3.721
60512W        W28985  32.590  40.404   1.808
60513W        W28986  36.063   0.360   4.830
60514W        W28987   3.894  10.839  11.896
60515W        W28988  30.609   1.419  11.413
60516W        W28989  15.196  15.145  14.973
60517W        W28990  10.340   5.872   1.799
60518W        W28991  44.390  19.236   0.258
60519W        W28992  37.863   7.230  13.874
60520W        W28993   1.413  39.504  11.393
60521W        W28994   1.268   7.393  13.815
60522W        W28995  36.057  27.533   0.787
60523W        W28996  19.749  21.686   2.231
60524W        W28997  33.912  44.762   0.478
60525W        W28998  24.502  20.622  12.953
60526W        W28999  27.564   4.420  11.560
60527W        W29000   3.804  29.585  11.076
60528W        W29001  12.712  12.662  14.391
60529W        W29002  12.853  25.681  13.908
60530W        W29003  33.041  17.106   3.322
60531W        W29004   5.242  39.976  14.829
60532W        W29005  44.500  31.628  11.937
60533W        W29006  34.486   0.974  13.852
60534W        W29007  44.903   5.250   3.309
60535W        W29008  36.068  21.710  12.488
60536W        W29009   3.768   5.710  13.896
60537W        W29010   6.854  26.578  12.904
60538W        W29011  25.100  23.038  13.856
60539W        W29012  15.755  25.082   3.674
60540W        W29013   0.763  40.435  13.546
60541W        W29014  13.242  33.595  13.382
60542W        W29015   2.942   6.883  12.413
60543W        W29016  42.922  26.147  12.868
60544W        W29017  42.996  37.919   2.831
60545W        W29018  40.980   1.435   3.765
60546W        W29019  25.624  39.327   2.297
60547W        W29020  28.447  16.096   0.883
60548W        W29021  26.487  20.618   0.917
60549W        W29022  25.078   4.801  14.928
60550W        W29023   5.765  31.568   4.734
60551W        W29024  22.144   7.834  12.438
60552W        W29025   0.748  29.451   0.917
60553W        W29026  37.524  16.258  10.911
60554W        W29027  23.121  19.673   0.399
60555W        W29028  43.362  43.318  13.926
60556W        W29029  13.637   8.739  14.769
60557W        W29030   5.907  13.201  12.918
60558W        W29031  19.201  15.618   4.133
60559W        W29032  32.571  10.332   0.409
60560W        W29033   3.801  28.085  14.467
60561W        W29034  12.708  15.184  12.966
60562W        W29035  19.246  28.959   1.900
60563W        W29036  39.417  27.153  11.397
60564W        W29037   5.215  17.612  11.871
60565W        W29038  36.050  15.761  14.843
60566W        W29039  24.633  22.639  14.499
60567W        W29040  26.580  32.480   1.726
60568W        W29041  22.615  27.493  14.970
60569W        W29042  38.851   0.793  13.834
60570W        W29043  22.191  13.152  13.019
60571W        W29044  38.886  20.045  11.949
60572W        W29045  31.577   4.256   0.795
60573W        W29046   4.886  16.224   4.637
60574W        W29047  20.249  15.671  14.287
60575W        W29048  37.513  19.226   1.792
60576W        W29049   8.358  25.093   2.318
60577W        W29050   7.246  25.971   1.814
60578W        W29051   8.322   5.839  12.356
60579W        W29052   5.399  13.326   2.690
60580W        W29053  35.471  27.158   2.868
60581W        W29054  13.289  10.276  10.623
60582W        W29055  12.297   7.666  13.351
60583W        W29056  19.621  17.245  11.473
60584W        W29057  22.641  35.391  14.489
60585W        W29058  26.654  38.395  10.472
60586W        W29059  16.161  14.806  10.504
60587W        W29060  15.305  13.733   2.778
60588W        W29061  20.154  26.971  14.879
60589W        W29062  38.565  42.029   1.767
60590W        W29063  17.130  44.377  10.459
60591W        W29064  20.621   7.859   4.223
60592W        W29065   8.303  27.498  13.412
60593W        W29066   9.815  42.523   0.392
60594W        W29067  18.688  21.582  12.973
60595W        W29068   5.893  10.356   3.231
60596W        W29069  44.883   4.881  12.061
60597W        W29070  37.972  28.122   4.318
60598W        W29071  22.586  21.081  14.949
60599W        W29072  22.507  14.122  13.326
60600W        W29073  18.088  12.751   4.666
60601W        W29074  24.593  13.140   2.330
60602W        W29075   6.232  31.479   3.375
60603W        W29076  18.589  17.591  11.609
60604W        W29077  10.213  11.338  10.632
60605W        W29078  15.213  17.159  13.927
60606W        W29079  32.987  13.278  12.003
60607W        W29080  37.995  10.299  12.020
60608W        W29081   4.936  16.609   2.888
60609W        W29082  12.223  22.709   3.337
60610W        W29083  13.325  20.246  10.926
60611W        W29084  44.806  21.131  10.082
60612W        W29085  27.561  17.172  11.016
60613W        W29086  24.024   0.473   3.754
60614W        W29087  21.653  33.999   4.602
60615W        W29088  36.035  16.660  11.942
60616W        W29089  35.546  20.557  14.975
60617W        W29090  29.590  27.021  12.930
60618W        W29091   9.730   1.922   1.813
60619W        W29092  29.936   6.695   0.481
60620W        W29093  23.520  31.931   1.755
60621W        W29094  19.060   9.808   0.255
60622W        W29095  23.080  33.937  10.992
60623W        W29096  28.502  21.614  13.038
60624W        W29097  32.562   1.752   4.303
60625W        W29098  23.201  32.629  12.917
60626W        W29099  37.910  18.684   0.473
60627W        W29100  10.641   4.329  10.407
60628W        W29101  30.547  29.568  12.026
60629W        W29102  10.653  19.045  14.330
60630W        W29103  20.230  16.742   3.783
60631W        W29104  42.820  41.883  11.531
60632W        W29105  37.989  43.290   4.322
60633W        W29106   5.850  26.660  12.987
60634W        W29107  21.545  12.362   9.994
60635W        W29108  15.224  35.438   2.701
60636W        W29109  18.715   4.288   2.270
60637W        W29110  37.385  31.149  12.555
60638W        W29111  10.827  34.414   2.822
60639W        W29112  29.930  35.552  11.375
60640W        W29113   2.839  44.472  13.893
60641W        W29114  41.968   8.835   0.854
60642W        W29115  22.583   4.789   0.321
60643W        W29116  22.192   2.795   3.767
60644W        W29117   7.770   0.898   5.133
60645W        W29118   6.819   3.813   1.413
60646W        W29119  44.296  44.401  11.938
60647W        W29120   2.762  39.320  12.500
60648W        W29121  21.262   0.772   0.885
60649W        W29122  30.419  41.390   0.772
60650W        W29123   6.362  19.243  12.528
60651W        W29124  14.257  42.009  12.463
60652W        W29125   8.402  11.704   0.359
60653W        W29126  38.449  10.144   2.417
60654W        W29127  10.691  16.208  11.428
60655W        W29128  38.457  25.008  11.020
60656W        W29129   0.446  32.067  10.484
60657W        W29130   8.780  17.211  14.378
60658W        W29131  12.148  18.173  13.329
60659W        W29132   6.776  18.705  12.885
60660W        W29133  19.127   0.819   0.841
60661W        W29134   7.195  35.886  10.416
60662W        W29135  44.982  12.199  14.831
60663W        W29136   3.380  17.629  11.544
60664W        W29137  16.171  37.009  13.991
60665W        W29138  28.153  32.452  12.435
60666W        W29139  39.953   9.348   0.320
60667W        W29140  43.503  19.185   3.744
60668W        W29141  39.011  25.969  10.920
60669W        W29142  44.001  21.700  14.797
60670W        W29143  34.021   6.684   1.277
60671W        W29144  26.961  26.565   2.295
60672W        W29145  43.486   1.844   2.770
60673W        W29146  36.373   4.762   0.285
60674W        W29147  39.560  16.190  14.413
60675W        W29148  28.490  41.955  12.570
60676W        W29149  15.676  30.146   4.211
60677W        W29150  42.852  42.323  10.930
60678W        W29151  27.183  13.334  11.054
60679W        W29152  31.000  21.519   1.809
60680W        W29153  10.308  40.899   2.366
60681W        W29154  25.607  13.653   2.201
60682W        W29155  27.182  18.277  10.421
60683W        W29156  33.422  21.537   4.608
60684W        W29157  31.604  17.792   2.237
60685W        W29158  30.581  36.989  10.443
60686W        W29159  29.462  29.486  13.315
60687W        W29160  36.056  10.697   4.663
60688W        W29161  29.476  35.061   4.797
60689W        W29162  24.981  28.485   1.290
60690W        W29163  16.664  31.499  12.377
60691W        W29164  22.732  18.190  11.418
60692W        W29165  35.912   2.749   0.895
60693W        W29166  32.547  28.134  14.769
60694W        W29167  16.607  28.490  11.079
60695W        W29168   1.360  41.866   3.324
60696W        W29169  40.804  33.078   2.857
60697W        W29170  29.645  14.132   1.440
60698W        W29171  44.972  15.652   3.289
60699W        W29172  23.618   1.743   4.205
60700W        W29173   1.437  41.312  11.983
60701W        W29174   6.341   6.704   2.868
60702W        W29175  19.699   1.737   0.745
60703W        W29176  14.136  40.526  11.113
60704W        W29177   2.919   9.743   4.797
60705W        W29178  35.852  44.484  10.922
60706W        W29179   2.928   6.229   2.417
60707W        W29180  20.698  42.826   0.736
60708W        W29181  36.571  32.480   0.854
60709W        W29182  14.235  21.531   4.759
60710W        W29183  22.029  29.550   2.273
60711W        W29184   8.268  32.403  13.797
60712W        W29185  20.043  30.136   3.866
60713W        W29186  13.344  21.164   4.126
60714W        W29187   0.950  16.272  14.782
60715W        W29188   5.702   8.874   4.725
60716W        W29189  37.403  44.468   3.735
60717W        W29190  23.165  23.089  10.437
60718W        W29191  17.633  13.338   0.848
60719W        W29192  11.263  12.699  10.553
60720W        W29193  44.991   9.847   1.382
60721W        W29194  20.116  11.294  11.115
60722W        W29195  43.384  34.424   4.241
60723W        W29196  40.458  29.933   0.809
60724W        W29197  44.485  27.981   2.313
60725W        W29198  19.655   2.881  11.023
60726W        W29199  20.759   2.395   3.326
60727W        W29200  41.939  41.352   2.203
60728W        W29201   4.775  35.421  10.924
60729W        W29202   1.468  22.702  11.093
60730W        W29203  28.066  21.138   2.292
60731W        W29204  23.623  32.072   4.618
60732W        W29205   5.285  34.966  14.407
60733W        W29206   1.374  41.379  14.420
60734W        W29207  29.511   5.764   0.253
60735W        W29208  27.141  39.857  12.531
60736W        W29209   3.835   4.703   0.738
60737W        W29210  36.515   8.744   0.441
60738W        W29211   7.197  36.488  10.507
60739W        W29212  15.587  43.986   4.292
60740W        W29213  16.108  17.638  13.346
60741W        W29214   0.356  44.890  12.558
60742W        W29215  16.140   7.186  13.471
60743W        W29216  38.994  40.339   3.855
60744W        W29217  40.859  26.500  13.917
60745W        W29218  37.412  25.488   1.355
60746W        W29219   6.792  42.483  10.978
60747W        W29220  14.112   2.804  10.953
60748W        W29221  21.658  31.140  12.503
60749W        W29222  25.015   3.747  14.453
60750W        W29223  38.041  43.492   3.841
60751W        W29224  32.422  26.990  12.017
60752W        W29225  44.858  30.954  14.876
60753W        W29226  39.857  16.077   3.849
60754W        W29227   6.308  20.091   4.317
60755W        W29228  24.118  37.340   0.857
60756W        W29229  14.248  13.223  13.817
60757W        W29230  16.116  39.810   2.298
60758W        W29231  10.763  20.243   1.832
60759W        W29232  31.939  12.247  13.880
60760W        W29233  11.746  12.787  14.984
60761W        W29234  14.248  17.749  10.566
60762W        W29235  23.214   9.798   0.817
60763W        W29236  30.113  12.283   2.388
60764W        W29237  17.083  16.699   1.450
60765W        W29238  25.973  39.500   3.346
60766W        W29239  35.538  38.391   0.777
60767W        W29240  23.504  40.019   1.767
60768W        W29241  21.608  42.351   1.768
60769W        W29242   9.830  30.589   1.398
60770W        W29243  22.152  30.931  14.314
60771W        W29244  43.788  21.593   2.377
60772W        W29245  39.867   2.813   0.838
60773W        W29246  20.101   9.888  14.435
60774W        W29247  16.110  38.024   0.826
60775W        W29248  12.714  34.025   1.707
60776W        W29249  23.997  12.347   2.796
60777W        W29250  24.226  23.148   1.830
60778W        W29251  29.044  19.613   2.851
60779W        W29252  16.786  35.464   1.423
60780W        W29253  15.758  24.577   0.367
60781W        W29254  37.077  23.703  11.567
60782W        W29255   7.378  16.076   1.276
60783W        W29256  32.440  25.164   4.728
60784W        W29257  23.191  28.633  14.031
60785W        W29258  35.583  30.511  12.558
60786W        W29259  35.078   9.198  13.491
60787W        W29260  30.961  44.817  11.939
60788W        W29261  10.379  25.217   2.179
60789W        W29262  19.667  14.731   2.222
60790W        W29263  24.652  15.804  12.518
60791W        W29264  22.668  11.250   4.249
60792W        W29265  23.212   8.283  13.974
60793W        W29266  42.385  24.173  13.947
60794W        W29267  16.263  33.082  11.396
60795W        W29268  10.798  18.087   3.286
60796W        W29269   4.897  35.076   5.316
60797W        W29270  42.846  43.368  12.006
60798W        W29271  26.545  32.996  12.977
60799W        W29272  30.074   1.929  14.399
60800W        W29273  33.985  26.016  12.355
60801W        W29274  36.983  25.596  13.456
60802W        W29275  30.149  16.785  11.029
60803W        W29276   4.382  21.185   3.355
60804W        W29277  28.102  33.495   4.226
60805W        W29278   9.883   8.337   2.333
60806W        W29279   8.883  12.638  10.468
60807W        W29280  37.356  36.362   4.785
60808W        W29281  15.225   1.295  13.856
60809W        W29282  25.205   5.316   4.142
60810W        W29283   6.829  20.037   1.363
60811W        W29284  12.132  28.169  11.075
60812W        W29285  19.266  34.968   1.334
60813W        W29286  18.143  42.489   1.861
60814W        W29287  13.196  36.076  10.515
60815W        W29288  23.095  19.655   2.728
60816W        W29289   6.377  28.543   0.934
60817W        W29290  31.405  43.810  14.814
60818W        W29291   6.183  35.858  10.609
60819W        W29292  41.026  40.460  14.368
60820W        W29293   1.819  10.325  10.524
60821W        W29294  38.907   5.208   0.771
60822W        W29295  31.908  20.250   0.355
60823W        W29296  43.851  39.442   1.317
60824W        W29297   0.362  30.105  11.919
60825W        W29298  36.572  38.852   4.631
60826W        W29299  40.350  16.298  10.995
60827W        W29300  41.882   1.759   3.753
60828W        W29301   5.390  35.977  12.979
60829W        W29302   5.917   4.883  12.508
60830W        W29303  27.664  25.028   1.876
60831W        W29304  31.949  23.614   3.311
60832W        W29305  32.015  33.591   0.404
60833W        W29306  37.353  30.568  14.502
60834W        W29307   0.389  31.624   1.309
60835W        W29308   7.246  11.687  11.612
60836W        W29309   2.249  20.118  11.053
60837W        W29310   1.965  44.779  12.513
60838W        W29311  25.016  32.636   0.383
60839W        W29312  40.501  38.401  11.426
60840W        W29313  42.018  37.021  13.393
60841W        W29314  18.559  19.583   1.372
60842W        W29315  36.399  19.568   4.290
60843W        W29316  25.584   7.711   2.843
60844W        W29317  30.154  32.984   0.269
60845W        W29318  34.534  20.649   1.380
60846W        W29319   4.397  28.494  13.353
60847W        W29320  13.347   0.952  12.069
60848W        W29321  22.023  13.301   4.219
60849W        W29322   9.758  21.550   0.907
60850W        W29323  23.087  24.063   0.873
60851W        W29324  16.244   0.316  11.119
60852W        W29325   6.796  43.829   4.680
60853W        W29326  32.106  29.113   2.739
60854W        W29327  36.498  22.717   2.270
60855W        W29328  28.057  39.005  11.895
60856W        W29329  44.343   9.766   3.150
60857W        W29330  20.104  17.119   0.336
60858W        W29331  16.764  16.693  13.408
60859W        W29332   0.947  14.166  10.970
60860W        W29333  13.836  27.966  13.010
60861W        W29334  18.679  20.666  10.514
60862W        W29335  21.025   2.929  11.577
60863W        W29336  42.456   2.731  14.825
60864W        W29337   4.420  25.652   0.760
60865W        W29338   3.317  39.057   0.896
60866W        W29339   4.330  20.693   1.321
60867W        W29340  41.311  41.838  13.548
60868W        W29341  15.773   9.788  11.006
60869W        W29342  21.627  29.175   0.812
60870W        W29343  18.773  39.981  11.004
60871W        W29344  35.095  11.332   0.953
60872W        W29345  20.096   0.322   1.862
60873W        W29346   3.307  21.054   3.282
60874W        W29347  41.896  27.604   3.284
60875W        W29348   0.862  26.956  12.887
60876W        W29349  37.387  29.924  10.900
60877W        W29350  44.931  40.002  11.967
60878W        W29351  11.723  29.582  11.017
60879W        W29352  19.103  21.260  13.009
60880W        W29353  14.195  39.975  12.408
60881W        W29354  19.729  25.662  12.873
60882W        W29355  15.188  23.491  10.921
60883W        W29356  11.712  19.103  11.055
60884W        W29357   2.346  44.009  13.910
60885W        W29358  29.525  33.889  11.520
60886W        W29359  11.177  34.436  10.601
60887W        W29360  14.646  29.945  13.825
60888W        W29361  33.917  40.472  14.298
60889W        W29362  15.265   7.667   4.666
60890W        W29363  43.764  17.588  11.451
60891W        W29364  12.294   3.793   3.659
60892W        W29365  24.054  10.664  14.888
60893W        W29366  34.416  35.407   4.787
60894W        W29367  27.473  35.096  14.817
60895W        W29368  17.719  15.200   4.163
60896W        W29369  40.900  43.768   2.368
60897W        W29370   5.880  14.215  14.378
60898W        W29371  44.804  30.093  14.989
60899W        W29372  28.001  14.315  12.359
60900W        W29373  13.305  24.696   0.926
60901W        W29374   3.361  19.654   3.784
60902W        W29375  28.593  30.929  10.521
60903W        W29376   1.301  40.879   4.682
60904W        W29377   2.830  32.090  10.960
60905W        W29378  29.649  28.072  13.314
60906W        W29379  18.243  33.905   3.334
60907W        W29380  10.175  13.788   0.804
60908W        W29381  25.088  10.211  10.051
60909W        W29382  26.638  32.948   2.232
60910W        W29383  30.614  11.852  10.591
60911W        W29384  17.789   1.885  11.470
60912W        W29385  15.280  33.495  14.483
60913W        W29386  10.781  12.844  14.894
60914W        W29387  34.047  28.502  14.015
60915W        W29388  42.310  20.761  13.535
60916W        W29389  15.801  35.980   0.965
60917W        W29390  30.128  29.085  12.413
60918W        W29391   6.808  19.225  10.487
60919W        W29392  11.848  27.132   0.289
60920W        W29393  18.786  35.902   0.359
60921W        W29394   2.387  36.924   3.290
60922W        W29395  21.524  37.516   0.254
60923W        W29396   6.689   8.706  11.608
60924W        W29397  27.607   2.897  10.508
60925W        W29398  44.418   2.961   2.721
60926W        W29399  13.145  18.738  12.004
60927W        W29400   0.955  44.921   0.387
60928W        W29401  43.284  14.177  13.473
60929W        W29402  42.495  39.882   4.149
60930W        W29403  35.451  13.180  12.046
60931W        W29404  23.150  19.156   1.707
60932W        W29405  39.387  18.082  14.444
60933W        W29406  36.523  38.433  12.865
60934W        W29407  38.868   3.302   2.756
60935W        W29408  15.300  32.007   3.148
60936W        W29409  31.580   4.782   4.748
60937W        W29410  40.503  20.089   0.250
60938W        W29411  20.134  20.544   3.194
60939W        W29412  31.471  26.043  14.966
60940W        W29413  26.094   2.408   4.245
60941W        W29414   4.332  11.722  11.021
60942W        W29415  23.140  23.221   4.602
60943W        W29416  13.765  19.696  10.625
60944W        W29417   2.296  30.471  14.383
60945W        W29418   2.264  40.315   0.821
60946W        W29419  14.184  44.762   3.199
60947W        W29420   0.476  25.196  14.829
60948W        W29421  43.473   9.708  13.416
60949W        W29422  23.995   7.206   3.779
60950W        W29423  11.731  20.220  11.021
60951W        W29424  18.233  31.566  13.316
60952W        W29425  18.148  35.870   0.764
60953W        W29426  34.976  39.359   3.698
60954W        W29427  43.802   7.307  12.045
60955W        W29428   2.321   7.720   0.326
60956W        W29429  37.904  20.211   1.705
60957W        W29430  43.291  26.084   2.229
60958W        W29431  36.041   9.259  14.464
60959W        W29432  20.257  26.153   3.245
60960W        W29433  43.378   8.777  14.992
60961W        W29434   0.396  31.401   1.793
60962W        W29435  11.209   7.894  11.467
60963W        W29436  27.474   4.896  14.492
60964W        W29437  30.565  18.058  12.970
60965W        W29438  29.566  23.609  11.076
60966W        W29439  44.908  40.901   4.679
60967W        W29440  23.537  18.594  12.859
60968W        W29441  39.829  11.704  11.885
60969W        W29442   0.746  38.015  13.411
60970W        W29443   7.353  21.733  11.571
60971W        W29444  22.037   1.865   1.854
60972W        W29445  23.155  42.457  12.385
60973W        W29446  39.023   4.800   4.226
60974W        W29447  34.567  26.548   0.774
60975W        W29448   3.828  38.434   2.769
60976W        W29449  33.955  34.570  13.529
60977W        W29450  36.417  23.177   1.344
60978W        W29451  37.516  42.318  11.945
60979W        W29452  19.269  25.537   0.837
60980W        W29453   1.817  44.368   2.359
60981W        W29454  30.135   5.211   2.194
60982W        W29455  36.379  21.193  14.397
60983W        W29456  23.025  13.318  12.530
60984W        W29457  27.487   3.913  11.389
60985W        W29458  14.696  25.075   3.636
60986W        W29459  15.783  35.588  14.453
60987W        W29460  43.016  25.491   3.352
60988W        W29461  15.580   3.800   2.286
60989W        W29462   4.855   9.819  13.314
60990W        W29463  21.114  21.109  14.901
60991W        W29464  20.082   7.175  11.912
60992W        W29465  36.349   0.340  14.411
60993W        W29466  18.191  13.789   3.803
60994W        W29467  41.314  21.513  10.995
60995W        W29468   7.712  36.067  14.768
60996W        W29469  26.649   2.243   3.225
60997W        W29470  38.984  16.201  12.423
60998W        W29471  16.090   6.366   0.331
60999W        W29472  36.565  13.233   1.248
61000W        W29473   3.928  20.545  14.885
61001W        W29474  27.645  10.305  14.473
61002W        W29475  36.469  28.126  10.140
61003W        W29476  43.887  14.617  12.064
61004W        W29477  13.335   3.401   1.242
61005W        W29478  23.729  44.265  13.905
61006W        W29479  34.430   8.693   1.232
61007W        W29480  36.994  34.459   0.886
61008W        W29481  19.605  13.210   2.181
61009W        W29482  41.410   3.230  13.545
61010W        W29483  42.290  28.569   3.629
61011W        W29484   3.771  15.126   4.203
61012W        W29485   0.331  25.540  12.910
61013W        W29486  43.947  27.123  12.951
61014W        W29487   1.305  43.767  11.892
61015W        W29488   5.688  30.995   0.471
61016W        W29489   7.679   0.412   4.718
61017W        W29490   8.844   4.755  10.126
61018W        W29491  29.932  42.527   1.797
61019W        W29492  17.757   2.720  11.607
61020W        W29493  30.118   0.269  12.056
61021W        W29494  36.431  37.519   3.859
61022W        W29495  18.067  29.061  12.083
61023W        W29496  27.587  44.837  10.974
61024W        W29497   2.756  35.963   2.757
61025W        W29498  31.988   1.378   4.689
61026W        W29499  19.094   9.202   2.275
61027W        W29500   5.930   4.363  12.922
61028W        W29501  17.762   8.732   4.830
61029W        W29502   1.287   2.470  10.502
61030W        W29503  12.213  19.110   2.813
61031W        W29504  16.666   1.445   0.411
61032W        W29505  10.151  29.462   0.268
61033W        W29506  37.854  11.729   4.638
61034W        W29507  32.498  18.687   1.922
61035W        W29508  11.673   4.306  14.949
61036W        W29509   0.827  39.993   2.862
61037W        W29510   9.695  25.113   5.570
61038W        W29511  38.475  29.518   4.202
61039W        W29512  34.546  25.593  14.338
61040W        W29513  23.049  11.185  14.312
61041W        W29514  17.203  17.762   0.906
61042W        W29515  30.619  32.510   0.840
61043W        W29516  21.522  33.028  13.517
61044W        W29517  22.518  34.505   0.780
61045W        W29518  16.293  18.159   1.288
61046W        W29519   3.718  39.332  13.502
61047W        W29520  37.892  33.543   1.280
61048W        W29521   4.786   0.803   0.403
61049W        W29522  33.404  35.435   5.112
61050W        W29523  26.086  28.968   0.370
61051W        W29524  28.610  27.531   1.382
61052W        W29525  36.375  21.193  11.886
61053W        W29526   5.906  28.486  11.606
61054W        W29527  15.754  30.069  11.581
61055W        W29528  39.849   8.776  12.415
61056W        W29529   8.183  24.719   4.181
61057W        W29530  20.637   6.875   0.242
61058W        W29531  27.973   9.380   1.222
61059W        W29532  24.014  21.564  11.554
61060W        W29533  25.034  17.640  12.972
61061W        W29534  37.488  36.553   5.299
61062W        W29535  21.078  37.518  11.542
61063W        W29536   5.758  38.566  10.449
61064W        W29537  37.340  22.079  11.446
61065W        W29538  33.549  13.293  13.513
61066W        W29539  41.991  36.467  13.469
61067W        W29540  35.398  11.142   1.930
61068W        W29541  30.111  27.997   0.466
61069W        W29542  23.726   1.938  14.844
61070W        W29543  18.656  12.848   5.317
61071W        W29544  33.075  11.284   3.150
61072W        W29545  39.912  38.442  12.969
61073W        W29546   7.379  24.665   0.277
61074W        W29547  43.903  44.290  12.930
61075W        W29548   5.304  40.845   1.712
61076W        W29549  39.967  44.900   3.305
61077W        W29550  12.342   8.368   0.819
61078W        W29551   6.221   4.765   5.171
61079W        W29552   6.195   2.778  13.793
61080W        W29553  43.321  30.643  14.967
61081W        W29554  42.484  41.458  12.459
61082W        W29555  23.219   5.881   4.754
61083W        W29556  26.163   5.303   1.838
61084W        W29557  37.962  22.721   4.302
61085W        W29558  40.455  21.261   4.157
61086W        W29559  13.689  11.806  12.012
61087W        W29560  21.527   0.307   0.306
61088W        W29561  26.141  24.647   2.712
61089W        W29562  24.112  24.005  14.504
61090W        W29563  17.782   9.869   4.780
61091W        W29564   6.248  39.894  13.016
61092W        W29565  17.560  13.741   1.721
61093W        W29566  43.772  44.827   3.755
61094W        W29567  16.568   6.303   1.736
61095W        W29568  15.759   2.452  13.914
61096W        W29569  27.679  35.485   1.917
61097W        W29570  28.630  36.466  12.847
61098W        W29571  43.501  15.671   2.321
61099W        W29572  16.812  18.135   1.373
61100W        W29573  26.203  40.472  10.908
61101W        W29574  25.046  32.540   1.766
61102W        W29575  18.767   4.281   3.714
61103W        W29576  15.101  30.510   2.877
61104W        W29577  24.202   3.849  13.482
61105W        W29578   2.263  35.379   0.414
61106W        W29579  24.575   7.342  10.543
61107W        W29580  11.640  44.822  14.807
61108W        W29581   6.314  34.465  11.575
61109W        W29582  12.235   7.823  13.029
61110W        W29583   7.187  29.930   0.791
61111W        W29584  18.233  26.096  13.974
61112W        W29585  24.090  22.531  12.570
61113W        W29586  11.300  12.202  11.585
61114W        W29587  28.180  10.269   2.185
61115W        W29588  17.200  23.644   4.651
61116W        W29589  23.072  13.198  14.949
61117W        W29590  30.911   6.274  14.966
61118W        W29591  42.427   4.385  14.022
61119W        W29592  23.004  36.025  14.867
61120W        W29593   6.203  23.680  10.067
61121W        W29594  28.048  37.969  10.573
61122W        W29595  37.930  21.101   1.328
61123W        W29596  43.918  19.568  13.828
61124W        W29597   7.903  43.428  11.054
61125W        W29598  19.251   1.922  14.854
61126W        W29599  25.513  20.525  11.900
61127W        W29600  33.461  44.302  13.495
61128W        W29601   1.879  38.957  12.406
61129W        W29602  32.007  41.946   3.755
61130W        W29603  44.977  39.438   1.857
61131W        W29604  12.705   6.378  14.317
61132W        W29605  37.867  17.201  11.506
61133W        W29606  15.231  33.574   4.634
61134W        W29607  22.737   0.343  13.925
61135W        W29608   7.906  28.977  13.488
61136W        W29609  15.694  36.413  10.542
61137W        W29610   7.802  20.577  11.447
61138W        W29611  24.532  16.603   4.838
61139W        W29612  43.515   4.769  10.922
61140W        W29613   8.294  42.841  11.959
61141W        W29614  13.722  29.514  12.070
61142W        W29615  19.059  23.710  12.066
61143W        W29616  16.621  30.656   1.264
61144W        W29617  26.574  14.751  11.420
61145W        W29618  22.186   3.752  10.413
61146W        W29619  13.707  31.628  14.477
61147W        W29620   9.169  38.901   0.745
61148W        W29621  38.465  13.758   4.212
61149W        W29622  28.597  37.953   4.253
61150W        W29623  31.991   1.856  10.640
61151W        W29624  36.441  33.981   2.784
61152W        W29625  10.363   5.411  10.620
61153W        W29626   2.287  17.711  10.587
61154W        W29627  27.587   0.487   3.297
61155W        W29628   2.879  27.999   3.348
61156W        W29629  36.878   6.353   0.896
61157W        W29630  14.209  32.425   1.925
61158W        W29631  19.576  27.112  10.902
61159W        W29632  18.698  15.205   4.635
61160W        W29633  18.233  17.271   4.329
61161W        W29634  40.461  39.486  12.579
61162W        W29635  37.522   4.438   1.852
61163W        W29636  12.779  16.107  12.530
61164W        W29637   6.747  37.523  10.898
61165W        W29638  38.943  25.072   2.356
61166W        W29639  24.188  23.030   2.805
61167W        W29640  29.010  12.686  13.835
61168W        W29641  16.764  38.012  12.850
61169W        W29642  22.571  43.465  12.980
61170W        W29643  24.683  42.287   3.253
61171W        W29644  43.407  30.582  13.961
61172W        W29645  24.119  31.146  14.274
61173W        W29646  31.093  23.112   2.738
61174W        W29647  10.700  11.848   3.828
61175W        W29648   4.351  43.348  11.061
61176W        W29649  31.899  11.158   1.840
61177W        W29650  34.055  37.408   4.122
61178W        W29651  42.371  35.361   3.291
61179W        W29652  25.571  38.433  12.514
61180W        W29653  19.728  40.489   4.130
61181W        W29654  16.279   4.884   0.835
61182W        W29655  14.277  25.579  13.055
61183W        W29656  12.225  24.501  14.443
61184W        W29657  36.487  27.653   4.329
61185W        W29658  32.535  27.987   1.428
61186W        W29659   3.739  29.558   4.264
61187W        W29660  28.965   0.827  14.501
61188W        W29661  34.071  41.511  10.568
61189W        W29662  14.636  39.468   0.956
61190W        W29663  42.485  32.412  11.886
61191W        W29664  25.212  24.171  13.023
61192W        W29665  14.590  40.027   0.815
61193W        W29666  38.925   9.678   2.811
61194W        W29667  29.950  16.598   4.767
61195W        W29668  42.825  15.206  14.316
61196W        W29669   8.237  18.206   3.688
61197W        W29670  41.842  13.342   2.266
61198W        W29671  36.951   6.897  12.403
61199W        W29672  39.313  32.962  12.914
61200W        W29673  40.932  16.761   0.419
61201W        W29674  27.449  21.543  10.508
61202W        W29675  37.363  34.982  12.508
61203W        W29676  43.971   1.801   1.786
61204W        W29677  36.925  19.199  10.426
61205W        W29678  26.956  24.656   1.771
61206W        W29679  39.030  13.766  12.955
61207W        W29680   8.230   7.841   4.674
61208W        W29681   7.710  18.203  14.491
61209W        W29682   2.280  19.744   0.740
61210W        W29683   8.886   0.889   4.678
61211W        W29684  38.488  40.399   4.698
61212W        W29685  26.049  14.094   0.726
61213W        W29686   9.795  13.329  11.500
61214W        W29687  43.326  10.246   5.100
61215W        W29688  34.437  28.633  11.449
61216W        W29689  42.856  22.722   2.387
61217W        W29690  28.470  31.483  11.045
61218W        W29691  27.477  14.680   4.338
61219W        W29692  19.207   5.352   2.712
61220W        W29693  28.633  37.951   3.200
61221W        W29694  36.041  30.525  11.047
61222W        W29695  33.903  29.451   3.254
61223W        W29696  18.627  16.621   2.903
61224W        W29697   5.878  19.685   4.348
61225W        W29698  36.009  10.291  13.336
61226W        W29699  40.946  44.788   0.928
61227W        W29700  23.518  12.280   2.314
61228W        W29701  21.105  11.722   3.857
61229W        W29702  38.451   5.311  13.439
61230W        W29703  14.155  16.769   3.864
61231W        W29704  18.155  16.738   3.269
61232W        W29705  32.910  17.801   0.819
61233W        W29706  29.621  26.998  13.986
61234W        W29707  20.558  31.020  14.363
61235W        W29708  12.809  31.512   2.852
61236W        W29709  28.038  38.008   4.182
61237W        W29710  19.216  10.372  12.007
61238W        W29711  10.860  28.094  12.347
61239W        W29712  12.624  29.928  13.948
61240W        W29713   1.281  31.908   0.277
61241W        W29714   4.282  41.947   3.293
61242W        W29715  17.128  41.420  10.128
61243W        W29716  18.605  19.171  10.899
61244W        W29717  10.192  19.633   2.362
61245W        W29718  14.174   8.188  14.804
61246W        W29719  19.677  18.101   3.653
61247W        W29720  40.439  41.385  13.394
61248W        W29721  33.424  25.641  11.004
61249W        W29722  13.184  33.459   5.132
61250W        W29723  28.154  29.994   0.953
61251W        W29724  38.820   6.887  10.483
61252W        W29725  11.169  12.320  12.085
61253W        W29726  15.226  22.195  14.944
61254W        W29727  21.139  38.421  14.315
61255W        W29728  12.729   3.266   4.706
61256W        W29729   9.873   8.694  12.907
61257W        W29730  31.529  41.502   0.399
61258W        W29731  16.615  18.724   4.650
61259W        W29732   0.467   0.360   0.390
61260W        W29733  39.054   1.848  11.531
61261W        W29734  25.147  16.689   2.311
61262W        W29735   9.354  26.653  13.329
61263W        W29736  38.325   8.293  11.076
61264W        W29737   0.477  19.704   1.449
61265W        W29738  34.570  10.811   0.805
61266W        W29739  40.957  15.747   1.864
61267W        W29740  34.459   1.747   3.290
61268W        W29741   5.783  28.529   1.437
61269W        W29742  22.053  10.692  11.426
61270W        W29743  20.243  23.185  14.411
61271W        W29744   6.231  33.039  11.593
61272W        W29745  20.255  19.054   0.887
61273W        W29746  38.035  27.597   2.903
61274W        W29747   6.743  44.769  11.863
61275W        W29748  16.606  44.410  12.945
61276W        W29749  37.370  22.729  14.789
61277W        W29750  40.439  44.886   3.720
61278W        W29751  20.233  42.377  11.064
61279W        W29752  30.045  15.811   3.748
61280W        W29753  17.121  17.577   4.725
61281W        W29754  22.682  22.536  14.014
61282W        W29755  35.050   5.418  12.997
61283W        W29756   3.380  33.051   2.868
61284W        W29757  37.944  44.380  13.538
61285W        W29758  23.692   1.348   2.876
61286W        W29759   2.378  42.792  13.492
61287W        W29760   7.367  12.341  10.952
61288W        W29761  33.415  41.967   2.721
61289W        W29762  25.693  43.000  13.015
61290W        W29763   1.917   0.469  10.959
61291W        W29764  31.643  44.422   3.679
61292W        W29765  42.960   8.193   1.395
61293W        W29766   2.939  26.626   2.772
61294W        W29767   5.297  25.089   1.364
61295W        W29768   8.321  30.651  12.356
61296W        W29769  29.973  10.258  11.523
61297W        W29770  37.002   8.317  12.085
61298W        W29771  32.115  41.446   9.586
61299W        W29772  20.622  43.952  11.405
61300W        W29773  32.577   5.340   2.897
61301W        W29774  15.646  18.710  11.445
61302W        W29775  18.103  11.678  12.373
61303W        W29776  18.170  14.307   1.447
61304W        W29777   4.390  42.872   3.347
61305W        W29778   1.829  30.486   1.271
61306W        W29779  36.367   8.891  13.876
61307W        W29780  33.601   4.305   2.231
61308W        W29781  13.623   5.694   0.742
61309W        W29782   0.898  36.432   2.888
61310W        W29783  18.061  30.011  12.087
61311W        W29784   8.686  23.213  12.866
61312W        W29785   3.821   8.235   3.290
61313W        W29786  42.472   5.713   4.657
61314W        W29787  24.530  32.524   1.444
61315W        W29788  19.615  35.517   2.729
61316W        W29789   6.859  40.496  13.941
61317W        W29790   2.253  16.773   4.669
61318W        W29791  28.093  26.469   0.278
61319W        W29792  42.285  34.080  10.967
61320W        W29793  13.167   7.766   2.268
61321W        W29794  37.900  21.721  14.328
61322W        W29795  14.260   5.729   3.195
61323W        W29796  40.018  41.826  13.357
61324W        W29797  29.493  40.891  14.768
61325W        W29798  12.816  27.692  13.441
61326W        W29799   7.773  18.687  12.025
61327W        W29800  36.385   5.411  14.365
61328W        W29801  33.070  15.105   4.662
61329W        W29802   5.205  31.577   1.827
61330W        W29803  31.054   2.353  14.872
61331W        W29804  25.614  44.796  14.939
61332W        W29805   6.910  37.932  13.336
61333W        W29806  23.585  31.415  13.897
61334W        W29807  39.374  24.108  10.581
61335W        W29808  25.667   0.826  11.127
61336W        W29809  27.108  32.635  10.580
61337W        W29810   8.842  33.116   2.826
61338W        W29811  38.075  42.465  11.893
61339W        W29812  27.577  15.637  12.861
61340W        W29813  32.024   9.675   2.780
61341W        W29814  30.980   6.320  10.040
61342W        W29815  11.240  35.603   5.298
61343W        W29816  12.796  10.644   3.361
61344W        W29817   1.442  11.158   1.873
61345W        W29818   4.208  29.980  12.356
61346W        W29819  26.682   9.232   2.661
61347W        W29820  18.153  31.961  14.993
61348W        W29821  31.013  26.524  10.479
61349W        W29822  35.522  44.463   3.337
61350W        W29823  32.120   7.776  12.418
61351W        W29824   4.869  20.085  13.398
61352W        W29825  33.946  28.975   4.351
61353W        W29826  10.801  39.958   2.829
61354W        W29827   9.395  40.483  10.529
61355W        W29828  36.457  24.584   0.304
61356W        W29829  26.595  11.248  10.591
61357W        W29830  24.551  16.632  13.431
61358W        W29831  44.484  12.641   4.322
61359W        W29832  41.816  16.300  14.863
61360W        W29833  14.701  36.953   4.147
61361W        W29834  32.053  17.210   1.450
61362W        W29835   8.280   0.391   0.249
61363W        W29836  41.430  32.552  13.938
61364W        W29837  41.959  29.965  11.088
61365W        W29838   8.160   9.752  10.976
61366W        W29839  20.765  41.531   4.737
61367W        W29840  21.130  40.444   4.236
61368W        W29841   8.720  23.169   1.735
61369W        W29842  22.565  11.309   0.430
61370W        W29843   8.798  10.848   2.876
61371W        W29844  18.175  36.484   3.276
61372W        W29845   0.940  37.558   3.291
61373W        W29846  33.925  11.685   3.818
61374W        W29847  34.389  31.520   1.866
61375W        W29848  36.017  21.674  12.065
61376W        W29849  42.484   4.823   4.671
61377W        W29850  43.407  36.443   4.802
61378W        W29851   0.890   5.320  13.869
61379W        W29852  14.305  19.689  12.953
61380W        W29853  30.031  39.886   3.227
61381W        W29854  42.495   5.345  11.516
61382W        W29855  14.246   6.772  10.458
61383W        W29856  38.965  17.191  11.945
61384W        W29857  29.515  39.949   4.645
61385W        W29858  41.040  14.746   1.699
61386W        W29859  26.987  20.714  11.389
61387W        W29860   1.813   4.785   1.933
61388W        W29861  34.042  20.652   2.740
61389W        W29862   4.321  28.117  12.084
61390W        W29863  10.812  30.020   2.830
61391W        W29864  11.230   2.335   2.723
61392W        W29865  38.517  29.543   2.713
61393W        W29866  11.362  29.170   3.629
61394W        W29867  21.679   8.740  11.118
61395W        W29868  30.160  36.001   0.915
61396W        W29869  26.496  26.627   3.153
61397W        W29870  14.267  10.836  13.418
61398W        W29871  43.341  41.007   3.751
61399W        W29872  21.084  29.427  12.904
61400W        W29873  42.375  39.906   3.687
61401W        W29874  43.884   8.745  11.121
61402W        W29875  29.069  28.599   2.385
61403W        W29876  18.271  21.600  11.916
61404W        W29877  11.143  37.370   0.350
61405W        W29878   5.255  41.386  12.400
61406W        W29879  26.628  26.196   1.265
61407W        W29880  31.912  40.423  10.620
61408W        W29881  37.955   6.858   4.317
61409W        W29882   0.846   5.719  13.495
61410W        W29883  11.268  44.307   4.192
61411W        W29884  33.052  25.159   4.617
61412W        W29885   6.370  22.023   2.229
61413W        W29886  18.762   5.829  11.558
61414W        W29887  19.705  15.725   2.190
61415W        W29888  24.084  22.737  11.068
61416W        W29889  34.002  31.024  14.484
61417W        W29890  32.515  26.666   5.121
61418W        W29891  40.022  40.441   0.328
61419W        W29892  34.454  37.571  13.980
61420W        W29893  20.666  10.371   4.201
61421W        W29894  37.916  30.989  14.426
61422W        W29895   7.173  15.718  11.030
61423W        W29896  22.215  19.547  14.849
61424W        W29897  40.901  39.506   1.930
61425W        W29898  33.109  31.456  14.496
61426W        W29899  14.610  23.176  12.045
61427W        W29900  18.116   7.693  10.516
61428W        W29901  31.088   3.939   4.213
61429W        W29902  22.717  24.123   5.221
61430W        W29903   0.320  43.297   1.259
61431W        W29904  41.340  25.703  13.902
61432W        W29905  11.322   0.472   0.787
61433W        W29906  13.137  32.036   2.700
61434W        W29907  21.133  23.140   0.761
61435W        W29908   8.828   5.307   1.316
61436W        W29909  29.031  27.158   4.833
61437W        W29910  11.666  25.501  12.077
61438W        W29911  40.483  32.615   2.248
61439W        W29912  36.905  29.143   2.213
61440W        W29913   2.357  10.702  13.015
61441W        W29914  20.225  40.314   2.336
61442W        W29915   9.835  22.626   1.881
61443W        W29916  16.733  16.183  11.425
61444W        W29917  26.550  35.964  10.115
61445W        W29918  10.231  10.305  11.564
61446W        W29919  32.587  19.592   1.446
61447W        W29920   8.861  22.193   1.354
61448W        W29921  25.054  10.737   4.777
61449W        W29922  16.127  40.824   2.854
61450W        W29923  23.694  11.822  10.920
61451W        W29924  36.537  22.522  14.490
61452W        W29925  40.355  15.727  14.467
61453W        W29926  40.505  23.709  10.098
61454W        W29927  37.858  31.413  10.930
61455W        W29928  25.153   0.873  13.961
61456W        W29929  20.601  33.498  13.372
61457W        W29930  21.674  11.345   4.262
61458W        W29931  22.232  38.866  13.943
61459W        W29932   2.380   5.881  12.070
61460W        W29933   9.844   0.919   4.765
61461W        W29934  16.786  35.425  12.875
61462W        W29935   2.472  33.960  12.457
61463W        W29936  44.951  41.298  14.942
61464W        W29937  24.613  27.574   0.763
61465W        W29938  32.018  22.693   4.335
61466W        W29939  43.273  31.938   1.429
61467W        W29940  24.048   7.388  11.597
61468W        W29941   8.685   4.868   3.660
61469W        W29942  43.949  33.462  10.432
61470W        W29943  15.279  14.119  13.966
61471W        W29944   4.353  38.016  14.977
61472W        W29945  10.822  23.238   4.715
61473W        W29946  19.137  11.627  12.955
61474W        W29947  11.221  15.263  10.949
61475W        W29948  40.861   8.759   4.307
61476W        W29949  21.161   5.256   0.459
61477W        W29950  35.377   2.933  13.479
61478W        W29951  31.458   5.330   0.322
61479W        W29952  40.481  17.110  12.042
61480W        W29953  29.173   1.254   3.368
61481W        W29954  12.683   1.322  12.427
61482W        W29955   8.747  10.156  14.823
61483W        W29956  30.425  24.989   4.773
61484W        W29957   8.898  43.323   0.255
61485W        W29958  28.948  10.799   3.860
61486W        W29959  17.773  19.554   3.696
61487W        W29960   1.386   1.949  13.805
61488W        W29961  30.616  26.667   0.808
61489W        W29962  36.870  16.700   1.413
61490W        W29963  13.824  12.238  14.964
61491W        W29964   1.772  16.092   0.747
61492W        W29965   7.178  39.009  13.361
61493W        W29966   0.288  26.495   2.203
61494W        W29967  11.285  22.207   4.744
61495W        W29968  38.857  42.921   2.366
61496W        W29969  14.242  35.905   0.375
61497W        W29970  15.211   7.312  11.958
61498W        W29971  11.275  41.532  10.456
61499W        W29972  34.052  33.600   2.671
61500W        W29973  13.712   4.700  12.015
61501W        W29974  17.170  28.965  10.081
61502W        W29975  20.721  19.732  11.088
61503W        W29976   4.281  41.459  10.543
61504W        W29977   8.842  33.501  13.984
61505W        W29978   8.690   1.454  14.871
61506W        W29979  18.730  33.057   0.299
61507W        W29980   3.321  32.080   4.286
61508W        W29981  24.485  17.659   4.272
61509W        W29982  38.000  41.468   4.227
61510W        W29983  34.401  43.470  13.809
61511W        W29984  14.271   7.392  13.368
61512W        W29985   0.752  14.811   4.809
61513W        W29986  33.574   7.239  12.469
61514W        W29987  38.934  35.021   0.449
61515W        W29988  38.547  23.674  13.924
61516W        W29989   7.411  33.081   4.765
61517W        W29990  14.781  42.373  13.820
61518W        W29991  21.216   8.712   2.278
61519W        W29992  39.971  38.074   2.778
61520W        W29993   9.662  43.508   4.678
61521W        W29994  44.443  41.833  12.982
61522W        W29995  36.976   9.780   4.664
61523W        W29996   4.384  35.467   0.388
61524W        W29997  36.902  14.796   4.348
61525W        W29998  29.596  21.607   4.753
61526W        W29999  24.563  35.464  12.493
61527W        W30000  10.272  43.478  11.498
61528W        W30001  16.605  36.922   3.152
61529W        W30002   9.823  40.993   1.806
61530W        W30003  42.828  43.504   2.361
61531W        W30004  20.601   3.417   4.597
61532W        W30005  24.696  43.362   2.379
61533W        W30006  16.806  10.207   9.956
61534W        W30007   1.873  33.556  14.390
61535W        W30008  41.024  27.671   2.198
61536W        W30009  31.630   3.227   1.264
61537W        W30010  29.931   7.895   0.813
61538W        W30011  28.656  16.672  13.339
61539W        W30012  11.630   8.713   1.213
61540W        W30013  40.321  33.071  11.419
61541W        W30014  31.957  11.736   2.692
61542W        W30015  39.879  24.584   4.740
61543W        W30016  25.490  18.153  13.438
61544W        W30017  21.521  23.014  13.040
61545W        W30018  44.797   5.790   2.752
61546W        W30019  33.943  33.603  10.550
61547W        W30020   9.165  44.298  13.856
61548W        W30021   5.921  43.417  14.444
61549W        W30022  29.569  41.025   4.288
61550W        W30023  17.118  25.217   4.206
61551W        W30024  22.609  20.529   4.212
61552W        W30025  44.895  33.093   4.671
61553W        W30026  33.969  24.225  14.022
61554W        W30027  35.856  12.703  13.426
61555W        W30028  44.854  43.351   0.260
61556W        W30029  44.844   5.210  13.390
61557W        W30030  20.085  35.983   3.223
61558W        W30031   0.289   9.746  13.835
61559W        W30032  24.026  14.216   5.794
61560W        W30033  33.505  22.722  10.548
61561W        W30034  22.568  40.953   4.732
61562W        W30035  15.155  42.785   4.287
61563W        W30036  38.538  32.955  12.064
61564W        W30037  29.490  31.438   3.207
61565W        W30038  11.639  15.750  10.094
61566W        W30039  39.951  30.158  13.927
61567W        W30040  16.256   7.217   3.712
61568W        W30041   5.720  12.324  14.936
61569W        W30042  43.397  31.522   2.846
61570W        W30043  30.655   8.750  11.109
61571W        W30044  20.208  25.539   2.366
61572W        W30045   5.411  24.196  11.998
61573W        W30046  17.632  37.404   2.844
61574W        W30047  27.447   5.798   3.236
61575W        W30048  26.673  24.534   1.848
61576W        W30049  17.568  27.993   1.274
61577W        W30050  23.996   3.854  10.453
61578W        W30051  40.809   0.921  14.898
61579W        W30052  19.587   4.236  14.487
61580W        W30053  30.151  19.741   2.383
61581W        W30054  36.433   7.347  11.017
61582W        W30055  20.561  15.711  14.917
61583W        W30056  24.685   8.670   1.741
61584W        W30057   3.345  22.246   3.324
61585W        W30058  41.492   7.328   4.190
61586W        W30059  34.581  42.421  12.347
61587W        W30060  23.044  18.788  14.359
61588W        W30061  22.540  34.052   4.738
61589W        W30062  36.502  37.064  14.771
61590W        W30063  44.354  19.084  13.913
61591W        W30064  16.807  37.010   1.877
61592W        W30065  14.809  15.798  12.027
61593W        W30066  30.586  34.058  12.365
61594W        W30067   6.741  44.495   1.785
61595W        W30068  14.184  24.590  13.365
61596W        W30069   1.812  27.466   0.936
61597W        W30070  36.912  20.111  14.893
61598W        W30071  35.025   7.411  10.501
61599W        W30072  43.808  18.752   2.285
61600W        W30073  44.416  15.131  11.539
61601W        W30074  21.033  10.706   1.284
61602W        W30075   8.766   7.688  12.961
61603W        W30076  33.526  17.164   4.283
61604W        W30077  13.180   4.343   2.716
61605W        W30078  43.885  34.614   0.300
61606W        W30079  36.405  25.582  14.320
61607W        W30080  26.952  28.481   2.196
61608W        W30081  44.479  44.448  12.564
61609W        W30082   8.188  31.102  14.335
61610W        W30083   1.783  29.084  14.802
61611W        W30084  29.143  21.562   3.355
61612W        W30085   4.923  35.984  14.857
61613W        W30086  30.611   9.715   2.741
61614W        W30087   7.218   8.851   5.202
61615W        W30088  21.518  15.590  11.599
61616W        W30089   1.956  19.234   1.834
61617W        W30090  39.417  36.373  10.979
61618W        W30091   6.849  38.069  14.346
61619W        W30092  26.072  42.508  12.538
61620W        W30093  27.998  35.999  12.986
61621W        W30094  44.452  43.979   0.889
61622W        W30095  24.693  44.484   4.638
61623W        W30096  18.775  31.944   3.341
61624W        W30097  15.097  29.002  11.902
61625W        W30098  26.620  19.584   0.307
61626W        W30099  20.099  40.492   2.771
61627W        W30100  38.382  25.600  14.436
61628W        W30101  36.937   6.196  12.932
61629W        W30102  35.385   0.318  12.030
61630W        W30103  21.727  40.896  14.980
61631W        W30104  12.823   2.389  12.950
61632W        W30105  43.468  31.495   3.667
61633W        W30106  37.529  21.703  11.507
61634W        W30107  35.568  42.931   4.832
61635W        W30108  10.236   2.352  13.968
61636W        W30109  33.616  24.083  13.309
61637W        W30110  19.747  41.000   2.837
61638W        W30111   2.468  14.329   4.135
61639W        W30112  40.011   7.746  12.502
61640W        W30113  26.597  16.754  13.310
61641W        W30114  18.224  28.455   1.794
61642W        W30115  12.826  41.304   4.732
61643W        W30116  29.027  12.134  11.907
61644W        W30117  35.437  43.362  14.002
61645W        W30118   4.269  14.726   1.916
61646W        W30119  27.550  27.476   1.722
61647W        W30120  33.458  42.470   9.954
61648W        W30121   8.253  40.349   2.873
61649W        W30122  37.891  17.565  11.872
61650W        W30123   0.260  41.451   2.407
61651W        W30124  28.036   6.863  12.028
61652W        W30125  35.006  18.620   3.631
61653W        W30126  28.498  11.857  12.545
61654W        W30127   3.396  10.220   2.354
61655W        W30128  12.341   5.302  12.450
61656W        W30129  15.681  21.623   0.454
61657W        W30130   7.806  24.082  12.015
61658W        W30131  13.327  38.038   2.870
61659W        W30132   2.425  44.258   1.213
61660W        W30133  39.817  34.447   1.806
61661W        W30134  31.046  22.028  11.434
61662W        W30135   6.195  38.966  11.039
61663W        W30136  20.168  34.384   2.800
61664W        W30137   3.296   2.935  12.032
61665W        W30138  20.233  18.254  12.072
61666W        W30139  30.427  28.165   1.812
61667W        W30140  21.701  23.702  10.969
61668W        W30141  34.055   8.168  14.308
61669W        W30142  42.326   2.296  11.470
61670W        W30143  10.332  36.470  10.450
61671W        W30144  14.605   2.302   0.342
61672W        W30145  19.553  41.500  12.389
61673W        W30146  33.427  36.439   0.368
61674W        W30147  21.746  19.081  14.858
61675W        W30148  20.034  28.127  11.395
61676W        W30149   7.870  16.162   1.321
61677W        W30150   5.285   0.423  11.537
61678W        W30151  23.999   3.867   3.743
61679W        W30152  38.327   5.853   1.263
61680W        W30153  36.983  33.554   1.796
61681W        W30154  39.907  42.919   4.116
61682W        W30155  32.986  10.722   4.815
61683W        W30156  16.309   9.344  14.012
61684W        W30157  29.591  36.406  14.933
61685W        W30158  40.860  10.846  14.895
61686W        W30159  37.407   9.751   2.208
61687W        W30160  18.565  19.536   4.682
61688W        W30161  42.873  42.519  11.888
61689W        W30162   5.919  10.318  12.016
61690W        W30163   2.896   4.336  14.842
61691W        W30164   2.840  32.446  10.643
61692W        W30165  26.644   6.919   2.411
61693W        W30166  10.700   9.749  11.967
61694W        W30167  36.018  20.209  13.834
61695W        W30168  36.087  18.758  12.449
61696W        W30169   5.712  13.136   2.877
61697W        W30170  11.774  21.141   0.445
61698W        W30171  26.509  39.515  11.490
61699W        W30172  12.631  38.972   0.318
61700W        W30173  12.712  32.008  11.460
61701W        W30174  40.839  37.536  11.030
61702W        W30175  14.718  21.200   5.189
61703W        W30176  10.636  22.584  13.049
61704W        W30177  19.074  44.992   4.706
61705W        W30178  16.284   6.225   0.798
61706W        W30179  11.195  34.465  11.479
61707W        W30180  33.562   0.841   4.779
61708W        W30181   2.406  29.467   4.834
61709W        W30182  26.566  18.161   2.363
61710W        W30183  33.566  34.870  11.120
61711W        W30184  17.231  39.503   2.710
61712W        W30185  10.835  24.565   0.262
61713W        W30186  17.606  20.553   3.740
61714W        W30187   5.203  16.118   2.296
61715W        W30188  38.402  11.716   0.915
61716W        W30189   2.822  44.926  11.102
61717W        W30190   3.419  34.440   3.324
61718W        W30191   1.353  28.089  10.415
61719W        W30192  12.731  14.782  14.886
61720W        W30193  16.094  43.370   0.399
61721W        W30194  36.368  36.563  12.507
61722W        W30195  40.477   0.944   2.737
61723W        W30196   8.272  13.735   2.881
61724W        W30197  34.114  36.097  12.418
61725W        W30198  32.903   1.452   4.661
61726W        W30199  44.910   8.392  14.322
61727W        W30200  13.770   7.398  14.985
61728W        W30201  41.905  23.071  12.438
61729W        W30202  10.156   7.803   5.185
61730W        W30203  26.570  21.669   2.334
61731W        W30204  38.421  28.105  14.377
61732W        W30205  20.734  40.441   1.776
61733W        W30206  35.034  22.167  14.498
61734W        W30207   0.415  37.371  10.010
61735W        W30208  27.632  15.288  11.416
61736W        W30209  36.868   6.265   3.787
61737W        W30210   1.445   9.855  13.334
61738W        W30211  33.446  13.671   1.735
61739W        W30212   6.309   4.330   4.205
61740W        W30213  24.609  33.570   2.848
61741W        W30214  31.581  43.281   2.212
61742W        W30215  16.684  24.112  14.825
61743W        W30216   0.297   4.336   4.327
61744W        W30217  39.368  24.992   1.713
61745W        W30218  25.677  38.479  11.442
61746W        W30219   7.284  40.525   4.175
61747W        W30220   2.822  15.119   1.700
61748W        W30221  12.207  33.059  10.491
61749W        W30222   7.359  35.390   5.211
61750W        W30223  33.386   4.264   3.806
61751W        W30224  25.616   1.914  10.110
61752W        W30225  37.373  25.652  14.838
61753W        W30226  42.971   4.295   0.446
61754W        W30227  30.011  17.087  12.567
61755W        W30228   5.195  12.243   2.700
61756W        W30229   6.384  40.001  11.382
61757W        W30230  14.297  21.146  14.405
61758W        W30231  44.899  26.604   9.994
61759W        W30232   8.234   8.282  11.125
61760W        W30233  33.979  16.244   0.765
61761W        W30234  37.366  38.839  10.581
61762W        W30235  21.051  19.755   4.207
61763W        W30236  31.140   1.878   3.659
61764W        W30237  27.173  24.497  10.600
61765W        W30238  36.993   9.832   0.769
61766W        W30239  30.459  37.953  11.581
61767W        W30240  20.042  41.020   2.792
61768W        W30241  12.766  31.118  10.978
61769W        W30242  21.108   4.915  10.472
61770W        W30243  20.248  14.172  12.366
61771W        W30244   2.834  24.683   4.680
61772W        W30245   5.436  42.506   4.306
61773W        W30246  24.009  11.629  14.968
61774W        W30247  18.610  28.977  12.945
61775W        W30248   9.394   7.785   4.213
61776W        W30249  12.757  33.994   4.339
61777W        W30250  32.504  26.695  11.398
61778W        W30251  26.029  40.832   4.620
61779W        W30252   8.842  33.042  13.031
61780W        W30253  23.995  18.247   1.709
61781W        W30254  16.633  22.698  11.572
61782W        W30255   7.200  26.958   1.788
61783W        W30256  14.215  37.076   0.266
61784W        W30257   9.691  28.065  14.022
61785W        W30258  21.223  36.360   5.278
61786W        W30259  44.940  19.679   1.309
61787W        W30260  27.680  30.506   4.310
61788W        W30261  20.093  19.086   4.715
61789W        W30262  33.622  31.083   1.896
61790W        W30263   3.248  38.835  13.449
61791W        W30264   3.949  14.294   0.344
61792W        W30265  32.079  37.030   0.478
61793W        W30266  20.700  12.248   4.119
61794W        W30267  12.709  28.540   2.328
61795W        W30268  19.537   3.221  11.922
61796W        W30269   1.483   8.862  14.930
61797W        W30270  29.663  36.040   5.239
61798W        W30271  43.349  30.939  11.855
61799W        W30272   8.846  17.300   2.183
61800W        W30273  20.112  39.429  14.871
61801W        W30274  28.159  10.683   3.721
61802W        W30275   6.297   5.358  10.944
61803W        W30276  23.491  37.896  12.006
61804W        W30277  12.797  14.736   1.325
61805W        W30278  41.034  18.052   3.673
61806W        W30279  31.628  37.464   0.914
61807W        W30280  12.280  22.671  10.957
61808W        W30281  21.114  43.451  11.038
61809W        W30282   8.814  20.148  13.867
61810W        W30283   0.867  13.636  13.360
61811W        W30284  20.237  17.183  13.040
61812W        W30285   6.773   4.759   2.870
61813W        W30286  37.964  42.328   1.877
61814W        W30287  29.959  40.506   2.417
61815W        W30288   6.307  27.095   4.323
61816W        W30289  42.287  27.157  13.055
61817W        W30290  21.226   3.944  13.487
61818W        W30291  23.557  13.825   5.086
61819W        W30292  26.965  38.447   1.436
61820W        W30293  38.456  38.337   3.244
61821W        W30294  21.660  14.211   2.319
61822W        W30295  25.635  25.112   1.730
61823W        W30296  15.704  44.280  10.426
61824W        W30297  17.238  11.180   4.277
61825W        W30298  18.222   7.776   3.182
61826W        W30299   9.763  30.602  12.058
61827W        W30300  15.088  29.563  11.511
61828W        W30301   3.264   2.265   1.222
61829W        W30302  11.176  11.330   4.120
61830W        W30303  24.492   9.720  14.816
61831W        W30304  29.670  30.512  10.900
61832W        W30305  23.668   9.688   1.844
61833W        W30306  32.142  33.612  12.977
61834W        W30307  12.310  38.566  11.919
61835W        W30308  28.044  14.265  12.867
61836W        W30309   2.900   0.819  12.520
61837W        W30310  24.149  21.249  10.047
61838W        W30311  25.083  26.686  11.915
61839W        W30312  12.341  17.597  10.570
61840W        W30313  30.588  34.414   2.381
61841W        W30314  34.961   7.723  13.883
61842W        W30315  29.140   8.836  14.968
61843W        W30316  40.021   7.823   3.812
61844W        W30317   4.903  24.704  13.893
61845W        W30318  16.788  17.794   1.748
61846W        W30319  16.272  36.495  10.592
61847W        W30320  24.086  35.484   1.220
61848W        W30321  27.042  44.292   1.847
61849W        W30322  40.896  23.583   1.750
61850W        W30323  11.273  10.172  13.529
61851W        W30324   5.245  22.213  12.369
61852W        W30325  37.550  40.542  11.122
61853W        W30326  18.200  32.092  11.472
61854W        W30327   0.394  35.873  13.452
61855W        W30328  11.715  36.016   3.233
61856W        W30329  28.604   8.288  12.914
61857W        W30330  24.033  12.671   3.747
61858W        W30331   5.250  26.207  13.041
61859W        W30332   7.811  22.653  11.057
61860W        W30333  26.660   1.379   3.772
61861W        W30334  30.536  11.627  13.820
61862W        W30335  25.666   7.228   0.335
61863W        W30336  16.713  42.429  10.489
61864W        W30337  42.828  26.609   2.845
61865W        W30338  17.713   7.252   4.719
61866W        W30339  20.070   1.912  11.571
61867W        W30340  32.116  13.649   4.315
61868W        W30341  35.888  38.417   2.805
61869W        W30342  31.031   1.880   4.790
61870W        W30343  35.534  20.590  11.917
61871W        W30344  40.900  15.594  11.590
61872W        W30345  19.267   7.880  14.833
61873W        W30346  11.636   7.228  12.516
61874W        W30347  42.282  33.994  14.301
61875W        W30348   2.384  26.654  14.814
61876W        W30349  10.832  20.654  14.890
61877W        W30350  28.569  21.151   1.326
61878W        W30351  34.035  13.710  10.977
61879W        W30352  30.637   7.896   3.265
61880W        W30353   6.260  30.070  13.005
61881W        W30354  31.514  29.637   4.116
61882W        W30355  21.229  30.594  14.949
61883W        W30356  39.946   9.389  14.317
61884W        W30357   7.712   1.454  14.423
61885W        W30358  41.354  31.066  13.409
61886W        W30359   9.294  42.380   0.801
61887W        W30360   9.188  32.587   0.448
61888W        W30361  21.603  25.996  11.044
61889W        W30362  32.503  19.593  13.538
61890W        W30363  23.649  24.116  11.400
61891W        W30364  24.079  30.597   5.135
61892W        W30365  11.197  29.064  12.541
61893W        W30366  24.209  44.287   4.598
61894W        W30367   9.798  42.820   2.342
61895W        W30368  39.504  31.542   3.694
61896W        W30369   2.365   2.933   0.737
61897W        W30370  14.307  10.365   4.719
61898W        W30371  19.737  25.649   2.797
61899W        W30372  12.661  28.478  11.026
61900W        W30373   8.681   6.400  12.500
61901W        W30374  42.788  38.364   4.202
61902W        W30375  10.352   1.764  13.494
61903W        W30376  16.109  18.571  10.564
61904W        W30377  39.852  14.216   4.113
61905W        W30378  42.352  22.233   1.703
61906W        W30379  42.903  43.919  14.924
61907W        W30380  43.969   1.476  10.530
61908W        W30381  17.190  19.110  13.547
61909W        W30382  34.400   7.698   2.337
61910W        W30383  29.133  31.087  13.468
61911W        W30384   0.366   0.396   2.224
61912W        W30385  41.470  12.334  12.063
61913W        W30386  24.200   0.261  13.381
61914W        W30387   7.341  40.808  13.934
61915W        W30388  43.312  28.470   0.289
61916W        W30389  10.852  41.487   0.861
61917W        W30390  18.769  44.997  10.970
61918W        W30391  43.010   9.691  14.918
61919W        W30392   5.711   3.380  13.397
61920W        W30393  41.034  13.169   3.212
61921W        W30394  11.370   6.695   3.825
61922W        W30395   7.390  10.828  11.459
61923W        W30396  18.582  10.348   0.414
61924W        W30397   8.798  23.181  10.113
61925W        W30398  24.041  36.450   4.804
61926W        W30399  28.935  35.076   3.722
61927W        W30400  24.003   8.706  14.968
61928W        W30401  37.471   5.751   0.364
61929W        W30402  15.774  10.760   1.271
61930W        W30403  16.121  30.646   2.867
61931W        W30404   6.345  12.274   0.407
61932W        W30405  21.130  35.920  13.894
61933W        W30406   3.886  34.963  12.032
61934W        W30407   9.882   1.823   2.265
61935W        W30408  37.842   9.265  14.896
61936W        W30409  44.928  22.221   1.418
61937W        W30410  23.147   2.872   0.334
61938W        W30411  29.028  21.140   2.684
61939W        W30412  24.683  15.821  10.608
61940W        W30413  40.900  27.005   2.317
61941W        W30414  20.553  36.381   1.755
61942W        W30415   7.319  22.119   3.793
61943W        W30416   0.265  22.541  14.826
61944W        W30417   9.218  19.695  13.332
61945W        W30418  41.479  32.925  14.007
61946W        W30419  30.013  19.757  13.418
61947W        W30420  36.366   4.449   1.831
61948W        W30421   4.842   1.869   2.722
61949W        W30422  40.857  29.524  10.959
61950W        W30423  33.877   1.908   4.328
61951W        W30424  39.449  24.016  13.015
61952W        W30425  42.015  10.216  13.427
61953W        W30426  37.940  38.541  13.445
61954W        W30427   4.314  40.862  11.119
61955W        W30428  25.078  33.964  14.007
61956W        W30429  35.955  33.044  12.082
61957W        W30430  34.013  26.102  13.413
61958W        W30431  30.493   6.845   2.673
61959W        W30432   7.728  30.632  12.480
61960W        W30433  22.655  17.080  14.003
61961W        W30434  33.494  20.649   3.683
61962W        W30435  21.565  24.503  12.363
61963W        W30436  20.132  33.480   4.625
61964W        W30437  43.409  44.755  13.842
61965W        W30438  16.160   3.299   2.779
61966W        W30439  43.809  41.977   0.315
61967W        W30440  44.310  33.917   4.278
61968W        W30441  22.558  42.997   4.157
61969W        W30442  23.584  13.303   2.407
61970W        W30443  30.917  40.527  11.440
61971W        W30444  33.973  14.779   3.208
61972W        W30445  10.176  41.851  10.427
61973W        W30446   0.465  40.508   1.805
61974W        W30447  35.420  11.359  11.965
61975W        W30448   5.689  40.533  13.389
61976W        W30449  35.855  25.121  12.055
61977W        W30450  43.392   2.746  13.928
61978W        W30451  29.492  28.670   0.830
61979W        W30452  32.126  32.141  10.568
61980W        W30453  29.646  39.515  10.445
61981W        W30454   9.214  32.915  14.989
61982W        W30455  35.585   7.257   3.683
61983W        W30456  31.989  35.502  11.058
61984W        W30457  20.171  40.996  11.533
61985W        W30458  19.620  21.651  13.405
61986W        W30459  12.221  44.375  11.911
61987W        W30460  28.515  37.033  13.825
61988W        W30461  42.022   4.268  10.532
61989W        W30462  32.603  41.382  11.485
61990W        W30463  43.915  28.559  13.950
61991W        W30464   8.747  17.161  12.984
61992W        W30465   6.876  28.029  11.107
61993W        W30466  24.097  28.959   5.218
61994W        W30467  26.980  41.969   2.890
61995W        W30468  29.462  38.537  12.829
61996W        W30469  32.899  35.602   0.762
61997W        W30470  36.070  21.086  12.000
61998W        W30471  18.286  40.497  12.396
61999W        W30472   1.448   7.817  13.970
62000W        W30473  17.138  35.051   4.153
62001W        W30474  27.147  19.644   5.085
62002W        W30475  11.641  32.103  12.928
62003W        W30476  32.402  37.474  11.981
62004W        W30477   8.222  26.576   0.384
62005W        W30478  40.050  18.174  13.341
62006W        W30479  24.010  33.482   4.207
62007W        W30480  16.738  40.862  11.405
62008W        W30481  26.648   8.774   5.177
62009W        W30482  25.621   3.786   2.380
62010W        W30483   2.934  27.071  13.886
62011W        W30484  11.698  17.303   4.682
62012W        W30485   4.219  23.071  13.463
62013W        W30486  40.879  27.590  11.378
62014W        W30487  18.192  13.321   2.849
62015W        W30488   8.748  25.150   0.256
62016W        W30489   7.787  37.573  12.549
62017W        W30490   3.872  21.584  11.477
62018W        W30491  29.077  42.428  10.553
62019W        W30492  39.451  30.929   4.781
62020W        W30493  19.568  32.475   2.363
62021W        W30494   2.796  39.327   3.674
62022W        W30495   6.312  23.229   3.386
62023W        W30496  17.775  42.516   1.924
62024W        W30497   1.935  11.721  14.490
62025W        W30498   8.891  15.197   4.279
62026W        W30499  38.057   8.324  10.409
62027W        W30500  38.907  20.151  10.625
62028W        W30501  24.659  39.967  14.409
62029W        W30502  27.029  43.375   0.905
62030W        W30503  10.243  43.970   0.255
62031W        W30504   4.364   5.358   1.734
62032W        W30505  29.084  11.266   0.802
62033W        W30506  14.286  40.028  13.899
62034W        W30507  29.116  31.961   1.265
62035W        W30508  43.912  38.876  14.485
62036W        W30509  12.715  12.771  10.528
62037W        W30510  40.883  15.654   0.862
62038W        W30511  21.598   7.312  13.432
62039W        W30512  33.098  39.389  14.904
62040W        W30513  16.184  12.814   2.208
62041W        W30514  42.447   7.171   4.755
62042W        W30515  26.489  42.934   2.790
62043W        W30516  22.201  12.676  13.860
62044W        W30517  40.340  12.832   4.146
62045W        W30518  11.854  18.667   5.233
62046W        W30519  23.563  43.925   4.739
62047W        W30520  19.584  16.316  10.448
62048W        W30521  19.536  16.798  10.893
62049W        W30522  38.006   2.831  11.087
62050W        W30523  16.274  12.785   0.400
62051W        W30524  29.528  35.897   3.319
62052W        W30525  16.133  17.721   3.182
62053W        W30526  31.927  15.260  13.459
62054W        W30527  35.046  39.881   0.820
62055W        W30528  20.727   9.337  10.945
62056W        W30529  19.605  11.868   0.878
62057W        W30530  21.057  33.414   2.869
62058W        W30531   1.866  22.699   0.423
62059W        W30532  18.788  39.937  10.099
62060W        W30533  40.317  41.526  12.929
62061W        W30534  28.954  22.703  13.990
62062W        W30535  40.391  12.137   0.939
62063W        W30536  39.945  40.383  11.399
62064W        W30537  26.636  41.362   0.481
62065W        W30538  40.917  21.120  13.423
62066W        W30539  41.856  18.166   1.843
62067W        W30540  35.997  33.408  10.965
62068W        W30541  25.144  14.168   1.853
62069W        W30542  24.613   8.321  12.956
62070W        W30543  31.553  37.361   4.610
62071W        W30544  11.233  32.591   2.222
62072W        W30545  36.052  40.055  11.491
62073W        W30546  10.645   0.975   2.723
62074W        W30547  17.667   4.907  13.995
62075W        W30548  25.010  30.475   4.632
62076W        W30549  15.635  13.294   2.817
62077W        W30550  36.347  40.513   9.960
62078W        W30551  22.573  40.820  14.275
62079W        W30552  11.235   5.392   4.142
62080W        W30553  23.735  32.935   2.356
62081W        W30554  16.314  42.420  11.486
62082W        W30555  41.535  12.169   3.868
62083W        W30556  37.906  35.558   2.374
62084W        W30557  18.267  24.190   3.736
62085W        W30558  36.984  40.857   0.806
62086W        W30559  33.982  11.784   1.409
62087W        W30560  12.735  38.499  11.054
62088W        W30561   1.263  24.093  12.562
62089W        W30562   0.319   7.411   2.352
62090W        W30563   1.796   3.283  11.061
62091W        W30564  14.610  18.568  12.400
62092W        W30565  33.016  25.495   5.770
62093W        W30566  40.839  10.215  13.475
62094W        W30567  37.963   8.866  11.472
62095W        W30568   8.294  44.435   2.249
62096W        W30569   9.377  11.840   2.296
62097W        W30570   4.941  14.596   4.288
62098W        W30571  32.578  19.073   4.700
62099W        W30572  42.407   5.226   1.234
62100W        W30573   6.724  36.538  11.985
62101W        W30574   9.744  36.397   1.265
62102W        W30575  33.914  29.958  13.344
62103W        W30576  33.913  42.854  12.934
62104W        W30577  20.232  10.210  12.431
62105W        W30578  34.449  11.650  12.463
62106W        W30579  22.996  44.301   0.934
62107W        W30580  12.669  15.596   4.296
62108W        W30581   7.239  23.721  11.015
62109W        W30582  36.575  30.539  10.916
62110W        W30583   8.406  14.255  11.404
62111W        W30584  12.829  35.402  12.901
62112W        W30585   0.462  43.789   3.367
62113W        W30586  34.950  24.508  11.970
62114W        W30587  21.109  25.210  11.995
62115W        W30588  39.817  44.792  13.003
62116W        W30589  21.752  12.822   0.737
62117W        W30590  36.453  17.585   2.272
62118W        W30591  11.148   1.757  14.359
62119W        W30592  13.689  27.523  10.518
62120W        W30593  22.562  44.945   3.341
62121W        W30594   9.272  21.194   4.729
62122W        W30595  34.422   4.394   3.213
62123W        W30596  13.173  26.044  12.972
62124W        W30597  40.810  25.569  13.047
62125W        W30598  13.126   6.896   2.340
62126W        W30599  39.507  38.555  12.484
62127W        W30600   7.744   5.822  14.354
62128W        W30601  11.345  27.015  14.003
62129W        W30602  17.132  33.088   3.339
62130W        W30603   3.268  18.217  12.078
62131W        W30604  26.590  25.514   3.346
62132W        W30605  29.602  34.431   4.171
62133W        W30606  23.536  40.004   4.142
62134W        W30607  28.061  26.198  12.964
62135W        W30608  20.724   0.836   3.382
62136W        W30609  23.713  19.540   0.342
62137W        W30610  13.678  20.671   1.722
62138W        W30611   3.337  13.617  13.314
62139W        W30612  32.429  35.920   0.787
62140W        W30613  37.560  32.433  14.278
62141W        W30614   1.295   8.781   4.318
62142W        W30615  27.571  40.493   2.817
62143W        W30616   4.855  31.410   0.851
62144W        W30617  42.913  26.041  14.408
62145W        W30618  31.528  44.334  13.424
62146W        W30619  13.346  35.899  10.045
62147W        W30620   5.769   3.864  10.902
62148W        W30621  37.893  13.709   0.313
62149W        W30622   4.307   8.845   0.963
62150W        W30623  39.361   6.723   4.630
62151W        W30624  25.082   3.739   3.346
62152W        W30625  20.698  38.396   2.662
62153W        W30626   3.893   7.331   3.273
62154W        W30627  21.074  20.210   4.174
62155W        W30628   1.825  38.418  10.453
62156W        W30629  27.606  43.803  14.843
62157W        W30630  10.384  29.633  11.867
62158W        W30631   3.231   0.923  14.974
62159W        W30632  42.933  17.664  14.341
62160W        W30633  34.371  23.706  10.902
62161W        W30634  17.282  20.139   0.375
62162W        W30635  12.731  18.282   3.855
62163W        W30636  18.173  43.949  10.580
62164W        W30637  20.615   7.694  10.982
62165W        W30638  37.543  13.601  14.019
62166W        W30639  12.190   3.307   3.845
62167W        W30640  15.734   5.436   3.645
62168W        W30641  36.559   7.209   3.280
62169W        W30642  29.025  26.115   1.731
62170W        W30643  33.524   8.215   4.620
62171W        W30644  26.007  30.004   0.730
62172W        W30645  23.495  25.077   0.833
62173W        W30646   2.831  21.609   2.839
62174W        W30647   1.754  16.202  14.892
62175W        W30648  28.009   4.712  12.383
62176W        W30649   4.410  25.686  10.932
62177W        W30650  16.126  27.039   4.835
62178W        W30651   1.754  23.154   0.933
62179W        W30652  13.144  25.586   2.397
62180W        W30653  32.620   5.700   2.778
62181W        W30654  10.800  36.092  12.048
62182W        W30655   5.812   8.794   3.363
62183W        W30656   7.799  16.228   3.199
62184W        W30657   0.430  16.722  11.894
62185W        W30658  22.542  12.648  12.902
62186W        W30659  30.086  14.790  12.357
62187W        W30660  35.926  18.218   4.632
62188W        W30661  44.858  13.240  12.378
62189W        W30662  38.388  26.560   2.672
62190W        W30663  21.728  31.587  14.274
62191W        W30664  16.636  36.038   4.265
62192W        W30665  22.159   9.680   1.699
62193W        W30666  44.348  43.319   0.787
62194W        W30667   7.227   0.757   2.275
62195W        W30668   7.740  34.508   9.962
62196W        W30669   1.408   5.426   4.771
62197W        W30670  15.610   6.373   3.829
62198W        W30671   4.246  42.874  11.487
62199W        W30672  32.532  23.068  11.410
62200W        W30673  27.456  20.159   2.277
62201W        W30674  11.192  26.109   1.340
62202W        W30675  44.338  10.851   0.454
62203W        W30676   4.327   9.795  13.393
62204W        W30677  13.785  37.506  13.427
62205W        W30678   2.462  26.599   3.706
62206W        W30679   9.723  37.921  10.909
62207W        W30680  23.993  11.151  11.973
62208W        W30681  36.470  32.140   3.660
62209W        W30682   1.789  32.482   1.422
62210W        W30683  35.857  36.069   1.217
62211W        W30684  26.986  31.621  12.528
62212W        W30685  21.104  33.541   1.726
62213W        W30686   2.413  32.117  11.381
62214W        W30687  24.560  10.172  13.883
62215W        W30688   2.353  14.271   1.847
62216W        W30689   3.922  33.436  11.389
62217W        W30690   0.386  32.134   4.241
62218W        W30691  10.181  11.250   3.677
62219W        W30692  40.421  42.796  12.081
62220W        W30693  35.439  33.978  11.462
62221W        W30694  22.211  21.190   4.209
62222W        W30695   1.309  42.975   1.934
62223W        W30696  13.716  24.116   4.773
62224W        W30697  37.445  34.975  14.894
62225W        W30698  31.480  37.879   3.174
62226W        W30699  36.533  26.651  13.923
62227W        W30700  15.262   9.837   4.765
62228W        W30701  17.241   7.743   4.781
62229W        W30702   3.366  10.150  11.536
62230W        W30703   6.354  18.222  14.766
62231W        W30704  40.863  32.909  14.309
62232W        W30705   3.440  11.841  13.417
62233W        W30706  43.452  24.711   4.797
62234W        W30707   5.768  15.297   4.601
62235W        W30708   4.770  44.464   1.770
62236W        W30709  43.937  43.993   1.708
62237W        W30710  44.983  23.014   4.795
62238W        W30711  14.819  32.597  13.925
62239W        W30712  36.587  25.136  11.110
62240W        W30713  15.090  27.462   2.701
62241W        W30714   3.325  43.921  11.978
62242W        W30715  16.671   8.211   0.272
62243W        W30716  39.427  40.487  14.021
62244W        W30717   4.773  43.908  11.020
62245W        W30718   5.300   5.695   3.825
62246W        W30719  33.573  40.343  10.062
62247W        W30720   3.417  34.958   2.780
62248W        W30721  25.665   4.445  10.930
62249W        W30722   4.818  12.228   1.356
62250W        W30723  22.615  27.567  13.513
62251W        W30724  13.783  43.490  11.988
62252W        W30725  10.175  18.712   2.854
62253W        W30726   4.422  11.722   0.347
62254W        W30727  40.411  22.065   4.795
62255W        W30728   3.829  22.659   0.341
62256W        W30729  30.101  21.020   1.812
62257W        W30730  21.532  38.851   0.930
62258W        W30731  38.869  19.217   3.858
62259W        W30732  27.995  44.754  11.987
62260W        W30733   7.255  28.996   1.775
62261W        W30734   5.884  18.089  11.010
62262W        W30735  42.307   0.400   2.670
62263W        W30736  24.081  14.745   0.361
62264W        W30737  40.329  37.510  14.796
62265W        W30738  26.488  14.324   3.254
62266W        W30739  31.433  22.518   1.834
62267W        W30740   4.743  18.598   0.381
62268W        W30741   7.744  30.058  14.453
62269W        W30742   5.226  22.221   3.769
62270W        W30743  17.632   7.875   4.158
62271W        W30744  20.673  12.659   0.905
62272W        W30745   5.783   6.367  12.010
62273W        W30746  31.984  32.898   3.867
62274W        W30747  29.586   6.380  14.826
62275W        W30748   0.251  24.544  12.034
62276W        W30749  30.130  27.521   2.685
62277W        W30750   4.416  22.215  10.914
62278W        W30751   5.835  29.469  13.437
62279W        W30752  33.877   1.738  12.067
62280W        W30753  25.482   6.243   3.315
62281W        W30754  36.503  37.006   0.812
62282W        W30755  13.156  25.713   4.600
62283W        W30756   9.280  42.895   0.254
62284W        W30757   1.972  22.651  11.977
62285W        W30758   0.399  27.620   1.714
62286W        W30759  12.200  17.676   0.771
62287W        W30760  17.785  24.200  14.818
62288W        W30761  42.888  30.556   2.321
62289W        W30762   3.223  17.123  11.128
62290W        W30763   1.331  27.074   2.295
62291W        W30764  17.685  29.493   3.708
62292W        W30765   5.358   3.902   0.285
62293W        W30766  42.317  44.842   0.407
62294W        W30767  29.516  34.977   1.353
62295W        W30768  13.723  30.507  14.476
62296W        W30769   6.344   3.274   4.711
62297W        W30770  10.284   7.762   4.216
62298W        W30771  31.439   5.239  12.870
62299W        W30772   6.403  23.498   0.266
62300W        W30773   7.371  40.012   3.850
62301W        W30774  11.224   6.765  13.478
62302W        W30775  24.164   8.775   5.168
62303W        W30776  16.267  38.410   1.382
62304W        W30777  12.179  44.325   0.273
62305W        W30778   9.296  42.894  10.938
62306W        W30779  36.592  32.937  11.082
62307W        W30780   6.767  16.233  14.379
62308W        W30781  19.120   7.812   4.740
62309W        W30782  12.179  40.520  12.565
62310W        W30783   6.761  23.040   3.218
62311W        W30784  17.078  13.158   2.664
62312W        W30785  24.066  35.893   0.853
62313W        W30786  25.622  32.560  11.060
62314W        W30787   1.255  25.067   4.618
62315W        W30788  35.003  38.932   3.307
62316W        W30789   6.877  15.103  10.101
62317W        W30790  20.637   9.707   3.769
62318W        W30791   4.893  21.234  14.439
62319W        W30792   2.303  32.450  11.947
62320W        W30793   7.811  34.483   5.768
62321W        W30794  10.351  38.039   4.756
62322W        W30795   0.358   8.183   3.271
62323W        W30796   6.783  36.455   4.229
62324W        W30797  34.447  15.255  11.129
62325W        W30798  29.475   1.466   4.638
62326W        W30799  17.209   4.263  13.338
62327W        W30800   8.357   4.306  13.536
62328W        W30801   1.743   8.292  14.367
62329W        W30802  26.620  22.566   3.849
62330W        W30803  28.000  25.611   2.850
62331W        W30804  16.695  25.563   3.378
62332W        W30805  42.965  10.730  13.856
62333W        W30806  44.493  12.821   3.781
62334W        W30807  26.087  25.483   0.821
62335W        W30808  14.148   3.456   3.863
62336W        W30809   8.817   5.817  14.894
62337W        W30810  30.979  43.409   9.960
62338W        W30811  35.008  17.662   1.814
62339W        W30812  10.854  24.724   4.115
62340W        W30813   0.965  11.237   4.298
62341W        W30814  37.851  14.733   0.744
62342W        W30815  20.147  32.933  12.580
62343W        W30816  11.768  38.518   3.782
62344W        W30817   7.289  15.600  11.469
62345W        W30818  36.995  21.528  13.889
62346W        W30819  13.700  38.885   2.691
62347W        W30820  12.247  16.707  14.284
62348W        W30821  44.469   9.381   3.801
62349W        W30822  19.190  37.563  11.463
62350W        W30823  41.916  30.541   0.330
62351W        W30824  30.991  24.219  11.535
62352W        W30825   8.770  28.931  13.406
62353W        W30826  35.917  13.659  13.007
62354W        W30827  38.935   7.316  12.558
62355W        W30828  33.415  25.045   1.407
62356W        W30829  41.958   2.734  12.504
62357W        W30830  33.028  31.527   0.252
62358W        W30831  21.158  14.265   5.149
62359W        W30832   2.936  21.564  13.819
62360W        W30833   8.893  10.375  10.899
62361W        W30834  25.065  18.778  11.561
62362W        W30835  23.555  18.192   1.709
62363W        W30836  37.530  42.980   0.777
62364W        W30837  18.087  35.574  13.492
62365W        W30838  36.545  40.370  10.414
62366W        W30839   4.745  15.304  12.524
62367W        W30840  10.790  10.375  10.533
62368W        W30841   9.254  23.523  14.888
62369W        W30842  32.125   4.842  14.858
62370W        W30843  16.799  27.668   3.158
62371W        W30844  39.962   4.727   1.295
62372W        W30845  29.065  32.984  11.004
62373W        W30846  28.965  33.033   0.754
62374W        W30847  18.687  20.666  11.578
62375W        W30848  31.510  42.508  12.951
62376W        W30849  34.389  10.637   4.789
62377W        W30850  31.127  35.491  10.973
62378W        W30851   8.894   9.852  10.500
62379W        W30852  25.077  41.870  14.900
62380W        W30853  31.991  44.386  10.149
62381W        W30854  20.132  27.023   3.293
62382W        W30855  20.095   2.859  13.820
62383W        W30856  24.212   2.924   2.300
62384W        W30857  30.508  36.492   0.256
62385W        W30858  10.662  22.190  13.881
62386W        W30859  21.242   2.229   1.828
62387W        W30860  24.674  35.098  11.528
62388W        W30861  10.141  37.447  12.538
62389W        W30862  38.845  20.678  10.143
62390W        W30863  11.867  22.678  13.053
62391W        W30864  27.617  23.172  11.516
62392W        W30865  40.849   9.223  12.021
62393W        W30866  14.266  30.654  10.999
62394W        W30867  11.186  42.020   0.300
62395W        W30868  30.595  12.837   1.908
62396W        W30869  30.943   2.901   4.698
62397W        W30870  39.839   3.825  13.430
62398W        W30871  23.617   7.806  12.007
62399W        W30872   4.354  30.439   0.416
62400W        W30873  12.331  42.931  10.919
62401W        W30874  35.079  31.117  13.939
62402W        W30875  13.773  19.666  11.379
62403W        W30876  22.033  22.675   2.407
62404W        W30877   3.368  28.495   0.822
62405W        W30878  35.013  42.325   2.301
62406W        W30879  40.326  34.434   0.915
62407W        W30880  23.079  24.527  10.571
62408W        W30881  42.505   2.966   2.228
62409W        W30882  31.066  23.087  13.881
62410W        W30883   3.727  44.320   0.293
62411W        W30884   4.746   0.893   4.649
62412W        W30885  22.042  37.919  13.358
62413W        W30886  19.044  30.597   3.810
62414W        W30887  11.200  41.356   1.276
62415W        W30888  38.917  34.080   0.829
62416W        W30889  14.619  40.804   4.192
62417W        W30890  32.539  35.413   4.155
62418W        W30891  11.715  21.718  12.408
62419W        W30892   0.271  12.699  10.956
62420W        W30893  24.723  27.978   4.772
62421W        W30894  20.102  38.875   1.338
62422W        W30895  29.482  24.171  12.531
62423W        W30896  16.622  13.280  10.523
62424W        W30897  13.687  44.842   4.765
62425W        W30898  17.283  25.638   3.168
62426W        W30899  21.544  20.207  14.903
62427W        W30900  16.231  24.074  13.357
62428W        W30901  14.167  44.845  12.962
62429W        W30902  12.147  37.875   3.692
62430W        W30903  32.637  36.459   1.740
62431W        W30904  28.056  19.232  13.474
62432W        W30905  32.065  23.231   0.444
62433W        W30906   0.862   1.401   3.385
62434W        W30907  30.473  35.559  11.953
62435W        W30908  22.677  34.611  14.385
62436W        W30909   7.231  13.220   0.457
62437W        W30910  31.465  25.074   0.824
62438W        W30911  26.078  10.321   1.794
62439W        W30912   8.680  42.924  14.844
62440W        W30913  39.920  19.112  13.424
62441W        W30914  31.907  27.613  13.812
62442W        W30915   0.769  16.217   1.833
62443W        W30916   6.230  11.237  14.811
62444W        W30917   2.353  36.845   3.678
62445W        W30918  21.522  27.977   4.168
62446W        W30919  25.146   0.457   2.693
62447W        W30920   5.763  13.623  10.970
62448W        W30921  34.083   7.335  12.468
62449W        W30922   0.938  37.975   2.188
62450W        W30923  23.679   6.206   1.226
62451W        W30924  30.492   5.319   0.462
62452W        W30925  13.171   0.761   4.329
62453W        W30926   1.296  14.282  13.032
62454W        W30927   4.714  27.003  10.949
62455W        W30928  44.352  35.358  10.145
62456W        W30929  11.764  41.506  13.334
62457W        W30930  40.828   8.269  12.070
62458W        W30931  30.932   1.975  12.497
62459W        W30932  26.138  22.161  12.369
62460W        W30933   7.416  11.194   4.708
62461W        W30934   3.866  12.848  11.496
62462W        W30935  25.597   0.480   5.162
62463W        W30936  43.825   0.345  14.516
62464W        W30937  37.026  12.235  14.319
62465W        W30938  34.079  34.413   4.305
62466W        W30939  18.229  40.321  14.317
62467W        W30940  27.167  33.060  11.107
62468W        W30941  13.661  34.103  13.048
62469W        W30942   1.331  23.545   2.723
62470W        W30943  34.039  36.933   1.302
62471W        W30944   2.329  25.041   5.126
62472W        W30945   5.784   5.865   1.738
62473W        W30946  44.910   3.446  13.801
62474W        W30947   6.194  23.652  11.078
62475W        W30948  17.646  37.928   0.874
62476W        W30949   4.899   7.333  14.498
62477W        W30950  42.891  24.038  12.580
62478W        W30951  44.981  30.996   2.308
62479W        W30952  22.070   9.376  12.401
62480W        W30953  43.980   5.340   4.273
62481W        W30954  11.133  13.113   0.959
62482W        W30955  21.113  15.264  12.494
62483W        W30956   3.730   1.852  12.934
62484W        W30957  14.241  20.100   3.297
62485W        W30958   5.723  40.379   4.611
62486W        W30959  22.137  23.041   1.338
62487W        W30960  38.907   6.290  10.615
62488W        W30961  41.965  18.670  10.961
62489W        W30962  14.729  24.074   2.383
62490W        W30963  34.482  11.647   4.604
62491W        W30964  38.852  27.605  14.511
62492W        W30965   8.854   6.727   2.669
62493W        W30966  38.446  44.431  11.027
62494W        W30967  24.586  41.447  11.532
62495W        W30968  39.323  10.291   0.815
62496W        W30969  16.743  17.118  12.062
62497W        W30970  29.096   5.234   4.192
62498W        W30971  42.860   9.669  11.613
62499W        W30972  11.754  13.329  13.995
62500W        W30973  17.083   3.923   3.869
62501W        W30974  15.618  26.158  14.032
62502W        W30975  10.863  15.617  11.432
62503W        W30976  44.906  27.092  12.002
62504W        W30977  21.654  18.176  11.471
62505W        W30978  39.893  30.658  11.863
62506W        W30979  23.673  30.009  14.015
62507W        W30980  29.466   3.433  12.050
62508W        W30981  25.068  20.745  11.531
62509W        W30982   3.352   0.950  14.353
62510W        W30983  34.433  22.718   2.337
62511W        W30984  26.972  29.123   0.869
62512W        W30985   4.750  38.377   0.427
62513W        W30986   6.755   0.337  13.509
62514W        W30987   2.431   6.321  12.424
62515W        W30988  32.439   0.442  12.904
62516W        W30989  42.884  15.694   3.370
62517W        W30990  42.460  35.922  10.906
62518W        W30991   0.363  30.622  13.411
62519W        W30992   6.813  20.240   0.920
62520W        W30993  11.719  28.018  10.520
62521W        W30994  30.554   2.282  13.917
62522W        W30995  23.170   0.314   0.443
62523W        W30996  17.674  24.506   2.785
62524W        W30997  25.516   1.426  12.357
62525W        W30998  15.677  30.570  11.401
62526W        W30999  13.220  40.881  12.980
62527W        W31000  21.736  27.502   4.167
62528W        W31001   5.214  33.593  13.046
62529W        W31002  37.493   4.908   1.742
62530W        W31003   5.360  35.897  11.516
62531W        W31004  39.362  31.023  13.859
62532W        W31005  20.178  10.802  10.559
62533W        W31006  17.595  32.403   3.857
62534W        W31007   6.871   3.938   5.593
62535W        W31008   9.854  11.697  12.006
62536W        W31009  35.893  20.262   3.681
62537W        W31010  21.161  35.448   4.221
62538W        W31011  41.538  35.886   2.406
62539W        W31012  11.851  29.963  11.539
62540W        W31013  15.270  12.350   1.289
62541W        W31014  31.007   6.300   3.242
62542W        W31015   3.869   4.299  14.869
62543W        W31016  32.022  11.633  13.854
62544W        W31017  44.765  12.345   2.240
62545W        W31018  10.666   7.172   2.360
62546W        W31019  38.882   0.286   9.980
62547W        W31020  37.493  31.020   1.231
62548W        W31021  14.313   7.854   5.300
62549W        W31022  44.485  44.483   1.921
62550W        W31023  26.555  14.770  14.792
62551W        W31024  20.608   1.251   3.363
62552W        W31025  33.497  22.201  13.992
62553W        W31026   1.972  10.297   4.293
62554W        W31027  30.070   4.890  11.016
62555W        W31028  31.080  10.305   1.830
62556W        W31029  28.935   0.849   4.613
62557W        W31030  30.541  35.485  13.461
62558W        W31031   2.401   0.475   0.758
62559W        W31032  24.111  12.786   4.618
62560W        W31033  41.355  31.594   2.707
62561W        W31034  14.642   0.254  11.465
62562W        W31035  40.875  41.313  11.065
62563W        W31036  13.708  25.493   2.394
62564W        W31037  28.082  17.296   2.801
62565W        W31038  16.241  31.922   2.196
62566W        W31039  16.286  44.306  14.320
62567W        W31040  30.468  16.780   2.310
62568W        W31041  28.165   7.790   2.901
62569W        W31042  29.144  10.262   2.201
62570W        W31043  36.394  37.339   0.385
62571W        W31044  39.066  35.535  13.383
62572W        W31045  23.175  43.999   0.346
62573W        W31046  23.022   9.820   2.693
62574W        W31047  21.081  37.033  14.833
62575W        W31048  13.193  16.252  10.980
62576W        W31049  23.678  24.606  11.085
62577W        W31050   9.261   5.821  10.471
62578W        W31051  12.355  29.023  13.846
62579W        W31052  36.386  33.911   1.729
62580W        W31053  21.582   5.739   2.689
62581W        W31054  30.469  28.995  12.557
62582W        W31055  37.932  37.923  11.881
62583W        W31056  36.412  34.094  13.398
62584W        W31057  23.235  28.016  11.880
62585W        W31058  30.024  33.023   4.679
62586W        W31059  29.979  27.165  13.475
62587W        W31060  25.139  14.219  11.067
62588W        W31061  42.939  37.005   4.315
62589W        W31062   7.821  30.005   1.411
62590W        W31063  30.566  10.294   0.743
62591W        W31064  24.680  10.275  12.573
62592W        W31065  38.328  19.260   0.416
62593W        W31066  32.555  16.123   3.353
62594W        W31067  16.752  23.707  12.929
62595W        W31068  26.650  18.687   2.722
62596W        W31069   6.922  12.625   4.837
62597W        W31070   7.703  34.938   1.919
62598W        W31071  18.130  10.725  14.798
62599W        W31072  26.075  24.616   1.815
62600W        W31073  22.093  32.091   3.659
62601W        W31074   4.225  35.043   2.295
62602W        W31075   8.271  25.022   1.716
62603W        W31076   7.198   8.347   4.818
62604W        W31077  24.576  35.886  12.506
62605W        W31078  28.036  23.235  13.860
62606W        W31079  17.785   4.246   2.370
62607W        W31080  21.082  33.526  12.487
62608W        W31081   6.190  27.058  14.448
62609W        W31082  16.213  33.877   3.234
62610W        W31083   4.856  40.465  12.538
62611W        W31084   8.232  36.536   0.393
62612W        W31085  14.763  27.973  12.570
62613W        W31086   2.816  27.105  10.439
62614W        W31087   0.808  20.557   2.247
62615W        W31088  24.589  30.537   0.879
62616W        W31089  18.661  17.098   3.770
62617W        W31090  24.078   3.930   1.760
62618W        W31091  16.099  11.295  12.071
62619W        W31092  19.702  11.161  13.475
62620W        W31093  19.079  13.224  11.953
62621W        W31094  14.611  26.532   2.696
62622W        W31095  17.195  35.886  14.009
62623W        W31096  21.628   6.841  12.917
62624W        W31097  39.034  25.059  11.944
62625W        W31098  38.921   5.311   1.751
62626W        W31099  27.522  24.486  14.421
62627W        W31100   7.270   5.881   3.315
62628W        W31101   9.777  13.617  14.909
62629W        W31102  17.128  23.007   0.960
62630W        W31103  12.363   5.818   2.729
62631W        W31104  38.565   8.244   4.193
62632W        W31105  17.256  29.527  13.028
62633W        W31106   2.918  15.121  13.447
62634W        W31107   4.904   9.866   4.735
62635W        W31108  24.129  35.466  11.406
62636W        W31109  25.523  19.212  14.032
62637W        W31110   4.762  43.794  13.433
62638W        W31111   0.448  22.568  14.313
62639W        W31112  44.456   7.307   2.886
62640W        W31113  29.489  42.781  10.112
62641W        W31114  20.203  38.362   2.666
62642W        W31115  38.440  33.428  14.941
62643W        W31116  42.866  44.903   2.416
62644W        W31117  44.880  26.987  12.566
62645W        W31118   9.214  34.019   2.710
62646W        W31119  32.118  44.795   2.665
62647W        W31120  24.063  40.314   2.265
62648W        W31121  42.287  31.530   0.310
62649W        W31122  41.938  37.338   0.314
62650W        W31123  25.568  16.604  11.468
62651W        W31124   3.279   3.794   1.283
62652W        W31125  30.413  23.663  14.499
62653W        W31126  42.330  30.606   1.272
62654W        W31127  33.113  40.459  12.068
62655W        W31128  44.333  36.091   5.105
62656W        W31129   7.885  29.010   0.479
62657W        W31130   9.154  39.954   1.306
62658W        W31131  39.444   3.942  14.904
62659W        W31132   8.657  34.580   2.679
62660W        W31133  20.712   0.338  11.491
62661W        W31134  15.671  40.461  11.396
62662W        W31135   4.317   3.864  11.425
62663W        W31136  39.046  16.174  13.346
62664W        W31137  43.336  11.360  14.999
62665W        W31138  21.697   4.438   0.926
62666W        W31139   3.246  14.095   0.750
62667W        W31140  30.495  21.567  10.979
62668W        W31141  20.739  22.040   2.282
62669W        W31142   0.979   4.864   1.778
62670W        W31143  23.090  41.373  14.362
62671W        W31144   9.785  44.971   4.304
62672W        W31145  28.473  42.987  12.486
62673W        W31146  41.813   3.386   2.265
62674W        W31147   3.351  30.468  14.776
62675W        W31148  10.279  32.008   5.180
62676W        W31149  40.313  21.559  13.859
62677W        W31150  18.642  15.682  11.128
62678W        W31151   5.269  26.029   3.833
62679W        W31152  21.053  13.316   9.574
62680W        W31153   5.210  26.158  12.524
62681W        W31154  34.922  15.789   2.180
62682W        W31155  28.647   1.403  12.456
62683W        W31156  21.659  29.670   4.292
62684W        W31157  22.583  29.131   1.705
62685W        W31158  16.271   3.883  14.003
62686W        W31159  38.467   3.743   2.396
62687W        W31160  29.129  24.148  13.357
62688W        W31161  12.198  29.971   2.854
62689W        W31162  21.053  41.353  14.864
62690W        W31163  41.412  35.570   1.917
62691W        W31164   4.381  21.249   1.804
62692W        W31165  41.326  38.426   0.942
62693W        W31166  21.560   8.764  11.413
62694W        W31167  27.945  21.096  12.523
62695W        W31168  36.490  24.188  14.888
62696W        W31169  35.007  17.128   0.309
62697W        W31170  25.633  23.006   1.243
62698W        W31171   6.343  26.669   1.797
62699W        W31172  30.997  20.186   3.335
62700W        W31173  22.211  22.141  14.819
62701W        W31174   9.810   7.368   2.845
62702W        W31175  40.012  23.049  10.467
62703W        W31176   9.196  30.619  12.916
62704W        W31177  10.356   9.357  14.386
62705W        W31178  18.608  18.597   4.324
62706W        W31179   3.931  10.257  10.597
62707W        W31180  19.644  30.547  12.864
62708W        W31181  14.805  37.881   4.715
62709W        W31182  21.040   0.988   3.158
62710W        W31183  18.597  24.562   1.738
62711W        W31184  19.713   7.725   0.398
62712W        W31185   6.220   4.281   0.276
62713W        W31186   6.263   0.460  11.906
62714W        W31187   1.397  25.132  13.961
62715W        W31188  30.511  32.934  11.436
62716W        W31189  13.759  35.409   1.248
62717W        W31190   7.797  14.834  14.313
62718W        W31191  25.218  28.678   2.810
62719W        W31192  23.208  34.981  10.943
62720W        W31193  32.581  13.193   0.844
62721W        W31194  26.153  17.244   1.709
62722W        W31195  19.103  31.645   4.162
62723W        W31196  11.271  12.134  14.415
62724W        W31197  20.600  22.652  12.084
62725W        W31198  27.581   6.890   4.741
62726W        W31199   1.843  22.713  13.542
62727W        W31200  31.556   9.710  12.558
62728W        W31201  32.935   0.432   2.310
62729W        W31202  23.518  36.956   2.194
62730W        W31203  21.183  15.085   3.762
62731W        W31204  44.486  30.441   4.328
62732W        W31205   6.899   3.293  11.053
62733W        W31206   3.820  10.170  12.013
62734W        W31207  30.573  44.343   2.831
62735W        W31208  11.314  23.085   0.936
62736W        W31209  14.757  10.711   1.884
62737W        W31210  22.006  34.968   1.824
62738W        W31211  42.949   6.351  13.037
62739W        W31212   1.862  27.950  11.026
62740W        W31213  42.337  18.763  11.928
62741W        W31214   5.409  21.608   0.262
62742W        W31215  33.094   1.860  14.971
62743W        W31216   5.825  20.161   2.678
62744W        W31217   3.340  28.671  12.361
62745W        W31218  24.582  14.312  12.879
62746W        W31219  27.611  43.764   4.745
62747W        W31220  19.768   3.265   5.237
62748W        W31221  33.412  13.602  11.990
62749W        W31222  34.475  19.723  14.767
62750W        W31223  44.280  15.154   2.397
62751W        W31224  13.253  14.188   0.320
62752W        W31225  10.221  23.044  10.083
62753W        W31226  13.108  14.672   1.782
62754W        W31227  27.623  18.192   0.473
62755W        W31228  35.443  13.272   4.682
62756W        W31229   8.884  40.460   0.845
62757W        W31230  31.121  24.215  10.028
62758W        W31231  19.201  42.827   0.812
62759W        W31232  34.399  28.665  12.963
62760W        W31233   0.876  10.341   2.734
62761W        W31234  22.538  34.026   0.937
62762W        W31235  38.973  42.778  11.106
62763W        W31236   6.707   5.896  10.558
62764W        W31237  14.213  41.456   1.854
62765W        W31238  35.563  43.793  12.002
62766W        W31239   3.742  23.534   1.318
62767W        W31240  33.131  28.563  12.056
62768W        W31241  25.682  27.630   3.747
62769W        W31242  30.627  21.239  12.547
62770W        W31243  17.273  14.330   2.322
62771W        W31244  35.016  34.102  11.031
62772W        W31245  41.384  10.198  11.121
62773W        W31246  33.533  32.606  13.914
62774W        W31247  25.071  42.019   0.919
62775W        W31248  14.603   5.803  11.067
62776W        W31249   6.892  12.613   0.482
62777W        W31250   1.861  37.030   1.379
62778W        W31251  10.855  29.494   3.639
62779W        W31252   2.872  23.007  13.979
62780W        W31253  22.741  10.862  11.115
62781W        W31254   3.319  16.202  13.951
62782W        W31255  30.033   1.288   1.882
62783W        W31256  27.540  44.464   1.394
62784W        W31257  38.469  36.015  14.354
62785W        W31258  37.011  27.174  13.484
62786W        W31259   1.335  21.157  10.038
62787W        W31260  33.580  17.632   1.323
62788W        W31261  34.537  21.181  13.383
62789W        W31262  42.324  42.320  14.850
62790W        W31263  17.614  13.751  13.998
62791W        W31264  18.055  31.105   0.843
62792W        W31265  33.485   2.721   2.858
62793W        W31266   9.364  30.431   1.312
62794W        W31267  29.550  35.047  10.457
62795W        W31268  23.104  35.556  10.409
62796W        W31269   4.429  34.488   4.179
62797W        W31270  21.598   6.717  10.922
62798W        W31271  37.375  35.389   1.365
62799W        W31272  38.876  38.829  12.402
62800W        W31273  38.486  16.133   1.789
62801W        W31274  44.499   4.346   2.263
62802W        W31275   6.677  40.913   1.813
62803W        W31276  40.446  18.296   4.614
62804W        W31277  38.011  18.773   2.302
62805W        W31278  32.950  25.995   5.608
62806W        W31279  31.926  41.916  11.529
62807W        W31280  33.935  21.152  13.537
62808W        W31281  44.394  19.653   3.677
62809W        W31282   5.757  37.943   4.816
62810W        W31283  10.260  40.318   3.690
62811W        W31284  16.600  26.112  11.375
62812W        W31285  21.658  31.015   1.879
62813W        W31286   6.204  11.338   3.858
62814W        W31287  34.382   2.424   2.702
62815W        W31288   3.386  44.403   1.394
62816W        W31289   8.857  13.652   1.450
62817W        W31290   4.288  40.524   1.725
62818W        W31291   0.815  25.468   3.785
62819W        W31292  26.199  20.147  10.479
62820W        W31293  37.339  27.970  14.975
62821W        W31294  16.266  42.856   3.156
62822W        W31295  10.371  36.544   5.293
62823W        W31296  32.127  34.382  14.479
62824W        W31297   0.272  18.748  12.436
62825W        W31298  17.236  26.592   0.464
62826W        W31299  24.979  28.049   0.738
62827W        W31300  44.376  13.686  11.077
62828W        W31301  18.772  24.658   1.307
62829W        W31302  29.984   4.273  11.885
62830W        W31303  36.378  36.437  13.923
62831W        W31304  34.068  41.964   2.801
62832W        W31305  24.121  42.861   1.891
62833W        W31306   9.747  24.102   0.850
62834W        W31307  33.447  41.427  13.325
62835W        W31308   0.305  19.154  13.859
62836W        W31309  34.954  37.531   1.746
62837W        W31310  33.949  21.750   4.335
62838W        W31311  40.931  27.683  13.955
62839W        W31312  31.524   0.776  12.544
62840W        W31313  14.174  26.953  11.065
62841W        W31314   1.279  16.640  12.438
62842W        W31315   0.332  38.998   4.118
62843W        W31316  44.928  13.642   0.754
62844W        W31317   0.260  32.094   0.367
62845W        W31318  17.209  39.014   3.786
62846W        W31319   3.361  24.603  14.921
62847W        W31320  25.964  33.125  14.371
62848W        W31321  12.336   0.327   2.235
62849W        W31322  36.402   9.833  13.844
62850W        W31323  27.182  39.455  12.095
62851W        W31324  32.584   3.286   5.123
62852W        W31325  43.353  40.940  11.501
62853W        W31326   2.777  29.073  14.947
62854W        W31327  11.296  35.575  10.644
62855W        W31328  39.866  34.865  12.064
62856W        W31329  42.353  17.616   4.343
62857W        W31330   3.427  16.225  10.914
62858W        W31331  18.161   9.811   2.885
62859W        W31332  36.447   7.841   1.827
62860W        W31333  10.273  40.860  12.864
62861W        W31334   6.869   4.404  13.957
62862W        W31335  27.496  31.403  12.934
62863W        W31336  26.584  28.079  14.863
62864W        W31337   7.832  35.983  12.047
62865W        W31338  36.444  35.377  11.549
62866W        W31339  24.139  34.863  11.531
62867W        W31340   3.725  10.302   4.197
62868W        W31341  20.662  31.611   1.892
62869W        W31342  32.952  15.090  12.505
62870W        W31343  25.997  44.278   4.822
62871W        W31344   0.821  10.757   4.266
62872W        W31345   9.699  39.358  13.966
62873W        W31346  30.024   7.233  11.055
62874W        W31347  41.446  38.821  13.030
62875W        W31348  21.515  30.619  14.331
62876W        W31349  34.013  41.336  13.792
62877W        W31350  41.884  11.170   4.779
62878W        W31351  33.618  37.979   3.282
62879W        W31352  42.027   9.337   0.872
62880W        W31353  18.148  24.094  12.503
62881W        W31354  38.871   1.343   1.222
62882W        W31355   0.941  33.001   1.706
62883W        W31356   4.340   6.355  13.871
62884W        W31357   2.882   2.816  14.926
62885W        W31358   5.773  10.838  10.487
62886W        W31359  14.632  17.101   1.311
62887W        W31360  13.229  27.106  10.505
62888W        W31361  24.041  37.479  12.472
62889W        W31362  24.135  27.610   2.901
62890W        W31363  15.326  23.547   2.197
62891W        W31364  10.856  40.884  12.889
62892W        W31365  40.349  20.591  10.959
62893W        W31366  19.243  40.981  14.787
62894W        W31367  21.247  17.720  14.405
62895W        W31368  21.529  33.613  13.961
62896W        W31369   4.816  21.699   2.267
62897W        W31370   2.888  25.489  10.564
62898W        W31371  38.069   1.846  10.155
62899W        W31372  38.491  11.198  14.310
62900W        W31373  19.577   0.841  14.869
62901W        W31374   6.230  25.650  13.887
62902W        W31375  27.559   0.986  12.431
62903W        W31376   0.317  29.555  10.983
62904W        W31377  40.494  16.092   2.791
62905W        W31378  10.709  29.176   3.331
62906W        W31379   3.811  29.574   2.857
62907W        W31380   1.474  31.054   2.362
62908W        W31381  41.827  42.994  11.379
62909W        W31382  15.100  38.471   3.777
62910W        W31383  13.632  39.876   0.354
62911W        W31384  12.361  34.449  12.825
62912W        W31385   0.794  39.947   1.758
62913W        W31386  19.582  25.529  12.392
62914W        W31387   5.698  25.595  14.390
62915W        W31388  16.317  30.578   4.191
62916W        W31389   0.309  32.574   3.250
62917W        W31390   2.326  39.036   2.780
62918W        W31391  25.681  32.546  12.078
62919W        W31392   7.696   5.279   5.229
62920W        W31393   4.350  30.954  13.910
62921W        W31394   3.940  28.585  11.992
62922W        W31395   8.404  43.428  12.002
62923W        W31396   5.705  21.125   2.849
62924W        W31397   3.424  37.456   3.214
62925W        W31398   8.880  23.075   3.223
62926W        W31399   1.784  15.304  10.615
62927W        W31400  32.625   8.373  13.964
62928W        W31401  14.692   9.232  14.425
62929W        W31402  24.064  39.012   4.806
62930W        W31403   8.848   4.270  13.526
62931W        W31404  27.085  20.111  13.888
62932W        W31405  23.647  44.406   0.360
62933W        W31406   7.686  31.563   2.742
62934W        W31407  41.416  21.539   1.707
62935W        W31408  26.008   1.275   2.711
62936W        W31409   3.772  25.552   1.214
62937W        W31410  39.472   7.784  12.382
62938W        W31411  31.564  38.408  13.445
62939W        W31412  23.643   5.379   3.385
62940W        W31413  32.501  31.481   4.279
62941W        W31414   7.327  15.715   0.293
62942W        W31415  38.567  12.282   2.696
62943W        W31416  25.985  19.685  12.926
62944W        W31417   2.413   4.721   0.409
62945W        W31418   6.229  29.924  13.993
62946W        W31419  29.174   8.727   3.317
62947W        W31420  21.046  39.002  12.841
62948W        W31421   2.317  14.706   3.862
62949W        W31422  34.076  33.086   2.765
62950W        W31423   6.786   9.159   2.678
62951W        W31424   9.860   2.395   3.243
62952W        W31425  26.499  30.082  10.466
62953W        W31426  38.034  44.454  13.933
62954W        W31427  25.586   7.417   3.728
62955W        W31428  25.546  29.448  11.373
62956W        W31429  33.040   9.308   3.708
62957W        W31430   5.314  40.048   0.432
62958W        W31431  41.386  37.858  10.464
62959W        W31432   3.232  13.681  11.578
62960W        W31433  14.315  31.942   3.180
62961W        W31434  43.350  41.330   4.638
62962W        W31435  24.551   6.403   4.619
62963W        W31436  43.804  33.568  12.848
62964W        W31437  32.610  43.813  12.054
62965W        W31438  25.549  19.264  14.890
62966W        W31439  34.370  38.946   2.888
62967W        W31440  20.564   0.402  10.992
62968W        W31441  25.469  34.551  13.925
62969W        W31442  21.197  22.564  14.343
62970W        W31443   6.760  43.294   1.705
62971W        W31444  41.380  29.489  12.392
62972W        W31445  14.681   0.959   2.197
62973W        W31446  34.475   4.216  11.429
62974W        W31447  13.170  14.331  14.407
62975W        W31448  33.449  36.555  13.925
62976W        W31449   5.292  12.849   4.297
62977W        W31450  30.655  32.601  10.901
62978W        W31451  20.143   5.236   4.187
62979W        W31452   3.948  21.526   0.867
62980W        W31453  11.270  10.739  12.567
62981W        W31454  32.945  26.576   0.284
62982W        W31455  17.657  13.251   3.836
62983W        W31456  39.384  38.943  11.525
62984W        W31457   9.303   2.936   3.645
62985W        W31458  44.358   7.776   4.601
62986W        W31459  30.160   2.390  12.561
62987W        W31460   0.802  14.697  12.037
62988W        W31461  10.658  13.298  11.948
62989W        W31462  38.370  13.121  10.510
62990W        W31463  39.512   6.758  10.614
62991W        W31464  11.739  28.489  11.541
62992W        W31465  24.591  11.138  13.392
62993W        W31466  32.924  25.564  13.352
62994W        W31467  21.754  23.716  13.369
62995W        W31468  39.923  29.983  10.474
62996W        W31469  16.616  14.788  12.995
62997W        W31470  23.654  24.486   1.728
62998W        W31471  11.849  25.586   4.749
62999W        W31472  19.066  30.446  10.938
63000W        W31473  17.625  38.011   0.393
63001W        W31474  35.857  15.311  14.759
63002W        W31475  21.590   9.707   0.794
63003W        W31476  13.188  33.115  14.769
63004W        W31477  19.187  28.020   4.610
63005W        W31478  30.507  43.971   9.981
63006W        W31479  31.516  13.844  12.379
63007W        W31480  15.103  22.539   4.233
63008W        W31481  10.672  14.624   0.322
63009W        W31482   0.291  42.320   1.336
63010W        W31483  11.677  12.228  13.934
63011W        W31484   3.795  17.646  11.866
63012W        W31485  20.667   3.259  13.392
63013W        W31486  20.552  27.513   9.615
63014W        W31487  35.015  28.078  12.862
63015W        W31488  30.453  36.438   2.815
63016W        W31489  19.140  31.564  12.445
63017W        W31490  10.348  17.283   1.872
63018W        W31491  36.866   9.656  12.446
63019W        W31492  44.360  31.919   1.349
63020W        W31493  35.972  44.978  13.797
63021W        W31494   6.889  21.623   1.726
63022W        W31495   4.921  39.899  10.102
63023W        W31496  17.785   1.366  11.082
63024W        W31497  26.573   6.882  12.515
63025W        W31498  13.330  15.281   2.333
63026W        W31499  38.515  40.302  14.311
63027W        W31500  13.764  39.943  10.617
63028W        W31501  30.915   6.313  11.385
63029W        W31502  12.814  21.040  13.431
63030W        W31503  32.563  29.530   0.828
63031W        W31504  12.170  16.722   3.713
63032W        W31505  38.049  21.206  11.123
63033W        W31506  16.587  11.673  13.530
63034W        W31507  23.072  43.324   1.756
63035W        W31508  43.486  44.825   0.348
63036W        W31509  32.469  28.956  11.014
63037W        W31510  20.075  38.529   1.374
63038W        W31511  19.267  39.906  10.947
63039W        W31512  37.564  29.995  13.797
63040W        W31513  32.623   2.734  11.934
63041W        W31514   3.797  19.188   4.145
63042W        W31515  36.958  16.193   0.955
63043W        W31516  22.577   0.940  10.095
63044W        W31517   3.832   9.278   3.800
63045W        W31518  28.050  38.419  12.994
63046W        W31519   5.759  15.199  14.812
63047W        W31520  40.319   2.365   2.665
63048W        W31521  12.620  25.549  11.878
63049W        W31522  35.086  21.533  13.957
63050W        W31523  41.423  41.004  11.047
63051W        W31524  10.277  23.613   2.701
63052W        W31525  34.431  31.101   0.729
63053W        W31526   7.201  38.356  11.957
63054W        W31527  43.273   4.821  14.821
63055W        W31528  41.834   1.842  14.419
63056W        W31529  30.071  21.745   3.647
63057W        W31530   8.336   4.272   4.837
63058W        W31531  18.175  27.172   1.403
63059W        W31532  40.470  36.023   4.669
63060W        W31533  40.969  35.012   3.340
63061W        W31534  16.644  22.607   0.914
63062W        W31535  32.053  21.145   5.301
63063W        W31536  42.019  19.200  10.635
63064W        W31537  20.662  37.421  10.495
63065W        W31538  37.877  22.624  12.987
63066W        W31539   3.324  15.589  10.932
63067W        W31540  27.511  31.573  14.974
63068W        W31541  16.171   7.220   4.216
63069W        W31542  12.304  38.554  11.553
63070W        W31543  37.030  30.023  14.319
63071W        W31544  26.628  37.998   4.273
63072W        W31545   2.813  27.067   1.257
63073W        W31546   8.360  39.972  13.346
63074W        W31547   2.850  33.902  13.422
63075W        W31548  30.157  34.400  12.429
63076W        W31549  36.040  40.942  14.290
63077W        W31550  37.997  12.768  10.441
63078W        W31551   8.854  38.958  11.953
63079W        W31552  40.864   4.763   4.604
63080W        W31553  40.940  10.842  12.045
63081W        W31554  21.699   4.260   3.844
63082W        W31555  23.174  32.595   0.849
63083W        W31556  37.418  34.425  13.434
63084W        W31557   5.778  12.626  13.317
63085W        W31558  35.982  23.580  12.909
63086W        W31559  27.551  36.441  13.962
63087W        W31560  13.164  35.031   0.928
63088W        W31561   7.800  16.113  13.953
63089W        W31562  44.374  16.637  12.557
63090W        W31563  28.091  37.535  10.109
63091W        W31564  17.645  10.650   4.327
63092W        W31565   2.414   9.701  12.540
63093W        W31566  38.445  11.666  10.611
63094W        W31567  22.683   2.830  13.861
63095W        W31568  24.991  24.653  12.044
63096W        W31569   5.916  24.492  13.932
63097W        W31570  19.257  31.963  14.446
63098W        W31571  33.901   4.704   2.293
63099W        W31572  44.848  32.450   0.356
63100W        W31573  30.920   4.412   1.289
63101W        W31574  41.469   0.313   4.815
63102W        W31575   9.668  20.616   1.412
63103W        W31576  16.176  32.907   0.805
63104W        W31577  13.807  17.692   0.333
63105W        W31578  32.961  31.594   3.777
63106W        W31579  20.583  43.395  10.640
63107W        W31580  35.533   0.935   0.802
63108W        W31581  18.743  29.037  12.097
63109W        W31582   6.913  22.193   2.345
63110W        W31583   7.406  15.234  12.988
63111W        W31584   9.727  10.172   0.884
63112W        W31585  26.578  29.452  13.035
63113W        W31586  32.939  10.178   3.849
63114W        W31587   3.304  34.519   1.725
63115W        W31588  41.839   8.657  11.864
63116W        W31589  33.094   3.843   3.185
63117W        W31590  40.447  34.111   3.840
63118W        W31591  15.599  39.997  12.388
63119W        W31592  25.531   3.276   1.432
63120W        W31593  38.529  36.392  14.822
63121W        W31594  11.245  31.138  11.557
63122W        W31595   4.920  18.208  12.388
63123W        W31596   0.881   4.216  11.126
63124W        W31597  43.318  37.974  10.576
63125W        W31598  21.713  37.412   2.676
63126W        W31599  26.503  30.530  14.011
63127W        W31600  40.911  37.939  12.010
63128W        W31601  31.552  28.609   3.861
63129W        W31602  17.135   0.845   4.282
63130W        W31603  15.245  29.926  14.765
63131W        W31604  16.648  19.670   5.228
63132W        W31605  31.099   3.807   3.311
63133W        W31606  30.426  22.089   1.725
63134W        W31607   1.978  37.882   1.721
63135W        W31608  17.092  19.578   5.140
63136W        W31609  41.794  11.287   0.851
63137W        W31610  31.403  11.257  12.534
63138W        W31611   8.271  11.175  12.489
63139W        W31612  38.907  43.797  14.914
63140W        W31613  38.348   9.180   0.464
63141W        W31614   8.184  41.909   2.369
63142W        W31615  34.912  10.220  13.913
63143W        W31616  21.109  24.725   2.299
63144W        W31617  16.605  41.036   1.367
63145W        W31618  29.579  32.417  11.439
63146W        W31619  44.961  40.813   0.265
63147W        W31620  10.165   5.412   3.157
63148W        W31621  38.016  28.964  12.481
63149W        W31622  40.504  28.454  12.879
63150W        W31623  34.601  19.161  12.413
63151W        W31624  30.024  38.010  14.281
63152W        W31625  15.718   0.941  12.532
63153W        W31626  13.190  15.281  10.568
63154W        W31627  31.514   6.734   0.822
63155W        W31628  19.685  19.190   3.863
63156W        W31629   4.255  26.138   0.887
63157W        W31630  44.306  43.432  11.599
63158W        W31631  21.551  25.492   1.345
63159W        W31632  38.831  20.617  10.435
63160W        W31633   1.821  10.731   4.145
63161W        W31634  26.696  32.590  13.320
63162W        W31635  35.507  10.200  10.460
63163W        W31636  44.395  10.204  13.314
63164W        W31637  29.918   1.352   4.269
63165W        W31638  40.431  32.118   3.320
63166W        W31639  39.841  23.736   0.849
63167W        W31640   9.755  29.563   2.719
63168W        W31641  18.648  27.153  14.478
63169W        W31642  21.746  28.485  13.992
63170W        W31643  28.124  11.243   4.300
63171W        W31644   2.404  42.439   2.253
63172W        W31645   1.765   4.756  13.863
63173W        W31646  18.562  40.967  14.838
63174W        W31647  41.879   1.881   2.334
63175W        W31648  36.354  43.355  13.849
63176W        W31649  13.122  25.213   3.807
63177W        W31650  23.574  10.735   3.642
63178W        W31651  21.070  11.675   2.266
63179W        W31652  26.031   8.214   4.166
63180W        W31653  12.230  40.432   2.264
63181W        W31654  15.708  41.328   3.312
63182W        W31655   9.375  17.775  14.467
63183W        W31656  32.917  20.719   4.758
63184W        W31657  44.007  37.396  12.461
63185W        W31658  43.400  36.970   0.932
63186W        W31659  23.025  32.555  11.602
63187W        W31660   7.306  41.805   0.292
63188W        W31661  15.083  27.987  11.469
63189W        W31662  10.178  26.632   2.193
63190W        W31663  29.169  25.639   3.366
63191W        W31664  24.018   8.895  13.021
63192W        W31665  43.987  34.067  10.486
63193W        W31666  44.394   3.910   4.715
63194W        W31667  33.390  42.030  12.064
63195W        W31668  13.799   6.814   3.678
63196W        W31669  12.167  42.319  13.416
63197W        W31670  30.153  10.304   2.409
63198W        W31671  34.019  42.800   5.566
63199W        W31672  16.165   9.247   0.347
63200W        W31673  39.519   4.412   4.247
63201W        W31674   7.723  35.974  13.311
63202W        W31675  37.085  10.268  14.863
63203W        W31676  27.000  24.650  12.008
63204W        W31677   8.845   3.226   0.916
63205W        W31678  15.786  32.046  10.973
63206W        W31679   8.824   9.809  13.547
63207W        W31680  36.482  28.025   0.247
63208W        W31681  35.595  18.711   0.411
63209W        W31682  19.187  14.256  10.577
63210W        W31683  19.622   0.819   2.413
63211W        W31684  24.190   7.806  13.379
63212W        W31685  33.444  38.821  14.766
63213W        W31686   1.899   7.384  11.101
63214W        W31687  10.340  26.978  13.987
63215W        W31688   3.765   1.480   4.335
63216W        W31689  13.746  39.502   1.700
63217W        W31690  26.115  21.226   4.185
63218W        W31691  23.157   3.786  10.490
63219W        W31692  33.385  27.549  11.448
63220W        W31693   7.790  12.147  13.855
63221W        W31694  39.928  20.556   3.770
63222W        W31695  11.157  33.585   1.727
63223W        W31696  35.069  38.880  11.475
63224W        W31697   8.735   7.220   3.836
63225W        W31698  17.604  40.360  11.435
63226W        W31699  20.636  18.141   2.714
63227W        W31700  44.880   3.894   1.741
63228W        W31701   3.346  20.104  12.892
63229W        W31702  24.082  25.990   1.320
63230W        W31703  10.334  19.691  14.927
63231W        W31704   2.922  22.521  13.448
63232W        W31705  29.970  14.234   0.430
63233W        W31706   5.783  44.991   3.267
63234W        W31707  35.087   0.905   2.220
63235W        W31708  38.563  40.497  13.798
63236W        W31709   2.333  33.055  13.021
63237W        W31710  38.380  16.618   4.673
63238W        W31711  44.381   7.840   4.252
63239W        W31712  22.134  13.346  14.814
63240W        W31713  35.380   2.952  12.558
63241W        W31714  14.291  25.472  12.577
63242W        W31715   8.278  13.228   0.270
63243W        W31716  26.194   4.945  11.373
63244W        W31717  38.372  36.031   2.669
63245W        W31718  30.507   3.227  10.970
63246W        W31719   4.449  43.930  10.533
63247W        W31720  35.958  32.462   1.920
63248W        W31721   9.160  29.084  11.998
63249W        W31722  10.646  14.706   3.842
63250W        W31723   5.419  11.655  10.443
63251W        W31724   2.951  25.696  14.019
63252W        W31725  42.011   9.284   2.378
63253W        W31726  36.510  17.162   4.328
63254W        W31727   6.778  29.073   2.838
63255W        W31728   2.441  18.677  14.872
63256W        W31729  23.606  25.660   4.813
63257W        W31730  17.759  10.289   4.795
63258W        W31731   9.225   7.877  12.945
63259W        W31732  25.216  22.034  11.933
63260W        W31733  34.439  22.576  10.644
63261W        W31734  11.325  43.321  11.996
63262W        W31735  15.819  41.299  10.618
63263W        W31736  41.464  44.335  13.432
63264W        W31737  21.702  23.109   0.319
63265W        W31738   9.725  30.619  14.885
63266W        W31739  29.566  11.858  11.042
63267W        W31740  32.561  29.662  11.572
63268W        W31741  25.002  27.465   3.684
63269W        W31742  41.927   7.381  12.518
63270W        W31743   2.733  34.105   3.196
63271W        W31744   0.780  30.415  13.890
63272W        W31745  35.010  40.866  11.965
63273W        W31746  20.050  25.670   1.882
63274W        W31747  33.928  37.066   2.409
63275W        W31748   1.736  21.220  11.915
63276W        W31749  26.673   6.695  12.043
63277W        W31750  13.771  33.907  12.057
63278W        W31751   8.677  27.967   5.191
63279W        W31752  32.898  44.795   0.476
63280W        W31753  24.606  25.976  11.610
63281W        W31754  14.263  11.743   2.386
63282W        W31755   9.363   5.328   2.787
63283W        W31756  23.521  19.072   4.789
63284W        W31757   6.846   9.254  12.929
63285W        W31758  27.087   2.776   4.831
63286W        W31759   0.379  19.238   3.862
63287W        W31760  21.235  43.464   2.871
63288W        W31761  43.819   7.371  14.001
63289W        W31762  28.617  32.630  12.413
63290W        W31763  30.520   7.394   1.861
63291W        W31764  40.859  22.565   1.864
63292W        W31765  20.202  43.953   2.837
63293W        W31766   8.728  13.833  14.292
63294W        W31767   1.290  23.497   2.258
63295W        W31768  19.104  40.435   1.263
63296W        W31769  13.243   7.227  11.578
63297W        W31770  10.158   7.292   0.938
63298W        W31771  40.005  21.253   4.228
63299W        W31772  29.503  11.735  11.413
63300W        W31773   9.819  19.078   0.329
63301W        W31774  29.122   0.361   2.340
63302W        W31775  25.059   5.812   1.771
63303W        W31776   1.904  39.396  13.379
63304W        W31777  28.530  21.727   1.876
63305W        W31778  12.689  13.637  10.619
63306W        W31779  18.165   5.215  14.293
63307W        W31780  39.411  23.724   3.258
63308W        W31781  27.650   0.845   4.620
63309W        W31782  26.661  36.095  10.912
63310W        W31783  11.193  35.867   5.290
63311W        W31784  36.987  36.914   3.694
63312W        W31785   9.341  41.465  12.519
63313W        W31786  28.622  28.460  12.355
63314W        W31787  27.046   0.833  14.996
63315W        W31788  34.950   3.415   3.219
63316W        W31789  35.541  21.240  13.334
63317W        W31790  40.049  44.502   3.643
63318W        W31791   1.956  19.173   4.299
63319W        W31792  39.334  36.088  14.795
63320W        W31793  43.896  31.507   4.704
63321W        W31794  22.690  15.245  13.044
63322W        W31795  28.657   3.861  13.444
63323W        W31796  23.065   6.756   3.703
63324W        W31797  14.310  34.381   2.378
63325W        W31798  16.278  25.585   1.728
63326W        W31799   7.334   3.242  10.996
63327W        W31800   2.897   8.330  13.979
63328W        W31801   1.367  18.575  13.538
63329W        W31802  38.412  13.833   4.615
63330W        W31803  42.885  10.687  11.384
63331W        W31804  39.039  27.526  10.990
63332W        W31805  17.114   9.843   2.255
63333W        W31806  27.516  22.031   2.341
63334W        W31807  37.538  17.686   0.376
63335W        W31808   8.713  39.487   0.437
63336W        W31809  36.095  41.851  13.502
63337W        W31810  27.600  32.498   2.226
63338W        W31811   3.774  27.540  11.546
63339W        W31812  22.084   8.788  10.570
63340W        W31813  44.422  21.027  13.868
63341W        W31814   2.430  26.051   1.229
63342W        W31815   4.285  10.212   1.243
63343W        W31816   0.861  24.523   4.354
63344W        W31817   6.744  17.158   3.642
63345W        W31818  28.953  32.913   0.372
63346W        W31819   3.917  21.677  11.875
63347W        W31820  24.615  32.125  13.314
63348W        W31821   6.211  36.077   1.697
63349W        W31822   3.452   9.887   1.701
63350W        W31823   4.844   6.237   0.336
63351W        W31824  43.320  38.841  12.518
63352W        W31825  14.310  38.001  11.408
63353W        W31826   5.247  17.110  14.982
63354W        W31827  25.532   5.339  11.548
63355W        W31828  25.130  20.115  12.525
63356W        W31829   8.349  39.962   4.219
63357W        W31830  24.573  21.059   9.946
63358W        W31831  13.769  17.556   1.866
63359W        W31832  33.516  30.503  13.942
63360W        W31833  24.576  44.320  10.592
63361W        W31834  40.952  14.266   3.372
63362W        W31835  41.305  14.809  11.070
63363W        W31836  41.520  14.593   2.810
63364W        W31837  37.475  21.037   1.440
63365W        W31838  25.674  16.765   2.872
63366W        W31839  18.645  26.669  12.852
63367W        W31840  19.157  14.767   1.218
63368W        W31841  25.553  35.592  14.415
63369W        W31842   8.715  36.958   2.266
63370W        W31843  22.997  41.979  14.283
63371W        W31844   7.410  18.574   1.714
63372W        W31845  14.199  25.656  10.590
63373W        W31846  36.081  28.173   3.867
63374W        W31847  31.909  26.108   4.206
63375W        W31848   1.791  40.890   4.682
63376W        W31849  16.136  18.182  13.925
63377W        W31850   4.890   3.842   2.406
63378W        W31851  44.777   3.862  12.883
63379W        W31852  14.623  20.590  11.393
63380W        W31853  41.473  12.684  11.580
63381W        W31854  25.665  20.219  11.937
63382W        W31855  14.202  20.748  13.801
63383W        W31856  12.332   4.380   3.826
63384W        W31857  41.434  29.956   3.798
63385W        W31858   2.240  28.982  14.427
63386W        W31859   5.256  42.985  13.820
63387W        W31860  32.012   7.307  12.899
63388W        W31861  24.553  21.261   0.316
63389W        W31862  22.074  17.779   4.746
63390W        W31863  12.258  22.105   1.374
63391W        W31864  21.721  11.768   3.712
63392W        W31865  38.986   1.337   3.638
63393W        W31866  21.159  10.330  14.486
63394W        W31867  17.725  28.531  10.494
63395W        W31868  14.664  10.872  11.554
63396W        W31869  42.477  44.387   2.276
63397W        W31870   2.776  11.835  11.498
63398W        W31871  11.279  30.472   0.350
63399W        W31872  25.045   6.210  12.991
63400W        W31873  15.145   9.265   0.451
63401W        W31874   5.309  37.968   3.168
63402W        W31875  29.464  17.600   4.680
63403W        W31876   3.405  43.410  13.522
63404W        W31877  35.396  42.367   3.145
63405W        W31878  12.343  17.180  12.459
63406W        W31879  39.410   1.755  10.922
63407W        W31880  36.456  30.025   2.257
63408W        W31881  11.863  10.170  11.596
63409W        W31882   5.760   5.380   5.215
63410W        W31883  21.554   6.861   4.351
63411W        W31884  17.726   5.756  11.585
63412W        W31885  28.140  39.859  14.515
63413W        W31886   6.786  12.258  12.867
63414W        W31887  43.866  27.679  10.572
63415W        W31888  30.914  32.491  13.396
63416W        W31889  31.446  43.903   5.670
63417W        W31890  43.285  20.562  13.473
63418W        W31891  11.851  28.661   1.275
63419W        W31892   7.906  24.616  12.443
63420W        W31893  12.358  36.908  14.813
63421W        W31894  16.777  10.351   0.783
63422W        W31895   4.703  36.893  14.978
63423W        W31896  34.025   2.863  12.551
63424W        W31897  13.166  34.477   0.769
63425W        W31898   5.235  41.398   0.798
63426W        W31899   1.813  28.010  13.387
63427W        W31900   6.305  15.261  10.924
63428W        W31901   1.804  17.087  13.994
63429W        W31902  35.516  21.535  10.547
63430W        W31903   6.327  30.160   4.251
63431W        W31904  17.771   7.203  12.916
63432W        W31905  12.707  23.154   0.737
63433W        W31906  22.251   2.799   4.678
63434W        W31907   7.827   3.271   0.756
63435W        W31908  21.218   1.303  10.561
63436W        W31909  44.296   8.860   1.435
63437W        W31910  36.872  17.796   1.366
63438W        W31911  29.995  24.214   0.894
63439W        W31912  39.500  10.642  14.974
63440W        W31913  22.158  40.979  13.369
63441W        W31914  18.627  23.121  13.886
63442W        W31915  27.659  16.799  10.408
63443W        W31916  32.971  15.616   3.280
63444W        W31917  29.159  34.950   1.450
63445W        W31918  39.060  36.411   3.832
63446W        W31919  21.238  11.773  14.951
63447W        W31920  32.057  23.078  10.112
63448W        W31921  40.331   5.697  10.548
63449W        W31922  26.005   7.370   3.714
63450W        W31923   0.787  37.376   1.445
63451W        W31924  33.977  11.314   1.785
63452W        W31925  19.199  32.027  10.149
63453W        W31926  35.037   2.926  11.537
63454W        W31927   2.761  11.307  12.982
63455W        W31928  28.619   1.857  10.457
63456W        W31929  43.943  39.967   0.254
63457W        W31930  38.076   1.410  13.931
63458W        W31931  30.090  17.113  13.027
63459W        W31932   4.914  14.330   3.372
63460W        W31933   8.286   5.360  10.016
63461W        W31934  39.961   4.231   1.210
63462W        W31935   0.902  16.629   0.408
63463W        W31936  41.383  30.472   4.282
63464W        W31937  19.648   0.252  12.910
63465W        W31938  25.557  39.835  12.020
63466W        W31939  44.006  44.288   0.776
63467W        W31940  44.983  22.240   4.199
63468W        W31941  10.668  32.976  14.436
63469W        W31942   1.786  42.509  14.453
63470W        W31943  40.967  11.720  12.490
63471W        W31944  37.835  29.524  14.408
63472W        W31945   0.493  37.893  14.474
63473W        W31946   0.880  42.850   1.919
63474W        W31947   3.891  24.007  13.030
63475W        W31948  35.409  36.058  13.061
63476W        W31949   1.743  14.109  12.081
63477W        W31950  35.088  15.776  10.154
63478W        W31951   1.901  28.088   3.336
63479W        W31952  25.679   6.781   4.779
63480W        W31953  10.795  38.551  13.414
63481W        W31954  44.446  33.591   0.754
63482W        W31955  26.628  33.571  12.067
63483W        W31956  40.331  16.591  14.958
63484W        W31957  27.563  16.610  11.561
63485W        W31958  34.383  40.894   0.913
63486W        W31959  42.420  19.755   3.379
63487W        W31960  30.058  24.619  10.506
63488W        W31961  21.104   8.238   3.177
63489W        W31962   5.824  28.524   2.736
63490W        W31963  26.546  42.007  11.995
63491W        W31964  15.207  34.528  12.398
63492W        W31965   7.172  30.571   0.737
63493W        W31966   7.769  27.628  10.621
63494W        W31967  31.143  20.201  11.486
63495W        W31968  43.921  28.976   0.846
63496W        W31969  20.230  27.004   1.843
63497W        W31970  30.051  19.190   3.178
63498W        W31971  16.603  16.735   0.398
63499W        W31972  41.404  13.216   3.263
63500W        W31973   8.692  11.352   2.297
63501W        W31974  25.532  17.168  12.880
63502W        W31975  42.807   2.928  10.956
63503W        W31976  39.921  34.546   2.767
63504W        W31977  35.471  19.285   3.857
63505W        W31978   1.963  16.309   1.283
63506W        W31979   4.919  20.154   1.402
63507W        W31980  21.164  32.005   4.782
63508W        W31981  20.572  27.083   4.726
63509W        W31982  36.048   0.472   1.849
63510W        W31983  41.828  30.486   3.322
63511W        W31984  27.970  14.608  10.429
63512W        W31985  28.112  20.052  11.028
63513W        W31986   3.404  43.774  14.445
63514W        W31987  11.690  34.960  10.533
63515W        W31988  35.398  23.613   0.942
63516W        W31989  23.569  33.125   3.719
63517W        W31990  12.273   9.818   0.306
63518W        W31991  31.038   2.782   2.410
63519W        W31992   2.367  39.555   0.763
63520W        W31993  10.242  42.337   0.931
63521W        W31994  27.474  26.594   3.209
63522W        W31995   2.736  36.507  14.944
63523W        W31996  26.165  21.134   1.702
63524W        W31997  36.944  28.125   0.961
63525W        W31998  15.246  34.507  12.034
63526W        W31999   1.915  29.007  11.995
63527W        W32000   3.934  44.800  10.573
63528W        W32001  12.752   3.952   0.426
63529W        W32002  16.766  30.125   2.802
63530W        W32003  29.098  31.896   4.697
63531W        W32004  38.482  40.915  14.421
63532W        W32005  25.603  37.459  12.916
63533W        W32006  29.946  39.903   0.270
63534W        W32007  37.477  44.410   2.342
63535W        W32008  42.995  15.684  12.893
63536W        W32009  10.659   2.462   2.813
63537W        W32010  19.202  43.978   2.234
63538W        W32011   7.381  34.605   3.296
63539W        W32012   8.251  38.071   0.382
63540W        W32013  30.535  31.492  10.436
63541W        W32014  28.544  38.973  12.044
63542W        W32015  34.411   6.270  14.377
63543W        W32016  39.022  10.266  14.475
63544W        W32017  41.028  19.281  13.351
63545W        W32018  22.217   5.806  12.550
63546W        W32019  44.878   7.669  11.510
63547W        W32020  13.280   8.180  11.418
63548W        W32021  35.906  43.944   4.839
63549W        W32022  36.350  40.813  10.489
63550W        W32023  19.145  16.701   3.819
63551W        W32024  41.787  27.576  10.495
63552W        W32025   9.701  25.656  12.536
63553W        W32026   9.389  26.594   3.175
63554W        W32027  19.603   6.280  14.280
63555W        W32028  22.719  41.990  10.552
63556W        W32029  28.468  18.710  10.486
63557W        W32030  37.505  28.017   3.660
63558W        W32031  43.885   3.436  12.418
63559W        W32032  13.716  39.447  12.469
63560W        W32033   8.322  42.393   2.363
63561W        W32034  40.506  38.996   0.250
63562W        W32035  18.608   3.898   1.879
63563W        W32036  18.653  32.418   4.736
63564W        W32037  18.616  39.815   2.391
63565W        W32038  22.508  29.041  14.479
63566W        W32039  21.040  23.528   4.715
63567W        W32040  10.324  42.885  14.817
63568W        W32041  42.990  13.750   2.707
63569W        W32042  17.301  35.103  11.556
63570W        W32043   6.712  18.714  14.844
63571W        W32044  20.071  27.498   2.887
63572W        W32045  44.763  13.802  11.535
63573W        W32046  43.924  15.204   0.431
63574W        W32047  39.968  37.961   3.347
63575W        W32048  37.353  39.932  12.968
63576W        W32049   5.368  38.565  11.056
63577W        W32050   3.343   1.307   1.760
63578W        W32051  18.724  28.541   1.392
63579W        W32052  31.900  14.796  12.877
63580W        W32053  41.523   8.791  12.987
63581W        W32054   8.851  23.005   5.270
63582W        W32055  18.550  42.351   2.271
63583W        W32056  23.214  36.453  12.915
63584W        W32057  36.558   5.725   4.322
63585W        W32058  22.640  30.937   3.867
63586W        W32059   6.845  40.037  11.100
63587W        W32060  20.199  20.731   0.931
63588W        W32061  31.136  41.512   4.769
63589W        W32062  14.104  16.241  11.487
63590W        W32063   9.882   8.700   0.928
63591W        W32064  44.459  44.920   0.430
63592W        W32065   3.422  37.372  11.908
63593W        W32066  10.145  39.937  13.437
63594W        W32067  18.130   2.761  13.363
63595W        W32068  34.608  31.922   2.733
63596W        W32069  11.637  44.467   4.657
63597W        W32070   3.929   1.364   0.935
63598W        W32071  32.138   1.766  14.478
63599W        W32072  11.666  15.686  14.298
63600W        W32073  42.976  42.875   2.321
63601W        W32074  19.714  12.229  11.858
63602W        W32075  31.097  21.079  14.357
63603W        W32076   0.449  30.636   0.335
63604W        W32077   9.366  26.053   0.317
63605W        W32078  18.208  36.871   4.320
63606W        W32079  28.983  36.552   3.289
63607W        W32080   5.733  28.962   1.316
63608W        W32081   7.228  43.812  13.452
63609W        W32082  40.922  19.634  12.465
63610W        W32083  30.432  10.152   3.656
63611W        W32084  23.703  19.281  14.481
63612W        W32085  16.725   4.858  12.524
63613W        W32086  17.649   3.439   2.314
63614W        W32087  22.589  15.665  13.396
63615W        W32088   9.318  29.655  12.577
63616W        W32089  43.416  17.107   1.353
63617W        W32090   2.427  12.332   2.730
63618W        W32091   8.214  38.420   2.194
63619W        W32092  29.927  15.654  14.390
63620W        W32093  18.703   2.730   4.223
63621W        W32094  37.422  26.113   1.435
63622W        W32095  31.565  18.215   2.337
63623W        W32096  25.976   0.765   3.772
63624W        W32097  23.013   3.359  10.948
63625W        W32098  42.330  39.331   2.373
63626W        W32099  39.454  22.636  14.930
63627W        W32100  32.501  21.677   4.342
63628W        W32101  36.570   7.835  11.981
63629W        W32102  28.582  26.665  13.971
63630W        W32103  23.609  16.133  12.843
63631W        W32104   5.198  20.107   0.891
63632W        W32105  38.532  41.443  11.977
63633W        W32106  29.605  31.133   3.267
63634W        W32107  26.991  22.631   4.193
63635W        W32108   8.758  21.086  14.794
63636W        W32109  10.755   6.822  11.599
63637W        W32110  29.587  13.257   0.334
63638W        W32111  30.014  11.645   4.215
63639W        W32112  37.506  17.160   0.812
63640W        W32113  37.578   1.297  11.924
63641W        W32114  18.245  25.108   1.266
63642W        W32115   3.794   9.889   0.276
63643W        W32116  20.560  20.050  11.578
63644W        W32117  14.639  14.604  13.541
63645W        W32118  21.207  22.231  13.430
63646W        W32119  20.263   8.806  13.398
63647W        W32120   4.806  24.018  13.830
63648W        W32121  44.776  16.233   0.434
63649W        W32122  27.451  10.324  12.852
63650W        W32123  36.889  26.511   1.863
63651W        W32124  11.305  39.460   4.140
63652W        W32125   4.386  22.698   4.776
63653W        W32126  30.534  19.633  11.540
63654W        W32127   2.961  11.204   2.392
63655W        W32128  32.985  10.730   1.358
63656W        W32129   3.378  19.698   5.099
63657W        W32130  42.979  38.875  10.985
63658W        W32131  42.874   9.793  13.863
63659W        W32132  29.623  42.875  12.339
63660W        W32133   6.914  39.876   3.328
63661W        W32134  40.372  22.507   1.241
63662W        W32135  40.357  35.030  12.548
63663W        W32136  13.329   8.290  14.924
63664W        W32137  26.132  36.949  11.380
63665W        W32138  14.309  14.629  10.513
63666W        W32139  43.765  10.323   0.311
63667W        W32140  30.163  14.303   1.436
63668W        W32141  42.016  36.931   0.260
63669W        W32142   1.278  18.561   4.737
63670W        W32143  23.543  13.310  12.979
63671W        W32144  15.101  25.071  12.826
63672W        W32145  30.027   7.223   0.402
63673W        W32146  10.871   9.715   1.377
63674W        W32147  18.725  40.003   0.790
63675W        W32148  24.097  19.267   4.684
63676W        W32149  44.775  34.883  10.504
63677W        W32150  20.165  42.502   1.304
63678W        W32151   4.212  33.621   4.606
63679W        W32152  28.527  26.988   1.754
63680W        W32153  38.882  17.634  12.521
63681W        W32154  42.818  40.823   1.931
63682W        W32155  40.477  35.599  10.511
63683W        W32156  12.154  28.600   1.921
63684W        W32157  39.396   2.351  11.497
63685W        W32158  27.601   4.894  12.363
63686W        W32159  18.778  13.801  14.990
63687W        W32160  20.553  13.212   2.828
63688W        W32161   8.732  35.466   2.783
63689W        W32162  40.417  41.378   2.395
63690W        W32163  27.102   4.358   2.412
63691W        W32164  29.519  19.190  10.603
63692W        W32165   3.900  26.082   2.279
63693W        W32166  18.786  26.072  13.447
63694W        W32167  16.222   3.819  11.093
63695W        W32168  18.091  43.955  13.510
63696W        W32169   8.330  35.577  14.480
63697W        W32170  41.791  41.958   0.781
63698W        W32171  42.849  43.010   0.319
63699W        W32172  18.754  43.324   0.878
63700W        W32173   4.898  42.491   2.319
63701W        W32174  43.943  44.950  13.967
63702W        W32175   7.399  39.909   4.137
63703W        W32176  28.140   5.711   0.807
63704W        W32177  43.998  42.374  14.820
63705W        W32178  20.059  29.645   0.309
63706W        W32179  13.730  19.070  13.995
63707W        W32180  23.636  22.543  11.923
63708W        W32181  44.826  25.994  10.922
63709W        W32182   0.442  42.422  14.478
63710W        W32183  35.972   9.328   0.770
63711W        W32184  18.740   8.677  11.081
63712W        W32185  23.166  13.639  12.366
63713W        W32186  40.517   4.821  10.023
63714W        W32187  25.705  37.423  14.999
63715W        W32188   8.877  16.692   3.841
63716W        W32189   4.727  32.528   4.338
63717W        W32190   3.719  22.536  14.461
63718W        W32191  25.528  15.189   0.470
63719W        W32192   4.409   1.856   3.240
63720W        W32193  38.382  29.115   3.864
63721W        W32194   4.286  43.314   1.429
63722W        W32195   7.353  38.563   2.250
63723W        W32196  29.006  28.150   1.793
63724W        W32197  10.199  17.621  12.445
63725W        W32198  42.440  44.991   4.267
63726W        W32199  20.257  33.586  11.436
63727W        W32200  43.939  42.948  12.917
63728W        W32201  37.043  22.554   0.410
63729W        W32202  15.657   1.773  11.372
63730W        W32203   2.743  17.146   0.278
63731W        W32204   6.249   1.237   3.218
63732W        W32205  36.470  10.195  11.572
63733W        W32206  42.796   2.732   1.709
63734W        W32207  10.147  12.618   0.319
63735W        W32208   7.709   3.747  12.449
63736W        W32209  25.469  34.496  10.417
63737W        W32210  12.682  35.980   4.780
63738W        W32211  20.719  32.128   2.286
63739W        W32212  14.294  19.233  11.526
63740W        W32213  16.789  27.477  11.419
63741W        W32214  22.171  30.116  12.090
63742W        W32215  40.515  17.576  12.395
63743W        W32216   5.432  30.112  10.977
63744W        W32217  11.713  26.516   4.719
63745W        W32218  32.983  19.057   3.714
63746W        W32219  30.110  42.871   0.839
63747W        W32220  10.699  16.167   1.866
63748W        W32221  24.175   2.800   4.611
63749W        W32222  23.088  39.972  13.020
63750W        W32223  19.577   4.287   4.250
63751W        W32224  42.448  39.546  12.431
63752W        W32225  40.020  36.534  14.977
63753W        W32226  13.107   0.961   2.774
63754W        W32227  40.839  26.104  14.363
63755W        W32228   1.902  19.275  13.459
63756W        W32229  29.150  34.396   0.927
63757W        W32230  43.513  11.303  13.376
63758W        W32231  23.679  35.906  13.319
63759W        W32232  23.987  15.293   3.634
63760W        W32233  27.978  28.942   4.631
63761W        W32234  40.324   6.407  14.438
63762W        W32235  12.819  38.414  11.920
63763W        W32236   3.952  31.494   2.730
63764W        W32237  33.483  27.971  14.839
63765W        W32238  25.986  33.058   2.384
63766W        W32239  12.794  23.644  12.397
63767W        W32240  25.015  31.948  10.949
63768W        W32241   5.788   0.314  14.894
63769W        W32242   7.193  43.307  11.497
63770W        W32243  33.048  18.597  11.452
63771W        W32244   2.918   7.306  14.318
63772W        W32245  32.469  38.488  11.606
63773W        W32246  10.731  39.053  11.386
63774W        W32247  36.960  11.856   0.480
63775W        W32248  19.177  15.738   2.882
63776W        W32249  29.476  13.631   1.218
63777W        W32250   4.727  29.102  11.460
63778W        W32251  10.754  38.853  12.022
63779W        W32252   6.308  17.569  13.464
63780W        W32253  13.326   5.698   2.818
63781W        W32254   2.449  34.592   3.838
63782W        W32255  26.634  37.337  13.350
63783W        W32256  21.645  22.094   0.872
63784W        W32257   8.404  30.473  13.886
63785W        W32258  16.753  12.730   4.683
63786W        W32259  21.191  26.180  13.046
63787W        W32260  39.371  30.992   0.368
63788W        W32261  26.592   8.247  12.502
63789W        W32262  28.182   8.272  10.467
63790W        W32263  29.015  41.788  14.799
63791W        W32264  20.706  32.398   2.179
63792W        W32265  44.311  25.142  14.471
63793W        W32266   6.898   6.197  11.924
63794W        W32267  29.663   9.865  12.443
63795W        W32268   0.439   7.370   3.293
63796W        W32269  26.062  30.561  11.106
63797W        W32270  24.642  21.736  11.098
63798W        W32271  42.368  21.559  12.943
63799W        W32272   9.241  37.582   4.737
63800W        W32273  26.094  24.091  11.461
63801W        W32274  32.606  12.805   2.270
63802W        W32275  21.636   3.947  10.590
63803W        W32276  13.700  27.591   0.803
63804W        W32277   4.283   3.415   2.725
63805W        W32278  35.945  43.438  13.973
63806W        W32279  38.399  43.813   2.349
63807W        W32280  36.845  29.160   0.356
63808W        W32281  18.644  26.513   3.375
63809W        W32282   9.353  41.531   5.123
63810W        W32283   7.390  38.856   0.868
63811W        W32284   5.877  15.147  12.374
63812W        W32285  44.956  27.631   4.205
63813W        W32286  31.963   0.363   3.729
63814W        W32287  41.821  42.468  11.539
63815W        W32288  13.127  43.964   0.910
63816W        W32289  25.635  12.181   2.321
63817W        W32290   1.977  20.031  10.555
63818W        W32291  19.546  44.306  12.509
63819W        W32292  16.683  40.944   3.239
63820W        W32293  30.467  44.348  11.513
63821W        W32294  36.880  19.584  11.573
63822W        W32295  29.055  39.356  10.638
63823W        W32296  19.661  40.427   3.195
63824W        W32297  41.839  13.829   2.311
63825W        W32298  23.581  12.215  13.046
63826W        W32299  43.416  20.568   3.179
63827W        W32300  27.997  12.231   2.181
63828W        W32301  18.081  22.228  11.535
63829W        W32302  17.603  30.544  14.836
63830W        W32303  15.657  31.053  12.356
63831W        W32304  29.058  25.698   1.387
63832W        W32305  19.757  41.941  12.895
63833W        W32306  44.961  40.368  11.940
63834W        W32307  35.018  18.636   0.446
63835W        W32308  35.380   2.456  11.897
63836W        W32309  20.748  13.334   4.709
63837W        W32310   2.437  42.782  11.938
63838W        W32311   8.706  14.333   2.414
63839W        W32312  41.007  16.777   2.189
63840W        W32313  22.152  14.733   2.696
63841W        W32314   1.791  26.168   0.841
63842W        W32315  38.354  12.314   4.609
63843W        W32316  38.457  36.876   2.403
63844W        W32317  13.754  30.977  13.849
63845W        W32318  23.637   4.383  11.960
63846W        W32319  32.970   8.674   0.430
63847W        W32320  17.741  17.219  13.871
63848W        W32321  43.299  12.337  12.036
63849W        W32322   7.341  16.595  14.314
63850W        W32323  29.492  22.548  10.477
63851W        W32324  31.924  23.118   1.782
63852W        W32325  40.470   9.376   0.784
63853W        W32326  38.038  34.115   4.646
63854W        W32327  25.591  15.197   3.261
63855W        W32328   7.803   3.856   3.705
63856W        W32329  23.628  44.308  14.421
63857W        W32330   4.284  40.438   2.266
63858W        W32331   8.336  22.101  10.584
63859W        W32332  38.507  18.076  13.530
63860W        W32333  23.617  24.017  11.983
63861W        W32334   4.871  26.634   0.783
63862W        W32335  35.018  39.952  12.078
63863W        W32336   2.470  31.469  14.282
63864W        W32337  33.558  23.194  13.945
63865W        W32338  16.596  10.195   4.779
63866W        W32339  38.473  14.755  12.929
63867W        W32340  31.024   3.215   2.713
63868W        W32341  27.125   0.910  13.418
63869W        W32342  10.740  26.037   4.726
63870W        W32343  33.617  15.250  14.925
63871W        W32344  32.106  42.291  10.901
63872W        W32345   8.729   4.771  12.886
63873W        W32346  16.164  18.610   0.907
63874W        W32347  30.148  15.745   4.838
63875W        W32348   1.858  20.763  11.093
63876W        W32349   2.792   3.827   1.433
63877W        W32350  25.987  27.084   1.882
63878W        W32351  42.009  17.731   1.411
63879W        W32352  28.996  16.291   0.392
63880W        W32353  27.045  32.508  13.021
63881W        W32354  38.374  15.752  13.320
63882W        W32355  34.591  43.489  12.436
63883W        W32356  32.399   6.299  12.536
63884W        W32357  36.362  23.501   4.825
63885W        W32358   8.340  11.361  12.927
63886W        W32359   3.878  40.502  13.438
63887W        W32360  22.041  17.720   0.779
63888W        W32361   2.233  11.201  10.619
63889W        W32362  19.061  34.487  10.433
63890W        W32363  40.980  20.261   0.753
63891W        W32364  33.107  18.733  14.990
63892W        W32365  40.994   4.872   1.405
63893W        W32366   4.839   7.712   1.406
63894W        W32367   7.729   6.363  12.565
63895W        W32368  36.545  37.030  13.934
63896W        W32369   5.310   1.476   3.379
63897W        W32370  43.910  22.081   1.305
63898W        W32371  29.103  32.611  13.317
63899W        W32372  41.461  14.189   1.436
63900W        W32373  36.877  29.085   2.832
63901W        W32374  23.549  29.608  10.920
63902W        W32375  28.064  33.096  11.377
63903W        W32376  18.603  15.789   1.439
63904W        W32377  32.452  12.183  12.562
63905W        W32378  33.491   5.861   2.308
63906W        W32379  15.622  43.298   0.378
63907W        W32380  36.867  22.171   0.781
63908W        W32381  31.907  36.094   0.253
63909W        W32382  32.008   9.850   3.224
63910W        W32383  31.109  13.192   0.883
63911W        W32384  10.370  28.032  10.565
63912W        W32385   3.256  33.927   4.742
63913W        W32386  10.270  22.191   1.356
63914W        W32387  40.479  22.111   0.426
63915W        W32388  25.979  11.352  10.494
63916W        W32389  39.458  39.391   2.769
63917W        W32390  12.363   1.360  11.979
63918W        W32391  38.925  12.849  10.949
63919W        W32392  12.823  25.540  12.940
63920W        W32393  19.272  34.984  12.958
63921W        W32394  10.312  42.985  12.856
63922W        W32395   2.954   4.278  13.994
63923W        W32396  34.014   5.762  14.913
63924W        W32397  19.050  36.568   2.236
63925W        W32398  33.622  35.490   0.380
63926W        W32399   4.714  16.787  13.846
63927W        W32400  11.278  27.468   0.736
63928W        W32401  17.735   0.918  14.029
63929W        W32402  38.942  38.436   3.348
63930W        W32403  27.563  25.164  14.794
63931W        W32404  10.172  27.103  12.556
63932W        W32405  25.555   9.652  10.942
63933W        W32406  28.559  21.028  14.381
63934W        W32407  36.524  21.720   1.333
63935W        W32408  30.006  43.797  11.445
63936W        W32409  42.835  39.824  11.385
63937W        W32410   5.708  43.816  13.448
63938W        W32411  36.369   2.941   1.419
63939W        W32412  29.588  36.884  13.855
63940W        W32413  26.148   1.468   2.270
63941W        W32414   2.948   7.364  11.005
63942W        W32415   8.240  15.312   1.930
63943W        W32416  12.627  40.320   0.868
63944W        W32417  32.888   0.863   3.808
63945W        W32418  14.312  22.117  12.088
63946W        W32419   0.981  19.216  13.993
63947W        W32420  12.824  31.443  14.516
63948W        W32421  18.175  22.241  13.905
63949W        W32422   9.254  10.767   0.419
63950W        W32423  17.662   4.719  10.547
63951W        W32424  28.494  14.243   1.715
63952W        W32425   6.787  17.205   4.627
63953W        W32426  27.182   0.959   0.765
63954W        W32427   3.446  43.430   4.234
63955W        W32428  22.708  40.341   4.710
63956W        W32429  37.909  12.123  11.374
63957W        W32430  42.300  11.261  11.373
63958W        W32431   9.752  36.850   9.522
63959W        W32432  25.657  15.589  13.490
63960W        W32433   3.796  22.654   1.824
63961W        W32434   9.738  43.296   0.740
63962W        W32435  31.446   5.743  11.043
63963W        W32436  27.141   4.831  12.058
63964W        W32437  24.982  17.715  11.373
63965W        W32438   1.747  38.402  13.424
63966W        W32439  15.766  32.440  12.948
63967W        W32440  32.015  24.573   2.790
63968W        W32441  34.500  34.079   1.412
63969W        W32442  18.096  12.788  11.466
63970W        W32443  15.296  37.841   4.752
63971W        W32444   5.693   1.831   0.756
63972W        W32445  21.731  15.799  13.488
63973W        W32446  10.869  10.273  11.583
63974W        W32447  23.527  11.771   4.764
63975W        W32448  29.520  33.603   3.868
63976W        W32449   9.250  41.026   1.771
63977W        W32450   4.232  18.590   2.744
63978W        W32451  37.080  27.606  12.972
63979W        W32452  35.093  19.648  13.860
63980W        W32453  37.934  39.391  11.927
63981W        W32454   9.662   0.333   2.881
63982W        W32455  27.016   3.788   2.665
63983W        W32456  38.526  20.155  12.468
63984W        W32457   0.989  37.577  14.426
63985W        W32458  39.829  14.669   3.768
63986W        W32459  19.678   4.242  13.519
63987W        W32460  41.909  41.487   3.669
63988W        W32461  33.969  33.127  13.983
63989W        W32462  27.541  43.771   4.320
63990W        W32463  19.127   0.266   0.949
63991W        W32464  44.806   8.715  13.910
63992W        W32465  29.921  26.487   2.730
63993W        W32466  28.533  17.088  10.936
63994W        W32467  20.144   5.242   1.815
63995W        W32468  42.331  11.266   1.370
63996W        W32469   7.670   7.177   4.684
63997W        W32470  10.705  36.544   1.220
63998W        W32471  38.830  19.537   3.770
63999W        W32472  20.246   3.806  12.537
64000W        W32473  25.059  23.565  11.451
64001W        W32474  25.000  11.838  10.453
64002W        W32475  40.025   7.254  13.314
64003W        W32476  17.788   5.718  13.988
64004W        W32477   9.650  14.275  14.896
64005W        W32478  44.921   5.214   1.847
64006W        W32479  22.203  26.466   0.906
64007W        W32480   9.788  20.127   1.264
64008W        W32481  31.537  32.093  11.576
64009W        W32482  21.178  38.937  11.010
64010W        W32483   9.751   9.379   3.224
64011W        W32484  35.364  22.193  12.996
64012W        W32485  24.563  26.007  12.490
64013W        W32486  20.268  29.472   2.819
64014W        W32487   2.418  21.036   2.748
64015W        W32488  40.484  10.218  11.486
64016W        W32489  38.889  19.720   2.777
64017W        W32490  34.952  15.710   1.323
64018W        W32491  40.543  14.150   1.288
64019W        W32492  40.480  36.028  14.835
64020W        W32493   4.270  10.877  12.576
64021W        W32494  22.733  10.707   4.162
64022W        W32495  40.495  40.405   0.811
64023W        W32496  26.644   2.440  11.886
64024W        W32497  14.264  23.218   3.193
64025W        W32498  13.317  25.497  14.984
64026W        W32499   7.227  25.672  11.979
64027W        W32500  11.757  10.682  12.549
64028W        W32501  16.581  34.892  12.383
64029W        W32502  25.572   8.800   5.244
64030W        W32503   8.764  28.541  10.464
64031W        W32504  18.213  38.943  10.555
64032W        W32505  35.460  33.584  14.448
64033W        W32506  39.453  32.458  11.886
64034W        W32507  30.915  44.805   5.571
64035W        W32508   6.278   6.231  13.373
64036W        W32509   6.424  11.273   2.275
64037W        W32510  34.585   5.423   0.370
64038W        W32511   2.469  12.845   2.753
64039W        W32512   9.656  30.028  10.929
64040W        W32513  20.030  14.667   0.810
64041W        W32514  24.709   5.274  10.606
64042W        W32515  40.519  30.651   0.417
64043W        W32516  42.996  27.472   2.322
64044W        W32517  41.948  10.294   1.704
64045W        W32518  25.502  39.552   1.811
64046W        W32519  38.903   6.357   1.762
64047W        W32520  36.003   2.824   4.792
64048W        W32521  34.099  30.073  12.388
64049W        W32522  15.235   6.407  13.913
64050W        W32523   9.649  44.286  13.991
64051W        W32524  26.592   0.349   2.283
64052W        W32525  42.496  19.075   3.293
64053W        W32526  43.866  24.157  12.442
64054W        W32527  34.400  12.645  13.955
64055W        W32528  37.458  38.975   3.167
64056W        W32529  44.970   7.325   1.788
64057W        W32530   2.818  21.717  12.904
64058W        W32531  16.248  38.386  12.407
64059W        W32532  34.591  33.452  14.407
64060W        W32533   5.917   2.268  13.505
64061W        W32534   2.442  37.944   4.664
64062W        W32535  30.020  10.179  12.039
64063W        W32536  42.778  30.963  14.413
64064W        W32537   3.794  41.307  14.777
64065W        W32538   4.267  22.625  13.908
64066W        W32539  13.691   7.796   0.329
64067W        W32540   1.303  16.265   4.789
64068W        W32541  12.838   7.812  10.630
64069W        W32542  34.537  37.442  11.943
64070W        W32543  26.672   1.872  14.486
64071W        W32544  42.944  42.417  12.422
64072W        W32545  22.211   8.279   3.180
64073W        W32546  27.958  13.740  14.849
64074W        W32547  18.697  10.748   0.953
64075W        W32548  29.982  15.683   1.318
64076W        W32549  12.336  30.567  11.870
64077W        W32550  40.450  41.416   3.641
64078W        W32551  37.565  10.816   2.334
64079W        W32552  36.402  19.090  10.553
64080W        W32553  14.207  22.649  10.414
64081W        W32554  36.565   8.257  11.423
64082W        W32555   5.304  23.226   3.252
64083W        W32556   5.697  27.475  14.025
64084W        W32557  14.732   0.981   1.714
64085W        W32558  29.937   7.396   3.781
64086W        W32559  14.626  18.087  11.379
64087W        W32560  13.717  42.388  11.494
64088W        W32561  16.218  40.859  13.477
64089W        W32562  29.046  32.095   2.872
64090W        W32563   4.350  15.217   3.862
64091W        W32564  39.957  19.284   2.808
64092W        W32565  27.664  19.228   4.680
64093W        W32566  36.350   1.426  12.049
64094W        W32567  25.129  14.264  14.822
64095W        W32568  21.565  34.935   4.724
64096W        W32569  37.493  44.755  12.422
64097W        W32570  28.025  32.926  10.012
64098W        W32571   0.360  39.433   1.935
64099W        W32572  28.673  38.339   4.610
64100W        W32573   9.838  19.270  12.438
64101W        W32574  28.629   4.801   0.482
64102W        W32575  25.170  33.999  14.367
64103W        W32576  19.609  34.397   4.638
64104W        W32577  34.561  40.413  11.438
64105W        W32578  33.909  18.099  14.013
64106W        W32579   7.842   1.827   0.751
64107W        W32580  35.439  27.592  14.839
64108W        W32581  36.472  27.158  13.848
64109W        W32582  21.572   3.752   0.322
64110W        W32583  40.839  15.180   3.211
64111W        W32584  38.887   5.237  14.905
64112W        W32585  14.823  17.218   3.802
64113W        W32586   4.369  27.480   4.664
64114W        W32587  15.329   7.230   4.756
64115W        W32588  24.145  13.832  13.814
64116W        W32589  11.799  34.112   2.881
64117W        W32590  33.418   4.249   1.364
64118W        W32591  10.656   4.809   1.695
64119W        W32592  20.242  20.102   2.688
64120W        W32593   0.824  30.004  11.392
64121W        W32594   4.432  23.016  14.366
64122W        W32595   9.289   7.774  10.418
64123W        W32596   8.697  28.969  13.876
64124W        W32597  18.140  27.122  12.072
64125W        W32598  30.102  41.972   1.239
64126W        W32599  25.714  39.386   2.828
64127W        W32600  33.584   5.360  13.356
64128W        W32601  15.710  18.183   3.334
64129W        W32602   9.383  23.022  13.441
64130W        W32603  28.550  26.568   3.343
64131W        W32604  38.950  43.817   4.334
64132W        W32605  17.233   3.932  14.948
64133W        W32606  25.055  19.205   1.894
64134W        W32607   7.383  36.352   4.178
64135W        W32608  18.128   7.233  13.312
64136W        W32609   3.230  38.388  12.488
64137W        W32610  14.128  33.890   4.204
64138W        W32611  15.683  13.262   1.916
64139W        W32612  36.501  34.400   2.177
64140W        W32613  11.815   8.701  13.029
64141W        W32614  39.885  34.603   3.748
64142W        W32615  32.993  14.166   2.826
64143W        W32616  11.717  36.982   3.335
64144W        W32617  40.961  35.022   2.283
64145W        W32618  28.656   3.811   1.868
64146W        W32619   4.930  12.304   4.132
64147W        W32620  31.961  34.428   2.283
64148W        W32621   9.667  42.843  14.010
64149W        W32622  25.519   6.867  14.462
64150W        W32623  33.017   8.205  10.593
64151W        W32624   9.785  29.071   4.758
64152W        W32625  21.230  29.082   1.259
64153W        W32626  32.133  27.663  12.369
64154W        W32627  31.554  21.702  14.298
64155W        W32628  37.372  14.110   1.432
64156W        W32629  25.124  11.247  10.406
64157W        W32630  17.210   4.363   2.362
64158W        W32631   9.659  20.208   3.852
64159W        W32632  11.651  16.136  14.329
64160W        W32633  43.910  10.141  12.507
64161W        W32634  38.335  33.496  10.627
64162W        W32635  13.220  27.003  12.434
64163W        W32636  20.645   7.791   2.197
64164W        W32637   0.816   4.380  12.450
64165W        W32638   9.326  27.122   4.607
64166W        W32639  23.217  26.172   3.656
64167W        W32640  35.086  32.590   1.382
64168W        W32641  34.426  39.961   1.760
64169W        W32642  44.938  21.647  11.394
64170W        W32643  13.715  22.715   1.214
64171W        W32644  24.179   9.785  10.509
64172W        W32645  43.464  30.093   2.213
64173W        W32646  32.042  43.821  10.127
64174W        W32647  10.709  42.900  11.492
64175W        W32648  36.546  11.327   1.245
64176W        W32649  22.170  40.406  13.796
64177W        W32650  42.503   2.366   1.353
64178W        W32651  25.681  35.105   0.249
64179W        W32652   5.723  22.249   0.320
64180W        W32653  26.058  10.191  14.313
64181W        W32654   9.301   8.280  10.894
64182W        W32655  13.229  42.980  11.603
64183W        W32656   6.710   7.209  11.438
64184W        W32657  34.481  20.763  14.948
64185W        W32658   4.770  16.729   2.297
64186W        W32659  11.848  44.881  10.428
64187W        W32660  36.370   0.910  13.491
64188W        W32661  20.050  17.756   0.847
64189W        W32662  33.410  22.637  14.031
64190W        W32663  23.227  24.594   1.850
64191W        W32664  31.570  44.753   1.236
64192W        W32665  29.635  27.568   4.718
64193W        W32666  18.089   7.887   2.292
64194W        W32667  34.411  28.168  12.438
64195W        W32668  31.475  13.185  12.452
64196W        W32669  21.202  40.435  14.460
64197W        W32670  40.804   5.882  12.902
64198W        W32671   6.335   2.265  12.506
64199W        W32672   6.809  43.882   2.347
64200W        W32673   1.800   5.303  11.569
64201W        W32674  42.310  26.968   4.643
64202W        W32675  19.769  24.148   4.196
64203W        W32676  36.920  28.159   2.202
64204W        W32677  33.887  25.582  13.548
64205W        W32678  11.829  35.436   1.417
64206W        W32679  43.773   2.827   0.882
64207W        W32680  42.392  32.018   3.722
64208W        W32681   3.796   3.755  12.339
64209W        W32682  38.919  33.616  13.379
64210W        W32683  12.630  41.321   1.855
64211W        W32684  43.900  44.986  13.058
64212W        W32685  16.311  23.228   4.691
64213W        W32686  32.922  12.664   4.353
64214W        W32687  34.939  31.418  10.458
64215W        W32688  20.129  32.933  11.414
64216W        W32689  26.006  40.445   4.829
64217W        W32690   1.774  41.392   3.190
64218W        W32691  19.695   9.798   3.329
64219W        W32692  41.807  34.467  12.416
64220W        W32693  30.414  15.245   1.246
64221W        W32694  36.916  15.621   4.308
64222W        W32695  40.304  29.565  14.305
64223W        W32696  31.000   1.965  10.912
64224W        W32697   3.798  16.770  12.436
64225W        W32698  31.623  36.000  10.604
64226W        W32699   5.224  20.527  13.043
64227W        W32700  38.001  20.760   1.765
64228W        W32701   7.896  42.979   2.681
64229W        W32702   8.775  41.001  10.406
64230W        W32703  19.283  29.535  10.600
64231W        W32704  21.736  43.019   2.270
64232W        W32705  17.100  26.027  12.071
64233W        W32706  36.065  24.535  11.479
64234W        W32707  42.977  38.490   0.471
64235W        W32708   5.924  44.940   1.737
64236W        W32709  30.994  23.553  11.035
64237W        W32710   2.256   7.382  12.023
64238W        W32711   3.709  32.074  12.949
64239W        W32712  35.494  17.632   2.213
64240W        W32713  17.739   2.922  12.928
64241W        W32714  10.830  24.654  12.416
64242W        W32715  32.525  25.185   0.331
64243W        W32716  24.990   9.858   0.443
64244W        W32717   9.762  44.903  12.088
64245W        W32718  20.542  24.103  13.307
64246W        W32719  35.546  38.934   0.844
64247W        W32720  22.743  29.931  13.912
64248W        W32721  31.635   8.831   4.240
64249W        W32722  25.488   2.387   1.727
64250W        W32723  41.409  26.204   1.265
64251W        W32724   7.369  38.951   4.718
64252W        W32725  23.575  35.368  14.285
64253W        W32726  39.867  24.542   0.784
64254W        W32727  27.037  42.453   0.787
64255W        W32728  28.644  28.955   3.356
64256W        W32729  20.601  43.795   0.934
64257W        W32730  25.651   5.309  14.762
64258W        W32731  19.262  23.005   0.421
64259W        W32732  40.333  20.705   3.854
64260W        W32733   6.725  19.638  10.450
64261W        W32734   7.285  38.390  12.573
64262W        W32735  41.324  37.442   5.139
64263W        W32736  39.897   0.937   2.266
64264W        W32737  39.328  42.851   1.706
64265W        W32738  14.711   3.799  10.589
64266W        W32739  38.542  18.677   2.692
64267W        W32740  29.969   8.823  11.047
64268W        W32741  17.602   2.472  12.487
64269W        W32742  13.330  43.501  11.406
64270W        W32743  20.666   0.748   1.892
64271W        W32744  30.536  42.458  11.522
64272W        W32745   2.878   8.356  11.603
64273W        W32746  15.088  17.720  10.992
64274W        W32747  26.177  19.745   4.648
64275W        W32748  12.233   9.313   4.839
64276W        W32749  44.918  31.622  14.789
64277W        W32750   7.818  12.831   2.410
64278W        W32751  10.808  10.865  10.912
64279W        W32752  26.966   9.649  10.477
64280W        W32753   1.895   3.418   0.873
64281W        W32754  33.040  41.484  10.982
64282W        W32755  33.386  39.525   0.843
64283W        W32756  10.358   3.793   3.768
64284W        W32757  22.561  42.291   4.832
64285W        W32758   1.815  37.416   3.796
64286W        W32759  30.484  31.009   4.140
64287W        W32760  23.534  25.493   5.572
64288W        W32761  44.851  37.524   2.808
64289W        W32762   5.258  17.677   3.252
64290W        W32763  17.597  37.998  13.900
64291W        W32764  21.700  40.924  11.986
64292W        W32765  39.403  20.619  10.522
64293W        W32766   1.379  21.103   4.316
64294W        W32767  17.579  19.690  12.547
64295W        W32768   6.899  44.844   3.857
64296W        W32769   1.860  36.027   0.759
64297W        W32770  17.781   8.802   2.814
64298W        W32771  21.158   8.859  11.934
64299W        W32772  31.556  37.466   2.419
64300W        W32773  37.012  40.355   3.864
64301W        W32774  32.084   0.876  13.955
64302W        W32775  33.942   0.944  10.144
64303W        W32776  11.279  27.143  10.985
64304W        W32777  43.508  16.573   0.775
64305W        W32778  11.640   4.332  11.944
64306W        W32779   9.330  38.936  10.429
64307W        W32780  29.120  13.137   0.375
64308W        W32781  41.026  33.980   2.251
64309W        W32782  22.060  30.937   4.163
64310W        W32783  39.380  39.011  12.017
64311W        W32784  16.811   2.435  13.426
64312W        W32785   1.480  32.057  10.952
64313W        W32786  17.143  42.805  10.936
64314W        W32787   6.712  25.680  11.442
64315W        W32788  12.281  34.596  14.772
64316W        W32789  20.185  44.793  10.940
64317W        W32790  40.371   4.890  12.434
64318W        W32791  38.889   1.238  10.979
64319W        W32792  30.453  42.351   3.791
64320W        W32793  12.683  38.423  10.564
64321W        W32794   9.798  15.660  14.837
64322W        W32795  10.150  38.885  13.959
64323W        W32796   0.869  40.430   5.314
64324W        W32797   1.322  28.964   2.778
64325W        W32798  10.247  10.271  10.643
64326W        W32799   5.791  29.161   0.833
64327W        W32800   3.784  43.945  13.836
64328W        W32801   1.849  40.966   2.743
64329W        W32802  29.106  22.589  10.493
64330W        W32803   5.378   9.153   1.740
64331W        W32804   8.163   7.185   2.881
64332W        W32805  31.464  37.856  13.830
64333W        W32806  27.002  18.737  14.385
64334W        W32807   4.732  31.988  14.940
64335W        W32808  30.955   6.840   3.737
64336W        W32809  43.841   7.737   1.343
64337W        W32810  26.643  28.571   1.863
64338W        W32811  12.785  34.587  14.452
64339W        W32812  28.492   5.773   1.741
64340W        W32813  24.554  33.115   2.390
64341W        W32814  37.952  21.070   3.693
64342W        W32815  24.688   3.908   0.418
64343W        W32816  37.928  22.044   0.246
64344W        W32817  26.205  15.266   3.712
64345W        W32818   1.792  44.997  10.411
64346W        W32819  32.592  34.512   4.180
64347W        W32820  19.716  38.038   1.802
64348W        W32821   0.273   4.768   0.275
64349W        W32822  31.150  28.593   2.677
64350W        W32823  19.227  27.597  13.359
64351W        W32824  15.620  18.157   3.786
64352W        W32825  15.617  42.822   9.940
64353W        W32826  44.326  43.936   2.670
64354W        W32827   0.870   6.862  13.832
64355W        W32828  15.134  41.396  11.481
64356W        W32829   6.403  17.764   2.295
64357W        W32830  11.196  25.205   0.795
64358W        W32831   0.455   4.865   2.376
64359W        W32832  13.262  10.178   5.139
64360W        W32833  29.487  26.063   4.187
64361W        W32834  33.538   9.167  12.889
64362W        W32835  26.686   0.830  13.527
64363W        W32836  32.999  36.439   2.814
64364W        W32837  22.125   6.745  11.070
64365W        W32838   8.731  14.694  14.808
64366W        W32839  22.034  37.521  13.031
64367W        W32840  16.788  16.580  13.057
64368W        W32841  43.453  42.842  11.880
64369W        W32842   6.291   7.881  12.515
64370W        W32843  41.486  39.473   1.911
64371W        W32844  34.892   3.947  12.875
64372W        W32845  38.342  10.875   2.233
64373W        W32846  32.590   0.468   0.873
64374W        W32847  44.431  38.336  13.448
64375W        W32848  24.015  30.075   2.888
64376W        W32849  28.446   6.753   2.714
64377W        W32850  11.194  12.183  10.944
64378W        W32851  34.613  15.198  13.884
64379W        W32852  30.559  41.939   2.232
64380W        W32853  31.601  27.061  14.006
64381W        W32854  36.953   0.278   2.324
64382W        W32855  16.107  35.020   9.958
64383W        W32856  19.156  32.400  13.368
64384W        W32857   1.962  14.218  14.475
64385W        W32858  27.003   3.913  13.869
64386W        W32859  30.523  32.901   2.847
64387W        W32860   8.282  37.540   3.259
64388W        W32861  23.571   5.804   3.312
64389W        W32862  14.601  38.993  10.560
64390W        W32863  24.024  12.355   0.871
64391W        W32864  39.339  43.401  10.499
64392W        W32865  39.896  14.162  12.352
64393W        W32866  31.603  42.305  11.989
64394W        W32867  19.546  12.804   1.925
64395W        W32868  28.125  23.491   1.737
64396W        W32869  27.991   8.835  12.906
64397W        W32870  29.924  43.797  10.602
64398W        W32871  39.908  41.954   1.416
64399W        W32872   4.931  39.923  13.449
64400W        W32873  41.334  17.249  14.891
64401W        W32874  29.131   2.748  14.490
64402W        W32875  36.452  37.954   1.293
64403W        W32876   1.767  22.587   2.801
64404W        W32877  23.581  13.652  10.959
64405W        W32878  39.444  32.983   4.732
64406W        W32879  24.029  30.462   1.868
64407W        W32880  38.335  14.337   0.364
64408W        W32881  43.490  22.549   4.241
64409W        W32882   2.325  42.412   0.462
64410W        W32883  11.851  25.603   5.129
64411W        W32884  39.836   6.777  14.308
64412W        W32885  16.201  16.173  10.637
64413W        W32886  16.279  35.012   0.954
64414W        W32887  37.505  33.543   3.326
64415W        W32888  21.132  13.170   4.334
64416W        W32889  29.002  10.762   1.215
64417W        W32890  24.678  18.273   0.810
64418W        W32891  29.631  18.260  14.305
64419W        W32892   1.357  40.408   4.754
64420W        W32893  35.020  22.198  13.511
64421W        W32894  28.509  39.476   4.686
64422W        W32895   2.262  26.991   2.372
64423W        W32896  27.504  26.621   1.440
64424W        W32897   4.232  19.270  10.515
64425W        W32898  34.587  21.606   1.434
64426W        W32899   3.256   5.867  10.607
64427W        W32900   1.904  38.049  11.049
64428W        W32901  35.502   1.384   2.365
64429W        W32902  31.974  40.938   5.740
64430W        W32903  30.096   1.366  14.800
64431W        W32904   0.391  20.053   1.322
64432W        W32905   8.829  20.120  11.592
64433W        W32906   1.788  41.962   3.683
64434W        W32907   8.848  10.226   1.400
64435W        W32908  30.634  41.876  10.983
64436W        W32909   9.871  36.997  10.541
64437W        W32910  13.173  27.606  11.859
64438W        W32911  16.691   8.182   0.819
64439W        W32912  12.146  28.126  11.576
64440W        W32913  16.099  17.174  14.896
64441W        W32914  20.078  37.562   4.343
64442W        W32915  43.312  16.084  14.908
64443W        W32916  27.080  24.502   0.251
64444W        W32917   9.646  11.197   1.398
64445W        W32918  40.835  25.522  12.509
64446W        W32919  31.979  39.824   4.213
64447W        W32920   0.261  18.143   1.742
64448W        W32921  44.296  28.578  10.076
64449W        W32922  15.720  36.032  13.895
64450W        W32923  15.769  11.864  14.774
64451W        W32924  34.986   2.449   3.377
64452W        W32925  10.377   7.206  14.471
64453W        W32926  17.133  27.009  10.593
64454W        W32927  35.377  28.030  10.414
64455W        W32928  32.021   3.945   0.340
64456W        W32929  17.172  37.049  11.396
64457W        W32930  42.375  20.708   4.701
64458W        W32931  27.974  11.772   0.277
64459W        W32932  19.097  32.575   0.417
64460W        W32933  21.232  43.892   2.327
64461W        W32934  22.576  15.103  11.421
64462W        W32935  18.234  27.089  12.931
64463W        W32936  21.050  29.471  12.442
64464W        W32937  18.616  15.780   4.189
64465W        W32938  10.755  12.708   1.754
64466W        W32939  10.711  39.929  11.918
64467W        W32940  17.180  40.440   2.679
64468W        W32941   4.885  42.803   2.211
64469W        W32942  21.738  34.451   4.793
64470W        W32943   1.254  35.000  12.072
64471W        W32944  19.108  40.338   3.860
64472W        W32945   7.889  33.958   1.931
64473W        W32946  39.455  43.478   4.117
64474W        W32947  25.666  21.521  11.396
64475W        W32948  25.530  18.783   4.747
64476W        W32949  33.889  18.181  13.535
64477W        W32950  42.947  20.741  13.963
64478W        W32951  41.797  44.810   1.340
64479W        W32952  42.307  22.625   4.144
64480W        W32953   6.750  42.512  13.472
64481W        W32954  44.796   4.811   1.355
64482W        W32955  11.262  27.507   1.918
64483W        W32956  10.826  32.544  14.482
64484W        W32957  24.222  30.604  14.845
64485W        W32958   9.853  32.425  11.381
64486W        W32959  12.283   3.399   3.307
64487W        W32960  34.108  11.367   4.345
64488W        W32961   9.749  26.492   0.888
64489W        W32962  41.507  37.431  14.389
64490W        W32963  38.988   1.437  12.845
64491W        W32964  26.609  43.867   0.297
64492W        W32965  26.014  38.830   0.834
64493W        W32966  33.075  13.609   3.836
64494W        W32967  19.631  20.541   2.774
64495W        W32968  26.518  23.137   3.745
64496W        W32969  11.348  32.925   1.248
64497W        W32970  27.078  34.067   0.735
64498W        W32971   0.361  16.801   2.819
64499W        W32972  44.259  36.937   4.198
64500W        W32973   3.830  25.555   1.908
64501W        W32974  20.204  32.402   3.773
64502W        W32975  14.734   8.160  11.509
64503W        W32976  23.998  11.330   1.263
64504W        W32977  26.623  28.559   3.651
64505W        W32978  39.973   6.313   1.337
64506W        W32979  33.935  11.720   0.770
64507W        W32980  39.062   9.231  13.885
64508W        W32981  15.292  41.957   3.711
64509W        W32982  32.543  20.687  14.296
64510W        W32983  19.597  18.121  11.500
64511W        W32984   2.245   1.430   4.171
64512W        W32985  13.647  17.577  12.509
64513W        W32986  15.146  19.728   3.856
64514W        W32987  17.641  13.114   2.662
64515W        W32988  27.163   3.781  12.903
64516W        W32989  34.890  19.725   0.332
64517W        W32990   2.379  30.513   4.810
64518W        W32991  33.063  10.709  13.360
64519W        W32992  30.499  35.062   0.846
64520W        W32993  31.578   7.798   4.812
64521W        W32994  32.037  27.027  11.449
64522W        W32995  42.294   3.808   4.334
64523W        W32996   5.866  39.537   1.852
64524W        W32997  12.625  24.020   3.785
64525W        W32998  38.876  27.146  13.461
64526W        W32999   1.897  34.109  12.844
64527W        W33000   8.879  24.702   3.307
64528W        W33001  13.810  29.109   1.347
64529W        W33002  41.993   6.387  12.932
64530W        W33003   0.975  24.627   1.352
64531W        W33004  37.848  28.675   0.346
64532W        W33005  14.159  10.273   2.811
64533W        W33006  37.966  30.623   0.472
64534W        W33007  41.821   0.487   1.697
64535W        W33008  14.691   8.668   1.406
64536W        W33009  36.023   5.771  14.302
64537W        W33010   3.287   4.699   4.166
64538W        W33011  19.739  42.820  14.316
64539W        W33012  39.037  29.494   1.920
64540W        W33013  25.182  17.610   1.731
64541W        W33014  20.630  17.231  11.100
64542W        W33015   2.403  29.649  10.587
64543W        W33016  15.288  43.280   4.663
64544W        W33017  27.145  34.968   4.807
64545W        W33018  13.151   6.307  14.873
64546W        W33019  27.987  36.944   1.228
64547W        W33020  34.035  37.379  12.937
64548W        W33021   6.407  44.926   4.279
64549W        W33022   2.816  27.564  13.939
64550W        W33023   9.820  16.575  14.771
64551W        W33024   0.318  36.394   1.928
64552W        W33025   1.735  18.204  11.857
64553W        W33026  40.429  10.664  12.344
64554W        W33027  29.536  20.642  11.572
64555W        W33028  37.446  37.401   3.672
64556W        W33029  21.132  18.721   5.148
64557W        W33030  19.642  15.154   0.321
64558W        W33031   3.222  43.015   1.790
64559W        W33032   5.270  23.038  14.319
64560W        W33033  44.423  13.625   4.703
64561W        W33034   9.197   8.657  10.920
64562W        W33035  33.616  24.696  10.439
64563W        W33036  34.407   1.740  10.436
64564W        W33037   6.681  44.258   4.667
64565W        W33038  17.745   5.308   2.845
64566W        W33039  10.308  15.177   2.248
64567W        W33040   2.271  43.516  13.039
64568W        W33041   6.738  27.177   4.331
64569W        W33042  34.945  44.872   0.308
64570W        W33043  35.999  29.920   4.680
64571W        W33044   6.249  18.736  10.504
64572W        W33045  36.856  23.607   3.184
64573W        W33046  21.049  38.538  14.939
64574W        W33047  15.228  37.500   5.150
64575W        W33048  44.969   0.963   2.756
64576W        W33049  34.582  25.686   3.803
64577W        W33050  42.020  41.423   4.116
64578W        W33051  20.122  16.254  14.943
64579W        W33052  38.496  33.530   0.879
64580W        W33053  39.033   8.227   0.754
64581W        W33054   3.394  29.550   1.710
64582W        W33055  27.051  36.521   1.780
64583W        W33056  42.462   4.413  11.390
64584W        W33057   0.791   5.197  11.557
64585W        W33058  20.134   9.329   3.861
64586W        W33059   2.761  43.508  12.485
64587W        W33060  15.101  15.684   2.828
64588W        W33061  32.564  32.480  14.351
64589W        W33062  44.273  17.285   0.789
64590W        W33063   3.234  12.330  10.584
64591W        W33064  41.435  15.227   2.687
64592W        W33065  25.672  26.684   3.667
64593W        W33066  23.638   1.465   1.775
64594W        W33067   9.253  31.939   4.192
64595W        W33068  37.440  29.586   3.222
64596W        W33069  21.577  30.164   4.341
64597W        W33070  18.141  21.599  11.083
64598W        W33071  13.306  22.645  11.567
64599W        W33072  37.921  28.511   4.722
64600W        W33073  16.755  22.066   0.885
64601W        W33074  21.133  21.100   4.654
64602W        W33075  16.576   1.463  12.824
64603W        W33076  17.633  25.650   2.884
64604W        W33077  21.161  26.186   4.649
64605W        W33078  34.893   2.408  13.932
64606W        W33079   3.903  41.361  12.919
64607W        W33080  32.449   8.297   2.676
64608W        W33081  32.393  37.558  13.447
64609W        W33082   5.198  13.108  11.865
64610W        W33083  27.639  25.002  12.873
64611W        W33084  19.098  31.052   2.343
64612W        W33085  13.687  13.232   2.748
64613W        W33086  15.091   7.397   1.415
64614W        W33087  32.415  28.101   0.906
64615W        W33088  17.251  20.586   3.701
64616W        W33089  38.900  19.086   2.769
64617W        W33090  22.679  22.237   0.813
64618W        W33091  41.808  27.002   3.384
64619W        W33092  10.842  32.042  13.899
64620W        W33093  21.545  32.507   4.656
64621W        W33094  17.220  28.618   3.366
64622W        W33095  12.695   2.818  11.128
64623W        W33096   1.962   2.378   1.769
64624W        W33097  11.647  23.209  13.975
64625W        W33098  36.875   9.384  11.519
64626W        W33099  11.833  38.915   0.272
64627W        W33100   7.211  10.637  14.409
64628W        W33101  11.684   1.736  11.869
64629W        W33102  23.036  29.489   3.690
64630W        W33103  41.348  40.430   2.372
64631W        W33104  13.185   2.822   3.644
64632W        W33105   1.290  13.716   1.820
64633W        W33106  20.196  30.603   2.796
64634W        W33107   0.333   6.751  13.033
64635W        W33108  16.737  12.837  13.009
64636W        W33109  38.963  43.360  13.317
64637W        W33110  15.684  36.949  10.000
64638W        W33111  31.534  25.174  11.999
64639W        W33112  25.569  33.533   4.336
64640W        W33113   2.253  37.430   3.849
64641W        W33114   8.777   5.231  13.975
64642W        W33115  12.223  21.558  10.424
64643W        W33116  43.961  28.153   1.934
64644W        W33117   2.364   5.309   2.185
64645W        W33118  31.079  16.117  11.978
64646W        W33119  14.663  31.132   0.280
64647W        W33120  20.545  36.510  12.395
64648W        W33121  32.495   7.691   0.369
64649W        W33122  24.214   6.679  13.314
64650W        W33123   4.853  11.230   0.803
64651W        W33124   7.196  21.222  14.321
64652W        W33125  33.983   0.845   3.852
64653W        W33126  14.588  32.023  12.350
64654W        W33127  35.020  23.070   0.363
64655W        W33128  33.418   3.766   2.182
64656W        W33129   5.809  34.078  14.354
64657W        W33130  40.439  38.963  12.081
64658W        W33131  13.709  30.098   4.280
64659W        W33132  25.673  42.392  13.797
64660W        W33133  29.142  27.490  11.536
64661W        W33134  41.306  27.984   4.251
64662W        W33135  40.362  23.104   3.303
64663W        W33136   4.328  11.148   2.891
64664W        W33137  11.140   7.383   0.837
64665W        W33138  21.224  29.030   0.474
64666W        W33139  15.277  31.017   3.179
64667W        W33140  20.684   2.732   1.297
64668W        W33141  22.054  14.333   0.913
64669W        W33142  20.199   9.215   1.699
64670W        W33143   4.719   4.776   0.937
64671W        W33144  31.438  36.875  13.039
64672W        W33145  10.756   0.872  11.030
64673W        W33146  33.986  35.888   2.359
64674W        W33147  44.482  12.689   1.414
64675W        W33148   7.184  41.479   3.215
64676W        W33149  23.623  18.778  12.012
64677W        W33150  39.559  31.125  10.410
64678W        W33151  33.486  22.564  11.559
64679W        W33152  44.315  31.624  13.547
64680W        W33153  42.942  43.432   4.229
64681W        W33154  43.822  38.891   0.845
64682W        W33155   9.293  42.340  10.558
64683W        W33156  27.999   6.371   4.166
64684W        W33157  16.307  31.518   2.358
64685W        W33158  20.716   3.223   0.395
64686W        W33159  28.124  13.786  12.448
64687W        W33160  32.569  15.261   3.697
64688W        W33161   9.861  16.736   4.223
64689W        W33162   2.955   6.866   0.257
64690W        W33163  44.426  18.773  11.042
64691W        W33164  22.592   4.432  12.374
64692W        W33165  37.021  42.805   0.879
64693W        W33166  14.254  43.307  12.915
64694W        W33167  19.061  24.171  12.559
64695W        W33168  33.530  41.035  13.478
64696W        W33169   5.785  36.383   4.161
64697W        W33170  39.363  42.295   0.258
64698W        W33171  39.066  39.990  14.301
64699W        W33172  15.613  24.723  12.836
64700W        W33173   4.827  39.970   0.256
64701W        W33174  32.010  14.653   4.257
64702W        W33175  19.644  38.464   3.292
64703W        W33176  40.320  30.648  12.454
64704W        W33177  20.683  16.304   3.851
64705W        W33178  29.071  25.492  13.952
64706W        W33179   4.400  37.963  13.535
64707W        W33180  17.796  14.620  13.865
64708W        W33181   5.924  26.197  14.457
64709W        W33182  13.837  38.423  10.926
64710W        W33183  18.065   6.853  14.333
64711W        W33184  35.907  43.455  10.514
64712W        W33185  40.507   2.404  10.577
64713W        W33186  18.050  30.956   2.835
64714W        W33187  31.120   5.723  14.329
64715W        W33188  24.132  34.992  14.901
64716W        W33189  39.559   5.726  11.537
64717W        W33190  44.944  30.635   2.292
64718W        W33191  20.214  30.969  14.850
64719W        W33192  10.381  20.067  13.885
64720W        W33193   2.311  35.009  13.442
64721W        W33194  12.207  27.987   1.341
64722W        W33195   6.330  41.446   5.107
64723W        W33196  22.592  35.397  11.519
64724W        W33197   1.462  10.332  13.057
64725W        W33198  27.449  21.025  14.958
64726W        W33199  16.128  14.155   1.856
64727W        W33200  35.412  15.612  10.928
64728W        W33201  38.028  41.413   3.835
64729W        W33202  24.506  28.143  14.890
64730W        W33203  34.019  28.939   2.237
64731W        W33204   0.858  37.468   0.433
64732W        W33205   3.218  24.597   3.831
64733W        W33206  44.285  19.071  14.894
64734W        W33207  31.491  15.733  11.030
64735W        W33208  44.822  19.115  10.463
64736W        W33209  26.597  28.539  12.361
64737W        W33210  37.976  22.030  12.576
64738W        W33211  16.107  41.811   2.180
64739W        W33212  20.590  19.193   1.878
64740W        W33213  12.798  10.741  11.414
64741W        W33214  35.548   4.239   1.424
64742W        W33215  29.493  28.612  10.414
64743W        W33216  30.055  20.592  11.541
64744W        W33217  17.138  33.499   1.919
64745W        W33218   9.169   6.305  14.981
64746W        W33219  20.095  13.846  12.511
64747W        W33220   0.294  23.062  14.464
64748W        W33221  10.708  20.762  11.597
64749W        W33222  12.209  23.200  14.832
64750W        W33223  15.664  32.967  10.960
64751W        W33224  30.619   2.330   5.146
64752W        W33225  28.166  15.185  12.389
64753W        W33226  29.509  36.570   1.755
64754W        W33227  38.496  27.489  12.359
64755W        W33228  33.114   9.185   4.751
64756W        W33229  43.313  32.091   1.903
64757W        W33230  32.516  10.678  12.448
64758W        W33231   6.709  29.441   3.360
64759W        W33232   8.736  38.412  14.918
64760W        W33233  14.141  27.525  13.392
64761W        W33234  24.159  13.297   1.436
64762W        W33235  16.757  16.709   3.848
64763W        W33236  30.050   4.294  13.933
64764W        W33237   1.329  32.606  13.501
64765W        W33238  27.954  16.199   4.654
64766W        W33239   7.310   9.872   1.882
64767W        W33240  30.138  44.897  10.585
64768W        W33241  30.646  19.197  11.047
64769W        W33242  39.854  17.271   1.397
64770W        W33243  38.561  28.586   4.267
64771W        W33244  18.150   7.360  14.828
64772W        W33245   2.257  22.143   0.473
64773W        W33246  18.724  19.175  10.471
64774W        W33247   8.197  18.627  13.884
64775W        W33248  36.559  30.908   0.838
64776W        W33249   4.806  38.564  12.511
64777W        W33250  29.482   5.379   4.128
64778W        W33251  32.927  17.285  12.424
64779W        W33252  22.622  27.522   2.280
64780W        W33253  35.863  16.160  14.307
64781W        W33254  14.162  11.752   0.782
64782W        W33255  40.865   5.329   4.283
64783W        W33256  35.569  37.011  13.836
64784W        W33257   9.204   6.362   1.355
64785W        W33258   4.891   8.834   1.346
64786W        W33259  41.921   5.305   1.408
64787W        W33260  32.599  30.413   3.782
64788W        W33261  34.959   1.821   4.761
64789W        W33262  11.785  24.578   2.813
64790W        W33263  37.012  27.637  11.940
64791W        W33264  24.500   7.862   1.419
64792W        W33265  29.945  43.952  11.129
64793W        W33266  24.721   9.360  12.064
64794W        W33267  30.425  23.089  13.912
64795W        W33268  43.382   3.929   1.392
64796W        W33269   9.268  24.611   4.153
64797W        W33270  12.611  33.618   0.944
64798W        W33271   4.849  44.286   3.233
64799W        W33272  16.141  29.647   1.422
64800W        W33273  25.610   1.847   2.229
64801W        W33274  10.303  14.675  14.350
64802W        W33275   5.263  11.192   2.387
64803W        W33276   5.697  31.052  11.921
64804W        W33277  39.812  29.555  12.852
64805W        W33278  30.977  11.192   0.919
64806W        W33279  27.554  14.813  14.503
64807W        W33280   7.415  28.984   2.759
64808W        W33281  14.297  26.459   3.344
64809W        W33282  26.590  14.182  13.330
64810W        W33283  43.371  18.198   4.201
64811W        W33284  16.174  20.067  11.566
64812W        W33285  22.711  10.364  14.795
64813W        W33286  39.531  16.288  13.889
64814W        W33287  17.702   4.223  13.442
64815W        W33288  30.615  43.343   1.449
64816W        W33289  43.808  34.410   2.876
64817W        W33290   6.883   9.765  13.389
64818W        W33291   4.430  24.150   1.364
64819W        W33292  34.512  12.181  13.830
64820W        W33293  36.067  34.938   4.625
64821W        W33294  27.456  20.263   0.743
64822W        W33295  28.984  38.911  13.426
64823W        W33296   1.338   9.654  10.465
64824W        W33297  27.493  10.191  13.952
64825W        W33298  13.268  23.591   0.815
64826W        W33299   4.221  22.591   1.759
64827W        W33300  23.180  10.733   4.353
64828W        W33301  21.577  26.085  12.986
64829W        W33302  34.580  10.232  11.408
64830W        W33303  35.002  37.384  14.865
64831W        W33304  31.518   1.260   0.926
64832W        W33305  13.156  26.458   3.299
64833W        W33306  27.073   9.729   1.785
64834W        W33307  31.046  43.981  12.521
64835W        W33308  21.037  19.254   0.911
64836W        W33309  36.909  10.357   3.147
64837W        W33310  39.423  25.183   4.704
64838W        W33311  13.277   5.258  10.630
64839W        W33312   9.665  18.175   1.431
64840W        W33313  29.965  36.004   2.279
64841W        W33314  36.843  30.154   2.246
64842W        W33315   8.808  25.022   4.679
64843W        W33316   7.689  13.120  13.419
64844W        W33317  15.237  26.040   3.344
64845W        W33318   9.761   5.758  13.505
64846W        W33319  21.025  38.350   0.871
64847W        W33320  15.273   2.775  12.436
64848W        W33321  18.620  19.055   3.169
64849W        W33322  26.531  27.155  12.364
64850W        W33323  28.134  20.681   3.370
64851W        W33324  32.036  20.228   1.840
64852W        W33325  27.612  29.020   4.145
64853W        W33326  34.571  39.417  11.372
64854W        W33327  40.464   0.801  10.016
64855W        W33328   1.404  19.269   2.739
64856W        W33329  31.937  37.902   2.688
64857W        W33330   3.818  34.898  13.961
64858W        W33331  17.751  42.464  12.038
64859W        W33332  29.496  26.016  13.967
64860W        W33333  26.467   6.827   4.660
64861W        W33334  22.077   3.812   3.236
64862W        W33335  24.024  33.101  13.842
64863W        W33336   5.424  29.976   3.714
64864W        W33337  21.548  40.542  12.090
64865W        W33338  35.961  30.586  11.918
64866W        W33339  23.530  35.045  12.452
64867W        W33340  27.019  44.453  13.839
64868W        W33341  39.332  27.451  11.938
64869W        W33342  42.970   4.404  13.988
64870W        W33343  19.727  23.153  11.934
64871W        W33344  40.950  33.549  14.335
64872W        W33345   2.774  19.771   4.797
64873W        W33346  29.092  15.234  10.471
64874W        W33347  31.643  23.689   3.668
64875W        W33348   2.350   4.797  11.878
64876W        W33349  18.645   5.418  13.833
64877W        W33350  17.588   2.867  14.390
64878W        W33351  39.356  33.514   0.855
64879W        W33352   2.848  36.916   2.699
64880W        W33353   6.865  30.629  11.880
64881W        W33354  18.632  42.436   0.841
64882W        W33355  27.451  19.174  10.622
64883W        W33356   5.203  21.581  12.537
64884W        W33357  17.089   5.330   3.802
64885W        W33358   3.731  33.977   4.249
64886W        W33359  37.982   7.684   2.712
64887W        W33360  29.439  41.499   3.329
64888W        W33361  11.805  13.341  11.963
64889W        W33362  38.918  39.360  14.360
64890W        W33363   1.445  19.615  13.957
64891W        W33364  12.748  35.096   1.838
64892W        W33365  18.281  40.975  13.342
64893W        W33366  28.538  26.651  10.569
64894W        W33367  32.972  20.745  11.606
64895W        W33368  18.563  39.043   3.215
64896W        W33369  12.361  17.300   4.315
64897W        W33370  30.079   5.782  10.543
64898W        W33371  27.667  23.085   4.630
64899W        W33372   0.757  32.887  14.451
64900W        W33373   3.852  28.987   1.428
64901W        W33374  25.536  35.099  10.503
64902W        W33375  37.986  11.621  10.625
64903W        W33376  15.797  10.634   2.292
64904W        W33377  11.774  26.136  11.495
64905W        W33378   2.922  34.495   1.355
64906W        W33379   4.437  41.955   1.784
64907W        W33380  43.513  28.065  12.856
64908W        W33381  37.560  33.576  12.417
64909W        W33382  42.829  26.511   4.149
64910W        W33383   3.770   5.697  14.512
64911W        W33384  35.595  14.775  13.923
64912W        W33385  40.803  31.942   1.905
64913W        W33386  38.502  14.647   3.687
64914W        W33387  30.064  41.458  13.805
64915W        W33388  21.753  29.663  11.888
64916W        W33389  43.343  25.121   2.396
64917W        W33390  25.214  18.090   0.829
64918W        W33391  12.311  17.265  14.495
64919W        W33392  37.020   8.264  11.442
64920W        W33393  12.668  26.130   1.387
64921W        W33394  38.394  20.268   4.210
64922W        W33395  26.069  16.617   3.366
64923W        W33396  10.693  34.589  11.956
64924W        W33397  44.283  11.790   4.200
64925W        W33398  37.550   6.807   4.616
64926W        W33399   4.324  37.393  13.876
64927W        W33400  10.645   8.232  11.047
64928W        W33401  29.606  29.534  12.851
64929W        W33402   0.475  29.049  10.961
64930W        W33403   4.840  36.079  10.043
64931W        W33404  23.501  28.594   2.860
64932W        W33405   5.349   6.198   1.309
64933W        W33406  17.089  42.906  13.034
64934W        W33407  25.481  43.327  14.826
64935W        W33408  42.819   2.794  10.439
64936W        W33409  14.765  39.444  11.610
64937W        W33410  15.107  29.633  14.278
64938W        W33411  39.369  44.782   0.865
64939W        W33412  29.632  19.204   3.783
64940W        W33413   1.362  44.948   0.771
64941W        W33414  22.168   0.904  12.486
64942W        W33415  11.678  21.218   2.727
64943W        W33416  14.106  16.686   1.322
64944W        W33417   0.460  29.025  12.939
64945W        W33418   4.418  16.253  12.490
64946W        W33419   6.805  13.351  10.107
64947W        W33420  34.107  25.063  13.469
64948W        W33421  14.201   8.874  13.933
64949W        W33422  30.606  36.571  11.947
64950W        W33423  40.419   1.275  14.827
64951W        W33424  25.169   8.791   1.405
64952W        W33425  25.077   3.354  11.592
64953W        W33426  28.959  35.872  13.838
64954W        W33427  37.505  16.313  14.317
64955W        W33428  35.372  33.413   1.921
64956W        W33429  16.307  42.836  13.853
64957W        W33430  28.170   6.698   0.929
64958W        W33431  26.648  37.559  10.139
64959W        W33432   6.772   7.894  11.920
64960W        W33433   3.750  15.108   0.432
64961W        W33434  39.525   5.899   3.820
64962W        W33435  10.327  36.856   1.702
64963W        W33436   6.290  14.268  12.439
64964W        W33437  37.487  38.457   0.305
64965W        W33438  23.007  20.143   1.272
64966W        W33439  17.652  14.195  14.463
64967W        W33440  14.744  36.929   2.404
64968W        W33441   8.695  22.637   0.739
64969W        W33442  18.779  40.506   2.698
64970W        W33443  17.560   7.386  14.811
64971W        W33444  33.461  17.113   4.776
64972W        W33445  33.499  30.003   3.821
64973W        W33446  42.005  21.615   2.340
64974W        W33447   1.964  29.962   4.751
64975W        W33448  33.130  12.193  12.538
64976W        W33449  22.065  14.650  13.388
64977W        W33450  11.851  19.210   3.668
64978W        W33451  16.802  38.545  11.505
64979W        W33452   6.836   9.172  11.520
64980W        W33453  15.766  10.219  10.096
64981W        W33454  12.631  44.491   0.758
64982W        W33455  15.578  10.347  13.796
64983W        W33456  13.622  25.097   2.185
64984W        W33457   6.391   3.811  11.385
64985W        W33458  39.060  37.434   0.800
64986W        W33459  19.173  33.118   4.760
64987W        W33460  21.017  27.972   4.328
64988W        W33461  27.964  29.085  12.941
64989W        W33462  41.352   9.704  13.061
64990W        W33463  22.249  34.566   2.276
64991W        W33464   8.183  40.858  11.530
64992W        W33465   3.854  17.190   4.613
64993W        W33466  44.894  38.501   4.154
64994W        W33467  26.489   3.921   4.652
64995W        W33468   2.384   9.808  13.874
64996W        W33469  24.612  18.746   1.703
64997W        W33470  31.117   1.798  13.019
64998W        W33471  28.623  30.088   0.878
64999W        W33472  26.544  13.755  14.435
65000W        W33473   6.727  13.199   0.926
65001W        W33474   4.894  18.673   4.730
65002W        W33475  37.515  28.064  13.951
65003W        W33476   9.869  36.984   2.398
65004W        W33477  44.353   3.392   9.924
65005W        W33478   7.406  43.289   4.822
65006W        W33479  20.563  41.966  12.044
65007W        W33480  12.167  17.773  11.450
65008W        W33481   9.770   7.191  10.495
65009W        W33482  13.710  19.768  14.781
65010W        W33483   4.841  27.599  13.354
65011W        W33484   0.874  27.555   2.246
65012W        W33485   2.762  34.904  13.831
65013W        W33486  44.922  35.406   4.720
65014W        W33487   0.852  12.751   1.401
65015W        W33488  35.444  32.474  14.980
65016W        W33489  29.927  23.543   3.752
65017W        W33490  42.382   8.252  14.983
65018W        W33491  42.845  19.202  11.420
65019W        W33492   1.857  42.033  14.982
65020W        W33493   3.709  22.724  10.123
65021W        W33494   9.711  25.977   1.350
65022W        W33495   3.832  20.191   1.770
65023W        W33496  33.466  24.541   1.254
65024W        W33497  18.163  42.955   3.284
65025W        W33498  24.184  18.768   4.772
65026W        W33499  43.456  14.183  11.989
65027W        W33500   0.378   1.798   0.921
65028W        W33501   5.382  35.084   0.855
65029W        W33502   5.817   3.383  14.282
65030W        W33503   6.774  14.244  14.490
65031W        W33504  23.115  19.647  11.520
65032W        W33505  23.231  13.678  12.886
65033W        W33506  26.057  21.647   2.894
65034W        W33507   6.355  12.673   4.331
65035W        W33508  35.868   2.932   2.764
65036W        W33509  21.602  28.053  11.527
65037W        W33510  27.644   8.365  14.860
65038W        W33511  39.380  32.909   1.328
65039W        W33512  43.304  41.508  14.320
65040W        W33513  19.180   6.216  12.360
65041W        W33514  35.103  13.755   3.379
65042W        W33515  15.113  18.670   3.806
65043W        W33516  43.450  38.392   4.222
65044W        W33517  37.340  10.330  13.052
65045W        W33518  19.263  16.741  13.035
65046W        W33519  44.449  35.023  12.559
65047W        W33520  32.109  14.829   0.439
65048W        W33521   1.751  31.906  13.957
65049W        W33522   0.905  30.588  12.929
65050W        W33523  43.375   6.750   3.867
65051W        W33524   6.329  28.943  14.952
65052W        W33525  40.467  40.459   2.288
65053W        W33526  19.770   5.318  11.378
65054W        W33527  22.707  11.148   1.875
65055W        W33528  35.908  11.172  12.905
65056W        W33529  31.518  12.816  13.947
65057W        W33530   9.794  11.363   0.910
65058W        W33531  11.811  40.954  11.108
65059W        W33532  43.799  32.931   3.238
65060W        W33533  13.207   9.714  14.281
65061W        W33534  26.126  30.973   2.212
65062W        W33535  31.645  34.425   0.403
65063W        W33536   5.819   9.852  11.467
65064W        W33537   4.378   3.423  10.620
65065W        W33538  16.124  34.063   3.787
65066W        W33539  32.127  37.890   4.189
65067W        W33540  26.683  37.479   1.303
65068W        W33541  42.027  12.262  10.481
65069W        W33542  14.669  33.544   1.438
65070W        W33543  36.002  24.607  13.931
65071W        W33544  44.969  26.966   4.158
65072W        W33545  40.031   4.415  11.435
65073W        W33546  14.147  39.341  13.019
65074W        W33547  43.416  13.285   2.343
65075W        W33548  11.628  38.489  14.433
65076W        W33549  25.012   8.891   1.878
65077W        W33550  15.771  40.957  12.556
65078W        W33551  35.038  21.085  11.946
65079W        W33552  16.606  32.079   0.726
65080W        W33553  10.329   0.309   1.725
65081W        W33554  31.087  23.552   0.767
65082W        W33555  13.328   0.354   0.966
65083W        W33556   0.289  23.610  10.479
65084W        W33557  10.745  39.441  11.001
65085W        W33558  15.776  22.164   1.696
65086W        W33559  25.573  44.009  14.906
65087W        W33560  32.989  44.300  12.869
65088W        W33561  37.029  31.059   1.887
65089W        W33562  28.933   8.800   4.262
65090W        W33563  11.253  37.541   1.711
65091W        W33564   7.386  31.941  11.464
65092W        W33565  44.259  40.328  14.829
65093W        W33566   6.753  39.834  11.864
65094W        W33567  43.905  13.676  10.594
65095W        W33568  35.007  36.454  12.953
65096W        W33569  21.030  19.601  10.557
65097W        W33570  19.070   9.826  11.060
65098W        W33571   5.893  31.941   0.385
65099W        W33572  16.688   5.260   4.114
65100W        W33573  42.929  27.127   1.398
65101W        W33574  29.117  39.023   4.654
65102W        W33575  39.980  35.037   3.870
65103W        W33576   5.698  20.550  12.495
65104W        W33577  22.099   5.334   0.306
65105W        W33578  33.945  42.895  10.415
65106W        W33579   5.412   3.781   3.176
65107W        W33580  11.188   0.295  12.992
65108W        W33581  10.869  39.376  12.000
65109W        W33582  16.776  24.024   4.789
65110W        W33583  24.135  42.952   0.770
65111W        W33584  44.870   6.198   1.909
65112W        W33585  29.018   6.767  12.428
65113W        W33586   2.445  15.303  11.057
65114W        W33587  24.678  44.985  12.938
65115W        W33588   6.760  12.255  12.382
65116W        W33589   4.754  31.484   3.720
65117W        W33590  10.813   9.295  10.911
65118W        W33591  33.478  17.632  12.402
65119W        W33592  13.739  15.729   4.117
65120W        W33593  26.180  20.043  11.498
65121W        W33594  23.696  15.605   2.192
65122W        W33595  26.010  42.365  13.395
65123W        W33596  13.105   5.308  13.795
65124W        W33597   1.424   9.336  14.984
65125W        W33598   9.723  27.971  10.597
65126W        W33599  10.179  29.927   3.338
65127W        W33600  38.438  44.474  14.941
65128W        W33601   9.351  24.000  14.347
65129W        W33602  40.352  29.054   1.704
65130W        W33603   3.738   3.260  11.972
65131W        W33604  42.301  11.846   4.831
65132W        W33605  26.464  14.308  12.526
65133W        W33606  11.297  12.137   0.861
65134W        W33607  16.143   5.295  14.029
65135W        W33608  40.304  21.063   0.966
65136W        W33609  41.833  40.955  11.095
65137W        W33610  37.455   6.875  13.477
65138W        W33611  25.192  21.172   0.933
65139W        W33612  43.355  29.947  12.924
65140W        W33613  39.474   3.280   1.789
65141W        W33614  15.110  33.973   1.446
65142W        W33615  37.933  24.054  14.411
65143W        W33616  34.386  16.713   1.845
65144W        W33617   2.948   8.351   1.269
65145W        W33618  22.008  21.678   0.395
65146W        W33619   9.666  20.584  14.018
65147W        W33620  41.877  17.123   1.843
65148W        W33621  17.296   7.867  14.442
65149W        W33622  38.822  19.739  14.457
65150W        W33623  41.507  10.282   2.832
65151W        W33624  12.349  43.947  13.894
65152W        W33625  16.156  20.738   0.350
65153W        W33626   3.949  36.028   3.810
65154W        W33627  40.929  22.198   1.322
65155W        W33628  15.249  25.074  13.477
65156W        W33629  30.585  16.710  12.442
65157W        W33630  21.740  11.756  13.998
65158W        W33631  42.374  31.080   3.742
65159W        W33632  29.425   2.233  14.876
65160W        W33633  20.560   8.325   1.248
65161W        W33634   7.807  30.987   4.308
65162W        W33635  44.785  12.769  13.964
65163W        W33636  10.310  12.793   0.787
65164W        W33637  29.565  30.966  13.382
65165W        W33638  10.177  36.949  10.481
65166W        W33639  11.302  30.429   4.754
65167W        W33640  39.861   0.796   2.692
65168W        W33641   8.735   9.829  11.609
65169W        W33642  22.016   6.200   1.372
65170W        W33643  32.021  24.018   0.835
65171W        W33644  35.481  34.593  14.298
65172W        W33645  22.718  44.842  10.572
65173W        W33646  41.304  25.557   1.339
65174W        W33647   3.754  17.707  14.801
65175W        W33648   6.757  18.123   1.927
65176W        W33649  12.297  30.507  14.776
65177W        W33650  43.778  26.977  14.278
65178W        W33651  13.759  12.311  13.381
65179W        W33652  36.541   4.795   2.313
65180W        W33653  22.074  43.910  13.354
65181W        W33654  26.094  20.677   2.262
65182W        W33655   4.714  36.980   3.173
65183W        W33656  15.135  19.604  12.035
65184W        W33657  19.582  28.929  13.044
65185W        W33658  35.556  33.387   0.907
65186W        W33659  38.448  32.450  11.859
65187W        W33660   3.335  44.303  13.924
65188W        W33661   7.688   9.842  10.604
65189W        W33662  15.817  17.263  10.519
65190W        W33663  36.492  13.245   1.818
65191W        W33664  43.004  40.315   0.368
65192W        W33665  21.226  27.002   9.640
65193W        W33666  22.183  12.826   1.856
65194W        W33667  22.728  11.792   0.956
65195W        W33668   3.278  35.416   0.771
65196W        W33669  19.751  31.022   1.800
65197W        W33670  13.606  38.483   5.128
65198W        W33671  40.914   6.860  10.996
65199W        W33672  30.655  14.627  13.927
65200W        W33673   7.865   1.975  11.076
65201W        W33674  42.508   6.743  14.791
65202W        W33675  25.649  10.745  13.432
65203W        W33676  25.514  40.938   3.631
65204W        W33677  21.252  33.946  12.483
65205W        W33678  29.152  15.085   0.273
65206W        W33679  39.031  24.063   1.379
65207W        W33680  25.084  40.915   3.331
65208W        W33681  28.031  31.448   3.698
65209W        W33682  10.245  13.223   3.364
65210W        W33683  29.989  14.122   0.807
65211W        W33684  18.637   6.415  10.124
65212W        W33685  19.111  32.924   0.264
65213W        W33686  15.118  39.976   0.270
65214W        W33687   6.315  15.270   1.786
65215W        W33688  34.483  31.977  11.985
65216W        W33689  38.412  22.666   0.459
65217W        W33690  27.618  35.400   0.268
65218W        W33691  11.320  42.412   1.364
65219W        W33692  40.856  35.420  10.579
65220W        W33693  31.132  37.499  12.878
65221W        W33694  33.953   5.759  14.274
65222W        W33695  17.732  31.497  12.522
65223W        W33696  17.278  29.606   2.843
65224W        W33697  19.776  25.100  12.993
65225W        W33698  23.147  13.614   3.267
65226W        W33699  21.088  22.053   2.709
65227W        W33700  17.651  23.227  10.435
65228W        W33701   4.304   2.255  10.902
65229W        W33702   7.687  16.095  12.541
65230W        W33703  34.022  19.083  13.881
65231W        W33704  10.657   8.824  11.522
65232W        W33705  37.535  26.130  11.977
65233W        W33706  36.553  11.845   3.686
65234W        W33707  18.724   6.194   0.461
65235W        W33708  41.964  13.175  11.955
65236W        W33709  22.142  42.409  11.111
65237W        W33710  11.157  28.614  13.504
65238W        W33711   5.923  13.801   1.865
65239W        W33712  13.119  28.002  12.027
65240W        W33713   6.814   8.870   1.762
65241W        W33714  22.201   1.808   0.363
65242W        W33715  16.738   8.858  10.603
65243W        W33716  36.399  21.238  12.834
65244W        W33717  39.528  42.329   3.810
65245W        W33718   4.706  28.557  11.593
65246W        W33719  30.500  33.385   2.805
65247W        W33720   8.892  33.478   2.841
65248W        W33721  25.664  18.628  13.985
65249W        W33722   9.889   7.870  14.872
65250W        W33723  25.522  42.011   1.319
65251W        W33724   4.863  30.646   2.417
65252W        W33725  25.117  31.935   1.256
65253W        W33726  16.613  20.643  13.947
65254W        W33727  24.142  25.583  12.885
65255W        W33728  41.305  31.456  12.416
65256W        W33729  36.458  31.412   2.200
65257W        W33730  27.668  20.085   3.647
65258W        W33731  37.445  32.569   2.350
65259W        W33732  38.527  31.418  11.375
65260W        W33733  26.184  42.351  14.845
65261W        W33734  16.598  11.651  11.070
65262W        W33735  25.482   3.909  14.798
65263W        W33736  37.495   2.828   3.321
65264W        W33737  15.303   1.416  14.407
65265W        W33738  11.680  23.156   1.918
65266W        W33739  10.147   2.926  13.930
65267W        W33740   1.752  36.920  13.022
65268W        W33741  15.665  18.247  11.992
65269W        W33742  17.080  40.304   5.267
65270W        W33743  30.554  37.073   3.261
65271W        W33744   1.955  19.076   2.712
65272W        W33745  39.876  16.225   0.337
65273W        W33746  33.984   1.314   4.605
65274W        W33747  21.541  24.574   3.297
65275W        W33748  38.537  40.361  11.861
65276W        W33749  26.959  34.019   3.187
65277W        W33750   6.777  42.429   4.737
65278W        W33751  33.052  18.665  12.897
65279W        W33752  43.442  29.112  12.513
65280W        W33753  22.553  17.224   2.315
65281W        W33754   1.347   7.905   4.715
65282W        W33755  20.671  35.951   1.783
65283W        W33756  31.083  35.104  12.893
65284W        W33757   7.389  25.652   2.849
65285W        W33758   4.800  33.389   4.121
65286W        W33759  36.430  27.488  12.849
65287W        W33760  39.045  39.900  14.002
65288W        W33761  28.080  38.010   0.320
65289W        W33762   4.330  12.138  10.985
65290W        W33763  18.607  27.020  12.960
65291W        W33764  10.641  43.454  12.563
65292W        W33765  12.671  41.520  14.501
65293W        W33766   0.805  25.616  12.846
65294W        W33767  22.169  30.083  14.944
65295W        W33768  37.005  12.264  13.982
65296W        W33769  30.606   9.665   4.324
65297W        W33770   4.822  41.483  14.973
65298W        W33771   1.806  27.174  13.922
65299W        W33772   1.792  34.452  12.343
65300W        W33773  33.048  27.164   0.756
65301W        W33774  28.154   2.359  10.631
65302W        W33775  42.352   4.739  12.045
65303W        W33776  34.936  11.663  14.922
65304W        W33777  14.597  22.091   0.740
65305W        W33778  21.118  38.992   1.838
65306W        W33779   0.390  26.205   1.824
65307W        W33780  40.416  44.486   0.448
65308W        W33781   2.852  39.426   3.353
65309W        W33782   6.369  26.984  13.514
65310W        W33783  11.159   9.707   2.832
65311W        W33784   4.823  15.684  11.901
65312W        W33785   9.154  10.790  11.417
65313W        W33786  29.656  19.210   2.224
65314W        W33787  30.541  20.195   1.889
65315W        W33788  37.835   1.841   3.147
65316W        W33789  19.223  44.968  14.819
65317W        W33790  32.963  38.426   2.900
65318W        W33791   1.264  15.737   0.422
65319W        W33792  15.323  39.465  14.314
65320W        W33793  42.851  31.588   0.464
65321W        W33794   1.818  17.207   3.820
65322W        W33795  28.509   2.321  11.464
65323W        W33796  34.469   7.880  13.374
65324W        W33797  34.873  39.336   1.766
65325W        W33798  21.557  15.317   4.190
65326W        W33799  37.968  27.168   4.795
65327W        W33800  17.269   9.372   1.788
65328W        W33801  23.178   4.318  11.424
65329W        W33802   5.283   7.702  11.014
65330W        W33803  41.481   6.386  14.436
65331W        W33804   9.679  14.126   4.700
65332W        W33805  40.964  29.452   0.434
65333W        W33806  27.071  17.710  11.410
65334W        W33807  17.589  27.571   4.169
65335W        W33808  19.112  37.930   2.223
65336W        W33809  27.682   5.235  12.864
65337W        W33810  30.082  41.791  12.855
65338W        W33811  30.001   6.291  10.918
65339W        W33812  29.438   2.455  11.046
65340W        W33813  12.321   0.382   0.738
65341W        W33814  10.370  41.454  11.977
65342W        W33815  32.511  40.369  13.841
65343W        W33816   8.717  28.997  11.434
65344W        W33817  33.425  14.137  11.525
65345W        W33818  11.795   2.432  14.347
65346W        W33819  19.671  37.079   0.296
65347W        W33820  35.904   5.719   1.424
65348W        W33821  12.659  37.488   1.778
65349W        W33822  35.923  33.444  13.054
65350W        W33823  12.730  31.476  11.563
65351W        W33824  34.108  12.691  11.532
65352W        W33825  25.622  40.542  13.847
65353W        W33826  10.845  24.595  12.982
65354W        W33827  34.511   4.341  10.435
65355W        W33828   0.381   2.467  11.448
65356W        W33829  29.549  38.851  12.018
65357W        W33830  13.837   8.166   0.270
65358W        W33831  20.028  22.157  13.457
65359W        W33832  15.171  15.761   4.150
65360W        W33833  20.716  18.566  13.957
65361W        W33834  22.031  33.119   2.873
65362W        W33835  35.003   5.293  13.512
65363W        W33836  18.234  38.369   3.364
65364W        W33837  30.651   4.302   3.377
65365W        W33838   6.310  28.674   4.793
65366W        W33839  22.615  37.995   1.716
65367W        W33840  27.986  18.164   1.375
65368W        W33841  32.075   3.774   2.308
65369W        W33842  15.674  13.785   2.681
65370W        W33843   2.822  40.020  10.535
65371W        W33844  37.425  43.879   0.378
65372W        W33845  10.278  34.996  10.457
65373W        W33846   7.721   4.444   2.835
65374W        W33847  20.117  28.651   1.751
65375W        W33848   7.364  11.678   2.221
65376W        W33849  17.718   2.892   3.854
65377W        W33850  22.060  44.758   4.179
65378W        W33851  38.921   4.800  13.862
65379W        W33852   6.322  17.651  12.445
65380W        W33853  30.047  20.690   1.309
65381W        W33854  19.581   2.910  12.420
65382W        W33855   2.724  34.895   0.803
65383W        W33856  15.139  18.654  10.585
65384W        W33857  30.523  43.903  14.032
65385W        W33858  40.534  33.509   4.771
65386W        W33859  31.050  19.177  14.508
65387W        W33860   2.283   3.928   3.259
65388W        W33861  21.723  41.991   4.345
65389W        W33862  33.484  12.338  12.026
65390W        W33863  10.253  41.032  14.509
65391W        W33864  38.972   1.246  13.833
65392W        W33865  39.005  25.147  13.852
65393W        W33866  20.134   5.309  11.500
65394W        W33867  31.014  13.700   1.403
65395W        W33868  15.121  22.113  14.416
65396W        W33869  17.695  25.489  12.910
65397W        W33870   1.739  22.060   3.787
65398W        W33871  23.578  29.140   1.412
65399W        W33872  23.688  28.609   3.843
65400W        W33873  11.790  34.883   2.291
65401W        W33874  30.061  43.481   0.823
65402W        W33875  15.582  22.628   0.964
65403W        W33876  31.556   3.823  12.566
65404W        W33877  27.947  24.042  10.954
65405W        W33878  35.001  41.788  12.858
65406W        W33879  39.486  21.021  11.997
65407W        W33880  11.720  20.746   4.303
65408W        W33881  14.751  36.479   3.709
65409W        W33882  39.024  35.543   3.280
65410W        W33883   4.899  44.283  14.463
65411W        W33884  39.834  25.036  11.007
65412W        W33885  32.562  24.088   3.226
65413W        W33886  26.524  24.987  12.093
65414W        W33887  41.417  13.328  10.525
65415W        W33888  24.214  18.585  10.612
65416W        W33889  17.724   8.683  12.436
65417W        W33890  13.349  19.619  11.085
65418W        W33891  43.483  25.140  11.991
65419W        W33892  29.477  44.414  11.001
65420W        W33893  37.547   3.358   0.807
65421W        W33894  14.807  39.830   4.616
65422W        W33895  28.519   9.800  11.521
65423W        W33896  20.720   3.847  14.320
65424W        W33897  29.988  18.587   4.599
65425W        W33898  30.452  43.362  13.443
65426W        W33899  14.216  36.016   1.768
65427W        W33900  20.101  39.979  11.538
65428W        W33901  41.503  42.307   1.258
65429W        W33902  18.786   6.321  10.546
65430W        W33903  35.395  42.001   1.380
65431W        W33904  28.040   6.752   4.350
65432W        W33905  26.146  35.477   2.758
65433W        W33906  38.469  24.009   4.236
65434W        W33907  41.897  38.848  10.422
65435W        W33908  30.974  19.257  10.615
65436W        W33909  37.555  36.493   2.181
65437W        W33910  44.802  14.325   1.858
65438W        W33911   7.300  28.937   4.326
65439W        W33912  28.177  28.621   3.753
65440W        W33913  16.113  13.317  13.471
65441W        W33914   2.937  19.123  12.475
65442W        W33915  38.378  22.250  10.996
65443W        W33916  14.696  36.056   1.408
65444W        W33917  38.821  16.198   4.659
65445W        W33918  42.816  10.181  11.874
65446W        W33919  19.058  22.557  14.392
65447W        W33920   9.311  28.642  12.930
65448W        W33921  21.153  13.162   0.915
65449W        W33922  39.832  16.658  11.008
65450W        W33923  29.146  13.645  11.863
65451W        W33924   7.772  43.786   1.353
65452W        W33925  14.332   8.878  14.461
65453W        W33926  17.145  43.514  11.093
65454W        W33927   0.277  11.672   1.232
65455W        W33928  19.735   7.376  11.917
65456W        W33929  38.421  22.722   2.807
65457W        W33930  14.248  36.429  12.445
65458W        W33931   5.434  28.034   2.188
65459W        W33932  30.560   4.747   3.186
65460W        W33933   7.209  42.502   3.825
65461W        W33934  43.390  44.365  14.489
65462W        W33935  28.460   6.415  14.327
65463W        W33936   4.261  24.093  13.922
65464W        W33937  25.678  13.651   0.769
65465W        W33938  37.870   1.796  12.426
65466W        W33939  32.893   1.270  14.981
65467W        W33940   4.725  44.367   0.912
65468W        W33941  27.998  30.103  10.594
65469W        W33942  30.090  21.672  14.013
65470W        W33943   7.194  25.077   0.419
65471W        W33944   1.354  20.632  11.088
65472W        W33945   9.835  44.942   1.836
65473W        W33946  18.217  36.467  11.879
65474W        W33947  13.310   4.799   4.742
65475W        W33948  19.256  15.743   1.289
65476W        W33949  39.820  22.045   2.246
65477W        W33950  27.988  33.612  12.065
65478W        W33951  31.452  27.157  10.532
65479W        W33952   7.195  21.178  13.505
65480W        W33953  27.153   9.364  11.928
65481W        W33954   3.787  13.780  14.453
65482W        W33955  17.614  29.166  11.069
65483W        W33956  26.681  38.443   4.723
65484W        W33957  28.435  25.212   4.190
65485W        W33958   0.386  34.089  12.502
65486W        W33959  14.688   4.434   0.753
65487W        W33960  13.645  19.078   2.669
65488W        W33961  28.523  29.159   0.324
65489W        W33962  40.854  10.639   1.815
65490W        W33963  23.657  34.591   3.178
65491W        W33964  32.035   2.741  12.359
65492W        W33965   8.878   4.297  12.987
65493W        W33966   7.815  14.340   2.894
65494W        W33967   9.216  32.131   4.683
65495W        W33968   3.382  10.269  13.516
65496W        W33969   1.945   6.203  14.999
65497W        W33970  10.725  43.483  13.927
65498W        W33971  28.542  28.013  12.572
65499W        W33972  17.181  41.948  14.778
65500W        W33973  37.085  16.730  14.801
65501W        W33974  28.165   5.220  10.573
65502W        W33975  16.106  31.011   3.848
65503W        W33976  41.990  42.509   1.741
65504W        W33977  21.625  40.854  13.913
65505W        W33978  26.618  40.043   3.239
65506W        W33979  32.446  26.174   3.181
65507W        W33980  23.497   2.227  11.611
65508W        W33981  42.824  12.317   1.245
65509W        W33982   0.338  14.801  12.991
65510W        W33983  40.978   2.787   3.244
65511W        W33984  18.095  34.493   0.453
65512W        W33985  15.212  36.023   0.341
65513W        W33986  35.491  19.549   4.734
65514W        W33987   5.213  31.446   2.361
65515W        W33988  34.930  35.456   3.812
65516W        W33989  29.032  25.059   2.266
65517W        W33990  35.412  12.750  14.482
65518W        W33991  10.769  12.138   2.237
65519W        W33992   4.784   7.698  11.069
65520W        W33993  24.576  20.102  12.885
65521W        W33994  17.246  28.631   2.896
65522W        W33995  29.104  15.649  12.540
65523W        W33996  18.236  22.563   1.262
65524W        W33997  44.007  13.741   0.886
65525W        W33998   6.253  13.163   5.181
65526W        W33999  30.122  24.580  14.796
65527W        W34000   9.196  27.974   2.296
65528W        W34001  19.632  26.014   2.402
65529W        W34002   7.352   3.310   3.807
65530W        W34003  41.806  26.106  10.601
65531W        W34004   3.440  27.679   3.840
65532W        W34005  19.052  30.614   0.252
65533W        W34006  28.018  15.590   1.800
65534W        W34007  16.195  27.993   1.868
65535W        W34008  33.556  26.037   0.430
65536W        W34009  13.202  15.658   4.239
65537W        W34010  16.215   0.438  13.880
65538W        W34011  16.284  25.985   1.887
65539W        W34012  14.621  22.045   4.333
65540W        W34013  18.731  29.491  11.605
65541W        W34014  23.713  17.164  14.407
65542W        W34015  41.908   5.218   0.914
65543W        W34016  39.963   9.362   2.348
65544W        W34017   0.271  42.837   4.255
65545W        W34018   6.740  41.802  13.894
65546W        W34019   7.782  14.099   3.385
65547W        W34020  30.641   7.229   4.756
65548W        W34021  24.204   2.449   2.874
65549W        W34022  37.949  37.902  14.300
65550W        W34023  24.690  14.293  10.482
65551W        W34024  32.952  22.069  14.358
65552W        W34025   1.384  30.158   2.895
65553W        W34026  24.149  41.862  13.868
65554W        W34027   8.289  20.101  14.318
65555W        W34028   9.205  30.028  13.047
65556W        W34029  17.674  17.264  10.405
65557W        W34030   7.702  19.094  10.604
65558W        W34031  18.651   3.867  14.407
65559W        W34032  22.141   4.804  14.499
65560W        W34033  43.855  44.465  13.359
65561W        W34034  34.922  15.181  12.547
65562W        W34035   5.772  37.365  13.046
65563W        W34036  35.066  34.877   3.233
65564W        W34037  33.441  25.621   3.852
65565W        W34038  16.108  28.046  13.361
65566W        W34039   6.372  42.778   3.228
65567W        W34040   3.920   2.327  13.991
65568W        W34041  32.969   1.320  14.317
65569W        W34042  42.955   1.830   2.189
65570W        W34043   1.829  29.156  12.497
65571W        W34044  21.215  18.167   4.184
65572W        W34045  11.724  32.917  11.432
65573W        W34046   9.254  43.276  12.827
65574W        W34047   9.326   0.436  13.846
65575W        W34048  10.253  29.954   4.658
65576W        W34049  38.003  20.649   3.782
65577W        W34050  30.560  32.018   2.782
65578W        W34051  24.600  14.231  10.055
65579W        W34052   6.848  33.624   1.768
65580W        W34053  32.915  38.346  11.038
65581W        W34054  32.013  18.587   2.826
65582W        W34055  33.617  18.264   0.776
65583W        W34056  39.938  31.929  12.512
65584W        W34057  44.396  42.314  12.986
65585W        W34058  36.845  24.552   2.275
65586W        W34059  19.205  26.549  10.937
65587W        W34060   9.698   3.417   3.205
65588W        W34061  28.444  21.534   0.903
65589W        W34062  26.035  32.023  14.797
65590W        W34063  10.358  31.942   1.439
65591W        W34064   6.761   8.705  11.120
65592W        W34065   4.892  21.170  12.886
65593W        W34066  28.123  15.204  11.050
65594W        W34067  24.665  19.109  13.535
65595W        W34068  36.008   5.428  12.547
65596W        W34069   8.688  40.402   1.420
65597W        W34070  44.905  39.541  10.892
65598W        W34071   0.891  27.965   2.397
65599W        W34072  30.980  37.013   3.813
65600W        W34073  11.790  27.650  12.072
65601W        W34074   2.397  34.382  14.359
65602W        W34075  32.482   4.768  11.411
65603W        W34076   7.860  25.980  12.436
65604W        W34077   1.457  13.828  13.848
65605W        W34078   4.347  42.524   3.225
65606W        W34079   0.450  19.777  14.337
65607W        W34080  23.571  25.711  14.924
65608W        W34081   8.683   6.205   2.337
65609W        W34082  34.899   0.775  13.328
65610W        W34083  15.124   2.233   1.440
65611W        W34084  21.573   5.709  13.816
65612W        W34085  38.830  37.475  12.978
65613W        W34086  22.124  41.965  11.526
65614W        W34087  35.581  15.188   2.210
65615W        W34088  37.037  16.295  11.428
65616W        W34089  11.828  37.481   4.271
65617W        W34090  38.057  15.290   0.867
65618W        W34091  19.041  10.276  14.351
65619W        W34092  33.991  41.895   0.339
65620W        W34093  17.583  13.687   2.736
65621W        W34094  21.078   2.779   0.455
65622W        W34095   4.422   5.249  12.981
65623W        W34096  35.967  13.198  11.575
65624W        W34097  30.159  30.554   0.828
65625W        W34098  10.180  30.472  13.454
65626W        W34099  13.671  28.934   2.807
65627W        W34100  35.865  23.519   2.876
65628W        W34101  25.135  43.448   0.777
65629W        W34102  16.228  39.826   3.322
65630W        W34103  37.400  14.167   2.807
65631W        W34104  35.489   8.756   3.285
65632W        W34105  31.411  20.167  10.902
65633W        W34106  24.074   8.371  10.446
65634W        W34107   3.768  36.932  12.911
65635W        W34108   2.364  29.090  11.585
65636W        W34109  37.037  41.821  11.495
65637W        W34110  17.213  11.758   9.937
65638W        W34111   3.852   8.748   5.210
65639W        W34112  33.022  21.219  12.507
65640W        W34113  34.584  34.075   1.879
65641W        W34114  14.312  21.160  11.601
65642W        W34115  14.724  40.919  13.988
65643W        W34116   2.410   7.231   2.360
65644W        W34117  20.111  35.527   3.762
65645W        W34118   8.270  15.775  12.493
65646W        W34119  12.820  33.436   1.444
65647W        W34120  34.407   1.818   2.879
65648W        W34121  38.352  34.472   1.274
65649W        W34122   3.712   0.804   3.672
65650W        W34123  39.546   4.769   0.294
65651W        W34124  38.885   4.916   0.809
65652W        W34125   6.804  30.918  10.477
65653W        W34126  11.720  34.479   1.403
65654W        W34127   2.926   0.914   0.809
65655W        W34128  32.631  40.941   1.733
65656W        W34129  12.183  14.158   2.723
65657W        W34130  20.147  34.060  13.387
65658W        W34131  12.205  29.090   0.889
65659W        W34132  43.286   5.211   1.397
65660W        W34133  15.598  32.897   9.964
65661W        W34134  44.300  43.955   2.393
65662W        W34135  41.453  31.999  12.498
65663W        W34136  21.241  19.063  13.431
65664W        W34137   8.388   5.290   0.275
65665W        W34138  17.259   0.450   1.725
65666W        W34139   5.822  42.472   3.265
65667W        W34140  17.759   6.913  13.891
65668W        W34141   4.818  23.536   0.332
65669W        W34142   7.866  11.630  13.825
65670W        W34143  11.165   0.802  11.377
65671W        W34144   7.378  30.632  14.944
65672W        W34145   0.488  11.363  10.528
65673W        W34146  15.142  37.345   9.582
65674W        W34147   1.338  22.502   3.715
65675W        W34148  40.348   8.159  13.880
65676W        W34149  23.597  16.794   2.210
65677W        W34150  12.306  18.201   1.367
65678W        W34151  30.560  17.735  10.595
65679W        W34152   4.713  39.856   3.186
65680W        W34153  28.548  26.693   0.790
65681W        W34154  35.421   4.212  10.999
65682W        W34155  14.701  22.720  13.850
65683W        W34156  22.241  31.922   1.803
65684W        W34157  28.024  31.624   4.327
65685W        W34158   6.332  28.676   2.218
65686W        W34159   3.831  32.976   0.377
65687W        W34160   3.745   6.328   3.760
65688W        W34161  32.596  41.295  13.951
65689W        W34162   8.698  20.190   0.388
65690W        W34163   7.857   6.342  14.411
65691W        W34164   3.335  37.528   2.674
65692W        W34165  27.106  40.876  11.023
65693W        W34166  39.555  41.342  13.504
65694W        W34167  38.905  17.254  11.570
65695W        W34168   5.203  39.045  10.486
65696W        W34169  30.610  36.009  12.951
65697W        W34170   2.915  10.859  13.366
65698W        W34171   4.802  23.623   9.981
65699W        W34172  10.186   3.844   0.419
65700W        W34173  41.935  12.196  14.985
65701W        W34174  21.721  34.503  13.064
65702W        W34175   5.375  40.529  11.474
65703W        W34176  22.044  16.078   1.794
65704W        W34177  38.935  18.764  12.510
65705W        W34178   0.254  23.103  11.560
65706W        W34179  44.308   8.878  13.475
65707W        W34180  34.058   1.913  12.979
65708W        W34181  16.246   5.853   3.187
65709W        W34182   6.829  27.462   4.655
65710W        W34183  25.552   1.450   0.747
65711W        W34184  21.179  37.072  14.454
65712W        W34185  31.561  41.929  14.775
65713W        W34186   2.908  16.789   1.696
65714W        W34187  18.292  27.637   0.305
65715W        W34188  34.090  44.488   2.773
65716W        W34189  24.674   0.257   3.780
65717W        W34190  25.106  22.055   3.669
65718W        W34191  44.958  21.071   2.731
65719W        W34192  27.631  15.591   2.884
65720W        W34193  14.183  30.486   2.771
65721W        W34194  21.214  18.085  11.126
65722W        W34195   0.457  12.159  10.431
65723W        W34196  24.606  35.996  13.422
65724W        W34197  30.615  36.494  10.439
65725W        W34198  17.607  18.187  13.326
65726W        W34199  14.151  28.042   4.115
65727W        W34200  30.466  10.279   1.718
65728W        W34201  32.534  32.921   0.417
65729W        W34202  17.736  14.290   1.278
65730W        W34203  12.126  15.619   0.313
65731W        W34204   4.785  13.257  10.027
65732W        W34205   7.717  32.099   1.242
65733W        W34206   9.283  28.018  14.475
65734W        W34207   8.788  31.926   1.695
65735W        W34208  24.539  28.605  13.350
65736W        W34209  32.117   6.752   2.720
65737W        W34210  14.694  15.301  14.860
65738W        W34211  32.997  39.506  12.002
65739W        W34212   1.262  42.475   2.294
65740W        W34213  16.678   0.803  11.608
65741W        W34214  29.427  24.524  10.142
65742W        W34215  17.639  33.435  10.438
65743W        W34216  17.295  15.130  10.562
65744W        W34217   0.457  30.097   1.280
65745W        W34218  31.568   7.773  12.056
65746W        W34219  34.880  10.347   3.841
65747W        W34220   2.280  15.808  10.906
65748W        W34221  17.146  24.604  11.002
65749W        W34222  28.062  31.414  11.987
65750W        W34223  36.003  44.977   0.420
65751W        W34224  44.877  41.299  12.414
65752W        W34225  17.297  13.285   2.321
65753W        W34226   6.710  15.653  12.444
65754W        W34227  15.274   3.346  12.478
65755W        W34228  15.092   0.362  13.490
65756W        W34229  24.614  24.985  13.475
65757W        W34230  12.687  13.838  14.483
65758W        W34231  43.004   5.731   3.731
65759W        W34232   9.278   6.830  14.935
65760W        W34233  29.575   1.409  13.853
65761W        W34234  40.363  10.329  14.775
65762W        W34235   5.767  40.029   0.890
65763W        W34236  35.491  20.254   1.833
65764W        W34237   4.395   5.354  10.947
65765W        W34238  40.373   3.363  14.445
65766W        W34239  25.028  23.534  11.981
65767W        W34240  15.755  26.137   3.169
65768W        W34241  27.027  40.544   2.709
65769W        W34242  10.194  10.267  12.980
65770W        W34243  23.152  14.169   3.223
65771W        W34244  44.483  18.706   4.611
65772W        W34245  40.885  27.068   0.820
65773W        W34246  12.720  12.145  13.548
65774W        W34247  22.511   5.404   4.650
65775W        W34248   3.743  29.504   2.357
65776W        W34249  35.898  42.937  13.490
65777W        W34250  44.989   9.226   3.268
65778W        W34251  41.979  28.441  12.897
65779W        W34252  10.322  35.936  13.909
65780W        W34253   0.461  25.010  14.330
65781W        W34254  30.002  26.511  14.822
65782W        W34255   4.729  26.970  11.536
65783W        W34256  19.091  33.044   3.783
65784W        W34257  34.084  31.059  14.868
65785W        W34258  19.604  28.046   2.189
65786W        W34259   1.859  21.742   2.871
65787W        W34260  19.222   6.795   3.800
65788W        W34261  29.066  43.919  13.035
65789W        W34262   1.242  15.702  14.312
65790W        W34263  19.221  12.668  13.899
65791W        W34264  26.187  29.131  11.867
65792W        W34265   5.710  15.323  13.523
65793W        W34266  21.088  31.029   1.423
65794W        W34267  37.379  33.519   3.807
65795W        W34268   8.899  38.051   2.790
65796W        W34269  44.338  26.122   3.324
65797W        W34270  18.202  25.113   0.749
65798W        W34271  11.356  18.186  12.927
65799W        W34272   9.309   8.762   1.708
65800W        W34273   0.306  20.069  11.459
65801W        W34274  11.652  24.156  14.763
65802W        W34275  36.561  36.465   4.239
65803W        W34276   7.221  36.583  13.395
65804W        W34277  37.045   1.440  14.307
65805W        W34278  27.006  38.338   0.449
65806W        W34279  29.484  42.323  10.892
65807W        W34280  38.556  41.386   1.780
65808W        W34281   3.816   1.746  11.586
65809W        W34282  24.066  25.537  14.850
65810W        W34283  32.929  36.418  14.788
65811W        W34284  23.004  41.802  11.603
65812W        W34285  39.962  39.539   1.234
65813W        W34286  37.958   7.672   3.352
65814W        W34287  20.586  32.494   2.871
65815W        W34288   3.260  44.490   9.929
65816W        W34289  29.068  42.465  14.951
65817W        W34290  38.995  10.174  13.994
65818W        W34291  26.670  25.663  10.604
65819W        W34292  17.569  33.579  13.375
65820W        W34293  39.447  23.675   1.264
65821W        W34294  16.101  11.752   3.325
65822W        W34295  19.283   1.765  13.881
65823W        W34296  22.180  14.710   2.301
65824W        W34297   5.273  31.908  12.482
65825W        W34298  17.099  14.112   3.631
65826W        W34299  40.965  31.505   3.327
65827W        W34300  39.968   7.665  11.084
65828W        W34301  41.959  31.113  14.489
65829W        W34302  34.007  11.688  12.997
65830W        W34303  34.989   1.746  11.438
65831W        W34304   6.885  17.289  10.439
65832W        W34305   2.876   3.384  13.500
65833W        W34306  34.902  10.722  14.935
65834W        W34307  27.579  44.988  10.535
65835W        W34308  12.211   4.750  11.498
65836W        W34309  25.030   9.283   2.834
65837W        W34310  42.392  40.822   2.813
65838W        W34311  42.431  41.304   4.298
65839W        W34312   6.366  36.526  12.401
65840W        W34313  26.501  33.477  12.938
65841W        W34314  13.673  38.396  13.511
65842W        W34315  10.773   9.869   2.347
65843W        W34316  26.568   6.291  10.548
65844W        W34317  21.079  39.939  11.392
65845W        W34318  22.227  14.168  12.996
65846W        W34319   8.792  20.657  14.467
65847W        W34320  12.274  13.723   3.704
65848W        W34321   7.702   2.313   1.278
65849W        W34322  36.096  14.764   2.677
65850W        W34323  36.020  29.625   4.172
65851W        W34324  13.622  38.383   1.415
65852W        W34325   8.184  21.050  13.930
65853W        W34326  34.895  31.041   2.716
65854W        W34327  35.904   9.674  12.933
65855W        W34328  13.285  35.852   5.282
65856W        W34329  20.581  19.574   1.286
65857W        W34330  30.139  32.546  14.376
65858W        W34331  38.483  16.148  10.484
65859W        W34332  24.999  13.149  12.412
65860W        W34333  31.520  40.503  13.891
65861W        W34334  28.077  14.752  11.486
65862W        W34335  39.528  35.864  12.051
65863W        W34336  33.509  29.494   0.327
65864W        W34337  36.545  11.687   1.749
65865W        W34338  13.171  14.146  13.835
65866W        W34339  43.892  28.115  14.759
65867W        W34340  29.159   2.464   1.402
65868W        W34341   0.494  30.505  13.917
65869W        W34342  26.694  21.640  12.411
65870W        W34343  44.786  36.394   1.922
65871W        W34344   9.330   2.364   2.787
65872W        W34345  20.646   6.424  13.989
65873W        W34346  10.345  34.480  14.388
65874W        W34347  12.220   9.774   4.216
65875W        W34348   3.344  11.359   1.717
65876W        W34349   6.738  43.307  14.796
65877W        W34350  39.541  20.133  11.430
65878W        W34351  28.031  15.702  14.963
65879W        W34352  32.900  19.243   1.929
65880W        W34353   9.303  21.079   3.763
65881W        W34354  42.473   3.340  11.565
65882W        W34355  38.974   2.295  10.083
65883W        W34356  22.040  34.985   2.354
65884W        W34357  14.208  23.503   4.332
65885W        W34358  44.839   1.736   1.326
65886W        W34359  12.760  35.063  11.385
65887W        W34360  11.357  27.476   2.238
65888W        W34361  39.872  16.145  13.413
65889W        W34362   6.351  43.397   2.184
65890W        W34363  44.298   9.155  12.013
65891W        W34364  30.055   9.793  12.083
65892W        W34365   5.380   0.323  10.473
65893W        W34366   5.332  41.359  13.026
65894W        W34367  37.469  34.486   1.777
65895W        W34368  14.183  43.507  12.393
65896W        W34369  28.078  15.623   3.209
65897W        W34370  43.965  30.071  13.875
65898W        W34371  39.484  18.222   3.286
65899W        W34372  31.107  20.710  14.824
65900W        W34373  10.709  32.594  14.923
65901W        W34374  12.744  36.873   3.265
65902W        W34375  37.393  22.522   5.297
65903W        W34376  40.802   2.428  11.068
65904W        W34377  42.449  26.494  13.376
65905W        W34378  20.247  26.581  10.160
65906W        W34379  28.144  21.166  12.046
65907W        W34380  20.224  19.164  11.609
65908W        W34381   6.858  20.213   1.860
65909W        W34382   9.200  13.179  10.948
65910W        W34383   2.752   7.820  11.870
65911W        W34384  40.881  21.105   1.421
65912W        W34385  20.590  15.591  13.042
65913W        W34386  44.792   9.761   4.265
65914W        W34387  16.740  22.708  13.951
65915W        W34388  29.542  22.166  10.454
65916W        W34389  40.869  35.972  10.431
65917W        W34390  29.028  13.172   2.289
65918W        W34391   4.207  27.133   0.433
65919W        W34392  17.236  41.484   3.196
65920W        W34393  40.999  26.468   2.881
65921W        W34394   7.703   8.675   0.383
65922W        W34395  14.292   1.747   0.925
65923W        W34396   1.882  13.820  14.843
65924W        W34397   6.398  39.054  13.431
65925W        W34398  22.589   1.293   1.309
65926W        W34399   3.373  37.419  12.918
65927W        W34400  38.848   9.168   0.752
65928W        W34401  22.515  16.596   3.675
65929W        W34402  37.428   2.279  10.411
65930W        W34403   7.840  10.714  13.460
65931W        W34404  39.994   8.895   3.691
65932W        W34405  41.036   4.275   2.720
65933W        W34406  44.483   7.708  10.607
65934W        W34407  16.198  22.189  13.407
65935W        W34408   9.295  31.601   2.832
65936W        W34409   6.326   0.426   1.694
65937W        W34410   3.318  36.511  13.375
65938W        W34411  14.666   0.799  13.403
65939W        W34412  25.706  37.857  14.381
65940W        W34413  38.330  40.366  10.481
65941W        W34414  19.249   2.373  13.829
65942W        W34415  43.853  36.083   1.334
65943W        W34416  12.776   2.845  11.579
65944W        W34417   0.947  28.488  14.366
65945W        W34418  14.813  16.148  11.969
65946W        W34419  41.418  21.129   3.284
65947W        W34420   7.303  12.628  10.487
65948W        W34421  24.710  11.308  12.968
65949W        W34422   5.709   5.846  11.406
65950W        W34423  22.615   0.288  12.527
65951W        W34424  24.695  16.285   0.953
65952W        W34425  16.247  36.464   1.431
65953W        W34426   6.278  41.944   4.148
65954W        W34427  30.933  17.162   0.254
65955W        W34428  33.391  13.199  12.376
65956W        W34429  39.343  26.206   4.672
65957W        W34430  42.390  23.640  14.026
65958W        W34431  39.508  23.632  13.398
65959W        W34432   1.973  37.921  12.362
65960W        W34433  29.548  10.296   0.367
65961W        W34434  44.364  44.787   3.364
65962W        W34435   7.845   0.760  14.948
65963W        W34436   9.674  35.596  13.533
65964W        W34437  29.152  25.020  11.879
65965W        W34438  12.838  38.968   1.228
65966W        W34439  27.690  12.683   3.710
65967W        W34440  13.600  35.447   0.366
65968W        W34441  28.949   3.350  13.007
65969W        W34442   2.332  13.604  10.491
65970W        W34443   7.680  42.421  10.946
65971W        W34444  11.799   9.745   3.332
65972W        W34445  22.071   9.826   0.405
65973W        W34446  44.926  23.018  14.331
65974W        W34447  36.005   0.329   4.154
65975W        W34448  26.070  17.095  11.881
65976W        W34449  13.310  20.060  12.064
65977W        W34450   0.890  34.973  12.916
65978W        W34451  19.676  34.048   0.957
65979W        W34452  17.208  33.621  13.877
65980W        W34453  17.255  14.206   3.295
65981W        W34454  10.276  44.966   3.295
65982W        W34455  16.713  25.059   4.823
65983W        W34456   9.267  36.591  12.409
65984W        W34457  11.268   0.908  13.320
65985W        W34458  43.934  26.539   3.641
65986W        W34459  18.615  14.820  13.023
65987W        W34460   2.244  15.193  11.523
65988W        W34461  25.965  18.249   1.243
65989W        W34462  25.175   1.355   5.772
65990W        W34463  20.613  24.722   3.248
65991W        W34464  23.232  28.639  10.464
65992W        W34465   5.268  38.046  13.881
65993W        W34466  18.122  44.879   1.419
65994W        W34467  37.923   7.812  14.779
65995W        W34468  10.671  23.732   4.163
65996W        W34469  17.064  18.606  14.284
65997W        W34470  37.425   4.220   4.341
65998W        W34471  18.141  12.614  10.586
65999W        W34472  33.881  30.611   3.723
66000W        W34473   9.764  41.392  12.937
66001W        W34474  37.033  21.073  14.893
66002W        W34475  10.716   1.828  12.499
66003W        W34476  30.063  29.571   2.326
66004W        W34477  30.588  31.639  11.894
66005W        W34478  28.448  41.456  14.328
66006W        W34479  17.656  40.850   0.416
66007W        W34480   7.312  28.525   4.716
66008W        W34481   1.407  22.686  11.500
66009W        W34482  28.991  14.798  12.004
66010W        W34483  14.682   2.471  10.560
66011W        W34484  20.543  28.624  12.401
66012W        W34485  44.801  33.510  14.498
66013W        W34486   9.735  21.748  10.906
66014W        W34487  21.737  12.281  13.875
66015W        W34488   0.377  38.831   1.379
66016W        W34489  33.978  16.728   3.347
66017W        W34490  34.999  12.255  14.813
66018W        W34491   0.389  37.864   4.716
66019W        W34492  19.185   2.409   1.752
66020W        W34493  40.943  32.578  12.371
66021W        W34494  18.132  44.983  13.057
66022W        W34495  17.617  12.767   1.722
66023W        W34496  14.131  32.097  10.614
66024W        W34497  19.046  14.152  11.494
66025W        W34498   6.714  17.581   4.605
66026W        W34499  26.086   0.964   2.847
66027W        W34500  21.090  28.466   0.410
66028W        W34501  10.327  44.866  14.871
66029W        W34502   8.781  15.618   1.856
66030W        W34503  11.759  32.628   3.679
66031W        W34504  24.117  21.096  12.912
66032W        W34505  24.606  10.239  10.979
66033W        W34506  43.797  33.427  13.336
66034W        W34507  43.996   5.293   3.771
66035W        W34508  34.518  43.885   0.772
66036W        W34509  29.628  25.187   3.370
66037W        W34510   8.716   6.906  12.485
66038W        W34511  34.910  41.432  12.906
66039W        W34512  32.492  40.900   2.791
66040W        W34513  32.468   1.357   3.300
66041W        W34514  23.650  40.362  13.307
66042W        W34515  10.152   5.847  10.054
66043W        W34516  10.721  19.056   3.266
66044W        W34517  35.097  26.052   2.254
66045W        W34518  36.534  26.683   0.887
66046W        W34519  19.745  17.723   2.881
66047W        W34520  42.955  18.220   3.274
66048W        W34521  12.836  33.031  12.991
66049W        W34522  31.507   0.794   3.229
66050W        W34523  32.902  26.061   2.680
66051W        W34524   5.308  44.914  14.810
66052W        W34525  39.973  27.095   2.668
66053W        W34526  24.204  44.857   4.721
66054W        W34527  40.500   5.326  11.375
66055W        W34528   4.821  34.451   4.310
66056W        W34529   4.886  32.582  10.625
66057W        W34530  43.824  32.024  13.814
66058W        W34531   5.238  11.275  12.036
66059W        W34532  25.543  38.523   0.401
66060W        W34533   0.383  24.077  12.493
66061W        W34534  35.069  21.562  11.871
66062W        W34535  17.274  23.236   4.796
66063W        W34536   8.236  30.475  13.010
66064W        W34537  43.325  35.033  13.896
66065W        W34538   4.248  33.027   0.838
66066W        W34539  37.066   6.829   4.309
66067W        W34540  35.020  19.702   2.798
66068W        W34541  23.032  25.188   2.386
66069W        W34542  28.501  23.698  13.937
66070W        W34543  14.140  38.467   1.926
66071W        W34544   7.906  26.076  13.516
66072W        W34545  20.133  14.757  13.053
66073W        W34546  34.886  42.868  11.918
66074W        W34547   9.717  28.026  12.977
66075W        W34548  23.536   0.855   0.418
66076W        W34549  15.643  41.377   3.766
66077W        W34550   1.828   7.837   4.808
66078W        W34551   3.375   6.200  14.281
66079W        W34552   9.295  12.253  14.023
66080W        W34553  21.530  16.599   3.685
66081W        W34554  38.544  33.963  11.596
66082W        W34555  22.136  39.489  13.856
66083W        W34556  36.452   8.698  11.063
66084W        W34557  35.524  29.476   4.781
66085W        W34558  30.125  37.444   4.783
66086W        W34559  38.924   5.815  14.837
66087W        W34560  28.484   9.223   1.892
66088W        W34561  43.349  35.546  14.398
66089W        W34562   3.854  13.121   4.315
66090W        W34563   6.814  14.247  11.538
66091W        W34564  12.322   9.731  13.990
66092W        W34565  35.443  37.007  14.925
66093W        W34566   6.222  36.434  13.052
66094W        W34567   4.407  36.474   3.673
66095W        W34568  24.995  24.716   0.341
66096W        W34569   5.833   2.828   4.693
66097W        W34570  37.572  21.657  13.381
66098W        W34571   4.777   7.218  11.543
66099W        W34572  13.198  44.289   3.753
66100W        W34573  13.615  39.461   0.827
66101W        W34574  27.659   2.821  12.573
66102W        W34575   4.753   9.165  14.875
66103W        W34576   2.284  15.307  13.922
66104W        W34577   8.369  34.016  11.573
66105W        W34578  10.295  15.199   1.745
66106W        W34579   3.336   6.362   1.792
66107W        W34580  16.237   5.695  13.325
66108W        W34581  13.311   4.850  11.475
66109W        W34582  17.152  19.573  10.642
66110W        W34583  32.472  40.860  10.608
66111W        W34584  40.492  34.444   3.231
66112W        W34585  11.269  44.497  12.559
66113W        W34586  13.623  34.887  11.906
66114W        W34587  17.711  39.982   2.687
66115W        W34588  35.553   5.842   2.235
66116W        W34589  30.964  27.124  13.992
66117W        W34590  23.218  38.964   4.330
66118W        W34591   2.442  36.013  14.386
66119W        W34592  17.125  33.875   4.738
66120W        W34593   3.815  42.296  14.973
66121W        W34594  37.574  41.889   2.389
66122W        W34595  32.923  20.707   2.260
66123W        W34596  21.124   7.879  10.608
66124W        W34597   1.394  37.476   1.253
66125W        W34598  10.345  28.036  13.895
66126W        W34599  30.935  18.699   3.640
66127W        W34600  33.538  25.585  10.145
66128W        W34601  33.576   7.791   4.791
66129W        W34602  18.735  15.808  14.305
66130W        W34603  17.555  18.730  13.966
66131W        W34604  34.564  39.490   4.260
66132W        W34605  17.796  21.191   0.346
66133W        W34606  16.179  17.600   2.343
66134W        W34607  22.563  24.133  13.488
66135W        W34608   8.709  13.274  13.870
66136W        W34609  39.927  37.481  14.481
66137W        W34610  41.303  21.524   0.948
66138W        W34611  42.016   5.397  12.575
66139W        W34612   9.848  41.992  10.470
66140W        W34613  21.197  38.828  13.347
66141W        W34614   6.817   2.290   0.337
66142W        W34615  33.586  40.539  13.348
66143W        W34616  27.193  43.303  12.017
66144W        W34617  42.878  32.629  12.881
66145W        W34618   3.713  27.637   0.437
66146W        W34619   5.818  25.038   2.775
66147W        W34620  16.138  13.730   2.269
66148W        W34621   7.222  12.246  14.898
66149W        W34622  10.636  30.631  11.447
66150W        W34623  11.757  42.858  14.423
66151W        W34624  20.155  32.987  14.850
66152W        W34625   2.442  38.071   4.346
66153W        W34626  37.968  13.844  14.802
66154W        W34627  18.157  13.246   4.141
66155W        W34628  19.262  40.944   4.615
66156W        W34629  29.031  11.793   3.632
66157W        W34630  40.399   5.282  12.997
66158W        W34631  14.162  44.376   0.783
66159W        W34632  40.517   9.270  11.969
66160W        W34633  40.848  20.035  10.592
66161W        W34634  34.003  11.818  10.605
66162W        W34635  37.448  40.444   5.113
66163W        W34636  25.124  35.976  11.880
66164W        W34637  28.646  26.010   1.711
66165W        W34638  17.138  38.383   0.830
66166W        W34639  25.687  22.592   4.160
66167W        W34640  11.670  10.277   3.379
66168W        W34641  16.596   3.914  13.983
66169W        W34642  26.041  25.969  12.972
66170W        W34643   8.699  10.307   0.373
66171W        W34644  32.525  17.563   1.760
66172W        W34645   9.363  24.505   0.845
66173W        W34646  16.596  32.552  11.018
66174W        W34647  11.303  43.475   3.797
66175W        W34648  23.033  19.075   4.165
66176W        W34649  22.064   1.863  10.564
66177W        W34650  39.539  24.020  10.904
66178W        W34651  16.757  41.858  13.918
66179W        W34652   8.380   0.987   2.276
66180W        W34653  11.324  36.972  10.431
66181W        W34654  10.783  17.219  12.842
66182W        W34655  41.969   8.188   1.326
66183W        W34656  33.899  33.035   3.664
66184W        W34657  29.462   2.310   3.364
66185W        W34658   4.345  27.624   2.202
66186W        W34659  13.726  23.512   2.703
66187W        W34660  19.615  19.641  13.045
66188W        W34661  27.532   0.845  13.504
66189W        W34662  32.045  42.480  12.943
66190W        W34663   1.263   1.411   3.725
66191W        W34664  34.102  34.007   2.414
66192W        W34665  23.994   5.404  11.428
66193W        W34666  12.785  34.413   0.336
66194W        W34667   9.354  42.360   2.790
66195W        W34668  44.429  17.609  10.511
66196W        W34669  32.035  31.517   4.176
66197W        W34670  14.764  24.524  14.484
66198W        W34671  33.022  24.027   3.673
66199W        W34672  38.937  15.586  12.368
66200W        W34673   3.398  42.836  13.494
66201W        W34674  23.728  25.493   0.945
66202W        W34675  36.377  24.487   2.261
66203W        W34676  20.762  39.541   1.843
66204W        W34677  30.540  19.618   0.370
66205W        W34678   5.439  17.262   2.210
66206W        W34679  41.004  12.300  14.810
66207W        W34680   2.783  20.578   4.240
66208W        W34681  44.263  16.142   3.356
66209W        W34682  23.560  35.427  10.444
66210W        W34683  20.092  43.924   4.691
66211W        W34684  25.133   8.302   1.719
66212W        W34685  28.113   1.406  12.915
66213W        W34686   7.804  12.815  10.142
66214W        W34687  35.044  40.376   4.142
66215W        W34688  25.654  13.627   0.309
66216W        W34689  28.160  36.436  12.043
66217W        W34690  17.681   5.689  13.370
66218W        W34691   3.856  29.024  10.943
66219W        W34692  19.280   5.286  12.471
66220W        W34693  35.526  27.060   0.920
66221W        W34694  41.423  15.099   3.705
66222W        W34695   3.722  23.086  11.459
66223W        W34696  19.064  22.071   2.713
66224W        W34697  36.883  15.218  14.963
66225W        W34698  34.560  17.265   0.771
66226W        W34699  25.997  41.303  13.447
66227W        W34700  13.186  16.585   0.776
66228W        W34701   7.899  44.758  11.053
66229W        W34702  19.734  29.980  14.799
66230W        W34703  29.470  28.168   2.784
66231W        W34704  44.313  11.317  13.883
66232W        W34705   5.700  15.661  12.350
66233W        W34706  27.096  42.904  12.968
66234W        W34707  33.081  18.198  14.493
66235W        W34708  10.812  15.816   1.717
66236W        W34709  22.013   2.362  14.972
66237W        W34710  36.483  10.647  13.424
66238W        W34711  39.536   8.813  12.375
66239W        W34712  12.138  10.790  10.980
66240W        W34713  10.815  16.775  10.998
66241W        W34714  37.988   8.773  12.434
66242W        W34715  23.993  33.118  13.308
66243W        W34716   5.925  30.064  13.954
66244W        W34717   2.947  43.999  13.911
66245W        W34718   8.259  21.536  12.475
66246W        W34719  42.806  21.030   3.248
66247W        W34720   7.331   1.363  14.778
66248W        W34721  11.860  44.413   0.944
66249W        W34722  32.018  16.759   1.716
66250W        W34723  21.090   8.860  10.062
66251W        W34724   6.242  33.537   2.227
66252W        W34725  32.564  33.527   9.998
66253W        W34726  42.473  24.197   2.845
66254W        W34727  26.533  44.390   1.217
66255W        W34728  29.639   8.322   2.786
66256W        W34729   5.841  24.690  14.786
66257W        W34730  28.489  31.037   1.790
66258W        W34731  14.691  23.047  10.452
66259W        W34732  12.760  20.149   3.227
66260W        W34733  13.649  40.544   4.800
66261W        W34734  31.489  25.066  10.461
66262W        W34735   2.737   1.310  14.820
66263W        W34736  16.673   4.287   1.919
66264W        W34737  10.277  30.534  12.073
66265W        W34738  20.671   6.823   1.287
66266W        W34739  40.461  27.961   2.197
66267W        W34740   6.363  13.647  14.762
66268W        W34741  18.730  39.416  11.961
66269W        W34742  34.432  30.492  11.007
66270W        W34743  28.474  43.514  13.031
66271W        W34744  23.633  22.044   4.805
66272W        W34745   8.381   3.899  11.056
66273W        W34746  24.711  35.541   3.675
66274W        W34747  18.116  31.626   1.845
66275W        W34748  39.018  26.991  14.996
66276W        W34749  41.011  16.569   3.232
66277W        W34750  11.198  42.466  12.912
66278W        W34751  29.592  21.574   3.685
66279W        W34752  43.933  40.927   4.746
66280W        W34753   1.258  40.397  12.389
66281W        W34754  18.213  34.945   1.255
66282W        W34755   8.686  15.660  12.934
66283W        W34756   4.262  26.200  12.476
66284W        W34757   9.239  28.636  12.405
66285W        W34758  20.180  31.513   1.246
66286W        W34759  24.182  39.399  10.960
66287W        W34760  36.961  26.569   4.316
66288W        W34761  15.167   7.259   3.769
66289W        W34762  30.493  29.436   1.881
66290W        W34763  34.541  28.482   3.746
66291W        W34764  15.171  15.124   4.631
66292W        W34765  40.510   6.730   0.373
66293W        W34766  27.515  41.959  12.038
66294W        W34767  25.479  29.176   1.228
66295W        W34768  17.247  16.769  13.983
66296W        W34769  18.576   5.731   3.733
66297W        W34770  36.012  21.237  13.401
66298W        W34771   4.854  32.397  11.006
66299W        W34772   8.737  15.153  12.896
66300W        W34773  14.822  26.997  12.500
66301W        W34774  20.112  13.646  13.823
66302W        W34775  16.720   4.285  10.591
66303W        W34776  18.715  24.044  12.983
66304W        W34777   4.803  24.058   1.388
66305W        W34778   9.804  31.957  13.807
66306W        W34779  22.201  17.698  14.484
66307W        W34780  21.612  21.086   1.333
66308W        W34781   8.730  20.661   1.896
66309W        W34782  21.200   6.355  11.951
66310W        W34783  26.078  30.022  13.531
66311W        W34784  22.568   4.398  13.381
66312W        W34785  20.684   4.797  14.861
66313W        W34786  19.729   9.365  11.455
66314W        W34787  34.016  14.722  11.875
66315W        W34788   0.488   9.358   0.254
66316W        W34789  10.834  20.736   1.327
66317W        W34790  33.089  21.512   3.236
66318W        W34791  32.525  23.996  14.439
66319W        W34792   5.929   3.737   2.294
66320W        W34793  22.523   8.788   0.449
66321W        W34794  41.399   9.273  10.505
66322W        W34795   4.823  16.731   5.313
66323W        W34796   5.831  17.632   0.276
66324W        W34797  15.695  40.928   1.215
66325W        W34798   5.347  43.395   0.748
66326W        W34799  22.153  31.425   3.355
66327W        W34800  36.900   9.781   3.151
66328W        W34801  44.482   9.666  14.917
66329W        W34802   1.348   5.928   4.221
66330W        W34803   8.733  36.096   4.308
66331W        W34804  21.732  35.511   3.378
66332W        W34805   2.226  18.203   1.736
66333W        W34806  31.975  17.688  14.425
66334W        W34807  23.617  42.496  10.943
66335W        W34808  38.861   2.962   1.211
66336W        W34809  20.602  26.200   3.350
66337W        W34810  30.123  30.592  10.432
66338W        W34811  42.391   5.701   4.242
66339W        W34812  12.648  35.855  14.436
66340W        W34813  38.569  36.017   3.657
66341W        W34814  15.603  24.149   3.752
66342W        W34815  18.700  39.997  11.883
66343W        W34816  33.594  26.177   0.772
66344W        W34817  26.118  24.065   1.342
66345W        W34818  26.085  17.170   0.423
66346W        W34819  23.037  19.730  13.976
66347W        W34820  39.532  10.210  11.875
66348W        W34821  38.437  15.219  11.081
66349W        W34822  24.496  21.543   1.817
66350W        W34823  15.704  36.557   0.320
66351W        W34824  33.929   5.214  10.645
66352W        W34825  38.364  26.690   1.323
66353W        W34826  40.501  43.816  14.340
66354W        W34827   6.317   8.887   4.147
66355W        W34828  20.599  42.505  10.528
66356W        W34829  19.610  25.647  11.120
66357W        W34830  37.549   2.321   2.832
66358W        W34831  32.627  11.221  12.540
66359W        W34832  22.243  34.575  14.458
66360W        W34833  10.369  20.080   4.789
66361W        W34834  28.669   9.801   1.299
66362W        W34835   9.318  23.524   0.786
66363W        W34836   0.865  14.811  12.918
66364W        W34837   7.841  33.621   1.409
66365W        W34838  43.877  22.518  10.957
66366W        W34839   2.965  12.775   1.739
66367W        W34840  20.738  28.995   4.255
66368W        W34841  24.573  37.407   3.850
66369W        W34842  21.585  18.556   0.299
66370W        W34843  25.695  37.393   2.255
66371W        W34844  31.121   0.413  11.855
66372W        W34845   0.314  36.976  12.887
66373W        W34846  34.460   8.379   0.902
66374W        W34847  32.633  20.083   4.796
66375W        W34848  38.457   2.465   0.280
66376W        W34849  17.685  33.121   2.679
66377W        W34850  24.550   7.753   4.656
66378W        W34851   1.370  30.057   4.611
66379W        W34852   2.403  36.366  14.946
66380W        W34853  40.352  10.675   1.878
66381W        W34854  32.524   7.714  12.482
66382W        W34855  44.894  41.364  11.942
66383W        W34856  33.954  41.806   0.909
66384W        W34857   3.391  19.635  12.388
66385W        W34858  22.532   4.338   2.825
66386W        W34859   1.829   2.255   1.326
66387W        W34860  24.037  31.111   0.359
66388W        W34861   1.970  35.058  12.465
66389W        W34862  30.961  31.108  11.097
66390W        W34863  32.478  40.993   5.589
66391W        W34864  39.024   9.189  13.402
66392W        W34865  31.647  35.542  10.482
66393W        W34866  31.477  12.290  12.902
66394W        W34867  27.472  28.054   1.258
66395W        W34868   1.767   8.707  13.054
66396W        W34869  12.162  16.762   0.482
66397W        W34870  43.285  36.063  13.545
66398W        W34871   5.421  25.011  11.594
66399W        W34872  25.219  36.943  14.881
66400W        W34873   5.393  13.331   5.308
66401W        W34874   9.207   7.416  11.434
66402W        W34875  10.821  28.601   4.822
66403W        W34876  16.595  39.974  11.901
66404W        W34877  31.121  37.568  13.315
66405W        W34878   8.287  38.443  14.811
66406W        W34879  34.542  30.100  13.458
66407W        W34880  27.188   5.882   0.339
66408W        W34881  41.000  32.550   2.813
66409W        W34882  31.923   4.279  14.785
66410W        W34883  35.876  31.410   2.732
66411W        W34884  41.018   7.860  13.426
66412W        W34885  42.483  30.574   1.894
66413W        W34886   4.735  37.856   0.459
66414W        W34887  37.336  17.087   1.744
66415W        W34888  34.960  33.441   2.214
66416W        W34889  28.512  23.693  13.328
66417W        W34890   3.393   3.892   3.148
66418W        W34891   9.273  31.603   0.810
66419W        W34892  13.658  32.961   2.222
66420W        W34893  40.365  25.163   1.404
66421W        W34894  39.870  32.001   0.385
66422W        W34895  11.658  18.617  12.340
66423W        W34896  22.573   6.199  13.468
66424W        W34897   0.317   0.266   0.780
66425W        W34898  15.778  14.134   3.636
66426W        W34899  21.747  16.651  14.887
66427W        W34900  15.659  37.889   5.657
66428W        W34901  40.899  27.040  14.393
66429W        W34902  35.045  33.567  10.977
66430W        W34903  15.183  17.739  12.881
66431W        W34904  38.447  36.515  12.493
66432W        W34905   0.979  18.058   0.887
66433W        W34906  11.278   1.390   0.377
66434W        W34907  33.405  21.144  11.973
66435W        W34908  14.337  37.367   4.614
66436W        W34909  31.597  41.320   1.337
66437W        W34910  28.470  26.989  13.953
66438W        W34911  14.775  18.769  13.829
66439W        W34912  42.789  25.123  12.437
66440W        W34913  14.240   9.253  10.448
66441W        W34914   2.859  36.860  14.000
66442W        W34915  18.248   9.647  12.922
66443W        W34916  37.849   8.297   0.802
66444W        W34917   5.313  36.910   1.418
66445W        W34918  35.456   4.405   1.748
66446W        W34919   7.415  34.981   4.129
66447W        W34920  21.137  17.307   3.644
66448W        W34921  40.948  40.446   4.214
66449W        W34922  35.038  33.610  14.935
66450W        W34923  30.422  29.474  11.005
66451W        W34924  30.519  18.657   4.134
66452W        W34925  20.760   3.782  11.992
66453W        W34926  36.583   0.437  14.963
66454W        W34927   2.425   6.312  12.862
66455W        W34928  24.150  29.608  13.791
66456W        W34929  41.325  23.148  13.025
66457W        W34930  37.484  36.071  11.985
66458W        W34931   1.240  24.031   4.192
66459W        W34932   2.348  20.099  14.807
66460W        W34933  44.481  38.372   3.227
66461W        W34934   4.824  25.159  13.404
66462W        W34935   1.767  42.983  13.352
66463W        W34936  26.171  16.686  14.984
66464W        W34937  25.488  12.334  13.410
66465W        W34938   4.919  35.041  10.642
66466W        W34939  26.654   1.894  10.592
66467W        W34940  29.589  37.837   3.204
66468W        W34941  30.621  41.353  14.804
66469W        W34942   9.780   5.379  10.451
66470W        W34943  44.979  22.620  14.445
66471W        W34944  39.462  27.033   0.441
66472W        W34945  34.409  22.616   4.126
66473W        W34946  38.868   9.877  11.598
66474W        W34947  11.317  19.605   0.434
66475W        W34948  40.444  31.007  12.488
66476W        W34949  10.359  29.590   4.205
66477W        W34950  37.520  14.623   3.292
66478W        W34951  41.316   8.657   3.819
66479W        W34952  32.478  11.634   0.477
66480W        W34953  24.576  32.017   0.915
66481W        W34954   3.886  33.087  11.113
66482W        W34955  34.875  32.039  13.902
66483W        W34956  42.383  30.480  12.968
66484W        W34957  30.130  43.484  10.516
66485W        W34958  35.048  10.150  11.498
66486W        W34959  23.491   1.435  12.051
66487W        W34960  10.657  27.959   3.235
66488W        W34961  38.379  24.607   1.408
66489W        W34962  21.720  39.029  13.347
66490W        W34963  34.476  32.588   4.125
66491W        W34964  16.688  23.145   3.259
66492W        W34965  35.529   5.399   1.414
66493W        W34966  25.974   8.180  11.085
66494W        W34967  11.203  42.803  12.947
66495W        W34968  32.564  42.884   4.227
66496W        W34969   0.932  41.419  10.901
66497W        W34970  17.677  18.632   1.313
66498W        W34971  21.735  29.435   2.741
66499W        W34972   3.262  27.008  11.005
66500W        W34973  43.333  37.055  13.398
66501W        W34974   3.399   4.299   3.385
66502W        W34975  40.425   4.440  14.349
66503W        W34976  29.937  33.933   0.763
66504W        W34977  19.229   7.840   3.768
66505W        W34978  28.054  38.382  10.964
66506W        W34979   2.908  36.969   3.766
66507W        W34980  43.295   3.726   1.822
66508W        W34981  38.894   5.277   3.227
66509W        W34982   6.269  22.672   3.795
66510W        W34983   0.870  38.373  12.405
66511W        W34984  35.082  16.175  14.406
66512W        W34985  37.924  26.073   4.733
66513W        W34986  25.683  31.437   3.741
66514W        W34987  30.080  40.344  13.046
66515W        W34988   7.716  24.577  10.981
66516W        W34989   3.835  18.275  13.929
66517W        W34990  35.545  36.053   2.841
66518W        W34991  16.736  38.399  12.892
66519W        W34992  14.770  30.962   4.630
66520W        W34993  32.063   6.416   2.830
66521W        W34994  44.325  10.350   2.834
66522W        W34995  20.684  31.897  12.340
66523W        W34996  36.000   6.382  14.842
66524W        W34997  11.221  40.400   4.668
66525W        W34998  36.589  17.709   1.723
66526W        W34999  28.123  39.337  13.374
66527W        W35000  23.156  21.187   2.687
66528W        W35001  40.386  23.599   1.339
66529W        W35002  30.956  36.975  10.508
66530W        W35003  40.852  27.558  13.516
66531W        W35004  11.835  41.791   3.326
66532W        W35005  33.121  44.938   2.223
66533W        W35006  34.497  23.661   4.730
66534W        W35007  26.556   0.749  14.855
66535W        W35008   2.256   1.917   2.796
66536W        W35009  31.593   9.192   3.769
66537W        W35010  39.820  29.070   4.218
66538W        W35011   5.418  44.907  12.909
66539W        W35012  29.559  44.998   2.280
66540W        W35013   7.765   1.294   0.444
66541W        W35014   2.785  43.294  11.855
66542W        W35015  30.586  22.102   3.270
66543W        W35016  19.641  31.441   0.846
66544W        W35017  17.142  18.735  11.013
66545W        W35018  39.832   1.302  10.897
66546W        W35019  10.737  13.105  10.978
66547W        W35020  31.058  33.623  11.059
66548W        W35021  26.095   7.334   4.710
66549W        W35022  43.441   6.398  13.842
66550W        W35023  33.925  13.221   1.439
66551W        W35024  24.150  39.993   2.377
66552W        W35025   2.399  11.844   4.711
66553W        W35026  37.871  23.506  12.559
66554W        W35027   4.734   3.245  14.387
66555W        W35028   4.870  36.932   2.417
66556W        W35029  29.019  19.741  11.955
66557W        W35030   9.283  16.698  12.470
66558W        W35031  13.154  44.362  13.537
66559W        W35032  20.543   4.726   3.277
66560W        W35033  38.927  30.601  10.048
66561W        W35034  22.086  29.644  10.494
66562W        W35035   8.235  14.704   4.114
66563W        W35036  18.130  10.343   0.940
66564W        W35037  34.887   9.283  14.904
66565W        W35038  36.450   9.331  13.432
66566W        W35039  18.635  13.325  14.352
66567W        W35040  32.391  24.705   1.211
66568W        W35041  20.071  10.670   4.613
66569W        W35042  37.904   2.918  13.874
66570W        W35043   3.783   3.401   4.165
66571W        W35044  18.751   2.775  11.099
66572W        W35045  29.950  13.776  10.949
66573W        W35046  15.677   8.174  14.447
66574W        W35047   4.447   7.782   3.338
66575W        W35048  44.881  44.996  14.849
66576W        W35049  33.402  43.817  13.455
66577W        W35050  15.318  41.916  14.798
66578W        W35051  30.935   0.822   4.179
66579W        W35052  23.678  12.360   5.645
66580W        W35053  22.186  39.031   4.150
66581W        W35054  33.518  40.339   4.799
66582W        W35055   7.842   1.761   2.409
66583W        W35056  33.386  24.671  14.295
66584W        W35057   8.789  14.163  12.512
66585W        W35058  11.181  39.010  12.006
66586W        W35059  12.655  38.390   3.734
66587W        W35060  19.556  29.552  13.899
66588W        W35061  17.744   3.851  11.560
66589W        W35062  16.794  40.949   0.935
66590W        W35063  25.545  11.271  13.974
66591W        W35064  23.553  15.744   0.285
66592W        W35065  15.723  24.560   5.184
66593W        W35066  35.552   6.814  14.928
66594W        W35067  21.132   6.352  13.342
66595W        W35068   0.318  26.150  10.955
66596W        W35069   0.256   2.414   1.377
66597W        W35070  17.227   3.716  13.322
66598W        W35071  17.103   8.890  12.076
66599W        W35072  34.074  29.535   0.917
66600W        W35073  37.030  29.169  12.975
66601W        W35074  26.696  16.652  11.930
66602W        W35075  35.577   7.778   1.320
66603W        W35076   5.903  26.690  10.032
66604W        W35077  28.617  44.777  12.436
66605W        W35078  42.284   5.372   1.917
66606W        W35079   7.763  36.017   3.693
66607W        W35080   4.210  30.160  12.014
66608W        W35081  38.834  39.542  12.871
66609W        W35082   8.281  15.707   2.200
66610W        W35083  17.157  30.483   0.469
66611W        W35084  22.688  11.223   0.808
66612W        W35085   8.206  35.595   1.885
66613W        W35086   9.189  20.551  11.584
66614W        W35087   7.796   6.250  13.951
66615W        W35088  23.627  29.078  10.570
66616W        W35089   1.270  42.014  14.886
66617W        W35090  35.391   0.408   0.374
66618W        W35091  22.112  27.529   5.160
66619W        W35092  12.744  34.085   0.359
66620W        W35093  20.030   0.833   2.382
66621W        W35094  43.901  43.982   3.839
66622W        W35095  37.421  32.899   4.303
66623W        W35096   8.792   0.981   3.830
66624W        W35097  16.254  24.062   2.843
66625W        W35098  12.822  28.634  14.281
66626W        W35099  23.985  10.343   3.202
66627W        W35100  15.612  23.058   0.391
66628W        W35101  32.527   3.816  12.470
66629W        W35102  35.546  37.031  12.505
66630W        W35103  31.585   4.901   2.730
66631W        W35104   8.678  18.746  13.385
66632W        W35105   6.377  44.326   2.224
66633W        W35106   9.198  20.069  12.037
66634W        W35107   4.786  27.535  13.901
66635W        W35108  30.576   0.769   2.748
66636W        W35109  19.689  39.986   1.849
66637W        W35110   9.355  42.369  12.074
66638W        W35111  31.012   1.449  11.468
66639W        W35112  28.158   7.288  13.055
66640W        W35113  43.963  42.511  11.532
66641W        W35114  21.609  28.978  11.961
66642W        W35115  33.504   8.783  14.830
66643W        W35116  11.804  42.486  12.424
66644W        W35117  21.580   8.857   0.409
66645W        W35118   6.402  43.997   1.812
66646W        W35119  10.237  20.751  11.998
66647W        W35120  39.813   2.464   4.115
66648W        W35121  33.610  35.525  10.023
66649W        W35122  21.159  25.049  12.356
66650W        W35123  29.960  26.150  10.408
66651W        W35124  13.670  16.140   3.809
66652W        W35125  36.390  35.421   3.689
66653W        W35126  20.695   4.385  14.471
66654W        W35127  39.439  14.253   4.350
66655W        W35128  31.946  42.010  14.341
66656W        W35129   6.240  30.432  13.364
66657W        W35130  22.647   1.250   2.356
66658W        W35131  26.153  36.991  10.982
66659W        W35132  40.055  44.454  10.912
66660W        W35133  27.589   1.964  13.342
66661W        W35134  43.927  12.264   3.214
66662W        W35135  29.437  11.333  14.014
66663W        W35136  16.258  34.517  12.340
66664W        W35137   5.214  13.351  11.585
66665W        W35138  20.117  31.557  12.943
66666W        W35139  15.796  27.475   2.371
66667W        W35140  40.404  19.582  11.085
66668W        W35141  21.646  11.761  13.321
66669W        W35142   3.411  37.390  13.405
66670W        W35143   5.783   7.313  14.448
66671W        W35144  15.138  39.810   2.849
66672W        W35145   6.207  21.192   2.891
66673W        W35146   0.785   1.879  14.436
66674W        W35147   4.301  22.177  12.472
66675W        W35148  33.434  10.750  14.310
66676W        W35149  10.790  38.352  12.992
66677W        W35150  21.148   7.399   2.259
66678W        W35151  15.151  21.097  10.933
66679W        W35152   2.898  29.956   2.254
66680W        W35153  32.083  38.462  14.356
66681W        W35154  32.105  13.615   0.838
66682W        W35155  19.181  28.114  11.025
66683W        W35156  34.948   4.370  13.838
66684W        W35157  15.640  24.109  11.020
66685W        W35158   5.905  12.822  14.494
66686W        W35159  33.447  14.623  13.042
66687W        W35160  35.981  44.858   4.761
66688W        W35161  37.974  34.969   3.155
66689W        W35162  13.304  41.862  13.502
66690W        W35163  31.587   9.205   1.331
66691W        W35164  12.624  24.537   4.184
66692W        W35165   5.756  10.679   3.643
66693W        W35166  11.766  37.456  11.433
66694W        W35167   3.786  14.187   3.243
66695W        W35168   8.346   5.759   3.649
66696W        W35169   1.897  13.173   1.338
66697W        W35170   2.734  13.204  14.821
66698W        W35171  20.107  20.682   3.724
66699W        W35172  28.032  43.430   0.930
66700W        W35173   0.900  13.766  14.491
66701W        W35174  28.182  37.071   0.316
66702W        W35175  25.110  27.035  13.312
66703W        W35176  33.085  14.756  12.446
66704W        W35177  36.584  25.056  10.104
66705W        W35178   0.944  29.155  12.055
66706W        W35179  20.214   1.422   4.669
66707W        W35180  33.586   4.370  11.061
66708W        W35181  30.958   7.904  14.014
66709W        W35182  42.831   4.728   2.709
66710W        W35183  10.681  18.188   3.633
66711W        W35184  32.410  44.457   2.739
66712W        W35185  12.732  36.393   2.310
66713W        W35186  39.937  15.121  11.032
66714W        W35187  19.089  31.581  13.421
66715W        W35188  41.013  13.195  13.976
66716W        W35189  43.287   2.878  14.507
66717W        W35190   2.298   6.344  11.597
66718W        W35191   4.910  16.178  13.383
66719W        W35192  27.577  22.222  13.432
66720W        W35193  37.382  12.230  10.955
66721W        W35194   0.362   2.245   3.740
66722W        W35195  43.352   2.723   2.266
66723W        W35196  44.448  39.532  11.047
66724W        W35197  36.988  17.564   4.350
66725W        W35198  35.861  37.458  14.480
66726W        W35199  32.583   5.195   0.304
66727W        W35200  18.651   5.782   0.881
66728W        W35201  11.321  42.398   0.847
66729W        W35202   6.818  11.760   3.671
66730W        W35203  21.241  17.063  11.969
66731W        W35204  21.064  39.022   5.272
66732W        W35205   6.760   3.315   0.300
66733W        W35206  40.927  31.101  11.064
66734W        W35207  34.042   0.801  10.444
66735W        W35208   2.907  43.892   0.798
66736W        W35209  36.403  37.427  11.577
66737W        W35210  20.077  41.442   5.153
66738W        W35211   9.167  11.228   0.328
66739W        W35212  30.087   0.303  14.278
66740W        W35213  23.679  29.541   3.190
66741W        W35214  44.962  30.070   4.828
66742W        W35215  14.235  26.635   3.720
66743W        W35216  32.562  38.973  10.484
66744W        W35217  24.040  28.610  13.426
66745W        W35218   6.874   9.680  10.643
66746W        W35219  39.830   5.867  10.909
66747W        W35220   8.697   9.381   3.376
66748W        W35221  28.589  22.079   2.389
66749W        W35222  30.159   9.205   0.252
66750W        W35223   7.172  30.937   3.183
66751W        W35224  42.289  25.007   1.299
66752W        W35225  29.502  39.501  12.579
66753W        W35226  40.912   2.243  13.343
66754W        W35227  22.648  16.796  11.465
66755W        W35228  29.626  33.513  12.493
66756W        W35229  11.187  18.644   1.849
66757W        W35230  42.416  26.961  13.818
66758W        W35231  12.768  34.982  11.107
66759W        W35232  32.116  36.063  14.930
66760W        W35233  11.345  23.577  11.573
66761W        W35234  32.114   3.787  10.427
66762W        W35235  25.599   9.691   1.277
66763W        W35236   5.743  21.106  13.933
66764W        W35237  11.787  13.784  12.453
66765W        W35238  41.486  19.554  11.415
66766W        W35239  38.466  19.102  10.429
66767W        W35240  22.015  38.327   3.296
66768W        W35241  39.328   6.218  12.950
66769W        W35242   0.347  13.284  10.410
66770W        W35243   9.759  14.816   0.804
66771W        W35244  17.152  16.682  12.484
66772W        W35245   2.297   8.355   1.403
66773W        W35246   0.963  26.674  11.582
66774W        W35247  33.566  21.621   3.822
66775W        W35248  22.108  22.573  10.427
66776W        W35249  21.094  16.693  12.882
66777W        W35250  39.426  14.330  11.983
66778W        W35251  18.191  28.526   0.247
66779W        W35252  17.108  22.620  10.471
66780W        W35253  35.070  28.670  12.018
66781W        W35254  34.022  15.300  11.104
66782W        W35255  42.482  22.211  11.911
66783W        W35256  36.520  30.476  11.887
66784W        W35257  26.541  22.680   0.314
66785W        W35258  14.183  29.105  14.494
66786W        W35259  29.119   5.342   0.955
66787W        W35260  11.641  37.831  11.859
66788W        W35261  30.604  32.510  14.008
66789W        W35262  32.892   2.728  13.907
66790W        W35263  33.875   5.795   2.192
66791W        W35264  44.282  29.431  10.116
66792W        W35265  26.087  31.563  12.857
66793W        W35266  22.036   3.712  12.509
66794W        W35267   8.393  35.573   3.675
66795W        W35268  42.345  31.965  10.975
66796W        W35269  37.993   5.808  14.890
66797W        W35270  18.097   5.730  14.867
66798W        W35271  27.587  34.470   3.815
66799W        W35272  17.668  37.469  13.894
66800W        W35273  16.567   6.723  12.434
66801W        W35274  44.337   0.776   3.749
66802W        W35275  20.569  27.556   4.194
66803W        W35276  14.731   7.377  11.468
66804W        W35277  18.186  11.139   3.748
66805W        W35278  29.470  23.147  11.056
66806W        W35279  21.193  36.049   3.844
66807W        W35280  31.914  17.609   2.757
66808W        W35281  28.185  27.560   2.252
66809W        W35282   8.709  31.610  11.945
66810W        W35283  20.640  16.595   2.410
66811W        W35284  21.540  39.842  12.034
66812W        W35285   3.945  26.177   3.160
66813W        W35286  30.024   8.864   1.856
66814W        W35287  18.268  26.500  10.950
66815W        W35288  15.204  42.884  11.508
66816W        W35289  15.702  11.348  11.930
66817W        W35290  44.950  11.146   0.394
66818W        W35291   2.315  25.511  13.330
66819W        W35292  27.111  36.943  13.938
66820W        W35293  31.631  25.537  11.084
66821W        W35294  17.695  28.597   4.653
66822W        W35295  42.974  19.090  13.324
66823W        W35296  29.582  27.000   4.599
66824W        W35297  16.655   6.371  11.982
66825W        W35298   6.268   5.207  10.094
66826W        W35299  41.443  35.363   4.352
66827W        W35300   8.682  38.539  12.833
66828W        W35301   0.783  15.280  11.608
66829W        W35302  30.530  16.204  12.074
66830W        W35303  10.285  17.089  12.447
66831W        W35304   0.378   5.730   3.869
66832W        W35305  38.502  38.038  13.432
66833W        W35306   6.830  40.523  11.539
66834W        W35307  19.581  26.646   3.208
66835W        W35308  22.085  43.467  12.545
66836W        W35309  41.412  13.351   4.312
66837W        W35310  10.211  37.021   4.789
66838W        W35311  32.606  22.550   3.279
66839W        W35312  18.782  38.074   0.884
66840W        W35313  32.574   6.727  11.882
66841W        W35314   8.241  35.423  12.974
66842W        W35315  24.108  31.531   3.782
66843W        W35316  12.296  30.932   3.254
66844W        W35317  40.333  28.575   3.235
66845W        W35318  10.647  23.088  13.053
66846W        W35319  28.951  13.762   4.833
66847W        W35320  14.677  11.750   1.898
66848W        W35321  35.093  17.064   2.846
66849W        W35322  24.697   3.905  12.037
66850W        W35323   6.908  37.960   1.412
66851W        W35324  31.635   1.846  14.987
66852W        W35325   7.665  34.879   5.713
66853W        W35326  35.106  16.206   2.357
66854W        W35327  24.597  24.625   3.783
66855W        W35328  25.518   0.342   4.220
66856W        W35329  22.595  37.066   1.297
66857W        W35330  15.745  16.619   1.820
66858W        W35331  29.438  17.141   0.293
66859W        W35332  12.151   7.400   0.927
66860W        W35333  14.166  22.223   0.906
66861W        W35334  16.207  44.840  13.966
66862W        W35335   3.816   2.757  10.600
66863W        W35336  37.007  35.015  12.930
66864W        W35337  32.398  14.246   1.357
66865W        W35338   7.357   5.927  13.023
66866W        W35339  30.062  13.645   0.966
66867W        W35340  33.543  43.978  11.044
66868W        W35341  21.563  22.680  10.001
66869W        W35342  21.697  19.112   0.817
66870W        W35343  11.862  18.095   4.779
66871W        W35344  11.866  34.923  13.469
66872W        W35345   4.845   4.356   3.785
66873W        W35346  24.148   6.246   3.254
66874W        W35347   3.324  19.613  14.919
66875W        W35348   1.814   7.670  12.007
66876W        W35349  14.292  19.185  11.997
66877W        W35350  14.227  31.011  12.348
66878W        W35351  17.122   6.258  12.891
66879W        W35352  19.194  26.504   1.379
66880W        W35353  42.510   0.859   3.693
66881W        W35354  41.847  36.068   0.346
66882W        W35355  29.996   3.709   1.929
66883W        W35356  26.193  30.552  12.487
66884W        W35357   9.679  22.231   5.726
66885W        W35358  27.174  36.874  11.402
66886W        W35359  31.944   4.295  13.502
66887W        W35360  12.183  13.266  12.063
66888W        W35361  12.338  30.023  10.409
66889W        W35362  30.990  31.567   3.298
66890W        W35363  40.812   9.672  13.440
66891W        W35364  10.856  10.804  12.958
66892W        W35365  25.516  14.733  14.339
66893W        W35366  12.239  35.065  14.353
66894W        W35367  43.873  10.297  14.955
66895W        W35368  15.146  26.566   1.232
66896W        W35369  40.989   8.198   2.226
66897W        W35370  40.498   6.331   1.897
66898W        W35371  24.513  39.003  12.848
66899W        W35372  33.603  25.115   0.894
66900W        W35373   7.225  38.827  14.009
66901W        W35374  43.822  37.493   1.935
66902W        W35375  18.133  44.807  12.497
66903W        W35376  22.164   0.321   1.780
66904W        W35377  12.263  40.996   4.304
66905W        W35378  43.873   4.411  13.019
66906W        W35379  40.879  32.095  13.945
66907W        W35380  24.114  31.065  14.907
66908W        W35381  27.475  11.282   4.146
66909W        W35382  28.633  24.583  14.429
66910W        W35383  36.549  29.171  10.484
66911W        W35384   9.240   7.388   4.702
66912W        W35385  30.046  18.103  12.441
66913W        W35386  32.517  31.980  12.041
66914W        W35387  11.622  21.680  14.902
66915W        W35388  36.500  21.023  10.156
66916W        W35389  40.002  44.431  13.476
66917W        W35390  18.086  26.651   3.748
66918W        W35391  38.859  19.571   9.931
66919W        W35392  39.843  35.877   0.283
66920W        W35393  23.695  27.687   5.696
66921W        W35394  22.169  27.061   0.337
66922W        W35395  34.416  42.306   3.364
66923W        W35396  19.225  22.628  11.376
66924W        W35397  23.049   7.871   0.898
66925W        W35398  23.705  29.469  12.440
66926W        W35399  32.466  20.096   2.373
66927W        W35400  21.259   1.479  13.917
66928W        W35401  25.652  44.322   1.362
66929W        W35402  23.022  39.972  13.888
66930W        W35403  33.532  43.471  12.557
66931W        W35404  11.780  35.080  14.876
66932W        W35405  31.607   6.328  13.407
66933W        W35406  22.699  24.662  12.453
66934W        W35407  29.475  13.182  11.431
66935W        W35408  17.776  32.909   0.742
66936W        W35409  24.639  22.192   3.359
66937W        W35410  14.313  27.090  10.530
66938W        W35411  40.429  11.169   4.303
66939W        W35412  13.252  11.205   3.165
66940W        W35413  29.498   3.379   2.701
66941W        W35414  37.581  35.034   0.379
66942W        W35415  21.752  29.170   1.873
66943W        W35416  40.465  10.186   3.711
66944W        W35417  10.791  43.930  12.039
66945W        W35418  36.852  17.225  13.932
66946W        W35419  31.036  18.651  10.978
66947W        W35420  34.866   7.840   1.822
66948W        W35421  23.131  20.688  13.835
66949W        W35422  37.517  27.122   4.262
66950W        W35423  30.618  38.348   0.762
66951W        W35424   2.855  30.950   0.367
66952W        W35425  34.071   9.647   4.799
66953W        W35426   2.358  40.536   0.437
66954W        W35427  31.563  25.661   0.270
66955W        W35428  33.992  23.146   2.262
66956W        W35429  26.134   4.382   2.823
66957W        W35430  33.444  24.159  14.859
66958W        W35431  10.707   2.379   0.831
66959W        W35432  18.127  41.508  13.476
66960W        W35433  30.996  23.542   1.378
66961W        W35434  31.977   4.942   0.752
66962W        W35435  40.971  39.353   3.382
66963W        W35436  21.522  39.495  14.803
66964W        W35437  12.704  31.635   3.273
66965W        W35438  10.653  17.100  13.796
66966W        W35439  30.000   8.382  14.335
66967W        W35440  24.015   6.907  11.935
66968W        W35441  18.722  43.304   1.845
66969W        W35442  36.537  19.078   0.466
66970W        W35443  18.579  37.465  13.407
66971W        W35444   9.337  41.515  13.799
66972W        W35445  13.722  27.083  11.913
66973W        W35446  21.749  35.603  12.970
66974W        W35447  15.747  22.043   3.843
66975W        W35448   4.206  17.214   1.247
66976W        W35449   4.364  26.098   3.161
66977W        W35450  38.412  17.228   0.873
66978W        W35451  35.474   3.873  14.008
66979W        W35452  24.563   5.374   1.744
66980W        W35453  44.426  34.478  13.976
66981W        W35454  37.968  33.949   1.891
66982W        W35455  14.791  35.509  11.378
66983W        W35456  33.382  27.473  11.936
66984W        W35457   5.841  44.389  14.832
66985W        W35458   1.901  40.016  12.861
66986W        W35459  26.517  31.584  11.956
66987W        W35460  12.218  37.425   2.866
66988W        W35461  37.533  33.517  14.941
66989W        W35462  35.419  35.533  13.836
66990W        W35463  23.145  25.987  11.460
66991W        W35464   8.693  38.032  12.824
66992W        W35465  16.236  10.244  11.865
66993W        W35466  23.716   0.252   9.920
66994W        W35467  32.393  34.397  13.051
66995W        W35468  13.664  15.599  11.544
66996W        W35469  22.663  20.626   1.897
66997W        W35470  31.003  33.900   2.297
66998W        W35471  10.667   6.863   3.199
66999W        W35472   0.926   8.860  12.355
67000W        W35473  39.835  30.441  10.998
67001W        W35474  43.299  24.689   0.453
67002W        W35475  36.976   9.309   1.312
67003W        W35476  17.173  34.951   0.328
67004W        W35477  38.886   5.708   0.899
67005W        W35478  10.229   3.939  11.088
67006W        W35479   5.269  12.161   2.395
67007W        W35480   1.770  35.420  10.513
67008W        W35481  25.042  25.654  12.913
67009W        W35482   5.801  25.124  13.534
67010W        W35483   5.314   6.820   1.429
67011W        W35484  25.064  27.529   4.223
67012W        W35485  27.082  14.216  11.095
67013W        W35486  31.561  30.443   2.353
67014W        W35487  16.689   8.690  13.459
67015W        W35488  15.291  35.412   4.140
67016W        W35489  17.260   6.325   5.127
67017W        W35490  27.015  33.882  13.041
67018W        W35491  19.608  11.778  14.405
67019W        W35492  40.847  28.490  14.301
67020W        W35493  13.649  26.180  14.010
67021W        W35494  30.929  42.361  11.888
67022W        W35495  31.949  16.715   4.699
67023W        W35496   6.321   2.412   0.915
67024W        W35497  44.482  39.029  14.945
67025W        W35498  30.976   4.926  12.945
67026W        W35499   6.874  24.994   4.297
67027W        W35500  41.040  42.012  12.502
67028W        W35501   6.362  36.073   1.279
67029W        W35502  19.177  27.620  10.449
67030W        W35503  22.235  29.546   1.276
67031W        W35504   4.291  41.032  12.409
67032W        W35505   5.281  34.554   0.464
67033W        W35506   0.302   5.411  13.367
67034W        W35507  19.750  24.490  14.977
67035W        W35508  19.157  43.283  13.039
67036W        W35509  22.068  14.250   0.308
67037W        W35510   1.270  18.654   1.731
67038W        W35511  12.633  26.024  14.491
67039W        W35512  27.473  26.609   4.680
67040W        W35513  25.173  35.452  10.977
67041W        W35514  36.935   7.797  14.402
67042W        W35515   6.425  21.138  11.428
67043W        W35516  35.090   1.467  13.839
67044W        W35517  24.712  21.699  11.981
67045W        W35518  42.777  14.310   2.856
67046W        W35519   4.827   5.251   0.917
67047W        W35520  24.637  11.271  11.855
67048W        W35521  10.816  22.141  11.485
67049W        W35522  16.731  36.389  10.615
67050W        W35523  11.852   1.249   0.308
67051W        W35524  35.472   9.323  12.005
67052W        W35525   0.801  11.294  10.485
67053W        W35526  29.964  43.376   0.338
67054W        W35527   9.191  31.555  11.457
67055W        W35528  41.523  33.945  12.571
67056W        W35529   8.299  29.563   4.766
67057W        W35530  16.610  18.781   1.745
67058W        W35531  35.470  28.141   4.193
67059W        W35532  25.567  25.666  12.908
67060W        W35533  40.436  23.543  12.960
67061W        W35534   8.739  28.935   0.392
67062W        W35535  14.621   8.195  12.903
67063W        W35536  12.209  40.985  13.976
67064W        W35537  41.924  35.918   2.701
67065W        W35538  43.946  42.003   3.216
67066W        W35539  28.578  32.458  11.051
67067W        W35540   7.792  31.949  11.947
67068W        W35541  17.737  43.388   3.260
67069W        W35542  38.055  36.914   0.765
67070W        W35543   3.351  25.654  14.307
67071W        W35544  32.416  15.264  12.391
67072W        W35545  36.925  11.858   1.370
67073W        W35546  27.510   7.722  13.501
67074W        W35547   5.332   5.844   0.414
67075W        W35548  20.655  28.535   4.312
67076W        W35549  39.011   2.804  11.389
67077W        W35550  32.470  35.477   2.731
67078W        W35551  44.933   6.914  11.076
67079W        W35552   1.240   9.342   1.909
67080W        W35553   3.847  19.593   5.214
67081W        W35554   0.973  30.927  13.482
67082W        W35555   5.885  33.434   4.834
67083W        W35556  17.719  36.566  14.902
67084W        W35557  26.684  22.034  14.415
67085W        W35558  11.206  21.063  11.525
67086W        W35559   6.313  26.507   4.809
67087W        W35560   2.787  10.833   2.245
67088W        W35561  25.974  44.790   0.244
67089W        W35562  13.826  31.136  14.991
67090W        W35563  36.879  14.656   2.327
67091W        W35564   8.358  38.878   3.287
67092W        W35565  44.313  17.741   0.404
67093W        W35566  23.111  24.608   3.264
67094W        W35567  23.518  41.822   3.249
67095W        W35568  21.606  39.996   3.262
67096W        W35569  44.280  34.518   9.998
67097W        W35570   3.417  38.913   2.366
67098W        W35571   6.291  24.228   2.187
67099W        W35572   5.381  16.771  12.439
67100W        W35573  31.488  25.649   1.338
67101W        W35574  39.441   2.227   4.659
67102W        W35575  30.940  19.672   1.345
67103W        W35576  30.653  19.274   0.840
67104W        W35577  31.407  41.463   9.944
67105W        W35578  12.274  22.077   0.478
67106W        W35579  43.807   5.778   1.869
67107W        W35580  44.757  32.101   4.819
67108W        W35581   7.236  43.958   3.306
67109W        W35582  18.655  29.045   1.876
67110W        W35583  34.905  43.925   0.394
67111W        W35584  40.025  18.265   2.706
67112W        W35585  34.053  20.081  12.872
67113W        W35586  14.253   4.723  13.016
67114W        W35587   6.278  16.229  13.394
67115W        W35588  29.103  29.040  11.397
67116W        W35589  40.365  21.574   3.689
67117W        W35590  30.434  18.063   4.607
67118W        W35591  21.575   6.192  11.045
67119W        W35592  10.171  18.080   2.795
67120W        W35593   2.745  22.714  14.774
67121W        W35594  33.131  23.495   3.812
67122W        W35595  44.879  11.145  11.075
67123W        W35596  37.549   7.324   2.663
67124W        W35597  18.124  27.463  11.071
67125W        W35598   6.805  41.525   1.373
67126W        W35599  43.898   1.925  11.394
67127W        W35600  41.976  24.641  10.636
67128W        W35601  29.443  33.882  14.462
67129W        W35602   8.293  31.550   3.271
67130W        W35603   2.369  39.556  14.367
67131W        W35604  29.939   4.750  14.991
67132W        W35605  14.755   7.380  11.972
67133W        W35606  11.711  15.113   0.476
67134W        W35607  36.581  35.399  10.629
67135W        W35608   6.785  43.369  13.998
67136W        W35609  39.990  26.057   1.410
67137W        W35610  31.483  34.888  11.040
67138W        W35611   3.946  11.205  12.918
67139W        W35612   7.909  25.169  11.524
67140W        W35613  18.145   3.450  10.498
67141W        W35614   8.654  27.630  14.956
67142W        W35615   4.930   4.887   1.314
67143W        W35616  13.645  18.222   0.439
67144W        W35617   6.790   5.885  13.943
67145W        W35618  19.565  32.915  10.463
67146W        W35619   2.380  21.186   3.675
67147W        W35620  33.440   1.850   0.791
67148W        W35621  40.983   7.189   0.465
67149W        W35622  17.746   9.874  11.990
67150W        W35623   1.413  36.551  10.934
67151W        W35624  25.025  39.355  11.559
67152W        W35625  44.764  28.504  11.077
67153W        W35626   5.773  18.547   0.259
67154W        W35627  15.702  30.986   2.851
67155W        W35628  29.071  24.050   5.169
67156W        W35629  37.560  35.419  11.959
67157W        W35630   6.792  25.154  12.477
67158W        W35631  24.491  41.950  11.103
67159W        W35632   6.375  13.802  11.900
67160W        W35633  25.552  17.601  11.996
67161W        W35634  42.028  19.080   2.715
67162W        W35635  23.223  28.604   0.469
67163W        W35636  24.227  30.419  14.363
67164W        W35637  25.675  35.969   3.670
67165W        W35638  43.835  11.762   0.838
67166W        W35639  43.306  11.340   2.893
67167W        W35640   3.780  18.274  13.396
67168W        W35641  12.327  41.043   2.795
67169W        W35642  20.671  34.031   3.322
67170W        W35643  14.814  35.090   2.291
67171W        W35644  33.531  27.617  10.926
67172W        W35645  31.466  22.078   0.426
67173W        W35646  24.655  10.198   4.248
67174W        W35647  39.385  42.814  12.952
67175W        W35648   2.437  25.001  12.898
67176W        W35649  43.408  41.962   3.324
67177W        W35650  28.978  33.955   3.243
67178W        W35651  21.680   1.467  14.337
67179W        W35652  13.801  22.552  11.958
67180W        W35653   6.319  41.513  12.960
67181W        W35654   3.909   1.253   0.363
67182W        W35655   9.863  32.937  11.878
67183W        W35656  12.744  19.559  13.512
67184W        W35657  41.308  18.790  11.091
67185W        W35658   5.194   8.805  13.037
67186W        W35659  44.273  34.083   2.855
67187W        W35660  38.406  29.532  14.970
67188W        W35661   8.745  35.423  12.449
67189W        W35662  34.928  38.367   4.655
67190W        W35663   9.279  37.914   1.321
67191W        W35664  27.556  18.565  14.019
67192W        W35665   6.246  16.607   3.361
67193W        W35666  30.607  43.780   0.933
67194W        W35667   5.393  35.955   2.786
67195W        W35668  40.975  37.916   4.349
67196W        W35669  30.080  39.478   4.831
67197W        W35670   6.247  20.165  13.351
67198W        W35671   8.252  39.840   3.271
67199W        W35672  40.854  33.602   3.161
67200W        W35673  16.099   6.751   4.319
67201W        W35674  43.444  31.938  14.823
67202W        W35675  30.032  33.009   1.284
67203W        W35676  24.005  10.800   4.683
67204W        W35677  41.312  26.541   5.168
67205W        W35678  28.567  36.426  13.520
67206W        W35679  41.407  33.478   9.939
67207W        W35680   3.332  39.513   0.881
67208W        W35681   1.735  37.044   2.263
67209W        W35682  43.359  17.655   1.279
67210W        W35683   9.818  32.513  11.966
67211W        W35684  14.748  18.105   0.295
67212W        W35685   6.849  16.222  12.974
67213W        W35686  41.311   5.909   2.242
67214W        W35687  12.208  22.561  14.506
67215W        W35688  33.043  43.912  11.492
67216W        W35689  19.757  26.045  14.887
67217W        W35690  37.921  32.014   1.800
67218W        W35691  14.301   1.899  12.011
67219W        W35692  27.494   5.820  12.878
67220W        W35693  43.968   8.777   3.177
67221W        W35694   0.425  18.201   4.679
67222W        W35695  31.512  34.411  14.446
67223W        W35696  35.961  13.774  13.833
67224W        W35697  13.336   6.226   1.749
67225W        W35698  30.091  25.494   0.884
67226W        W35699   4.309  12.300   4.278
67227W        W35700  21.120  40.977   0.940
67228W        W35701   9.292  17.225  11.487
67229W        W35702  27.098  34.944   3.784
67230W        W35703   1.790  27.519  14.379
67231W        W35704   1.412  21.538  10.913
67232W        W35705  22.243   8.832   4.812
67233W        W35706  37.438   1.768  10.645
67234W        W35707   9.799  14.810   0.454
67235W        W35708   8.864  25.963   1.921
67236W        W35709  36.477   3.822  13.509
67237W        W35710  30.628  27.460  14.497
67238W        W35711  39.501   8.799  14.975
67239W        W35712  24.566   3.241   3.740
67240W        W35713  30.983   7.237   0.828
67241W        W35714  32.921  25.027   0.727
67242W        W35715  32.583  21.614  13.991
67243W        W35716  17.099   9.863   0.845
67244W        W35717  22.191  15.111   0.887
67245W        W35718  26.699   4.794  11.612
67246W        W35719  39.464  36.583   4.755
67247W        W35720   6.722  26.091  13.317
67248W        W35721  44.451  41.400   4.264
67249W        W35722  20.266  17.185   4.219
67250W        W35723  41.802  33.117  11.031
67251W        W35724  22.595  42.509  12.544
67252W        W35725  33.948  27.097   4.751
67253W        W35726  42.931  27.464  12.036
67254W        W35727   9.871  28.998  11.473
67255W        W35728  10.157  12.222  14.965
67256W        W35729  27.177  13.258  12.062
67257W        W35730  30.993  34.946   2.249
67258W        W35731   5.417  30.609  12.991
67259W        W35732  14.635  37.080   0.345
67260W        W35733   9.395  36.915   4.600
67261W        W35734  21.108   9.857  13.442
67262W        W35735  23.168   8.344  10.456
67263W        W35736  27.620  15.173   1.698
67264W        W35737  20.621  27.563   0.801
67265W        W35738  28.597  38.528  13.893
67266W        W35739   4.373  36.554  11.029
67267W        W35740  27.153   5.219   2.292
67268W        W35741   0.796   2.335   0.948
67269W        W35742  32.453   1.293  11.092
67270W        W35743  43.515   9.685  12.077
67271W        W35744  24.174  31.517   1.719
67272W        W35745  21.185  36.881   4.751
67273W        W35746  30.534  18.786   1.256
67274W        W35747  40.516   0.780   3.197
67275W        W35748   5.246   6.413   4.172
67276W        W35749  21.731  15.601  12.959
67277W        W35750  28.627   5.907  11.855
67278W        W35751   6.404  44.262   0.377
67279W        W35752   6.390  23.670   4.232
67280W        W35753  17.297  10.804  12.992
67281W        W35754  36.844   6.279  13.310
67282W        W35755  21.077  43.511  11.440
67283W        W35756  25.184  43.960   2.730
67284W        W35757  28.511   3.399  13.057
67285W        W35758   4.267   0.985  10.966
67286W        W35759  40.995  30.453  12.936
67287W        W35760  36.954   3.799  12.386
67288W        W35761   7.180  29.472  14.298
67289W        W35762  37.008   8.679  13.338
67290W        W35763  33.085  33.595  11.613
67291W        W35764  32.611   5.383  12.040
67292W        W35765  28.521   5.316  14.341
67293W        W35766  10.232  25.707  12.906
67294W        W35767  38.845  17.074  10.418
67295W        W35768   2.364  19.272   3.384
67296W        W35769  23.090   4.773   4.682
67297W        W35770  37.905   0.286  14.763
67298W        W35771  17.197  21.019  14.328
67299W        W35772  16.145  37.364   9.504
67300W        W35773  20.115   7.289  13.911
67301W        W35774  21.526  37.574  12.515
67302W        W35775  40.535  39.334  11.553
67303W        W35776  29.089  35.012   0.889
67304W        W35777  18.115  15.789  12.076
67305W        W35778  16.262  19.132   0.464
67306W        W35779  13.171   3.792  12.932
67307W        W35780   7.208  20.265  12.412
67308W        W35781  35.429  38.828   3.759
67309W        W35782   5.905  28.442  10.548
67310W        W35783  11.750  25.979   0.375
67311W        W35784   2.229  41.483   2.823
67312W        W35785  13.263  14.303  13.453
67313W        W35786  41.864   9.848  13.422
67314W        W35787  35.094   8.878   4.186
67315W        W35788   0.247  25.512   0.874
67316W        W35789  17.563  11.251   0.936
67317W        W35790  39.352  25.554   2.855
67318W        W35791  31.472   6.903  13.028
67319W        W35792   0.340  36.093   1.722
67320W        W35793   8.699  19.132  11.120
67321W        W35794  13.810  37.907  10.464
67322W        W35795   4.415   5.797   4.303
67323W        W35796   6.729   4.867   1.741
67324W        W35797  12.761  43.801   4.714
67325W        W35798   2.897   7.238   3.815
67326W        W35799  25.516   8.783   2.223
67327W        W35800  25.973   8.183   2.761
67328W        W35801  25.667  26.136  13.959
67329W        W35802  15.210  16.098  14.920
67330W        W35803   5.775  10.702  12.519
67331W        W35804  23.659   1.762   1.328
67332W        W35805  32.595  35.061  12.459
67333W        W35806  27.031  20.095  10.578
67334W        W35807  14.731  41.994   1.279
67335W        W35808  24.626  25.099   1.259
67336W        W35809  17.578   8.359   0.900
67337W        W35810   9.776   1.457  11.473
67338W        W35811   7.287   6.676  12.988
67339W        W35812  16.131  22.536   3.387
67340W        W35813   0.898  42.007   2.272
67341W        W35814  15.294  31.470   2.842
67342W        W35815  31.056  18.079   1.871
67343W        W35816  42.384  14.111  12.024
67344W        W35817  30.160   2.404   4.141
67345W        W35818  31.134  30.115  14.997
67346W        W35819  19.153  36.418  11.862
67347W        W35820   0.268  26.180   3.258
67348W        W35821  27.611   9.335  11.495
67349W        W35822  33.015   3.429  12.367
67350W        W35823  31.142  37.903  11.388
67351W        W35824  30.505  23.501  13.522
67352W        W35825  40.862   8.773   9.928
67353W        W35826  20.735  13.789  14.392
67354W        W35827  43.466  41.947   0.387
67355W        W35828  13.199   4.424  12.011
67356W        W35829  34.892  23.220  14.798
67357W        W35830  39.357  25.552  13.400
67358W        W35831   9.182  23.089   1.438
67359W        W35832  30.558  16.156   4.724
67360W        W35833  19.569  18.073  14.002
67361W        W35834  36.047  13.331   3.312
67362W        W35835  28.556  39.970   2.699
67363W        W35836  24.030  12.341  13.901
67364W        W35837  11.288   3.344   0.431
67365W        W35838  25.034   1.766   0.336
67366W        W35839  16.635  32.405  14.804
67367W        W35840  17.114  38.527   3.787
67368W        W35841  37.079  37.376  13.324
67369W        W35842   0.440  26.961  10.588
67370W        W35843  24.985   6.857  14.867
67371W        W35844  39.348  34.481  14.953
67372W        W35845  11.169   1.871   2.852
67373W        W35846  26.171   0.294   1.774
67374W        W35847  40.967   2.873  11.547
67375W        W35848   4.393   9.191  14.395
67376W        W35849   9.793  40.332   1.333
67377W        W35850  10.221  25.208   3.205
67378W        W35851  10.193  26.514  13.419
67379W        W35852  41.869  34.932   4.176
67380W        W35853  11.359  23.174   3.295
67381W        W35854  10.755   3.344   5.207
67382W        W35855  27.940  39.534  12.944
67383W        W35856  35.583  20.229  14.990
67384W        W35857  24.202  24.163  11.089
67385W        W35858  21.211  37.863  12.862
67386W        W35859  23.702   2.856   1.210
67387W        W35860  39.507  25.587   1.862
67388W        W35861  22.672  33.965   3.834
67389W        W35862  19.675  36.845  14.918
67390W        W35863   7.822  16.127  14.472
67391W        W35864  35.367  14.600   4.688
67392W        W35865   7.714  25.087   1.740
67393W        W35866  11.158  11.254  13.536
67394W        W35867   3.804  32.455  13.880
67395W        W35868  44.404  28.169  14.015
67396W        W35869  43.936  43.285  12.398
67397W        W35870  10.239  23.642   3.268
67398W        W35871   2.729  15.265   0.365
67399W        W35872  10.735  20.219  10.971
67400W        W35873   3.783  29.111   0.459
67401W        W35874  32.392   5.767  14.803
67402W        W35875  33.960  10.681   3.179
67403W        W35876  15.091  15.805   3.290
67404W        W35877  42.287   5.375   4.122
67405W        W35878  16.772  15.279  11.466
67406W        W35879  14.115  33.440   0.737
67407W        W35880   9.271  10.856  12.538
67408W        W35881  32.529   9.148  11.019
67409W        W35882  42.399  39.517  13.324
67410W        W35883  32.001   7.200   2.875
67411W        W35884  39.029  40.438  12.461
67412W        W35885  25.007  23.066  11.022
67413W        W35886  27.991  37.575  11.037
67414W        W35887   5.832  13.600   0.761
67415W        W35888  41.018  27.559   4.827
67416W        W35889  14.820   0.457  13.446
67417W        W35890  25.202  36.512   2.326
67418W        W35891  27.006  44.818  14.767
67419W        W35892  15.677  26.528   2.336
67420W        W35893  14.319  43.276  13.850
67421W        W35894  27.940  33.471  13.019
67422W        W35895  23.020  39.844  11.552
67423W        W35896  39.822   1.863   2.676
67424W        W35897  34.378  11.776   0.447
67425W        W35898  36.888  15.634   1.882
67426W        W35899  10.179  43.999   4.831
67427W        W35900  37.027  24.643   0.351
67428W        W35901  10.803  35.436  13.388
67429W        W35902  11.642  13.802   1.804
67430W        W35903  21.251  27.070  11.517
67431W        W35904  41.003  24.619   4.339
67432W        W35905   5.220  17.073  10.471
67433W        W35906  32.400  11.343  11.520
67434W        W35907  24.601  28.034   2.242
67435W        W35908  36.849  35.104  10.469
67436W        W35909  26.589  38.540   3.274
67437W        W35910  20.565  14.111  11.456
67438W        W35911  33.956  16.587   2.277
67439W        W35912  24.629  44.411   0.248
67440W        W35913  22.563  44.288  12.517
67441W        W35914  35.568  38.942   1.794
67442W        W35915   4.906  44.435   5.260
67443W        W35916   7.287  44.850   0.447
67444W        W35917  12.795  18.577   4.341
67445W        W35918  14.315   5.348   1.723
67446W        W35919   6.923  14.769   0.272
67447W        W35920  34.089   7.894   3.271
67448W        W35921  17.722  39.955  11.938
67449W        W35922  27.080  34.412   3.174
67450W        W35923   3.372  15.133  11.441
67451W        W35924  23.543  10.291   4.342
67452W        W35925  24.590  37.958  13.410
67453W        W35926  20.048   0.459   3.795
67454W        W35927  37.943   8.337   0.254
67455W        W35928  41.490  20.556  11.909
67456W        W35929  13.116   9.317  12.921
67457W        W35930   3.275   1.937  12.494
67458W        W35931  41.969  38.386  10.990
67459W        W35932   5.859  17.697  11.943
67460W        W35933  17.233   4.380  14.423
67461W        W35934  44.971  23.612   4.622
67462W        W35935  38.865   3.416  10.434
67463W        W35936  15.316  22.603   3.791
67464W        W35937  12.814  40.458   4.156
67465W        W35938  13.163  36.016   3.367
67466W        W35939  30.103  25.988   5.631
67467W        W35940  37.003   5.236   2.681
67468W        W35941  26.527  22.633  11.008
67469W        W35942  44.405   2.966   4.320
67470W        W35943  20.532  41.991  10.613
67471W        W35944  42.919  28.445  10.981
67472W        W35945  27.068  43.515   4.226
67473W        W35946  44.849  18.587   0.754
67474W        W35947  14.710  11.693   2.293
67475W        W35948   7.200  14.609   2.885
67476W        W35949  20.618  36.985  12.941
67477W        W35950   6.849  32.948   0.799
67478W        W35951  13.752  17.611  14.815
67479W        W35952  18.214  37.566   0.383
67480W        W35953  13.651   8.771  13.842
67481W        W35954  29.595  13.349  12.918
67482W        W35955  32.421   8.787  14.308
67483W        W35956  22.637  39.019  11.462
67484W        W35957  11.143  29.012  10.427
67485W        W35958  25.052  28.089   1.880
67486W        W35959  44.386  28.960  10.112
67487W        W35960   4.716  23.234  13.856
67488W        W35961  37.874  41.997  10.905
67489W        W35962  30.464  28.543   2.336
67490W        W35963  21.260   2.863  14.303
67491W        W35964  28.542  22.687  10.054
67492W        W35965  33.388  19.112  10.629
67493W        W35966  16.685  23.726  13.973
67494W        W35967  16.189  30.482  10.587
67495W        W35968  35.021  23.586   0.281
67496W        W35969  34.037   3.265   2.863
67497W        W35970  10.171   7.381   2.413
67498W        W35971  10.287  38.862  12.578
67499W        W35972   1.947  11.721  13.063
67500W        W35973  12.696  34.100   3.227
67501W        W35974  10.284  28.104  14.762
67502W        W35975  14.187  37.072   0.802
67503W        W35976  17.749  43.378  10.894
67504W        W35977  37.881  18.126   4.641
67505W        W35978  43.377   1.289  14.983
67506W        W35979  22.745  14.669   1.718
67507W        W35980  43.828  26.639   0.453
67508W        W35981  36.922   4.294   4.217
67509W        W35982   2.406   7.319   1.416
67510W        W35983  22.241  26.117   0.467
67511W        W35984  34.903  24.535   4.275
67512W        W35985  10.878   0.754   4.610
67513W        W35986  22.065  20.046  14.820
67514W        W35987  25.048  40.800  10.580
67515W        W35988  22.209   3.319   3.341
67516W        W35989   7.764  42.028  13.043
67517W        W35990   8.794  10.308   1.699
67518W        W35991   6.704  17.180   4.163
67519W        W35992   9.185  13.675   3.289
67520W        W35993  43.993   8.835  13.852
67521W        W35994   3.421  44.913   2.812
67522W        W35995   6.291  28.028  11.061
67523W        W35996   2.929  15.696  10.568
67524W        W35997  28.074   7.323  10.039
67525W        W35998  38.569   1.323   3.799
67526W        W35999  14.236  43.859   2.791
67527W        W36000  28.565  20.767  12.944
67528W        W36001  24.642  12.180   3.721
67529W        W36002  24.554  37.884  14.912
67530W        W36003   8.725  37.544  10.120
67531W        W36004  25.121  18.220   0.453
67532W        W36005  14.703  21.083  13.464
67533W        W36006  38.998  34.560  10.061
67534W        W36007  22.544  28.646   5.099
67535W        W36008   2.415  28.658  12.980
67536W        W36009   1.393  22.175   1.721
67537W        W36010  30.110  10.687   1.764
67538W        W36011  42.426   3.250  10.925
67539W        W36012  16.133  25.034   3.738
67540W        W36013  32.631  43.448  14.503
67541W        W36014  32.984  43.767  13.869
67542W        W36015  43.803  23.152   1.914
67543W        W36016  37.543  44.777   2.798
67544W        W36017  41.522  27.033  14.921
67545W        W36018   4.817  37.832  11.033
67546W        W36019  28.619  33.098   4.599
67547W        W36020  27.481   4.304   0.936
67548W        W36021  25.619  26.157   3.197
67549W        W36022  23.136   7.900   0.350
67550W        W36023  23.521  10.273   2.728
67551W        W36024  32.951  25.676  12.558
67552W        W36025  35.459  13.811   1.812
67553W        W36026  35.988  32.424   2.397
67554W        W36027  30.136  41.896   0.452
67555W        W36028  39.331  28.557  10.987
67556W        W36029  21.164  29.134  14.291
67557W        W36030   2.274  38.344  14.420
67558W        W36031  39.842  36.042   1.935
67559W        W36032  19.210   6.839   0.266
67560W        W36033  21.663  22.120  10.545
67561W        W36034  10.224  11.296   3.366
67562W        W36035   2.312  31.626  13.055
67563W        W36036  14.197  40.529   3.265
67564W        W36037   3.237  24.978   9.939
67565W        W36038  18.264  28.500  12.521
67566W        W36039  31.503  29.496   3.280
67567W        W36040  38.447   0.899   0.757
67568W        W36041  25.692   5.422   1.398
67569W        W36042   0.743  32.999   0.394
67570W        W36043   9.361  22.163  14.868
67571W        W36044  24.575  27.610   3.808
67572W        W36045  13.845   7.883  12.477
67573W        W36046  20.170  31.098   0.899
67574W        W36047  25.695  42.494  10.947
67575W        W36048  43.898   0.812  13.062
67576W        W36049   3.940   5.239   1.694
67577W        W36050  31.024  23.499   3.834
67578W        W36051   7.366  29.598   3.184
67579W        W36052  10.728  12.688  12.929
67580W        W36053  42.424  42.971  10.423
67581W        W36054  31.557  44.443   0.820
67582W        W36055  18.696  21.131  11.473
67583W        W36056  42.445  38.924  14.972
67584W        W36057   1.892  28.671   4.181
67585W        W36058   3.891  40.328   1.720
67586W        W36059  30.963  25.986   1.227
67587W        W36060   1.859  42.928  14.766
67588W        W36061  28.026   2.783   0.824
67589W        W36062  14.778   8.166   0.726
67590W        W36063  31.021   5.710   2.695
67591W        W36064  42.424  10.741  14.932
67592W        W36065  11.801  15.163   2.820
67593W        W36066   5.373  12.132   3.841
67594W        W36067   6.361  24.181   5.272
67595W        W36068  10.282   5.767  11.575
67596W        W36069  23.992   2.471  14.299
67597W        W36070   2.839  38.047   2.202
67598W        W36071  21.113  12.769   0.931
67599W        W36072  35.884  41.975   3.189
67600W        W36073  12.323  26.617   4.292
67601W        W36074  14.668  37.517  10.485
67602W        W36075  16.247   8.773   3.714
67603W        W36076   3.900  37.900   4.700
67604W        W36077  17.597  24.059   4.791
67605W        W36078  37.532   6.417  12.847
67606W        W36079  32.545  31.431  13.823
67607W        W36080  18.057   6.898   1.240
67608W        W36081  18.240  31.059  13.884
67609W        W36082   3.264  38.977   4.135
67610W        W36083  22.091  30.569  11.045
67611W        W36084  16.184  33.556  13.419
67612W        W36085  14.096  16.154  14.797
67613W        W36086  37.839  10.769  13.433
67614W        W36087   5.870  37.902   2.179
67615W        W36088  22.531  10.284   4.671
67616W        W36089  23.528   9.690   4.141
67617W        W36090  20.643  41.500   1.914
67618W        W36091  39.978  11.128  13.947
67619W        W36092  23.241   6.915  12.938
67620W        W36093  21.167  14.620   9.449
67621W        W36094  41.363   3.357   1.311
67622W        W36095  18.586  29.602   3.234
67623W        W36096  14.111  16.807  11.923
67624W        W36097  39.490  41.991   4.814
67625W        W36098   5.435  38.961  10.931
67626W        W36099   8.755  26.501  11.441
67627W        W36100  40.546   3.793   1.337
67628W        W36101  42.525  44.940  10.613
67629W        W36102  13.178  20.112   4.771
67630W        W36103   5.736   9.394  13.437
67631W        W36104  44.832  39.399  12.842
67632W        W36105  42.011  30.487  12.938
67633W        W36106  28.031  44.287  11.446
67634W        W36107  43.302  12.318   3.868
67635W        W36108  39.987  10.730  12.358
67636W        W36109  42.522  29.443  11.888
67637W        W36110  41.414  44.447  14.336
67638W        W36111  15.788   4.210   3.381
67639W        W36112   8.179  31.413   4.197
67640W        W36113   3.406  26.566   0.416
67641W        W36114  14.661   2.739  13.985
67642W        W36115   6.871  22.997  12.395
67643W        W36116  24.615   1.467   1.807
67644W        W36117  20.177  12.310  12.938
67645W        W36118  42.310   2.746  12.996
67646W        W36119  26.623  44.887   3.768
67647W        W36120  38.359  11.859   2.866
67648W        W36121   9.292  27.976   0.928
67649W        W36122  41.348   3.362   2.182
67650W        W36123  19.099  29.461   0.466
67651W        W36124  40.806   3.335   1.303
67652W        W36125  17.246   8.698  12.911
67653W        W36126  27.162  41.832  14.484
67654W        W36127  40.859  32.893   1.712
67655W        W36128  34.391  27.070  14.908
67656W        W36129   6.330  27.522  10.506
67657W        W36130  17.169   6.888   0.763
67658W        W36131   8.757  15.810  13.508
67659W        W36132  18.088  29.648  12.012
67660W        W36133  10.740  27.177  14.276
67661W        W36134   8.229  39.065  12.343
67662W        W36135  20.671  15.247  14.465
67663W        W36136  24.658  10.876   3.703
67664W        W36137  14.812  18.270  14.776
67665W        W36138  32.073   6.302   1.409
67666W        W36139  37.011   6.866  10.520
67667W        W36140   1.290   3.394   0.853
67668W        W36141  44.816  43.841   3.795
67669W        W36142   9.326   4.331   2.813
67670W        W36143  14.625  17.084   0.443
67671W        W36144  36.454  32.630   1.368
67672W        W36145  40.016  38.051  11.052
67673W        W36146   5.357  43.910   4.186
67674W        W36147  38.026  16.754  14.872
67675W        W36148  34.963   0.457   4.825
67676W        W36149  31.979  37.886  12.017
67677W        W36150   5.779  39.027   2.835
67678W        W36151  33.559   1.319   1.229
67679W        W36152  15.248  27.591   1.742
67680W        W36153  41.849   2.316   2.869
67681W        W36154   8.314  43.285  10.453
67682W        W36155   3.745   9.256  12.392
67683W        W36156  17.785  16.160  13.863
67684W        W36157  17.694   4.231  13.868
67685W        W36158  24.986  25.160   2.713
67686W        W36159  37.040  35.489   3.290
67687W        W36160  32.542  44.397  10.149
67688W        W36161   2.758  10.228  13.890
67689W        W36162  32.141  14.688   1.249
67690W        W36163  22.738   3.225  14.968
67691W        W36164  14.771  20.705  11.071
67692W        W36165  24.674  35.391   2.244
67693W        W36166  19.195  37.488   3.266
67694W        W36167   1.924  33.117  11.009
67695W        W36168  41.424   4.242  12.988
67696W        W36169  25.099   6.363  14.468
67697W        W36170  13.225  27.586   4.253
67698W        W36171  18.093  32.569  12.377
67699W        W36172  18.617  11.168   4.820
67700W        W36173   0.353  19.778  10.890
67701W        W36174  11.675  13.319  11.127
67702W        W36175  30.028  30.099   0.953
67703W        W36176  30.657   4.296  11.592
67704W        W36177  20.151   8.401  14.515
67705W        W36178  29.093  13.795   1.798
67706W        W36179  29.484   7.709   2.356
67707W        W36180  14.808  26.197   3.771
67708W        W36181   0.353  11.137   3.694
67709W        W36182  40.844   2.726   4.299
67710W        W36183  22.691  41.393   3.748
67711W        W36184   1.782  30.090  14.796
67712W        W36185  43.436   5.261   0.939
67713W        W36186  14.622  27.516   2.901
67714W        W36187   2.753  42.883   2.338
67715W        W36188  27.943  40.876  11.897
67716W        W36189  42.343  40.920   3.778
67717W        W36190   6.364  29.934  14.371
67718W        W36191  16.769  27.487   2.881
67719W        W36192  35.010   7.857  13.458
67720W        W36193  43.882   7.807  13.443
67721W        W36194  43.411  24.540   1.788
67722W        W36195  44.952  38.042  14.020
67723W        W36196  29.068  18.275  13.010
67724W        W36197  11.131  29.156  13.881
67725W        W36198  15.289  10.267   3.667
67726W        W36199  37.474   1.406  10.901
67727W        W36200  26.006  33.994   3.341
67728W        W36201  32.919  36.041   0.251
67729W        W36202  27.602  36.876  14.475
67730W        W36203  29.445  22.655   3.302
67731W        W36204  29.039   5.266  13.354
67732W        W36205  26.027   7.172   3.166
67733W        W36206   4.246  37.946  12.425
67734W        W36207   1.270  14.706   2.342
67735W        W36208  42.812  36.573   3.364
67736W        W36209  14.218  24.087   3.816
67737W        W36210   6.288  17.117  12.536
67738W        W36211  28.111  23.563  14.449
67739W        W36212  18.750  14.665  14.792
67740W        W36213  31.903  22.625   3.319
67741W        W36214  42.428   1.254   0.880
67742W        W36215   3.237  13.141   2.860
67743W        W36216  33.008   8.327   1.896
67744W        W36217  40.350  38.028  13.918
67745W        W36218   5.843  43.382  12.563
67746W        W36219  14.337  38.379   9.996
67747W        W36220  22.103  23.025   3.240
67748W        W36221   2.250  34.935   1.716
67749W        W36222  32.005  43.494   2.183
67750W        W36223  44.305  23.223   2.806
67751W        W36224  43.899  16.216  13.011
67752W        W36225  13.742  42.468   3.173
67753W        W36226  27.673  17.175  12.093
67754W        W36227  25.658  38.422   2.799
67755W        W36228  38.324  17.639   2.678
67756W        W36229  21.173  31.638  11.431
67757W        W36230  23.143  33.019   0.871
67758W        W36231  16.255  34.470   3.797
67759W        W36232  26.488  32.954   1.346
67760W        W36233  43.766  26.967  12.074
67761W        W36234  43.290  19.134   2.280
67762W        W36235   2.279  32.023  13.338
67763W        W36236  24.672  21.634   0.758
67764W        W36237   4.718  25.127  12.897
67765W        W36238  36.919  23.563  12.828
67766W        W36239  37.954  10.868  12.039
67767W        W36240  16.587  21.100  14.762
67768W        W36241  24.222  37.461  14.441
67769W        W36242  19.166  35.591  10.520
67770W        W36243  10.220   7.350   4.267
67771W        W36244   8.796  32.572  14.813
67772W        W36245  16.105  38.392   3.846
67773W        W36246  37.518  24.620  12.018
67774W        W36247  27.988  44.766  10.446
67775W        W36248   3.938   9.279  10.432
67776W        W36249   2.238   0.491   0.276
67777W        W36250  39.966  16.128   1.698
67778W        W36251  25.963  30.023   3.359
67779W        W36252  18.221  27.051  14.962
67780W        W36253  44.821  24.079   3.172
67781W        W36254   8.705  37.425  13.898
67782W        W36255  10.323  15.778  10.573
67783W        W36256  30.025  39.542   4.163
67784W        W36257   5.827  43.385   4.657
67785W        W36258   8.246  26.645  11.895
67786W        W36259  33.426  41.819  11.459
67787W        W36260   8.210  36.930   3.264
67788W        W36261   5.316  14.613   0.361
67789W        W36262  37.924  25.591  14.028
67790W        W36263  43.277  40.501   1.281
67791W        W36264  23.549  43.015  13.037
67792W        W36265  22.213  39.888  13.406
67793W        W36266  13.115  16.307  14.953
67794W        W36267  38.825  22.526   4.304
67795W        W36268  11.747   5.875   2.707
67796W        W36269  33.545  34.104  14.931
67797W        W36270  32.943  28.139  14.315
67798W        W36271   1.737  29.535   4.698
67799W        W36272  29.639   3.946  13.357
67800W        W36273  41.829  13.825   4.712
67801W        W36274  29.935   4.913   0.320
67802W        W36275  26.027  25.973   2.307
67803W        W36276  30.427  27.031   9.927
67804W        W36277  20.273  10.324   9.989
67805W        W36278  21.736  31.618  10.996
67806W        W36279  41.793  34.021   0.794
67807W        W36280  42.859  22.537  14.368
67808W        W36281  17.127  20.586   4.165
67809W        W36282  37.459  23.691   1.783
67810W        W36283  12.631  20.576  11.413
67811W        W36284  37.887   4.903  14.348
67812W        W36285  16.083   4.373   0.924
67813W        W36286  16.753   6.185   4.267
67814W        W36287   9.690   8.362  14.795
67815W        W36288  19.172  10.250   0.831
67816W        W36289   2.935  17.169  14.458
67817W        W36290  17.717  20.746   2.741
67818W        W36291  20.044  43.923  11.403
67819W        W36292  20.602  24.683  13.343
67820W        W36293  43.452   6.398  14.987
67821W        W36294  39.933   9.219  10.487
67822W        W36295  36.066   1.796  13.351
67823W        W36296  24.598  37.022  11.433
67824W        W36297  33.981  41.492  12.447
67825W        W36298  40.403  35.971   2.208
67826W        W36299   3.430  33.521   0.919
67827W        W36300  16.160  26.174   4.660
67828W        W36301   3.302  12.619  11.023
67829W        W36302   7.773  19.664  10.504
67830W        W36303  31.060  18.289   0.747
67831W        W36304  31.994  18.783   4.656
67832W        W36305   9.262  25.555  12.888
67833W        W36306  38.445  37.448   1.718
67834W        W36307  34.881  26.629   4.145
67835W        W36308  27.595   3.947  12.057
67836W        W36309  19.597  11.203  10.961
67837W        W36310   7.671  12.131   4.813
67838W        W36311  34.571   1.864   0.273
67839W        W36312   8.822   1.262   4.330
67840W        W36313  30.561  11.153   1.817
67841W        W36314  44.409  42.995  11.053
67842W        W36315   8.181   0.395   0.952
67843W        W36316   6.410   4.307   3.747
67844W        W36317  29.116   8.189  12.070
67845W        W36318  37.468   8.805  14.950
67846W        W36319  24.086  11.210  13.336
67847W        W36320  44.439   8.340   1.743
67848W        W36321  39.551  17.614   1.793
67849W        W36322  10.859  28.673   1.825
67850W        W36323  44.005  13.282   1.281
67851W        W36324  27.135  13.644   0.787
67852W        W36325  26.528  28.180   4.633
67853W        W36326  31.528  21.635   3.243
67854W        W36327   4.412  39.988   4.291
67855W        W36328  37.439   3.907   2.320
67856W        W36329   2.734  44.978  12.340
67857W        W36330  44.758  39.871   1.926
67858W        W36331  19.710  36.519   1.424
67859W        W36332  18.558  22.137   0.377
67860W        W36333  25.016  35.852  13.364
67861W        W36334  28.611  13.749  14.514
67862W        W36335  18.690  39.516   3.811
67863W        W36336  36.468   7.822  11.376
67864W        W36337   4.707  21.065   2.889
67865W        W36338  11.357  20.229  10.931
67866W        W36339   8.678   8.715  14.384
67867W        W36340  20.273   7.402  14.399
67868W        W36341  21.708  33.108  11.904
67869W        W36342  27.586  21.068  10.559
67870W        W36343  30.924  39.514  11.511
67871W        W36344  18.737  32.990  12.079
67872W        W36345  21.241  40.968   3.801
67873W        W36346  38.849  19.232  13.964
67874W        W36347   9.681  27.090   2.864
67875W        W36348  44.460  20.689  13.367
67876W        W36349  15.163  14.726   4.633
67877W        W36350  26.018  31.495   0.280
67878W        W36351  35.075  44.959   0.736
67879W        W36352   8.283  32.048  14.820
67880W        W36353  38.907  37.397   1.841
67881W        W36354  37.946  44.433   2.792
67882W        W36355  16.731  41.853   0.955
67883W        W36356  38.538  18.769   4.117
67884W        W36357  27.029   4.284  14.803
67885W        W36358  33.509  11.841  13.501
67886W        W36359  36.398  14.723  11.557
67887W        W36360  19.746  16.275   0.813
67888W        W36361  19.273  41.296   1.243
67889W        W36362  17.568  17.681  11.577
67890W        W36363  26.205  20.125  12.078
67891W        W36364   5.774  36.955   2.414
67892W        W36365  37.421   3.756   3.772
67893W        W36366  41.309  34.000  10.435
67894W        W36367  17.797  23.670   4.333
67895W        W36368   3.368  35.998   3.742
67896W        W36369  42.294  16.641  12.419
67897W        W36370  20.548   4.886   4.647
67898W        W36371  30.441  18.662  10.446
67899W        W36372  11.212   4.221  14.985
67900W        W36373  19.183  44.859  12.853
67901W        W36374  16.793   0.490  11.001
67902W        W36375   6.858  19.682   2.361
67903W        W36376  22.725  26.960   2.881
67904W        W36377  32.417  30.416  11.488
67905W        W36378  43.958  21.536  13.392
67906W        W36379   0.457  24.037   0.392
67907W        W36380  36.358  12.147  10.964
67908W        W36381  36.845  37.037  12.940
67909W        W36382  44.336   6.315   1.351
67910W        W36383  20.029  24.147  11.969
67911W        W36384  42.999  33.876   2.737
67912W        W36385  27.686  40.490  12.829
67913W        W36386  15.237  14.232   3.150
67914W        W36387  25.171  26.007   1.870
67915W        W36388  17.199   5.899   2.804
67916W        W36389  43.962  36.034   2.901
67917W        W36390  18.664   5.904   4.207
67918W        W36391  19.548   5.699  12.474
67919W        W36392  22.552  17.709  14.784
67920W        W36393  23.010  28.071   2.293
67921W        W36394  32.552  44.887   3.265
67922W        W36395  10.648  28.516  11.025
67923W        W36396  29.049   6.747  11.395
67924W        W36397   7.207  15.166  14.855
67925W        W36398  14.647   6.403   4.668
67926W        W36399  20.053  21.225  14.022
67927W        W36400  41.354  25.610   4.208
67928W        W36401  20.260   0.438  10.062
67929W        W36402  19.559  37.086  12.998
67930W        W36403  14.208  40.881   1.398
67931W        W36404  35.529   8.768   4.723
67932W        W36405  40.848  34.998   1.309
67933W        W36406  10.281   4.204  12.474
67934W        W36407  28.027  28.534   3.322
67935W        W36408  11.635   6.416  12.845
67936W        W36409  14.095  15.748   2.214
67937W        W36410  44.324  37.042   4.694
67938W        W36411  27.605  22.110  14.889
67939W        W36412   9.255  24.014   1.315
67940W        W36413  33.908  40.903  12.407
67941W        W36414  38.447  34.102   2.807
67942W        W36415  24.490  20.710  14.428
67943W        W36416   7.866   1.763   2.685
67944W        W36417  14.265  15.660  13.985
67945W        W36418  18.228  39.836   4.721
67946W        W36419  30.935   4.386   3.845
67947W        W36420  17.173  25.657   0.901
67948W        W36421  35.070  23.593   2.349
67949W        W36422  12.248  19.183   3.673
67950W        W36423  27.686   8.232   0.863
67951W        W36424  28.012  30.458   2.277
67952W        W36425  16.130   1.823   0.744
67953W        W36426  24.188  39.540   3.269
67954W        W36427  42.485  30.956   0.740
67955W        W36428   4.738  26.536   2.391
67956W        W36429   1.418  43.500   2.327
67957W        W36430  19.063  44.489   3.224
67958W        W36431   7.298  14.316  14.376
67959W        W36432  29.043  26.957  11.540
67960W        W36433   4.830   7.344   3.220
67961W        W36434  25.565  35.066   2.275
67962W        W36435   5.290   4.894  12.568
67963W        W36436  11.851  22.104   1.704
67964W        W36437   3.733  19.605   4.615
67965W        W36438  21.132   4.740  13.993
67966W        W36439  27.589   9.676   3.738
67967W        W36440   2.807  22.238   1.217
67968W        W36441  28.971  33.406   2.183
67969W        W36442  30.143  21.209   0.926
67970W        W36443  10.212  11.153  10.031
67971W        W36444  14.227  16.645  13.410
67972W        W36445  12.719  28.939   4.254
67973W        W36446  11.253  18.678   0.480
67974W        W36447   3.861   9.819  13.993
67975W        W36448   8.737  30.644  14.403
67976W        W36449   0.783  30.648  14.828
67977W        W36450  14.620   5.235  13.866
67978W        W36451  34.095  14.829   4.690
67979W        W36452  21.044  25.649   9.574
67980W        W36453  43.797   6.191   4.757
67981W        W36454  41.840  14.738   4.729
67982W        W36455  37.429  36.550  11.888
67983W        W36456  20.645  19.125   3.816
67984W        W36457  17.609  17.231   1.821
67985W        W36458  35.411  11.216   2.396
67986W        W36459  27.048  30.917   3.321
67987W        W36460   7.236  16.141  14.854
67988W        W36461  40.396  13.225  14.362
67989W        W36462  20.090  13.681   2.299
67990W        W36463  19.139  24.484  13.318
67991W        W36464  32.040   1.792   4.236
67992W        W36465  42.994   5.423   3.223
67993W        W36466   9.667   5.308   4.817
67994W        W36467   7.684   5.741   0.256
67995W        W36468   3.309  36.911  14.354
67996W        W36469  10.789  23.149  14.350
67997W        W36470  43.998   4.846   0.346
67998W        W36471  19.071  30.543   3.289
67999W        W36472  18.154   6.183   4.743
68000W        W36473  22.212  26.500  10.949
68001W        W36474  43.269   1.838  14.915
68002W        W36475  22.028  37.846   2.710
68003W        W36476  26.105  43.897   2.244
68004W        W36477   8.171  36.425  11.070
68005W        W36478  21.512  35.385   3.709
68006W        W36479   9.378  37.025   2.193
68007W        W36480   7.245   6.781  11.407
68008W        W36481  36.895   6.298  11.563
68009W        W36482  40.875   9.251   3.373
68010W        W36483  24.145  25.536   0.829
68011W        W36484  11.768   1.806   2.188
68012W        W36485  12.834   8.396  11.561
68013W        W36486  14.735  12.262  10.497
68014W        W36487   8.833  10.209   2.765
68015W        W36488  27.538  25.678  14.791
68016W        W36489  17.674  37.893   5.765
68017W        W36490  29.940  14.614  10.589
68018W        W36491  16.772  36.550  13.506
68019W        W36492  37.465   8.865   3.288
68020W        W36493  18.652  33.060  13.308
68021W        W36494   5.356  13.337   0.285
68022W        W36495  27.573   3.770   2.277
68023W        W36496   0.294   0.349  11.402
68024W        W36497   3.438  13.802  12.530
68025W        W36498   4.838  36.549   3.357
68026W        W36499  20.256  10.207   0.413
68027W        W36500  43.349  30.944  14.876
68028W        W36501  41.000   2.936  12.926
68029W        W36502  33.906   7.892   3.714
68030W        W36503  37.422  38.386   0.728
68031W        W36504   5.865   5.392  13.416
68032W        W36505  27.658  15.137  10.432
68033W        W36506   6.221  39.848   3.367
68034W        W36507  40.372  10.179  12.081
68035W        W36508   1.305  33.080   0.832
68036W        W36509  25.591   4.746   2.796
68037W        W36510   8.401  31.926   4.820
68038W        W36511   4.306  17.104  12.085
68039W        W36512   9.170  24.577   1.711
68040W        W36513  18.754  34.034   0.770
68041W        W36514  30.142   1.373  11.533
68042W        W36515  17.582  33.506  14.758
68043W        W36516  24.989  31.088  12.367
68044W        W36517  34.096  40.453   0.445
68045W        W36518   6.398  40.823   0.731
68046W        W36519  28.105  41.320  14.512
68047W        W36520   6.361   5.716   5.199
68048W        W36521  30.466  35.473   4.651
68049W        W36522  38.514   0.957  13.038
68050W        W36523  30.638  41.472   3.662
68051W        W36524   6.699  35.919   4.689
68052W        W36525  20.548   2.873   0.760
68053W        W36526  23.100  27.100  11.492
68054W        W36527  43.922  10.152  10.461
68055W        W36528  30.969  12.223  12.473
68056W        W36529  34.491  39.498  13.315
68057W        W36530  37.479  29.628   2.379
68058W        W36531  13.296  15.615  14.441
68059W        W36532   8.229  33.508  13.405
68060W        W36533  16.810  37.448  14.461
68061W        W36534  37.993  11.781   9.992
68062W        W36535  23.039  42.286  13.326
68063W        W36536   6.406  15.808  10.560
68064W        W36537  18.609  34.002   2.189
68065W        W36538  19.627   1.262   2.370
68066W        W36539  34.967  22.232   4.646
68067W        W36540  39.840  35.940   4.144
68068W        W36541  25.020   7.239  11.062
68069W        W36542  43.814   8.398   0.410
68070W        W36543  32.608  13.760  14.481
68071W        W36544  16.126  19.539   0.353
68072W        W36545  11.636  33.067   1.419
68073W        W36546  39.897  33.066   4.776
68074W        W36547  36.963  44.449   3.283
68075W        W36548  27.131   3.865  10.971
68076W        W36549   0.368   8.317  12.947
68077W        W36550  33.970  40.379  11.954
68078W        W36551  40.440  20.658  10.639
68079W        W36552  23.010  30.158  11.465
68080W        W36553  28.514  15.650  10.455
68081W        W36554  36.077  18.202   0.319
68082W        W36555  24.096   3.325  13.531
68083W        W36556   9.860  28.006  12.042
68084W        W36557   6.768  26.149  11.374
68085W        W36558  37.430  38.855  12.869
68086W        W36559  38.454  18.788  11.938
68087W        W36560  23.198  30.557   0.948
68088W        W36561  27.616  13.804   2.769
68089W        W36562  40.500   6.426   0.299
68090W        W36563  38.508   8.184  14.898
68091W        W36564  20.713  11.350  11.914
68092W        W36565   4.309  33.554  12.458
68093W        W36566  24.083  13.293  10.640
68094W        W36567  23.156  34.964   0.480
68095W        W36568  23.030   8.841   1.411
68096W        W36569  44.854  34.919  11.974
68097W        W36570  12.704  28.017  12.086
68098W        W36571  44.503  39.869   3.687
68099W        W36572   8.798  13.625  10.614
68100W        W36573   6.398  32.546  13.050
68101W        W36574  18.156  19.732  14.945
68102W        W36575  39.462  24.043  12.352
68103W        W36576  35.950   3.842  14.468
68104W        W36577  22.579  39.062  12.050
68105W        W36578  29.581  21.171   5.101
68106W        W36579  22.016  28.621  13.366
68107W        W36580   0.787  14.148   3.731
68108W        W36581  37.831  23.210   4.222
68109W        W36582  35.872  35.077  12.492
68110W        W36583  22.244  38.880  14.346
68111W        W36584   4.381  41.921  14.511
68112W        W36585   1.747  43.015   1.262
68113W        W36586  38.343   8.838  12.464
68114W        W36587  30.613  31.095   4.829
68115W        W36588  14.826  42.347   3.191
68116W        W36589  37.535   4.321  10.073
68117W        W36590  36.492  38.950  11.071
68118W        W36591  21.554  43.470   0.290
68119W        W36592  26.200  37.563  10.487
68120W        W36593   5.254  18.596   0.859
68121W        W36594  14.158  43.409   2.385
68122W        W36595   8.266   7.283   4.255
68123W        W36596   8.729  11.161  13.915
68124W        W36597  16.085  38.369  11.457
68125W        W36598   1.336  15.588  12.995
68126W        W36599   7.885  27.660   0.428
68127W        W36600  20.258  12.843  11.595
68128W        W36601  38.449  30.978   2.836
68129W        W36602  31.541   5.877   1.823
68130W        W36603  29.039  15.783  13.918
68131W        W36604  14.334  44.880  14.787
68132W        W36605  30.643  13.107   4.152
68133W        W36606   8.686   0.485  14.782
68134W        W36607  25.691  33.404   2.354
68135W        W36608  37.870  39.871   3.210
68136W        W36609   4.749  35.057  12.005
68137W        W36610  16.298  21.722  12.007
68138W        W36611   8.791  29.120  12.397
68139W        W36612  14.129  14.735  14.316
68140W        W36613  26.969   2.763  13.422
68141W        W36614  15.723  17.781   3.217
68142W        W36615   7.883  31.978   9.936
68143W        W36616  40.379  14.282   2.900
68144W        W36617  43.474   0.466   1.929
68145W        W36618  18.734  18.742   4.707
68146W        W36619  14.646  30.006  12.059
68147W        W36620  12.638  12.830  11.394
68148W        W36621   8.166   5.344   4.124
68149W        W36622  10.338   6.868   2.719
68150W        W36623  37.380  37.924  13.410
68151W        W36624  29.605   5.822   4.802
68152W        W36625  44.979  17.566  12.452
68153W        W36626  17.574  38.477   5.626
68154W        W36627  35.059  43.891   4.747
68155W        W36628  41.931   8.330  14.985
68156W        W36629  43.412  20.679   1.303
68157W        W36630  33.057  40.485  10.929
68158W        W36631  23.711   5.402  12.516
68159W        W36632  33.623  32.588   4.651
68160W        W36633  27.612  38.490  11.507
68161W        W36634  28.622  36.973   3.381
68162W        W36635  42.893  31.996  11.612
68163W        W36636  25.093   9.817   2.741
68164W        W36637  20.142  29.995  13.531
68165W        W36638  21.593  43.805  11.891
68166W        W36639   3.837  15.228  12.419
68167W        W36640  28.063  42.780   0.939
68168W        W36641  16.588  20.236   2.239
68169W        W36642  12.695  14.692  13.544
68170W        W36643  30.120  13.282  10.997
68171W        W36644  22.164  18.611  11.605
68172W        W36645  17.782  40.976   4.731
68173W        W36646  17.628  31.401   2.892
68174W        W36647  19.244  34.116  13.928
68175W        W36648  19.099  17.780   0.277
68176W        W36649   1.963  17.565   2.739
68177W        W36650  19.607   6.834  11.547
68178W        W36651  28.144   6.745   2.207
68179W        W36652  34.969  34.406   2.321
68180W        W36653  42.320   7.871  13.356
68181W        W36654  11.355  27.452  14.990
68182W        W36655  10.841  27.527  14.963
68183W        W36656   0.746   4.389   1.257
68184W        W36657  27.672  35.507  12.084
68185W        W36658  31.488  18.131   3.844
68186W        W36659  38.057   2.918  12.525
68187W        W36660  35.902  24.677  14.348
68188W        W36661  41.524  16.777  10.931
68189W        W36662  18.659  14.760  14.001
68190W        W36663  42.866  11.141   1.724
68191W        W36664  41.415  22.659  14.997
68192W        W36665  14.122  12.812   3.757
68193W        W36666  44.757  41.443   3.693
68194W        W36667  43.915  43.950   0.335
68195W        W36668  33.605  26.005  11.961
68196W        W36669  27.689  39.916  11.443
68197W        W36670  42.384  17.593   0.753
68198W        W36671  15.723  27.136  14.841
68199W        W36672  28.594  23.037   3.281
68200W        W36673  15.086  37.841   2.345
68201W        W36674  28.637   6.259   2.703
68202W        W36675  11.257   9.648  11.116
68203W        W36676  16.219  33.029  12.917
68204W        W36677  11.279  18.736   2.821
68205W        W36678  32.987  28.962   2.303
68206W        W36679  12.268  15.766   1.265
68207W        W36680  14.194  20.038   4.172
68208W        W36681  23.224  42.781   4.165
68209W        W36682  38.378  24.583  11.923
68210W        W36683  14.195   3.454   0.456
68211W        W36684  15.714  31.050  10.887
68212W        W36685  22.197   0.922  14.791
68213W        W36686  32.079  28.453  14.485
68214W        W36687  24.488  34.551   3.186
68215W        W36688  31.128  23.637   5.761
68216W        W36689  35.878  41.042   3.339
68217W        W36690  10.653   1.978   1.852
68218W        W36691   6.789   1.375  11.036
68219W        W36692   1.936  20.638  14.285
68220W        W36693  38.940  28.618  14.455
68221W        W36694  44.883  30.564   2.742
68222W        W36695  41.922  11.164   2.357
68223W        W36696  33.531  30.584   5.211
68224W        W36697  13.334  10.742   4.251
68225W        W36698  11.661   3.363  10.901
68226W        W36699  41.380   7.230  13.402
68227W        W36700   4.744   6.274   3.860
68228W        W36701  10.770   7.714   4.645
68229W        W36702  34.008  19.099  12.088
68230W        W36703   1.945  33.459   0.948
68231W        W36704  43.990  42.865  13.460
68232W        W36705  18.253  22.997  10.447
68233W        W36706  22.151  26.554   2.419
68234W        W36707  39.861  27.478   0.378
68235W        W36708  35.094  22.679   1.922
68236W        W36709  21.696  11.272   1.824
68237W        W36710  18.636  16.799   4.658
68238W        W36711  11.649  44.261  10.500
68239W        W36712  10.257   7.714   4.822
68240W        W36713  28.668   7.280  13.519
68241W        W36714  20.549  43.936  10.942
68242W        W36715  42.322   6.687  12.467
68243W        W36716  11.191  21.108  14.805
68244W        W36717  17.563  41.500   4.279
68245W        W36718  38.068  10.673  11.121
68246W        W36719  44.318  44.347   5.183
68247W        W36720  21.073  29.595  11.059
68248W        W36721   8.325  28.523   3.242
68249W        W36722   1.368  23.994   0.468
68250W        W36723  22.156  19.541   3.800
68251W        W36724  33.967  26.550  12.891
68252W        W36725   6.337  13.209  12.011
68253W        W36726  38.418  24.058  14.431
68254W        W36727   9.775   7.259   1.377
68255W        W36728  11.742  34.936   4.769
68256W        W36729  28.513  28.118   0.331
68257W        W36730  35.065  22.598  11.991
68258W        W36731  17.107   4.817  14.434
68259W        W36732  28.944  32.027   0.366
68260W        W36733   5.266   4.712   1.329
68261W        W36734   8.827  22.576  10.970
68262W        W36735  35.405  34.050  11.001
68263W        W36736   7.821  39.823  11.103
68264W        W36737  16.254  10.849  12.881
68265W        W36738   5.934  15.794   1.919
68266W        W36739   7.750   5.733  10.104
68267W        W36740  42.933  33.549  13.483
68268W        W36741  29.175  30.156  11.962
68269W        W36742  24.709  14.295   0.304
68270W        W36743  42.822   3.255  10.088
68271W        W36744   6.206  19.269   2.672
68272W        W36745  26.113  12.649   4.295
68273W        W36746  31.411  16.666   4.327
68274W        W36747  16.657  13.683  12.838
68275W        W36748  15.169  36.917  14.411
68276W        W36749  17.627  20.230  13.851
68277W        W36750  28.533  25.025   1.240
68278W        W36751  42.890  26.686  14.812
68279W        W36752  28.489   9.256  14.413
68280W        W36753  28.446  26.508   1.253
68281W        W36754  35.082  42.017   0.924
68282W        W36755  28.532  32.589   0.387
68283W        W36756  34.114  27.647  12.395
68284W        W36757   3.849   9.820  11.493
68285W        W36758  29.025  26.995  11.977
68286W        W36759   8.287  16.185   1.926
68287W        W36760  39.822  12.135   4.833
68288W        W36761  23.544  43.347  12.846
68289W        W36762  20.179  25.655   4.341
68290W        W36763  11.270  17.191   0.746
68291W        W36764   5.708  28.964  10.916
68292W        W36765   9.352  16.312   2.406
68293W        W36766  38.452  24.120   2.794
68294W        W36767   6.283  25.996   4.200
68295W        W36768  12.204  22.141  13.451
68296W        W36769  14.207   9.663   4.764
68297W        W36770   7.246   5.902   3.653
68298W        W36771  39.028  40.799  11.494
68299W        W36772  13.631   8.785   4.209
68300W        W36773  37.450   0.376  14.763
68301W        W36774   3.324  12.628   1.726
68302W        W36775  17.284  39.332   1.862
68303W        W36776  17.657   1.872  12.036
68304W        W36777  29.473  17.753   3.311
68305W        W36778  39.538  41.028  10.438
68306W        W36779  37.479  21.078  13.310
68307W        W36780  14.259  16.693   2.247
68308W        W36781   7.182  34.905  10.487
68309W        W36782  17.301  28.599   4.313
68310W        W36783  20.232  22.054   2.415
68311W        W36784  42.421  11.138   4.203
68312W        W36785  44.292  14.649  13.484
68313W        W36786  31.452  29.165  12.547
68314W        W36787   6.768  42.519   2.782
68315W        W36788  22.196  42.466  12.938
68316W        W36789  36.504  42.860   4.161
68317W        W36790  19.674   1.741   0.280
68318W        W36791   0.462  10.319  10.451
68319W        W36792  28.969  24.205   1.799
68320W        W36793  20.245  18.780  12.406
68321W        W36794   4.856   2.942   4.255
68322W        W36795  38.404  17.109  11.377
68323W        W36796  37.390  44.827  13.989
68324W        W36797  21.124  40.005  12.516
68325W        W36798  17.647  40.817   1.285
68326W        W36799   6.283  24.043   1.232
68327W        W36800  44.869  10.317   4.634
68328W        W36801  36.524  40.903  14.909
68329W        W36802  36.027  20.569   2.874
68330W        W36803  20.182  15.749  12.469
68331W        W36804   2.327  21.150   4.706
68332W        W36805   1.351  26.665  11.513
68333W        W36806  15.225  22.046   0.467
68334W        W36807  23.517  18.091  13.313
68335W        W36808  12.276  26.083  14.829
68336W        W36809  32.957  25.120  11.025
68337W        W36810   0.919  20.043   0.850
68338W        W36811  43.903  28.947  14.798
68339W        W36812  37.938  10.820   3.200
68340W        W36813  12.843  27.120   4.282
68341W        W36814  26.951   9.334  14.471
68342W        W36815  16.212   9.151   2.814
68343W        W36816  35.932  23.646  13.346
68344W        W36817  39.026  27.952  12.926
68345W        W36818  24.023  21.654   4.245
68346W        W36819  31.537   3.836  10.530
68347W        W36820  26.155  25.022  13.852
68348W        W36821   5.232  28.481  13.900
68349W        W36822   9.195   0.870   0.462
68350W        W36823  10.357  25.192  10.143
68351W        W36824  22.152  32.539   2.385
68352W        W36825  42.389  19.768  10.471
68353W        W36826   7.311  37.557   4.660
68354W        W36827  14.101  10.749  12.921
68355W        W36828  16.592   3.316  11.877
68356W        W36829  30.450  29.450   3.755
68357W        W36830  22.170  28.010   0.293
68358W        W36831   6.917  43.353  13.398
68359W        W36832   6.246  10.281   2.322
68360W        W36833  41.849  12.248  10.988
68361W        W36834  24.518  18.741  10.910
68362W        W36835  22.026   4.890   3.372
68363W        W36836  33.440  12.728   0.312
68364W        W36837   7.890   3.303   4.128
68365W        W36838  28.561  15.748   2.181
68366W        W36839  34.072  22.629  10.027
68367W        W36840   3.369   3.430   2.332
68368W        W36841  44.893   5.437  12.974
68369W        W36842   4.781  35.432  10.454
68370W        W36843  24.228  33.965   1.361
68371W        W36844  20.533   1.921   0.868
68372W        W36845   6.340  44.348  11.932
68373W        W36846  27.540  22.170   0.846
68374W        W36847  16.724  14.158  14.879
68375W        W36848  21.644   7.206   0.745
68376W        W36849  25.679  12.718   2.739
68377W        W36850   5.322  34.054  14.998
68378W        W36851  32.501  27.101   1.695
68379W        W36852  16.636  34.466   4.304
68380W        W36853   8.278   1.784   4.342
68381W        W36854   1.330  39.324  13.930
68382W        W36855  17.279  11.293   0.402
68383W        W36856  34.552  13.239  10.904
68384W        W36857  27.652  31.989   4.323
68385W        W36858  10.370  37.892  12.533
68386W        W36859  28.037  19.592   2.683
68387W        W36860  34.017  30.434  14.305
68388W        W36861  23.215  41.458  11.972
68389W        W36862  43.341  14.795  10.589
68390W        W36863   8.251  18.588   1.845
68391W        W36864   2.777  31.062   1.261
68392W        W36865  23.143   1.454   0.908
68393W        W36866   7.205  40.498   2.871
68394W        W36867   2.327   0.425   4.762
68395W        W36868  38.501  43.370   3.155
68396W        W36869   4.727   6.724   1.826
68397W        W36870  21.126  14.152   0.341
68398W        W36871   6.366  34.056  12.012
68399W        W36872  34.867  35.084  10.498
68400W        W36873  41.446   6.852  13.378
68401W        W36874   5.431  25.078  12.933
68402W        W36875  22.614  28.537  10.909
68403W        W36876  23.591   5.215  13.026
68404W        W36877  16.130  15.672   0.853
68405W        W36878  41.895  27.009   0.292
68406W        W36879  24.133  17.162  14.874
68407W        W36880   1.257  22.129   3.668
68408W        W36881  28.649  34.881  13.523
68409W        W36882  20.684  30.066  10.488
68410W        W36883   8.744   1.453  10.557
68411W        W36884  24.479  13.815   0.326
68412W        W36885  16.111  18.610   4.168
68413W        W36886  19.179  35.958   4.230
68414W        W36887  41.915   2.884   2.740
68415W        W36888  41.815   0.371   3.693
68416W        W36889  32.405  41.796   0.801
68417W        W36890  41.830  31.493  10.623
68418W        W36891   4.789  31.019   4.261
68419W        W36892  10.808  13.755   2.415
68420W        W36893  16.084  31.556  13.403
68421W        W36894   1.242  26.992  13.870
68422W        W36895  30.014  25.155   3.660
68423W        W36896  33.419  17.187  12.553
68424W        W36897  44.826   6.201   0.350
68425W        W36898  28.936  30.518  13.960
68426W        W36899  29.944   8.816   1.216
68427W        W36900  23.560  32.611   0.946
68428W        W36901  40.898  40.885  13.835
68429W        W36902  41.020  11.746   1.694
68430W        W36903   8.899  38.076  11.000
68431W        W36904  40.392  20.142   3.323
68432W        W36905  28.113  15.655   2.881
68433W        W36906  21.072   2.907  12.077
68434W        W36907   0.326  22.122  14.369
68435W        W36908  31.577  22.651   0.365
68436W        W36909   9.285   0.261  12.429
68437W        W36910  37.011   7.791   2.747
68438W        W36911   9.288  19.070  11.383
68439W        W36912   1.325  42.796   2.247
68440W        W36913   3.436   0.344   2.758
68441W        W36914  21.555  33.522  13.022
68442W        W36915  15.728  17.627   4.119
68443W        W36916  30.160  25.205   1.728
68444W        W36917  21.629   0.950  11.594
68445W        W36918   5.237  18.295  11.498
68446W        W36919  12.693  10.690   4.323
68447W        W36920  28.561  12.213  12.893
68448W        W36921  31.645  26.163   9.569
68449W        W36922  18.652  41.936   4.801
68450W        W36923  27.946  37.058   2.304
68451W        W36924  37.458  22.513  13.367
68452W        W36925   7.889  38.913   4.267
68453W        W36926  39.426   9.780  11.085
68454W        W36927  17.232   3.226   1.862
68455W        W36928  37.973  16.651   2.209
68456W        W36929  43.878  43.385   0.276
68457W        W36930  40.966  25.102  14.362
68458W        W36931  19.571   5.260  11.950
68459W        W36932  39.483  44.443   3.750
68460W        W36933  12.315   5.215   4.761
68461W        W36934  16.571  36.876   0.468
68462W        W36935  12.294  34.412  14.501
68463W        W36936  36.041  31.502  11.056
68464W        W36937  43.321  36.555  13.484
68465W        W36938  14.274  42.520   2.395
68466W        W36939   1.907  14.717  12.053
68467W        W36940  19.693   7.683  10.998
68468W        W36941  11.137  36.011  13.350
68469W        W36942  37.867  29.433   4.157
68470W        W36943  16.190  43.998   2.382
68471W        W36944  11.277  10.307   2.666
68472W        W36945  27.085   2.936   1.327
68473W        W36946  10.355  21.633   3.663
68474W        W36947   7.904  22.136   3.245
68475W        W36948  37.999  42.781   9.927
68476W        W36949  18.213   3.231  11.082
68477W        W36950   5.271   6.243   3.242
68478W        W36951   6.709  21.160  12.462
68479W        W36952  33.392   2.268   0.364
68480W        W36953   8.302  38.463  14.343
68481W        W36954  26.522  36.380  14.791
68482W        W36955   3.728  22.078  11.429
68483W        W36956   7.312  13.121  13.403
68484W        W36957  24.012   7.763  10.437
68485W        W36958  29.054  21.554  14.474
68486W        W36959   9.269  31.101  13.946
68487W        W36960  19.178  40.974   3.857
68488W        W36961  40.432  18.568   1.237
68489W        W36962  22.017  39.893  10.583
68490W        W36963  23.183  19.755  14.782
68491W        W36964  27.650  23.633  12.461
68492W        W36965  40.379  44.377   3.268
68493W        W36966   5.717   2.923  12.477
68494W        W36967  32.439   4.230  13.907
68495W        W36968  16.673   5.863  10.620
68496W        W36969  36.489  28.009   0.875
68497W        W36970  40.378   1.434   3.213
68498W        W36971   6.810  12.685   1.727
68499W        W36972  17.715  13.825   4.806
68500W        W36973   5.732  28.505   4.120
68501W        W36974   4.422   0.801  11.527
68502W        W36975   9.151  41.494   4.814
68503W        W36976  12.735  21.575  14.367
68504W        W36977  13.792  22.197  12.470
68505W        W36978  32.072  39.970   0.361
68506W        W36979  20.565  38.955  14.799
68507W        W36980  35.099  32.513   0.419
68508W        W36981  33.966  16.294   4.310
68509W        W36982   0.278  15.643  13.377
68510W        W36983  14.656  23.711   0.294
68511W        W36984   5.293  17.563   0.272
68512W        W36985  27.636   2.272  14.314
68513W        W36986  17.718  39.315   0.248
68514W        W36987  10.233   5.728  12.511
68515W        W36988  15.802   5.406   4.732
68516W        W36989  16.115  14.251  11.890
68517W        W36990  43.349  14.281  12.415
68518W        W36991  39.059  42.394   0.390
68519W        W36992   5.269   2.938   1.750
68520W        W36993   6.684   4.366  11.940
68521W        W36994  20.528   7.273  13.345
68522W        W36995  13.132  44.762   3.161
68523W        W36996  29.114  40.386  13.063
68524W        W36997  13.748  40.886   2.186
68525W        W36998  29.472   8.887  14.813
68526W        W36999  33.127  38.908  13.469
68527W        W37000  17.770  41.038   2.373
68528W        W37001  27.970   1.248   0.727
68529W        W37002  13.309   5.412  10.910
68530W        W37003  30.117   8.894   3.868
68531W        W37004  40.496  36.467   3.823
68532W        W37005   1.260  30.103   2.396
68533W        W37006  37.874  41.411  11.971
68534W        W37007   8.725   9.887   1.430
68535W        W37008  16.578  42.426   0.250
68536W        W37009  39.318  29.128   4.302
68537W        W37010  24.609   9.365  14.428
68538W        W37011  10.700  11.795   0.430
68539W        W37012  23.536  38.062  13.353
68540W        W37013  43.996  29.664   1.799
68541W        W37014  13.176  24.576  14.982
68542W        W37015  23.648  30.931   1.876
68543W        W37016  14.284   4.265  10.522
68544W        W37017  15.804   3.360   9.933
68545W        W37018   9.342  19.567   4.833
68546W        W37019   0.753  11.856  13.873
68547W        W37020  26.956   3.781  12.070
68548W        W37021  37.578  30.442   1.394
68549W        W37022  23.697  19.083   0.795
68550W        W37023  28.077   6.193   4.713
68551W        W37024  15.219   2.731  12.052
68552W        W37025  38.489  23.057  14.024
68553W        W37026   6.765  30.629  14.301
68554W        W37027  22.704  11.780   2.668
68555W        W37028  21.741  11.316   3.794
68556W        W37029   5.844  34.863   2.733
68557W        W37030   0.807  39.918   2.223
68558W        W37031   6.797  41.454   0.282
68559W        W37032  20.602   0.939   4.608
68560W        W37033  11.784  36.905   2.896
68561W        W37034  26.145  20.646   1.707
68562W        W37035   8.780  26.518   0.423
68563W        W37036  44.310  26.482   1.735
68564W        W37037  21.693  44.355   3.795
68565W        W37038   5.267  38.362  12.900
68566W        W37039   6.835   1.805  14.294
68567W        W37040   8.721   0.364  12.951
68568W        W37041  15.251  39.322  13.333
68569W        W37042  34.610  29.568   3.775
68570W        W37043  33.434  28.961   3.763
68571W        W37044   0.773  24.511  12.561
68572W        W37045  42.360  15.758   3.387
68573W        W37046  41.915  30.967  13.311
68574W        W37047  32.398  41.992   1.901
68575W        W37048   8.848  37.084  10.565
68576W        W37049  28.626  17.078   0.453
68577W        W37050  16.127   9.248   4.235
68578W        W37051  17.597  14.777  11.439
68579W        W37052  25.992  31.587   1.801
68580W        W37053   8.165  36.371   4.729
68581W        W37054  36.419  17.565   3.292
68582W        W37055  25.149  43.892   3.732
68583W        W37056  25.165  26.018   0.830
68584W        W37057   6.827  13.688  10.610
68585W        W37058   2.285   9.790  10.633
68586W        W37059  36.365  20.588   4.241
68587W        W37060  30.541   5.431  14.452
68588W        W37061   0.939   0.475   3.708
68589W        W37062  12.758  22.504   0.248
68590W        W37063   0.816   7.389  10.079
68591W        W37064  37.021  18.702  12.422
68592W        W37065  44.295  40.883  11.045
68593W        W37066   8.247  38.411   1.307
68594W        W37067  25.014   4.411  12.943
68595W        W37068  26.566  14.215  14.328
68596W        W37069  37.381  27.554   3.716
68597W        W37070  24.085  24.544  14.009
68598W        W37071  37.981  40.321   0.453
68599W        W37072  27.186  44.945   3.290
68600W        W37073  15.155  21.256  11.416
68601W        W37074  38.376  16.679   0.739
68602W        W37075  20.720  21.653  13.468
68603W        W37076  10.332  21.151   3.731
68604W        W37077  10.743  23.013   0.771
68605W        W37078  11.180  12.624   1.345
68606W        W37079   4.781  13.690  14.274
68607W        W37080  37.532   7.785  12.424
68608W        W37081  24.089  22.529  12.000
68609W        W37082  25.095  43.867  10.577
68610W        W37083  13.602  44.441  12.906
68611W        W37084   4.329  37.010  11.438
68612W        W37085  12.697   8.399   3.157
68613W        W37086  38.830  19.274  14.475
68614W        W37087   8.713  29.967  11.571
68615W        W37088  35.079  11.859   2.702
68616W        W37089  21.152   2.388  10.437
68617W        W37090  13.153   9.771  12.889
68618W        W37091  41.866  21.064  13.976
68619W        W37092  11.691  35.948  10.629
68620W        W37093   6.915  40.325   1.234
68621W        W37094  11.372  37.003   3.863
68622W        W37095  16.110   8.284  14.874
68623W        W37096  39.995  44.938  13.431
68624W        W37097   1.479   2.784   4.316
68625W        W37098  33.024  33.901  11.016
68626W        W37099  29.960  33.470   1.757
68627W        W37100  32.057  18.770  12.546
68628W        W37101   9.857  30.130   1.876
68629W        W37102  41.527  12.757   2.178
68630W        W37103  41.807  18.202   4.748
68631W        W37104  18.747  26.552   3.780
68632W        W37105  24.690  11.768   2.808
68633W        W37106  33.391  11.852  10.520
68634W        W37107  11.848  22.152  12.571
68635W        W37108  31.910  14.306   1.818
68636W        W37109  13.696  16.221   3.160
68637W        W37110  30.972   2.269  12.828
68638W        W37111  30.513  31.013  12.413
68639W        W37112  34.395   8.846   4.161
68640W        W37113  29.500  35.404   0.742
68641W        W37114   8.735  22.059  12.090
68642W        W37115  10.329  13.760  13.548
68643W        W37116   3.945  15.699   2.280
68644W        W37117  24.704  29.437   0.422
68645W        W37118  33.028  43.790   1.739
68646W        W37119  29.170  39.413   2.374
68647W        W37120   3.374  44.401   0.892
68648W        W37121  20.625  26.584   0.806
68649W        W37122  24.485   1.438   0.478
68650W        W37123  19.588  21.170  10.422
68651W        W37124   8.213   7.851   2.326
68652W        W37125  27.473  42.966   3.304
68653W        W37126  16.176  37.960   1.813
68654W        W37127  37.018   5.760   4.215
68655W        W37128  35.474  44.447  12.823
68656W        W37129  27.686   1.924  14.434
68657W        W37130  18.668  27.128   3.247
68658W        W37131  28.114  32.016   9.982
68659W        W37132  21.064   8.734   0.943
68660W        W37133   5.298  30.466   0.744
68661W        W37134   8.353  16.763  12.999
68662W        W37135  27.663  30.145   4.212
68663W        W37136   4.345  39.933   0.416
68664W        W37137  42.455  19.277  13.989
68665W        W37138  33.470  32.991   1.427
68666W        W37139  34.410   0.366  13.872
68667W        W37140  16.154  18.278  13.527
68668W        W37141  15.301   1.425   3.659
68669W        W37142  13.618   5.205  14.862
68670W        W37143  37.501  33.600   4.737
68671W        W37144   1.904  36.574   0.858
68672W        W37145   2.336  43.905  14.467
68673W        W37146  41.416   3.290  14.021
68674W        W37147  30.499  41.980  10.508
68675W        W37148  32.004  41.974  13.876
68676W        W37149  16.293  33.064   2.869
68677W        W37150  18.617  27.152   3.780
68678W        W37151  39.548  22.079   1.445
68679W        W37152   3.715  43.487  12.930
68680W        W37153  23.101   8.894   1.810
68681W        W37154  30.648  26.046  13.404
68682W        W37155   5.780  12.327   3.211
68683W        W37156  17.297  23.675   2.417
68684W        W37157  42.339  26.588  12.394
68685W        W37158  11.163  41.911  12.850
68686W        W37159   1.786   5.832   3.746
68687W        W37160  32.463  19.066  12.355
68688W        W37161  37.343  26.579   3.315
68689W        W37162  18.267   8.875   2.864
68690W        W37163  35.004  13.838  14.026
68691W        W37164  31.493  34.459   4.765
68692W        W37165  35.872  31.068  10.603
68693W        W37166   1.795  35.570   3.754
68694W        W37167   1.480  16.632   2.270
68695W        W37168  21.061   7.691  12.072
68696W        W37169  31.506  24.720  11.008
68697W        W37170   8.306  34.979  12.425
68698W        W37171  33.519   8.330  13.927
68699W        W37172   8.168  42.863   3.703
68700W        W37173  38.953  28.087   2.415
68701W        W37174  16.710  21.666   4.323
68702W        W37175   8.824  28.946   1.415
68703W        W37176   3.443  14.283  13.538
68704W        W37177  13.775  36.881   0.307
68705W        W37178  15.153  16.203  11.405
68706W        W37179   2.734  42.387   1.723
68707W        W37180  27.061   1.478   9.634
68708W        W37181  17.584  26.071  14.353
68709W        W37182  21.647  14.796  12.545
68710W        W37183  31.929  11.856   2.189
68711W        W37184   3.843  11.710   3.312
68712W        W37185  35.020  19.161  11.926
68713W        W37186  18.245  33.503   2.883
68714W        W37187  17.780  41.871  14.814
68715W        W37188  14.700  23.652   4.685
68716W        W37189  36.954  23.554  12.077
68717W        W37190  20.546   0.857  13.950
68718W        W37191  29.584  38.355  11.517
68719W        W37192  12.151   6.384   3.159
68720W        W37193  41.995  32.099  11.414
68721W        W37194  20.195   7.834  11.450
68722W        W37195  17.195  36.095   2.192
68723W        W37196  12.163  43.781   2.321
68724W        W37197  41.346  33.422   2.343
68725W        W37198  37.833   6.358   1.236
68726W        W37199  15.099   5.270  14.941
68727W        W37200   5.382  43.450  10.519
68728W        W37201  29.007  41.367  13.896
68729W        W37202  11.323  24.122   5.314
68730W        W37203  28.640  15.767  13.457
68731W        W37204  19.103  19.195   4.346
68732W        W37205  11.231  31.936  13.886
68733W        W37206  44.280  11.197   2.689
68734W        W37207  42.407  32.551   2.702
68735W        W37208  20.108  27.494   3.235
68736W        W37209  31.910  33.595   1.275
68737W        W37210   0.822  44.864  13.029
68738W        W37211   4.857  41.434   0.886
68739W        W37212  14.695   1.971  11.951
68740W        W37213  22.034   7.822  10.623
68741W        W37214  26.701  18.249  13.548
68742W        W37215  27.127  15.304  12.006
68743W        W37216  17.740   8.209   3.718
68744W        W37217  11.691   3.371  10.619
68745W        W37218   0.466  27.052   0.314
68746W        W37219  28.050  30.126   3.735
68747W        W37220  22.536  33.454  12.533
68748W        W37221  33.431   8.200  14.289
68749W        W37222  33.096  30.162  14.003
68750W        W37223  35.554  28.544   1.344
68751W        W37224  28.598  28.470   1.862
68752W        W37225  39.530  31.044  13.054
68753W        W37226  16.257  37.961  13.308
68754W        W37227  21.725  15.612   4.808
68755W        W37228  42.476   0.252   2.387
68756W        W37229  36.400   5.807  11.419
68757W        W37230  40.034  25.210  10.557
68758W        W37231   9.295  27.081   2.352
68759W        W37232  19.619  30.583   2.210
68760W        W37233  22.140  41.360  13.315
68761W        W37234  35.382  25.700  13.878
68762W        W37235  13.188  42.382   3.226
68763W        W37236  32.454  25.079  13.372
68764W        W37237  27.620  16.793  12.352
68765W        W37238  30.975  28.644  12.462
68766W        W37239  38.393  42.285  11.039
68767W        W37240  15.701   4.706  13.899
68768W        W37241  34.021  14.701   0.291
68769W        W37242   9.381  28.996  14.298
68770W        W37243  34.915  39.038  11.026
68771W        W37244  36.001   8.305   1.732
68772W        W37245   1.909  31.935   1.326
68773W        W37246   4.915  36.952   1.276
68774W        W37247  34.615  27.486  14.389
68775W        W37248  37.477  21.680   0.957
68776W        W37249  39.007   8.703  12.458
68777W        W37250  10.237  35.000  12.842
68778W        W37251   6.241  39.879   1.334
68779W        W37252  42.417  40.546   4.232
68780W        W37253   4.215  24.221   3.229
68781W        W37254   0.861  26.612  13.907
68782W        W37255  18.259  42.404   0.846
68783W        W37256  39.471   7.327   4.670
68784W        W37257  27.136  42.973   3.166
68785W        W37258  30.645   2.230  11.054
68786W        W37259  39.936  27.650   1.731
68787W        W37260  26.118   5.834   1.381
68788W        W37261  11.298  35.963   2.833
68789W        W37262   4.447  44.791   4.702
68790W        W37263  28.164   5.709  13.036
68791W        W37264  35.926  43.883  13.790
68792W        W37265  39.889  26.163   4.336
68793W        W37266  22.215   3.864   0.870
68794W        W37267  13.302   3.272   2.836
68795W        W37268  15.276  12.253   2.409
68796W        W37269  11.362  32.935  10.606
68797W        W37270  44.389  44.977  13.514
68798W        W37271  34.050  18.290  12.953
68799W        W37272  28.468  39.494  11.908
68800W        W37273  30.116  36.957   1.383
68801W        W37274  28.569  31.489   2.897
68802W        W37275  36.915   9.336   4.261
68803W        W37276  29.457   4.880  11.879
68804W        W37277  13.129  13.131  13.931
68805W        W37278   9.836  13.221  13.494
68806W        W37279  32.954  36.905   4.682
68807W        W37280  38.354  31.918   3.725
68808W        W37281   9.758  36.876  14.317
68809W        W37282  44.990   9.279   0.883
68810W        W37283  18.592  30.043  13.437
68811W        W37284  17.200  35.379   3.821
68812W        W37285  16.176  39.516  14.335
68813W        W37286   3.405  18.763  11.443
68814W        W37287   6.835   0.925  12.440
68815W        W37288   2.278  25.657   0.353
68816W        W37289   2.352  22.114   4.283
68817W        W37290  29.073  42.974   3.817
68818W        W37291  40.462  15.786  10.904
68819W        W37292  22.217  13.199   3.683
68820W        W37293   3.218   9.669  10.516
68821W        W37294  25.491  30.529   1.768
68822W        W37295  39.507  39.373   1.791
68823W        W37296   3.930  11.769  11.857
68824W        W37297  25.666  22.554  12.519
68825W        W37298  10.675  18.072  12.018
68826W        W37299  10.841  35.574  14.769
68827W        W37300  10.151   0.859  12.515
68828W        W37301  42.026  13.671  14.030
68829W        W37302  24.717  26.583   2.752
68830W        W37303  28.053   7.875   5.110
68831W        W37304   6.316  37.347  10.975
68832W        W37305   7.782   4.218  14.011
68833W        W37306   6.868  18.173   3.363
68834W        W37307   0.794  39.017   2.382
68835W        W37308  25.989  31.984   5.083
68836W        W37309  11.789  20.244   2.258
68837W        W37310   6.256   8.725   0.305
68838W        W37311  29.939  42.480   4.826
68839W        W37312  15.692  12.199  10.494
68840W        W37313  42.316  12.358   4.776
68841W        W37314  11.783  24.701   3.278
68842W        W37315   1.821  16.078  12.998
68843W        W37316  40.886  18.761  10.913
68844W        W37317   7.765  19.118  13.474
68845W        W37318  21.030   2.921  11.062
68846W        W37319  28.469  24.174  10.560
68847W        W37320  33.942  12.753  12.832
68848W        W37321  40.541  18.210   3.712
68849W        W37322  11.198  39.885  12.549
68850W        W37323  23.534  35.075   4.652
68851W        W37324   0.461  16.210   2.352
68852W        W37325   6.865  15.647   5.665
68853W        W37326  41.338  19.552  10.510
68854W        W37327  12.134  12.157   2.225
68855W        W37328  21.708   5.264   4.307
68856W        W37329  21.512  31.405   3.166
68857W        W37330   9.815  42.355   2.209
68858W        W37331  23.011  13.166  11.977
68859W        W37332  21.080  20.535  12.968
68860W        W37333  28.952  22.134  12.382
68861W        W37334   1.425  25.708   3.774
68862W        W37335  44.387  31.631   4.793
68863W        W37336  21.119  35.873   0.767
68864W        W37337  19.211  23.592   2.900
68865W        W37338  30.438  40.025  10.530
68866W        W37339  12.174  25.138  11.004
68867W        W37340  38.532  11.841   1.708
68868W        W37341  10.382   9.181  13.884
68869W        W37342   9.332  42.880   4.800
68870W        W37343  17.701  24.082   2.253
68871W        W37344  30.558  25.472   1.386
68872W        W37345  22.555  18.693  11.979
68873W        W37346  27.150  27.499  12.430
68874W        W37347  38.398  34.535  12.963
68875W        W37348  28.982  43.874   3.347
68876W        W37349  11.147  30.997  12.093
68877W        W37350  13.196  14.101  13.052
68878W        W37351  19.202  41.800  12.823
68879W        W37352   7.882   2.378  13.898
68880W        W37353  28.173  26.981   4.346
68881W        W37354  17.211  42.339  10.929
68882W        W37355  41.401  13.776   1.348
68883W        W37356  13.806  32.123  10.915
68884W        W37357  13.288   4.808  11.052
68885W        W37358  26.594  20.719   4.265
68886W        W37359  17.152  44.280  13.416
68887W        W37360  14.311  27.984   2.798
68888W        W37361  34.069  35.854   3.168
68889W        W37362  10.148   2.352   3.794
68890W        W37363  19.176   8.820  13.969
68891W        W37364  33.518  39.966  13.508
68892W        W37365  15.237  12.746  10.607
68893W        W37366   8.237  23.497   0.335
68894W        W37367  27.475  37.969  12.505
68895W        W37368  27.190  26.476  12.449
68896W        W37369  30.021   3.263   3.372
68897W        W37370  10.224  30.947  10.471
68898W        W37371  33.053   6.276  13.418
68899W        W37372  16.789  38.928   4.652
68900W        W37373  11.863  37.378   0.842
68901W        W37374  18.597  32.573  14.424
68902W        W37375  31.506   7.707  10.932
68903W        W37376   5.223  43.957   1.288
68904W        W37377  26.138  24.074  13.386
68905W        W37378  41.819   3.436  11.419
68906W        W37379  38.355  14.798   0.906
68907W        W37380   7.883  42.790  14.796
68908W        W37381  38.512   9.157  12.843
68909W        W37382   5.914  24.122   3.647
68910W        W37383  20.730  14.598   1.869
68911W        W37384  18.169  13.820  11.536
68912W        W37385   6.260   9.743   0.918
68913W        W37386  33.448  27.503   3.844
68914W        W37387  36.087   4.863   2.830
68915W        W37388  24.660  27.556   1.881
68916W        W37389  38.944  36.516   1.928
68917W        W37390  43.352   3.360  10.145
68918W        W37391  41.859  15.306   0.965
68919W        W37392  44.268  36.032  12.463
68920W        W37393  32.597  21.069  10.991
68921W        W37394  26.121  11.765   3.704
68922W        W37395   0.871  34.508  11.114
68923W        W37396   3.948  15.330  12.913
68924W        W37397  39.869   9.268   0.773
68925W        W37398   0.806  43.325  13.853
68926W        W37399  35.877  44.413  11.951
68927W        W37400  42.908  20.600  12.854
68928W        W37401  43.308  17.734  13.063
68929W        W37402   4.222   8.187  14.908
68930W        W37403  25.112  27.558  12.367
68931W        W37404  33.005  44.262   0.271
68932W        W37405  36.081  28.580   1.299
68933W        W37406  34.598   9.884   2.787
68934W        W37407  22.650  35.983  14.930
68935W        W37408  23.017  13.266  13.883
68936W        W37409   3.832  14.231   4.692
68937W        W37410  33.989  38.827   1.258
68938W        W37411  44.408  27.154   4.829
68939W        W37412  36.450  19.554   1.875
68940W        W37413  18.675  23.105  14.964
68941W        W37414  32.507  19.738  13.830
68942W        W37415   3.247  24.991  12.954
68943W        W37416  18.768  35.953  10.061
68944W        W37417  17.624  24.677  14.478
68945W        W37418   9.685  11.198  11.374
68946W        W37419  22.159   5.349   0.824
68947W        W37420   9.863   3.785  13.979
68948W        W37421  24.176   1.744  10.146
68949W        W37422  41.497  30.510  13.407
68950W        W37423  22.705  10.242  12.551
68951W        W37424   9.373  23.014  10.894
68952W        W37425  34.869  11.183  10.487
68953W        W37426   0.301  34.571   1.292
68954W        W37427   2.236   8.224  13.923
68955W        W37428  37.567  14.211   4.766
68956W        W37429  39.399  28.144  10.072
68957W        W37430   2.825  24.052   2.802
68958W        W37431  36.009   1.772  14.947
68959W        W37432   6.205  37.033   0.888
68960W        W37433  18.222   0.762   0.739
68961W        W37434  38.958  32.931   2.839
68962W        W37435   9.700  17.672  11.459
68963W        W37436  36.543   5.432  11.431
68964W        W37437  15.671   3.895  14.003
68965W        W37438  14.601  26.457   1.269
68966W        W37439   3.460  30.084  13.461
68967W        W37440  34.461   6.907   3.813
68968W        W37441  10.158  18.748   1.881
68969W        W37442  10.342  40.956   4.793
68970W        W37443  13.654  20.251  13.812
68971W        W37444  41.304   5.417   0.453
68972W        W37445  21.215  12.808   5.288
68973W        W37446  33.954  15.190   0.282
68974W        W37447  39.397  37.969   1.755
68975W        W37448  13.834   8.259  11.027
68976W        W37449  37.414  34.537  10.486
68977W        W37450  22.023  43.995   0.331
68978W        W37451  36.068   1.754  11.045
68979W        W37452  42.380  21.677   1.794
68980W        W37453  12.120  30.607  11.565
68981W        W37454  30.652  24.489  10.474
68982W        W37455  30.127  38.927  13.023
68983W        W37456  10.714   4.844  13.409
68984W        W37457  22.191   4.781  12.404
68985W        W37458  41.933  31.575   3.176
68986W        W37459  37.503  23.564  12.392
68987W        W37460  19.086  19.229   0.771
68988W        W37461  40.495  32.079  14.321
68989W        W37462  22.167  12.760  13.480
68990W        W37463  19.741  39.541   0.242
68991W        W37464  11.323  33.972   1.771
68992W        W37465  26.594  26.584  11.473
68993W        W37466  34.991  25.117  13.313
68994W        W37467   5.857  44.501   0.741
68995W        W37468  33.056  10.373  12.525
68996W        W37469   6.195  20.563   0.267
68997W        W37470  28.515   5.711   4.604
68998W        W37471   2.237  10.729  13.372
68999W        W37472  36.893   1.897  11.104
69000W        W37473  40.014  32.056  13.311
69001W        W37474  11.277   4.419  11.899
69002W        W37475  33.091  38.464  11.606
69003W        W37476  23.099  37.525  11.574
69004W        W37477  12.256   5.736  14.493
69005W        W37478   3.878  33.094   3.736
69006W        W37479   1.901   8.389  12.350
69007W        W37480  30.619  26.994  14.989
69008W        W37481  15.632  37.008   2.795
69009W        W37482  14.693  25.074   0.418
69010W        W37483  23.156  16.149   1.737
69011W        W37484   4.366  35.917  12.460
69012W        W37485  29.595  21.062   3.707
69013W        W37486  41.954  32.957  12.054
69014W        W37487  35.468  14.784   1.274
69015W        W37488   6.793  21.250   3.232
69016W        W37489  11.691  11.813   0.311
69017W        W37490  10.738  41.344   4.291
69018W        W37491  37.990   4.412   0.833
69019W        W37492  32.582  42.791  13.458
69020W        W37493   6.776  12.617  10.591
69021W        W37494  42.496   7.855  14.019
69022W        W37495  30.127  15.167  14.015
69023W        W37496  41.037  43.848   1.400
69024W        W37497  40.458  25.168  10.151
69025W        W37498  29.477  26.187  13.028
69026W        W37499  29.481  32.922   1.345
69027W        W37500  12.286  23.995  14.405
69028W        W37501  34.071  28.935   1.817
69029W        W37502   8.226  34.387   0.943
69030W        W37503  24.616  23.193   1.443
69031W        W37504   2.430  35.362  11.496
69032W        W37505  34.880  29.013   2.704
69033W        W37506  43.881  13.164  14.992
69034W        W37507  27.990  15.249   2.801
69035W        W37508  35.053  22.557  10.535
69036W        W37509  14.762  37.946  10.157
69037W        W37510  21.578  27.096  13.807
69038W        W37511  41.906   1.436  13.939
69039W        W37512  39.487  13.601   0.323
69040W        W37513  28.586   0.338  14.418
69041W        W37514  33.981  19.281  13.003
69042W        W37515   5.728  27.515  10.420
69043W        W37516  27.126  17.741   3.148
69044W        W37517  19.141  35.032  11.104
69045W        W37518  32.401  10.294   1.730
69046W        W37519  38.040  31.112  11.900
69047W        W37520  19.109  24.559  12.429
69048W        W37521  13.117  39.343  13.970
69049W        W37522   1.971  17.572   1.804
69050W        W37523  16.077  26.651   0.439
69051W        W37524  10.716  14.711  11.898
69052W        W37525   6.864  21.018   1.388
69053W        W37526  35.375  12.137   0.775
69054W        W37527  30.119  23.001  12.899
69055W        W37528  43.833  19.195  13.992
69056W        W37529  19.740  24.725  12.048
69057W        W37530   2.338  20.216   0.338
69058W        W37531   3.786  30.922   0.264
69059W        W37532  32.111  43.500  11.432
69060W        W37533   3.886  18.137  12.032
69061W        W37534   0.981  17.091   1.371
69062W        W37535  22.664  23.140   0.828
69063W        W37536   7.300  23.077   4.124
69064W        W37537  30.921  42.992  14.763
69065W        W37538   1.865  12.339  13.945
69066W        W37539   9.753  23.097  13.907
69067W        W37540  35.919  41.313   3.696
69068W        W37541  12.340  29.996  14.275
69069W        W37542   0.369   7.296  10.427
69070W        W37543   3.299  27.551  11.010
69071W        W37544   6.244  13.260   9.535
69072W        W37545  41.421   9.347   2.266
69073W        W37546  32.137   2.747  10.553
69074W        W37547  24.179  32.101  13.514
69075W        W37548  32.052   0.413  14.935
69076W        W37549  18.123  14.173  11.891
69077W        W37550  20.209  33.590  14.825
69078W        W37551  15.769  20.173  13.016
69079W        W37552   7.327   8.312  13.544
69080W        W37553  23.051   2.835  14.899
69081W        W37554  40.807  41.313  12.926
69082W        W37555  36.368  19.768  10.625
69083W        W37556  30.523  31.938   3.235
69084W        W37557  39.967  14.173  13.420
69085W        W37558   1.378  32.077   4.774
69086W        W37559  36.081  18.601  10.607
69087W        W37560   6.889  25.092   3.332
69088W        W37561   2.930   1.475  12.430
69089W        W37562  12.310  41.843  14.985
69090W        W37563  15.246  14.324   0.328
69091W        W37564  32.477  42.953   3.359
69092W        W37565  28.091  29.034   2.280
69093W        W37566  33.045   9.357  13.953
69094W        W37567   3.722  28.621   2.399
69095W        W37568   1.442  20.270  11.077
69096W        W37569   1.256   6.880   1.729
69097W        W37570   6.901  31.901  14.481
69098W        W37571  13.843   2.868   2.313
69099W        W37572   7.888  35.514   4.313
69100W        W37573  42.466  12.776   2.818
69101W        W37574  37.066  17.242   0.311
69102W        W37575  29.081  19.618  10.942
69103W        W37576  36.430  32.461   2.218
69104W        W37577   3.883   1.861   3.247
69105W        W37578  41.928  35.508   0.857
69106W        W37579  39.061   0.338   0.377
69107W        W37580  30.090  40.987  13.910
69108W        W37581  21.701  18.243  13.028
69109W        W37582  18.611  41.295   5.207
69110W        W37583  34.397  42.430  11.596
69111W        W37584  13.194  32.945  14.012
69112W        W37585  36.479  21.211  13.516
69113W        W37586  24.519  10.691   3.383
69114W        W37587  20.645   7.885   0.270
69115W        W37588  33.525  11.187  10.550
69116W        W37589  19.644  18.787  13.393
69117W        W37590  30.118  11.722  10.992
69118W        W37591  28.484  41.038  12.994
69119W        W37592  38.072  42.917  12.477
69120W        W37593   0.262  21.685  13.401
69121W        W37594  32.939  42.494   1.853
69122W        W37595   8.785  41.405   4.133
69123W        W37596  31.972  19.225   0.364
69124W        W37597  21.036  33.028  14.486
69125W        W37598  14.746  29.433   1.297
69126W        W37599  36.374  35.891  10.902
69127W        W37600   2.787  40.522   4.200
69128W        W37601  34.073  21.108   3.357
69129W        W37602  28.159  19.600  11.460
69130W        W37603  25.973  26.071   4.621
69131W        W37604  39.977   6.413   2.757
69132W        W37605  33.889  28.595   2.383
69133W        W37606   3.336  20.211   4.126
69134W        W37607  18.206   0.472   2.852
69135W        W37608  25.597   9.257  10.906
69136W        W37609  26.503  16.158   2.362
69137W        W37610  15.310  31.921  12.909
69138W        W37611  12.672   1.812   2.731
69139W        W37612   2.285  29.639   0.422
69140W        W37613  42.953  19.745  12.953
69141W        W37614  21.096   6.199  14.459
69142W        W37615  39.506  12.312  12.887
69143W        W37616   6.767  26.173   1.239
69144W        W37617  16.764  12.351  12.022
69145W        W37618  26.558  41.833  13.392
69146W        W37619  42.367  40.991  14.397
69147W        W37620  19.063  30.032   0.836
69148W        W37621   1.433   5.840  14.011
69149W        W37622  14.659  26.646  12.830
69150W        W37623  11.128  25.673  14.901
69151W        W37624  22.695   4.276  12.998
69152W        W37625  17.775  31.070  14.938
69153W        W37626   7.260  34.003   4.287
69154W        W37627   1.780  39.544  13.923
69155W        W37628  19.686  15.330   0.967
69156W        W37629  18.582  41.024  12.891
69157W        W37630  27.125  14.131   4.652
69158W        W37631  30.427  40.049   0.276
69159W        W37632   8.713   6.691  14.391
69160W        W37633   2.950  31.498   4.713
69161W        W37634  33.521   0.751  13.404
69162W        W37635  29.099   6.789   0.804
69163W        W37636  25.567  13.105  10.644
69164W        W37637  34.971  33.487  13.826
69165W        W37638  39.965  30.445   4.825
69166W        W37639  16.200   4.859   3.800
69167W        W37640   9.326  41.305  14.487
69168W        W37641   3.755   3.441  12.445
69169W        W37642   5.830  12.335  12.430
69170W        W37643  28.050  35.585   3.689
69171W        W37644  18.264  16.575  11.607
69172W        W37645  31.129  12.692  10.105
69173W        W37646   8.303  40.832  13.905
69174W        W37647  39.434  23.121  12.547
69175W        W37648  22.623  18.649   4.713
69176W        W37649   5.740  14.263   3.670
69177W        W37650   1.472  42.290   0.442
69178W        W37651  25.206  19.722  12.892
69179W        W37652   6.362  36.358   0.454
69180W        W37653  17.666  15.604   0.953
69181W        W37654  41.863   2.875   3.242
69182W        W37655   2.760  12.185  12.953
69183W        W37656  23.618   4.317  12.344
69184W        W37657  39.386  43.374   4.762
69185W        W37658  27.470  22.605  12.349
69186W        W37659   2.245  21.567   2.181
69187W        W37660   4.418   9.169   0.851
69188W        W37661  26.568  18.161   2.773
69189W        W37662  22.504  20.198   1.321
69190W        W37663  11.349  10.778  11.106
69191W        W37664  32.569  35.005  11.412
69192W        W37665  44.418  33.607  14.994
69193W        W37666  44.276  37.945  12.852
69194W        W37667  31.987  42.800   1.859
69195W        W37668  34.517  36.872  12.927
69196W        W37669  37.958  34.500  14.938
69197W        W37670  41.369  19.114  11.414
69198W        W37671  41.505  24.058   1.829
69199W        W37672  14.269  41.974   0.763
69200W        W37673  37.510  13.700  13.516
69201W        W37674   9.798  35.876   1.277
69202W        W37675  30.503  36.555  12.518
69203W        W37676  27.145  42.344  10.930
69204W        W37677  44.950  18.583  13.873
69205W        W37678   7.198  21.115   2.780
69206W        W37679   3.348  38.364  14.989
69207W        W37680  14.770  12.833   1.390
69208W        W37681   4.255  41.921   4.343
69209W        W37682  39.044  18.065   3.191
69210W        W37683  29.135  41.880  12.864
69211W        W37684  16.756  15.754   2.215
69212W        W37685   4.810  42.929  11.385
69213W        W37686   8.164   1.915   0.417
69214W        W37687  43.371  18.733   3.379
69215W        W37688   9.855  39.865   3.678
69216W        W37689  36.957  10.803  11.031
69217W        W37690  12.737  31.541  12.577
69218W        W37691   2.802  29.653   0.812
69219W        W37692   4.704  11.188  11.414
69220W        W37693   1.273  10.147   0.341
69221W        W37694  11.665   7.319  10.456
69222W        W37695  32.013  33.020  14.961
69223W        W37696  26.536   0.372  12.867
69224W        W37697  39.938   9.719  12.561
69225W        W37698  42.406  24.555  14.383
69226W        W37699  35.016  36.966   3.665
69227W        W37700  19.260  22.226   0.426
69228W        W37701  16.096   4.366  12.494
69229W        W37702  17.152  23.562   4.329
69230W        W37703  42.809  26.075  11.965
69231W        W37704  23.046  18.066   0.376
69232W        W37705  29.656   5.926   1.376
69233W        W37706  34.497  13.781  11.928
69234W        W37707  15.747  30.575  13.511
69235W        W37708  28.989  30.107  14.011
69236W        W37709   1.424  38.384  13.927
69237W        W37710  20.539  20.624  14.031
69238W        W37711  28.553   2.341   3.804
69239W        W37712  23.035   2.738  11.075
69240W        W37713   6.923  19.726  13.032
69241W        W37714  16.263  23.699   4.195
69242W        W37715   2.863  30.641   0.930
69243W        W37716   6.291  39.875   2.878
69244W        W37717  36.864  41.981  14.335
69245W        W37718  22.718  20.592  14.930
69246W        W37719  23.722  30.984   1.252
69247W        W37720   0.434   2.289  14.353
69248W        W37721  15.822  38.074   3.865
69249W        W37722   0.448  36.440  14.005
69250W        W37723  12.271   5.695   4.641
69251W        W37724  14.106  13.264  12.371
69252W        W37725  21.247  28.638  14.370
69253W        W37726  43.943   3.764   3.805
69254W        W37727  41.472  30.996  14.364
69255W        W37728  21.632  25.577  12.453
69256W        W37729   1.411  37.871  10.923
69257W        W37730  13.237   6.259   4.712
69258W        W37731  11.127  40.005  11.490
69259W        W37732  41.009  38.518  13.867
69260W        W37733   4.849  19.534   2.299
69261W        W37734   2.806   3.853   3.371
69262W        W37735  28.104  27.019  11.110
69263W        W37736  42.846  25.026   4.250
69264W        W37737  29.540  11.149   4.700
69265W        W37738   8.668  24.637  14.396
69266W        W37739  44.328  19.177   0.891
69267W        W37740  21.108  33.379   4.792
69268W        W37741  34.966  34.940  12.459
69269W        W37742  17.133  18.063   0.474
69270W        W37743  44.438  17.140  10.906
69271W        W37744   2.778  21.131   1.244
69272W        W37745   8.172  18.290  11.441
69273W        W37746   9.156  29.492  13.977
69274W        W37747  10.683  31.454  13.448
69275W        W37748  23.028  42.889  14.789
69276W        W37749  18.779  12.348  13.972
69277W        W37750  17.703   4.225  12.827
69278W        W37751  33.032  33.981  12.041
69279W        W37752  22.659  34.956   0.960
69280W        W37753  36.909  37.926   0.737
69281W        W37754  17.782  16.750  14.891
69282W        W37755  22.225  22.062  14.437
69283W        W37756  17.078  15.195  13.390
69284W        W37757  18.195   8.758  10.617
69285W        W37758  38.983  12.321   2.695
69286W        W37759  29.925  44.367  10.443
69287W        W37760  41.415  10.769  12.537
69288W        W37761   9.655  23.140   1.303
69289W        W37762  12.277  32.133   3.280
69290W        W37763   4.356  36.093   2.855
69291W        W37764  27.472  22.071   4.354
69292W        W37765  31.604   8.693  12.376
69293W        W37766  26.515  43.427  14.409
69294W        W37767  16.312  17.630   4.669
69295W        W37768  28.097  38.489   1.901
69296W        W37769  28.162  40.917  10.923
69297W        W37770   6.886  38.489   0.406
69298W        W37771  37.346  37.438  13.804
69299W        W37772  24.164  19.776  10.491
69300W        W37773  17.139  38.017  11.439
69301W        W37774  10.293  10.240  12.376
69302W        W37775  26.690  40.304  13.393
69303W        W37776  18.555  33.463  13.530
69304W        W37777  32.576  14.755  13.530
69305W        W37778  35.458  43.009   1.804
69306W        W37779  18.718  21.174   3.656
69307W        W37780  31.088   5.284   3.724
69308W        W37781   6.193  10.273  13.342
69309W        W37782  15.091   2.286   0.750
69310W        W37783  27.042  41.821   3.158
69311W        W37784   0.916  27.505   4.726
69312W        W37785  11.701  37.556   4.768
69313W        W37786  14.116   1.879  14.001
69314W        W37787  11.793   7.352   1.913
69315W        W37788   3.348   0.436  10.466
69316W        W37789  11.250  23.178  12.829
69317W        W37790  22.693  11.726   0.372
69318W        W37791  41.348   8.822  14.473
69319W        W37792  14.264   8.357  13.976
69320W        W37793   2.305   3.312  11.470
69321W        W37794  27.948  21.524   4.777
69322W        W37795  37.884  10.142   4.163
69323W        W37796  15.219  24.576   0.765
69324W        W37797   8.807   2.883  11.973
69325W        W37798  10.843  41.301   3.285
69326W        W37799   4.346  41.462  14.799
69327W        W37800  18.678  15.107  10.904
69328W        W37801  43.784   0.309  13.805
69329W        W37802   2.734  36.443   1.236
69330W        W37803   3.940  36.374  10.478
69331W        W37804  31.602  41.847  11.045
69332W        W37805  14.808   2.859   0.895
69333W        W37806  15.646  37.399   5.287
69334W        W37807  34.001   7.276   4.174
69335W        W37808   6.728   6.804  11.867
69336W        W37809  31.451   2.259  13.347
69337W        W37810   5.715  20.219   3.297
69338W        W37811  39.352  25.596  14.292
69339W        W37812  39.856  43.779  13.340
69340W        W37813  43.929  32.032   4.810
69341W        W37814  14.098  29.669  14.803
69342W        W37815  20.622  23.109  13.832
69343W        W37816  35.896  29.003   3.319
69344W        W37817  19.720  17.206  10.511
69345W        W37818   4.285  23.180  11.512
69346W        W37819  26.193  19.133   1.415
69347W        W37820  15.110  29.646   4.333
69348W        W37821  24.610  11.863  13.539
69349W        W37822  28.077  18.204  13.911
69350W        W37823   4.909  42.823  12.041
69351W        W37824  14.157  41.895  14.993
69352W        W37825  33.115  24.539   3.751
69353W        W37826  24.023   1.357  12.842
69354W        W37827  28.626  16.723   2.180
69355W        W37828  27.605   8.822  11.983
69356W        W37829  35.514  11.730  13.970
69357W        W37830   5.254  37.862   1.347
69358W        W37831   9.267  15.594  11.412
69359W        W37832  18.080  44.422  14.375
69360W        W37833  30.488  15.816   0.284
69361W        W37834   3.456   6.705  11.514
69362W        W37835  18.673  31.444  11.903
69363W        W37836  36.488   3.311   4.604
69364W        W37837  30.597  43.824   4.690
69365W        W37838  14.138  11.152   3.203
69366W        W37839   9.773  14.750  14.800
69367W        W37840  32.393  18.617  13.537
69368W        W37841  35.878  26.061   2.738
69369W        W37842  10.279  26.612  14.429
69370W        W37843   7.861  41.372  12.022
69371W        W37844   8.728  22.721  13.873
69372W        W37845  27.092  16.174  10.989
69373W        W37846  32.997  43.367   0.449
69374W        W37847  29.487  36.484  12.478
69375W        W37848  32.524   5.847   2.353
69376W        W37849   5.778  41.482   3.302
69377W        W37850  24.178  29.493  13.448
69378W        W37851  42.506  33.102  12.990
69379W        W37852  42.861  20.715  13.480
69380W        W37853  12.191   1.321   1.695
69381W        W37854  17.204  41.799  13.998
69382W        W37855  29.652  27.483   4.140
69383W        W37856  29.473  39.914  12.397
69384W        W37857  30.055  11.285  13.326
69385W        W37858   4.821  37.504   1.931
69386W        W37859   9.251  27.611  10.405
69387W        W37860  18.177  31.966   3.775
69388W        W37861  18.251  26.667   4.289
69389W        W37862  32.568   1.449   4.673
69390W        W37863  12.839  33.118  13.521
69391W        W37864  39.961   5.278   3.676
69392W        W37865  27.679  29.558  11.063
69393W        W37866  26.476  16.316  10.600
69394W        W37867   4.834  40.308  13.952
69395W        W37868  24.589   8.771  11.471
69396W        W37869  24.014  14.696  13.833
69397W        W37870  18.232  43.994   4.211
69398W        W37871  14.662   5.255  11.907
69399W        W37872   9.346  39.342  14.485
69400W        W37873  24.598   8.388   0.878
69401W        W37874  27.010  39.959   3.639
69402W        W37875  28.581  16.774  12.408
69403W        W37876  40.892   5.290   0.285
69404W        W37877  43.292  12.192  14.488
69405W        W37878  19.117   8.749  13.016
69406W        W37879  43.310  36.475  11.521
69407W        W37880  28.523  17.702  12.514
69408W        W37881   5.354  10.222   4.153
69409W        W37882   9.313  32.991   4.156
69410W        W37883   0.966  12.834  10.504
69411W        W37884  10.745  27.579  12.998
69412W        W37885   5.704  18.639  14.425
69413W        W37886  21.690  43.274   3.824
69414W        W37887  28.436   9.232   4.697
69415W        W37888  30.581  14.744   3.682
69416W        W37889  32.134   2.748  11.932
69417W        W37890  30.656  42.913  14.299
69418W        W37891  31.644  25.644  13.894
69419W        W37892  15.636  26.475  10.156
69420W        W37893  36.948   1.763   3.219
69421W        W37894  31.482  16.283  10.594
69422W        W37895  24.671  12.291   1.902
69423W        W37896  33.418  29.428   4.256
69424W        W37897  29.944  14.729   0.939
69425W        W37898  33.903  38.329   3.805
69426W        W37899  16.094  36.440  12.851
69427W        W37900  38.523  36.915   0.310
69428W        W37901  31.896   6.733  13.984
69429W        W37902   2.964  15.241  12.972
69430W        W37903  23.656  36.569  11.974
69431W        W37904  30.125  34.964  13.043
69432W        W37905  40.027  38.049   0.330
69433W        W37906  22.028  12.683  11.943
69434W        W37907  12.353   5.744   0.962
69435W        W37908  43.354  16.273  11.125
69436W        W37909  24.223  34.568  13.502
69437W        W37910  22.506  34.409  13.029
69438W        W37911  32.512  24.094  14.767
69439W        W37912   0.431  37.924  10.965
69440W        W37913  20.665  10.228   1.435
69441W        W37914  38.459   4.305   4.257
69442W        W37915  35.358  43.981  14.449
69443W        W37916  16.313  42.965   0.461
69444W        W37917  39.057   6.248  14.921
69445W        W37918  15.247  37.917  10.024
69446W        W37919  34.424  36.004   4.826
69447W        W37920  11.851  28.082  13.808
69448W        W37921   8.368   0.749   3.841
69449W        W37922  42.005  31.601  13.892
69450W        W37923  39.923  43.410  14.445
69451W        W37924  28.165  31.023   3.694
69452W        W37925   4.363  14.278   5.149
69453W        W37926  28.447   0.833   1.704
69454W        W37927  44.400  36.544  10.622
69455W        W37928  30.160   6.360   0.759
69456W        W37929  22.593   8.818   1.808
69457W        W37930  12.836  38.518   3.327
69458W        W37931   4.441  22.623   0.394
69459W        W37932  16.739  32.135   2.225
69460W        W37933  39.524   1.893   1.384
69461W        W37934  35.939  36.445   2.746
69462W        W37935  31.404  21.710  11.384
69463W        W37936  10.313  13.829  10.626
69464W        W37937  10.299  28.597  13.512
69465W        W37938  34.042  34.962   2.878
69466W        W37939  40.440  36.527   2.315
69467W        W37940  42.353  38.930  10.428
69468W        W37941  43.279  28.466  10.505
69469W        W37942  44.473  24.680  13.828
69470W        W37943   4.448   6.872  12.858
69471W        W37944  33.035   5.925  12.463
69472W        W37945  32.458  20.607  11.545
69473W        W37946  44.827   3.426  14.296
69474W        W37947  37.570  31.022  13.350
69475W        W37948  19.701  36.069  11.999
69476W        W37949  39.948   7.265  14.389
69477W        W37950   4.442  40.407   4.141
69478W        W37951  29.042  10.155  10.410
69479W        W37952  22.522  13.188  10.971
69480W        W37953  24.513  38.341   4.671
69481W        W37954   9.390  38.853   3.745
69482W        W37955  23.541  37.833   3.244
69483W        W37956  31.014   9.793  13.846
69484W        W37957   9.654  28.500   0.427
69485W        W37958  23.063  12.160   0.869
69486W        W37959  17.125  42.334   4.260
69487W        W37960  34.088  18.615   2.273
69488W        W37961  16.659  21.105  12.010
69489W        W37962  30.613  14.765  13.349
69490W        W37963  22.721   2.923  10.515
69491W        W37964   6.384  40.447   3.158
69492W        W37965  13.626   5.270  14.025
69493W        W37966  36.075   7.679   1.896
69494W        W37967  23.216   1.821   2.700
69495W        W37968  21.512   1.444   0.307
69496W        W37969   8.826   0.752   4.180
69497W        W37970  22.196  24.099  13.962
69498W        W37971  11.829   4.404  12.343
69499W        W37972  36.471   0.408  12.937
69500W        W37973  42.367  29.595   4.608
69501W        W37974  28.072  29.542  14.417
69502W        W37975  40.871  42.405  11.533
69503W        W37976   2.832  11.310   3.670
69504W        W37977   7.255   3.378   2.753
69505W        W37978  30.573  30.957   2.342
69506W        W37979  29.003  17.604  14.941
69507W        W37980  38.968  14.810   3.227
69508W        W37981  18.600  20.698   3.166
69509W        W37982  36.514  32.938  14.415
69510W        W37983  35.888   9.789   0.254
69511W        W37984  21.073   3.265  14.030
69512W        W37985  33.463  21.753  13.372
69513W        W37986   7.816  14.122  11.902
69514W        W37987  10.321  15.789   3.854
69515W        W37988  17.587  38.888   3.643
69516W        W37989  25.620  34.559   3.217
69517W        W37990  38.443  35.946   2.192
69518W        W37991  36.485  35.371  12.340
69519W        W37992  14.114  40.314  13.308
69520W        W37993  25.062  22.586  10.928
69521W        W37994  23.108  21.570   2.847
69522W        W37995  19.768  20.227   1.246
69523W        W37996  12.331  10.219   2.669
69524W        W37997  25.972   4.936  11.995
69525W        W37998  39.520  28.089   0.474
69526W        W37999  11.242  19.243   3.703
69527W        W38000   4.410  34.887  14.405
69528W        W38001  31.052  22.214   1.851
69529W        W38002  39.975  32.895   3.232
69530W        W38003  14.253  21.557  14.906
69531W        W38004  26.685  31.002   2.821
69532W        W38005  35.495   6.305   2.698
69533W        W38006   7.246  20.733  13.377
69534W        W38007   5.786  30.066   3.161
69535W        W38008   5.322  33.974  12.402
69536W        W38009  44.815  22.011   2.342
69537W        W38010  28.588  25.639  10.524
69538W        W38011  15.606   2.920  11.961
69539W        W38012  16.131  37.336  10.989
69540W        W38013  27.588  16.750  13.867
69541W        W38014  35.034  42.883   4.790
69542W        W38015   6.869   9.837   0.373
69543W        W38016  15.640  32.397   2.200
69544W        W38017  43.511   8.801  13.036
69545W        W38018  28.076   9.251  11.096
69546W        W38019  34.920  14.286   3.742
69547W        W38020  34.909  29.050   1.874
69548W        W38021  28.625   0.817  12.087
69549W        W38022   1.407  27.130  11.400
69550W        W38023  29.627  18.575   4.123
69551W        W38024  10.328  10.161  14.971
69552W        W38025   2.863  29.588   2.901
69553W        W38026  10.822  10.820   2.765
69554W        W38027   9.190  17.725  14.966
69555W        W38028   6.191   9.260  10.912
69556W        W38029  44.894  41.916  14.328
69557W        W38030  42.846  12.701  11.043
69558W        W38031   0.346  26.569   3.695
69559W        W38032   5.879  12.648   1.259
69560W        W38033  31.061  36.394   4.613
69561W        W38034   4.758  24.126  12.847
69562W        W38035  18.285   2.906   4.815
69563W        W38036   6.369  24.094   0.747
69564W        W38037  32.522  24.098   1.380
69565W        W38038  13.708  34.475   1.783
69566W        W38039  17.573  12.270  10.495
69567W        W38040  39.458  39.843  11.910
69568W        W38041  42.776   9.193   4.678
69569W        W38042  21.159  35.869   2.727
69570W        W38043  23.551  15.755   4.297
69571W        W38044  40.303  36.884   1.787
69572W        W38045  24.220  31.898   0.439
69573W        W38046   0.342  18.240   3.834
69574W        W38047  27.609  21.741  13.958
69575W        W38048  36.519   2.465  14.349
69576W        W38049   4.226  29.057  12.416
69577W        W38050  32.395   1.867   0.769
69578W        W38051  44.477  19.162   2.372
69579W        W38052  12.739  35.903  10.413
69580W        W38053   8.255   9.874   4.723
69581W        W38054  35.977   3.814   4.700
69582W        W38055   5.704  15.686   0.936
69583W        W38056  30.163   2.254   0.761
69584W        W38057  37.036  12.733  10.956
69585W        W38058   3.220   3.837   4.241
69586W        W38059   1.891   0.892   3.848
69587W        W38060  28.117  19.224   1.921
69588W        W38061  18.280   9.175  12.567
69589W        W38062   7.708  39.423   1.374
69590W        W38063  21.668  16.576  14.015
69591W        W38064  35.986  36.415   2.261
69592W        W38065   8.715  13.226   1.709
69593W        W38066  11.724   0.756  10.097
69594W        W38067  32.390  39.339  13.956
69595W        W38068  36.851  30.137   3.863
69596W        W38069  18.677  34.956   2.821
69597W        W38070   4.759   5.382   9.647
69598W        W38071  19.597  10.312   2.776
69599W        W38072  43.482  19.156  12.559
69600W        W38073  38.999  37.574   1.279
69601W        W38074   0.332  10.721   4.149
69602W        W38075  40.453   6.858   3.743
69603W        W38076  22.173  43.811   2.309
69604W        W38077  20.154  39.042   5.132
69605W        W38078  14.645  11.227  10.925
69606W        W38079  23.095  12.324   1.882
69607W        W38080  35.505  35.369  14.891
69608W        W38081   4.751  25.554  14.296
69609W        W38082  29.044   7.290   3.258
69610W        W38083  14.732  32.103  12.956
69611W        W38084   5.424  34.379  11.401
69612W        W38085  44.876   6.693   1.736
69613W        W38086  43.820  29.463  11.590
69614W        W38087  44.002  24.977  10.527
69615W        W38088  26.991   1.249   0.468
69616W        W38089  43.840  24.654  12.847
69617W        W38090  39.431  18.760   0.392
69618W        W38091   7.791   5.405   1.925
69619W        W38092  15.204  16.806  12.842
69620W        W38093   9.704   6.813  13.910
69621W        W38094  43.886  36.040   2.315
69622W        W38095   8.694  17.608   4.732
69623W        W38096  10.871  15.795   3.785
69624W        W38097   2.832  34.039   1.342
69625W        W38098  24.007   0.944   5.252
69626W        W38099   3.851   6.840  10.968
69627W        W38100  24.656  35.534  11.889
69628W        W38101  42.975  28.069  11.877
69629W        W38102  11.158   7.228  12.964
69630W        W38103   6.770  34.553   4.680
69631W        W38104   4.215  22.595   4.299
69632W        W38105  19.732   2.265   3.271
69633W        W38106  24.639  41.801  14.966
69634W        W38107  22.154  18.276   2.824
69635W        W38108  15.603  32.926   3.316
69636W        W38109   2.811  18.269  14.972
69637W        W38110  13.141  10.777  13.351
69638W        W38111  21.720  28.133   4.729
69639W        W38112  24.590  38.953   3.769
69640W        W38113  34.885   5.226   3.213
69641W        W38114  20.135   3.395  11.592
69642W        W38115  20.581  42.899  14.488
69643W        W38116  35.054  26.584  13.415
69644W        W38117  36.083  16.109   2.770
69645W        W38118   4.757  29.924  14.318
69646W        W38119  38.387  12.252   1.382
69647W        W38120  16.250  44.812   4.715
69648W        W38121  16.756   6.782   1.262
69649W        W38122  10.809  35.044  13.404
69650W        W38123  30.496  20.253   5.124
69651W        W38124  31.641  21.748   0.367
69652W        W38125  33.522  41.936   3.376
69653W        W38126  25.617   4.894  12.514
69654W        W38127  21.558   2.742  14.778
69655W        W38128  33.382  22.092  13.347
69656W        W38129  19.627   8.189   1.916
69657W        W38130  42.483  41.963   1.710
69658W        W38131   1.800  39.453   1.370
69659W        W38132  21.261  12.627  12.402
69660W        W38133  23.217   0.930   0.476
69661W        W38134   8.867  10.183   2.419
69662W        W38135   1.815   3.730  12.481
69663W        W38136  35.462   8.282   4.797
69664W        W38137  14.130  33.123   0.327
69665W        W38138   9.272  29.143   2.394
69666W        W38139  32.005   1.290   2.727
69667W        W38140  43.307  25.210   3.671
69668W        W38141  14.182  26.545   1.884
69669W        W38142  27.174  33.423  14.419
69670W        W38143   1.323  22.006  14.928
69671W        W38144  29.667  23.639  11.482
69672W        W38145  32.555  34.062  14.777
69673W        W38146   0.787   0.365  14.804
69674W        W38147  33.006  42.787  13.520
69675W        W38148  24.125   5.924   4.722
69676W        W38149  20.566  12.179   4.700
69677W        W38150  29.131  26.171  14.776
69678W        W38151  43.826  27.136  11.026
69679W        W38152  25.193  11.781   5.087
69680W        W38153  33.615  30.102  11.477
69681W        W38154  36.072  10.873  13.992
69682W        W38155  41.295  23.061  12.405
69683W        W38156   1.259  20.749  12.887
69684W        W38157   9.762  27.178   0.918
69685W        W38158  39.990   4.353  14.388
69686W        W38159  13.763   6.190  14.818
69687W        W38160  11.143   8.352   2.196
69688W        W38161  22.647  32.928   3.203
69689W        W38162  41.853  20.567   1.212
69690W        W38163  34.457  44.947  12.927
69691W        W38164  18.728  16.577  10.089
69692W        W38165  10.651  12.813  10.946
69693W        W38166   3.725  25.034  13.003
69694W        W38167   2.432  34.057   2.356
69695W        W38168  43.975  22.055   0.730
69696W        W38169   1.401  12.336  14.914
69697W        W38170  40.946  39.892   3.203
69698W        W38171  40.363  15.324  11.010
69699W        W38172  23.699  22.112  14.326
69700W        W38173   9.711  16.589  11.377
69701W        W38174   3.314  20.158   3.286
69702W        W38175  20.168  35.482   3.305
69703W        W38176  33.988  25.535  12.888
69704W        W38177  28.096  33.041  12.983
69705W        W38178  29.515   9.836  13.327
69706W        W38179  31.113  35.063   4.689
69707W        W38180  34.592  17.251  12.435
69708W        W38181  36.927  31.912  13.962
69709W        W38182  39.005  29.048  11.504
69710W        W38183   9.190  40.540   2.365
69711W        W38184   3.827  17.736  10.595
69712W        W38185  10.811  33.099   4.637
69713W        W38186  17.586  32.127   3.365
69714W        W38187  15.605  20.064   3.254
69715W        W38188  38.917  18.674  13.540
69716W        W38189  16.584  31.063  12.546
69717W        W38190  19.726   7.328   2.188
69718W        W38191  12.116   8.782   4.261
69719W        W38192   7.396   4.275   0.263
69720W        W38193  19.724  13.177  10.573
69721W        W38194  17.658  43.851  12.502
69722W        W38195  25.470  15.814   2.322
69723W        W38196  26.115  41.848   2.833
69724W        W38197  25.546  20.068   1.890
69725W        W38198  41.902  42.917  12.824
69726W        W38199   2.331  16.230   2.373
69727W        W38200  17.087  42.459  13.448
69728W        W38201  42.345  38.033   1.312
69729W        W38202  25.099   9.338   1.891
69730W        W38203  13.199  28.651   2.231
69731W        W38204  23.165  30.592   0.354
69732W        W38205   0.902  22.586   4.287
69733W        W38206  18.141  40.906   4.334
69734W        W38207  10.295  19.619  10.939
69735W        W38208  17.170  11.288  10.953
69736W        W38209  10.315   9.725  13.544
69737W        W38210   7.274  14.340   0.749
69738W        W38211  44.348  27.533  14.833
69739W        W38212  42.519  33.474  14.759
69740W        W38213  10.312  20.605  14.444
69741W        W38214   9.235  15.111  13.995
69742W        W38215   7.412   0.960  12.378
69743W        W38216  18.262  17.275  12.355
69744W        W38217  18.228  33.887   1.742
69745W        W38218   4.251  35.862   1.387
69746W        W38219  14.758  25.586  14.437
69747W        W38220   4.405  27.180  13.532
69748W        W38221  28.964  40.371  14.516
69749W        W38222  24.981  14.719  11.120
69750W        W38223  30.048   9.177   3.314
69751W        W38224  31.099  29.014  11.523
69752W        W38225  14.105  14.813  13.048
69753W        W38226  42.344  10.332  14.899
69754W        W38227  24.975  28.626  11.557
69755W        W38228  25.209  22.561  12.035
69756W        W38229  27.594  41.381   4.118
69757W        W38230  35.107   4.932   0.765
69758W        W38231  36.373  32.142  13.380
69759W        W38232  44.902  29.013   2.873
69760W        W38233   3.928  39.007   1.408
69761W        W38234  27.993  37.848   2.243
69762W        W38235  22.500  25.007   1.215
69763W        W38236   4.382   6.914  10.411
69764W        W38237  35.040  13.827   3.659
69765W        W38238  17.263  44.374   1.782
69766W        W38239   3.873  23.707  12.379
69767W        W38240   1.790   5.278   0.446
69768W        W38241  32.124  27.168  13.888
69769W        W38242   4.833  17.068  13.534
69770W        W38243  25.997  36.573   4.127
69771W        W38244  10.193  12.612   5.085
69772W        W38245  20.639  14.824   1.427
69773W        W38246   3.282  12.317   1.450
69774W        W38247   9.863  26.037  12.433
69775W        W38248  40.010  11.151  11.391
69776W        W38249  43.837   1.390   0.841
69777W        W38250  21.682   7.908   0.450
69778W        W38251  15.784  21.657   3.165
69779W        W38252  44.342   6.811   4.640
69780W        W38253  31.403  37.344  11.984
69781W        W38254  23.105   1.888  13.830
69782W        W38255  31.015  22.527   2.858
69783W        W38256  28.976  21.168   4.679
69784W        W38257  27.001  30.005  14.488
69785W        W38258  13.174  24.598  13.894
69786W        W38259  17.667  36.048   0.858
69787W        W38260   5.788  40.020   4.224
69788W        W38261   0.921  21.742   0.451
69789W        W38262   3.452  34.876  11.452
69790W        W38263  40.313  35.001  14.396
69791W        W38264  16.795  13.750   3.159
69792W        W38265  21.072  19.576   0.300
69793W        W38266   6.352  44.327  12.860
69794W        W38267  24.204  14.278   5.283
69795W        W38268  16.114  18.087   0.294
69796W        W38269  11.363  13.618  10.502
69797W        W38270   9.197  39.877  12.890
69798W        W38271   5.755  10.779  12.039
69799W        W38272  12.336   9.392  13.479
69800W        W38273  25.608  32.141   0.391
69801W        W38274  12.679  14.098   4.266
69802W        W38275  31.429  44.960  12.085
69803W        W38276  18.178  35.861   3.743
69804W        W38277  33.410  35.511   4.145
69805W        W38278  37.862  23.531  11.526
69806W        W38279   7.292  13.117   3.300
69807W        W38280   6.410   8.766   0.729
69808W        W38281  15.808  44.865   1.372
69809W        W38282  15.323  26.954  12.926
69810W        W38283  16.722  12.234   3.757
69811W        W38284  39.400  22.510   2.195
69812W        W38285  18.727  41.846  10.938
69813W        W38286  19.748  29.440  11.481
69814W        W38287  42.974  34.607   3.235
69815W        W38288  24.099  44.261   1.806
69816W        W38289  18.680  12.745   4.323
69817W        W38290  12.750  38.337   2.193
69818W        W38291  41.909   0.408   3.160
69819W        W38292   3.313  23.561   3.205
69820W        W38293  19.195  32.440   1.722
69821W        W38294  13.105  36.523  12.520
69822W        W38295  32.474  30.543   4.786
69823W        W38296  23.575  14.779  10.557
69824W        W38297  17.186  44.426  11.403
69825W        W38298   8.403  19.278  11.575
69826W        W38299  12.731  23.129   2.834
69827W        W38300   7.874  26.660  12.860
69828W        W38301   1.968  41.821  12.836
69829W        W38302   5.780  42.481  10.603
69830W        W38303  36.417  37.994  13.332
69831W        W38304  32.479  26.986   0.912
69832W        W38305  12.675  21.578   4.774
69833W        W38306  12.146  27.540   0.347
69834W        W38307  19.650  23.156   2.877
69835W        W38308  34.427  31.644   4.341
69836W        W38309  17.079  10.248  13.823
69837W        W38310  26.544  26.587  10.511
69838W        W38311  29.919  15.218   3.194
69839W        W38312  10.172   8.161   1.914
69840W        W38313  14.675  35.942   4.808
69841W        W38314  41.422   7.669  11.418
69842W        W38315  33.616   8.166   1.697
69843W        W38316   2.924   5.712  10.461
69844W        W38317   0.368  41.005  14.983
69845W        W38318   1.790  44.924   3.291
69846W        W38319   3.337  14.833   0.937
69847W        W38320  37.951  28.091  11.572
69848W        W38321  41.827  29.029   1.908
69849W        W38322  11.312  40.011   0.779
69850W        W38323   8.212  27.669  13.883
69851W        W38324   5.720   0.267  12.496
69852W        W38325  38.061   5.701  14.377
69853W        W38326  27.663  24.599  10.632
69854W        W38327   2.760  34.466   4.625
69855W        W38328  24.708  12.798  13.534
69856W        W38329  40.374   0.783  12.899
69857W        W38330  28.152  39.446  13.906
69858W        W38331  36.500  21.172   4.278
69859W        W38332  16.301   9.739  11.990
69860W        W38333   9.806  31.430   0.299
69861W        W38334  30.161  38.565  14.971
69862W        W38335  15.614  34.073   2.831
69863W        W38336   9.738  21.148   1.725
69864W        W38337  35.867   7.876  12.870
69865W        W38338  19.598  39.529   3.270
69866W        W38339  35.859  43.961  11.999
69867W        W38340  35.020  14.114   0.793
69868W        W38341  37.478  10.219  14.995
69869W        W38342  11.852  27.565  11.110
69870W        W38343  23.191  25.002   0.261
69871W        W38344  23.149  19.215  11.979
69872W        W38345   4.761  11.828  13.898
69873W        W38346  14.710  25.711   0.873
69874W        W38347  23.228  13.246  11.482
69875W        W38348  41.347  38.071   1.843
69876W        W38349   6.917  15.176  11.076
69877W        W38350  42.374  39.472  14.309
69878W        W38351  19.109  36.061   1.314
69879W        W38352   8.733   7.328  14.495
69880W        W38353   5.262  17.655  13.860
69881W        W38354  14.630   1.262  11.041
69882W        W38355  40.827  37.882   3.692
69883W        W38356  42.933  40.496  13.970
69884W        W38357  20.126   9.184   4.261
69885W        W38358  40.511  24.585   2.888
69886W        W38359   8.403   0.444   1.218
69887W        W38360  22.683  13.347   2.311
69888W        W38361  31.055  42.368  13.500
69889W        W38362   1.317  21.550   0.824
69890W        W38363  23.497  16.232   3.710
69891W        W38364  41.903  36.474   2.403
69892W        W38365   8.339  41.829  14.341
69893W        W38366  42.519   3.315   1.346
69894W        W38367  23.090  10.871  10.423
69895W        W38368  17.107  17.674  13.479
69896W        W38369   5.382  35.914   3.166
69897W        W38370  26.646  12.654   2.813
69898W        W38371  38.464  18.590   1.424
69899W        W38372  27.486  18.076  12.420
69900W        W38373  39.842   2.896  10.455
69901W        W38374   7.702  10.741  14.351
69902W        W38375  22.064  12.170   1.770
69903W        W38376   0.352  24.119   1.275
69904W        W38377  35.459  41.449  11.923
69905W        W38378  23.613  10.665   0.946
69906W        W38379  19.166  16.279  10.487
69907W        W38380  12.775  23.567   2.284
69908W        W38381  32.585   2.226   0.444
69909W        W38382  31.130  26.160  11.590
69910W        W38383  19.071  25.121   3.715
69911W        W38384  40.936   0.460  10.457
69912W        W38385  34.057  11.229  13.902
69913W        W38386  18.566  40.381   0.253
69914W        W38387  21.585  11.757  11.011
69915W        W38388  33.991  44.400  12.425
69916W        W38389  14.101   3.833   1.395
69917W        W38390  10.837  24.154   2.270
69918W        W38391  13.654   2.956  11.111
69919W        W38392  23.646  43.860  10.992
69920W        W38393   4.273  26.537   1.865
69921W        W38394  14.781   4.842   0.477
69922W        W38395  36.057   4.439   0.302
69923W        W38396  23.041  33.455  11.600
69924W        W38397  32.084   2.753   4.733
69925W        W38398  30.448  32.895  14.953
69926W        W38399  33.995  33.515  12.506
69927W        W38400  26.020   7.798   1.412
69928W        W38401   9.272  43.496  13.932
69929W        W38402  40.004  22.107  12.521
69930W        W38403  42.909  41.966  13.316
69931W        W38404  18.125  28.136   4.312
69932W        W38405  35.926  16.269   1.746
69933W        W38406  26.523  25.593   4.624
69934W        W38407  10.277  40.839   3.687
69935W        W38408  20.745  37.555   2.793
69936W        W38409  43.954   1.251  13.804
69937W        W38410  32.025  26.089   3.317
69938W        W38411  42.339   9.744  11.469
69939W        W38412  27.584   0.369  14.922
69940W        W38413  12.726   2.259   2.898
69941W        W38414  21.102  38.988   4.209
69942W        W38415  37.345  13.845   0.427
69943W        W38416  16.658  32.938   2.717
69944W        W38417   8.197  23.148   5.584
69945W        W38418  26.186   2.831   2.329
69946W        W38419   2.815  35.558   3.798
69947W        W38420  43.975   3.354   3.868
69948W        W38421  10.194   3.865  14.862
69949W        W38422  38.566   8.696  10.574
69950W        W38423  42.351   6.808  12.892
69951W        W38424  25.115  35.887  13.035
69952W        W38425  21.663  19.052   0.413
69953W        W38426  39.475  18.761   0.911
69954W        W38427  18.591   8.362  14.360
69955W        W38428  15.267  33.535  10.961
69956W        W38429  23.188  17.271  10.444
69957W        W38430  24.497  40.911  12.078
69958W        W38431  44.483  35.106  11.958
69959W        W38432  26.468  38.069  13.437
69960W        W38433  40.903  27.010  12.841
69961W        W38434  24.195  21.745   0.271
69962W        W38435  30.534  37.513   2.230
69963W        W38436   5.842  30.443   3.694
69964W        W38437  42.451  12.116   2.266
69965W        W38438   6.416  16.115  11.606
69966W        W38439  30.447   5.721   4.661
69967W        W38440   5.428  32.436  13.364
69968W        W38441  25.668  18.207  12.451
69969W        W38442  22.644  19.092   1.334
69970W        W38443  22.068  21.524  14.478
69971W        W38444  35.495   6.715  10.479
69972W        W38445   2.921  37.874  13.901
69973W        W38446  16.281  11.806   1.219
69974W        W38447  39.485  22.081  12.842
69975W        W38448   6.380   1.917  10.952
69976W        W38449   0.342  43.478  14.866
69977W        W38450  14.729  32.602   4.304
69978W        W38451   2.323  27.947   3.712
69979W        W38452  28.579  38.844  13.506
69980W        W38453  31.430   1.785   1.301
69981W        W38454  36.358   8.355   4.341
69982W        W38455  25.562  35.385  12.532
69983W        W38456  27.059  26.677   3.713
69984W        W38457  14.789  11.731   0.866
69985W        W38458  28.609   0.832  10.612
69986W        W38459  40.504  34.395   2.201
69987W        W38460  17.256  36.003  11.487
69988W        W38461   1.890  24.501  13.921
69989W        W38462  33.509  14.120   5.290
69990W        W38463  24.634  42.440  13.797
69991W        W38464  18.098  18.241   1.356
69992W        W38465   2.360  20.166  12.890
69993W        W38466  41.480  26.015  10.978
69994W        W38467   2.440  44.762  11.088
69995W        W38468  36.851   6.328   3.236
69996W        W38469  33.995  39.536   1.390
69997W        W38470  28.624   9.257   0.939
69998W        W38471   1.382  36.982   1.817
69999W        W38472  18.685  32.606  12.909
70000W        W38473  21.223  28.540   2.698
70001W        W38474  40.305  28.160   5.217
70002W        W38475  37.065  28.091  10.947
70003W        W38476  27.595  18.607  13.061
70004W        W38477  30.483  17.189   3.236
70005W        W38478  31.454  20.230  12.074
70006W        W38479   6.298  38.488  11.865
70007W        W38480  28.004  39.426   4.344
70008W        W38481  10.806  43.342   3.216
70009W        W38482  22.629  30.004   0.464
70010W        W38483  21.101  33.478  11.902
70011W        W38484   5.342  32.427   0.884
70012W        W38485  23.173  20.640   3.307
70013W        W38486  15.759  31.472   2.234
70014W        W38487  19.673  33.466  10.510
70015W        W38488  36.050  36.984   0.283
70016W        W38489   6.732  11.851  10.632
70017W        W38490  24.578  36.585  12.422
70018W        W38491  33.431  34.373   0.767
70019W        W38492  16.206  42.503   3.812
70020W        W38493  19.550  23.674   2.240
70021W        W38494  38.473   7.680  12.038
70022W        W38495  12.347  39.421   0.750
70023W        W38496  10.279  11.259   0.253
70024W        W38497  23.018  38.956   1.314
70025W        W38498  42.458  33.098   4.173
70026W        W38499  17.705  24.640  13.954
70027W        W38500  33.105   1.748   4.696
70028W        W38501  37.868  44.940  11.489
70029W        W38502  21.200  32.632   2.673
70030W        W38503   9.712  29.628  12.347
70031W        W38504  11.734  14.239  10.630
70032W        W38505  23.232  26.017   4.733
70033W        W38506   1.455  38.424   0.928
70034W        W38507  15.252   4.913  14.760
70035W        W38508  34.892   8.341  11.081
70036W        W38509  39.862   2.261   3.199
70037W        W38510  30.058  28.629   4.744
70038W        W38511   6.749  21.666   2.762
70039W        W38512  43.436  17.072  13.374
70040W        W38513   5.286  17.699   1.904
70041W        W38514  42.389  10.711  10.938
70042W        W38515  43.279  19.621  12.446
70043W        W38516  12.766  24.717   0.888
70044W        W38517  25.641  32.488  10.568
70045W        W38518  28.162  27.515   3.245
70046W        W38519  12.319  43.378  11.571
70047W        W38520  17.613  27.599   3.641
70048W        W38521  28.172  12.232  12.914
70049W        W38522  22.660  11.315  14.838
70050W        W38523  37.881  29.572  11.400
70051W        W38524   5.901   7.408   5.173
70052W        W38525  26.067  14.098  11.563
70053W        W38526  28.048  18.612  14.025
70054W        W38527  33.432   0.859   2.355
70055W        W38528  34.409  21.157   2.800
70056W        W38529  30.446  31.145  13.910
70057W        W38530  30.604  11.787  11.395
70058W        W38531  18.180  33.076  12.852
70059W        W38532  28.101  33.379   4.651
70060W        W38533  32.017  27.182  14.378
70061W        W38534  37.061  31.515   1.790
70062W        W38535  23.052  37.373  15.000
70063W        W38536   4.897  34.901   0.873
70064W        W38537  43.361   7.833  13.367
70065W        W38538   2.752  31.978   1.428
70066W        W38539  23.161  20.188  14.352
70067W        W38540  29.980  39.519   3.773
70068W        W38541  26.175  30.912  11.454
70069W        W38542  41.362  11.324   2.357
70070W        W38543  35.531  39.922   0.349
70071W        W38544  22.194  37.850   4.180
70072W        W38545  27.470  31.466   3.284
70073W        W38546  43.475  18.593  13.534
70074W        W38547  20.690   4.207   3.325
70075W        W38548  43.430  34.562   1.319
70076W        W38549  18.050  21.622   4.181
70077W        W38550   7.179   5.802  11.014
70078W        W38551  15.775  26.118   2.322
70079W        W38552   9.731  26.014   4.352
70080W        W38553  35.049   9.199  11.441
70081W        W38554  25.167  34.083   3.228
70082W        W38555  31.132   8.341  13.375
70083W        W38556   6.749  33.402  10.970
70084W        W38557  24.685  13.817  11.951
70085W        W38558   6.355  40.046   4.829
70086W        W38559  20.047   3.378  11.895
70087W        W38560  39.488  19.200  11.109
70088W        W38561   6.714   9.379   4.175
70089W        W38562  32.496  28.618   2.755
70090W        W38563  27.031  31.082  12.426
70091W        W38564   7.775   7.347  11.533
70092W        W38565  15.786  22.071   3.361
70093W        W38566   8.767  27.070   0.793
70094W        W38567  44.850  16.677   2.274
70095W        W38568  22.141  44.915  13.018
70096W        W38569   8.719  39.354   1.438
70097W        W38570  10.873  33.029   1.716
70098W        W38571  37.039  32.395   1.788
70099W        W38572   8.275  22.707   4.226
70100W        W38573  39.492   6.721   2.862
70101W        W38574  32.045  28.536  11.869
70102W        W38575   2.843  44.942   1.856
70103W        W38576   6.399   6.835  13.987
70104W        W38577  12.732  14.786   0.330
70105W        W38578   3.300  41.987  11.407
70106W        W38579  32.454  43.813   5.753
70107W        W38580  40.385   6.910  12.047
70108W        W38581   6.810  16.108  12.402
70109W        W38582  30.453  11.635  14.371
70110W        W38583  28.452  37.377   0.763
70111W        W38584  16.607  23.642   4.764
70112W        W38585  18.603  39.827   2.778
70113W        W38586  34.602   6.349   2.718
70114W        W38587  21.141  10.312   4.285
70115W        W38588   7.300   5.429  12.094
70116W        W38589  33.527  43.821   4.759
70117W        W38590  40.375  16.592   0.470
70118W        W38591  16.760  25.693   1.220
70119W        W38592  42.800   7.872  11.462
70120W        W38593  36.939  18.764   2.704
70121W        W38594  28.519  26.199   3.238
70122W        W38595  12.275  28.974   4.341
70123W        W38596  30.588  29.045   2.903
70124W        W38597  23.105  31.123   0.916
70125W        W38598   2.806   8.850  13.416
70126W        W38599   5.258  35.065  11.129
70127W        W38600  29.625  19.170  13.801
70128W        W38601  13.276   3.431  13.485
70129W        W38602  36.408   7.838  13.043
70130W        W38603  38.854  33.066  11.984
70131W        W38604   3.917  12.181   2.197
70132W        W38605  15.797  43.515  14.869
70133W        W38606  17.585   8.852  10.569
70134W        W38607  35.864  31.416   4.607
70135W        W38608  29.610  18.718  10.574
70136W        W38609  24.657  14.298   3.184
70137W        W38610  40.511  19.594   2.898
70138W        W38611  11.860  19.204   1.376
70139W        W38612   5.396  18.057  11.861
70140W        W38613  13.230  11.294  10.977
70141W        W38614  32.119   5.285  14.853
70142W        W38615  11.634   9.198  13.449
70143W        W38616  33.426  35.985   0.793
70144W        W38617  13.329   8.743  13.510
70145W        W38618  43.802   6.721  12.074
70146W        W38619  17.710   6.885  10.910
70147W        W38620  37.432   3.373   1.918
70148W        W38621  13.268  14.315  10.410
70149W        W38622  14.833  34.377  14.292
70150W        W38623   8.312  40.366  11.063
70151W        W38624  44.888  18.624  10.956
70152W        W38625   2.823  23.116   0.462
70153W        W38626  35.994  14.701   0.910
70154W        W38627  44.330  36.445   2.281
70155W        W38628  32.929  20.199  11.564
70156W        W38629   7.903  32.057   0.774
70157W        W38630  11.723  21.703   1.416
70158W        W38631  29.102  35.924  13.412
70159W        W38632  11.782  19.588  14.911
70160W        W38633   6.703   9.767  13.896
70161W        W38634  11.741   8.779   2.877
70162W        W38635  29.626  38.548   3.633
70163W        W38636  42.524   5.864  10.617
70164W        W38637  25.582   2.308   0.802
70165W        W38638  15.196  29.443  13.795
70166W        W38639  21.674  30.146  14.332
70167W        W38640   8.861   0.887   1.434
70168W        W38641  41.877  39.484  14.030
70169W        W38642   7.364  18.594   0.269
70170W        W38643  39.903   1.823  13.367
70171W        W38644  38.002  11.282   4.267
70172W        W38645  23.993  10.381   1.926
70173W        W38646  19.564   8.780  11.094
70174W        W38647  23.624  41.806   3.816
70175W        W38648  40.892  27.987  11.607
70176W        W38649  29.632   4.269   4.792
70177W        W38650  16.719  18.079  12.453
70178W        W38651   6.248  10.203   3.669
70179W        W38652  21.684  39.359   3.155
70180W        W38653   2.429   9.168   3.237
70181W        W38654  36.427  24.186  13.427
70182W        W38655  43.375  28.052   3.387
70183W        W38656  37.482  37.497   1.881
70184W        W38657  37.461  23.555   4.247
70185W        W38658  15.783  12.646   1.331
70186W        W38659   4.245  24.074   0.740
70187W        W38660   0.260  15.623   1.791
70188W        W38661  33.478   3.786  13.314
70189W        W38662   6.187  34.570   3.309
70190W        W38663  41.919  15.129  14.495
70191W        W38664  37.498  23.110   2.343
70192W        W38665  18.101  42.888   1.872
70193W        W38666  14.627  22.174  14.783
70194W        W38667  35.104  39.039   5.128
70195W        W38668  39.530  29.537   2.289
70196W        W38669  30.960  41.954   4.788
70197W        W38670   3.803  10.866  14.472
70198W        W38671  41.294  12.611   0.747
70199W        W38672  25.162   5.258  14.015
70200W        W38673   2.723  41.454   4.339
70201W        W38674  38.379   1.914   0.413
70202W        W38675   4.862  21.040   0.451
70203W        W38676   0.821  34.445   3.863
70204W        W38677   6.893  16.676  14.448
70205W        W38678  18.134  44.422  14.953
70206W        W38679  31.543  17.791  11.919
70207W        W38680  36.431  31.019  10.591
70208W        W38681  33.971  21.567   1.388
70209W        W38682  30.090   0.381   0.870
70210W        W38683  11.769  30.415  13.824
70211W        W38684  32.001  39.964   4.790
70212W        W38685  37.927  35.919   4.132
70213W        W38686  13.826  27.685  14.343
70214W        W38687  32.471   4.845  12.481
70215W        W38688  13.116  44.858  12.534
70216W        W38689  28.671  34.497  12.992
70217W        W38690   1.470   6.400  12.948
70218W        W38691  33.571  32.407   1.258
70219W        W38692  40.435  40.826  14.503
70220W        W38693  18.224  27.094  12.371
70221W        W38694   8.197  29.504  11.926
70222W        W38695  21.164  14.683  11.921
70223W        W38696  36.055  12.850   3.228
70224W        W38697  20.579  33.496   1.415
70225W        W38698  37.924   7.719   4.194
70226W        W38699  25.499  33.050  14.336
70227W        W38700  31.144  14.103  13.382
70228W        W38701  12.829  35.004  14.505
70229W        W38702   9.286  28.124  12.841
70230W        W38703  35.944  11.351   4.676
70231W        W38704   7.361  15.786   9.946
70232W        W38705  37.855   1.362   2.902
70233W        W38706  13.212   3.755   0.793
70234W        W38707  24.026  27.600   4.647
70235W        W38708   8.719   3.946  13.343
70236W        W38709  14.727   3.800   2.812
70237W        W38710  24.485  40.868   2.769
70238W        W38711   7.694  41.504   0.745
70239W        W38712  35.501  27.154   1.844
70240W        W38713  37.841  28.580   2.214
70241W        W38714  27.647  34.925   1.355
70242W        W38715  17.565  29.603   4.291
70243W        W38716   2.782  12.169   4.325
70244W        W38717   5.784   9.345   1.836
70245W        W38718  37.036  36.084  13.948
70246W        W38719  11.172  33.033  10.988
70247W        W38720   9.833   9.866   0.481
70248W        W38721   3.914   3.929  14.364
70249W        W38722  15.730  12.776   4.738
70250W        W38723  23.054  35.568  12.493
70251W        W38724  22.122  31.987  11.971
70252W        W38725  40.033   0.439  13.859
70253W        W38726  28.091  17.620   1.711
70254W        W38727  43.306  18.718   1.851
70255W        W38728  34.602  25.963  14.997
70256W        W38729  22.031   3.246   3.663
70257W        W38730  15.700  42.935   4.732
70258W        W38731  16.684   8.284   2.760
70259W        W38732  39.833  39.997  12.484
70260W        W38733  15.165   8.359  13.325
70261W        W38734  37.966  26.557  14.446
70262W        W38735   3.417  29.624   2.727
70263W        W38736  23.665  11.264  10.944
70264W        W38737  17.746  14.780   1.799
70265W        W38738   3.441  11.333  10.418
70266W        W38739   6.835  11.168   4.220
70267W        W38740  24.597  20.041   2.372
70268W        W38741  27.462  38.395   4.141
70269W        W38742  32.932  44.866   3.821
70270W        W38743   5.809   8.702  11.951
70271W        W38744  29.013  35.909  11.561
70272W        W38745  20.555  41.992  14.349
70273W        W38746  25.126  30.984  10.545
70274W        W38747  22.664  42.974  11.017
70275W        W38748  37.355  38.464  13.022
70276W        W38749  33.545  36.096  11.100
70277W        W38750  10.812   5.346  13.938
70278W        W38751   2.441  35.431   1.843
70279W        W38752  11.181  11.307   0.302
70280W        W38753  31.008   1.759   4.313
70281W        W38754   5.347  31.487  13.019
70282W        W38755   9.260   8.215   2.755
70283W        W38756  42.481  28.534  11.559
70284W        W38757  12.293  11.158  13.012
70285W        W38758   8.884  15.736   4.240
70286W        W38759  35.394  29.578  12.954
70287W        W38760   6.820  31.078  13.804
70288W        W38761  14.122  18.171  13.883
70289W        W38762  40.306  41.419  11.951
70290W        W38763   3.863  40.839   4.243
70291W        W38764  39.370  29.009  14.013
70292W        W38765   5.792  27.089   4.688
70293W        W38766  23.014  44.827   4.810
70294W        W38767  39.940  43.999  13.860
70295W        W38768  19.540  18.121   0.761
70296W        W38769   2.839  15.649  13.966
70297W        W38770  41.044   3.219  12.388
70298W        W38771  37.511   9.812  10.422
70299W        W38772   9.203  14.766   1.722
70300W        W38773  30.459  15.295   4.216
70301W        W38774  30.526  38.389  14.308
70302W        W38775  14.589  31.092   4.143
70303W        W38776  31.609  35.432  13.028
70304W        W38777  44.471  42.356   0.827
70305W        W38778  41.789  21.687  11.386
70306W        W38779   0.961  20.238   2.742
70307W        W38780  33.420  25.084   5.094
70308W        W38781  31.425  42.381  10.511
70309W        W38782  30.598   5.852   0.463
70310W        W38783  13.756  31.484  12.976
70311W        W38784  34.992  15.652  12.971
70312W        W38785   1.898  24.667   4.320
70313W        W38786  33.056  41.321  13.980
70314W        W38787  30.919  40.365   2.250
70315W        W38788  21.099   1.952   4.332
70316W        W38789  40.015  17.747  14.879
70317W        W38790  10.273  39.509   3.226
70318W        W38791  23.032  43.296   2.892
70319W        W38792   0.768  41.959   4.703
70320W        W38793  38.358  36.070  11.064
70321W        W38794  22.648   9.173  11.007
70322W        W38795  41.418  26.110   3.643
70323W        W38796   5.424  37.981  10.404
70324W        W38797  24.116  31.477  10.951
70325W        W38798  14.594  27.507  11.972
70326W        W38799  35.480  21.125  10.945
70327W        W38800  26.011  15.774   3.838
70328W        W38801  42.417  14.252   1.724
70329W        W38802   5.709  11.253  12.516
70330W        W38803   7.414  35.897   3.851
70331W        W38804   2.396  30.579  11.522
70332W        W38805   9.298   9.776   0.354
70333W        W38806  40.437  33.892   2.321
70334W        W38807  24.693  17.760   4.823
70335W        W38808   6.859  11.172   0.862
70336W        W38809  26.634  39.038   3.323
70337W        W38810  41.836   7.733   4.707
70338W        W38811  23.537  29.107  14.953
70339W        W38812  25.194  34.085   2.355
70340W        W38813   5.400   6.793   1.922
70341W        W38814  28.660  36.539  14.767
70342W        W38815  34.910  16.720   4.689
70343W        W38816  14.750  32.972  13.985
70344W        W38817  23.072  28.183  13.939
70345W        W38818  35.899  44.404   2.376
70346W        W38819   0.262  40.339   3.841
70347W        W38820   8.294  22.553   4.688
70348W        W38821  44.313  33.005   9.929
70349W        W38822  22.677  10.364  10.992
70350W        W38823  14.298  33.929  12.520
70351W        W38824  11.744  26.147   3.196
70352W        W38825  40.382   7.714   3.147
70353W        W38826  24.195  30.451   4.653
70354W        W38827  10.710  13.602   0.324
70355W        W38828   4.391  14.796  10.008
70356W        W38829  32.903  34.112   2.281
70357W        W38830  11.819  33.619   2.872
70358W        W38831  34.422  42.018  12.900
70359W        W38832  44.907  15.721   0.757
70360W        W38833  28.647  14.179   2.854
70361W        W38834   1.888  23.694  13.944
70362W        W38835  36.411   4.423  13.841
70363W        W38836  10.146  15.293  13.907
70364W        W38837   3.794   5.816  10.564
70365W        W38838   1.280  11.289  10.556
70366W        W38839  15.261  44.789   0.917
70367W        W38840  31.644   6.307   0.261
70368W        W38841   1.739  25.068   4.618
70369W        W38842  23.984  17.745   0.892
70370W        W38843  37.987   8.878  13.540
70371W        W38844  41.292  23.560  14.855
70372W        W38845   9.884  37.867  10.636
70373W        W38846  42.824  27.499  11.401
70374W        W38847  28.601  13.176   3.655
70375W        W38848  44.456   0.441   3.801
70376W        W38849  12.822   8.781   3.725
70377W        W38850  14.176   0.251  10.981
70378W        W38851  33.042  34.519   0.889
70379W        W38852  17.751  30.095  13.903
70380W        W38853  16.790  37.336   3.334
70381W        W38854  29.997  30.535   3.852
70382W        W38855  13.126  34.437  13.064
70383W        W38856  33.548   8.298   0.465
70384W        W38857  31.044  36.047  14.839
70385W        W38858  14.723   5.345  13.012
70386W        W38859   7.360   8.781  11.536
70387W        W38860  16.171  31.589  10.945
70388W        W38861  16.301  36.901  12.441
70389W        W38862  42.833   5.908  12.080
70390W        W38863  37.377  13.715   1.923
70391W        W38864  26.612  35.070   3.663
70392W        W38865  25.658  21.104  10.119
70393W        W38866  25.210  40.934   4.763
70394W        W38867  35.005   4.780  13.057
70395W        W38868  15.785  44.320   4.679
70396W        W38869  40.511  15.130   3.701
70397W        W38870   0.265  10.163   1.234
70398W        W38871  41.378  42.827   3.340
70399W        W38872  40.344  21.538   1.248
70400W        W38873  38.981  35.442  14.953
70401W        W38874  24.037  22.649   2.408
70402W        W38875   9.877   4.870  11.126
70403W        W38876   0.277  16.752  12.353
70404W        W38877  18.762  20.174   4.776
70405W        W38878   2.734  40.496   2.290
70406W        W38879  30.512  44.888   0.398
70407W        W38880  44.768  31.468   0.434
70408W        W38881  24.158  27.059   3.320
70409W        W38882  34.925  39.866   1.845
70410W        W38883  16.316  23.081   1.744
70411W        W38884   5.879  27.514   0.839
70412W        W38885  11.851   3.898  14.020
70413W        W38886  18.147  38.923  11.054
70414W        W38887  19.590  33.624  12.994
70415W        W38888   8.693   7.399  14.902
70416W        W38889  44.415  11.725   3.629
70417W        W38890  42.890  43.338  14.407
70418W        W38891  30.495   0.789   2.238
70419W        W38892  30.032  44.263  12.526
70420W        W38893  32.004  14.310  10.439
70421W        W38894   7.353  24.662   2.805
70422W        W38895  36.047  24.120   4.699
70423W        W38896  44.894  35.600   4.213
70424W        W38897  28.931   8.745   1.410
70425W        W38898  43.808  16.769   2.727
70426W        W38899   2.756  36.401   1.729
70427W        W38900   2.828  24.190   3.760
70428W        W38901  17.752   0.759   2.332
70429W        W38902  16.287  10.344   2.404
70430W        W38903  35.396   1.301  14.987
70431W        W38904  14.310  39.935   1.709
70432W        W38905  37.018  12.781  13.911
70433W        W38906  14.817  22.071   2.332
70434W        W38907  40.013  16.699   1.751
70435W        W38908  18.093  36.403  11.557
70436W        W38909   8.210   1.473   0.483
70437W        W38910  16.086   2.857  12.443
70438W        W38911  41.315  11.287  14.465
70439W        W38912  26.579  30.958   0.311
70440W        W38913  28.584   9.852   4.243
70441W        W38914  16.238  12.313   1.778
70442W        W38915   8.301  28.675   2.806
70443W        W38916  38.013  23.066   1.259
70444W        W38917  24.144   4.405  10.535
70445W        W38918  37.853  30.658  11.956
70446W        W38919   3.911  33.106  13.054
70447W        W38920  34.458  22.183   1.831
70448W        W38921  25.660  18.585   1.877
70449W        W38922   2.775  36.481   2.710
70450W        W38923  30.148  21.142  11.412
70451W        W38924  33.877   2.423  12.347
70452W        W38925  14.289  23.096   0.444
70453W        W38926  24.099  29.116   2.894
70454W        W38927  33.561  23.112  13.378
70455W        W38928  14.339   1.292   3.630
70456W        W38929  22.519  41.419   4.624
70457W        W38930  13.322  13.225  14.965
70458W        W38931  23.651  42.461   2.390
70459W        W38932  27.527  29.013   0.396
70460W        W38933  15.692  21.596   3.669
70461W        W38934  36.907   6.260  11.913
70462W        W38935  39.932  42.475  13.388
70463W        W38936  12.317  18.192   4.120
70464W        W38937   0.398  21.029   0.417
70465W        W38938  10.220  16.638  13.955
70466W        W38939  36.350   7.847   2.343
70467W        W38940  39.901  37.347  11.974
70468W        W38941  42.865   0.341  12.009
70469W        W38942  14.756   1.482   1.366
70470W        W38943  44.308  21.084  13.527
70471W        W38944  21.108   3.245  14.948
70472W        W38945  13.708   3.940  10.476
70473W        W38946  34.573  30.956  14.841
70474W        W38947  31.580   5.901   1.288
70475W        W38948  38.898   8.320   0.357
70476W        W38949  40.922  41.997   0.385
70477W        W38950  19.067   7.713  11.612
70478W        W38951  13.711   1.936   2.802
70479W        W38952  31.537  38.926  12.052
70480W        W38953  25.117   2.243  14.457
70481W        W38954  37.537  32.503   4.199
70482W        W38955  28.944   2.352   1.907
70483W        W38956  14.647  22.564  13.046
70484W        W38957   8.355  18.125   2.331
70485W        W38958  35.901  11.827  12.495
70486W        W38959  39.454  40.408  10.960
70487W        W38960  11.327  18.080   0.416
70488W        W38961  34.107  41.314   4.347
70489W        W38962   3.775   4.268   3.809
70490W        W38963  28.511  11.671   1.268
70491W        W38964  32.633  41.885   4.316
70492W        W38965   9.172  22.655  12.361
70493W        W38966   7.669  33.105   3.373
70494W        W38967  42.280  36.995   0.738
70495W        W38968   7.826  12.154   1.836
70496W        W38969  41.518   4.225  10.976
70497W        W38970  29.947  12.212   4.706
70498W        W38971   3.347  20.711  11.119
70499W        W38972  23.616   6.247  10.463
70500W        W38973  26.072   4.709   4.664
70501W        W38974   7.378  17.663  10.641
70502W        W38975   3.273  16.740   1.700
70503W        W38976  29.036  31.936  14.992
70504W        W38977  24.690  17.584   2.178
70505W        W38978  14.683  37.914  13.984
70506W        W38979  22.621  26.628   3.188
70507W        W38980   6.334  35.447  11.991
70508W        W38981   3.869   3.400   0.428
70509W        W38982  34.580  15.133   3.763
70510W        W38983  31.150  37.957   0.805
70511W        W38984  25.471   6.281   2.396
70512W        W38985  44.865  25.676  13.841
70513W        W38986  44.977  35.031   0.949
70514W        W38987  27.948  32.533  11.916
70515W        W38988   0.776   9.801  13.546
70516W        W38989  17.103  32.063  14.839
70517W        W38990  37.926  13.255   2.205
70518W        W38991  33.406  18.633   0.327
70519W        W38992  40.341  13.702  11.407
70520W        W38993   3.347  15.687  13.007
70521W        W38994  35.570   6.418  13.017
70522W        W38995  32.533  12.786  11.483
70523W        W38996  34.487  17.688   0.243
70524W        W38997   1.910   4.224   3.265
70525W        W38998  27.086  28.179   1.767
70526W        W38999  38.505  40.368  11.591
70527W        W39000  36.357  44.451  10.017
70528W        W39001  31.518  34.956   2.742
70529W        W39002   2.464   1.924   9.993
70530W        W39003  33.949   8.220   0.311
70531W        W39004  31.455   5.382  13.519
70532W        W39005  29.104  31.058   2.383
70533W        W39006   7.676  42.434  10.410
70534W        W39007  32.442  43.786  11.470
70535W        W39008  15.761  41.469  14.294
70536W        W39009  34.009  37.456   4.790
70537W        W39010   9.271  42.413   4.763
70538W        W39011  23.631  30.098  11.098
70539W        W39012  41.431  27.616   2.837
70540W        W39013  26.003  11.281   1.234
70541W        W39014  11.763  10.692  10.506
70542W        W39015  10.147  23.543   4.124
70543W        W39016  33.570   7.334  13.340
70544W        W39017  41.030  40.522  11.453
70545W        W39018   5.836  33.048   2.844
70546W        W39019  17.169  42.877   4.716
70547W        W39020  14.686   6.821   3.643
70548W        W39021  25.472  26.182   1.272
70549W        W39022  42.454  24.485   0.430
70550W        W39023   5.911   1.732  14.940
70551W        W39024   5.855   0.310   4.164
70552W        W39025  42.329  15.751  11.550
70553W        W39026  38.462   9.374  14.861
70554W        W39027   1.793  11.807  10.959
70555W        W39028  25.608  35.932   0.783
70556W        W39029  32.012  15.618  12.453
70557W        W39030   8.309  20.136  11.540
70558W        W39031  15.612  16.285  14.313
70559W        W39032  27.184  42.387  13.841
70560W        W39033  22.011  28.079   2.703
70561W        W39034  37.046  16.655  12.093
70562W        W39035  24.051   7.866   5.150
70563W        W39036  42.514  43.827  11.481
70564W        W39037  41.466  27.677  12.825
70565W        W39038  22.230  38.365  11.041
70566W        W39039  14.140   3.954  13.514
70567W        W39040   6.371  35.058   3.296
70568W        W39041   9.317  22.084   2.291
70569W        W39042  30.957  35.550   2.708
70570W        W39043  19.120  25.614   3.201
70571W        W39044  42.939  38.474  10.462
70572W        W39045  34.375  43.282   3.639
70573W        W39046  18.588  38.555   1.413
70574W        W39047  18.219  14.267  10.438
70575W        W39048  31.030  15.171   1.705
70576W        W39049  38.537  35.014   2.684
70577W        W39050  18.163  24.670   3.222
70578W        W39051  33.922   7.861  12.921
70579W        W39052  25.052   8.360   1.331
70580W        W39053  42.483   0.290   0.754
70581W        W39054  44.951  23.000   1.860
70582W        W39055  14.274  39.505   2.374
70583W        W39056  15.158  13.170   4.202
70584W        W39057  41.391   0.308   1.313
70585W        W39058  43.427   5.284  12.433
70586W        W39059  29.607  16.280  10.575
70587W        W39060  30.101   6.708  13.973
70588W        W39061  24.215   4.381  14.026
70589W        W39062  20.746  18.191   4.354
70590W        W39063  42.860   7.707  12.387
70591W        W39064   4.850  42.391   4.131
70592W        W39065  32.074  11.263   4.298
70593W        W39066  22.543  17.112  11.584
70594W        W39067   6.905   4.339   2.814
70595W        W39068  25.011  42.933   2.863
70596W        W39069  42.467   9.843  14.942
70597W        W39070  21.223  35.867  12.487
70598W        W39071   1.286  19.137  12.507
70599W        W39072  26.051  39.479   0.923
70600W        W39073  27.523  17.738  10.975
70601W        W39074  29.488   5.822  13.392
70602W        W39075  28.504  34.536   4.253
70603W        W39076  10.780  34.373   1.727
70604W        W39077  25.607  39.430  12.986
70605W        W39078   5.764  26.095   4.188
70606W        W39079  21.757  17.097  11.972
70607W        W39080   4.797  31.610   1.876
70608W        W39081  41.335  30.423   4.808
70609W        W39082  34.493   8.858   3.800
70610W        W39083   6.757  20.746  11.055
70611W        W39084  13.634  18.780   1.935
70612W        W39085  18.090  24.991  14.485
70613W        W39086   5.361  26.610   0.303
70614W        W39087   1.445  35.905  12.363
70615W        W39088  20.078  33.592  14.303
70616W        W39089  35.957   8.743  12.091
70617W        W39090  30.596  36.398   2.414
70618W        W39091  42.994  37.017  11.112
70619W        W39092  43.345  17.568   2.262
70620W        W39093  29.024  18.756  14.906
70621W        W39094  10.225  29.960   1.387
70622W        W39095   3.769  27.144   1.374
70623W        W39096  30.928  23.614   1.786
70624W        W39097  28.064   9.884   0.395
70625W        W39098   1.329  15.665   2.733
70626W        W39099   6.759   2.325   3.179
70627W        W39100  30.600  42.366   1.865
70628W        W39101  12.340  20.570  14.795
70629W        W39102  37.356  20.614  14.851
70630W        W39103  31.951  24.165   4.324
70631W        W39104  18.778  10.832  10.575
70632W        W39105  16.076  34.419  12.922
70633W        W39106  31.027   7.188  14.882
70634W        W39107  37.561  32.049   0.393
70635W        W39108  22.635   1.890   0.372
70636W        W39109   5.216  14.262  13.372
70637W        W39110  15.139  41.981   2.221
70638W        W39111  41.909  30.561   4.174
70639W        W39112  14.692   6.199   3.684
70640W        W39113   6.257   5.710  14.385
70641W        W39114   4.811  32.017   1.259
70642W        W39115  22.150  30.038  11.081
70643W        W39116  34.552  18.068   1.857
70644W        W39117   3.954  42.961  13.844
70645W        W39118  12.240  39.461  11.405
70646W        W39119  35.974  37.470  10.581
70647W        W39120  31.521   2.321  14.286
70648W        W39121  15.716  18.167  10.509
70649W        W39122   0.940  13.727  10.494
70650W        W39123  35.435  17.645  12.361
70651W        W39124   2.313  23.489  11.417
70652W        W39125  13.611  33.060   4.795
70653W        W39126  41.980   1.261   4.684
70654W        W39127   1.852  44.379   1.760
70655W        W39128  24.107  16.317   0.253
70656W        W39129  35.971   9.358  13.862
70657W        W39130  21.126  18.636   0.911
70658W        W39131  34.116  13.287  14.930
70659W        W39132  11.249  43.900   2.887
70660W        W39133  36.948  21.105   0.947
70661W        W39134  42.782  32.569   3.679
70662W        W39135  18.071   4.775  14.321
70663W        W39136  28.662  33.948  12.556
70664W        W39137   6.749   5.201   1.436
70665W        W39138  34.569  41.971  14.950
70666W        W39139  33.986  18.753   4.686
70667W        W39140   1.334  27.556   3.265
70668W        W39141  43.275  27.956  12.041
70669W        W39142  34.919  14.597   0.334
70670W        W39143  43.919  32.025  13.473
70671W        W39144   3.274   6.895  10.555
70672W        W39145  19.124  25.471  13.384
70673W        W39146  25.667  28.977   2.691
70674W        W39147  37.354  21.227  14.511
70675W        W39148  23.208   0.365  14.979
70676W        W39149  28.551   9.233  12.029
70677W        W39150  15.284  14.162  12.920
70678W        W39151  11.302   9.175   0.340
70679W        W39152  21.656  27.511  11.537
70680W        W39153  32.569  18.078   0.310
70681W        W39154  20.188  35.493   4.761
70682W        W39155  26.097  42.920   1.402
70683W        W39156  27.596   5.426  13.850
70684W        W39157  41.904  31.104  11.930
70685W        W39158   3.712  15.726  14.310
70686W        W39159  25.498  24.663   2.308
70687W        W39160   5.792  41.478  14.864
70688W        W39161  29.951  27.063  12.952
70689W        W39162   6.835  41.864  11.575
70690W        W39163   7.717  34.920  13.837
70691W        W39164  44.005   3.895  12.985
70692W        W39165  23.111  19.104   2.211
70693W        W39166   8.828   2.421   4.280
70694W        W39167  12.190  26.638   1.841
70695W        W39168  21.155  16.137  14.973
70696W        W39169  15.295  12.146  14.944
70697W        W39170   3.236  39.907  13.397
70698W        W39171  24.664  29.516   4.344
70699W        W39172  34.534  35.381   3.146
70700W        W39173   0.882  10.155  10.080
70701W        W39174  22.638  10.690   1.338
70702W        W39175  28.964   7.379  13.940
70703W        W39176  33.874   0.777   2.286
70704W        W39177  39.873  15.098  14.958
70705W        W39178  32.549   2.851   2.813
70706W        W39179  40.323   8.289  14.294
70707W        W39180   6.305   8.802  12.436
70708W        W39181  22.252  11.372  10.994
70709W        W39182  19.063   2.370  10.456
70710W        W39183  42.381  21.150  12.839
70711W        W39184  24.613  41.940   0.269
70712W        W39185  44.951  26.079  12.494
70713W        W39186   3.910  28.557  12.941
70714W        W39187  37.534  21.591   1.885
70715W        W39188  10.875   9.376  11.459
70716W        W39189  12.324   8.198   0.359
70717W        W39190  27.975  12.824  11.578
70718W        W39191   2.299  13.745  13.867
70719W        W39192   9.250  30.132  10.529
70720W        W39193  22.695  41.350   1.261
70721W        W39194   0.870  26.988  12.066
70722W        W39195  13.773  30.978   3.781
70723W        W39196  25.513  30.458   2.319
70724W        W39197  33.524   5.723  10.551
70725W        W39198   0.760  27.607  11.026
70726W        W39199  20.101   9.380   1.413
70727W        W39200  11.241  15.733   1.390
70728W        W39201   8.356   6.879  10.584
70729W        W39202  12.145   1.941  13.034
70730W        W39203  36.932  40.009   3.386
70731W        W39204   5.814   3.808  10.504
70732W        W39205   4.293  36.506   4.740
70733W        W39206  14.265  29.484   3.766
70734W        W39207  26.000  12.245  10.924
70735W        W39208  26.989   0.275  14.420
70736W        W39209  26.532  27.119   1.394
70737W        W39210   3.278  31.091  11.384
70738W        W39211  12.786  43.821  13.464
70739W        W39212  30.092  12.277   1.221
70740W        W39213  35.417  40.513   4.162
70741W        W39214   3.852  28.482  13.969
70742W        W39215  34.382   3.352  14.991
70743W        W39216   1.939  12.838   3.864
70744W        W39217   3.394  23.081  14.426
70745W        W39218   8.684  40.513  11.011
70746W        W39219  37.901   7.256   1.784
70747W        W39220  13.722  39.955  13.954
70748W        W39221  27.964  31.020   4.196
70749W        W39222  24.228   2.440  11.906
70750W        W39223  40.968  22.620   2.265
70751W        W39224   4.840   4.784   4.233
70752W        W39225  16.603  10.877   2.384
70753W        W39226   4.837  27.957   0.352
70754W        W39227  33.428   7.854   0.455
70755W        W39228  30.635  35.037   2.759
70756W        W39229  41.300  44.999  13.436
70757W        W39230   6.182   3.722   4.330
70758W        W39231  29.131  38.957  12.367
70759W        W39232  30.999   4.236   4.281
70760W        W39233   0.968  11.205  14.909
70761W        W39234  31.976   5.341  14.303
70762W        W39235  34.614  44.861   4.338
70763W        W39236  18.144  36.032   1.876
70764W        W39237   3.382   9.191  14.318
70765W        W39238  35.936  11.752   3.746
70766W        W39239   1.831   1.778   4.279
70767W        W39240  26.085  12.742  14.867
70768W        W39241  28.995  39.890  12.900
70769W        W39242   1.296  24.685   0.424
70770W        W39243  17.292  11.162   0.901
70771W        W39244  12.177  43.866  11.121
70772W        W39245  20.542  17.600   3.792
70773W        W39246  26.580   6.222  12.012
70774W        W39247  16.281  24.010  13.955
70775W        W39248   7.754  32.892  13.471
70776W        W39249  22.190  26.060   1.406
70777W        W39250  15.115  15.180   0.416
70778W        W39251  30.164  29.930   1.255
70779W        W39252  12.753   0.765  12.367
70780W        W39253  20.260   8.812   4.175
70781W        W39254  31.416   0.407   0.371
70782W        W39255  20.634  22.573   1.888
70783W        W39256   5.423  40.444  11.938
70784W        W39257   0.947   3.271  11.962
70785W        W39258  42.372  25.996   2.282
70786W        W39259   4.289  36.975   1.440
70787W        W39260  39.894  44.955  12.006
70788W        W39261   1.375  23.040  11.095
70789W        W39262  39.517  44.757  10.518
70790W        W39263  32.935  26.024  13.859
70791W        W39264  35.505   7.268   2.202
70792W        W39265  12.196  31.612   2.744
70793W        W39266  27.124  41.323  11.129
70794W        W39267  24.680  18.103  10.587
70795W        W39268  13.775  29.574  10.552
70796W        W39269  34.073  16.720   1.748
70797W        W39270  18.694  31.065  11.072
70798W        W39271  40.819  44.474   3.183
70799W        W39272  38.325  36.949  12.562
70800W        W39273  35.880   0.982   1.289
70801W        W39274   6.298  32.941   2.853
70802W        W39275   7.739  13.314  12.560
70803W        W39276  38.046   7.218  11.548
70804W        W39277  14.746  43.797   2.413
70805W        W39278  32.463  18.582   0.441
70806W        W39279  11.298  17.744   1.281
70807W        W39280   0.340   3.382  14.438
70808W        W39281  29.567   4.392  11.481
70809W        W39282  35.386   7.743   3.291
70810W        W39283  13.292  32.447   3.711
70811W        W39284   8.704  15.803   0.846
70812W        W39285  18.610  43.992   4.800
70813W        W39286  44.505  36.587  12.496
70814W        W39287  41.900   6.278  11.930
70815W        W39288  30.051  27.122  14.820
70816W        W39289  37.342  15.692  14.429
70817W        W39290  22.040   6.249  13.353
70818W        W39291   8.794   0.272   4.617
70819W        W39292  12.334  20.261  12.877
70820W        W39293   5.220  20.695   4.211
70821W        W39294  38.889   6.387   3.149
70822W        W39295  11.131  27.031  12.520
70823W        W39296  22.200  19.267   1.248
70824W        W39297  34.444   2.752   1.361
70825W        W39298   7.901   5.919  11.049
70826W        W39299  22.510  30.623  10.000
70827W        W39300  41.471  33.103   0.264
70828W        W39301  22.066  15.751   5.122
70829W        W39302   2.386   4.397  11.385
70830W        W39303  15.612  24.553  10.931
70831W        W39304  24.143  17.097  10.115
70832W        W39305  26.570  28.159   0.252
70833W        W39306  16.675   8.356   1.431
70834W        W39307  19.070  39.965   0.316
70835W        W39308  40.329  40.819   2.761
70836W        W39309  12.322  40.022   4.200
70837W        W39310  16.789   0.389  10.507
70838W        W39311  10.703  38.567  11.394
70839W        W39312   2.826  18.251  10.942
70840W        W39313  33.009  14.281  10.577
70841W        W39314   8.718  25.029  12.993
70842W        W39315  19.285   1.869   3.668
70843W        W39316  11.832  15.638  11.890
70844W        W39317  19.729  14.802  14.293
70845W        W39318  28.603  10.240   2.229
70846W        W39319  31.635  41.860   3.168
70847W        W39320   6.845  19.167  14.934
70848W        W39321   9.707  13.133   0.276
70849W        W39322  33.126   5.830   2.196
70850W        W39323  43.275   0.399   4.193
70851W        W39324  18.239  15.723  13.414
70852W        W39325   2.319  44.927   3.376
70853W        W39326   8.673  15.116  14.773
70854W        W39327  42.941   6.756   4.713
70855W        W39328  14.172   8.678  13.441
70856W        W39329   5.216  27.498   3.825
70857W        W39330  37.563  43.929  14.398
70858W        W39331  39.357  24.555  11.028
70859W        W39332  22.007  21.723  11.099
70860W        W39333  12.733  21.535  11.986
70861W        W39334  14.761   9.209   1.840
70862W        W39335  38.465  21.124   5.290
70863W        W39336  13.284  21.239  11.510
70864W        W39337  14.676  37.507  14.295
70865W        W39338  14.094  39.854   2.803
70866W        W39339   5.839   8.205  10.439
70867W        W39340  29.499  16.784   4.268
70868W        W39341   4.925  20.661   5.310
70869W        W39342  32.432  43.386  12.050
70870W        W39343   2.815  21.081  10.041
70871W        W39344  31.952  41.808   5.568
70872W        W39345  20.570  32.964  12.092
70873W        W39346   8.372   1.433   2.801
70874W        W39347  11.214  43.857   3.653
70875W        W39348  32.547  26.586  11.070
70876W        W39349   1.267  12.838  11.903
70877W        W39350  16.754  14.174   4.177
70878W        W39351  25.571  42.355  13.413
70879W        W39352  21.215  24.107   2.263
70880W        W39353   1.970   0.771  10.555
70881W        W39354   1.810  37.065  10.407
70882W        W39355  39.063   3.357   1.718
70883W        W39356  22.033  18.790   2.345
70884W        W39357   0.911  12.246  11.117
70885W        W39358   8.743   5.775  12.898
70886W        W39359  18.247  25.185  11.101
70887W        W39360  13.842  24.594   2.199
70888W        W39361  17.063  14.182   1.279
70889W        W39362  22.035  34.021   3.781
70890W        W39363  31.537  29.537   4.771
70891W        W39364  27.621   7.715   4.170
70892W        W39365   8.724  12.847  12.569
70893W        W39366  27.193  18.272   2.303
70894W        W39367  31.437  15.761   1.784
70895W        W39368  34.008  10.275  12.454
70896W        W39369   2.449  25.552  14.395
70897W        W39370  27.003  10.663  13.960
70898W        W39371   9.888  31.409  13.382
70899W        W39372   3.787   5.724  12.087
70900W        W39373  21.717  23.719   4.608
70901W        W39374  24.228  23.175  10.435
70902W        W39375  27.104  26.018  12.031
70903W        W39376  14.607  12.759  13.510
70904W        W39377  40.025  25.492  14.312
70905W        W39378  20.118  19.575   3.328
70906W        W39379  10.308  30.087  11.940
70907W        W39380  28.608  26.173  14.449
70908W        W39381  36.910   0.981  12.851
70909W        W39382  43.819   3.924   3.354
70910W        W39383  12.174  29.053  10.469
70911W        W39384  11.278  12.714  11.042
70912W        W39385  34.565  10.861  13.309
70913W        W39386   0.924  21.541   4.225
70914W        W39387   7.293  20.653  12.926
70915W        W39388  33.413  17.305  13.845
70916W        W39389  17.740  20.270   3.726
70917W        W39390  34.075  25.035  12.986
70918W        W39391  11.194   9.384  11.378
70919W        W39392   0.816  20.762  14.978
70920W        W39393  26.550  27.585   3.381
70921W        W39394  37.504  13.736   0.805
70922W        W39395  11.267  36.948   2.706
70923W        W39396  22.083  28.101  12.014
70924W        W39397  31.985   8.314   4.776
70925W        W39398  19.245  38.394  13.856
70926W        W39399  44.372  10.272   1.303
70927W        W39400  42.301  15.757  12.989
70928W        W39401  32.934  17.760  12.560
70929W        W39402  21.247  20.666  11.480
70930W        W39403  14.765  19.594   5.239
70931W        W39404  18.710  27.104  12.084
70932W        W39405  24.608   0.491  10.504
70933W        W39406  39.814   4.883  11.586
70934W        W39407  17.209   3.941   0.258
70935W        W39408   6.698  28.477   2.875
70936W        W39409  16.205  28.934   2.852
70937W        W39410   4.395   4.322  11.959
70938W        W39411  30.930   2.818  10.922
70939W        W39412  44.852  35.999  11.108
70940W        W39413  20.184   9.687  12.355
70941W        W39414  35.969  14.100  12.824
70942W        W39415  44.934  33.976  13.389
70943W        W39416  38.905  18.720  14.448
70944W        W39417  31.974   6.893  13.382
70945W        W39418  27.619  29.147  10.583
70946W        W39419  28.133  11.794  11.414
70947W        W39420  27.475   5.808  13.992
70948W        W39421  19.727  21.262   0.357
70949W        W39422   9.199  28.956  12.395
70950W        W39423   2.355  12.768  10.161
70951W        W39424  19.668  26.624  11.396
70952W        W39425  21.245  12.194   1.241
70953W        W39426  29.168   3.781   3.175
70954W        W39427  41.030   4.807  13.475
70955W        W39428  27.053  27.955  10.415
70956W        W39429  13.244   8.220  12.955
70957W        W39430   9.258  33.492  12.914
70958W        W39431  13.182  32.911   2.830
70959W        W39432   4.774  13.229   4.655
70960W        W39433  37.913  17.113  10.071
70961W        W39434  13.695  20.693  11.934
70962W        W39435  29.107  40.308   2.695
70963W        W39436  21.661   3.326   2.344
70964W        W39437  22.506  38.913  13.929
70965W        W39438  18.549  17.723  12.567
70966W        W39439  38.920   5.790   1.724
70967W        W39440  15.117  26.635  14.939
70968W        W39441   2.805  27.193   1.935
70969W        W39442  31.456  29.134  14.359
70970W        W39443  23.131  42.864   0.264
70971W        W39444  30.986  13.833  14.496
70972W        W39445   0.441  24.108  13.988
70973W        W39446  32.403  43.813  14.798
70974W        W39447  29.032  35.467  13.949
70975W        W39448   5.322  27.969  11.529
70976W        W39449   2.852  25.098   4.684
70977W        W39450  35.997  26.594   1.296
70978W        W39451  18.553  35.896   1.406
70979W        W39452  37.500  21.090  14.952
70980W        W39453  29.616  15.146  11.493
70981W        W39454   5.719   2.312   0.816
70982W        W39455  21.590   6.766  11.985
70983W        W39456   2.956   3.883  11.076
70984W        W39457  19.135  39.006   4.622
70985W        W39458   1.440  15.308   3.831
70986W        W39459  21.525  34.868  12.351
70987W        W39460   5.735   7.403   9.577
70988W        W39461   2.257   9.745  11.866
70989W        W39462  41.840  40.406   2.835
70990W        W39463  25.524   2.869   3.817
70991W        W39464  32.413  25.106  11.587
70992W        W39465  18.297   9.862   3.272
70993W        W39466   7.830  19.619  13.390
70994W        W39467  30.638  29.945   4.802
70995W        W39468  32.082  15.750  11.543
70996W        W39469  18.553  11.273  13.861
70997W        W39470   7.755  44.840  10.446
70998W        W39471  31.113  15.797   1.388
70999W        W39472  35.401  28.938  12.403
71000W        W39473  18.768   0.835  14.296
71001W        W39474  31.049  36.029   1.817
71002W        W39475  27.557  38.362  12.979
71003W        W39476  39.911  12.331   1.755
71004W        W39477   4.901   7.210  12.385
71005W        W39478   7.888  32.992  11.606
71006W        W39479  16.804  32.392  13.332
71007W        W39480   7.332  44.937  13.511
71008W        W39481  36.553  27.589   2.845
71009W        W39482   7.258  11.310  13.810
71010W        W39483  20.083  38.038  13.961
71011W        W39484   7.714  37.895   2.679
71012W        W39485  21.197  21.069  13.809
71013W        W39486  25.657  22.605  11.397
71014W        W39487  28.987  40.973  11.431
71015W        W39488   3.313  32.103   5.293
71016W        W39489  42.917   2.296   3.854
71017W        W39490  23.087  34.583   1.370
71018W        W39491  30.956  31.016   0.383
71019W        W39492   8.728  16.225   0.963
71020W        W39493  28.662  29.127   4.738
71021W        W39494  22.144  14.703   3.784
71022W        W39495  33.104  23.706  12.358
71023W        W39496   2.352   8.703   1.796
71024W        W39497  40.837  35.866   0.449
71025W        W39498  10.241  25.631   3.770
71026W        W39499  36.494   1.765   4.275
71027W        W39500  28.981   2.770   3.382
71028W        W39501  10.149  44.308  14.982
71029W        W39502  41.959  41.837  11.965
71030W        W39503  31.983  36.982   3.361
71031W        W39504  19.194  26.089   0.358
71032W        W39505  29.125  37.382  12.091
71033W        W39506  40.380  33.387  10.617
71034W        W39507  24.074   5.329   0.758
71035W        W39508   8.207  37.535  13.312
71036W        W39509  42.832  33.070  13.412
71037W        W39510  22.733  27.942  14.845
71038W        W39511  33.038   6.380  14.761
71039W        W39512  23.631  19.537   4.144
71040W        W39513  37.068  15.304   4.127
71041W        W39514  44.501  17.703   3.159
71042W        W39515  42.926  24.606  13.807
71043W        W39516  10.358  21.250  11.119
71044W        W39517   4.778   7.903   0.923
71045W        W39518  43.469  37.496  14.817
71046W        W39519  10.295   3.946  11.922
71047W        W39520  11.663  24.496  12.066
71048W        W39521   5.207  25.049  14.018
71049W        W39522  24.990   9.363   4.607
71050W        W39523  17.212  39.057  14.289
71051W        W39524   3.327  24.221  11.996
71052W        W39525   7.897  27.055  13.913
71053W        W39526   4.357  10.356   2.246
71054W        W39527  16.650  26.461  11.593
71055W        W39528   5.233  16.116   9.620
71056W        W39529  15.742  44.491  12.362
71057W        W39530  19.161  29.000  11.473
71058W        W39531   4.258  17.728  10.501
71059W        W39532  25.055  15.144   3.700
71060W        W39533  20.605  28.123   4.821
71061W        W39534  24.128  36.582   1.798
71062W        W39535  29.082  22.213   1.744
71063W        W39536  19.259  22.643  11.874
71064W        W39537  42.332  29.557  12.877
71065W        W39538   9.218   5.399   1.211
71066W        W39539  14.824  35.864   0.347
71067W        W39540  14.263  17.601  12.456
71068W        W39541   4.812  27.552   3.854
71069W        W39542  11.213  24.585  13.852
71070W        W39543  39.006  11.305   2.380
71071W        W39544   9.182  25.975  12.865
71072W        W39545  30.908  10.763   1.416
71073W        W39546   1.747  11.721  10.505
71074W        W39547  12.287  13.323   4.659
71075W        W39548   9.257  19.152  12.094
71076W        W39549   5.709  17.704  13.429
71077W        W39550  31.494  11.743   0.918
71078W        W39551  43.994  32.046  14.893
71079W        W39552  30.005  26.012  13.833
71080W        W39553   6.713   6.361   0.920
71081W        W39554  25.204   2.396  11.436
71082W        W39555  23.646  38.926  12.893
71083W        W39556   0.416  10.297  11.022
71084W        W39557   2.287  25.071  14.462
71085W        W39558  10.270   9.365  11.941
71086W        W39559  31.026  35.379   1.287
71087W        W39560  20.059   7.877   0.292
71088W        W39561  37.921   1.807  14.844
71089W        W39562  34.448   5.795  10.612
71090W        W39563  27.964  13.726  12.834
71091W        W39564  18.077  31.625   4.742
71092W        W39565  26.690  33.874   3.267
71093W        W39566  31.004  25.494  14.935
71094W        W39567  11.778  13.657  13.391
71095W        W39568  33.037  12.290  10.991
71096W        W39569  24.013  20.205   1.775
71097W        W39570  40.332   2.762  13.957
71098W        W39571   2.268  36.097   3.766
71099W        W39572  23.003  40.835  10.902
71100W        W39573  19.635   9.831  13.822
71101W        W39574  20.633  37.350  14.510
71102W        W39575  11.786  25.077   3.804
71103W        W39576  10.336   4.296  14.405
71104W        W39577  32.057  16.740   2.846
71105W        W39578  37.991   9.359   0.476
71106W        W39579  13.687  21.731  13.513
71107W        W39580   4.895  37.494   4.668
71108W        W39581   6.817  34.904  13.535
71109W        W39582  30.125   5.328   1.695
71110W        W39583  18.789  37.469   2.692
71111W        W39584  30.484   8.655   4.124
71112W        W39585   8.229  13.131  13.405
71113W        W39586  28.601  35.060  14.450
71114W        W39587  39.513  26.071  13.907
71115W        W39588  21.532  37.975  11.864
71116W        W39589   0.782   2.321  12.004
71117W        W39590  41.525  20.135  14.859
71118W        W39591  23.683   4.857  12.985
71119W        W39592  14.624  33.434   4.232
71120W        W39593  12.228   7.361  13.012
71121W        W39594  42.991  29.959  13.534
71122W        W39595   5.332   5.927  14.969
71123W        W39596  22.522   1.419   3.239
71124W        W39597  15.747   3.875  12.932
71125W        W39598  22.031  33.942   4.813
71126W        W39599   2.328  16.169  11.025
71127W        W39600  21.146  31.525  10.632
71128W        W39601  39.557  37.577   0.835
71129W        W39602  41.385  41.399  11.595
71130W        W39603  19.672  11.749  12.380
71131W        W39604  11.796  43.438   1.432
71132W        W39605  35.389  17.219   3.268
71133W        W39606  42.430  11.315   2.239
71134W        W39607  19.243  33.566   1.324
71135W        W39608   7.329   6.745  12.066
71136W        W39609  41.026  11.691  11.985
71137W        W39610  30.443  42.511   0.931
71138W        W39611   9.302  35.428  12.535
71139W        W39612  33.929   5.820   0.439
71140W        W39613  10.671  33.538  13.522
71141W        W39614   9.252  43.491  14.511
71142W        W39615  25.469   4.362  13.399
71143W        W39616   5.295  34.440  14.932
71144W        W39617   4.229  24.560  10.633
71145W        W39618  27.687  19.726  12.379
71146W        W39619  19.547  35.009  10.584
71147W        W39620  44.833   1.455  11.977
71148W        W39621  35.885  33.555  10.581
71149W        W39622  30.416  24.721   0.342
71150W        W39623  30.474  20.182   4.330
71151W        W39624  16.679   4.836   4.238
71152W        W39625  39.045  39.326   2.254
71153W        W39626  44.295  23.539   0.428
71154W        W39627  42.782  19.570  11.947
71155W        W39628  23.608   1.409   1.288
71156W        W39629   5.276  39.401  10.511
71157W        W39630  38.881  28.977   2.249
71158W        W39631  27.588   1.804  10.542
71159W        W39632   2.338  33.423  10.033
71160W        W39633   7.700   7.287  14.895
71161W        W39634  40.437  26.144   1.880
71162W        W39635  27.975  38.389   0.242
71163W        W39636  32.535   7.303   2.279
71164W        W39637  35.074  26.009  14.989
71165W        W39638  19.720  24.628  10.588
71166W        W39639  15.260   2.402   0.345
71167W        W39640  15.154   5.332   2.193
71168W        W39641  26.101  24.031   2.802
71169W        W39642   2.964  22.633  10.976
71170W        W39643   1.963  35.017  10.463
71171W        W39644  30.942   8.727   1.292
71172W        W39645   6.195   8.294   2.400
71173W        W39646  14.756  36.478  14.915
71174W        W39647   0.917   2.950   1.834
71175W        W39648   4.930  43.878   4.838
71176W        W39649  28.941  20.729   0.421
71177W        W39650  16.277  33.984   0.255
71178W        W39651  19.280  21.205  14.292
71179W        W39652  28.583  16.607  14.775
71180W        W39653  38.538  32.952  10.986
71181W        W39654  10.758  37.846   1.333
71182W        W39655   1.434  25.022  10.903
71183W        W39656   5.807  14.642  12.928
71184W        W39657   3.351   9.796  13.395
71185W        W39658  27.081  40.052   0.401
71186W        W39659   4.766  22.108   3.364
71187W        W39660  17.101   1.866  13.038
71188W        W39661  24.047  28.013   4.255
71189W        W39662  28.172  38.886   5.244
71190W        W39663  25.626  29.170  13.910
71191W        W39664  19.562  14.170  10.464
71192W        W39665  18.139  38.862  12.042
71193W        W39666  37.040  12.134   0.838
71194W        W39667  20.615  34.371   0.850
71195W        W39668  22.133  24.174  12.447
71196W        W39669  11.714  34.097  12.914
71197W        W39670  33.395  15.634   0.369
71198W        W39671  36.969  35.915   4.339
71199W        W39672  30.478   1.263  12.491
71200W        W39673   0.354  27.168   1.834
71201W        W39674  34.561  33.624  14.806
71202W        W39675  15.693   8.294   0.479
71203W        W39676   7.211  15.692  12.946
71204W        W39677  30.569   6.874  14.500
71205W        W39678  39.823  33.989   4.615
71206W        W39679  10.203  12.824   9.929
71207W        W39680  31.581  16.807  11.083
71208W        W39681  17.604  42.486   2.850
71209W        W39682   1.974  11.181  12.439
71210W        W39683  39.868  38.557  14.786
71211W        W39684  37.361  20.090   0.946
71212W        W39685   2.442  26.685  11.024
71213W        W39686   9.831  35.021   0.482
71214W        W39687  13.207  16.632  10.486
71215W        W39688   8.368  44.892  14.348
71216W        W39689   9.828  29.552   3.871
71217W        W39690  21.659  44.951   2.305
71218W        W39691  15.623  38.961  13.839
71219W        W39692  30.482  40.861  12.564
71220W        W39693  44.380  41.480  14.470
71221W        W39694  35.075  28.126  11.411
71222W        W39695  36.469   9.188   3.682
71223W        W39696  38.958  29.067  11.898
71224W        W39697   9.729  41.384  13.354
71225W        W39698  17.583  18.160  11.608
71226W        W39699  43.018  30.914  11.077
71227W        W39700  21.533  19.707  14.937
71228W        W39701  18.610  15.659  14.965
71229W        W39702  23.170  29.046  10.416
71230W        W39703  23.622  43.399  13.821
71231W        W39704   2.449   7.193  13.856
71232W        W39705  22.573  20.634   0.890
71233W        W39706   3.415  20.636  12.049
71234W        W39707  12.773  44.293  12.019
71235W        W39708  26.031  36.945   2.796
71236W        W39709  19.596  39.062   2.740
71237W        W39710  35.551  31.446  13.918
71238W        W39711  35.389  20.536  13.524
71239W        W39712  26.684  23.609   2.855
71240W        W39713  35.446  15.584   1.806
71241W        W39714  36.367  10.345   4.798
71242W        W39715  28.609  14.651   3.790
71243W        W39716  33.934  42.447   1.808
71244W        W39717  44.798  38.458  13.825
71245W        W39718  21.107  16.261   3.778
71246W        W39719  11.699  10.302  13.809
71247W        W39720  23.592  27.070   9.984
71248W        W39721   7.869   0.882   0.429
71249W        W39722  28.534  18.571   4.744
71250W        W39723  27.511  34.884  11.571
71251W        W39724  25.544  15.282  14.951
71252W        W39725  27.489   6.797   0.387
71253W        W39726   3.390  24.984   2.308
71254W        W39727  14.300  22.132  14.011
71255W        W39728  30.940  37.988  12.964
71256W        W39729  38.037   0.756  12.387
71257W        W39730  41.840   4.889   4.127
71258W        W39731  38.916   7.900  11.065
71259W        W39732  14.268  22.513  11.978
71260W        W39733  32.620  26.114  12.455
71261W        W39734   2.925  19.542  11.035
71262W        W39735  32.934  15.248   1.891
71263W        W39736   9.191   6.728  13.050
71264W        W39737  22.248  44.911  11.606
71265W        W39738  15.667  26.032  14.913
71266W        W39739  30.587  33.029  14.444
71267W        W39740   8.195  38.372   2.672
71268W        W39741  33.926  32.426  11.044
71269W        W39742  19.059  35.459  12.482
71270W        W39743  15.135  26.613   4.708
71271W        W39744  13.162  34.981  14.869
71272W        W39745  42.853  27.631   2.668
71273W        W39746  20.028  21.574   3.301
71274W        W39747   2.340  12.204   3.149
71275W        W39748  17.757  26.566   4.165
71276W        W39749   8.342   1.287  13.030
71277W        W39750  40.506  29.504   0.951
71278W        W39751   9.707  16.210  13.486
71279W        W39752  38.547  42.012   0.858
71280W        W39753   9.829  28.677   0.820
71281W        W39754   7.870  14.706  12.482
71282W        W39755  23.579  15.633   0.946
71283W        W39756  32.634  25.044   1.766
71284W        W39757  22.022  32.933   0.247
71285W        W39758  18.197  12.628  12.939
71286W        W39759  32.475  11.686  12.042
71287W        W39760  11.370  23.058   4.600
71288W        W39761  24.160  27.958  10.918
71289W        W39762  29.654   7.183  10.645
71290W        W39763   1.811   3.256   3.236
71291W        W39764  11.350  27.511  10.406
71292W        W39765  21.218  11.761   0.260
71293W        W39766  12.729  15.174  13.944
71294W        W39767  43.494  33.009  11.470
71295W        W39768   5.824  18.234   0.886
71296W        W39769  23.656   0.377  10.478
71297W        W39770  30.068  20.255  13.031
71298W        W39771  30.491   4.210  12.852
71299W        W39772  13.159   0.277  12.442
71300W        W39773   2.766   5.804   2.345
71301W        W39774  22.661  11.329  14.320
71302W        W39775  38.058  26.169  13.902
71303W        W39776   8.387  11.322   4.186
71304W        W39777  35.362  34.552  14.833
71305W        W39778  12.843  38.923   2.211
71306W        W39779  21.263  27.690   4.161
71307W        W39780  29.928   6.698  14.930
71308W        W39781  20.659  24.142   1.232
71309W        W39782  41.450  31.492   4.777
71310W        W39783  38.913   7.817  12.380
71311W        W39784   6.417  25.631   0.946
71312W        W39785  20.079   3.761   0.333
71313W        W39786   3.267   0.268  11.506
71314W        W39787  38.361  23.678  10.576
71315W        W39788   2.229  43.887  11.981
71316W        W39789   9.646  43.445  10.486
71317W        W39790  30.419  19.654  13.810
71318W        W39791   2.289  10.154   0.376
71319W        W39792  36.437  12.637   2.411
71320W        W39793  28.056   8.684  14.917
71321W        W39794  34.615  27.099   4.238
71322W        W39795   3.430   9.748   0.336
71323W        W39796  16.259  39.942   3.769
71324W        W39797  40.026  15.186   3.323
71325W        W39798   2.782  35.902   1.704
71326W        W39799  41.958   6.797   3.640
71327W        W39800  44.950  34.394   0.952
71328W        W39801  41.401  27.971   0.870
71329W        W39802  20.622  19.241  13.937
71330W        W39803  23.656  15.139   4.660
71331W        W39804  15.135  39.005  12.429
71332W        W39805  27.133  22.671  14.372
71333W        W39806  29.055   9.354  11.373
71334W        W39807  19.625   9.369   4.188
71335W        W39808  24.230  20.122   0.351
71336W        W39809  22.633  33.488   0.767
71337W        W39810   3.799   1.854   1.352
71338W        W39811   3.752   1.336  13.896
71339W        W39812  11.729  29.436   4.142
71340W        W39813   8.231  23.041  11.372
71341W        W39814  28.443  10.641   1.260
71342W        W39815  42.453   3.721   3.721
71343W        W39816  29.057  12.171  13.972
71344W        W39817  27.172  44.780   4.748
71345W        W39818  25.520   7.217  14.846
71346W        W39819   8.193  33.963   4.659
71347W        W39820  41.341   1.833  11.587
71348W        W39821  42.798  27.488   4.150
71349W        W39822  36.458  42.027   0.777
71350W        W39823  38.417  20.082  14.359
71351W        W39824  38.352   2.746  13.884
71352W        W39825   3.852   0.856  13.817
71353W        W39826  38.569   3.894  14.370
71354W        W39827   8.869   0.906   3.155
71355W        W39828  38.944  42.778   1.233
71356W        W39829  42.891  16.155   3.190
71357W        W39830  11.694  39.823   3.307
71358W        W39831  40.799   1.263   4.711
71359W        W39832  35.529  40.817  11.612
71360W        W39833  24.710   4.270   0.259
71361W        W39834  21.157  28.105  13.524
71362W        W39835  18.130   6.747  13.905
71363W        W39836  20.060  12.751   3.761
71364W        W39837  30.563  21.035  11.080
71365W        W39838  16.234  37.531   3.268
71366W        W39839   2.807  37.456   5.243
71367W        W39840  10.198  23.614  12.452
71368W        W39841   6.276  21.693   1.346
71369W        W39842  26.104  41.458   2.887
71370W        W39843  26.030  41.892  14.459
71371W        W39844  25.038   6.682  14.007
71372W        W39845  34.609  32.109   0.923
71373W        W39846  13.758  14.616  11.061
71374W        W39847  37.994  35.006   0.769
71375W        W39848  21.189  11.843   1.850
71376W        W39849  28.681  39.357  13.354
71377W        W39850  37.989   6.832  11.468
71378W        W39851  14.121  27.583   0.397
71379W        W39852   9.733  35.091   4.236
71380W        W39853  19.078  19.596   3.684
71381W        W39854  42.825  34.062   1.381
71382W        W39855  44.315  18.117  10.501
71383W        W39856  37.490  12.191  11.963
71384W        W39857   1.338  13.797   1.421
71385W        W39858   2.911  27.537  12.832
71386W        W39859  14.673  19.678   0.866
71387W        W39860   1.818  28.940   2.681
71388W        W39861  26.076   7.669   1.847
71389W        W39862  25.616  28.932   0.265
71390W        W39863  43.838  19.189   1.442
71391W        W39864  35.057  26.533   9.976
71392W        W39865  10.750  26.976  12.858
71393W        W39866   7.686  17.640  13.308
71394W        W39867  11.257   4.302   0.899
71395W        W39868  13.278  26.684   2.312
71396W        W39869  16.168  38.936  12.933
71397W        W39870  42.497   9.862   3.221
71398W        W39871  14.601   1.909   4.794
71399W        W39872  32.129  40.364  12.908
71400W        W39873  14.609   4.857   1.382
71401W        W39874  30.129  42.291  13.940
71402W        W39875  43.844  22.239  12.544
71403W        W39876  33.073  38.344  13.330
71404W        W39877  43.939  34.899   0.924
71405W        W39878  15.143  40.388  11.899
71406W        W39879  31.041  36.915  11.888
71407W        W39880  16.681  22.586   2.299
71408W        W39881  34.425  37.435   2.184
71409W        W39882  43.976   3.249   4.800
71410W        W39883  16.636  39.454  12.072
71411W        W39884   7.885   9.209  13.442
71412W        W39885  23.151  29.102  13.435
71413W        W39886  24.185  40.012  14.501
71414W        W39887  17.228  32.585  13.945
71415W        W39888  16.149   3.288  12.949
71416W        W39889  32.485  34.574  14.810
71417W        W39890  31.453  37.534   1.900
71418W        W39891   1.463  32.436   2.782
71419W        W39892  27.455  13.121   4.176
71420W        W39893  23.615  25.588  14.504
71421W        W39894  11.679   4.288  13.307
71422W        W39895  39.902  12.266   0.851
71423W        W39896  13.714  44.279   2.358
71424W        W39897  38.907  36.916  14.024
71425W        W39898  38.973  27.510   4.626
71426W        W39899  21.067  33.589   2.287
71427W        W39900  16.769   5.858   3.336
71428W        W39901   7.269  19.725  14.031
71429W        W39902  37.443   9.168   3.634
71430W        W39903  20.715  17.639   4.692
71431W        W39904  24.522   5.257  12.856
71432W        W39905  10.280  32.992   4.208
71433W        W39906   2.253  39.320  11.875
71434W        W39907  31.963  29.066   0.858
71435W        W39908  20.082   6.825   3.277
71436W        W39909  15.779  37.406  10.024
71437W        W39910  28.650  10.146  11.914
71438W        W39911  24.497  35.422  10.421
71439W        W39912   6.737  29.557  10.488
71440W        W39913  12.660   1.438  11.561
71441W        W39914  15.278   6.380  14.993
71442W        W39915  24.589   1.797  11.869
71443W        W39916  43.274  36.974  14.453
71444W        W39917  41.357  34.075   1.755
71445W        W39918  21.758  38.007   4.603
71446W        W39919  31.566  35.007   4.731
71447W        W39920  41.953  16.705   0.467
71448W        W39921  23.626  12.667   0.879
71449W        W39922  15.579  12.669   0.435
71450W        W39923  41.873  11.361   1.248
71451W        W39924   2.952   3.298   2.412
71452W        W39925  14.700  10.799  14.011
71453W        W39926   8.211  29.454   0.954
71454W        W39927  34.493  41.994  13.805
71455W        W39928   9.658  25.213  13.956
71456W        W39929  36.397  34.924   1.219
71457W        W39930   3.374  42.020   1.801
71458W        W39931  40.454   3.887  13.432
71459W        W39932  26.064  27.646  11.410
71460W        W39933   4.414   0.308  10.479
71461W        W39934  23.188  42.317  14.475
71462W        W39935  21.568  23.625   1.881
71463W        W39936  20.719  37.954   4.138
71464W        W39937  39.530  30.008   4.340
71465W        W39938  21.758  31.454  11.415
71466W        W39939  19.716  31.034  14.479
71467W        W39940  28.996   7.823  10.996
71468W        W39941  11.166  11.632   0.308
71469W        W39942  39.004  44.941   3.255
71470W        W39943   3.727  15.253   3.243
71471W        W39944  26.563  22.731  14.814
71472W        W39945  11.234  39.905  13.894
71473W        W39946   7.217  19.246   4.283
71474W        W39947  20.246  15.659  13.047
71475W        W39948   4.370  17.283  14.858
71476W        W39949  32.571  30.975   4.354
71477W        W39950   9.702   6.260  10.904
71478W        W39951   6.895   0.928   0.800
71479W        W39952  33.393  18.635   1.391
71480W        W39953  31.620   9.744  13.484
71481W        W39954  39.021  21.038   1.288
71482W        W39955   4.889  30.073  10.537
71483W        W39956   1.307  23.220   4.655
71484W        W39957  11.679  23.241   3.652
71485W        W39958  41.932   8.291   0.960
71486W        W39959  19.713  33.112  11.932
71487W        W39960  27.075  23.511  13.518
71488W        W39961  28.060  18.147  11.021
71489W        W39962  40.976  15.090   1.879
71490W        W39963  38.024   4.290   3.220
71491W        W39964  11.294   1.952  14.950
71492W        W39965  15.294   1.853  14.482
71493W        W39966  29.650  22.162   2.873
71494W        W39967  24.579  11.761   0.311
71495W        W39968   3.935   7.807  14.288
71496W        W39969  31.082  30.141  14.364
71497W        W39970  19.102  34.472  12.928
71498W        W39971   7.697  24.642   0.889
71499W        W39972   5.302   8.711  13.797
71500W        W39973  35.362  25.026   3.248
71501W        W39974   7.396  11.648   0.774
71502W        W39975  29.173  35.979   4.148
71503W        W39976  33.985   4.441   4.728
71504W        W39977  27.470  11.250  13.502
71505W        W39978  42.918  13.219  12.941
71506W        W39979  40.322  33.100   2.818
71507W        W39980  20.080   2.797  11.439
71508W        W39981  31.634   9.805   1.763
71509W        W39982   2.437  28.096  13.439
71510W        W39983  13.301  21.572   0.438
71511W        W39984  42.461  41.437  14.862
71512W        W39985  11.323  18.175  11.503
71513W        W39986  11.668  31.590   3.258
71514W        W39987  23.215   9.327   0.248
71515W        W39988  19.707  19.555  14.510
71516W        W39989   9.388  12.296  10.590
71517W        W39990  15.811  42.939  10.500
71518W        W39991  26.694  39.503  13.004
71519W        W39992   9.681  32.949  12.982
71520W        W39993  25.638  32.096  13.422
71521W        W39994  20.659  41.349  13.342
71522W        W39995   0.986  12.196   1.287
71523W        W39996  12.656   5.311  13.435
71524W        W39997  20.257  31.953   1.343
71525W        W39998  19.750  17.076   0.808
71526W        W39999   6.314  21.656  13.841
71527W        W40000  12.666  42.886   4.610
71528W        W40001   5.689  40.859  14.333
71529W        W40002  38.980  14.158   2.877
71530W        W40003  35.426  21.115  11.942
71531W        W40004  10.861  22.205   1.911
71532W        W40005   9.737  34.094  12.902
71533W        W40006  43.765  36.956  11.883
71534W        W40007   8.200  23.657   2.747
71535W        W40008   1.480  22.014  12.470
71536W        W40009   0.347   5.205  12.854
71537W        W40010  29.023  42.485  14.420
71538W        W40011  23.994  41.937   0.314
71539W        W40012   4.283  23.140   3.159
71540W        W40013  26.010  19.674  12.062
71541W        W40014  33.071  13.660   2.670
71542W        W40015  26.519  37.362  14.461
71543W        W40016  15.324   3.729  13.046
71544W        W40017   0.941  15.125   2.263
71545W        W40018  30.485  26.110   5.166
71546W        W40019   4.854  25.138   0.388
71547W        W40020   0.917  31.441   4.638
71548W        W40021  19.538  32.107   2.291
71549W        W40022  37.981  18.661  13.026
71550W        W40023  15.767  36.924   1.810
71551W        W40024  32.509   2.884  14.496
71552W        W40025  33.528  30.627   2.818
71553W        W40026   5.420  21.688  11.593
71554W        W40027  31.007  28.045   1.228
71555W        W40028  41.917  22.570   3.716
71556W        W40029  19.112  31.907   1.384
71557W        W40030   3.220  22.077   3.672
71558W        W40031   8.859   4.310  11.398
71559W        W40032   7.861   3.406  11.962
71560W        W40033   2.779  13.712  12.379
71561W        W40034   3.432  19.678   4.598
71562W        W40035  36.867   1.399  12.063
71563W        W40036  39.540   4.339  14.997
71564W        W40037  28.624  13.106   1.731
71565W        W40038   7.261   7.385   4.317
71566W        W40039   5.241  43.876  10.953
71567W        W40040  30.003  37.366   0.262
71568W        W40041  17.695  18.644  12.471
71569W        W40042   7.200  42.988  13.451
71570W        W40043   4.882  14.114  13.055
71571W        W40044  31.111   9.168  14.317
71572W        W40045   3.928  25.708   2.883
71573W        W40046   3.432  34.927   5.264
71574W        W40047  12.804  30.094  11.971
71575W        W40048  14.146  24.178   0.758
71576W        W40049  33.955  44.438   0.767
71577W        W40050  19.115   0.292  12.080
71578W        W40051   5.303  29.060  10.415
71579W        W40052  22.221  23.515  10.614
71580W        W40053  38.910  14.324   0.821
71581W        W40054  38.033  38.955   3.846
71582W        W40055  23.093   2.280   3.367
71583W        W40056   3.249  25.559  10.911
71584W        W40057  20.749  19.609  13.053
71585W        W40058  43.836  30.657   3.634
71586W        W40059   0.425  41.508   0.408
71587W        W40060  41.448  25.613   0.273
71588W        W40061   1.395  21.562  11.942
71589W        W40062  12.179  17.297  14.959
71590W        W40063  36.518  35.858  10.466
71591W        W40064  19.668  39.961  11.937
71592W        W40065  18.255   4.871   3.750
71593W        W40066  41.808  20.259  12.372
71594W        W40067  16.798  10.206  13.893
71595W        W40068  23.600  39.556  12.354
71596W        W40069   3.219  24.592   1.896
71597W        W40070  13.790  16.186   1.257
71598W        W40071   8.187  20.542   3.740
71599W        W40072  34.547   4.848  11.541
71600W        W40073   8.696   3.941   1.791
71601W        W40074  43.504   8.343  14.945
71602W        W40075   5.722  13.161   4.719
71603W        W40076  24.080  34.033   4.730
71604W        W40077  24.195  25.039   1.376
71605W        W40078  33.995  39.916  11.948
71606W        W40079  18.223  13.219  13.406
71607W        W40080   9.767  40.307  14.374
71608W        W40081  23.695  36.472   3.359
71609W        W40082  40.922  19.620  14.898
71610W        W40083  39.966  44.011  10.915
71611W        W40084   3.262  38.021  13.526
71612W        W40085  35.397  13.642   4.234
71613W        W40086  20.535  31.587  14.914
71614W        W40087  29.558  15.273   4.598
71615W        W40088   1.284   8.898  13.363
71616W        W40089   6.356  29.937   0.419
71617W        W40090  38.959   9.355   4.271
71618W        W40091  43.425  19.248   4.118
71619W        W40092   8.314  14.124  10.611
71620W        W40093  13.798  23.581   4.699
71621W        W40094  21.630  21.018   2.319
71622W        W40095  43.770  39.478  11.487
71623W        W40096  32.586   2.226  11.998
71624W        W40097   0.405  22.578  10.610
71625W        W40098  37.884  32.945   4.148
71626W        W40099  13.157   1.861   4.725
71627W        W40100   3.824  24.207   4.304
71628W        W40101  18.619   8.294  13.838
71629W        W40102  19.616  31.625  13.047
71630W        W40103   1.259  14.691  13.464
71631W        W40104  25.660  29.128  12.957
71632W        W40105  22.014  37.860  11.403
71633W        W40106   5.908  22.101   1.227
71634W        W40107  12.778  30.525  14.882
71635W        W40108  22.543  34.509   1.378
71636W        W40109  32.898  42.427  10.602
71637W        W40110   7.393  21.114   3.853
71638W        W40111   8.243  29.436  13.042
71639W        W40112  41.372  13.652   2.364
71640W        W40113  18.200   5.322   4.713
71641W        W40114   1.759  11.298  13.546
71642W        W40115  37.447  20.176  10.409
71643W        W40116  34.415  44.858   2.812
71644W        W40117  17.297  18.782  13.384
71645W        W40118  10.175  27.658   2.788
71646W        W40119  14.765  18.670   0.374
71647W        W40120   8.305   2.382  14.945
71648W        W40121  36.860  19.155  14.788
71649W        W40122  21.571  31.443  13.386
71650W        W40123  39.508  41.519  12.861
71651W        W40124   0.777  43.389   4.699
71652W        W40125   5.897  32.072   1.710
71653W        W40126  34.094  28.476  14.838
71654W        W40127  41.529  15.770  10.528
71655W        W40128  13.233   1.481  13.444
71656W        W40129  40.953  38.993  12.376
71657W        W40130  36.550  34.542   4.608
71658W        W40131  27.656  19.624   3.268
71659W        W40132  37.878   9.222  10.515
71660W        W40133  16.173  30.594  10.954
71661W        W40134  22.596   2.226   3.821
71662W        W40135   2.370   7.356   1.775
71663W        W40136  12.795  31.492   0.327
71664W        W40137  16.574   7.289   4.254
71665W        W40138  40.934  36.423  12.473
71666W        W40139  36.015   4.218  13.480
71667W        W40140  28.993  44.301  14.456
71668W        W40141  33.045  26.115  10.422
71669W        W40142   8.772  12.674   0.959
71670W        W40143  13.712  22.723   3.301
71671W        W40144  16.810  27.998   2.675
71672W        W40145  33.399  42.858   5.096
71673W        W40146  39.028  38.000   4.615
71674W        W40147  22.592  26.588   4.655
71675W        W40148  13.637  23.655  14.284
71676W        W40149  16.258  31.619  13.048
71677W        W40150   7.699  11.233   4.834
71678W        W40151   2.443  16.683  12.067
71679W        W40152  33.919  23.200  14.933
71680W        W40153  17.648   2.241  14.987
71681W        W40154  26.623  14.288  13.012
71682W        W40155   9.810  17.564   2.688
71683W        W40156  18.649  15.278  14.851
71684W        W40157   1.480  27.184  12.442
71685W        W40158  21.084  23.641   1.321
71686W        W40159  12.746  30.482   3.811
71687W        W40160  27.146  25.105  10.965
71688W        W40161  11.228  25.113  13.047
71689W        W40162  20.204  36.501   1.929
71690W        W40163  15.692  41.992   2.708
71691W        W40164   6.792  21.582  12.890
71692W        W40165  38.043  15.127  14.387
71693W        W40166  23.024  44.967   3.276
71694W        W40167  25.182  25.040  14.507
71695W        W40168   5.404  39.021   3.254
71696W        W40169  43.772  10.642   2.794
71697W        W40170  29.599  37.345  10.477
71698W        W40171  12.737  16.107  13.478
71699W        W40172  21.675  33.913   0.453
71700W        W40173  18.553  25.197   4.760
71701W        W40174  11.728  30.414  12.887
71702W        W40175  35.039  43.287  12.056
71703W        W40176  10.263  28.549   0.758
71704W        W40177  28.154  22.184  14.357
71705W        W40178  41.409  28.073  11.093
71706W        W40179   9.656  31.412   3.285
71707W        W40180  15.635   4.328  13.357
71708W        W40181  10.686  28.960  13.872
71709W        W40182  12.692  10.267  11.923
71710W        W40183  25.559   5.194   0.404
71711W        W40184   7.237   8.745   0.857
71712W        W40185  16.147  22.740   2.684
71713W        W40186  25.178  18.734  13.347
71714W        W40187  35.599  15.100   3.371
71715W        W40188  13.198  44.967  13.960
71716W        W40189  13.751  32.405  14.386
71717W        W40190  12.138  28.556   3.805
71718W        W40191  17.172  43.372   4.746
71719W        W40192  31.415   0.328   0.905
71720W        W40193  25.637  35.486  14.813
71721W        W40194  14.268  40.384   0.837
71722W        W40195  31.134  10.658  12.961
71723W        W40196   6.227  13.780  14.485
71724W        W40197  26.659   3.761   0.446
71725W        W40198  34.120   5.894   2.876
71726W        W40199   1.828  22.063  13.518
71727W        W40200  39.319  28.145   3.863
71728W        W40201  24.146   3.815   3.328
71729W        W40202   9.320   8.851   3.696
71730W        W40203  23.635  19.274  10.984
71731W        W40204   2.398   3.919  12.567
71732W        W40205  23.588  27.447   9.981
71733W        W40206  14.207  27.473  11.083
71734W        W40207  25.006  13.229   2.383
71735W        W40208  17.716   4.253   1.738
71736W        W40209  33.575  38.404   2.389
71737W        W40210  30.582  13.219  11.582
71738W        W40211  21.626   1.751  14.006
71739W        W40212   4.904  23.016  12.086
71740W        W40213  12.308  33.974   3.720
71741W        W40214  37.037  35.536  11.590
71742W        W40215  16.735  30.530  14.463
71743W        W40216  44.814  40.419   0.752
71744W        W40217   9.737  23.046  14.469
71745W        W40218  21.642  32.100  11.533
71746W        W40219  16.255   4.938  12.566
71747W        W40220   6.278  21.224   4.718
71748W        W40221  40.900  42.522   1.230
71749W        W40222  24.145  22.097   1.742
71750W        W40223   0.858   2.765   3.711
71751W        W40224  41.452  14.788   0.283
71752W        W40225  43.849   4.796   3.227
71753W        W40226  42.866  30.046   3.289
71754W        W40227  20.747  37.565   1.762
71755W        W40228  42.850  32.591  13.876
71756W        W40229  18.273  12.658   2.328
71757W        W40230  11.756   8.741   4.631
71758W        W40231  20.121  28.063   1.774
71759W        W40232  30.124  40.960   4.821
71760W        W40233  18.278  39.531  11.560
71761W        W40234  32.428   5.413  12.856
71762W        W40235   2.396  26.128   0.462
71763W        W40236  44.475  12.613  11.489
71764W        W40237  25.168  32.898   0.246
71765W        W40238  43.967  37.886   1.228
71766W        W40239  27.647  39.325  14.988
71767W        W40240  30.431  33.976  10.514
71768W        W40241  40.917  32.592   2.286
71769W        W40242  35.368   1.776   0.864
71770W        W40243  23.526   1.459   0.767
71771W        W40244  12.152  38.062   4.150
71772W        W40245  39.866  25.706  12.908
71773W        W40246  34.924   0.480   2.358
71774W        W40247  34.934  18.173   4.737
71775W        W40248  44.319  15.749   0.352
71776W        W40249  21.031  35.089   2.728
71777W        W40250  20.713  22.552  10.969
71778W        W40251  11.324  12.157   0.482
71779W        W40252  29.488  28.569   3.320
71780W        W40253   6.203  33.565   1.445
71781W        W40254   1.761  30.474   3.629
71782W        W40255   1.909  44.824   4.619
71783W        W40256  33.110  10.759  10.512
71784W        W40257  30.492  36.998  11.104
71785W        W40258   1.778  30.581  13.977
71786W        W40259  12.685  22.056  14.988
71787W        W40260   4.231  22.733   3.862
71788W        W40261  28.498  44.977   1.218
71789W        W40262  22.578  22.606  14.830
71790W        W40263  10.211  15.648  11.584
71791W        W40264  20.574  31.627   2.400
71792W        W40265   8.238  30.514   1.804
71793W        W40266  41.916  19.175  14.443
71794W        W40267  39.409  39.048  12.934
71795W        W40268   2.440  34.946  14.514
71796W        W40269  10.843  42.894  14.902
71797W        W40270   6.832  13.729   2.223
71798W        W40271   9.663  18.693  12.476
71799W        W40272  16.248  27.664   4.205
71800W        W40273  43.498  21.726  11.879
71801W        W40274   1.254   7.878   1.227
71802W        W40275   9.800  28.598  13.377
71803W        W40276   4.415  15.795   0.457
71804W        W40277   6.248  41.831   1.314
71805W        W40278  41.861  40.386  10.419
71806W        W40279   8.731   6.730  11.988
71807W        W40280  33.091  39.402  12.379
71808W        W40281  25.018  44.893   0.742
71809W        W40282  40.500  33.459  12.385
71810W        W40283  20.159   6.788  11.077
71811W        W40284  33.406  27.084  12.924
71812W        W40285   2.468  29.001  13.458
71813W        W40286  18.120  40.416   4.173
71814W        W40287  42.481  35.907  14.773
71815W        W40288  28.929  37.351  13.021
71816W        W40289  15.679  35.040  13.927
71817W        W40290  30.612  31.637   3.189
71818W        W40291   8.169  28.107   0.278
71819W        W40292  40.810  33.066  14.942
71820W        W40293  37.559  30.922   0.482
71821W        W40294  24.596  27.054   0.752
71822W        W40295  28.099  40.490   0.914
71823W        W40296  28.138  18.767  12.469
71824W        W40297  29.498  44.962   4.139
71825W        W40298  27.148  21.608   1.743
71826W        W40299  28.093  36.484  13.982
71827W        W40300   5.810  14.762   4.696
71828W        W40301  12.794  11.318   4.633
71829W        W40302  38.995  18.725   1.394
71830W        W40303  42.427  29.458   0.896
71831W        W40304  27.653  40.816  13.987
71832W        W40305  14.288  35.441   0.254
71833W        W40306  12.664  29.074  12.456
71834W        W40307  34.420  29.992   0.727
71835W        W40308   8.400  31.101   4.624
71836W        W40309  40.386  42.785   3.198
71837W        W40310  14.272   4.700   2.709
71838W        W40311  35.858  44.403   0.905
71839W        W40312   4.315  33.917   1.858
71840W        W40313  33.487  20.693  14.773
71841W        W40314  43.471  24.080   4.312
71842W        W40315  26.524  21.744  12.016
71843W        W40316  20.639  10.244   3.234
71844W        W40317  44.922  33.003  13.391
71845W        W40318   3.278  28.585   3.863
71846W        W40319  33.450   2.311   4.168
71847W        W40320  43.875  26.080   3.264
71848W        W40321  38.864  36.058  12.972
71849W        W40322  10.739   1.469  10.449
71850W        W40323  38.997  39.520   4.353
71851W        W40324   1.879  43.516  12.479
71852W        W40325  37.851  35.875   2.778
71853W        W40326  36.055  37.040   1.907
71854W        W40327  42.451  21.059   1.419
71855W        W40328   7.687  16.640  13.545
71856W        W40329  44.798  32.897  11.551
71857W        W40330  32.525  15.612   1.269
71858W        W40331  32.919   1.331  12.063
71859W        W40332  29.013  44.879   2.813
71860W        W40333  39.541  35.389   2.881
71861W        W40334  27.477  28.602   3.800
71862W        W40335  43.904  13.222  14.448
71863W        W40336  22.706  21.515   4.768
71864W        W40337   3.730  41.365   2.872
71865W        W40338  41.434  43.794   0.735
71866W        W40339  38.449   2.826  12.912
71867W        W40340  15.599  21.064   0.371
71868W        W40341  31.154  39.011   2.890
71869W        W40342  25.020  38.822   1.441
71870W        W40343  20.108  36.433  14.485
71871W        W40344  19.229  23.724   0.407
71872W        W40345  11.831  10.777   2.796
71873W        W40346  36.545  29.068  12.460
71874W        W40347  18.236  29.981  13.880
71875W        W40348  28.449  36.367   0.803
71876W        W40349  20.711   6.297   4.719
71877W        W40350   7.904  35.074   3.272
71878W        W40351  10.365   3.229   1.312
71879W        W40352   5.880   0.831   0.342
71880W        W40353  13.200  29.166   3.272
71881W        W40354  14.174  37.349   0.393
71882W        W40355  23.005  43.501   4.600
71883W        W40356  21.054  41.806  12.518
71884W        W40357  42.433  23.647   0.457
71885W        W40358  14.210  33.982  11.055
71886W        W40359   5.246  43.841   3.795
71887W        W40360  27.459  36.074   2.335
71888W        W40361  16.172  41.886   3.305
71889W        W40362  29.445  21.135  11.456
71890W        W40363  43.404  21.722   2.188
71891W        W40364  42.371   2.410   0.299
71892W        W40365  34.053  26.982   2.772
71893W        W40366  12.187  14.655  10.535
71894W        W40367  39.914  31.468   3.870
71895W        W40368  28.122  13.184  14.807
71896W        W40369  35.931  25.138  14.313
71897W        W40370  27.972  36.585  10.892
71898W        W40371  25.663  24.665  14.775
71899W        W40372  40.475  17.219  12.849
71900W        W40373  37.430  12.190   1.240
71901W        W40374   6.770  32.051  11.495
71902W        W40375   5.692  44.338   0.423
71903W        W40376  25.662  40.407  10.521
71904W        W40377   1.829  12.857   1.391
71905W        W40378  37.872  38.886   3.287
71906W        W40379  13.163  13.600   3.382
71907W        W40380  16.288  19.067  12.992
71908W        W40381  21.602   9.230   4.728
71909W        W40382  16.761  40.311  12.481
71910W        W40383  36.524  14.132  11.443
71911W        W40384  28.130   6.780  13.489
71912W        W40385  35.059  31.138  10.898
71913W        W40386  15.602  19.066  12.872
71914W        W40387  15.110  25.166   0.753
71915W        W40388  17.733   1.926   3.342
71916W        W40389  41.318  12.833   0.415
71917W        W40390  24.566  41.876   4.130
71918W        W40391  11.309  22.101  11.971
71919W        W40392  29.065   7.231   0.265
71920W        W40393  41.523  37.569  12.516
71921W        W40394  33.587  36.088  14.416
71922W        W40395  35.049  23.232  12.839
71923W        W40396  19.247  27.167   4.238
71924W        W40397  41.000  30.445   1.294
71925W        W40398  32.624  18.122   3.751
71926W        W40399  39.428  29.434   1.242
71927W        W40400  32.083  22.200  11.112
71928W        W40401  44.957  36.544  13.054
71929W        W40402  23.590  20.256  11.968
71930W        W40403  14.831  16.082   4.836
71931W        W40404  27.159   4.931   0.369
71932W        W40405  30.430  22.651   5.307
71933W        W40406  12.225  15.239   4.811
71934W        W40407  13.757  22.180   4.624
71935W        W40408  12.730  39.059  14.000
71936W        W40409  33.980   4.382   1.923
71937W        W40410  29.585  20.242  13.538
71938W        W40411  35.946  37.929  11.610
71939W        W40412  36.406  32.973  13.829
71940W        W40413  44.260  18.151   2.327
71941W        W40414  24.053   6.358  11.463
71942W        W40415  24.113  39.349   0.793
71943W        W40416  22.722   2.741   1.741
71944W        W40417  31.095   3.277  12.427
71945W        W40418  27.091   3.410  10.601
71946W        W40419  15.139   1.953   3.717
71947W        W40420  25.169  16.202  11.435
71948W        W40421  21.669   7.211  10.478
71949W        W40422  13.187  13.239  10.970
71950W        W40423   2.836  34.884  11.124
71951W        W40424  29.562  26.012   1.428
71952W        W40425   5.852  44.321  11.532
71953W        W40426  22.738  40.375   2.704
71954W        W40427   8.704   4.332   3.382
71955W        W40428  15.153  42.425   1.900
71956W        W40429  36.544  29.584   4.670
71957W        W40430  26.129   1.253  12.390
71958W        W40431  19.247  35.094  14.465
71959W        W40432   5.268  28.126   3.300
71960W        W40433  30.422   1.870   3.206
71961W        W40434  15.302  35.392   1.923
71962W        W40435  28.610  15.612   1.895
71963W        W40436   6.678  26.561  11.544
71964W        W40437  12.792   2.425   4.731
71965W        W40438   6.201   4.327   0.946
71966W        W40439   6.683  38.470   1.244
71967W        W40440  14.810  26.546  13.947
71968W        W40441  37.352  15.254   2.403
71969W        W40442  12.804  31.618  14.927
71970W        W40443  22.168  16.661   0.432
71971W        W40444  27.953  12.719  14.509
71972W        W40445   4.348   7.361  11.926
71973W        W40446  20.688  38.471   3.306
71974W        W40447  39.422  13.278   1.343
71975W        W40448  11.270  38.566   2.784
71976W        W40449  32.931  13.228  13.056
71977W        W40450  14.340  10.815   4.188
71978W        W40451   8.396  35.385   9.561
71979W        W40452  13.130  13.266  11.542
71980W        W40453  32.076  43.987   5.220
71981W        W40454   4.217   8.899  11.042
71982W        W40455  16.134  34.081  11.933
71983W        W40456   3.334   2.739  10.645
71984W        W40457   1.841  17.686  13.395
71985W        W40458  23.102   9.813  14.513
71986W        W40459  34.466   4.311  12.395
71987W        W40460  11.856  17.696   1.227
71988W        W40461   0.378  42.481  11.884
71989W        W40462  37.889  25.018   2.294
71990W        W40463   0.957   5.321  13.000
71991W        W40464  26.481  27.497   1.815
71992W        W40465   6.385  17.765   2.730
71993W        W40466  18.286   7.287  14.477
71994W        W40467  37.564  17.692   4.833
71995W        W40468  38.064  27.095  14.930
71996W        W40469   2.721  20.703  11.047
71997W        W40470  14.801   1.333  12.466
71998W        W40471  24.532  18.206   0.374
71999W        W40472   6.187  36.010   3.387
72000W        W40473  30.534  35.981   0.422
72001W        W40474  30.110  30.505  12.507
72002W        W40475  43.999  21.071  12.871
72003W        W40476  37.085  15.760  11.029
72004W        W40477   0.358  31.125  12.023
72005W        W40478   1.922   1.918  14.490
72006W        W40479  22.210  38.565  13.419
72007W        W40480  14.152  17.747   1.248
72008W        W40481  20.075  27.689   0.836
72009W        W40482   9.215  10.370  10.916
72010W        W40483  42.883  41.396  10.086
72011W        W40484   9.366  14.214  14.285
72012W        W40485  40.353  27.669  10.550
72013W        W40486  38.890  19.187  14.984
72014W        W40487   5.879  23.064   1.772
72015W        W40488  23.732  13.678   0.934
72016W        W40489   1.309  37.497  13.510
72017W        W40490  39.369  20.609  14.410
72018W        W40491  37.530  42.956  13.883
72019W        W40492  42.972  20.676  14.368
72020W        W40493  32.568   9.267   4.677
72021W        W40494   1.316  37.035   4.285
72022W        W40495  11.738   3.255  13.895
72023W        W40496  39.019  28.990  10.099
72024W        W40497  27.039  23.188   2.362
72025W        W40498  31.025   5.279  12.417
72026W        W40499  19.049  11.825   1.699
72027W        W40500  22.030  41.992  11.073
72028W        W40501   2.389  13.304  10.572
72029W        W40502   3.436   2.946  12.567
72030W        W40503   5.362   7.868  10.568
72031W        W40504  42.360  29.514  10.423
72032W        W40505  11.692   3.363   4.226
72033W        W40506   8.363  23.052  11.058
72034W        W40507   7.779  26.645   5.266
72035W        W40508  24.604  14.177  13.515
72036W        W40509   2.914  38.995  14.499
72037W        W40510  34.932   1.920   1.708
72038W        W40511  30.523  22.687   3.742
72039W        W40512  22.557  10.335  12.909
72040W        W40513  14.708  21.720   2.743
72041W        W40514  43.979   4.365   0.432
72042W        W40515  22.656  37.364   3.733
72043W        W40516  17.661  16.272  12.358
72044W        W40517  35.505  23.150  10.421
72045W        W40518  31.618   6.206  14.482
72046W        W40519  12.658   2.735  14.840
72047W        W40520  35.497  30.942  14.860
72048W        W40521  17.292  20.178  11.435
72049W        W40522  20.147  12.739   2.725
72050W        W40523  14.815   2.759  12.992
72051W        W40524  38.843  36.387   2.313
72052W        W40525   2.262  22.241  14.451
72053W        W40526  38.937   9.231  12.964
72054W        W40527   0.415  12.143   3.653
72055W        W40528  37.922  39.961  12.499
72056W        W40529  11.828  13.720  14.772
72057W        W40530  40.980   4.822   1.714
72058W        W40531  35.906  36.988   2.403
72059W        W40532  16.181  14.274   0.823
72060W        W40533  34.563  19.714  11.086
72061W        W40534  42.379  34.577   0.809
72062W        W40535  35.858  32.397   0.958
72063W        W40536  32.027   6.909   0.386
72064W        W40537  25.194  21.739   0.786
72065W        W40538  38.419  28.547   3.698
72066W        W40539  31.450  15.292  11.523
72067W        W40540  26.567   3.416   2.717
72068W        W40541   1.801   8.824  10.452
72069W        W40542  26.480  17.096   3.727
72070W        W40543  16.745  13.180   4.218
72071W        W40544  39.960  16.147   3.291
72072W        W40545  14.135  11.760   3.729
72073W        W40546  42.506  30.458   3.177
72074W        W40547  35.031  42.924   3.355
72075W        W40548   3.714  24.193   4.622
72076W        W40549  34.512  17.220   4.754
72077W        W40550  15.123   5.722   0.267
72078W        W40551  32.398  41.903   2.749
72079W        W40552  21.086  32.920  12.063
72080W        W40553  13.698  27.980  14.288
72081W        W40554  40.960  41.832  11.525
72082W        W40555  16.685  21.616  11.045
72083W        W40556  28.616  14.168  13.494
72084W        W40557   3.433  38.456   4.641
72085W        W40558   7.708  16.080  10.991
72086W        W40559  34.473  12.724   2.370
72087W        W40560  30.577  10.202  12.578
72088W        W40561   6.384  13.676   1.213
72089W        W40562   4.345  16.739  12.365
72090W        W40563  10.343  33.492   1.816
72091W        W40564  37.908  19.546  11.896
72092W        W40565  11.276   8.348  14.819
72093W        W40566   4.768  39.497  14.502
72094W        W40567   1.335  33.978   4.749
72095W        W40568  41.369  28.930   1.738
72096W        W40569  26.011  41.917  14.812
72097W        W40570  43.971  15.810   4.767
72098W        W40571   3.381  10.163  13.976
72099W        W40572  20.722  35.061  14.891
72100W        W40573   9.190   1.381  10.911
72101W        W40574  20.756  38.877  11.934
72102W        W40575  40.426  29.456   3.711
72103W        W40576  43.865  31.957  10.471
72104W        W40577  13.240  37.896  12.008
72105W        W40578  35.071  37.423  10.625
72106W        W40579  21.072   0.404  14.441
72107W        W40580  36.585  10.298   3.196
72108W        W40581  25.006  29.165   0.355
72109W        W40582  36.497  19.681   3.294
72110W        W40583  21.243  33.472   1.451
72111W        W40584  42.433  21.117  14.276
72112W        W40585  30.481  28.623  11.054
72113W        W40586  14.198  41.030   4.780
72114W        W40587  38.848  42.394   2.804
72115W        W40588  26.680  35.012  13.901
72116W        W40589  14.799  24.227   0.261
72117W        W40590  35.516   0.293   1.319
72118W        W40591  20.205   3.320  13.389
72119W        W40592   4.834   3.442  13.912
72120W        W40593  14.159  39.323   9.935
72121W        W40594   7.812  43.922   0.291
72122W        W40595  27.661  17.767  13.877
72123W        W40596   3.389  13.141   5.276
72124W        W40597  19.618   6.253  10.909
72125W        W40598   5.422  32.011   1.803
72126W        W40599  43.423  10.310  11.566
72127W        W40600  44.916  12.214   0.826
72128W        W40601  27.044  25.498   3.291
72129W        W40602   0.463  10.680  14.993
72130W        W40603  34.448  13.146   2.802
72131W        W40604  34.986  21.260  10.478
72132W        W40605  22.599   0.888   2.343
72133W        W40606  37.547  30.120  11.384
72134W        W40607   3.916  11.183   3.752
72135W        W40608  43.375  29.449   1.761
72136W        W40609  15.732  10.265   1.218
72137W        W40610   3.395  22.213   1.817
72138W        W40611  42.995  19.127  11.960
72139W        W40612  31.527  42.340   1.926
72140W        W40613   2.739   2.356   3.260
72141W        W40614  35.391  27.508  11.088
72142W        W40615  27.072  18.704   4.313
72143W        W40616  30.930  37.948  14.318
72144W        W40617   6.246  33.967  14.953
72145W        W40618   8.666   5.437  12.521
72146W        W40619   2.271   4.860  14.296
72147W        W40620  38.467   5.310   4.736
72148W        W40621   1.421  39.923  13.483
72149W        W40622  32.966  34.988   0.924
72150W        W40623  26.093   7.701  13.841
72151W        W40624  16.699   5.717  11.997
72152W        W40625  42.420   7.886  12.917
72153W        W40626  44.879   2.720   3.679
72154W        W40627  28.955  39.881   3.350
72155W        W40628  41.810  23.170   0.306
72156W        W40629  37.576   5.416  12.434
72157W        W40630  43.020  15.581  14.376
72158W        W40631  27.959  19.126   4.787
72159W        W40632   7.811  31.142   0.456
72160W        W40633   6.877  11.317   4.671
72161W        W40634  32.460  35.554   2.327
72162W        W40635  33.898   6.734   4.746
72163W        W40636  24.624  24.037  11.544
72164W        W40637  41.013  23.997  12.937
72165W        W40638  27.521  19.675  11.108
72166W        W40639  32.458  22.704  13.984
72167W        W40640  13.231  12.223  14.855
72168W        W40641  29.476   9.675  12.021
72169W        W40642  35.103  29.162  12.045
72170W        W40643  19.105  42.776   2.355
72171W        W40644  35.996  33.037   2.411
72172W        W40645   2.409  33.037  10.614
72173W        W40646  23.647  38.512  10.904
72174W        W40647  30.026  35.057   3.188
72175W        W40648  18.607  40.509   4.715
72176W        W40649  32.067  20.622   2.396
72177W        W40650  23.093   8.218   4.834
72178W        W40651  18.678  29.484  11.904
72179W        W40652  13.826  14.785   4.835
72180W        W40653  38.565   2.374  11.540
72181W        W40654  34.986  39.041  14.438
72182W        W40655  27.058  32.614   3.325
72183W        W40656   5.343  30.129   4.264
72184W        W40657  32.466  29.503   1.341
72185W        W40658  13.714  35.024   4.613
72186W        W40659  32.431  10.291  11.398
72187W        W40660  22.093   7.757   4.316
72188W        W40661  18.653  37.074  10.547
72189W        W40662  40.931   7.719   4.354
72190W        W40663   4.913  32.117  10.495
72191W        W40664  40.343  32.126   0.885
72192W        W40665  40.975  31.569   0.459
72193W        W40666  31.450  36.383   0.439
72194W        W40667  19.703  29.497   1.362
72195W        W40668  37.399  19.567   5.123
72196W        W40669  26.155  16.202  14.917
72197W        W40670  21.043  27.091  14.021
72198W        W40671  27.091   3.301   4.147
72199W        W40672   8.760  39.933  12.008
72200W        W40673  12.171  32.924  14.315
72201W        W40674   5.236   4.891   9.438
72202W        W40675  43.789  20.535   1.890
72203W        W40676  20.570  22.101   0.474
72204W        W40677  23.000  25.972  14.393
72205W        W40678  34.554  19.611   1.335
72206W        W40679   9.307  19.581  14.509
72207W        W40680   0.489  39.997   3.863
72208W        W40681  11.760  31.634   2.299
72209W        W40682  37.423  13.718   2.258
72210W        W40683  17.723  40.017   4.305
72211W        W40684  13.230   3.912   2.398
72212W        W40685  10.879  13.179  12.976
72213W        W40686   7.373  20.052   0.260
72214W        W40687   3.768   4.923  10.124
72215W        W40688   8.812  33.033  13.934
72216W        W40689  39.387   8.259   3.381
72217W        W40690   3.396   5.706  13.317
72218W        W40691   1.371  11.270   3.220
72219W        W40692  26.661  30.034  14.366
72220W        W40693  25.128  27.127  12.989
72221W        W40694  11.785  36.906  12.010
72222W        W40695  23.561   0.926   0.922
72223W        W40696  23.028   9.242   2.720
72224W        W40697  40.358  22.154  10.443
72225W        W40698   9.886  17.585  13.425
72226W        W40699  23.101  12.845   2.247
72227W        W40700   8.820  39.402  11.883
72228W        W40701  43.487  41.911  11.982
72229W        W40702   6.920  13.608   3.766
72230W        W40703  25.655   0.815   5.113
72231W        W40704  16.576   2.304   4.718
72232W        W40705  38.059  19.051  14.836
72233W        W40706  43.953  14.678   2.674
72234W        W40707  42.899  25.099   0.754
72235W        W40708  27.170  43.945   1.422
72236W        W40709  41.965  22.688   4.774
72237W        W40710  12.730  33.901   0.939
72238W        W40711   9.766  35.064   2.764
72239W        W40712  36.575  27.947   1.398
72240W        W40713  42.803  34.072  11.922
72241W        W40714  20.610  20.202  12.485
72242W        W40715  25.018  39.473   4.653
72243W        W40716  32.911  33.542   2.728
72244W        W40717  30.985  19.730  12.927
72245W        W40718   6.272  13.769   2.739
72246W        W40719  39.431  32.904  11.400
72247W        W40720  20.637   8.752  11.494
72248W        W40721  40.798  12.839   1.813
72249W        W40722  24.015  40.355   5.082
72250W        W40723  29.484  11.657  12.856
72251W        W40724  27.068   0.432   4.763
72252W        W40725   5.294  20.709   0.426
72253W        W40726  23.589   6.303  11.453
72254W        W40727  41.863  28.026  12.483
72255W        W40728  35.866  37.500   1.918
72256W        W40729  14.737  30.101   1.851
72257W        W40730  38.477  29.479   1.721
72258W        W40731  38.451   3.423   0.835
72259W        W40732  18.742  24.539   0.483
72260W        W40733  13.300   4.394   2.402
72261W        W40734  32.066  23.514  10.975
72262W        W40735  35.577  25.065   1.932
72263W        W40736  18.636  40.970   3.185
72264W        W40737  15.779  23.572  10.947
72265W        W40738  26.519   2.330   2.888
72266W        W40739  15.739   3.275   3.188
72267W        W40740  17.710   2.888  14.841
72268W        W40741   0.482  22.534  13.928
72269W        W40742  21.671  19.662  13.038
72270W        W40743   1.366  26.490   0.947
72271W        W40744   4.246  34.568  11.611
72272W        W40745  39.376  25.203  13.823
72273W        W40746  15.194  23.188   3.730
72274W        W40747  31.096  26.497  14.452
72275W        W40748   2.291  12.314  14.857
72276W        W40749  23.229   7.848   3.363
72277W        W40750   8.680   9.255  13.314
72278W        W40751   5.338  16.136  10.892
72279W        W40752  21.557   6.302   4.322
72280W        W40753  20.042  15.224  14.326
72281W        W40754  32.934   6.711  13.496
72282W        W40755   8.655  41.322   2.211
72283W        W40756  30.639  40.804  10.447
72284W        W40757   1.944   9.151   2.250
72285W        W40758  40.975  42.395  14.883
72286W        W40759  41.936  34.531  14.008
72287W        W40760  41.861  15.678  12.487
72288W        W40761  11.708   8.810   3.211
72289W        W40762  38.370  35.475   0.399
72290W        W40763  40.836  17.267   4.226
72291W        W40764  28.931  14.821   0.358
72292W        W40765  20.102  16.716   4.801
72293W        W40766  44.322   4.284   1.248
72294W        W40767  40.849  43.912  12.003
72295W        W40768  42.474  14.288  11.014
72296W        W40769  31.975  28.102  11.863
72297W        W40770   3.888   0.457   0.870
72298W        W40771  24.990  18.695   3.680
72299W        W40772  33.114  42.987  13.987
72300W        W40773  29.445  44.494   1.710
72301W        W40774   3.836  32.435   2.235
72302W        W40775  20.657  37.503   1.400
72303W        W40776  15.224  31.543  12.991
72304W        W40777  33.031   4.360   2.829
72305W        W40778  13.350   5.729   0.258
72306W        W40779  36.989  22.602  12.025
72307W        W40780  37.336  41.926  12.065
72308W        W40781   8.370  40.370   3.149
72309W        W40782  17.154  42.913  12.560
72310W        W40783  18.101  20.731   2.391
72311W        W40784  31.574  24.157   2.884
72312W        W40785  21.694   2.265   2.273
72313W        W40786  36.508  40.902  12.903
72314W        W40787  19.079  18.218  14.875
72315W        W40788  23.522  37.346  10.459
72316W        W40789   0.938  41.305  12.477
72317W        W40790  11.234  25.684  14.294
72318W        W40791  43.278  28.532   4.247
72319W        W40792  39.928  16.716   1.399
72320W        W40793   5.719  25.602   2.718
72321W        W40794  28.624  35.476   2.728
72322W        W40795   5.331  36.976  14.415
72323W        W40796  26.996  40.824   1.747
72324W        W40797  27.523   2.315   1.324
72325W        W40798  44.263  12.117  14.846
72326W        W40799  29.140   6.686  10.427
72327W        W40800  14.172  41.788  14.400
72328W        W40801  34.567   1.326   2.256
72329W        W40802  13.732  40.436  12.382
72330W        W40803  41.792  12.640  13.431
72331W        W40804  15.278  21.532  11.481
72332W        W40805  33.580   8.804   3.282
72333W        W40806   6.683  15.646   4.328
72334W        W40807  26.059  34.382  14.929
72335W        W40808  40.045  10.235  10.995
72336W        W40809  43.448  24.124   4.659
72337W        W40810  28.478  26.972  12.522
72338W        W40811   0.789  37.945  13.827
72339W        W40812  15.300  42.354   2.798
72340W        W40813  12.118  18.120  12.484
72341W        W40814  29.503  10.308   1.847
72342W        W40815   7.801  36.980   2.412
72343W        W40816  26.586  29.443  13.321
72344W        W40817  21.185   9.672   2.372
72345W        W40818   2.761  13.164  11.508
72346W        W40819  27.666  38.490   1.369
72347W        W40820  30.486   9.210  11.509
72348W        W40821  26.148  20.577   0.806
72349W        W40822  31.043   7.713   0.850
72350W        W40823   7.818  25.550  14.008
72351W        W40824   2.817  19.633   0.431
72352W        W40825  42.777  18.679   3.750
72353W        W40826   0.959   9.839  11.472
72354W        W40827  41.978   0.824   0.452
72355W        W40828  28.045  16.696   0.315
72356W        W40829  20.028  15.202   2.865
72357W        W40830  14.755  14.262   4.299
72358W        W40831  39.000   0.489  10.477
72359W        W40832  36.518  27.526   3.253
72360W        W40833   4.302  32.412   0.428
72361W        W40834  18.712  23.548  14.897
72362W        W40835  36.063  33.084  11.403
72363W        W40836  18.049  35.465  10.451
72364W        W40837   7.864  33.075   0.249
72365W        W40838  13.308  27.947  11.401
72366W        W40839   2.357  41.323   2.327
72367W        W40840   0.294  10.661   3.865
72368W        W40841   1.402  41.024   0.357
72369W        W40842  42.423  20.555  12.524
72370W        W40843   1.956  22.656   0.851
72371W        W40844  31.980  35.968  14.378
72372W        W40845   3.250  13.137   0.481
72373W        W40846  23.497  34.016  14.493
72374W        W40847  11.273  42.399  13.316
72375W        W40848  29.984  35.443  10.479
72376W        W40849  39.433  14.747  14.470
72377W        W40850  15.705  13.274  13.493
72378W        W40851  28.491  34.084   0.846
72379W        W40852   0.898  42.824  14.421
72380W        W40853  19.682  27.968  14.843
72381W        W40854  11.855   1.943  10.063
72382W        W40855  27.001  44.777   3.679
72383W        W40856  15.267  44.838  13.007
72384W        W40857   2.874  31.622  10.995
72385W        W40858  13.785  26.992   3.666
72386W        W40859   9.657  39.432  12.492
72387W        W40860  13.327  41.957   3.795
72388W        W40861  16.242   1.840   1.262
72389W        W40862   1.301  27.587   2.805
72390W        W40863  41.406   4.232  14.392
72391W        W40864   8.333  34.430  14.014
72392W        W40865   7.776  20.577   4.126
72393W        W40866  13.743  31.402  13.939
72394W        W40867  24.027  36.910  12.459
72395W        W40868  29.513  39.981   5.212
72396W        W40869  27.956   9.255   2.830
72397W        W40870  39.941  36.955   3.841
72398W        W40871  34.487  21.113   3.150
72399W        W40872  43.283   0.304   3.673
72400W        W40873  39.951  29.556  11.027
72401W        W40874  21.209  43.837   4.326
72402W        W40875  39.375  35.990   4.761
72403W        W40876   6.330   9.312   3.699
72404W        W40877  34.077   6.314  10.561
72405W        W40878  20.181  38.406   4.261
72406W        W40879  29.439  39.911  10.106
72407W        W40880  22.704  29.150  12.968
72408W        W40881  38.387  37.357   0.752
72409W        W40882  39.908  33.438  13.928
72410W        W40883  19.563   1.276  11.388
72411W        W40884  38.047  39.927   1.296
72412W        W40885  29.484  36.401   0.950
72413W        W40886  17.093   8.252   4.628
72414W        W40887  12.145  40.880  11.108
72415W        W40888   3.409  13.225   4.631
72416W        W40889  14.309  27.677   4.792
72417W        W40890  36.085  25.500   2.189
72418W        W40891  16.306  26.471  12.001
72419W        W40892  28.522  28.001   4.598
72420W        W40893   1.860  35.918  10.472
72421W        W40894  41.310   7.187  13.985
72422W        W40895   1.297  27.457   4.161
72423W        W40896   9.728  42.871  10.578
72424W        W40897  32.529  30.139   2.860
72425W        W40898   2.735  28.053  13.960
72426W        W40899  11.221  28.550   3.379
72427W        W40900  29.085   7.784   1.799
72428W        W40901  38.433  16.204   3.351
72429W        W40902  23.020  17.580  11.932
72430W        W40903  37.469  29.109  10.965
72431W        W40904   3.426  14.123   1.415
72432W        W40905   4.274   3.860  14.950
72433W        W40906   1.336  14.681  14.337
72434W        W40907  12.228  25.003  10.521
72435W        W40908   8.400  26.176   1.394
72436W        W40909   7.857  30.120  11.456
72437W        W40910  33.926  26.164  11.017
72438W        W40911   7.401   2.426  11.439
72439W        W40912  16.098  35.922   1.342
72440W        W40913   2.291  37.931  10.503
72441W        W40914   4.393  44.947   0.303
72442W        W40915  23.521  39.911   2.889
72443W        W40916  29.997  30.533  12.995
72444W        W40917   4.800  11.304   1.380
72445W        W40918  24.154  37.946  10.451
72446W        W40919   0.839  38.958  11.957
72447W        W40920   1.877   3.913   4.838
72448W        W40921  42.964   2.378   2.746
72449W        W40922  32.892  44.892  11.441
72450W        W40923  17.653  26.637  13.505
72451W        W40924  29.046  17.657   0.924
72452W        W40925  20.736  12.694   5.108
72453W        W40926  41.010  10.149   2.702
72454W        W40927  41.940  11.801   0.781
72455W        W40928  37.367   3.427   2.373
72456W        W40929  32.104  27.509   2.207
72457W        W40930  13.689  11.164  12.473
72458W        W40931  42.376  41.382   0.852
72459W        W40932  36.043  39.923   0.910
72460W        W40933  20.631  26.151   2.759
72461W        W40934  37.404   9.206   1.218
72462W        W40935  12.804   5.863  13.331
72463W        W40936  37.523  38.368  13.320
72464W        W40937  19.692  18.200   3.301
72465W        W40938  42.906  31.113   4.334
72466W        W40939  29.616   4.776  11.556
72467W        W40940  28.059  11.264   2.672
72468W        W40941  23.100   0.886   4.127
72469W        W40942  39.984   6.767  10.434
72470W        W40943  19.064   4.275  10.949
72471W        W40944  14.728  42.926   2.675
72472W        W40945  30.995  20.607   0.941
72473W        W40946  35.072  11.865   3.209
72474W        W40947  27.644  15.297   3.162
72475W        W40948  11.365   3.720  11.466
72476W        W40949   7.835  25.589  10.482
72477W        W40950  27.687  26.077   0.733
72478W        W40951  20.756  24.663  11.601
72479W        W40952  28.100  44.005   2.845
72480W        W40953  39.936   0.467   3.815
72481W        W40954  17.717   4.347  12.476
72482W        W40955  14.208  21.592   0.369
72483W        W40956   9.232   9.669  13.913
72484W        W40957  27.692  31.928  13.925
72485W        W40958  11.675  27.463  12.426
72486W        W40959  40.529  32.993   1.708
72487W        W40960  26.469  15.230  14.975
72488W        W40961  19.701  15.098   2.202
72489W        W40962  17.111  25.013  12.866
72490W        W40963  23.132   6.706  10.516
72491W        W40964  36.858  40.856  12.898
72492W        W40965   2.262   4.277   4.314
72493W        W40966  38.076  17.623  14.315
72494W        W40967  43.014  15.647   3.750
72495W        W40968  25.128  12.328  14.030
72496W        W40969  30.652  10.306   0.480
72497W        W40970   6.921  27.003   1.924
72498W        W40971  25.528  38.335  10.531
72499W        W40972   8.269  23.702   9.925
72500W        W40973  41.350  37.066   0.389
72501W        W40974  30.027  24.988  13.407
72502W        W40975  44.325  35.079   5.304
72503W        W40976  28.526  26.681  14.372
72504W        W40977  27.143  39.020  13.422
72505W        W40978   6.815  33.588  12.548
72506W        W40979  38.058  37.413   1.418
72507W        W40980   5.755  38.472   3.824
72508W        W40981   8.762  14.166  13.408
72509W        W40982  41.925  24.495  11.381
72510W        W40983  42.481  15.783  13.520
72511W        W40984  17.162   2.777   4.121
72512W        W40985  11.817   7.335   4.318
72513W        W40986  29.970  44.502   3.705
72514W        W40987  16.177  12.147  13.798
72515W        W40988  10.145   9.204   2.853
72516W        W40989  34.076  17.626   2.338
72517W        W40990  15.664  43.408  12.850
72518W        W40991  44.828  43.299  13.365
72519W        W40992  43.019   2.747   1.445
72520W        W40993  20.708  18.588  10.486
72521W        W40994  33.109  37.345  11.440
72522W        W40995  27.622  22.520   0.474
72523W        W40996   9.661  13.249  11.990
72524W        W40997  22.665  22.189  14.797
72525W        W40998  11.789   6.332   0.254
72526W        W40999  41.842   7.766   4.193
72527W        W41000  33.406   1.976  14.759
72528W        W41001  15.250  37.850   3.668
72529W        W41002  31.046   2.818  12.470
72530W        W41003  36.462   3.297   1.747
72531W        W41004  13.727  12.212   1.278
72532W        W41005  12.693  38.564   4.804
72533W        W41006   1.290  19.210   2.183
72534W        W41007   0.286  26.109  12.906
72535W        W41008  41.936   2.956   2.396
72536W        W41009   0.307  34.112  12.982
72537W        W41010   7.289   3.878   2.413
72538W        W41011   8.782  26.978   1.724
72539W        W41012  32.965  33.618   1.793
72540W        W41013  37.921  27.141   3.769
72541W        W41014  29.981  38.487   2.762
72542W        W41015  32.979   1.290  12.442
72543W        W41016  39.554  15.651   0.793
72544W        W41017  23.020  12.770   1.385
72545W        W41018  31.978   0.831   4.268
72546W        W41019  33.571  15.141  12.517
72547W        W41020  15.196  21.237   2.377
72548W        W41021   6.702   6.870  10.571
72549W        W41022  39.038  34.392  14.350
72550W        W41023  16.782  11.244   0.464
72551W        W41024  29.921  38.484   4.687
72552W        W41025  34.049  25.592   2.681
72553W        W41026   8.305   4.858   2.284
72554W        W41027   8.194   2.405  11.480
72555W        W41028  41.985  36.483  11.929
72556W        W41029   4.245   7.261  11.112
72557W        W41030  10.700  42.301   2.833
72558W        W41031  24.646  13.312   9.995
72559W        W41032  43.512  15.123  11.559
72560W        W41033   0.451   9.741   0.889
72561W        W41034  37.545  23.496  10.041
72562W        W41035  39.995  30.974   0.369
72563W        W41036  11.208   5.351   2.266
72564W        W41037   6.377  38.033  11.387
72565W        W41038   0.923   8.856   0.831
72566W        W41039  36.362  44.332  12.419
72567W        W41040  42.985   6.188  12.054
72568W        W41041   7.671  44.346   3.188
72569W        W41042  29.549   1.362   3.811
72570W        W41043   7.849  34.016  10.596
72571W        W41044  36.998  34.093   2.804
72572W        W41045  23.067  23.000  13.850
72573W        W41046  11.320   2.734  13.047
72574W        W41047  39.989  20.675   1.276
72575W        W41048  11.320   9.294  14.278
72576W        W41049  43.400   8.220   2.809
72577W        W41050   4.701   8.354   0.923
72578W        W41051  24.048   9.240  11.861
72579W        W41052  29.636  20.189  13.889
72580W        W41053   5.745  17.296   1.840
72581W        W41054  10.775  24.717  13.379
72582W        W41055  11.196   5.913   2.838
72583W        W41056  29.152  19.072   0.923
72584W        W41057  29.057  24.529  10.411
72585W        W41058  40.489  20.646  12.868
72586W        W41059   8.812   5.932  10.038
72587W        W41060  38.483  29.167  14.827
72588W        W41061  30.625  29.630   4.792
72589W        W41062  42.020  32.617   1.418
72590W        W41063  33.385  26.203   5.158
72591W        W41064  11.839  32.626  12.374
72592W        W41065  28.550   0.433   2.208
72593W        W41066   8.185  31.111   0.968
72594W        W41067  31.614  27.482   0.739
72595W        W41068  43.866  44.457  12.400
72596W        W41069  29.927  31.010   3.771
72597W        W41070  40.054  17.297   2.277
72598W        W41071   0.262   2.815  10.930
72599W        W41072  33.105  30.418  12.431
72600W        W41073  42.310  25.473  13.450
72601W        W41074  34.979  22.129  12.880
72602W        W41075  33.082  33.015   1.796
72603W        W41076  11.671  40.812   0.916
72604W        W41077   0.986  11.322  11.013
72605W        W41078  26.117  37.003  12.401
72606W        W41079  35.981   8.298   2.234
72607W        W41080  11.758   3.315  12.014
72608W        W41081  19.547  31.131   3.712
72609W        W41082   6.710  37.975  12.920
72610W        W41083  11.800  29.002   1.325
72611W        W41084  34.477   6.727   0.812
72612W        W41085  21.257   1.863   0.739
72613W        W41086  37.461  41.418  12.061
72614W        W41087  10.776   5.827  12.927
72615W        W41088  40.355  38.859  11.464
72616W        W41089   3.449  30.069  10.904
72617W        W41090  18.641  30.031  14.998
72618W        W41091  15.255  35.083   0.322
72619W        W41092  26.989  18.069  12.408
72620W        W41093  44.490  17.791  14.939
72621W        W41094  32.130  42.813   5.285
72622W        W41095  34.955   0.402  14.913
72623W        W41096  42.468  29.472   3.159
72624W        W41097  16.626  20.189   1.783
72625W        W41098  33.419  26.978  14.860
72626W        W41099  33.506  10.176   9.980
72627W        W41100   6.421   8.849  14.935
72628W        W41101  23.185  37.979   1.857
72629W        W41102  30.010   1.442  10.897
72630W        W41103  33.078   0.777   3.204
72631W        W41104  23.714  10.286  10.642
72632W        W41105  10.222   7.746  11.884
72633W        W41106   4.212  28.166   3.846
72634W        W41107  10.242  41.811   4.348
72635W        W41108  22.129  18.735  13.460
72636W        W41109  22.644  26.097   1.441
72637W        W41110  26.597  26.592  14.993
72638W        W41111  38.559   8.739   0.302
72639W        W41112  17.733  44.895   0.935
72640W        W41113   1.752  37.563   1.391
72641W        W41114  23.619  16.193   1.895
72642W        W41115  17.274  24.197  13.062
72643W        W41116   8.800   5.346  12.963
72644W        W41117  25.472  44.406   2.185
72645W        W41118  25.149  43.865   0.362
72646W        W41119  18.196   3.217   2.361
72647W        W41120  25.653  24.137  11.573
72648W        W41121   3.382   2.782  13.394
72649W        W41122   8.900   3.731  11.127
72650W        W41123  14.818  42.827  12.376
72651W        W41124   9.376   2.887  13.865
72652W        W41125  26.206   1.468   3.314
72653W        W41126  25.525  36.488   0.414
72654W        W41127  13.324  36.047  13.483
72655W        W41128  13.645  14.269  13.945
72656W        W41129  40.861  10.687  12.827
72657W        W41130  27.069  33.482  11.957
72658W        W41131  21.193  28.508   9.935
72659W        W41132  29.141  29.041  13.856
72660W        W41133  34.888   9.782   1.360
72661W        W41134  22.553  41.819  14.886
72662W        W41135   7.815   8.696   2.299
72663W        W41136  36.582  24.122   2.863
72664W        W41137  35.898   3.383   3.808
72665W        W41138  17.164  41.446   4.125
72666W        W41139  13.252   7.302  12.340
72667W        W41140  29.120   2.228   2.874
72668W        W41141  23.064  20.215   4.710
72669W        W41142   9.197   6.680   3.243
72670W        W41143  22.125   9.223   0.829
72671W        W41144  44.460   9.372   1.356
72672W        W41145  23.679   5.866  10.528
72673W        W41146  35.067  44.953   1.213
72674W        W41147  15.612  23.025  14.851
72675W        W41148  30.940  42.883   4.146
72676W        W41149  34.582  33.904   4.720
72677W        W41150   3.723  14.316  14.887
72678W        W41151   9.277  41.343   1.417
72679W        W41152   9.864  41.445   4.611
72680W        W41153   7.705  13.733   4.246
72681W        W41154  20.240   2.396   4.293
72682W        W41155  32.951  16.762  11.601
72683W        W41156  34.976  44.423  14.478
72684W        W41157  33.424  30.041  12.447
72685W        W41158  30.117  34.599   4.806
72686W        W41159  34.418  35.904   2.745
72687W        W41160  10.750  26.155  12.529
72688W        W41161  21.664  10.218   3.758
72689W        W41162  33.950  14.702   1.760
72690W        W41163   5.835   3.439   2.381
72691W        W41164  34.102  44.327  11.896
72692W        W41165  36.055   8.711   2.828
72693W        W41166  15.666   7.382   4.825
72694W        W41167  31.957  14.633   2.408
72695W        W41168   8.666   8.888  11.013
72696W        W41169  41.338  40.899   0.792
72697W        W41170  27.121   9.821   4.634
72698W        W41171  28.545  28.537   2.290
72699W        W41172  23.204  40.863  11.585
72700W        W41173  25.496  37.527  10.991
72701W        W41174   5.323  29.632   1.425
72702W        W41175  22.050   6.275  10.909
72703W        W41176  15.143  10.819  13.433
72704W        W41177  29.958  37.448  12.877
72705W        W41178   8.307  19.708  10.965
72706W        W41179  33.961  14.134   3.272
72707W        W41180  17.732  20.171   0.779
72708W        W41181  12.154  23.700  13.823
72709W        W41182  26.642  14.723   4.284
72710W        W41183   4.751  26.167   4.642
72711W        W41184  11.799   0.839   3.708
72712W        W41185  15.143  27.453   3.259
72713W        W41186  30.050  16.772   1.338
72714W        W41187  11.726  17.799  11.476
72715W        W41188  29.514  43.845  12.377
72716W        W41189   8.661   0.982  13.356
72717W        W41190  28.161  33.079   4.605
72718W        W41191  16.223  27.115  12.845
72719W        W41192  26.048  23.015   2.187
72720W        W41193  43.366  43.497   0.870
72721W        W41194  40.409   1.864   1.450
72722W        W41195   8.378  29.111   1.345
72723W        W41196   2.466  11.355  14.458
72724W        W41197  40.948  32.616  11.519
72725W        W41198  17.717  38.066   5.306
72726W        W41199  30.986  27.019  14.825
72727W        W41200   6.883  12.820   1.450
72728W        W41201  17.757  37.365   1.823
72729W        W41202  23.707  18.607   2.371
72730W        W41203  15.088  16.278  14.011
72731W        W41204  30.444  17.702  14.361
72732W        W41205  39.362  15.719   2.253
72733W        W41206  11.867  22.195   0.321
72734W        W41207  43.861  21.018   2.691
72735W        W41208  17.229   2.240  11.576
72736W        W41209  14.734   1.281  14.860
72737W        W41210  39.857  27.999  12.078
72738W        W41211  26.627  36.903  10.892
72739W        W41212  29.939  42.332   5.781
72740W        W41213   6.722  41.296   2.667
72741W        W41214  10.673  35.920  10.963
72742W        W41215  11.845  15.718  13.508
72743W        W41216   1.937  41.375  11.606
72744W        W41217  40.798  29.442   1.915
72745W        W41218   9.715  11.629   0.469
72746W        W41219   9.379  41.330   2.835
72747W        W41220   7.776  16.313   5.301
72748W        W41221   5.241  34.897  14.994
72749W        W41222  31.636  26.151  10.521
72750W        W41223  27.168  23.663  12.828
72751W        W41224  23.019  35.533  12.898
72752W        W41225  12.848  30.605   0.437
72753W        W41226   9.791   7.262  13.000
72754W        W41227  40.944  16.744   4.823
72755W        W41228   6.842  24.642  14.297
72756W        W41229  40.494  11.330  11.895
72757W        W41230  38.499  44.915   3.838
72758W        W41231  28.599  30.551   0.313
72759W        W41232  36.538  18.662   2.413
72760W        W41233   3.908  12.857   3.353
72761W        W41234  43.445   5.734  12.028
72762W        W41235  38.496   6.425  14.784
72763W        W41236  14.657   9.252   4.668
72764W        W41237  37.915  40.934   3.789
72765W        W41238  21.215  40.448  12.433
72766W        W41239   6.239  30.605  11.962
72767W        W41240  21.048  35.423   4.824
72768W        W41241  20.756  40.854  10.511
72769W        W41242  22.162  14.656  13.876
72770W        W41243  18.616   8.369  11.042
72771W        W41244  30.627  24.070   5.096
72772W        W41245  30.526  14.640   4.153
72773W        W41246  14.171  16.152   3.340
72774W        W41247  27.985  12.210  12.393
72775W        W41248   4.286  28.122  14.804
72776W        W41249  12.619  30.440  12.526
72777W        W41250  17.286  27.951   5.279
72778W        W41251  13.300  44.848  14.309
72779W        W41252  11.688  28.472  13.375
72780W        W41253   0.986  42.869   9.976
72781W        W41254  41.028  17.248  10.510
72782W        W41255  32.538  15.178   0.349
72783W        W41256  22.699  13.287   1.845
72784W        W41257  32.084  20.647  14.955
72785W        W41258  26.023  21.604  12.465
72786W        W41259   5.926   9.220  11.975
72787W        W41260  41.965  39.518   4.663
72788W        W41261  27.482  24.699  12.876
72789W        W41262  29.623  34.981   2.799
72790W        W41263  20.140  44.814   1.289
72791W        W41264   8.757  16.239   1.389
72792W        W41265  14.095  11.697  13.345
72793W        W41266  19.689  16.777   1.390
72794W        W41267  37.343  20.628   1.859
72795W        W41268  19.627   0.306   4.288
72796W        W41269  44.813  24.687  12.094
72797W        W41270  26.552   2.965  10.427
72798W        W41271  29.546  11.773   3.725
72799W        W41272  21.087  12.255  14.970
72800W        W41273   9.860  41.796  12.980
72801W        W41274  29.642  19.282  11.856
72802W        W41275  34.489  29.650   3.283
72803W        W41276  17.091  27.477   0.885
72804W        W41277   9.323  26.498  12.048
72805W        W41278  35.103   6.401  14.378
72806W        W41279  12.795   7.190   2.880
72807W        W41280  27.643  28.967   2.351
72808W        W41281  25.113  32.138  11.557
72809W        W41282  21.186  13.615  10.912
72810W        W41283  28.559   9.728   2.863
72811W        W41284  34.449   4.303  11.011
72812W        W41285  13.644  40.538   3.258
72813W        W41286   6.852  22.703   0.752
72814W        W41287  29.650  23.537   1.313
72815W        W41288  25.128  36.571   4.635
72816W        W41289  10.314  38.861   0.270
72817W        W41290  22.116  24.635   3.851
72818W        W41291  10.207  37.050   2.748
72819W        W41292   7.870  24.638   4.228
72820W        W41293  30.644  10.689   2.275
72821W        W41294  10.353  43.776  12.076
72822W        W41295   9.217   0.929  12.443
72823W        W41296  36.060  15.779  12.889
72824W        W41297  22.548   6.238  10.002
72825W        W41298  23.717  26.179  13.983
72826W        W41299  36.993   3.828   2.768
72827W        W41300  17.184  31.592  10.986
72828W        W41301  10.635  37.919   0.958
72829W        W41302   4.337  16.803  12.011
72830W        W41303  44.863  22.011   3.277
72831W        W41304   8.693   8.806   4.204
72832W        W41305  11.362  36.892   0.916
72833W        W41306  44.997  21.631  13.063
72834W        W41307  36.423  21.517   4.294
72835W        W41308  38.486  43.918  13.012
72836W        W41309  32.957  39.473  12.848
72837W        W41310  17.777  29.993   2.389
72838W        W41311  16.639  21.162  10.089
72839W        W41312   9.715  38.534  11.417
72840W        W41313  12.295   3.860  13.839
72841W        W41314  43.943  18.258   1.368
72842W        W41315  11.717  19.182  11.542
72843W        W41316   5.848  28.477   3.672
72844W        W41317  12.121   8.218  13.888
72845W        W41318   4.932  26.001  10.473
72846W        W41319  31.402   3.338   4.176
72847W        W41320  32.975  27.615  10.532
72848W        W41321   0.304  25.539   0.404
72849W        W41322  43.954  26.062   2.732
72850W        W41323  35.450   8.687  12.032
72851W        W41324  40.802   6.864   1.247
72852W        W41325  13.844   1.356   0.940
72853W        W41326  19.148   1.244   0.431
72854W        W41327  32.024  36.552   4.724
72855W        W41328  20.693  21.592   4.179
72856W        W41329  18.701  38.496  14.935
72857W        W41330  37.395   2.353   0.483
72858W        W41331   8.666  25.971  13.364
72859W        W41332  38.503   2.962  11.952
72860W        W41333  39.375  31.561   1.215
72861W        W41334  38.885  43.499  11.574
72862W        W41335  30.605  17.693   0.440
72863W        W41336   8.854  21.746   0.344
72864W        W41337   8.329   6.277   1.791
72865W        W41338  21.256  12.611   5.659
72866W        W41339  33.478  24.029  14.374
72867W        W41340  24.596  28.553   1.231
72868W        W41341  17.776   5.884  14.475
72869W        W41342  13.682  41.803  10.599
72870W        W41343  14.227  33.072   2.824
72871W        W41344  32.012  30.136   1.901
72872W        W41345   9.678  17.788  12.518
72873W        W41346   1.897  29.480  10.898
72874W        W41347  39.458  20.053  14.869
72875W        W41348  40.027  28.446  12.030
72876W        W41349   0.294  41.007   1.395
72877W        W41350  31.445  35.876  13.473
72878W        W41351  23.090   5.773   0.257
72879W        W41352  43.956  29.994  12.530
72880W        W41353  37.834   2.321  11.929
72881W        W41354  18.567  13.146  13.808
72882W        W41355  10.325  44.862  14.031
72883W        W41356  41.493  23.021   3.383
72884W        W41357  39.023  21.649  13.959
72885W        W41358  34.559  14.333   2.720
72886W        W41359   2.333  23.704   0.437
72887W        W41360  16.596  21.167   0.920
72888W        W41361   9.348  43.777  11.496
72889W        W41362  15.282   6.423  11.014
72890W        W41363  19.738  24.200   0.380
72891W        W41364  27.652   7.880  13.905
72892W        W41365  40.908  11.833  14.004
72893W        W41366  17.081  13.755   1.322
72894W        W41367  43.855  10.256  13.471
72895W        W41368  27.154   5.885   2.771
72896W        W41369   4.338  22.640   0.888
72897W        W41370   1.286  35.552  11.025
72898W        W41371  42.939  32.568   4.774
72899W        W41372  28.062  20.196  14.891
72900W        W41373   5.698  37.877   2.882
72901W        W41374  10.663  22.027  13.425
72902W        W41375  14.697   9.741   4.211
72903W        W41376   7.685  26.093   2.377
72904W        W41377  24.088  37.492   3.284
72905W        W41378   9.336  28.481  13.410
72906W        W41379  11.242  43.437   4.657
72907W        W41380  30.966  43.960   1.774
72908W        W41381  15.702  19.082   1.367
72909W        W41382   3.745  34.895  10.562
72910W        W41383  28.975  14.305   2.883
72911W        W41384  31.427   8.684  13.028
72912W        W41385  33.384  20.255   4.630
72913W        W41386   0.860  33.584  10.418
72914W        W41387  20.066   4.264   1.825
72915W        W41388  41.345  41.839   0.331
72916W        W41389   5.760  25.069   4.620
72917W        W41390   5.321   8.741   1.435
72918W        W41391  32.083   8.686   2.311
72919W        W41392  19.586  26.186   1.816
72920W        W41393  23.158  18.239   3.708
72921W        W41394  20.032   7.214   4.331
72922W        W41395   4.362  31.520  14.903
72923W        W41396   0.767  35.539  14.311
72924W        W41397   0.824   1.353  11.921
72925W        W41398  31.122  44.838   2.314
72926W        W41399  39.946  31.495  12.998
72927W        W41400  10.746  17.739   3.856
72928W        W41401  39.483   5.365   1.354
72929W        W41402  19.072  41.350  10.413
72930W        W41403  36.982  19.633   3.760
72931W        W41404  12.141  39.338  10.935
72932W        W41405  30.080  18.745  12.501
72933W        W41406  11.701  44.449  12.358
72934W        W41407   8.282   3.244   0.399
72935W        W41408  43.959   0.250  13.010
72936W        W41409  19.093  37.833   4.606
72937W        W41410  14.242  28.959   2.283
72938W        W41411  22.549  35.515   4.703
72939W        W41412  23.231  28.523   0.877
72940W        W41413  32.989  30.077   4.142
72941W        W41414  12.277  33.479  11.431
72942W        W41415  11.131   2.720   2.278
72943W        W41416  29.602  43.421  10.618
72944W        W41417  11.335  12.343   2.681
72945W        W41418  42.387   6.191  11.105
72946W        W41419  25.181  32.048  11.888
72947W        W41420  42.285  36.078  12.402
72948W        W41421  19.766  21.521   0.324
72949W        W41422  10.723  36.049  13.410
72950W        W41423   5.829   9.301  13.029
72951W        W41424  20.234  29.650   1.278
72952W        W41425  16.194  37.078   3.743
72953W        W41426  10.341  21.017  14.764
72954W        W41427  11.316  41.319   1.922
72955W        W41428   6.881   3.334  11.510
72956W        W41429   5.380  32.998  11.912
72957W        W41430  30.964  15.278   0.919
72958W        W41431  38.819  19.565  11.496
72959W        W41432  28.073   8.182   2.258
72960W        W41433  39.892   7.767   0.732
72961W        W41434  22.605  43.421   0.440
72962W        W41435  30.601  38.051  10.906
72963W        W41436  29.168   7.171  10.595
72964W        W41437   4.804  20.630   0.754
72965W        W41438  23.579  37.554   3.696
72966W        W41439  10.727   7.366   4.699
72967W        W41440  36.054   5.258   3.376
72968W        W41441  27.484  10.811  11.120
72969W        W41442   1.383   3.743  13.007
72970W        W41443   3.768  44.784   1.317
72971W        W41444  27.059  44.813   1.812
72972W        W41445   1.798  30.105  12.970
72973W        W41446  23.630  14.224  11.552
72974W        W41447  40.015  31.461   2.810
72975W        W41448   6.774  33.905   2.684
72976W        W41449  16.134  10.672   4.628
72977W        W41450  22.109   4.858   0.418
72978W        W41451  20.621  16.736  13.403
72979W        W41452  26.076   6.393   2.764
72980W        W41453   4.258   2.263  10.508
72981W        W41454  33.000  29.015  14.943
72982W        W41455  12.753  27.996   0.920
72983W        W41456  30.658  11.188  12.527
72984W        W41457  27.550  22.622  13.866
72985W        W41458   6.774  20.682  14.862
72986W        W41459  26.571  43.377   0.934
72987W        W41460  42.005   4.833  14.415
72988W        W41461  32.419  44.995   2.196
72989W        W41462  42.829  11.756   5.086
72990W        W41463  20.678  15.234  13.420
72991W        W41464  21.031  31.462   3.304
72992W        W41465  25.578  30.510  12.981
72993W        W41466   6.810  36.510  13.017
72994W        W41467  40.494  36.096  12.367
72995W        W41468   8.782  15.325  14.467
72996W        W41469  25.498  39.024   9.977
72997W        W41470   8.719  15.665   4.770
72998W        W41471  43.805   6.323   3.862
72999W        W41472  32.515  20.594   2.853
73000W        W41473   2.436   6.919   3.301
73001W        W41474  33.401  18.192  12.383
73002W        W41475   7.806  44.924  12.836
73003W        W41476  18.737   2.773  13.051
73004W        W41477   9.150  25.484   3.758
73005W        W41478  23.555  42.424  13.307
73006W        W41479  26.665  10.846   2.705
73007W        W41480  16.621  43.462   0.738
73008W        W41481  31.148  42.380  14.802
73009W        W41482  17.796  41.322  11.120
73010W        W41483  17.590  18.106  14.904
73011W        W41484  25.527  36.996   4.610
73012W        W41485  31.619  30.540  14.842
73013W        W41486  38.385  13.194  14.958
73014W        W41487  43.373  42.441  13.900
73015W        W41488   4.730  43.881  14.482
73016W        W41489   7.276  35.933  14.920
73017W        W41490  28.002  19.279   4.147
73018W        W41491   1.328  13.149   0.454
73019W        W41492   3.871  32.036  13.903
73020W        W41493  28.592   0.947   4.349
73021W        W41494  25.973  39.559   4.790
73022W        W41495  30.119   4.889  12.865
73023W        W41496  28.633  41.516   3.166
73024W        W41497  11.662  11.678   3.352
73025W        W41498  11.704  20.217   4.604
73026W        W41499  22.247  32.040   0.462
73027W        W41500  19.692  22.707   0.765
73028W        W41501  16.233  19.591   0.753
73029W        W41502  25.552  39.956  11.076
73030W        W41503  23.607  41.445   0.728
73031W        W41504  12.646  12.630   0.479
73032W        W41505  30.156  11.251  14.415
73033W        W41506  33.977  39.462  11.977
73034W        W41507   6.694   4.741  11.972
73035W        W41508  22.078  18.724  11.960
73036W        W41509  15.156  18.259  14.936
73037W        W41510  11.337  42.976   1.239
73038W        W41511  29.135  36.406   1.869
73039W        W41512  16.596  39.436   4.330
73040W        W41513  21.175  41.820  14.292
73041W        W41514  31.645  44.002   5.269
73042W        W41515  36.889  35.977   0.967
73043W        W41516  35.423  13.249  13.830
73044W        W41517  13.157  29.137   1.866
73045W        W41518  19.137  29.503   3.785
73046W        W41519  14.656   6.414   2.349
73047W        W41520   3.380  31.472  10.625
73048W        W41521  23.091  26.617   1.395
73049W        W41522  30.441   4.415  11.031
73050W        W41523  36.522  30.560   0.849
73051W        W41524  32.433   1.748   1.314
73052W        W41525  33.522  40.309  13.825
73053W        W41526  31.916   5.223   0.308
73054W        W41527  14.314  28.938  11.083
73055W        W41528  34.556  11.823   0.874
73056W        W41529  34.431  33.915   2.722
73057W        W41530  20.040  37.344  12.025
73058W        W41531  35.960   3.761  14.834
73059W        W41532  23.658  15.281   0.308
73060W        W41533  30.959  42.982   0.337
73061W        W41534  22.186  15.267   4.635
73062W        W41535  16.795   0.416  13.022
73063W        W41536   7.223  15.181  11.419
73064W        W41537  35.949  19.237   3.375
73065W        W41538   4.305  33.497   1.858
73066W        W41539  22.085  43.906   4.213
73067W        W41540   2.928  28.955  10.485
73068W        W41541  32.461  18.745  11.607
73069W        W41542  38.448  12.773   2.379
73070W        W41543   0.292  36.848   4.665
73071W        W41544   8.897  23.518  12.868
73072W        W41545  17.674  36.912   2.714
73073W        W41546  41.990  12.176   3.325
73074W        W41547  37.960  41.879  14.929
73075W        W41548   6.844  44.873   4.351
73076W        W41549   1.832  14.283  12.949
73077W        W41550  39.002   8.343  14.977
73078W        W41551   3.777  39.894   2.887
73079W        W41552  14.178  14.270  11.097
73080W        W41553   5.354  41.497  13.380
73081W        W41554  10.291  38.459  14.012
73082W        W41555  10.759  10.639   0.472
73083W        W41556   9.677   6.760   3.160
73084W        W41557  12.640  27.589  10.512
73085W        W41558  24.688  18.098   2.265
73086W        W41559  31.905  37.500   2.381
73087W        W41560  23.015   5.859   3.681
73088W        W41561  40.054  10.861  13.794
73089W        W41562   0.851  17.108   0.851
73090W        W41563  42.325  36.861  12.931
73091W        W41564  31.552  11.678   3.238
73092W        W41565  34.006  39.009  10.900
73093W        W41566  29.535   4.242   1.379
73094W        W41567  39.399   1.872   0.889
73095W        W41568  31.098  44.793  11.026
73096W        W41569  10.328  34.027   2.241
73097W        W41570  35.397  42.462   2.234
73098W        W41571  25.486  17.112   1.381
73099W        W41572  40.475  38.488   0.883
73100W        W41573  13.712  15.602   3.751
73101W        W41574  37.430  23.505  14.908
73102W        W41575  14.690  10.851  12.535
73103W        W41576  42.966   9.193  13.399
73104W        W41577  23.188  22.634  13.851
73105W        W41578  34.078   2.269   4.345
73106W        W41579  23.706  20.640  10.566
73107W        W41580  28.094   3.824   4.698
73108W        W41581  31.901  41.437  12.437
73109W        W41582  34.543  34.948   3.850
73110W        W41583   3.813   9.393   1.291
73111W        W41584  39.830  30.598   0.454
73112W        W41585  10.267  35.943  13.507
73113W        W41586  25.962  10.680   0.934
73114W        W41587  16.710   7.825   4.675
73115W        W41588   5.391  38.339  14.818
73116W        W41589   0.942  25.107  14.953
73117W        W41590   8.895   5.798  11.858
73118W        W41591  44.499  30.924  11.078
73119W        W41592  24.557  43.983   0.886
73120W        W41593  40.886  44.473   4.353
73121W        W41594  36.359  40.868  12.414
73122W        W41595   6.701  30.914  10.924
73123W        W41596  15.304  17.277   0.864
73124W        W41597  12.133  14.719  14.408
73125W        W41598  40.363  28.500  14.358
73126W        W41599  44.916  21.088   4.331
73127W        W41600  27.569  39.496  14.507
73128W        W41601  43.499   3.380   0.965
73129W        W41602  39.435   0.893   3.297
73130W        W41603  37.913  34.114   4.161
73131W        W41604   7.794  42.842   5.173
73132W        W41605  27.548  41.363  12.874
73133W        W41606  11.768   0.945  10.982
73134W        W41607  14.256  22.740   0.428
73135W        W41608   2.417  32.892   0.483
73136W        W41609  32.606  11.283  10.421
73137W        W41610   7.856  11.285   2.832
73138W        W41611  34.442  13.130  12.490
73139W        W41612  14.625  32.530   3.199
73140W        W41613  42.897   8.169  12.057
73141W        W41614  29.078  25.145  10.484
73142W        W41615  16.731   2.403   0.287
73143W        W41616  10.188  32.938   2.870
73144W        W41617  41.941  22.551  11.014
73145W        W41618  18.060  29.000  10.442
73146W        W41619  43.429  15.094   3.659
73147W        W41620  16.155   0.877   2.785
73148W        W41621  11.730  33.433   4.210
73149W        W41622   5.205  37.373  14.327
73150W        W41623  30.049  29.509  14.283
73151W        W41624  35.580  37.993   1.280
73152W        W41625  22.103   6.289  14.975
73153W        W41626  20.620  11.242   4.176
73154W        W41627  32.487  18.200  11.987
73155W        W41628  10.779   9.710  12.378
73156W        W41629  33.622  15.619  14.320
73157W        W41630   7.856  44.272  14.870
73158W        W41631  17.638  39.841  12.515
73159W        W41632  32.514  19.629   1.729
73160W        W41633  21.034  40.798  11.864
73161W        W41634   0.813   6.324   3.285
73162W        W41635  35.535  16.684  14.310
73163W        W41636  17.700  34.483  13.038
73164W        W41637  32.047  31.050  11.082
73165W        W41638  29.653  17.250   3.341
73166W        W41639  24.189   5.785  14.771
73167W        W41640  26.982  15.263   4.758
73168W        W41641  12.617  29.058   1.398
73169W        W41642  27.168   4.840  14.900
73170W        W41643  31.907  19.115  14.888
73171W        W41644   3.298  33.497   4.346
73172W        W41645   0.906  11.308  14.416
73173W        W41646  35.404  41.805  12.947
73174W        W41647   6.786  24.128  12.034
73175W        W41648  24.132  38.376   3.299
73176W        W41649  32.968  41.037   3.834
73177W        W41650   6.306  40.419   0.871
73178W        W41651   8.790  24.635  12.915
73179W        W41652  44.996  22.664   4.678
73180W        W41653  27.585  17.091   1.420
73181W        W41654  17.765  33.473  14.288
73182W        W41655  21.146   4.392   1.347
73183W        W41656  31.546  22.549  11.062
73184W        W41657  17.081   2.945  14.014
73185W        W41658  29.670  16.141  12.054
73186W        W41659  42.943  13.804  11.058
73187W        W41660  28.105  23.568   2.276
73188W        W41661   1.433  25.132   2.853
73189W        W41662  14.127  10.250  10.531
73190W        W41663  21.093  17.768   3.302
73191W        W41664  25.470   2.326   0.357
73192W        W41665  30.622  23.205   0.463
73193W        W41666  33.986  22.218  11.032
73194W        W41667  28.444  38.401   4.120
73195W        W41668  40.003  35.929  13.835
73196W        W41669  13.803   5.428  10.942
73197W        W41670  11.200  23.683   2.894
73198W        W41671   3.445  41.324  11.525
73199W        W41672  26.995  16.718   3.254
73200W        W41673  13.712   6.388  13.969
73201W        W41674   5.219  34.554  10.938
73202W        W41675   3.932  24.529   4.697
73203W        W41676  31.147   0.494  12.955
73204W        W41677  18.624   1.394  13.994
73205W        W41678  21.647  24.073   2.364
73206W        W41679  31.008  37.510  14.775
73207W        W41680  27.091  18.107   0.864
73208W        W41681   5.234  12.837   0.928
73209W        W41682  31.438  14.303   4.739
73210W        W41683   8.292  44.008   2.269
73211W        W41684   5.227  22.664  13.815
73212W        W41685   3.736  41.862  10.614
73213W        W41686  42.451  31.916   2.221
73214W        W41687  39.518  13.208  13.514
73215W        W41688  25.533   2.397  13.960
73216W        W41689  28.498  38.937   2.356
73217W        W41690  19.111  18.261  12.069
73218W        W41691  21.187  22.540  14.988
73219W        W41692   6.186   3.813   1.269
73220W        W41693  18.679  13.105   1.805
73221W        W41694  31.052  16.727  12.920
73222W        W41695  16.138   2.819   3.843
73223W        W41696  19.775  13.241   5.273
73224W        W41697  14.153  43.963  13.420
73225W        W41698  13.688   7.388  14.468
73226W        W41699  11.248  14.711  12.040
73227W        W41700   2.464  26.475   2.748
73228W        W41701  36.494  22.506   1.264
73229W        W41702  17.670  39.539   9.991
73230W        W41703   4.731  23.046  10.482
73231W        W41704  40.477   0.413  14.961
73232W        W41705  32.894   7.799  14.858
73233W        W41706   0.971  28.599  13.983
73234W        W41707  24.518  16.294  12.528
73235W        W41708  34.423  33.540  11.097
73236W        W41709   1.888  16.252   3.336
73237W        W41710  25.203  38.423  13.873
73238W        W41711  22.083  39.896   4.659
73239W        W41712  17.153   4.213  14.853
73240W        W41713   6.884  35.590  11.533
73241W        W41714   8.309  39.864   4.624
73242W        W41715  42.909   8.816   0.935
73243W        W41716   1.248   0.768   3.687
73244W        W41717  16.105  10.634   1.891
73245W        W41718  34.377  33.425  11.996
73246W        W41719  33.612  21.129  11.469
73247W        W41720  39.865  15.132  11.456
73248W        W41721  24.107  19.537  13.516
73249W        W41722  19.627  38.047  10.536
73250W        W41723  35.419  40.504  12.841
73251W        W41724  18.761  15.302  10.558
73252W        W41725  43.393  21.546  13.060
73253W        W41726  38.409  17.062  12.472
73254W        W41727  16.772   9.819   1.735
73255W        W41728   9.216  37.914   1.871
73256W        W41729   8.384  28.038   3.649
73257W        W41730  18.226  10.664   3.165
73258W        W41731  19.556  13.132   1.930
73259W        W41732   0.434  38.449   0.852
73260W        W41733  43.444   1.923  14.356
73261W        W41734  15.269  39.962  11.402
73262W        W41735  25.071  20.216  12.924
73263W        W41736  27.128   9.779  14.008
73264W        W41737  24.626  26.458  14.350
73265W        W41738  38.836  27.153   0.287
73266W        W41739   2.407   0.298   3.367
73267W        W41740   9.651  29.592   1.277
73268W        W41741  13.137  12.742   0.399
73269W        W41742   9.796   7.851   2.903
73270W        W41743  26.147  15.724  14.494
73271W        W41744  40.467   7.748  13.042
73272W        W41745  21.248  17.072   0.364
73273W        W41746  22.642  19.137  14.973
73274W        W41747  15.244  11.257  13.851
73275W        W41748  13.284  43.987   2.693
73276W        W41749  32.937  20.713  13.474
73277W        W41750   3.428  31.109   3.714
73278W        W41751  31.071  39.333   4.148
73279W        W41752  14.243  24.994  13.526
73280W        W41753   8.174  37.068  14.976
73281W        W41754  10.205  37.424   4.787
73282W        W41755   9.309  20.133  13.521
73283W        W41756  30.060   4.205  11.379
73284W        W41757  12.176  23.116   2.761
73285W        W41758  14.667  27.151   4.597
73286W        W41759  30.639  36.933  12.828
73287W        W41760  20.094  40.042   0.802
73288W        W41761  16.291   2.256  12.976
73289W        W41762  39.492  24.665   2.386
73290W        W41763  24.660  41.379  12.957
73291W        W41764   0.372   1.441   0.907
73292W        W41765  34.877  20.110  11.607
73293W        W41766  16.289  14.305   4.166
73294W        W41767   9.160  43.384  11.399
73295W        W41768  39.889   7.767  13.532
73296W        W41769   2.750  43.436   0.885
73297W        W41770  44.370  15.230   3.699
73298W        W41771   9.861  16.108   3.374
73299W        W41772  23.523  32.428  12.370
73300W        W41773  27.962  10.348   0.963
73301W        W41774  44.819   6.219  14.325
73302W        W41775  15.328  31.989  12.402
73303W        W41776  21.245  24.058  13.800
73304W        W41777  10.878  32.997   0.786
73305W        W41778  16.296   1.952   0.437
73306W        W41779  38.828  39.966   2.837
73307W        W41780  22.703  40.362  11.095
73308W        W41781   0.973  29.542  11.941
73309W        W41782   6.711  19.153  13.459
73310W        W41783  41.340  32.059   3.725
73311W        W41784  12.214   4.711  14.288
73312W        W41785  43.801  25.533  11.457
73313W        W41786  43.504   2.231   3.334
73314W        W41787  43.361  21.139  10.431
73315W        W41788  42.915   0.846  13.909
73316W        W41789  21.119  44.940  13.040
73317W        W41790  37.046  13.802   2.801
73318W        W41791   9.809  17.297  11.117
73319W        W41792  41.528   1.859  13.457
73320W        W41793  26.078   0.974   1.870
73321W        W41794  36.355  21.757  11.485
73322W        W41795  18.258  14.159   4.817
73323W        W41796  22.633   6.294   1.425
73324W        W41797   6.894  24.550   0.778
73325W        W41798  36.376  40.334   2.240
73326W        W41799  14.170  31.618   3.711
73327W        W41800   8.804   7.874  12.084
73328W        W41801  36.857  28.547  12.534
73329W        W41802  13.832  22.720  13.362
73330W        W41803  21.731  42.000   1.829
73331W        W41804   6.345  24.590   0.402
73332W        W41805  31.519   4.891   2.304
73333W        W41806   5.354  44.297  14.815
73334W        W41807  24.529  22.021  14.476
73335W        W41808  17.284   0.335  11.904
73336W        W41809  24.492  44.456  11.077
73337W        W41810  14.203   5.210  13.843
73338W        W41811  37.024  17.276  13.318
73339W        W41812  34.922  39.006   4.199
73340W        W41813  34.975  11.279  13.398
73341W        W41814  18.711  31.573   3.814
73342W        W41815  24.570  37.362  14.823
73343W        W41816   9.328   1.758   1.860
73344W        W41817  20.064  29.013   0.899
73345W        W41818  18.651  20.578   3.668
73346W        W41819  24.528   2.420   2.263
73347W        W41820   0.445   1.331  13.896
73348W        W41821  28.943  18.747   2.793
73349W        W41822  10.336  26.669  10.925
73350W        W41823  27.988  24.214  12.963
73351W        W41824  27.068  17.186  11.901
73352W        W41825  17.765  21.131  10.586
73353W        W41826  29.518  17.797   0.734
73354W        W41827  25.107  24.032  11.438
73355W        W41828  19.273   2.306   1.344
73356W        W41829  26.647  41.526  14.418
73357W        W41830  12.760   0.758  11.430
73358W        W41831  32.468  15.294   1.741
73359W        W41832  14.757  29.664   4.347
73360W        W41833  35.898  29.487  14.397
73361W        W41834  33.527  12.294  12.533
73362W        W41835   3.725  34.432   3.835
73363W        W41836  30.601  44.871   5.302
73364W        W41837  26.150  12.675   4.751
73365W        W41838  32.566   9.722   4.139
73366W        W41839   4.745  41.931   0.812
73367W        W41840  13.632  41.897   2.851
73368W        W41841   8.339  33.448   3.353
73369W        W41842  11.831  22.035   3.808
73370W        W41843  41.846   7.172  10.497
73371W        W41844   4.851   5.773   9.999
73372W        W41845  39.015  33.539   5.321
73373W        W41846  35.461   7.415   4.665
73374W        W41847  22.626   3.849  11.937
73375W        W41848  41.919   6.758  11.492
73376W        W41849  38.872  44.007   3.341
73377W        W41850   3.838  31.434   1.232
73378W        W41851  18.560  30.128   1.392
73379W        W41852  29.929  13.300  12.565
73380W        W41853  43.974   4.859  13.332
73381W        W41854  13.117  41.877  11.119
73382W        W41855   7.417   4.814  11.440
73383W        W41856  21.694   7.367   4.169
73384W        W41857  10.809  33.584  12.976
73385W        W41858  24.143  29.080  10.603
73386W        W41859   1.368   7.238   0.785
73387W        W41860   6.392   2.403   3.645
73388W        W41861  28.969   9.680  13.365
73389W        W41862  27.971   5.218  14.480
73390W        W41863  14.162  19.645   3.836
73391W        W41864  34.891  44.354   5.202
73392W        W41865  41.299  41.870  11.513
73393W        W41866  27.041  14.675   2.708
73394W        W41867  14.184  39.814   4.762
73395W        W41868   3.358  21.037   5.205
73396W        W41869   0.447  34.090  11.951
73397W        W41870  35.591  31.990  12.423
73398W        W41871  16.595  15.251   2.679
73399W        W41872   8.831  13.199  13.016
73400W        W41873   1.746  41.521   1.724
73401W        W41874  31.148  43.516  11.607
73402W        W41875  13.289  16.610   4.173
73403W        W41876  13.643  32.937  13.005
73404W        W41877  14.747  27.585  13.358
73405W        W41878  13.235  28.107  14.830
73406W        W41879  29.606  19.720  14.005
73407W        W41880  12.262  30.973  13.487
73408W        W41881  14.247  44.441  13.418
73409W        W41882  23.599  41.526   4.711
73410W        W41883  23.563  30.145  13.523
73411W        W41884  24.222  32.089   3.796
73412W        W41885  29.489  34.461  12.552
73413W        W41886  29.439  38.899  13.866
73414W        W41887  35.859  25.541   1.926
73415W        W41888  19.680  27.608   3.162
73416W        W41889   8.662  33.568  14.765
73417W        W41890  23.143  42.785   0.960
73418W        W41891  18.783  25.501   0.827
73419W        W41892  33.404  33.472   3.788
73420W        W41893  35.458  29.530   3.182
73421W        W41894  21.642  12.271   4.715
73422W        W41895  16.792  44.475  11.106
73423W        W41896  33.404  39.872   1.815
73424W        W41897  24.607   4.251   1.228
73425W        W41898  20.216  35.548  13.400
73426W        W41899  34.971  27.040   4.319
73427W        W41900  13.293  31.968   0.860
73428W        W41901  33.444  32.549   3.179
73429W        W41902  14.167  40.948  12.476
73430W        W41903   0.283  37.881   2.754
73431W        W41904   9.284   0.817   0.872
73432W        W41905  16.685   2.381   2.219
73433W        W41906  30.550  31.932  10.464
73434W        W41907  23.154  43.853  13.951
73435W        W41908  10.731  17.269  10.475
73436W        W41909  15.088  39.494   4.787
73437W        W41910   4.221  30.417  12.436
73438W        W41911  42.867  18.112  12.433
73439W        W41912  43.364  30.087  10.524
73440W        W41913  44.443  35.597  11.439
73441W        W41914   1.870   5.410   2.324
73442W        W41915  34.401  14.199  12.824
73443W        W41916  43.827   5.200   0.421
73444W        W41917  26.044  24.167  12.570
73445W        W41918  10.138   6.866  14.936
73446W        W41919  28.126  10.211  14.969
73447W        W41920  12.670  32.125   2.858
73448W        W41921  26.466  10.262   1.290
73449W        W41922  11.708  25.033   4.192
73450W        W41923  31.568  18.743  13.400
73451W        W41924  37.875   9.817  14.897
73452W        W41925  40.042  13.685   0.331
73453W        W41926  13.142  10.678   0.251
73454W        W41927  12.144  17.170   0.332
73455W        W41928  42.994  26.986   0.753
73456W        W41929  33.427  25.016   2.367
73457W        W41930  19.598   0.876  10.899
73458W        W41931   3.318  40.404   0.957
73459W        W41932  37.384   9.356   4.728
73460W        W41933  37.394  29.944  13.437
73461W        W41934  11.848  31.139   4.800
73462W        W41935  10.873   7.314   3.149
73463W        W41936  16.231   8.668  13.351
73464W        W41937  34.098  38.438   3.188
73465W        W41938   0.960  23.235  14.958
73466W        W41939  24.157   9.205  13.826
73467W        W41940  31.051  34.457  10.149
73468W        W41941  26.190  36.515   1.887
73469W        W41942   4.906  26.990  14.836
73470W        W41943   7.889  43.353  13.419
73471W        W41944   2.966   2.232  11.968
73472W        W41945  13.825  44.916   1.933
73473W        W41946  37.993   3.920  11.010
73474W        W41947  37.473  36.583  13.816
73475W        W41948  14.101  12.147  10.921
73476W        W41949  40.915  42.838  12.939
73477W        W41950  15.307  44.943   3.823
73478W        W41951  19.078  32.578   3.197
73479W        W41952  16.775  16.264  14.310
73480W        W41953  37.430   2.762   1.712
73481W        W41954  25.165  13.123  11.559
73482W        W41955  44.972  15.599  14.767
73483W        W41956  33.905  37.365  13.822
73484W        W41957  24.674  19.691  12.493
73485W        W41958  26.619  35.003   5.202
73486W        W41959  42.860  24.681   4.783
73487W        W41960   5.213  39.418  13.812
73488W        W41961  37.865  44.992   3.863
73489W        W41962  19.542  42.981   4.654
73490W        W41963  20.588  34.065   4.127
73491W        W41964  20.161  27.514  14.337
73492W        W41965  32.619  21.716   3.378
73493W        W41966  14.210  21.676  14.278
73494W        W41967  35.935  26.486   1.875
73495W        W41968   5.340  37.491  14.809
73496W        W41969  40.468  30.501  10.623
73497W        W41970   1.849  44.843  11.975
73498W        W41971   2.852  30.117   1.808
73499W        W41972   7.253  30.949   2.808
73500W        W41973  15.225  20.583   3.216
73501W        W41974  27.564  18.575  14.964
73502W        W41975  18.231  26.964   4.301
73503W        W41976  44.488   9.306  13.369
73504W        W41977   3.759  29.571  12.848
73505W        W41978  33.968  44.463   3.826
73506W        W41979  21.572  34.612   3.846
73507W        W41980  20.089  25.666   2.839
73508W        W41981  10.227   4.718   3.145
73509W        W41982  38.379  12.269   0.840
73510W        W41983  38.446  38.388  11.426
73511W        W41984  16.705  27.678  10.599
73512W        W41985  38.568   6.882  12.960
73513W        W41986  35.585  25.197  14.471
73514W        W41987  26.590  24.077   1.730
73515W        W41988  16.783   4.870   3.278
73516W        W41989  16.586   3.322   2.370
73517W        W41990   9.290   7.858  14.801
73518W        W41991  34.405  10.162   0.298
73519W        W41992  37.424   8.798  13.055
73520W        W41993  34.536  24.053   2.328
73521W        W41994  40.371  33.899   2.720
73522W        W41995  17.665   6.902   1.830
73523W        W41996  34.085  36.553   4.175
73524W        W41997  17.295  18.212  11.452
73525W        W41998  35.101   5.781  10.048
73526W        W41999  23.559  27.040  14.479
73527W        W42000  11.341   8.757   3.772
73528W        W42001  13.744  15.320   3.371
73529W        W42002  20.083  40.055   3.357
73530W        W42003  36.087  27.099  13.868
73531W        W42004  14.718  35.494  14.023
73532W        W42005  23.042   6.210  10.499
73533W        W42006  25.118  14.325  14.504
73534W        W42007  26.636  44.448  10.906
73535W        W42008  44.801  28.565   0.401
73536W        W42009  35.894   8.331  10.593
73537W        W42010  23.235   8.748  12.944
73538W        W42011  32.577  41.479   5.170
73539W        W42012   1.859  44.345   3.865
73540W        W42013  39.984   5.923  12.931
73541W        W42014   9.331  27.472  11.008
73542W        W42015   4.292  41.944  12.831
73543W        W42016  43.323  26.008   0.358
73544W        W42017  36.057  19.598  11.606
73545W        W42018  30.147  35.497   1.280
73546W        W42019   2.826  15.148  11.506
73547W        W42020   3.845  21.678  12.352
73548W        W42021  42.967   4.813  14.852
73549W        W42022  27.078  27.009   1.330
73550W        W42023  31.138  30.037   3.700
73551W        W42024  36.880   8.773  12.567
73552W        W42025  26.555  17.154   5.197
73553W        W42026  29.972   3.859   4.689
73554W        W42027  25.089  33.091   4.740
73555W        W42028  42.981   9.162  12.534
73556W        W42029   6.417  35.494  13.376
73557W        W42030  17.225  31.580   1.730
73558W        W42031  21.079   9.189   3.648
73559W        W42032  28.565   5.787  13.396
73560W        W42033   0.279  13.340   0.350
73561W        W42034  24.577  44.992   2.820
73562W        W42035  14.273   9.161  14.402
73563W        W42036  40.399  12.710   2.809
73564W        W42037  14.100   5.755   0.462
73565W        W42038  40.917  42.893   2.235
73566W        W42039  28.930  21.050  11.989
73567W        W42040  16.693  25.582  11.895
73568W        W42041   7.672  28.145  12.376
73569W        W42042  37.535  39.322  13.982
73570W        W42043  17.556  39.949  13.338
73571W        W42044  20.091   6.744   4.156
73572W        W42045  27.525  27.558  10.496
73573W        W42046   8.197   3.391  12.510
73574W        W42047  31.612  18.643   4.208
73575W        W42048  11.237  21.055  13.009
73576W        W42049  39.900  34.039   0.262
73577W        W42050  18.559  30.600   4.154
73578W        W42051  42.409   3.329  14.790
73579W        W42052  11.268  14.615  10.532
73580W        W42053  13.162  28.487   0.757
73581W        W42054  43.894  37.432  13.485
73582W        W42055  34.072  22.679   2.396
73583W        W42056  35.551  15.740   1.281
73584W        W42057  31.523  22.209   4.237
73585W        W42058  14.107  42.797   4.721
73586W        W42059  32.913  21.180  13.847
73587W        W42060  41.431  15.721   2.723
73588W        W42061  36.050   8.231  12.351
73589W        W42062   0.878  22.170   3.729
73590W        W42063  39.873   1.778   3.746
73591W        W42064  38.370  41.844  14.838
73592W        W42065   9.373  29.598  14.851
73593W        W42066  37.420  40.305   3.201
73594W        W42067  39.911  21.644  12.365
73595W        W42068  22.544  16.731   1.302
73596W        W42069  33.555  30.581  12.086
73597W        W42070   4.932   2.806  12.970
73598W        W42071  44.841  15.196   4.615
73599W        W42072  28.531  12.677   2.790
73600W        W42073  40.325  40.831   1.443
73601W        W42074  44.861  28.537   3.846
73602W        W42075  37.876  10.317  10.949
73603W        W42076  25.474  21.239   3.250
73604W        W42077  12.743  18.598   4.790
73605W        W42078   9.876  11.181  14.438
73606W        W42079  11.726   3.895   0.322
73607W        W42080  18.587  28.558  12.554
73608W        W42081   8.862   9.695  12.442
73609W        W42082  16.567  38.938   1.269
73610W        W42083  35.961  34.558   2.694
73611W        W42084  28.118   1.890  11.126
73612W        W42085  27.974  33.101   2.667
73613W        W42086  42.493   3.270   3.752
73614W        W42087  18.716  28.497  10.497
73615W        W42088   2.767  23.684  11.857
73616W        W42089  14.734  21.063  12.835
73617W        W42090  40.367  25.210   0.894
73618W        W42091   8.899  23.590  13.483
73619W        W42092  43.477  42.467   0.434
73620W        W42093  11.297  36.926   1.425
73621W        W42094  39.983   3.355   3.324
73622W        W42095  33.426  11.636  12.085
73623W        W42096  31.635  37.003  12.538
73624W        W42097   8.704   9.651  12.849
73625W        W42098  21.131  24.669  13.434
73626W        W42099   6.887  33.551  13.312
73627W        W42100   2.851  29.514  13.987
73628W        W42101  22.087  13.805  12.359
73629W        W42102  20.657  15.582  13.431
73630W        W42103  27.461   3.407   3.818
73631W        W42104   6.725  33.091   1.695
73632W        W42105   7.868  35.580  13.011
73633W        W42106   0.366  26.099   4.211
73634W        W42107  42.344  15.118  11.128
73635W        W42108  19.609  35.575  12.865
73636W        W42109  22.704  12.351   0.392
73637W        W42110   9.794  29.547   2.419
73638W        W42111   7.343  44.001   1.356
73639W        W42112  41.526  43.890   3.338
73640W        W42113   4.749   4.887   3.813
73641W        W42114  34.473  30.615   0.943
73642W        W42115  43.434  26.623  12.839
73643W        W42116   4.886  15.239   4.313
73644W        W42117  30.936   8.844  10.550
73645W        W42118  32.606   7.380  10.977
73646W        W42119  15.129  40.873   3.245
73647W        W42120  37.575   9.793   2.770
73648W        W42121   8.169  23.082   3.827
73649W        W42122   3.352  42.886   4.312
73650W        W42123  10.215  23.632  14.806
73651W        W42124  36.854  43.284  11.387
73652W        W42125  35.470  33.542  12.016
73653W        W42126  21.651  25.102  12.494
73654W        W42127   0.412  32.396   2.795
73655W        W42128  27.477  38.496   3.333
73656W        W42129   5.784  13.783   5.178
73657W        W42130  29.161  23.087  11.038
73658W        W42131  10.657  11.237  13.939
73659W        W42132   3.415  28.549  12.951
73660W        W42133  32.598  18.204   0.819
73661W        W42134  18.732  26.512  11.929
73662W        W42135  31.646  23.137   9.941
73663W        W42136   9.301  20.215   0.344
73664W        W42137  17.594   8.818  14.414
73665W        W42138  35.923  20.050  12.520
73666W        W42139  34.090  42.479   5.180
73667W        W42140  39.394   2.778   2.775
73668W        W42141  32.573  40.397   3.322
73669W        W42142  40.359  38.341   2.860
73670W        W42143  30.622  23.594   4.331
73671W        W42144   5.841  31.456  10.937
73672W        W42145  44.869  41.495   1.752
73673W        W42146  36.490  10.296  13.535
73674W        W42147  12.342  42.965   4.831
73675W        W42148  19.626  28.151   0.830
73676W        W42149  30.507  28.180  14.798
73677W        W42150  16.582  23.724  12.388
73678W        W42151  44.429  19.051  10.990
73679W        W42152  29.971  40.971   3.760
73680W        W42153  27.099   7.849  14.504
73681W        W42154   1.966   6.702   3.237
73682W        W42155  26.059  41.984  11.029
73683W        W42156   0.354   6.270   3.849
73684W        W42157  24.027  21.542  14.785
73685W        W42158  31.412  42.818   4.196
73686W        W42159  43.494  10.867   0.354
73687W        W42160  21.178  20.678   1.408
73688W        W42161  19.148  18.201  10.453
73689W        W42162  38.430   7.902   4.741
73690W        W42163  33.991  28.150  13.459
73691W        W42164  33.524  39.449  13.382
73692W        W42165  34.931  15.761   4.768
73693W        W42166  17.781  16.761   3.678
73694W        W42167  42.445  21.037  13.514
73695W        W42168  35.511  31.497   4.757
73696W        W42169  33.983  44.802   3.285
73697W        W42170   0.909  42.437   3.238
73698W        W42171   3.830   3.266   2.350
73699W        W42172  44.905  13.124  13.440
73700W        W42173  25.058  42.892   3.175
73701W        W42174  14.661   4.439  11.978
73702W        W42175  26.034  44.293  11.492
73703W        W42176  29.120  34.907  11.940
73704W        W42177  28.609  23.542  10.990
73705W        W42178  16.610  42.954  13.495
73706W        W42179  36.498  19.665   2.714
73707W        W42180  36.947  24.143   3.252
73708W        W42181   7.370  38.339   1.325
73709W        W42182  24.093   5.429  13.512
73710W        W42183  10.221   6.377  13.984
73711W        W42184  20.105  16.795  10.458
73712W        W42185  29.668  18.226  13.321
73713W        W42186  20.094  22.172  12.832
73714W        W42187  18.786  31.986   0.766
73715W        W42188  30.490  11.137   0.869
73716W        W42189  42.011   0.767   2.846
73717W        W42190   1.270   5.230   2.184
73718W        W42191  34.601   3.336   3.209
73719W        W42192  42.833  21.226   1.350
73720W        W42193  41.521  26.139  13.062
73721W        W42194  42.829   1.243   1.395
73722W        W42195  31.527  35.538  11.052
73723W        W42196   4.897  29.978  11.433
73724W        W42197   8.865  27.196   4.120
73725W        W42198  18.764   4.852   2.229
73726W        W42199  11.143  33.015  14.814
73727W        W42200   4.845  16.073  13.824
73728W        W42201  34.506  18.181   0.768
73729W        W42202  29.588  34.053   0.423
73730W        W42203  18.134  17.224  14.927
73731W        W42204  34.509  30.437  13.450
73732W        W42205  40.537  15.612  14.762
73733W        W42206  30.550  26.530  12.561
73734W        W42207  18.274   9.711   1.863
73735W        W42208  22.552  13.776   0.898
73736W        W42209  13.846  40.546  11.513
73737W        W42210   4.924   5.266   5.123
73738W        W42211  37.356  37.062  12.968
73739W        W42212  40.375   2.951   3.262
73740W        W42213  31.014  21.233   5.241
73741W        W42214  40.377  18.669  10.420
73742W        W42215  25.515   0.917   9.931
73743W        W42216  34.425  26.587  11.946
73744W        W42217  20.227  13.213  10.482
73745W        W42218  36.936  25.537  10.915
73746W        W42219   9.693  41.888  13.525
73747W        W42220  19.608   8.202   0.318
73748W        W42221  44.354   5.229   4.171
73749W        W42222  33.096  26.111   3.299
73750W        W42223   6.738   2.374   4.163
73751W        W42224  33.019  32.924   0.380
73752W        W42225  18.568  22.248  10.641
73753W        W42226   0.948  33.095  13.905
73754W        W42227   8.371  30.910  12.538
73755W        W42228  36.512  23.112  14.841
73756W        W42229   2.738  43.278  14.314
73757W        W42230  36.500  18.079  12.873
73758W        W42231   9.706   9.684  12.863
73759W        W42232  19.589  32.107   3.159
73760W        W42233   4.251   7.370  14.895
73761W        W42234  41.960  14.618   0.751
73762W        W42235  12.317  34.092   3.196
73763W        W42236   5.403   7.822   4.805
73764W        W42237  26.487   0.967  10.128
73765W        W42238  24.192   6.804  12.873
73766W        W42239  44.964  44.958  12.878
73767W        W42240  13.685  12.629   1.934
73768W        W42241  13.167  13.304  12.001
73769W        W42242  20.218  24.676  13.942
73770W        W42243  33.549  16.073  14.801
73771W        W42244  16.276  16.164   4.210
73772W        W42245  40.400   8.317  11.405
73773W        W42246  11.800  27.195  13.972
73774W        W42247  34.381  30.610   2.188
73775W        W42248   5.876   9.837   3.727
73776W        W42249  35.563   5.335  10.526
73777W        W42250   6.877  29.950  14.303
73778W        W42251  11.189   7.829  13.884
73779W        W42252  37.843  19.544  14.283
73780W        W42253   8.171  36.570   2.258
73781W        W42254  35.962   7.741  14.408
73782W        W42255  43.923  15.811  11.028
73783W        W42256  22.544  17.660  14.434
73784W        W42257  23.570  27.961  14.289
73785W        W42258  24.558  36.921  12.503
73786W        W42259  33.389  36.903   2.291
73787W        W42260   7.294   7.858   0.742
73788W        W42261  26.702  42.295   4.225
73789W        W42262  25.577  11.348   2.394
73790W        W42263  11.694  39.509  12.863
73791W        W42264   2.427  37.913   2.752
73792W        W42265  24.015  32.617   1.213
73793W        W42266   5.891  26.046  13.007
73794W        W42267  40.922  43.306   2.863
73795W        W42268   7.842  22.252   3.768
73796W        W42269   4.308  10.255   1.702
73797W        W42270   0.934  29.427  11.456
73798W        W42271  20.093  12.623   0.324
73799W        W42272   7.347  10.346  11.609
73800W        W42273  40.958  14.717  14.989
73801W        W42274  36.851  35.412  14.954
73802W        W42275  44.767  32.440   3.856
73803W        W42276  16.735  24.016  12.475
73804W        W42277  37.482  17.205  12.484
73805W        W42278  10.716  29.133   4.288
73806W        W42279  26.662  18.586  12.084
73807W        W42280  29.104   3.815  14.972
73808W        W42281  23.609   1.354  12.995
73809W        W42282  42.392  16.813  14.498
73810W        W42283  34.867  34.034   1.295
73811W        W42284  12.350  41.437  13.034
73812W        W42285   5.729   3.269  12.039
73813W        W42286  18.229   9.265   4.211
73814W        W42287  28.934   6.311   3.869
73815W        W42288  11.781  20.737  11.984
73816W        W42289  30.506  23.100   1.805
73817W        W42290  24.712   8.325  13.978
73818W        W42291  42.885  24.164   0.729
73819W        W42292  16.185  38.329   0.392
73820W        W42293  14.776   4.872  13.512
73821W        W42294  23.548  32.936   4.683
73822W        W42295  10.638  14.671  14.759
73823W        W42296   8.287   5.824   4.139
73824W        W42297  24.656  21.660   2.306
73825W        W42298  25.543   4.818  12.043
73826W        W42299  41.320  40.811   4.640
73827W        W42300  26.073  25.597   2.240
73828W        W42301  30.976  30.505   1.827
73829W        W42302  24.127  11.826  12.468
73830W        W42303  42.370   4.710   1.888
73831W        W42304  17.719  16.108   3.327
73832W        W42305  31.978  37.039  13.880
73833W        W42306  24.996  13.233  13.384
73834W        W42307   0.323   5.327  14.414
73835W        W42308   6.898  32.095   4.121
73836W        W42309  42.504  12.333  14.974
73837W        W42310   0.376  16.227  11.514
73838W        W42311   0.980  40.531   0.846
73839W        W42312  24.029  43.339   4.333
73840W        W42313   6.817  42.900  13.346
73841W        W42314  31.532  25.990  12.550
73842W        W42315  12.332   7.666  10.423
73843W        W42316  16.303  19.156  14.821
73844W        W42317  21.148  32.976  10.044
73845W        W42318  26.188   0.831   1.389
73846W        W42319   1.965   3.718   3.279
73847W        W42320  31.993  29.032  14.312
73848W        W42321  15.685   9.698  12.355
73849W        W42322  15.253   2.848  14.276
73850W        W42323  22.138   1.325  10.994
73851W        W42324  43.287  36.386  11.865
73852W        W42325  33.523  22.253  14.422
73853W        W42326  32.885   9.262  14.875
73854W        W42327   0.863   5.385  10.899
73855W        W42328  19.615  41.363  13.937
73856W        W42329   0.457  37.897  10.475
73857W        W42330   5.747  16.192  11.972
73858W        W42331  22.508  11.366   3.250
73859W        W42332  44.328  28.933  12.955
73860W        W42333  30.602  12.855  14.476
73861W        W42334  22.671  17.601  12.048
73862W        W42335  13.144  19.565  14.016
73863W        W42336  10.867  42.974   2.376
73864W        W42337  26.488  35.872   0.470
73865W        W42338   2.270  13.832   4.228
73866W        W42339  26.564  20.275   3.838
73867W        W42340   5.907  19.743   0.822
73868W        W42341  42.394  19.058   4.231
73869W        W42342  29.966  32.586   4.285
73870W        W42343  18.625  13.774  12.069
73871W        W42344  25.011  35.966  11.005
73872W        W42345  26.105   6.209   2.403
73873W        W42346  38.833   3.769   0.875
73874W        W42347   3.855  27.684   2.851
73875W        W42348  43.401  27.021   4.253
73876W        W42349  12.746  16.137  13.947
73877W        W42350  13.616  20.721  13.469
73878W        W42351  26.113   9.756  14.998
73879W        W42352  12.283  30.072   4.640
73880W        W42353  10.349  44.980  13.522
73881W        W42354  25.495  12.645   4.653
73882W        W42355  39.838  42.032   2.243
73883W        W42356  11.286  14.200  11.503
73884W        W42357  33.622  44.010   0.822
73885W        W42358  33.893  35.598   0.386
73886W        W42359   2.326  36.862  10.611
73887W        W42360  40.874  28.497  12.519
73888W        W42361  10.292  16.580  13.356
73889W        W42362  27.940  40.509  14.801
73890W        W42363   3.732  12.122  11.992
73891W        W42364  39.405  13.238   3.817
73892W        W42365   8.799  41.520  13.538
73893W        W42366  44.282  29.919   0.809
73894W        W42367  20.095   6.233  11.050
73895W        W42368  22.098   0.814   1.396
73896W        W42369  36.847  32.964  14.813
73897W        W42370  17.111  14.730   4.164
73898W        W42371  25.209  32.587   4.119
73899W        W42372  44.497  37.960  10.483
73900W        W42373  32.058  44.376   5.235
73901W        W42374  13.158  17.782   2.188
73902W        W42375  23.030  22.129  10.411
73903W        W42376  38.882   9.355  14.967
73904W        W42377  28.180  40.898   0.383
73905W        W42378  20.644   2.355  14.337
73906W        W42379   1.409  28.577   0.844
73907W        W42380  29.134   4.255  10.439
73908W        W42381  20.206   3.788  11.953
73909W        W42382  29.541  10.199   3.158
73910W        W42383   9.675  28.609   1.322
73911W        W42384  27.615  22.115  12.837
73912W        W42385  26.001  26.996  13.964
73913W        W42386  28.499   3.728  10.513
73914W        W42387  14.139  28.465  12.389
73915W        W42388   3.928  36.556  12.987
73916W        W42389  41.397  35.396   0.336
73917W        W42390  43.835  42.838  14.832
73918W        W42391  29.429   9.297   4.257
73919W        W42392   0.293  15.227  14.847
73920W        W42393  20.692  27.530   2.751
73921W        W42394  41.913  37.844  12.869
73922W        W42395  25.645  22.569   1.443
73923W        W42396  11.660  19.061   0.262
73924W        W42397  14.636   6.696   1.703
73925W        W42398  39.532  23.507  12.341
73926W        W42399   7.393  15.690   1.284
73927W        W42400  15.788  30.139   2.191
73928W        W42401  23.550  32.451  13.795
73929W        W42402   3.890  42.019   0.759
73930W        W42403  29.526  42.440   3.309
73931W        W42404  14.190  43.832   4.741
73932W        W42405  11.711  26.013  10.104
73933W        W42406  28.440  17.738   4.617
73934W        W42407  17.727  28.487   1.742
73935W        W42408  20.625   5.726  12.429
73936W        W42409   7.218   4.299  10.091
73937W        W42410  19.671   1.338  12.403
73938W        W42411  19.185  34.509   0.903
73939W        W42412  23.044  29.060  14.014
73940W        W42413  24.606  44.813  14.413
73941W        W42414   8.161  25.182   3.807
73942W        W42415  43.781  14.216   3.203
73943W        W42416  19.136  28.447  10.461
73944W        W42417   7.880  33.515   2.308
73945W        W42418  21.140  39.516  10.903
73946W        W42419  21.106  42.345   2.408
73947W        W42420  13.337  42.927  11.120
73948W        W42421   0.429  30.625   4.744
73949W        W42422  40.448  11.701   0.336
73950W        W42423  23.989  38.362  10.459
73951W        W42424  21.658  14.763   0.944
73952W        W42425  23.009   5.737  14.399
73953W        W42426  43.790  15.599   0.869
73954W        W42427  38.867  44.894   2.754
73955W        W42428   6.863  42.948  10.501
73956W        W42429  36.939  21.552   4.642
73957W        W42430  26.154   2.395  12.041
73958W        W42431  29.094  17.648   2.899
73959W        W42432  26.671  15.690  13.521
73960W        W42433   5.931  27.492  12.381
73961W        W42434  35.444  19.692   4.350
73962W        W42435  21.643  38.491  12.896
73963W        W42436  12.782  44.866   3.151
73964W        W42437  39.501   0.474   1.451
73965W        W42438  35.375  23.603  10.487
73966W        W42439   5.814  21.212  11.471
73967W        W42440  11.246  23.199  13.922
73968W        W42441  39.410   6.198   4.140
73969W        W42442  40.406  15.712  11.385
73970W        W42443  41.352  39.466   1.219
73971W        W42444  14.767  39.444   2.775
73972W        W42445  27.053  10.727  12.824
73973W        W42446  16.149  25.073   4.237
73974W        W42447   5.368   5.213  12.478
73975W        W42448  37.854  28.155  13.821
73976W        W42449  22.069  13.312   4.819
73977W        W42450  34.381  34.413  13.368
73978W        W42451  16.700  24.006   4.275
73979W        W42452  13.249  28.573  13.060
73980W        W42453  10.220  41.366   5.196
73981W        W42454  32.503  28.982   4.787
73982W        W42455   2.826  10.290  12.078
73983W        W42456  30.446  38.455  11.114
73984W        W42457  43.019  37.342  11.391
73985W        W42458  27.153   1.822  12.955
73986W        W42459  17.733  24.618  11.937
73987W        W42460  11.200  28.982  10.908
73988W        W42461   8.188  11.331  14.951
73989W        W42462  41.974  20.527   3.147
73990W        W42463  40.052  43.977   3.851
73991W        W42464  22.113  33.385   1.420
73992W        W42465  34.865   4.837   2.237
73993W        W42466  14.649  28.985  13.014
73994W        W42467  35.945  34.565   1.882
73995W        W42468  23.636  25.966   0.897
73996W        W42469   8.236  34.120  14.883
73997W        W42470  20.204   9.816   4.793
73998W        W42471  43.325  18.263  10.588
73999W        W42472  28.185   1.461   1.387
74000W        W42473  29.429  34.489   1.733
74001W        W42474  24.123   9.677  12.000
74002W        W42475   8.671  27.183  12.407
74003W        W42476  20.167  16.073  12.470
74004W        W42477  44.346   0.477   0.880
74005W        W42478  29.530  18.723   4.817
74006W        W42479  15.748  19.596  11.383
74007W        W42480  35.384  28.022   2.669
74008W        W42481  37.346  10.348   0.811
74009W        W42482  22.693  36.576  14.030
74010W        W42483  18.148  31.611  11.080
74011W        W42484  19.669  12.742   0.425
74012W        W42485  32.482  25.170  12.552
74013W        W42486  11.768  14.184   1.857
74014W        W42487  44.783  19.143  11.868
74015W        W42488  40.017  19.249   1.218
74016W        W42489   9.678   5.812   3.750
74017W        W42490   6.745  28.070   0.785
74018W        W42491  28.675   1.890  14.760
74019W        W42492  38.956  15.603  13.831
74020W        W42493   7.330  23.668   4.178
74021W        W42494  36.040  20.231   4.830
74022W        W42495  25.514  22.051   1.738
74023W        W42496  39.861  24.181   1.785
74024W        W42497   1.970  39.039   3.655
74025W        W42498  26.079  32.425  12.431
74026W        W42499  24.205  32.935   4.796
74027W        W42500  19.117  32.483   4.627
74028W        W42501  21.743  44.320  13.799
74029W        W42502   0.390  43.279  12.456
74030W        W42503  23.024  22.109   4.734
74031W        W42504  18.115  30.476   0.384
74032W        W42505  42.886   3.849  11.470
74033W        W42506  18.261   6.328  12.370
74034W        W42507  37.067  38.949  13.860
74035W        W42508  13.224   2.441   3.357
74036W        W42509  19.583  19.620   2.731
74037W        W42510   0.281   9.395  12.877
74038W        W42511   1.252  41.016  11.372
74039W        W42512  34.041  25.556   1.813
74040W        W42513   5.312  39.379   4.698
74041W        W42514   4.891  12.178   2.818
74042W        W42515  16.700   4.904  10.935
74043W        W42516  22.672  18.724   3.348
74044W        W42517   1.319  43.449   0.729
74045W        W42518   6.733  27.541   1.875
74046W        W42519  28.654  24.174   0.826
74047W        W42520  28.179   9.230  10.425
74048W        W42521  14.755  43.808  13.873
74049W        W42522  13.789   6.787   0.290
74050W        W42523  28.929  34.913   0.444
74051W        W42524  13.656  44.277   1.320
74052W        W42525  13.297   1.756  14.777
74053W        W42526   4.936  37.536   3.365
74054W        W42527  36.519  11.373   1.714
74055W        W42528  12.758   8.692  13.310
74056W        W42529  27.533  19.252  13.428
74057W        W42530  10.322  41.843   4.780
74058W        W42531   3.459  32.958   1.217
74059W        W42532  22.195  40.389  12.400
74060W        W42533  28.969  37.884  13.513
74061W        W42534  11.829  24.977  14.350
74062W        W42535   2.941  17.201   1.767
74063W        W42536  15.306  12.849  13.828
74064W        W42537  44.767  11.697  14.449
74065W        W42538  41.447   2.332  13.495
74066W        W42539   7.345  34.368  14.006
74067W        W42540  32.048   2.904   3.277
74068W        W42541  27.669  16.690   1.213
74069W        W42542  32.137  17.197   4.270
74070W        W42543   4.776  27.055   4.128
74071W        W42544  25.209  12.298  14.841
74072W        W42545  31.519  41.855   2.690
74073W        W42546  41.842  14.099  14.797
74074W        W42547   4.851  12.302  14.948
74075W        W42548   4.331   3.339   0.377
74076W        W42549  44.310  14.628  11.004
74077W        W42550  41.350  28.631  11.388
74078W        W42551  12.726   5.279   4.333
74079W        W42552  40.983  32.947  12.019
74080W        W42553   5.238   6.297  11.021
74081W        W42554  15.824  35.923  13.542
74082W        W42555   7.302   5.289   1.256
74083W        W42556   3.440  26.500  10.004
74084W        W42557  36.053   1.271  14.784
74085W        W42558  11.265  43.947  12.922
74086W        W42559  17.800   7.193   1.863
74087W        W42560  20.262  37.458  10.439
74088W        W42561   5.281  28.050   1.842
74089W        W42562  26.545  32.998   0.730
74090W        W42563  38.524   5.753   0.843
74091W        W42564  37.999   9.850   0.920
74092W        W42565   0.791  12.354   0.482
74093W        W42566  33.053  31.119  14.909
74094W        W42567  35.023  35.601  11.031
74095W        W42568  39.950  25.087  13.861
74096W        W42569   5.435  14.221   1.913
74097W        W42570   9.197  41.532  13.036
74098W        W42571  13.700  23.588  10.948
74099W        W42572  35.962  19.662   3.644
74100W        W42573  35.464   5.382  10.900
74101W        W42574  35.461   3.848   2.859
74102W        W42575  17.119   9.364  13.860
74103W        W42576  20.604  37.381   3.867
74104W        W42577   9.297  35.505   2.212
74105W        W42578  36.947  16.771  11.372
74106W        W42579  26.699  43.777   1.347
74107W        W42580  12.787  23.518   3.732
74108W        W42581  33.019  26.186  14.763
74109W        W42582  11.199  35.085  13.044
74110W        W42583  10.309  27.568   0.792
74111W        W42584  25.963  11.152   3.743
74112W        W42585  40.911   2.774  13.474
74113W        W42586  37.409  19.741   2.880
74114W        W42587  27.578   2.419  11.046
74115W        W42588  33.110  30.078   2.343
74116W        W42589   6.758   9.360   1.340
74117W        W42590  12.611  26.962   1.417
74118W        W42591  33.421  19.659   4.333
74119W        W42592  24.700  23.991  13.548
74120W        W42593  17.627  14.199   0.859
74121W        W42594  24.135  36.911  11.950
74122W        W42595  34.897  21.073   1.768
74123W        W42596  19.534  23.641  11.890
74124W        W42597   7.810  43.810  10.970
74125W        W42598  27.549  19.746  14.877
74126W        W42599  27.453  26.530  14.373
74127W        W42600  28.138  24.581   0.348
74128W        W42601   0.267  37.908   4.169
74129W        W42602   9.195  30.038  11.103
74130W        W42603  44.305  10.653  12.449
74131W        W42604   8.684  42.023  11.403
74132W        W42605   4.831  39.058   0.356
74133W        W42606   4.873  19.704  14.391
74134W        W42607  42.412  33.970  13.438
74135W        W42608   8.283  27.186   1.431
74136W        W42609  27.538  38.819   3.781
74137W        W42610   2.792  16.278   2.310
74138W        W42611  28.101  18.245  13.394
74139W        W42612  26.512  24.200   2.867
74140W        W42613  10.774   5.432   0.336
74141W        W42614  22.671  31.409   1.739
74142W        W42615  30.946  24.171   1.904
74143W        W42616  10.721   4.240  12.899
74144W        W42617   2.796   3.724  12.940
74145W        W42618   2.433   5.337   0.949
74146W        W42619   9.868   0.979  14.353
74147W        W42620   7.181  28.972  13.916
74148W        W42621   2.227   3.714  11.390
74149W        W42622  27.105  43.342   0.262
74150W        W42623  10.166  38.895   3.634
74151W        W42624  12.812  19.740   1.924
74152W        W42625  31.128   3.244   4.205
74153W        W42626  25.506  25.498   3.362
74154W        W42627  12.761  27.052   0.780
74155W        W42628  44.397   1.809  13.453
74156W        W42629  24.707  30.989   3.340
74157W        W42630  16.313  40.325   3.723
74158W        W42631  33.487  18.237  14.428
74159W        W42632  21.168  27.484   5.297
74160W        W42633   0.928  19.172  13.361
74161W        W42634  16.603  38.947  11.502
74162W        W42635  19.235  18.678   3.241
74163W        W42636  17.706   8.274   4.283
74164W        W42637  26.098  37.492   1.339
74165W        W42638  31.640  21.698   0.893
74166W        W42639  27.140  28.142  14.328
74167W        W42640  33.044  15.242  10.544
74168W        W42641  23.162  42.342   2.842
74169W        W42642  31.419  41.992   4.229
74170W        W42643  35.554  31.627   0.387
74171W        W42644  35.080  39.327  12.046
74172W        W42645  44.450   6.301  11.899
74173W        W42646  22.224  10.372   4.353
74174W        W42647  29.529   3.256  13.810
74175W        W42648  37.070  19.773  10.555
74176W        W42649  22.104  34.392   4.239
74177W        W42650  22.046  41.296   1.867
74178W        W42651  19.735  30.923   4.146
74179W        W42652  33.501  29.612   2.409
74180W        W42653  32.471  26.045  10.435
74181W        W42654  36.415   9.297   4.123
74182W        W42655  18.077  17.270   0.271
74183W        W42656  37.040  19.229   3.815
74184W        W42657   9.385  33.387   2.869
74185W        W42658   9.796  32.027   1.715
74186W        W42659  10.689  24.634   2.346
74187W        W42660  38.425  43.331  14.508
74188W        W42661  24.004   3.935  11.464
74189W        W42662  25.060  12.689  14.949
74190W        W42663  16.080  35.975   3.187
74191W        W42664  11.163  22.157  10.430
74192W        W42665  23.007   4.801  11.603
74193W        W42666  25.032  44.411   9.968
74194W        W42667   5.241   3.871   4.796
74195W        W42668  16.790   2.832   2.704
74196W        W42669  34.983  25.512  14.854
74197W        W42670  20.618  24.102  11.480
74198W        W42671  30.642   8.877   3.365
74199W        W42672  14.096  39.973   4.306
74200W        W42673  44.383  43.985  13.440
74201W        W42674  18.716  16.223   1.347
74202W        W42675  23.729  44.354  11.565
74203W        W42676  32.136   7.691   5.116
74204W        W42677  12.822   7.845  13.841
74205W        W42678  30.121  19.159  14.494
74206W        W42679   8.195   7.253  12.470
74207W        W42680  30.497  37.981  13.824
74208W        W42681  38.460   1.893  12.515
74209W        W42682   1.241  35.410  13.844
74210W        W42683  18.233   0.800  14.404
74211W        W42684  23.584  36.567  10.497
74212W        W42685  26.501  38.994  14.356
74213W        W42686   8.391  24.521  10.609
74214W        W42687  36.593  39.408  14.452
74215W        W42688  26.128   6.373   3.726
74216W        W42689  30.024  13.263  12.919
74217W        W42690  12.630   5.873  10.975
74218W        W42691  35.563  41.976   3.163
74219W        W42692  18.273  41.365   0.375
74220W        W42693  30.149  33.380   4.689
74221W        W42694   6.301  12.305  12.935
74222W        W42695  18.175  14.701   3.825
74223W        W42696  40.463   7.227  14.765
74224W        W42697  29.436  36.087   4.183
74225W        W42698   5.194  39.340  14.855
74226W        W42699  27.016  38.833   2.328
74227W        W42700  18.734  44.383   0.385
74228W        W42701  35.537  40.004  14.389
74229W        W42702   7.816  34.018   0.921
74230W        W42703  21.578   5.422  10.424
74231W        W42704   6.217   6.372   4.721
74232W        W42705  32.073  37.074   3.650
74233W        W42706  20.673  18.221  11.547
74234W        W42707  41.008  26.549  12.980
74235W        W42708   3.817  27.661  14.468
74236W        W42709  28.134  11.804   2.231
74237W        W42710  38.978  31.034  11.469
74238W        W42711  18.743  20.531  13.997
74239W        W42712  31.060  19.648   1.898
74240W        W42713  44.335  41.311   1.884
74241W        W42714  37.006  39.957   3.664
74242W        W42715  33.581  25.568  13.020
74243W        W42716  30.159  14.226  14.290
74244W        W42717  18.602   3.902  14.848
74245W        W42718   3.870  22.087  13.419
74246W        W42719   5.377  18.130  10.478
74247W        W42720  32.406   6.906   0.337
74248W        W42721   1.384  43.497   2.684
74249W        W42722  27.614  16.789  13.061
74250W        W42723   6.275   2.869   0.378
74251W        W42724  39.897  25.554  13.367
74252W        W42725  30.101  12.275   3.231
74253W        W42726  10.768  28.573  10.430
74254W        W42727  25.198  20.208  11.039
74255W        W42728  22.091  17.591  14.964
74256W        W42729  15.165  14.259  14.927
74257W        W42730  19.087  15.740  13.929
74258W        W42731  11.865  44.878  12.858
74259W        W42732   7.908  28.466  12.580
74260W        W42733   5.910  12.730   0.476
74261W        W42734  39.485  35.540  12.466
74262W        W42735  34.393  19.068  13.487
74263W        W42736   6.684   8.216  13.336
74264W        W42737  18.072  31.502  13.958
74265W        W42738  44.406  17.103  11.978
74266W        W42739  20.229  36.881  13.364
74267W        W42740  41.360  16.218  14.313
74268W        W42741  43.277   8.733   3.154
74269W        W42742   4.260  18.202  14.478
74270W        W42743   6.853  14.137  10.941
74271W        W42744  23.992   8.342   3.363
74272W        W42745  32.999   4.803  11.555
74273W        W42746  22.018  29.038  10.481
74274W        W42747  16.255  13.177  13.953
74275W        W42748   7.903  23.509  11.452
74276W        W42749  20.619  21.753  11.986
74277W        W42750   0.945  15.618  10.143
74278W        W42751  15.227  26.018   1.717
74279W        W42752   2.371  24.052   2.902
74280W        W42753   3.259   6.269  10.514
74281W        W42754  10.769  30.457   2.682
74282W        W42755  14.791  38.435   2.678
74283W        W42756  13.254  21.558   4.744
74284W        W42757  24.668  38.021   0.316
74285W        W42758  20.734  33.125   1.700
74286W        W42759  38.523  29.147  14.495
74287W        W42760  35.047  41.929  12.056
74288W        W42761  28.620  40.849  13.520
74289W        W42762  13.675  12.799   4.616
74290W        W42763  13.750  18.260   3.312
74291W        W42764  10.357   0.328   3.816
74292W        W42765  33.913  31.111  11.020
74293W        W42766  28.460  22.079   3.349
74294W        W42767   8.759  28.056   0.395
74295W        W42768   9.720  42.310   4.819
74296W        W42769  40.321  39.494   3.700
74297W        W42770  35.600  29.159   4.208
74298W        W42771  27.067  27.453   2.290
74299W        W42772  17.633  32.477  14.365
74300W        W42773  37.852  35.361  14.371
74301W        W42774   7.281  14.709  12.565
74302W        W42775  26.654  23.235   0.305
74303W        W42776  14.308  26.027   4.147
74304W        W42777   1.447  22.709   1.420
74305W        W42778  12.761  36.013  14.027
74306W        W42779  33.981   9.274  11.379
74307W        W42780  26.191  17.213   2.352
74308W        W42781  37.042  16.105  11.992
74309W        W42782  18.091  13.692   3.303
74310W        W42783  38.382  12.159  14.281
74311W        W42784  44.358  26.148  10.475
74312W        W42785  18.576  33.463   5.189
74313W        W42786   0.871  30.546   0.815
74314W        W42787  14.762   4.908   3.815
74315W        W42788   3.869  25.155   2.828
74316W        W42789  24.202  41.304  11.609
74317W        W42790  29.531  22.224  13.855
74318W        W42791   8.728  39.960   0.307
74319W        W42792  25.072  42.904   2.280
74320W        W42793  17.665  39.028  11.865
74321W        W42794   5.194  38.993   4.296
74322W        W42795  25.684  37.066   1.340
74323W        W42796  29.614   0.307  13.933
74324W        W42797  12.640  18.649   3.871
74325W        W42798   9.213   3.416  11.085
74326W        W42799  43.290  23.203  13.548
74327W        W42800   4.227  17.117   3.710
74328W        W42801  35.954  17.594   2.389
74329W        W42802   0.839   4.237   2.403
74330W        W42803   6.880  17.627  13.854
74331W        W42804  37.864  25.612   1.887
74332W        W42805  25.609   9.863  14.956
74333W        W42806  18.075  35.493  12.853
74334W        W42807  22.604  11.309   4.780
74335W        W42808  31.141   9.199   1.930
74336W        W42809  13.230  17.677  10.422
74337W        W42810  27.667   9.176   3.192
74338W        W42811  23.135  26.032   1.776
74339W        W42812   1.915  24.036  10.420
74340W        W42813  20.703   3.241   4.113
74341W        W42814   7.884  21.709   0.264
74342W        W42815   2.445  37.059  13.892
74343W        W42816  31.078  38.904   3.810
74344W        W42817  23.123   6.258  14.922
74345W        W42818  35.431  41.304  13.348
74346W        W42819  22.644  20.530   3.762
74347W        W42820  29.117  18.696   0.473
74348W        W42821  34.383  44.479  10.971
74349W        W42822   7.882  42.937   0.939
74350W        W42823  21.744  10.634  11.482
74351W        W42824  15.688  28.150   0.451
74352W        W42825  35.392  44.827  13.461
74353W        W42826  29.654  21.682  14.396
74354W        W42827  29.505  36.442  11.001
74355W        W42828  22.999  17.698   1.877
74356W        W42829  18.752  17.619  11.011
74357W        W42830   5.273  20.260  14.824
74358W        W42831  14.337  39.449  10.950
74359W        W42832  23.685  36.865  13.538
74360W        W42833  17.773  21.559  13.938
74361W        W42834  42.388  35.993  13.847
74362W        W42835   4.377  29.553  13.489
74363W        W42836  11.853  38.054   2.821
74364W        W42837   4.833  38.868   0.862
74365W        W42838  11.254  14.736   3.691
74366W        W42839  11.853   0.346   2.266
74367W        W42840   9.285  26.616   2.845
74368W        W42841  28.645  35.926   3.255
74369W        W42842  36.514  17.602  14.028
74370W        W42843  44.877   1.960   4.251
74371W        W42844  26.052   0.875   2.258
74372W        W42845  40.365  16.719   4.629
74373W        W42846  24.994  39.509  12.433
74374W        W42847  35.936  19.122   2.893
74375W        W42848  36.927  43.810  10.546
74376W        W42849  19.535  14.323  11.017
74377W        W42850   2.878  38.497  13.011
74378W        W42851  20.126  42.011   4.620
74379W        W42852  14.181  22.135   4.620
74380W        W42853  17.800   6.833   3.786
74381W        W42854  12.192  36.885   1.870
74382W        W42855   8.364  30.160   4.616
74383W        W42856   0.791   7.231   0.402
74384W        W42857  37.469  33.130  11.503
74385W        W42858   7.242  40.929   2.690
74386W        W42859  35.986  15.098   2.882
74387W        W42860  33.010   5.756   4.687
74388W        W42861  20.735  25.123   1.335
74389W        W42862  11.325  19.569   1.414
74390W        W42863  39.051  21.635  12.843
74391W        W42864  16.615  33.128   4.138
74392W        W42865  16.813  37.405  10.589
74393W        W42866  24.042  44.326   3.165
74394W        W42867  19.251  43.982   2.823
74395W        W42868  41.964  11.824   2.774
74396W        W42869   4.254  23.040  10.494
74397W        W42870  15.238  23.641   0.481
74398W        W42871  32.399  29.154   1.356
74399W        W42872  35.878  29.659   0.937
74400W        W42873  30.943  10.349  13.470
74401W        W42874  15.317  35.928   1.806
74402W        W42875   6.805  18.054   4.776
74403W        W42876  36.879  34.005  13.342
74404W        W42877  44.782  38.448   0.337
74405W        W42878  21.083  39.903  14.276
74406W        W42879   1.961  33.612  14.929
74407W        W42880  29.661  37.067  11.440
74408W        W42881   7.709  32.116  12.456
74409W        W42882  31.560  16.588  12.920
74410W        W42883  29.170  20.766  11.595
74411W        W42884  38.341  11.156  12.849
74412W        W42885  18.554   7.365   1.786
74413W        W42886  36.562  37.835  12.491
74414W        W42887  29.575  29.517   1.366
74415W        W42888   3.912   0.460  12.991
74416W        W42889  18.640   3.716   4.143
74417W        W42890   8.850  10.746  12.971
74418W        W42891  37.840  39.486  14.761
74419W        W42892  39.001  44.365  14.798
74420W        W42893  44.913  36.537   3.152
74421W        W42894   5.214  12.693   1.873
74422W        W42895  35.093  27.096  10.415
74423W        W42896  17.598  40.322   3.214
74424W        W42897  30.999   6.835  11.431
74425W        W42898  36.054  25.144  12.556
74426W        W42899  39.958  40.882   1.728
74427W        W42900  25.712  24.628   1.438
74428W        W42901  22.685  34.466   3.868
74429W        W42902  14.709   5.413   4.331
74430W        W42903  42.290   4.433   0.932
74431W        W42904  36.024  10.709  12.943
74432W        W42905  39.505   0.806   2.765
74433W        W42906  34.989  10.172  10.949
74434W        W42907   7.793  20.082   3.370
74435W        W42908   5.805  23.735   2.870
74436W        W42909  20.214  26.469  13.369
74437W        W42910   0.412  40.867  11.612
74438W        W42911  23.607  15.139   2.662
74439W        W42912  10.789  23.075   9.580
74440W        W42913  38.525   8.201   0.270
74441W        W42914   4.747  21.649  13.326
74442W        W42915  44.868  39.552  13.508
74443W        W42916  35.987   8.248  11.570
74444W        W42917  10.805  24.023   4.266
74445W        W42918  10.381  27.549  10.981
74446W        W42919   1.746  16.231   1.919
74447W        W42920  22.632  32.906   4.611
74448W        W42921  41.347  35.464  11.083
74449W        W42922  14.238   0.296   2.388
74450W        W42923  27.152  10.737  14.890
74451W        W42924   8.723  23.567   4.821
74452W        W42925   4.298  43.505   4.250
74453W        W42926  38.378  36.528   3.359
74454W        W42927   6.269  34.495   0.764
74455W        W42928  19.279  40.978  10.977
74456W        W42929  11.855  30.055  10.020
74457W        W42930   9.843  16.280   0.289
74458W        W42931  30.145  42.922  14.788
74459W        W42932   3.748  29.961   3.191
74460W        W42933  33.535  10.818  10.499
74461W        W42934  22.158   1.815  12.345
74462W        W42935  26.127   7.903  10.542
74463W        W42936  24.681  18.699  12.344
74464W        W42937  33.949  10.182   4.174
74465W        W42938  23.626   1.373  13.827
74466W        W42939   0.847  29.452  14.453
74467W        W42940  20.675  40.846   1.909
74468W        W42941  14.831  20.146   3.800
74469W        W42942  15.219   4.427   2.367
74470W        W42943  10.746  31.931  14.429
74471W        W42944  33.976  14.777   2.892
74472W        W42945  13.703  12.851   4.332
74473W        W42946  30.946  10.818  12.391
74474W        W42947  22.544  30.938  13.476
74475W        W42948  39.884  42.011   0.483
74476W        W42949  18.694   4.437  14.953
74477W        W42950   3.409  39.934  11.996
74478W        W42951  18.243  14.338  11.493
74479W        W42952  41.945   0.398  10.998
74480W        W42953  40.518  20.738  11.467
74481W        W42954   1.867  18.655  12.982
74482W        W42955  31.038  25.003   1.429
74483W        W42956  22.627  37.062  10.441
74484W        W42957  16.156   8.702  13.814
74485W        W42958  30.052  15.276   1.867
74486W        W42959  34.930   6.808  13.469
74487W        W42960  25.164   5.219  14.502
74488W        W42961  10.342  35.922  13.064
74489W        W42962   9.797  15.102  12.823
74490W        W42963  27.575  34.984  10.616
74491W        W42964  39.904  38.556   2.369
74492W        W42965   4.381  16.098   1.831
74493W        W42966   3.913  10.692   1.762
74494W        W42967  30.500  10.838   1.262
74495W        W42968  12.824  43.501   0.270
74496W        W42969  13.735  34.895   1.367
74497W        W42970  31.005  24.188  12.580
74498W        W42971  32.018  13.750  13.958
74499W        W42972  39.321  20.732  11.037
74500W        W42973  33.906  30.593  13.374
74501W        W42974  42.818  14.740   2.838
74502W        W42975  27.555  38.519  10.557
74503W        W42976  40.465  40.810  10.436
74504W        W42977  24.493   3.762  11.405
74505W        W42978  17.740   6.802  12.004
74506W        W42979   3.346   9.262   4.775
74507W        W42980  32.994  27.524   2.873
74508W        W42981  26.174  14.195   2.246
74509W        W42982  44.908  39.035  12.483
74510W        W42983   9.347  31.512  13.309
74511W        W42984  35.919  23.495  14.940
74512W        W42985  33.079  42.363  11.937
74513W        W42986   8.211   1.955   1.753
74514W        W42987  15.237   6.735  11.020
74515W        W42988  43.363  39.456   4.740
74516W        W42989   1.397  44.868  14.865
74517W        W42990  44.323  35.062  12.931
74518W        W42991  41.292  44.914   3.300
74519W        W42992   7.868  17.072   4.301
74520W        W42993   1.782  27.193   2.303
74521W        W42994   5.230  24.166   0.878
74522W        W42995  19.263  32.026  11.392
74523W        W42996  43.488   4.277   1.887
74524W        W42997   0.817  33.594  11.924
74525W        W42998  23.136   6.333   4.834
74526W        W42999   9.243   9.883   2.342
74527W        W43000   4.339   1.254   3.825
74528W        W43001  39.430  29.952  13.410
74529W        W43002  40.824  31.987   3.359
74530W        W43003  27.497  40.966   4.235
74531W        W43004  16.081   4.919  13.379
74532W        W43005  30.909  17.747   2.866
74533W        W43006  16.645  32.128  12.418
74534W        W43007  43.967   9.681  12.402
74535W        W43008  23.696  42.980  11.436
74536W        W43009  11.161  33.571   0.394
74537W        W43010   8.362  22.623  13.834
74538W        W43011   2.910   4.325  14.466
74539W        W43012  42.496  14.312  12.946
74540W        W43013  18.094  21.659  12.362
74541W        W43014  29.090  40.857  13.328
74542W        W43015  43.971  35.092   2.205
74543W        W43016  36.562  14.668  12.539
74544W        W43017   0.893  36.045  11.095
74545W        W43018  16.603   1.371   1.357
74546W        W43019  14.643  28.559   4.816
74547W        W43020  10.722  25.634   4.185
74548W        W43021  27.027  22.724   9.938
74549W        W43022   7.268  18.274  10.614
74550W        W43023   0.986  40.360  12.051
74551W        W43024  33.129  29.101  10.436
74552W        W43025   9.833  18.649   4.727
74553W        W43026  34.465  24.048  14.915
74554W        W43027  34.515  24.977  11.107
74555W        W43028   3.342  27.178  12.042
74556W        W43029  41.006  30.511  13.495
74557W        W43030  10.147  25.624  10.639
74558W        W43031   6.417  34.958   1.402
74559W        W43032   1.844  12.117   4.801
74560W        W43033  27.096   5.335  13.502
74561W        W43034   2.423   7.854   2.259
74562W        W43035   7.291  12.255  11.462
74563W        W43036  16.761   2.885  10.514
74564W        W43037   2.870  18.114   4.233
74565W        W43038  25.602  40.479   4.198
74566W        W43039  38.406  10.807   0.478
74567W        W43040  13.312  25.139   5.255
74568W        W43041  42.012  24.218  11.606
74569W        W43042  33.012  35.911  14.924
74570W        W43043  35.410  42.909  12.933
74571W        W43044   2.777   0.381  14.981
74572W        W43045  10.358  29.566  14.322
74573W        W43046  16.765   1.302  14.433
74574W        W43047   9.222  37.982  11.003
74575W        W43048  17.254  44.790   3.749
74576W        W43049   9.257  35.004  14.477
74577W        W43050  16.594  41.819   2.220
74578W        W43051  24.066  34.507   4.777
74579W        W43052   6.304  27.585  10.918
74580W        W43053  25.565  43.892  13.467
74581W        W43054   5.285  32.437   0.260
74582W        W43055  17.199  10.664   0.911
74583W        W43056  11.214  26.125   2.289
74584W        W43057  25.968  35.912  10.574
74585W        W43058  15.083   8.828  11.518
74586W        W43059  35.874  17.734   0.468
74587W        W43060  44.451   5.283  12.974
74588W        W43061  35.066  11.866  12.035
74589W        W43062  18.235  12.668   2.690
74590W        W43063  41.476   4.341  11.405
74591W        W43064  23.673  13.745   4.341
74592W        W43065  40.923  12.340  11.382
74593W        W43066  33.546  22.685   4.194
74594W        W43067   0.872  17.288   3.678
74595W        W43068  16.268   1.340  10.608
74596W        W43069  27.971  12.653  10.997
74597W        W43070   2.753  20.671   2.274
74598W        W43071   4.218  26.515  10.609
74599W        W43072  30.047  16.574  11.446
74600W        W43073  26.489   3.905   4.251
74601W        W43074   6.732  13.777   5.304
74602W        W43075  32.630   1.461   1.846
74603W        W43076  38.406  35.074   4.143
74604W        W43077  11.710   7.696   5.104
74605W        W43078   4.420  19.767  10.599
74606W        W43079  39.370   5.439  14.356
74607W        W43080  16.241  14.287   3.375
74608W        W43081   7.800  26.099   3.784
74609W        W43082  26.020  13.342   1.858
74610W        W43083  17.235  27.033   2.887
74611W        W43084  38.896   3.909  10.913
74612W        W43085  12.227  32.424  13.356
74613W        W43086  18.586   0.862  10.489
74614W        W43087  17.223  32.431  12.419
74615W        W43088   0.951  34.948  13.897
74616W        W43089   7.328  11.354   2.823
74617W        W43090  39.907  28.185   2.699
74618W        W43091  44.262  31.095   4.608
74619W        W43092  12.844  40.861  10.497
74620W        W43093  28.581  29.452  10.459
74621W        W43094   7.265  44.807   1.775
74622W        W43095  39.379  30.525  10.984
74623W        W43096  21.680  22.077  12.439
74624W        W43097  14.132  18.269  12.959
74625W        W43098  30.973   3.890  10.899
74626W        W43099  37.476  10.276  12.407
74627W        W43100  31.402  28.638  12.349
74628W        W43101   2.944  39.828  12.514
74629W        W43102   5.330  29.110   0.242
74630W        W43103   5.371  19.716   0.827
74631W        W43104  41.900  39.540   0.956
74632W        W43105  35.527   0.855   2.242
74633W        W43106  41.877   9.177   1.734
74634W        W43107  23.995  40.352   2.715
74635W        W43108  17.268  24.067  12.368
74636W        W43109   7.683  16.808   4.248
74637W        W43110  26.621  41.965   4.717
74638W        W43111  39.478  26.580  12.403
74639W        W43112  16.124  28.625   1.903
74640W        W43113  15.727  37.501  13.055
74641W        W43114  41.882   4.293  12.452
74642W        W43115   9.755  43.901   4.294
74643W        W43116  20.593   7.703  13.938
74644W        W43117  41.828  26.996   1.360
74645W        W43118  18.052  35.908  11.493
74646W        W43119  31.131   3.396   3.686
74647W        W43120   8.349  29.990  12.969
74648W        W43121  35.506  11.724  14.956
74649W        W43122  11.740   9.257  13.922
74650W        W43123  11.315  32.420   1.928
74651W        W43124   6.233  42.894   1.309
74652W        W43125  17.209  38.031   2.328
74653W        W43126  37.077  43.332   3.824
74654W        W43127  42.965  40.045   4.353
74655W        W43128  32.996  25.689   1.376
74656W        W43129   4.879   9.705   2.715
74657W        W43130  24.662  27.076   2.697
74658W        W43131  28.450  32.990   3.283
74659W        W43132  21.684  37.374   1.423
74660W        W43133  14.750  38.355   3.711
74661W        W43134  19.776  29.948  13.049
74662W        W43135  33.576  25.493   2.663
74663W        W43136  36.433  44.376   0.895
74664W        W43137  27.492  39.853  10.489
74665W        W43138   7.175   6.707   2.242
74666W        W43139  14.175  14.139   1.234
74667W        W43140  33.472  33.432   4.637
74668W        W43141  18.550  19.623   5.094
74669W        W43142   4.766  40.407   3.700
74670W        W43143  24.204  33.379  14.006
74671W        W43144  27.965  28.644   2.715
74672W        W43145  29.634  29.431   5.287
74673W        W43146   9.278  42.393  13.987
74674W        W43147  43.271   6.307  12.034
74675W        W43148  20.064   2.877   1.292
74676W        W43149  23.156  34.584  14.455
74677W        W43150  37.002  29.620   3.176
74678W        W43151  42.407  13.164   1.712
74679W        W43152  40.525   6.341  13.869
74680W        W43153  36.034  33.050  10.500
74681W        W43154  39.935  27.976  11.573
74682W        W43155  11.315  44.768  14.487
74683W        W43156   7.768  25.691   3.867
74684W        W43157  15.585  26.973   0.464
74685W        W43158   4.861  35.919  12.901
74686W        W43159  13.316   1.935  12.991
74687W        W43160  40.004  33.538   1.795
74688W        W43161  36.504  38.327  13.472
74689W        W43162  11.669  17.740  14.431
74690W        W43163  19.107   0.906  12.572
74691W        W43164  23.730  35.582  11.978
74692W        W43165  14.671  19.144   1.830
74693W        W43166  23.057   7.261  14.925
74694W        W43167  18.567   0.270   1.772
74695W        W43168  11.173  10.691   1.233
74696W        W43169  30.980   5.228  12.876
74697W        W43170  35.371  16.140   1.234
74698W        W43171  41.340  13.662  14.020
74699W        W43172  12.168  39.449   1.437
74700W        W43173   8.285  20.579   1.408
74701W        W43174   3.891   1.390  13.505
74702W        W43175   7.850  16.130   2.263
74703W        W43176  40.331  37.970  14.990
74704W        W43177  32.428  35.402   1.901
74705W        W43178  26.558  24.161   5.147
74706W        W43179  37.339  13.210   3.321
74707W        W43180  19.204  30.481  14.295
74708W        W43181  34.904  39.824  13.452
74709W        W43182  13.787   2.348  11.026
74710W        W43183  19.109  10.272   1.705
74711W        W43184  25.644   8.786   4.309
74712W        W43185   7.787  26.538   1.833
74713W        W43186  14.143   7.895  14.906
74714W        W43187  32.497  11.355   1.311
74715W        W43188  18.731  10.202  12.093
74716W        W43189  25.972  40.032  10.618
74717W        W43190  29.927  15.582   3.175
74718W        W43191   1.473  20.049   3.769
74719W        W43192  44.983  14.153   5.098
74720W        W43193  23.539   0.277  11.961
74721W        W43194   7.804  32.543   2.889
74722W        W43195  31.421  22.025  10.620
74723W        W43196   7.722   4.856   0.880
74724W        W43197   9.381  12.248  12.035
74725W        W43198  26.033  17.123  11.000
74726W        W43199  11.844   2.408   4.218
74727W        W43200  24.101  35.388   0.815
74728W        W43201  16.144   6.330  14.299
74729W        W43202   5.723   8.668  11.408
74730W        W43203  43.462  29.134   1.383
74731W        W43204  32.068  37.942   3.301
74732W        W43205  29.440   6.899   3.193
74733W        W43206   6.387  20.595   4.118
74734W        W43207   1.262  37.534   0.815
74735W        W43208  17.556   2.426  12.080
74736W        W43209  16.146   3.256  11.593
74737W        W43210  22.077  33.592  14.354
74738W        W43211   0.431   3.949  14.316
74739W        W43212  35.382  35.926  14.334
74740W        W43213   6.869  24.505   1.856
74741W        W43214  23.034  38.026   0.393
74742W        W43215   8.307  37.900  11.522
74743W        W43216  18.204  33.086   2.353
74744W        W43217  16.686  36.003   4.671
74745W        W43218  36.885  22.653   3.265
74746W        W43219  18.646   3.307  11.896
74747W        W43220  42.012  21.729   3.853
74748W        W43221  41.837  34.404   3.207
74749W        W43222  31.416  14.734  11.565
74750W        W43223  30.102   3.895  11.500
74751W        W43224  40.441  19.198  14.782
74752W        W43225  11.743   6.297  11.383
74753W        W43226  34.411  11.770  10.577
74754W        W43227   2.261  21.623  12.454
74755W        W43228  15.322  31.576   3.329
74756W        W43229   4.371   8.358   0.824
74757W        W43230  39.992  21.610  11.100
74758W        W43231  35.595   3.287  11.099
74759W        W43232  28.515  24.617   3.639
74760W        W43233  23.611  15.649   5.187
74761W        W43234  25.525  18.266   0.436
74762W        W43235   0.378  21.096   3.657
74763W        W43236  12.219  44.467   1.933
74764W        W43237  34.060  36.950  13.929
74765W        W43238  39.508  43.946  10.602
74766W        W43239  13.348  10.816   1.371
74767W        W43240   4.295  12.138  11.453
74768W        W43241  10.680  18.076  10.600
74769W        W43242  33.885  28.079   2.221
74770W        W43243  31.909  21.053   4.314
74771W        W43244  16.099  13.768   4.296
74772W        W43245   2.862   3.409  12.067
74773W        W43246  42.370   5.769  11.116
74774W        W43247  37.848  32.475   4.269
74775W        W43248  40.544  12.628   0.860
74776W        W43249  37.959  14.799   3.381
74777W        W43250  12.775  11.184   1.846
74778W        W43251  34.899  17.666  11.904
74779W        W43252  39.051  28.648   1.281
74780W        W43253  38.915  14.596  10.584
74781W        W43254  37.087  11.731  14.338
74782W        W43255   3.411  24.976   0.744
74783W        W43256   2.295  25.145  14.825
74784W        W43257  19.699   9.360   0.749
74785W        W43258  16.619   1.976   1.363
74786W        W43259  10.834  34.549   5.289
74787W        W43260  35.398  35.387  11.572
74788W        W43261   6.901  30.123  10.499
74789W        W43262  36.079  11.214  13.525
74790W        W43263  21.235  25.191   3.177
74791W        W43264   7.403  26.119  14.291
74792W        W43265   2.919  10.743   1.367
74793W        W43266  32.580  25.091  12.934
74794W        W43267   6.677  42.998   3.723
74795W        W43268   2.422  19.106  13.370
74796W        W43269  28.636  33.042  11.428
74797W        W43270  24.546  30.478  14.940
74798W        W43271  42.456   1.422  10.505
74799W        W43272   0.784  27.956   4.615
74800W        W43273   8.376  44.006  14.830
74801W        W43274  29.045  21.541  11.886
74802W        W43275  30.441  15.578   5.221
74803W        W43276   8.319  34.102  10.124
74804W        W43277  44.487   3.824  11.908
74805W        W43278  43.373  25.993  12.855
74806W        W43279  18.293  26.678  11.492
74807W        W43280  14.270  40.983   4.310
74808W        W43281   5.285   6.735   0.285
74809W        W43282  40.871  18.227  13.015
74810W        W43283   0.424   7.873  12.844
74811W        W43284   5.309   1.928   1.222
74812W        W43285  15.609  34.955  13.440
74813W        W43286  38.857  17.740   3.810
74814W        W43287   7.798  19.260   4.199
74815W        W43288  13.690  28.499  13.496
74816W        W43289   3.246  13.141   1.447
74817W        W43290  10.355  22.066  13.438
74818W        W43291  17.662   6.835   1.276
74819W        W43292  20.587  23.571   3.162
74820W        W43293  20.234  38.460   4.738
74821W        W43294   5.817  41.344  12.353
74822W        W43295  38.375  20.627  14.020
74823W        W43296  27.138   1.377  14.465
74824W        W43297  44.817  21.199  12.023
74825W        W43298   9.857   0.978  10.429
74826W        W43299  17.561  25.201   1.212
74827W        W43300  16.594  19.111   3.712
74828W        W43301  34.593   3.923   3.784
74829W        W43302  37.886  14.755  11.004
74830W        W43303  40.838   7.774  13.887
74831W        W43304  41.950  18.659   3.220
74832W        W43305   3.946  42.369  14.515
74833W        W43306  19.624  20.549  13.834
74834W        W43307  31.067  24.569  11.474
74835W        W43308  39.873  33.035   0.242
74836W        W43309  27.055  30.057  11.577
74837W        W43310  35.894  29.007   1.884
74838W        W43311  38.458  38.424  12.464
74839W        W43312  43.789   8.828   3.807
74840W        W43313  24.635  42.971   3.193
74841W        W43314  41.428  28.516  12.824
74842W        W43315  26.510  38.459  12.364
74843W        W43316   8.321  41.792   1.753
74844W        W43317  12.337  38.501   2.679
74845W        W43318  39.056  24.175   4.177
74846W        W43319  21.697  15.139  10.910
74847W        W43320  14.664   1.834  12.996
74848W        W43321  41.514  16.200   4.342
74849W        W43322  11.152   5.211   3.811
74850W        W43323   1.786   1.945   2.787
74851W        W43324  29.521  31.541   0.919
74852W        W43325   7.721  36.944  12.953
74853W        W43326  38.944   2.749  10.001
74854W        W43327   5.820  16.080  11.535
74855W        W43328  16.209  18.559  11.122
74856W        W43329  25.687   8.697   0.898
74857W        W43330  20.126  15.643   9.923
74858W        W43331  30.962   7.735  11.893
74859W        W43332  41.883  39.351  10.433
74860W        W43333  29.432  19.628   5.278
74861W        W43334  23.620  19.769  14.418
74862W        W43335  18.717   1.951  14.838
74863W        W43336  26.178  11.837  13.515
74864W        W43337  13.168   8.826  14.464
74865W        W43338  39.546  13.208  13.927
74866W        W43339  14.173  24.230   4.607
74867W        W43340  24.072  32.127   5.219
74868W        W43341  25.026   9.297  13.337
74869W        W43342  15.258  32.887  12.348
74870W        W43343  22.036  30.137  13.510
74871W        W43344  26.141   2.837   2.729
74872W        W43345  36.917   8.163   4.771
74873W        W43346  33.131  19.046  10.555
74874W        W43347  43.927  21.130   0.827
74875W        W43348  11.635   2.866   3.654
74876W        W43349  13.676  24.150   4.219
74877W        W43350  12.807  13.301   3.669
74878W        W43351  25.652   5.926   4.818
74879W        W43352  14.813  31.973  13.502
74880W        W43353   0.971  21.261   3.815
74881W        W43354  25.645   3.714  11.389
74882W        W43355   8.212  40.004  12.930
74883W        W43356   8.371  28.023   4.769
74884W        W43357  20.186  24.078  12.503
74885W        W43358   4.862  11.671   2.325
74886W        W43359   8.839  13.638   3.342
74887W        W43360  40.429  30.909  13.918
74888W        W43361  20.530  14.138  10.932
74889W        W43362  10.670  42.965  14.396
74890W        W43363   8.236  11.793  11.473
74891W        W43364  29.456  44.356   3.776
74892W        W43365  33.108  14.114   0.448
74893W        W43366  39.348   2.816   1.330
74894W        W43367  15.234   8.689   2.840
74895W        W43368  13.763   4.843  14.284
74896W        W43369  28.068  25.157  10.621
74897W        W43370   1.881  23.065   3.313
74898W        W43371  36.908   7.417  13.819
74899W        W43372  14.147  22.532  14.912
74900W        W43373  39.888  25.471   0.313
74901W        W43374   6.236  40.313  11.987
74902W        W43375   9.386  36.482  12.945
74903W        W43376   7.349  43.416  12.487
74904W        W43377  25.698   4.316  12.434
74905W        W43378  22.013   5.759  11.893
74906W        W43379  19.768  23.208  13.973
74907W        W43380  21.111  13.630  13.331
74908W        W43381  40.925  44.301  13.037
74909W        W43382  42.475  25.674  14.452
74910W        W43383   4.728   2.262  12.880
74911W        W43384  28.017   7.312   4.799
74912W        W43385  12.154  32.551   3.734
74913W        W43386  24.655  44.806   0.919
74914W        W43387  22.188   1.909  14.022
74915W        W43388  31.971   9.206   0.348
74916W        W43389   3.265  40.829   4.771
74917W        W43390  25.074  32.466  11.403
74918W        W43391  24.606  13.113   5.601
74919W        W43392  32.136  16.625  12.507
74920W        W43393  21.632  22.079  12.853
74921W        W43394  43.430  25.167  11.060
74922W        W43395  25.127  22.126  12.474
74923W        W43396  24.104   6.221  14.421
74924W        W43397  41.383   0.358  11.098
74925W        W43398  23.164  23.211  14.772
74926W        W43399   1.738  36.065  10.978
74927W        W43400  41.835  26.056  12.071
74928W        W43401  23.631  36.987  14.372
74929W        W43402  15.189  42.872  13.324
74930W        W43403  19.629  29.073  13.912
74931W        W43404  20.160  30.913   4.160
74932W        W43405   2.398   8.176   2.809
74933W        W43406   4.872  20.767   1.871
74934W        W43407  26.058  37.392  14.344
74935W        W43408  34.437  28.441   3.370
74936W        W43409  25.190  39.941  13.314
74937W        W43410  22.076   0.376   2.744
74938W        W43411  33.945  30.416   3.263
74939W        W43412  25.187  42.775   4.145
74940W        W43413  40.929  14.679   3.305
74941W        W43414  40.910  25.012  13.985
74942W        W43415   8.374   8.254   3.666
74943W        W43416   4.702  21.241   4.688
74944W        W43417  41.042  17.180   3.226
74945W        W43418   0.388  11.275  10.944
74946W        W43419  44.800   8.372   0.837
74947W        W43420  23.688   1.352   2.294
74948W        W43421  22.181  39.384   0.816
74949W        W43422  33.941   6.380   0.243
74950W        W43423  42.437  17.269   3.178
74951W        W43424  42.300  14.766   0.743
74952W        W43425   9.306   0.813  11.405
74953W        W43426   0.982  41.537   2.252
74954W        W43427  44.952  11.647   0.287
74955W        W43428  12.196  26.492  11.572
74956W        W43429  14.774  24.597   3.183
74957W        W43430  37.449   0.320   0.272
74958W        W43431   2.366  20.074  13.462
74959W        W43432  33.042  27.530   4.781
74960W        W43433   7.829   5.315   3.328
74961W        W43434  24.983  32.026  12.936
74962W        W43435  25.636   2.305   4.345
74963W        W43436  11.131  33.617   3.287
74964W        W43437   7.294  13.334  12.481
74965W        W43438  16.633  35.546   1.928
74966W        W43439  38.406  35.440   2.875
74967W        W43440  36.958  22.681   4.124
74968W        W43441   1.372   0.837   4.135
74969W        W43442   9.236  23.642  13.998
74970W        W43443  40.007  34.406   4.113
74971W        W43444  10.295  10.776  12.907
74972W        W43445  10.381  27.553  14.344
74973W        W43446  27.572  39.949   2.178
74974W        W43447  15.665  19.069   3.739
74975W        W43448  41.928   2.746   3.741
74976W        W43449   7.306   8.762  13.523
74977W        W43450   7.791  17.589  11.969
74978W        W43451  28.142  21.653  14.958
74979W        W43452  36.437   3.414  11.008
74980W        W43453  22.123   8.293  12.379
74981W        W43454  30.134  28.153  13.522
74982W        W43455  44.002  14.122  13.443
74983W        W43456  27.995  31.566  14.388
74984W        W43457  24.699  41.940  12.503
74985W        W43458  30.466   6.239   1.816
74986W        W43459   5.303  42.825  13.329
74987W        W43460  35.465   6.407  13.987
74988W        W43461  13.777  27.515   3.296
74989W        W43462  15.191  12.615   0.803
74990W        W43463   1.861  18.682  10.556
74991W        W43464  36.860  16.614   4.295
74992W        W43465   9.737  22.642  13.378
74993W        W43466  30.469  31.139  11.544
74994W        W43467   4.300  34.077   3.196
74995W        W43468   7.393  29.043  11.549
74996W        W43469  40.531  24.598   2.265
74997W        W43470   1.404   1.389   2.688
74998W        W43471  18.122  14.275   3.695
74999W        W43472  21.549  22.557   4.180
75000W        W43473  43.767   9.213  12.829
75001W        W43474  35.017   9.228   0.923
75002W        W43475  25.123  35.402   1.770
75003W        W43476  33.394  32.489  14.369
75004W        W43477  10.779  42.950   3.765
75005W        W43478  16.712  44.874  11.421
75006W        W43479  31.914  20.651  12.372
75007W        W43480  30.952  11.709   3.695
75008W        W43481  13.728  34.867  11.019
75009W        W43482  23.604  42.938  10.891
75010W        W43483  21.044  33.975   2.753
75011W        W43484  35.948  43.793  13.402
75012W        W43485  26.573   7.273  14.485
75013W        W43486  31.140  21.544   1.248
75014W        W43487   9.155   3.748  13.852
75015W        W43488  22.173  10.787  12.947
75016W        W43489  33.625  44.947  11.906
75017W        W43490   2.468  31.978  12.913
75018W        W43491   4.261  22.533   3.233
75019W        W43492  41.359  36.927  11.971
75020W        W43493  19.680   5.691   2.346
75021W        W43494   8.246  34.497   4.221
75022W        W43495   4.714  33.539  10.051
75023W        W43496   4.743  33.091  10.890
75024W        W43497   6.681   8.396  13.794
75025W        W43498  23.713   3.757   3.310
75026W        W43499  26.073  23.221  12.384
75027W        W43500  13.204   3.430  10.007
75028W        W43501  29.477  34.047   3.703
75029W        W43502  29.039  32.597   4.824
75030W        W43503  39.958   4.886   4.812
75031W        W43504   1.278  20.634   0.934
75032W        W43505  43.767  31.421  12.951
75033W        W43506  38.536  33.936  12.365
75034W        W43507  37.971  43.509   4.605
75035W        W43508  26.545  21.069  12.930
75036W        W43509  39.843  31.915  11.495
75037W        W43510   1.341  35.060   0.273
75038W        W43511  37.495  17.076   3.243
75039W        W43512   5.362   9.223   3.320
75040W        W43513  10.747  37.396  14.433
75041W        W43514  27.010   6.762  11.548
75042W        W43515  44.370  31.109  14.377
75043W        W43516   5.888  15.763  13.804
75044W        W43517  17.129  43.808   4.754
75045W        W43518  39.549  41.787   4.230
75046W        W43519  42.891  17.589   1.277
75047W        W43520  14.821   7.222  12.839
75048W        W43521  18.158  18.208  12.029
75049W        W43522   6.922   5.854   3.803
75050W        W43523  36.856  37.888   3.189
75051W        W43524  10.761  14.173   4.681
75052W        W43525  25.017  29.144  11.012
75053W        W43526  37.059  25.098  12.014
75054W        W43527  12.171  35.105   4.117
75055W        W43528   5.303   9.844   3.799
75056W        W43529  14.209  42.937   2.704
75057W        W43530   2.321  31.148  14.489
75058W        W43531  19.276  24.686  13.016
75059W        W43532  17.743  39.011  13.024
75060W        W43533  30.618  15.677   3.284
75061W        W43534  28.001   0.298   0.477
75062W        W43535  32.439  41.320   2.234
75063W        W43536  10.824   6.246  11.541
75064W        W43537  36.550   4.285  11.881
75065W        W43538   0.754  25.088  10.446
75066W        W43539  24.168  18.656   1.421
75067W        W43540  11.728  43.945   1.856
75068W        W43541  41.352  22.692   4.740
75069W        W43542  41.951  10.672  14.496
75070W        W43543  18.056  28.570   2.680
75071W        W43544  10.703  12.288  11.944
75072W        W43545  24.574  13.287  11.536
75073W        W43546   7.356   5.787   1.735
75074W        W43547  26.017  11.683   1.864
75075W        W43548   6.258  13.785   0.349
75076W        W43549  44.417  28.559  10.490
75077W        W43550   1.307  10.191  13.897
75078W        W43551  43.002   9.300   2.255
75079W        W43552  38.466  13.691  11.091
75080W        W43553  19.164  39.037   0.743
75081W        W43554  41.804   8.181  11.907
75082W        W43555  20.232  26.175   1.906
75083W        W43556  30.625  28.079   2.379
75084W        W43557  25.594   9.647  11.972
75085W        W43558  23.196  36.926   0.400
75086W        W43559  36.057  23.692  11.593
75087W        W43560   0.884   3.809  11.460
75088W        W43561   5.891  25.061   0.316
75089W        W43562   8.383   1.856   2.354
75090W        W43563   4.240  15.663   1.328
75091W        W43564  17.604  22.174   3.652
75092W        W43565  25.201  12.196   2.900
75093W        W43566  17.241  26.653  14.299
75094W        W43567  32.095  10.199   1.341
75095W        W43568   0.903  18.605   3.791
75096W        W43569  32.096  35.066   2.844
75097W        W43570   7.684   9.326   3.796
75098W        W43571  25.988   7.818  11.586
75099W        W43572   7.714  20.733   3.678
75100W        W43573   0.834  11.788  14.988
75101W        W43574   9.716  28.459  10.603
75102W        W43575  41.857   2.340   1.861
75103W        W43576  19.054   1.923  12.491
75104W        W43577  25.978  31.573  11.078
75105W        W43578  11.774  23.684  12.913
75106W        W43579  14.209   8.406   0.727
75107W        W43580  17.197  23.074  11.038
75108W        W43581  23.231   8.284  11.382
75109W        W43582  25.994  12.215  14.778
75110W        W43583   0.775  31.033   2.813
75111W        W43584   1.468  40.367  10.579
75112W        W43585  35.979  26.189  13.958
75113W        W43586  31.538  30.462   2.722
75114W        W43587   2.238  29.529  12.833
75115W        W43588  17.732  39.055  11.087
75116W        W43589  36.072  27.602   2.208
75117W        W43590  11.298   9.651   1.227
75118W        W43591  14.660   2.322  13.956
75119W        W43592  10.287   2.845   0.349
75120W        W43593  42.002   2.392  10.901
75121W        W43594  35.004  24.084  13.346
75122W        W43595  22.221  29.617   3.787
75123W        W43596   9.837  23.554  10.933
75124W        W43597  16.788  44.814   0.770
75125W        W43598   7.186  31.459  11.563
75126W        W43599  12.319  36.506  10.629
75127W        W43600  44.794   9.328  13.471
75128W        W43601  11.626  26.657  12.515
75129W        W43602  21.068  40.969   2.764
75130W        W43603  33.606  24.560  13.437
75131W        W43604  19.268  15.676  14.481
75132W        W43605  41.035   4.880  11.967
75133W        W43606  11.851  23.654   3.743
75134W        W43607  39.382   6.406  11.870
75135W        W43608  16.101  37.511  14.451
75136W        W43609   4.425   5.420  11.998
75137W        W43610  21.228  21.714   0.946
75138W        W43611  32.950  29.427  12.462
75139W        W43612   1.336  20.106  14.305
75140W        W43613   1.385  43.863   0.920
75141W        W43614   2.929  40.445  13.816
75142W        W43615  34.905   2.793   1.878
75143W        W43616  30.102  12.137  14.029
75144W        W43617   1.399   6.307  14.990
75145W        W43618  25.196  17.256  11.970
75146W        W43619   8.859  31.124   2.668
75147W        W43620  26.176  24.200   3.148
75148W        W43621  26.652   8.196  11.086
75149W        W43622  15.214  27.464  11.603
75150W        W43623  12.270  33.614   2.340
75151W        W43624  10.376  18.730   3.835
75152W        W43625  29.607   4.309  14.989
75153W        W43626  21.619  26.184  14.855
75154W        W43627   4.706   3.326  10.922
75155W        W43628  19.168  23.673   4.742
75156W        W43629  25.575  35.376  10.404
75157W        W43630  21.584  24.686   2.411
75158W        W43631   2.344  18.060   1.225
75159W        W43632  44.947   6.846  14.821
75160W        W43633  29.615   7.848  14.992
75161W        W43634  43.309  17.681   0.381
75162W        W43635  44.292  32.618  10.405
75163W        W43636  44.824  37.497   2.193
75164W        W43637  26.173   3.377  14.376
75165W        W43638  18.178  28.565   4.728
75166W        W43639  24.207  27.004  12.010
75167W        W43640  27.964  41.948   2.714
75168W        W43641   8.804  26.120  11.968
75169W        W43642  12.759  28.606   4.174
75170W        W43643   7.904   4.294  11.858
75171W        W43644  43.445  44.276  14.893
75172W        W43645  38.015   4.239  14.369
75173W        W43646  23.067  11.370   3.797
75174W        W43647  24.618  41.877   0.892
75175W        W43648  44.265  34.042   3.213
75176W        W43649  40.981  20.626  14.023
75177W        W43650  33.409  29.978  14.278
75178W        W43651  22.670   0.249  14.467
75179W        W43652   0.482  20.738  11.944
75180W        W43653  41.966  32.501   2.337
75181W        W43654   1.406  24.189  13.520
75182W        W43655   0.494  22.134   4.273
75183W        W43656  11.194  26.953   2.702
75184W        W43657  19.069  39.369  13.449
75185W        W43658  32.124  16.132  11.007
75186W        W43659  36.071  13.697   1.844
75187W        W43660   5.859  13.308   3.160
75188W        W43661   0.463  34.587  13.520
75189W        W43662   0.315  17.117   1.334
75190W        W43663  41.493  19.632  13.351
75191W        W43664   0.927  30.589   4.249
75192W        W43665  38.853  32.120  12.950
75193W        W43666  33.127  13.166   0.397
75194W        W43667   4.266   2.904  14.924
75195W        W43668  28.106  27.643  12.943
75196W        W43669  10.807  33.977  11.403
75197W        W43670  18.240  10.237   1.361
75198W        W43671   0.971   2.411   3.330
75199W        W43672   0.468  20.091  14.830
75200W        W43673  17.570  18.129  12.418
75201W        W43674  42.026   6.836  11.018
75202W        W43675  43.912  20.140  12.568
75203W        W43676  33.073  31.068   3.361
75204W        W43677   5.871   2.765   0.951
75205W        W43678  28.124  38.554  11.965
75206W        W43679  33.982  28.083  11.108
75207W        W43680  11.281  13.324   0.301
75208W        W43681  29.498  38.993   2.849
75209W        W43682  17.635  13.629  12.376
75210W        W43683  37.021  23.987   4.609
75211W        W43684  14.616   4.282  12.356
75212W        W43685   4.339  20.183  11.932
75213W        W43686   2.332  14.149   0.408
75214W        W43687  21.196  40.850  13.913
75215W        W43688   4.228  14.767  13.828
75216W        W43689  23.551   9.840  13.967
75217W        W43690  10.369  11.806  14.917
75218W        W43691  22.662  39.964   4.630
75219W        W43692  32.967  31.968   0.903
75220W        W43693  32.906   2.841  14.352
75221W        W43694   2.774   3.396   3.757
75222W        W43695   6.413  33.997  14.408
75223W        W43696   6.247   8.214   2.890
75224W        W43697  23.548  16.738  12.994
75225W        W43698  10.239  17.076  11.550
75226W        W43699  16.776   7.757   1.777
75227W        W43700  13.673  43.833   2.847
75228W        W43701  42.490  37.371   1.363
75229W        W43702   7.698   7.819   4.615
75230W        W43703   8.803   5.434  13.328
75231W        W43704   9.156   9.681  14.994
75232W        W43705  30.040  35.369   3.323
75233W        W43706   4.874  29.126  12.473
75234W        W43707   0.418  29.980   0.393
75235W        W43708  31.558  33.984   0.358
75236W        W43709  36.460  30.980   2.757
75237W        W43710  39.809  37.350   2.772
75238W        W43711  19.207  19.660  10.925
75239W        W43712  23.129   7.849  12.428
75240W        W43713  30.570  43.776  12.919
75241W        W43714  23.988  22.098   4.623
75242W        W43715   0.944  15.236   4.786
75243W        W43716   9.166   4.210   3.656
75244W        W43717  23.519  12.805  12.965
75245W        W43718  29.968  25.159   0.740
75246W        W43719  34.583   5.879  12.579
75247W        W43720  43.420  20.647  11.601
75248W        W43721  15.321  25.665   1.819
75249W        W43722   7.291   0.774   4.326
75250W        W43723  36.945  23.651   1.800
75251W        W43724  17.089   3.446  10.976
75252W        W43725  14.662  36.978  13.955
75253W        W43726  38.390  32.038   3.237
75254W        W43727  24.647  31.478  11.520
75255W        W43728  33.460  44.466  10.105
75256W        W43729  42.780  28.100   5.308
75257W        W43730  40.534  21.661   2.390
75258W        W43731  28.487  43.446  11.395
75259W        W43732  20.173  16.307  14.280
75260W        W43733   1.360   5.925   0.257
75261W        W43734  25.211  15.697  11.568
75262W        W43735  40.399   5.263   4.295
75263W        W43736  21.262   3.458  10.489
75264W        W43737  41.311  16.239   0.767
75265W        W43738   8.383  25.075  12.064
75266W        W43739   5.314   5.790   5.151
75267W        W43740   2.415  36.511   1.862
75268W        W43741  43.846  34.952  10.568
75269W        W43742  32.399  33.983   3.213
75270W        W43743  26.047   5.374  13.957
75271W        W43744  27.662   2.253  13.492
75272W        W43745   3.292   2.840   0.282
75273W        W43746  20.767   0.281  13.935
75274W        W43747  15.773  44.919   4.599
75275W        W43748  42.345  29.587  14.515
75276W        W43749  38.986  44.804   0.257
75277W        W43750  33.970   1.299  14.344
75278W        W43751  10.174  34.454   2.247
75279W        W43752  38.880  12.800  12.961
75280W        W43753   7.841   2.846  14.902
75281W        W43754  18.586  34.885   1.434
75282W        W43755   9.759   9.170  12.531
75283W        W43756   8.716  41.816  10.512
75284W        W43757  29.054  43.408  10.928
75285W        W43758  29.550   5.419  12.437
75286W        W43759  32.586   2.814  12.440
75287W        W43760  21.692  18.188  13.366
75288W        W43761  15.616  16.690  13.060
75289W        W43762   4.920  43.301  12.440
75290W        W43763  33.088  42.467  11.401
75291W        W43764  30.462  10.342  11.988
75292W        W43765  41.934  27.590  13.343
75293W        W43766  27.139   9.237  11.549
75294W        W43767  23.647  42.932   4.292
75295W        W43768  28.095  15.643   3.742
75296W        W43769  30.520   3.446   3.818
75297W        W43770  18.259  14.615   0.428
75298W        W43771  24.153  21.021   0.796
75299W        W43772  10.869  36.032  10.532
75300W        W43773  32.501  32.633  13.421
75301W        W43774  41.042   8.747  12.392
75302W        W43775  26.122  18.654   1.904
75303W        W43776  14.619   5.896   1.903
75304W        W43777  44.332  30.415  11.395
75305W        W43778  38.925   0.960  12.022
75306W        W43779   9.799   3.225   4.774
75307W        W43780  28.160  11.754   3.729
75308W        W43781  10.198  27.573   9.952
75309W        W43782   3.279  33.462  12.895
75310W        W43783  26.633  24.991  11.551
75311W        W43784  32.989  38.825  14.503
75312W        W43785   2.905  12.235  12.463
75313W        W43786  44.948   8.223  11.027
75314W        W43787  43.799  28.132  12.468
75315W        W43788   2.256  10.714   0.276
75316W        W43789  15.323   8.854  13.971
75317W        W43790  10.209   0.373   1.259
75318W        W43791  21.188   0.971  12.467
75319W        W43792  28.595  12.225  11.434
75320W        W43793  25.143   0.346   5.093
75321W        W43794  29.165  35.406  11.062
75322W        W43795  24.215  37.995  14.504
75323W        W43796   1.769  34.938  13.407
75324W        W43797  41.010   4.866   4.160
75325W        W43798   0.250  32.516   2.401
75326W        W43799  27.632  25.158   2.330
75327W        W43800  44.894  25.021  14.993
75328W        W43801  13.157  14.105  14.975
75329W        W43802   4.360  38.529  12.411
75330W        W43803  12.832   7.181  10.634
75331W        W43804  44.475  23.151   3.682
75332W        W43805   4.821  26.545   0.393
75333W        W43806  16.806   7.363  10.945
75334W        W43807  36.374  31.489   3.750
75335W        W43808   0.767  43.424   1.896
75336W        W43809  23.228  32.131   1.727
75337W        W43810  40.998   6.394   3.633
75338W        W43811  35.461  43.885  10.611
75339W        W43812  16.104  36.979   2.308
75340W        W43813   2.314  20.653   1.904
75341W        W43814  25.103  39.918   4.328
75342W        W43815   7.258  38.837  12.538
75343W        W43816   9.331   0.421   4.823
75344W        W43817  21.636  26.672   3.260
75345W        W43818  35.030  41.394   4.127
75346W        W43819   7.842  35.436   1.246
75347W        W43820   2.792  39.477   0.270
75348W        W43821  20.216  39.942   0.270
75349W        W43822  12.848  32.924   3.800
75350W        W43823  40.809  30.918   4.350
75351W        W43824  32.487  39.927  10.052
75352W        W43825  14.664  19.609  13.422
75353W        W43826  32.554  10.806   4.330
75354W        W43827   5.386  16.140  14.984
75355W        W43828  12.353  43.864   4.785
75356W        W43829  36.577  20.547  14.377
75357W        W43830  29.112  10.194   0.731
75358W        W43831  14.313  38.880  14.851
75359W        W43832  40.474  29.051   3.690
75360W        W43833  10.731  15.326  12.570
75361W        W43834   0.263  11.278  11.934
75362W        W43835  17.799  32.086  12.998
75363W        W43836  16.265  17.140  12.437
75364W        W43837  41.430  10.240   1.289
75365W        W43838  41.898  27.987  12.061
75366W        W43839   8.820  22.625  11.565
75367W        W43840  13.339  35.955   1.868
75368W        W43841  10.222  12.260   3.338
75369W        W43842   6.414  42.936  12.894
75370W        W43843   1.278  19.201  14.774
75371W        W43844  23.025  31.026   1.223
75372W        W43845  17.295  17.124  10.552
75373W        W43846   3.730  26.517  10.960
75374W        W43847  37.899  41.799   3.149
75375W        W43848   2.366  24.219   2.353
75376W        W43849  16.137  12.192   3.279
75377W        W43850  38.491  14.625  12.015
75378W        W43851   5.278  31.999  11.396
75379W        W43852  24.613   4.316   1.726
75380W        W43853   8.331  33.080   0.820
75381W        W43854  18.742   7.812  14.947
75382W        W43855  44.303  14.259  11.116
75383W        W43856   8.778  36.006   3.668
75384W        W43857  28.057  29.471  11.057
75385W        W43858  31.454  18.705  11.419
75386W        W43859  12.707  44.950  11.904
75387W        W43860  12.640  23.986   0.429
75388W        W43861   0.312  26.468  12.829
75389W        W43862  12.361  36.958  14.487
75390W        W43863  33.944   1.240  11.875
75391W        W43864  43.358  41.520   4.264
75392W        W43865  26.132  33.930   3.818
75393W        W43866  31.126   9.385  13.884
75394W        W43867   0.258  13.274  12.503
75395W        W43868   2.925  36.427  11.597
75396W        W43869  36.850  20.051   3.695
75397W        W43870  30.982  26.997   1.819
75398W        W43871  42.488  32.022  11.446
75399W        W43872  25.656  33.406  12.349
75400W        W43873   4.376   2.956   2.900
75401W        W43874   2.266  43.794  10.613
75402W        W43875  37.956  44.814  10.500
75403W        W43876  44.937  37.454   3.749
75404W        W43877   7.243   0.262   4.646
75405W        W43878  10.716  31.027  13.450
75406W        W43879  19.661  21.252  12.947
75407W        W43880  32.978  18.078   1.348
75408W        W43881  10.329  17.627   2.211
75409W        W43882  32.615  11.225   2.183
75410W        W43883   7.857  22.649   1.277
75411W        W43884  38.865  44.437  10.492
75412W        W43885  19.660  27.691   0.454
75413W        W43886  23.599  24.129  10.588
75414W        W43887   0.471   7.748   2.193
75415W        W43888  30.519  24.158   4.713
75416W        W43889  38.482  44.505   2.665
75417W        W43890  27.459   3.718  14.406
75418W        W43891  18.192   3.824  14.830
75419W        W43892  20.663  44.376   4.143
75420W        W43893   1.362  30.522  14.909
75421W        W43894   8.780  32.104   2.301
75422W        W43895  39.931  25.987   1.911
75423W        W43896  43.994  34.993  13.419
75424W        W43897  25.591  24.695  11.424
75425W        W43898  10.302  11.815  12.444
75426W        W43899  26.133  12.850   0.335
75427W        W43900  38.030  42.879  10.940
75428W        W43901  24.651   8.830  12.475
75429W        W43902  23.057  42.818   2.857
75430W        W43903  41.502  33.564   1.756
75431W        W43904   8.346  40.478   4.283
75432W        W43905  42.842  15.138   1.356
75433W        W43906   9.812  13.660  11.015
75434W        W43907   9.781  23.018  13.347
75435W        W43908  21.622  14.809  14.280
75436W        W43909  37.983  22.199   3.294
75437W        W43910  18.290   1.954   4.749
75438W        W43911   8.403   0.340   4.139
75439W        W43912  19.203  38.909   4.141
75440W        W43913  23.730   7.237  13.516
75441W        W43914  42.912  28.118   4.205
75442W        W43915   9.393  25.148   5.209
75443W        W43916  16.318  31.005   0.480
75444W        W43917  24.605   7.885   0.966
75445W        W43918  44.777   7.378  11.859
75446W        W43919  14.176   4.423   2.374
75447W        W43920   9.762  26.587   2.221
75448W        W43921  19.664  32.632   3.170
75449W        W43922   7.353   4.236   2.692
75450W        W43923  32.107  31.433  10.619
75451W        W43924  14.195  34.541   1.338
75452W        W43925  17.717  38.345  10.590
75453W        W43926  37.958   1.917   1.343
75454W        W43927  31.464   2.871   0.475
75455W        W43928  14.784  33.920  14.965
75456W        W43929  11.201  41.018   2.272
75457W        W43930  20.628   6.915   2.663
75458W        W43931   6.209  24.604  12.566
75459W        W43932  17.641  16.605  12.914
75460W        W43933   1.870  11.152  14.483
75461W        W43934  26.185   0.796  11.961
75462W        W43935  22.090   7.312  14.397
75463W        W43936  27.534  15.644  11.507
75464W        W43937  31.538  37.861  11.526
75465W        W43938  38.897   4.273   4.189
75466W        W43939  23.096  22.683   4.614
75467W        W43940  16.603  22.081   2.846
75468W        W43941  29.586   0.309   2.299
75469W        W43942  32.980  36.375   2.417
75470W        W43943   1.845  43.006  10.933
75471W        W43944  16.594   0.254  13.989
75472W        W43945  35.537  22.636   3.289
75473W        W43946   5.223  22.235   3.162
75474W        W43947   9.744   3.316  10.434
75475W        W43948  44.877  38.912  13.796
75476W        W43949  16.232  24.485   0.841
75477W        W43950  43.972  36.352  10.623
75478W        W43951   7.340  21.245  12.991
75479W        W43952   0.356  36.395  13.530
75480W        W43953  42.947  39.930  12.947
75481W        W43954  28.606  19.570  12.032
75482W        W43955  19.086  33.405   3.261
75483W        W43956   4.787  35.571  13.870
75484W        W43957  29.134  43.400  13.499
75485W        W43958  38.041  39.547   2.862
75486W        W43959  24.025   4.876   2.705
75487W        W43960  10.276  24.612   0.740
75488W        W43961  14.621  11.167   1.309
75489W        W43962  37.394   7.767   4.629
75490W        W43963  11.712  16.287  13.991
75491W        W43964  28.545  33.587  11.448
75492W        W43965   0.987  21.730   0.882
75493W        W43966  36.555  11.287  12.554
75494W        W43967  23.063  36.894  12.082
75495W        W43968  39.959  19.767  13.490
75496W        W43969  30.082  25.481  10.054
75497W        W43970   8.782  41.370   2.698
75498W        W43971  33.898  41.929   1.424
75499W        W43972  37.067  32.005   1.378
75500W        W43973  25.962  39.883  13.362
75501W        W43974  31.087   0.343  10.535
75502W        W43975  12.173  16.698   1.373
75503W        W43976   2.394   4.218   2.258
75504W        W43977   5.895  11.689  14.334
75505W        W43978  18.739  43.809  14.313
75506W        W43979  33.527  35.440  12.953
75507W        W43980   4.871  34.453  12.484
75508W        W43981  23.106  20.192  12.828
75509W        W43982  13.751  25.074  10.450
75510W        W43983   2.913  13.623  14.496
75511W        W43984  25.200  23.726   4.790
75512W        W43985   9.875  43.783  11.981
75513W        W43986  33.410   9.286  14.002
75514W        W43987  11.149  17.210  12.879
75515W        W43988  29.145   4.349   3.759
75516W        W43989  32.580  11.236  14.986
75517W        W43990   2.789  18.083   2.184
75518W        W43991  19.686  15.727   4.681
75519W        W43992  12.663  43.910   2.821
75520W        W43993  36.517  19.554   2.232
75521W        W43994  36.872  44.339  13.819
75522W        W43995  38.050  32.946  14.396
75523W        W43996  43.848  42.976   0.376
75524W        W43997  18.699  17.778  14.849
75525W        W43998   9.388   5.689  12.988
75526W        W43999  20.733  28.137   1.889
75527W        W44000   8.242   6.387  10.566
75528W        W44001  11.158   5.412   1.412
75529W        W44002  38.463  11.794   3.686
75530W        W44003   0.921  29.094  12.559
75531W        W44004   9.809  10.264  11.386
75532W        W44005  22.082   3.882  13.504
75533W        W44006  35.039  33.445   2.688
75534W        W44007  32.574  39.380   2.750
75535W        W44008  35.854  11.330  10.976
75536W        W44009   4.378  28.070   0.831
75537W        W44010   1.251  35.521   1.430
75538W        W44011  19.256  16.629  13.458
75539W        W44012  26.109  38.469   1.908
75540W        W44013  36.049  35.897  13.911
75541W        W44014  37.367  13.825  14.325
75542W        W44015  22.047  42.394  13.406
75543W        W44016   5.326  41.529  11.023
75544W        W44017  32.122  38.553  13.958
75545W        W44018  23.189  32.055   4.662
75546W        W44019  22.155  39.482   4.737
75547W        W44020  25.182  26.969   2.333
75548W        W44021  39.506  11.641   2.865
75549W        W44022  44.803  14.652  12.002
75550W        W44023   6.725  22.015   3.217
75551W        W44024  18.141  33.036  11.002
75552W        W44025  18.284  11.796  12.973
75553W        W44026  17.272   9.286  12.524
75554W        W44027  26.124  39.887   0.834
75555W        W44028  39.964  28.468  10.500
75556W        W44029  28.169  39.045  11.609
75557W        W44030   2.317  17.779   0.387
75558W        W44031  15.619  19.743   0.333
75559W        W44032   8.747  17.763  13.918
75560W        W44033  10.818   2.294   3.727
75561W        W44034  13.276  44.808  14.990
75562W        W44035  26.685  36.076  12.895
75563W        W44036  28.454   1.856   4.203
75564W        W44037  12.738  39.882   3.178
75565W        W44038   5.755  29.490   4.787
75566W        W44039   4.360  32.568   2.706
75567W        W44040  29.173  33.426  11.039
75568W        W44041  39.929  26.046  11.041
75569W        W44042  39.066  32.580   3.209
75570W        W44043  15.723  31.527  11.894
75571W        W44044   6.843  12.848  13.444
75572W        W44045  16.184  29.977   0.282
75573W        W44046  20.539  21.158   0.826
75574W        W44047  33.383  37.836  12.880
75575W        W44048  43.813  42.403   1.785
75576W        W44049  17.110  42.449   3.295
75577W        W44050  35.951   0.453   2.685
75578W        W44051  18.617  25.199   2.224
75579W        W44052  21.204   0.248  13.823
75580W        W44053  23.004  21.611  11.902
75581W        W44054   5.264   8.789   4.272
75582W        W44055   7.790  18.241  13.512
75583W        W44056  28.951   4.728  14.449
75584W        W44057  33.944   1.331   3.826
75585W        W44058  25.114  27.184   1.345
75586W        W44059   2.744  10.660   4.171
75587W        W44060  41.880  29.525  14.785
75588W        W44061  26.560   3.836  13.313
75589W        W44062  44.501  18.053  14.275
75590W        W44063  17.638  35.447   0.731
75591W        W44064  18.133  28.100   3.864
75592W        W44065  14.175  29.431  11.547
75593W        W44066  32.899  24.222   1.807
75594W        W44067  32.494   7.415   3.161
75595W        W44068  43.928  43.888  14.993
75596W        W44069  41.999   8.776   1.334
75597W        W44070  27.516   1.328  12.857
75598W        W44071  33.445   6.725  12.836
75599W        W44072  13.325  18.245  13.818
75600W        W44073  28.435   4.402   2.371
75601W        W44074  30.500   1.814   1.753
75602W        W44075  41.397  11.745  14.996
75603W        W44076  10.641   7.724   0.873
75604W        W44077  11.760  36.905   2.347
75605W        W44078  21.526  30.505  10.988
75606W        W44079  12.236   1.249  13.504
75607W        W44080  39.065  21.616   1.842
75608W        W44081  42.449  38.058   4.129
75609W        W44082  37.478  39.858   3.861
75610W        W44083  35.898  33.476   0.947
75611W        W44084  20.535  28.985  13.964
75612W        W44085  40.312  27.089   0.471
75613W        W44086  42.487  41.519  13.943
75614W        W44087  25.512   0.781  12.954
75615W        W44088  29.987   0.376  11.087
75616W        W44089  19.277  35.465   4.790
75617W        W44090  18.604  40.892   1.240
75618W        W44091   4.888  40.493  11.118
75619W        W44092  24.640  27.952  13.943
75620W        W44093  44.982  24.577  13.953
75621W        W44094   3.298  44.280   4.127
75622W        W44095  43.018  19.237   3.285
75623W        W44096  10.195  21.233   0.868
75624W        W44097  21.053  26.074   1.383
75625W        W44098   3.279  42.785   0.819
75626W        W44099   0.367   7.373   4.659
75627W        W44100  34.480  43.270  10.498
75628W        W44101  12.778  33.110   1.916
75629W        W44102  33.061  33.972   3.361
75630W        W44103  37.909  31.551  12.071
75631W        W44104   9.336   2.726   1.290
75632W        W44105  42.399  32.442  14.886
75633W        W44106   5.278  11.781   0.291
75634W        W44107  38.935  27.631   3.258
75635W        W44108  25.152  17.216   1.381
75636W        W44109  40.966  40.500  11.029
75637W        W44110  35.362  37.983  13.986
75638W        W44111  22.707  40.540   0.483
75639W        W44112   0.287  25.972  11.571
75640W        W44113  33.469  42.913   2.192
75641W        W44114   6.289  27.144  12.931
75642W        W44115  18.287   9.857   1.410
75643W        W44116  40.034  17.577  11.517
75644W        W44117   2.843  13.603   2.778
75645W        W44118  42.390   3.745  10.498
75646W        W44119   5.765  27.047  12.552
75647W        W44120  32.536   5.934  14.411
75648W        W44121  24.653  14.253   2.395
75649W        W44122  36.458  11.319  10.453
75650W        W44123  31.507  26.573   4.255
75651W        W44124  28.483   3.726  11.612
75652W        W44125   5.322  38.460   1.369
75653W        W44126  17.565   4.286  11.424
75654W        W44127   6.199  13.844  13.467
75655W        W44128   7.683  42.477   0.387
75656W        W44129  17.711   9.737   2.822
75657W        W44130  44.998  17.205   4.175
75658W        W44131  35.489   0.433  10.569
75659W        W44132  12.809  25.559   3.279
75660W        W44133  28.676  14.623   4.134
75661W        W44134  24.495   9.231   3.221
75662W        W44135  36.536  41.042  13.428
75663W        W44136   5.707  22.715   4.724
75664W        W44137  38.414  21.043   0.432
75665W        W44138  24.055  19.140  10.628
75666W        W44139  29.128  42.484   2.241
75667W        W44140  41.980  41.019   4.122
75668W        W44141   6.867  13.703  14.832
75669W        W44142  16.104  20.168   0.967
75670W        W44143  17.734  20.760   1.856
75671W        W44144  30.928  31.524   3.815
75672W        W44145  14.725   5.283  13.462
75673W        W44146  42.822  15.657   1.313
75674W        W44147  36.073  11.218  11.878
75675W        W44148  27.088  13.207  13.910
75676W        W44149  40.912   6.698   3.718
75677W        W44150  26.577  34.574  14.395
75678W        W44151  30.047   9.172  13.992
75679W        W44152  37.065  18.241  13.340
75680W        W44153  36.905   2.764   3.211
75681W        W44154  44.895  42.799  11.961
75682W        W44155  25.033   2.267   0.887
75683W        W44156  39.911  35.403   3.189
75684W        W44157  28.972  16.569   3.215
75685W        W44158  11.322  30.048  11.017
75686W        W44159   1.254  36.579   2.890
75687W        W44160   9.769  23.167  14.940
75688W        W44161  20.059  44.927  14.992
75689W        W44162  19.156  25.486   1.449
75690W        W44163  24.978  35.895   3.687
75691W        W44164  19.579   6.239  10.537
75692W        W44165  25.493   0.948   3.377
75693W        W44166   2.834  28.662   2.824
75694W        W44167  37.422  36.951   3.646
75695W        W44168  29.507  24.146   3.658
75696W        W44169  24.975  20.045   0.370
75697W        W44170  12.229   1.901  14.890
75698W        W44171   1.286  20.561   2.730
75699W        W44172  39.393  40.799  13.428
75700W        W44173  39.332  36.923  13.833
75701W        W44174  37.077  16.180   1.801
75702W        W44175   3.749   5.247   2.414
75703W        W44176  42.945   4.895   3.825
75704W        W44177  23.002   0.463  11.909
75705W        W44178  36.852  27.985  12.559
75706W        W44179  10.163  37.523   1.755
75707W        W44180  31.042   5.258   1.338
75708W        W44181  12.776  21.173  12.365
75709W        W44182  29.555  11.845   1.897
75710W        W44183  36.454  23.220   2.875
75711W        W44184  24.988  42.013  13.545
75712W        W44185  20.125  28.143  14.349
75713W        W44186  15.613  37.565  11.863
75714W        W44187  29.948  31.102  14.921
75715W        W44188  18.544   0.949   0.831
75716W        W44189  21.218  20.645   2.745
75717W        W44190   3.932  26.200  11.503
75718W        W44191  32.998  19.724  12.823
75719W        W44192  43.826  34.555  12.388
75720W        W44193  21.649  43.772  11.077
75721W        W44194  39.977  31.620   2.355
75722W        W44195  35.861   1.375   4.665
75723W        W44196   3.731  16.162  13.528
75724W        W44197  19.276  20.680   3.307
75725W        W44198   3.758  31.439   3.341
75726W        W44199  36.361  13.299  11.899
75727W        W44200  25.620   0.850   3.785
75728W        W44201  21.673  41.814   1.411
75729W        W44202   9.386  43.426   0.254
75730W        W44203   7.208  19.760   4.805
75731W        W44204  43.002  22.036   0.794
75732W        W44205  24.020  15.305   2.300
75733W        W44206  17.613  31.505   0.889
75734W        W44207  26.119  43.439   4.261
75735W        W44208  37.405   3.418  12.416
75736W        W44209  38.361  19.570   2.388
75737W        W44210  26.979  37.487  14.924
75738W        W44211   7.842  12.256  11.529
75739W        W44212  27.455  35.974   4.346
75740W        W44213   5.281  41.464   4.205
75741W        W44214  11.275  20.661  14.998
75742W        W44215  39.828  26.175   3.811
75743W        W44216   4.883  25.671  12.572
75744W        W44217  39.450  26.589  10.534
75745W        W44218  22.692  14.257  10.044
75746W        W44219   8.214   4.734   0.481
75747W        W44220  32.487  26.007   2.249
75748W        W44221  11.305  44.379   1.212
75749W        W44222  39.541  16.224   0.748
75750W        W44223  25.505  44.926   1.922
75751W        W44224   8.184  30.615   0.912
75752W        W44225  35.405  20.123   0.827
75753W        W44226  40.504  28.443   2.824
75754W        W44227  11.778  31.958   2.298
75755W        W44228  19.553   6.328   4.316
75756W        W44229  30.553  41.306   2.325
75757W        W44230  37.080  32.109  10.965
75758W        W44231  17.635  12.307   4.686
75759W        W44232  15.244   0.778  13.794
75760W        W44233  24.218  27.186   3.727
75761W        W44234  24.513  21.172  14.284
75762W        W44235  13.774  38.045  14.764
75763W        W44236   6.730  18.687   1.729
75764W        W44237  23.987  14.217   0.920
75765W        W44238  39.518  39.027   4.680
75766W        W44239  13.608  33.380   2.335
75767W        W44240  43.893  43.514  11.413
75768W        W44241  38.873  29.993  14.374
75769W        W44242  33.503  23.730  11.986
75770W        W44243  40.399  16.083   2.226
75771W        W44244  22.609  39.053  14.371
75772W        W44245  12.638   0.457   2.319
75773W        W44246   5.327   4.242  12.533
75774W        W44247  15.814  20.081   4.716
75775W        W44248  26.563  21.527   2.779
75776W        W44249  29.532  29.111   3.742
75777W        W44250  37.409  39.456   2.272
75778W        W44251   0.878  11.802   2.720
75779W        W44252  43.908   8.405  10.404
75780W        W44253   8.194  43.290   0.748
75781W        W44254  29.438  18.233   2.768
75782W        W44255  15.094  12.818  10.987
75783W        W44256  24.225  38.077   1.765
75784W        W44257  17.271  29.546  10.624
75785W        W44258   0.284   2.801   4.136
75786W        W44259   8.292  28.048  11.434
75787W        W44260  33.567   4.927  14.340
75788W        W44261  36.538  15.606   4.259
75789W        W44262   5.729  17.239   1.279
75790W        W44263  39.430  35.565   3.659
75791W        W44264  27.636  40.435  13.333
75792W        W44265   1.942  18.571  12.061
75793W        W44266  37.847  26.477  10.082
75794W        W44267  28.491  39.338   4.310
75795W        W44268  16.166  21.137   3.367
75796W        W44269  15.154  35.497  14.509
75797W        W44270  23.590  30.931  11.397
75798W        W44271  42.775  25.489   0.797
75799W        W44272   8.290   5.905  12.978
75800W        W44273  37.929   0.354   1.329
75801W        W44274  14.615  24.496   0.926
75802W        W44275   4.943  11.630  12.840
75803W        W44276  30.606  17.194  13.374
75804W        W44277  40.327  25.647  12.363
75805W        W44278  31.906  23.987  12.493
75806W        W44279  37.934  25.076  11.043
75807W        W44280  16.707  18.121  14.417
75808W        W44281  18.724  13.304   4.814
75809W        W44282   3.815   8.786  10.591
75810W        W44283  34.052  25.111   0.437
75811W        W44284  31.537  27.495  13.896
75812W        W44285  44.336  28.452   1.853
75813W        W44286  34.555   2.421   1.272
75814W        W44287   2.452   8.321  10.901
75815W        W44288  23.535  21.733   3.785
75816W        W44289  27.195  32.422  11.564
75817W        W44290   7.323  14.687   3.703
75818W        W44291  15.242  25.630  13.806
75819W        W44292   5.221  11.769   1.274
75820W        W44293  26.169  16.167   3.659
75821W        W44294  36.046  42.996   2.231
75822W        W44295   0.347  35.060  14.850
75823W        W44296  41.814  26.985   4.652
75824W        W44297  27.112  25.535   0.255
75825W        W44298   1.387  17.623  13.441
75826W        W44299  41.468  44.812  14.817
75827W        W44300   9.149   2.414  14.828
75828W        W44301  25.030   6.253  12.066
75829W        W44302   1.377  16.759  11.918
75830W        W44303   4.320   2.265  13.327
75831W        W44304  12.259  26.699   3.348
75832W        W44305  22.676   4.915  10.970
75833W        W44306  20.563  23.493   4.177
75834W        W44307  44.994   1.939   3.204
75835W        W44308   9.722  27.520   0.756
75836W        W44309  22.645  39.864   1.445
75837W        W44310  43.772  36.842  12.352
75838W        W44311  28.077  15.318   1.336
75839W        W44312  19.762  24.689  12.965
75840W        W44313   0.295   5.882   4.334
75841W        W44314  24.223   1.919  12.410
75842W        W44315  32.103  38.932   3.687
75843W        W44316  44.453  36.555  11.494
75844W        W44317  25.005  41.362   3.811
75845W        W44318  41.855  19.099   4.163
75846W        W44319  26.525  12.129   3.638
75847W        W44320  11.849  38.367  13.048
75848W        W44321  37.005  22.742   0.791
75849W        W44322   8.784  13.115   3.173
75850W        W44323  32.959  30.613  10.485
75851W        W44324  27.993  14.320   3.686
75852W        W44325  17.129  18.607   2.747
75853W        W44326  26.176  30.937  13.413
75854W        W44327  20.044  43.450   1.796
75855W        W44328  25.985  44.926   3.844
75856W        W44329  42.866   9.332  14.796
75857W        W44330  28.036  11.673   2.835
75858W        W44331  39.888  35.427  12.409
75859W        W44332  36.447  17.130   0.909
75860W        W44333  30.560  37.879   3.645
75861W        W44334  26.139  26.972  11.934
75862W        W44335  12.219  39.402  14.464
75863W        W44336  30.031   3.230  11.518
75864W        W44337  20.652   8.219  11.598
75865W        W44338  40.948  33.483  11.541
75866W        W44339  25.966  27.547  12.943
75867W        W44340  40.505   1.937  11.384
75868W        W44341  31.612  11.678   2.324
75869W        W44342  41.977  32.126   0.247
75870W        W44343   9.273  24.524   3.202
75871W        W44344  22.579  40.957  13.495
75872W        W44345  28.169  29.051   0.731
75873W        W44346  29.589  42.452   4.191
75874W        W44347  37.935   4.431  12.885
75875W        W44348  31.569  31.536  11.051
75876W        W44349  22.251   3.847  14.418
75877W        W44350  24.205  26.097   0.842
75878W        W44351   2.944  18.790  13.427
75879W        W44352  37.363  32.551   1.245
75880W        W44353  34.083  41.960   1.773
75881W        W44354   6.839  43.769  13.360
75882W        W44355  18.244  34.007   0.301
75883W        W44356  35.088  25.109   4.208
75884W        W44357  21.691   3.793  14.957
75885W        W44358  44.886  42.869   2.722
75886W        W44359  41.324   1.242   2.403
75887W        W44360  11.356  40.808  12.457
75888W        W44361  36.499  12.748   0.962
75889W        W44362   7.875  19.107  12.467
75890W        W44363  39.939   3.450  10.454
75891W        W44364  31.913  33.987   3.191
75892W        W44365  13.815   1.245   4.117
75893W        W44366  27.000  35.938   1.700
75894W        W44367  28.069  21.036   3.640
75895W        W44368  43.414  26.180  14.843
75896W        W44369  19.614  11.693   3.733
75897W        W44370  10.179  16.270   0.366
75898W        W44371  30.485  35.545  11.429
75899W        W44372  35.506  41.410   2.370
75900W        W44373  27.578  27.992   4.211
75901W        W44374  19.285   1.300  13.979
75902W        W44375  32.917  13.725  12.370
75903W        W44376  37.939   9.166   1.817
75904W        W44377  29.932  16.689  12.349
75905W        W44378  34.521  17.720  13.476
75906W        W44379   6.347   4.205  10.892
75907W        W44380   0.744  19.603  12.500
75908W        W44381  41.947  25.632  12.347
75909W        W44382  23.640  19.041   2.681
75910NA+    NA+44383  38.464  21.216  10.973
75911NA+    NA+44384   5.907  37.476  11.041
75912NA+    NA+44385  12.316   6.347  12.062
75913NA+    NA+44386  36.570   0.473  11.503
75914NA+    NA+44387  18.654   1.440   2.715
75915NA+    NA+44388  29.942  13.686  14.017
75916NA+    NA+44389  11.189  14.832   1.767
75917NA+    NA+44390  18.212  17.718   1.349
75918NA+    NA+44391  26.026  30.143   4.654
75919NA+    NA+44392  34.938  44.440  12.442
75920NA+    NA+44393  26.639  42.312  13.922
75921NA+    NA+44394  23.224  25.489   1.212
75922NA+    NA+44395   5.901  29.577   4.242
75923NA+    NA+44396  44.788   2.862   2.378
75924NA+    NA+44397  27.509  17.693   2.227
75925NA+    NA+44398  16.096  39.459  14.933
75926NA+    NA+44399  11.701  29.435   3.857
75927NA+    NA+44400  28.529  29.452  12.477
75928NA+    NA+44401   1.375   2.757  12.853
75929NA+    NA+44402  39.423  42.285   3.239
75930NA+    NA+44403  18.140  26.693  14.893
75931NA+    NA+44404  12.286  26.010   4.300
75932NA+    NA+44405   7.202  16.567   3.368
75933NA+    NA+44406  23.625  39.912   0.321
75934NA+    NA+44407  42.401  21.144  12.380
75935NA+    NA+44408   7.281  30.955  14.984
75936NA+    NA+44409  28.027  33.547  14.826
75937NA+    NA+44410   4.369   2.953  11.948
75938NA+    NA+44411   6.273  44.426  12.577
75939NA+    NA+44412  41.426  26.020   0.244
75940NA+    NA+44413  38.433   6.890   1.711
75941NA+    NA+44414  11.234  12.355  14.827
75942NA+    NA+44415  42.331   6.748  14.019
75943NA+    NA+44416  15.752  35.976   0.436
75944NA+    NA+44417   2.454  11.628  13.894
75945NA+    NA+44418   5.307  38.973  10.008
75946NA+    NA+44419   4.719  14.244  13.994
75947NA+    NA+44420  33.423   6.680  10.987
75948NA+    NA+44421  21.140  16.181  12.833
75949NA+    NA+44422  42.324  25.687   2.865
75950NA+    NA+44423  41.307  43.764   1.362
75951NA+    NA+44424  36.948  21.071  11.392
75952NA+    NA+44425  13.234   9.380  14.446
75953NA+    NA+44426  39.484   7.239   0.818
75954NA+    NA+44427  33.107  13.690   4.199
75955NA+    NA+44428   3.255  24.508   0.453
75956NA+    NA+44429  27.006  10.222   0.259
75957NA+    NA+44430  27.624  23.045  13.316
75958NA+    NA+44431  13.746  10.646  10.459
75959NA+    NA+44432  15.265   1.482  13.315
75960NA+    NA+44433   0.319  23.510  11.043
75961NA+    NA+44434  15.659  28.544   4.274
75962NA+    NA+44435  13.312  11.817   1.844
75963NA+    NA+44436  35.422  18.053  13.913
75964NA+    NA+44437  16.200   1.794  13.012
75965NA+    NA+44438   4.908  37.369   2.844
75966NA+    NA+44439  15.269   3.839   3.248
75967NA+    NA+44440  15.108  23.217  14.884
75968NA+    NA+44441  38.447  28.471   3.368
75969NA+    NA+44442  14.732  22.595   0.929
75970NA+    NA+44443   1.482  10.804  12.027
75971NA+    NA+44444  41.790  42.966  12.514
75972NA+    NA+44445  34.891  27.940  12.444
75973NA+    NA+44446  39.962  40.517   3.696
75974NA+    NA+44447   3.827  34.548  14.295
75975NA+    NA+44448  31.952  33.426  12.565
75976NA+    NA+44449  22.676  18.239  10.470
75977NA+    NA+44450   8.719   7.318   0.299
75978NA+    NA+44451  40.380   1.464   4.339
75979NA+    NA+44452  36.991   2.814  14.389
75980NA+    NA+44453  23.659  17.574  10.899
75981NA+    NA+44454   9.885   1.292   4.145
75982NA+    NA+44455   0.982  36.569   1.288
75983NA+    NA+44456   4.757   5.207  14.800
75984NA+    NA+44457  44.404   8.832   3.276
75985NA+    NA+44458  44.282   6.814   0.260
75986NA+    NA+44459  25.603  42.866   2.357
75987NA+    NA+44460  40.906  19.161  14.336
75988NA+    NA+44461   1.793   2.328  12.516
75989NA+    NA+44462   0.777  34.409   1.210
75990NA+    NA+44463   0.831  33.604   4.157
75991NA+    NA+44464  32.090  24.099   9.975
75992NA+    NA+44465  36.524   2.399  14.977
75993NA+    NA+44466   8.897  40.997  14.484
75994NA+    NA+44467  32.609   6.844   4.729
75995NA+    NA+44468  12.712   9.213   4.153
75996NA+    NA+44469  35.053  16.168  12.992
75997NA+    NA+44470  39.827  10.148   3.787
75998NA+    NA+44471   9.339  41.342  11.906
75999NA+    NA+44472   6.400  34.977  11.505
76000NA+    NA+44473  11.204   8.765   2.898
76001NA+    NA+44474  33.604  18.611  13.034
76002NA+    NA+44475  15.756   6.379  11.450
76003NA+    NA+44476  31.966  23.661  10.153
76004NA+    NA+44477   9.387   3.736   3.367
76005NA+    NA+44478  24.575   8.183   0.265
76006NA+    NA+44479  20.656  32.932  13.543
76007NA+    NA+44480  43.010   4.924   4.200
76008NA+    NA+44481  17.608  33.913  11.563
76009NA+    NA+44482  26.108  22.100  10.426
76010NA+    NA+44483  10.748  38.565  13.951
76011NA+    NA+44484  22.066   9.699   1.287
76012NA+    NA+44485  10.806   0.963   0.736
76013NA+    NA+44486  30.493   2.762  12.528
76014NA+    NA+44487  30.646  25.628  13.013
76015NA+    NA+44488  24.980  44.011  13.402
76016NA+    NA+44489  37.870  10.229   4.824
76017NA+    NA+44490  43.360   4.404  13.918
76018NA+    NA+44491  29.158   2.275  11.041
76019NA+    NA+44492  39.367  41.966   2.712
76020NA+    NA+44493  18.094   0.394  11.935
76021NA+    NA+44494  37.899  25.029   3.645
76022NA+    NA+44495   9.770   3.443   2.881
76023NA+    NA+44496  32.595  43.013  10.150
76024NA+    NA+44497  38.934  16.298  11.594
76025NA+    NA+44498   9.193  37.520  11.583
76026NA+    NA+44499  31.563  10.844   3.179
76027NA+    NA+44500  11.810   0.934   2.272
76028NA+    NA+44501  40.021   3.897  11.548
76029NA+    NA+44502  33.026  38.456   3.328
76030NA+    NA+44503  23.068  34.038   4.765
76031NA+    NA+44504  24.032  29.166   4.149
76032NA+    NA+44505   6.279   4.239  11.504
76033NA+    NA+44506  28.600   1.964   2.299
76034NA+    NA+44507   7.707   5.900   5.166
76035NA+    NA+44508  10.742  26.487  14.897
76036NA+    NA+44509  22.166  15.310  13.034
76037NA+    NA+44510  30.529  40.432   4.678
76038NA+    NA+44511   0.828   6.827   3.302
76039NA+    NA+44512  22.532  10.200   1.354
76040NA+    NA+44513  23.215  34.891   3.786
76041NA+    NA+44514   1.316  26.641  13.908
76042NA+    NA+44515  32.520   2.745   1.824
76043NA+    NA+44516  10.159  37.481   3.674
76044NA+    NA+44517  18.127  37.884   1.414
76045NA+    NA+44518  27.011  11.861   4.136
76046NA+    NA+44519  29.999  29.481   2.746
76047NA+    NA+44520  27.138  32.083  14.381
76048NA+    NA+44521  23.096  22.252  12.839
76049NA+    NA+44522  38.520   0.933   0.392
76050NA+    NA+44523  22.163  15.099  10.434
76051NA+    NA+44524   7.388  23.712  10.468
76052NA+    NA+44525  37.054  42.421  11.553
76053NA+    NA+44526  22.194  19.595   2.285
76054NA+    NA+44527  36.584  40.429   1.935
76055NA+    NA+44528   8.355  26.483  11.556
76056NA+    NA+44529  32.612  16.743   2.234
76057NA+    NA+44530  32.894  41.431  10.435
76058NA+    NA+44531  40.507  19.694  10.063
76059NA+    NA+44532  34.557  20.627   3.186
76060NA+    NA+44533   5.806  43.394  13.460
76061NA+    NA+44534  27.980  31.450   2.384
76062NA+    NA+44535  28.438  40.860  14.871
76063NA+    NA+44536  11.667  42.919   0.921
76064NA+    NA+44537  27.122   2.842   2.830
76065NA+    NA+44538  33.014  20.260   2.855
76066NA+    NA+44539   2.267  19.635   2.892
76067NA+    NA+44540  28.544  21.257   0.800
76068NA+    NA+44541  21.161  32.890   1.770
76069NA+    NA+44542   1.967  15.637  13.061
76070NA+    NA+44543  24.703  37.468   3.318
76071NA+    NA+44544  29.446  12.319  14.987
76072NA+    NA+44545  27.593  20.110  11.986
76073NA+    NA+44546  34.457  31.906  12.542
76074NA+    NA+44547  36.978   8.702  14.309
76075NA+    NA+44548  40.456   5.873   0.782
76076NA+    NA+44549  35.939  21.694  13.337
76077NA+    NA+44550  14.707   7.878   3.734
76078NA+    NA+44551  40.821   2.280   3.362
76079NA+    NA+44552  26.151  10.290  10.517
76080NA+    NA+44553  20.105   8.690   3.168
76081NA+    NA+44554  21.252  38.373  12.518
76082NA+    NA+44555  12.155  31.908   3.808
76083NA+    NA+44556  17.082  12.208  11.600
76084NA+    NA+44557  34.595  28.658   4.265
76085NA+    NA+44558  31.504   9.341   2.773
76086NA+    NA+44559  22.550  27.957  10.122
76087NA+    NA+44560  27.134  42.387  14.823
76088NA+    NA+44561  41.532  16.773   2.334
76089NA+    NA+44562  38.001  39.540   2.408
76090NA+    NA+44563  38.419  14.256  12.546
76091NA+    NA+44564   9.811  43.849  13.961
76092NA+    NA+44565   0.267  15.239  13.931
76093NA+    NA+44566  33.405  17.562   0.751
76094NA+    NA+44567  18.286  23.224   1.771
76095NA+    NA+44568  23.586  34.380   3.675
76096NA+    NA+44569   1.886  14.270   3.786
76097NA+    NA+44570  36.048  28.447   0.892
76098NA+    NA+44571  27.496  44.394   5.140
76099NA+    NA+44572  40.438   6.813  10.615
76100NA+    NA+44573   5.904  20.722   4.244
76101NA+    NA+44574  40.036  30.917  13.534
76102NA+    NA+44575  13.739  29.467  14.293
76103NA+    NA+44576  20.733  40.521   4.749
76104NA+    NA+44577  33.616  27.585   1.758
76105NA+    NA+44578  38.519  42.847  14.832
76106NA+    NA+44579  31.590  14.125  12.577
76107NA+    NA+44580  13.795  34.059   0.855
76108NA+    NA+44581  25.561  26.014   3.645
76109NA+    NA+44582  17.073   5.746  14.510
76110NA+    NA+44583  37.992  24.539  12.343
76111NA+    NA+44584  14.272  20.584  14.763
76112NA+    NA+44585   4.292  28.165   0.436
76113NA+    NA+44586  25.154  39.527   2.901
76114NA+    NA+44587  21.063  44.295  13.947
76115NA+    NA+44588  19.550  21.754  14.902
76116NA+    NA+44589   1.898  13.127  11.593
76117NA+    NA+44590  34.921  20.078   4.735
76118NA+    NA+44591  23.596  27.681   4.817
76119NA+    NA+44592  27.187  18.695  11.510
76120NA+    NA+44593  26.972  44.427  13.476
76121NA+    NA+44594  44.362  32.568  12.986
76122NA+    NA+44595  32.924  19.661   0.964
76123NA+    NA+44596  40.939  25.475  14.943
76124NA+    NA+44597  21.064   3.434   0.952
76125NA+    NA+44598  13.696  29.554  10.961
76126NA+    NA+44599  44.804  16.152  11.922
76127NA+    NA+44600  35.604   8.752  12.418
76128NA+    NA+44601  12.259  35.071  12.420
76129NA+    NA+44602  23.110  31.980  14.883
76130NA+    NA+44603  24.537   8.669   4.245
76131NA+    NA+44604   8.238  42.396  10.545
76132NA+    NA+44605  36.098  15.323   4.826
76133NA+    NA+44606  36.943  33.055  12.833
76134NA+    NA+44607  16.279  34.040  12.568
76135NA+    NA+44608  37.956   3.739   2.325
76136NA+    NA+44609  41.896  31.105   2.817
76137NA+    NA+44610  20.174  21.625   0.279
76138NA+    NA+44611  15.139  32.615   2.366
76139NA+    NA+44612  17.556  27.659  10.466
76140NA+    NA+44613  11.332   5.761  13.845
76141NA+    NA+44614   1.419  37.504  13.902
76142NA+    NA+44615  40.443  43.298   4.345
76143NA+    NA+44616  18.760   0.420  12.835
76144NA+    NA+44617   1.437  44.297  14.939
76145NA+    NA+44618  26.458  23.609  13.473
76146NA+    NA+44619   4.713   9.349  12.499
76147NA+    NA+44620  17.113  17.709   1.354
76148NA+    NA+44621   3.945  22.627  11.111
76149NA+    NA+44622  34.398  20.212  12.546
76150NA+    NA+44623  38.500  32.118   4.681
76151NA+    NA+44624  11.736  44.870  14.443
76152NA+    NA+44625  43.386   0.811   3.830
76153NA+    NA+44626  15.796  16.177  10.924
76154NA+    NA+44627  27.017  36.019  13.359
76155NA+    NA+44628  21.200  19.182   0.457
76156NA+    NA+44629  14.765  13.133  11.101
76157NA+    NA+44630  14.235   9.847   4.173
76158NA+    NA+44631   2.447  44.893   1.372
76159NA+    NA+44632  11.219   6.336   2.737
76160NA+    NA+44633  17.759  30.050  14.316
76161NA+    NA+44634  19.041  35.362  14.944
76162NA+    NA+44635  27.554  37.905   0.362
76163NA+    NA+44636  35.026  10.352   9.984
76164NA+    NA+44637  38.389  30.117   1.231
76165NA+    NA+44638  28.679  29.932   2.238
76166NA+    NA+44639  20.535  31.542  13.352
76167NA+    NA+44640  17.796  14.323   4.242
76168NA+    NA+44641   4.243  26.479   3.167
76169NA+    NA+44642  27.540  38.432   0.397
76170NA+    NA+44643   5.881  36.915  11.392
76171NA+    NA+44644   3.351   0.494  13.973
76172NA+    NA+44645  24.215  39.340  12.448
76173NA+    NA+44646  10.875  41.993  13.539
76174NA+    NA+44647  37.936  39.027  10.054
76175NA+    NA+44648  19.170   2.355   2.681
76176NA+    NA+44649  35.010  12.261  11.014
76177NA+    NA+44650  43.852   1.790  12.465
76178NA+    NA+44651  20.706  30.107   1.415
76179NA+    NA+44652  34.865  13.719  13.052
76180NA+    NA+44653  20.268  41.926   3.229
76181NA+    NA+44654  26.152   6.302   4.300
76182NA+    NA+44655   8.310  41.033  13.451
76183NA+    NA+44656   6.337  11.286   3.364
76184NA+    NA+44657  32.548  16.119   4.810
76185NA+    NA+44658  35.007   3.857  11.580
76186NA+    NA+44659  35.872  14.763   1.754
76187NA+    NA+44660  28.957  24.549  14.966
76188NA+    NA+44661   3.425  32.114  12.957
76189NA+    NA+44662  38.040  23.132  14.357
76190NA+    NA+44663  17.560   0.842   3.718
76191NA+    NA+44664  21.610  43.946   2.835
76192NA+    NA+44665  29.546  35.004   2.353
76193NA+    NA+44666  26.559  42.802   2.286
76194NA+    NA+44667  10.347  27.660  14.004
76195NA+    NA+44668  23.196  42.948  10.931
76196NA+    NA+44669  42.878  42.835  14.865
76197NA+    NA+44670  25.994  32.039   3.715
76198NA+    NA+44671  17.249  16.141  13.483
76199NA+    NA+44672  35.971  37.867   0.799
76200NA+    NA+44673  16.172   5.414   0.479
76201NA+    NA+44674   0.480   3.339   4.672
76202NA+    NA+44675  22.674  19.151   3.641
76203NA+    NA+44676  44.938  32.092   1.364
76204NA+    NA+44677  14.752  43.505   1.828
76205NA+    NA+44678  33.497  29.154  11.096
76206NA+    NA+44679  23.084   2.408   2.769
76207NA+    NA+44680  32.596  10.817  13.806
76208NA+    NA+44681  28.449  27.516  11.900
76209NA+    NA+44682  37.563  26.595  14.411
76210NA+    NA+44683   6.898   2.364  14.432
76211NA+    NA+44684   7.184  33.126  13.330
76212NA+    NA+44685  35.398  35.986  10.408
76213NA+    NA+44686  38.525   3.953  13.344
76214NA+    NA+44687  28.034  22.210   0.336
76215NA+    NA+44688  13.144  37.581  14.908
76216NA+    NA+44689   1.752  17.249   1.381
76217NA+    NA+44690  33.503  34.523  11.525
76218NA+    NA+44691  27.153   6.241   4.770
76219NA+    NA+44692  18.206   5.408   3.336
76220NA+    NA+44693  15.092  38.857  11.077
76221NA+    NA+44694  10.799  34.988  11.107
76222NA+    NA+44695  43.770  13.341  12.990
76223NA+    NA+44696  14.143   7.885  13.352
76224NA+    NA+44697  24.049  41.468  13.361
76225NA+    NA+44698  20.647   3.341   0.739
76226NA+    NA+44699  16.073  34.418  13.383
76227NA+    NA+44700   5.304  26.975   0.895
76228NA+    NA+44701   9.277  11.135   2.334
76229NA+    NA+44702  19.594   0.825   4.682
76230NA+    NA+44703  44.495  19.181   4.310
76231NA+    NA+44704  44.466  44.496  10.525
76232NA+    NA+44705  11.213  42.526   3.285
76233NA+    NA+44706  17.578  43.961  10.420
76234NA+    NA+44707  12.799  20.757  14.842
76235NA+    NA+44708  29.488   1.883  11.452
76236NA+    NA+44709  32.410  25.157   2.234
76237NA+    NA+44710  24.584  15.636   0.778
76238NA+    NA+44711  38.445   2.303  14.275
76239NA+    NA+44712  24.547  35.067   0.421
76240NA+    NA+44713  20.034  23.723  11.058
76241NA+    NA+44714  28.624  17.194   1.422
76242NA+    NA+44715  12.708  34.876   4.349
76243NA+    NA+44716  39.003  37.896   1.383
76244NA+    NA+44717  22.172  23.135  10.905
76245NA+    NA+44718   8.378  33.915   2.377
76246NA+    NA+44719  25.976  17.120  12.952
76247NA+    NA+44720  23.693  40.934  13.800
76248NA+    NA+44721  31.542  11.196  12.824
76249NA+    NA+44722  24.037   4.225  12.005
76250NA+    NA+44723  19.551  38.406  14.026
76251NA+    NA+44724  14.190  35.067  11.957
76252NA+    NA+44725   9.260  21.193   1.382
76253NA+    NA+44726  16.758   3.917   4.164
76254NA+    NA+44727  40.377   8.715   4.601
76255NA+    NA+44728  14.325   0.811  10.605
76256NA+    NA+44729   4.798  38.517   1.411
76257NA+    NA+44730  43.903   2.336  11.543
76258NA+    NA+44731  44.939  28.178  13.494
76259NA+    NA+44732   8.179  41.437  10.994
76260NA+    NA+44733  35.948   4.740  13.496
76261NA+    NA+44734   8.398   8.233   2.221
76262NA+    NA+44735   9.724  40.016  10.465
76263NA+    NA+44736   0.948  31.994  10.465
76264NA+    NA+44737  44.835  33.033   0.784
76265NA+    NA+44738   4.215  29.519  12.929
76266NA+    NA+44739   2.858  41.328  13.022
76267NA+    NA+44740  41.533  17.070  12.045
76268NA+    NA+44741  39.843   8.366   0.769
76269NA+    NA+44742  44.865  22.028   0.838
76270NA+    NA+44743   3.432  37.390   3.852
76271NA+    NA+44744  25.156  40.980  13.895
76272NA+    NA+44745  37.563  34.436  12.415
76273NA+    NA+44746   6.889  21.710  13.904
76274NA+    NA+44747  15.204  40.003  13.996
76275NA+    NA+44748  40.425  42.486  14.459
76276NA+    NA+44749   2.887  17.594   4.144
76277NA+    NA+44750   2.299   9.708   3.650
76278NA+    NA+44751   3.743  10.307  13.363
76279NA+    NA+44752  34.999  33.042   0.822
76280NA+    NA+44753  41.953  15.800   5.200
76281NA+    NA+44754  43.882   5.755  12.999
76282NA+    NA+44755  22.615  37.414   1.714
76283NA+    NA+44756  34.055   2.790   1.795
76284NA+    NA+44757   2.865   9.289  10.411
76285NA+    NA+44758  10.866  27.991   4.330
76286NA+    NA+44759  11.134  42.810  14.385
76287NA+    NA+44760  36.497  39.896  13.540
76288NA+    NA+44761  36.955   2.363  13.995
76289NA+    NA+44762  27.111  36.490   3.720
76290NA+    NA+44763  24.976   7.695  13.401
76291NA+    NA+44764  41.454  16.778   1.920
76292NA+    NA+44765  38.550  37.502  11.591
76293NA+    NA+44766  36.062  32.412  14.378
76294NA+    NA+44767  39.943  41.497  11.954
76295NA+    NA+44768  31.497  23.702   5.199
76296NA+    NA+44769  30.477  34.989  14.410
76297NA+    NA+44770   7.904   4.810  12.930
76298NA+    NA+44771   5.329  25.992  11.125
76299NA+    NA+44772  24.149   3.326   0.744
76300NA+    NA+44773  44.357   6.781  13.972
76301NA+    NA+44774  42.517  15.796  12.348
76302NA+    NA+44775   4.236  36.412  11.470
76303NA+    NA+44776  15.204  21.136   3.813
76304NA+    NA+44777  42.885  35.072  11.543
76305NA+    NA+44778   4.211  27.969   2.241
76306NA+    NA+44779  19.259  27.610   2.320
76307NA+    NA+44780  30.589  12.293   0.956
76308NA+    NA+44781  34.007  18.128  14.439
76309NA+    NA+44782  32.532  37.944   2.359
76310NA+    NA+44783  30.075  42.987  11.117
76311NA+    NA+44784  33.062  22.515   2.319
76312NA+    NA+44785  14.619  42.293   0.805
76313NA+    NA+44786  11.700  42.331   3.722
76314NA+    NA+44787  17.244  20.736  11.403
76315NA+    NA+44788  30.417  36.063  12.549
76316NA+    NA+44789   8.185  29.641   3.348
76317NA+    NA+44790  29.089  35.383  12.837
76318NA+    NA+44791  33.487  14.135  12.567
76319NA+    NA+44792  24.992  30.151   2.227
76320NA+    NA+44793  25.213  29.149   2.841
76321NA+    NA+44794  32.898  23.618   4.804
76322NA+    NA+44795   1.773   1.968  14.989
76323NA+    NA+44796   8.347   5.295   5.743
76324NA+    NA+44797  21.586  29.090   3.745
76325NA+    NA+44798   1.289  23.526  12.995
76326NA+    NA+44799  37.452  33.560   2.347
76327NA+    NA+44800  40.817  40.335  13.403
76328NA+    NA+44801  10.143  15.325  12.482
76329NA+    NA+44802  30.651  27.050   4.650
76330NA+    NA+44803   3.377  12.770   3.745
76331NA+    NA+44804  18.251  19.216  10.947
76332NA+    NA+44805   2.917  23.220   3.760
76333NA+    NA+44806  28.645  44.895  14.941
76334NA+    NA+44807   4.913  44.484   2.702
76335NA+    NA+44808  28.625  31.964   1.920
76336NA+    NA+44809  10.364  42.340  11.089
76337NA+    NA+44810  26.131  35.914   4.258
76338NA+    NA+44811  26.030  26.986   2.896
76339NA+    NA+44812  16.668  33.541   3.234
76340NA+    NA+44813  21.042  39.359  14.348
76341NA+    NA+44814  35.996  22.594  10.620
76342NA+    NA+44815   4.301  43.833   3.326
76343NA+    NA+44816  42.873  13.277   4.721
76344NA+    NA+44817  24.598  14.335  14.029
76345NA+    NA+44818  40.335  21.243  11.417
76346NA+    NA+44819  16.749  36.411   3.649
76347NA+    NA+44820  22.178  16.585  12.380
76348NA+    NA+44821  17.165  25.529   1.806
76349NA+    NA+44822   6.189  31.565   0.288
76350NA+    NA+44823  32.078  32.946   4.653
76351NA+    NA+44824  38.869  32.607  12.401
76352NA+    NA+44825  11.213  19.614   3.673
76353NA+    NA+44826   5.843  33.585  13.019
76354NA+    NA+44827   0.442  39.533  13.876
76355NA+    NA+44828   0.373  22.542   0.267
76356NA+    NA+44829  44.478  10.767   2.868
76357NA+    NA+44830  36.997  29.452   2.309
76358NA+    NA+44831  25.121  14.809   4.814
76359NA+    NA+44832  15.809  15.236  12.364
76360NA+    NA+44833  12.831  33.614   3.169
76361NA+    NA+44834  29.150  33.602   4.632
76362NA+    NA+44835  30.048  41.470   2.398
76363NA+    NA+44836   5.932  39.478  10.614
76364NA+    NA+44837   6.755  27.674  13.810
76365NA+    NA+44838  17.147   5.736   0.382
76366NA+    NA+44839  44.806  16.148  14.369
76367NA+    NA+44840  44.983  20.605  10.579
76368NA+    NA+44841   9.278  36.051   0.406
76369NA+    NA+44842  38.470  35.929   1.908
76370NA+    NA+44843  44.432  35.476   1.225
76371NA+    NA+44844  15.722  15.234  10.918
76372NA+    NA+44845  28.007  38.927   3.792
76373NA+    NA+44846  43.796  31.403   1.443
76374NA+    NA+44847   6.275  18.148   0.332
76375NA+    NA+44848  37.960  40.521   0.735
76376NA+    NA+44849  42.787  10.668  11.078
76377NA+    NA+44850  34.034  25.592   4.299
76378NA+    NA+44851  30.524  35.968   3.326
76379NA+    NA+44852  27.124  42.436   1.316
76380NA+    NA+44853  30.528  27.965  11.073
76381NA+    NA+44854  11.741  17.213   2.783
76382NA+    NA+44855  26.044  43.949   3.337
76383NA+    NA+44856  22.542  39.412  10.406
76384NA+    NA+44857  10.253  22.632  13.858
76385NA+    NA+44858   1.782  13.202   4.176
76386NA+    NA+44859  14.137  28.065  12.052
76387NA+    NA+44860  19.196  43.009  13.851
76388NA+    NA+44861  10.794  10.664   4.657
76389NA+    NA+44862  15.209  12.137  12.853
76390NA+    NA+44863  36.560  32.963   0.354
76391NA+    NA+44864  31.045  22.509   1.287
76392NA+    NA+44865  14.763  27.556  13.952
76393NA+    NA+44866  35.567  34.554   1.851
76394NA+    NA+44867   8.811  44.867   2.199
76395NA+    NA+44868  22.141  24.699   2.323
76396NA+    NA+44869  32.110  23.539  12.877
76397NA+    NA+44870   1.402  41.516   1.392
76398NA+    NA+44871  38.416   3.307  11.052
76399NA+    NA+44872   0.399   9.826   1.709
76400NA+    NA+44873  30.091  42.835   3.287
76401NA+    NA+44874  18.079  40.532  10.577
76402NA+    NA+44875  20.686   9.854   1.906
76403NA+    NA+44876   3.949  22.067   1.346
76404NA+    NA+44877  43.306   0.763  13.007
76405NA+    NA+44878  35.369  35.935  13.944
76406NA+    NA+44879  19.603   1.812  13.819
76407NA+    NA+44880  41.004  16.263   2.255
76408NA+    NA+44881  36.873  35.065  12.079
76409NA+    NA+44882  38.336  17.641   0.807
76410NA+    NA+44883  30.933  27.504  12.002
76411NA+    NA+44884  36.908  22.170  12.975
76412NA+    NA+44885  21.236  27.544  14.766
76413NA+    NA+44886  14.727  25.113  11.521
76414NA+    NA+44887  39.506  18.632   1.446
76415NA+    NA+44888  23.672   3.721   0.727
76416NA+    NA+44889   2.266  14.601   2.232
76417NA+    NA+44890  19.650  20.230   3.869
76418NA+    NA+44891  10.283  40.797   5.267
76419NA+    NA+44892  23.129  20.210   3.219
76420NA+    NA+44893  43.466  26.490   5.301
76421NA+    NA+44894  12.171  27.055   1.356
76422NA+    NA+44895  32.921  40.534  10.417
76423NA+    NA+44896   9.798  32.499  13.908
76424NA+    NA+44897  32.936  43.949  10.436
76425NA+    NA+44898  20.188  33.895  14.802
76426NA+    NA+44899  20.130  33.589  10.029
76427NA+    NA+44900   6.263  32.406  12.379
76428NA+    NA+44901  10.370  25.026   1.808
76429NA+    NA+44902   0.250  32.412   0.252
76430NA+    NA+44903  43.282  38.525   1.449
76431NA+    NA+44904  38.327  44.817  12.013
76432NA+    NA+44905   3.777  18.585   3.304
76433NA+    NA+44906  12.258   7.404  13.458
76434NA+    NA+44907  40.398   6.767  11.435
76435NA+    NA+44908   3.779  33.402   4.161
76436NA+    NA+44909  18.274  19.256  12.826
76437NA+    NA+44910  24.984   7.273   1.857
76438NA+    NA+44911  40.335  23.716  11.930
76439NA+    NA+44912  31.104   0.760   4.636
76440NA+    NA+44913  31.994  25.497   1.337
76441NA+    NA+44914  13.667  32.469  13.803
76442NA+    NA+44915  16.226  41.017   4.788
76443NA+    NA+44916  32.546  42.408  12.996
76444NA+    NA+44917  15.740  11.846   0.257
76445NA+    NA+44918  10.636  39.894  13.948
76446NA+    NA+44919  23.984  26.097  15.000
76447NA+    NA+44920  10.664  31.954   4.750
76448NA+    NA+44921  30.596   1.428   3.164
76449NA+    NA+44922  36.411  35.454   4.326
76450NA+    NA+44923   5.802  22.629  10.552
76451NA+    NA+44924  33.490  28.618   3.217
76452NA+    NA+44925  39.399  28.443  14.995
76453NA+    NA+44926  42.489   8.167   0.874
76454NA+    NA+44927  19.255  36.893  13.408
76455NA+    NA+44928  23.147   1.368  13.514
76456NA+    NA+44929  14.127   9.858  14.391
76457NA+    NA+44930  42.377  38.987  14.487
76458NA+    NA+44931  32.520  33.568  14.959
76459NA+    NA+44932  43.870  36.442  12.393
76460NA+    NA+44933  27.975   0.318  11.496
76461NA+    NA+44934  17.564   2.277   0.760
76462NA+    NA+44935  34.996   0.300  10.621
76463NA+    NA+44936  23.615   7.673   1.895
76464NA+    NA+44937  19.714  26.535   3.698
76465NA+    NA+44938  37.394  41.009   4.748
76466NA+    NA+44939  21.650  20.173   0.888
76467NA+    NA+44940  28.458  43.941   4.659
76468NA+    NA+44941  24.584  12.611  10.962
76469NA+    NA+44942  38.411   1.883   2.317
76470NA+    NA+44943  40.336   3.842   3.296
76471NA+    NA+44944  39.397  15.747  11.951
76472NA+    NA+44945  15.813   0.808   4.239
76473NA+    NA+44946  38.036   2.810   2.347
76474NA+    NA+44947   1.811   0.831  14.842
76475NA+    NA+44948  38.043  11.357  11.376
76476NA+    NA+44949  15.238  12.235  11.580
76477NA+    NA+44950  18.575   6.886   0.276
76478NA+    NA+44951  26.088   6.876  10.917
76479NA+    NA+44952   1.907   1.874   0.477
76480NA+    NA+44953  11.863  35.032   4.185
76481NA+    NA+44954  41.449  16.257   2.823
76482NA+    NA+44955  27.183  27.062   2.689
76483NA+    NA+44956  23.587  24.186   0.931
76484NA+    NA+44957   3.887  34.461   4.265
76485NA+    NA+44958  30.920  21.529   2.672
76486NA+    NA+44959  19.040  28.624  14.768
76487NA+    NA+44960   4.366  12.334   3.332
76488NA+    NA+44961   5.735  30.009   1.386
76489NA+    NA+44962  33.035  37.344   3.353
76490NA+    NA+44963  11.671   5.193  14.431
76491NA+    NA+44964  29.576  23.520   0.400
76492NA+    NA+44965  38.851   2.300   2.236
76493NA+    NA+44966  12.733  27.027   3.282
76494NA+    NA+44967  20.114  24.624  12.374
76495NA+    NA+44968  30.518  35.416   4.165
76496NA+    NA+44969  10.878   7.672  13.928
76497NA+    NA+44970  33.434   6.789  13.981
76498NA+    NA+44971  22.203  23.560  14.863
76499NA+    NA+44972  14.749  26.185  12.559
76500NA+    NA+44973  21.095  28.132  11.607
76501NA+    NA+44974  21.580   6.238  14.025
76502NA+    NA+44975  29.479  30.581  14.321
76503NA+    NA+44976  22.628   2.949   4.623
76504NA+    NA+44977   5.782  14.756   2.210
76505NA+    NA+44978  14.792  28.672  11.126
76506NA+    NA+44979   7.280   7.308   3.214
76507NA+    NA+44980  26.615   9.811   2.202
76508NA+    NA+44981  19.083   4.751   2.314
76509NA+    NA+44982  15.589  17.651  12.007
76510NA+    NA+44983  28.449  39.903   1.264
76511NA+    NA+44984  13.321   3.246  14.282
76512NA+    NA+44985  22.642  20.261  13.018
76513NA+    NA+44986  12.681  44.922  14.877
76514NA+    NA+44987  16.072  27.496  14.338
76515NA+    NA+44988  24.593  18.637  10.463
76516NA+    NA+44989  11.211  19.544   3.221
76517NA+    NA+44990   4.437   6.342   4.185
76518NA+    NA+44991  22.738  30.508  13.032
76519NA+    NA+44992  32.501  43.836   0.830
76520NA+    NA+44993   5.379   7.366  14.989
76521NA+    NA+44994  30.042  18.178  10.607
76522NA+    NA+44995  11.356   4.744  10.098
76523NA+    NA+44996  29.166  24.182  11.517
76524NA+    NA+44997   5.410  25.010   2.289
76525NA+    NA+44998  43.019   8.667  13.541
76526NA+    NA+44999   0.848  14.170   2.767
76527NA+    NA+45000  40.951  26.030  14.804
76528NA+    NA+45001  30.146   5.410  13.408
76529NA+    NA+45002  25.562  32.528   3.259
76530NA+    NA+45003   4.896  16.779   0.946
76531NA+    NA+45004  36.901  24.075  12.063
76532NA+    NA+45005  44.311  11.623  12.025
76533NA+    NA+45006  12.234  37.576   0.356
76534NA+    NA+45007  12.308  17.173   4.617
76535NA+    NA+45008  19.220  29.006  14.977
76536NA+    NA+45009   9.347  15.323   0.376
76537NA+    NA+45010  25.651  22.725   3.350
76538NA+    NA+45011  41.497  11.290  14.861
76539NA+    NA+45012  35.954  39.886  14.428
76540NA+    NA+45013  29.614  38.949   2.374
76541NA+    NA+45014  27.121  23.123  14.807
76542NA+    NA+45015  31.923  38.967  12.095
76543NA+    NA+45016  31.434   2.327   4.180
76544NA+    NA+45017  28.139   3.337  14.389
76545NA+    NA+45018  35.579  19.087   0.775
76546NA+    NA+45019   0.494  30.963   4.774
76547NA+    NA+45020  40.860  22.569   0.386
76548NA+    NA+45021   7.218  36.085  12.362
76549NA+    NA+45022  43.279   0.830  11.403
76550NA+    NA+45023  13.846  30.535   4.286
76551NA+    NA+45024   4.737  33.977  10.575
76552NA+    NA+45025  27.560  10.688   0.770
76553NA+    NA+45026  29.925  26.581   0.371
76554NA+    NA+45027   2.857  20.744   2.863
76555NA+    NA+45028  39.471  36.855  10.896
76556NA+    NA+45029  15.735  36.911   5.286
76557NA+    NA+45030  19.563  26.972  14.385
76558NA+    NA+45031  31.988  11.229  12.373
76559NA+    NA+45032  38.930  19.690   0.382
76560NA+    NA+45033  14.110  22.116   2.755
76561NA+    NA+45034  33.990  35.533   3.701
76562NA+    NA+45035  27.178  24.199  11.862
76563NA+    NA+45036  35.071   0.831  14.443
76564NA+    NA+45037  16.293  17.244  14.360
76565NA+    NA+45038   0.935  43.840   2.239
76566NA+    NA+45039  11.703  22.677  14.956
76567NA+    NA+45040  27.146   8.369   3.256
76568NA+    NA+45041  28.030  17.095   3.647
76569NA+    NA+45042  21.034  33.050  11.529
76570NA+    NA+45043   0.898  33.017   3.737
76571NA+    NA+45044  16.628  23.686  11.555
76572NA+    NA+45045  23.668   8.750   1.248
76573NA+    NA+45046  24.049   4.879  13.418
76574NA+    NA+45047  16.314  26.637   5.269
76575NA+    NA+45048  11.355   6.407  12.967
76576NA+    NA+45049  22.086  26.521  11.584
76577NA+    NA+45050  13.323  40.853   3.197
76578NA+    NA+45051  16.200  17.783  11.418
76579NA+    NA+45052  35.016   5.365  12.031
76580NA+    NA+45053  26.181  11.248  14.819
76581NA+    NA+45054  37.510  39.433   4.617
76582NA+    NA+45055   3.955  40.327   4.264
76583NA+    NA+45056  10.375   9.335   2.240
76584NA+    NA+45057   3.750  17.214   0.478
76585NA+    NA+45058  21.705  43.837   3.847
76586NA+    NA+45059  26.204   5.269   4.647
76587NA+    NA+45060   2.280  29.134  12.045
76588NA+    NA+45061  17.156   7.396   4.699
76589NA+    NA+45062  43.804  39.853   3.288
76590NA+    NA+45063   8.812  15.580   1.370
76591NA+    NA+45064  40.843  33.972  13.313
76592NA+    NA+45065  22.243  21.108  12.388
76593NA+    NA+45066  43.847   0.416   0.888
76594NA+    NA+45067  37.945  20.183   1.292
76595NA+    NA+45068   0.266  19.735   0.905
76596NA+    NA+45069  43.848   1.841  13.431
76597NA+    NA+45070  35.050   8.797   1.872
76598NA+    NA+45071  24.108  37.068  11.502
76599NA+    NA+45072  26.163  36.352   2.274
76600NA+    NA+45073  18.270  37.066  10.534
76601NA+    NA+45074  23.615  29.664  12.061
76602NA+    NA+45075  19.212  18.093  13.004
76603NA+    NA+45076   1.330  40.891  13.422
76604NA+    NA+45077  38.432   2.890   3.788
76605NA+    NA+45078   3.948  16.189   4.804
76606NA+    NA+45079  17.168  18.704  12.451
76607NA+    NA+45080  31.151  14.099   4.204
76608NA+    NA+45081  12.142  41.303   2.699
76609NA+    NA+45082  27.066  34.585  12.433
76610NA+    NA+45083  26.130  32.557   0.804
76611NA+    NA+45084  14.627   9.295  12.517
76612NA+    NA+45085  29.174  39.828   3.636
76613NA+    NA+45086  30.656  39.061   5.143
76614NA+    NA+45087  37.062   8.202  10.465
76615NA+    NA+45088  26.653   7.335   4.252
76616NA+    NA+45089  25.474  20.583  14.829
76617NA+    NA+45090  43.797  20.194   3.244
76618NA+    NA+45091  31.014   1.456   3.341
76619NA+    NA+45092   8.294  36.047   1.796
76620NA+    NA+45093  24.067  20.120   3.177
76621NA+    NA+45094  31.625  10.270  12.365
76622NA+    NA+45095   1.929  26.581   0.363
76623NA+    NA+45096  16.739  13.151  13.951
76624NA+    NA+45097   4.373  11.215   0.825
76625NA+    NA+45098  27.121   4.835   4.806
76626NA+    NA+45099  34.005   0.381  13.900
76627NA+    NA+45100  41.921  29.523   0.284
76628NA+    NA+45101   6.377  21.745   1.704
76629NA+    NA+45102  17.181  39.984  14.352
76630NA+    NA+45103  42.525  38.528  11.039
76631NA+    NA+45104   8.879  36.998   0.363
76632NA+    NA+45105  27.171   5.842   4.129
76633NA+    NA+45106  17.573  23.530   3.851
76634NA+    NA+45107  14.121  43.470   1.753
76635NA+    NA+45108  41.535  43.516  12.891
76636NA+    NA+45109  11.355  17.587   0.797
76637NA+    NA+45110  23.068  16.120  14.460
76638NA+    NA+45111  36.585  13.164   4.674
76639NA+    NA+45112  16.161  17.242   3.172
76640NA+    NA+45113  26.070   9.668   4.697
76641NA+    NA+45114  11.718  11.777  11.569
76642NA+    NA+45115  15.213  18.789  12.933
76643NA+    NA+45116  39.817   2.252  13.875
76644NA+    NA+45117  44.419   2.454   0.321
76645NA+    NA+45118  31.474  17.114   4.683
76646NA+    NA+45119  34.025  36.431   1.419
76647NA+    NA+45120  27.640  10.654   2.356
76648NA+    NA+45121   2.843  32.557  11.855
76649NA+    NA+45122   8.317  35.947  11.881
76650NA+    NA+45123   6.778  32.084   1.422
76651NA+    NA+45124  18.574  27.469  10.918
76652NA+    NA+45125  39.442  35.409   2.300
76653NA+    NA+45126  33.008   8.175  13.379
76654NA+    NA+45127  40.864  38.904   1.779
76655NA+    NA+45128  34.536  40.983   1.738
76656NA+    NA+45129  21.045  42.454  10.627
76657NA+    NA+45130  38.835  18.270   0.919
76658NA+    NA+45131  18.142  41.327   1.365
76659NA+    NA+45132  25.624   3.924  13.053
76660NA+    NA+45133  18.769  20.042   2.351
76661NA+    NA+45134   2.731  31.118   2.369
76662NA+    NA+45135  25.051  19.044  12.986
76663NA+    NA+45136  37.023  36.587  14.848
76664NA+    NA+45137  26.093  34.975   3.204
76665NA+    NA+45138  18.135  25.688   2.711
76666NA+    NA+45139  13.761  12.812  12.978
76667NA+    NA+45140   9.209  11.270   4.252
76668NA+    NA+45141  39.349  42.280   1.359
76669NA+    NA+45142  28.658  27.675  14.807
76670NA+    NA+45143   1.255  33.955  13.520
76671NA+    NA+45144  21.531   9.782   3.767
76672NA+    NA+45145  18.608  43.915   2.710
76673NA+    NA+45146   5.713   8.669  13.991
76674NA+    NA+45147  18.729  34.031  10.944
76675NA+    NA+45148  32.415  40.042   4.703
76676NA+    NA+45149  30.061  26.558  10.571
76677NA+    NA+45150   4.213  29.665  13.912
76678NA+    NA+45151  38.418  44.280   3.193
76679NA+    NA+45152  44.980  19.709  13.978
76680NA+    NA+45153  19.576  32.028   2.865
76681NA+    NA+45154   4.747   5.745   2.712
76682NA+    NA+45155   3.909  43.897  11.497
76683NA+    NA+45156  37.007  20.572  10.935
76684NA+    NA+45157  35.880  20.583  12.856
76685NA+    NA+45158   3.441  42.323  12.970
76686NA+    NA+45159   3.305  28.628   2.245
76687NA+    NA+45160  31.579  23.134  14.983
76688NA+    NA+45161  10.805  35.560   0.452
76689NA+    NA+45162   7.818  43.968   0.880
76690NA+    NA+45163  17.759  15.695   0.472
76691NA+    NA+45164  16.144  38.517  10.985
76692NA+    NA+45165   2.461  20.029  12.424
76693NA+    NA+45166   6.313  30.552   0.895
76694NA+    NA+45167   0.410   4.904   2.766
76695NA+    NA+45168   8.245  12.778  12.536
76696NA+    NA+45169  35.879  37.015   4.626
76697NA+    NA+45170  16.620  21.728  14.304
76698NA+    NA+45171   2.895  43.394  11.097
76699NA+    NA+45172  33.034  41.022  14.372
76700NA+    NA+45173  27.655  43.827  14.478
76701NA+    NA+45174   7.173  26.028   3.753
76702NA+    NA+45175   1.308  34.528  14.859
76703NA+    NA+45176  36.858  39.873   1.791
76704NA+    NA+45177   8.764  34.477   4.155
76705NA+    NA+45178  31.556  41.375  13.347
76706NA+    NA+45179  22.501  30.163   1.860
76707NA+    NA+45180  24.089  41.960   2.751
76708NA+    NA+45181   3.711  25.174  13.481
76709NA+    NA+45182  26.168  40.530  12.956
76710NA+    NA+45183   5.275  21.033  12.911
76711NA+    NA+45184  12.633  39.888  10.591
76712NA+    NA+45185   5.845  10.724  13.823
76713NA+    NA+45186  13.143  30.423   3.641
76714NA+    NA+45187  37.931  34.463  14.470
76715NA+    NA+45188  31.906  25.977  10.915
76716NA+    NA+45189  18.595   6.250   3.803
76717NA+    NA+45190  29.972  32.444   2.682
76718NA+    NA+45191  23.656  11.214   0.922
76719NA+    NA+45192  10.203  32.619  13.547
76720NA+    NA+45193  28.982  38.047  14.770
76721NA+    NA+45194  24.092  11.728  10.457
76722NA+    NA+45195  25.584  22.040  13.033
76723NA+    NA+45196  34.507  15.717  11.582
76724NA+    NA+45197  20.530  34.615  13.361
76725NA+    NA+45198  16.223  40.389   4.157
76726NA+    NA+45199  42.973  36.031  12.076
76727NA+    NA+45200  42.288  28.937   4.654
76728NA+    NA+45201   0.815  25.490  14.791
76729NA+    NA+45202  22.745  33.574  13.413
76730NA+    NA+45203  16.711  44.795   0.387
76731NA+    NA+45204   2.245  36.948   4.212
76732NA+    NA+45205  40.379  43.361  12.404
76733NA+    NA+45206  27.197  14.775  14.470
76734NA+    NA+45207  16.172  44.894  10.599
76735NA+    NA+45208  39.535  33.613  12.890
76736NA+    NA+45209  26.983  36.013   0.383
76737NA+    NA+45210  28.171  30.490   2.806
76738NA+    NA+45211  30.012  20.597  13.490
76739NA+    NA+45212   9.706   0.915  11.568
76740NA+    NA+45213  24.153  20.082   4.175
76741NA+    NA+45214   0.261  23.223   4.601
76742NA+    NA+45215  36.399  21.626   2.285
76743NA+    NA+45216  17.150  35.954  11.039
76744NA+    NA+45217  37.362  30.074   2.783
76745NA+    NA+45218  30.927  19.601  13.857
76746NA+    NA+45219  22.136  11.673   4.146
76747NA+    NA+45220  37.554   3.221   3.778
76748NA+    NA+45221  24.611  17.599  14.408
76749NA+    NA+45222  28.084  31.476   1.778
76750NA+    NA+45223  35.524  19.169  13.926
76751NA+    NA+45224  37.021   9.237   2.862
76752NA+    NA+45225  15.601   0.462  11.497
76753NA+    NA+45226  16.143  33.386  10.955
76754NA+    NA+45227  11.286   5.696   3.343
76755NA+    NA+45228   7.299  20.610   2.873
76756NA+    NA+45229   5.349   2.740   0.334
76757NA+    NA+45230   6.878  13.756   1.340
76758NA+    NA+45231  22.536  21.055   2.369
76759NA+    NA+45232  19.039   9.796  13.053
76760NA+    NA+45233   6.828  12.756   2.733
76761NA+    NA+45234   4.372  23.638   0.334
76762NA+    NA+45235  20.179  15.116  10.547
76763NA+    NA+45236  40.387  30.991   2.790
76764NA+    NA+45237  12.215   6.293  10.907
76765NA+    NA+45238   5.309  27.660  14.030
76766NA+    NA+45239   5.810  26.047   3.768
76767NA+    NA+45240   0.474  35.993   3.857
76768NA+    NA+45241  35.907  38.843   0.765
76769NA+    NA+45242  38.038  20.686  14.392
76770NA+    NA+45243  30.124  17.772   1.804
76771NA+    NA+45244  25.037  38.989   0.914
76772NA+    NA+45245  16.194  37.027   1.285
76773NA+    NA+45246  12.819   4.707  10.897
76774NA+    NA+45247  35.856  17.604  13.339
76775NA+    NA+45248  20.244  23.526   0.323
76776NA+    NA+45249  38.975  35.004  10.996
76777NA+    NA+45250  35.040  10.855  10.965
76778NA+    NA+45251   8.311  44.835   1.891
76779NA+    NA+45252  24.132  38.381   0.339
76780NA+    NA+45253  23.652  29.454   4.295
76781NA+    NA+45254   5.852  36.973  14.817
76782NA+    NA+45255  27.003   1.936  13.977
76783NA+    NA+45256  28.671   6.824  13.007
76784NA+    NA+45257  42.027   5.904   1.712
76785NA+    NA+45258   0.857  31.592  13.416
76786NA+    NA+45259   1.866  36.375  12.977
76787NA+    NA+45260  16.662  26.475   3.352
76788NA+    NA+45261  27.054   1.739   1.825
76789NA+    NA+45262  31.119  29.602  14.430
76790NA+    NA+45263  22.552  36.422  10.106
76791NA+    NA+45264  22.574   9.354   4.200
76792NA+    NA+45265  19.778  14.282  12.407
76793NA+    NA+45266   3.373  42.936  14.301
76794NA+    NA+45267  24.153  12.828  11.613
76795NA+    NA+45268  32.076  12.718  13.461
76796NA+    NA+45269  34.103  34.471  11.443
76797NA+    NA+45270  43.948  27.049   2.184
76798NA+    NA+45271  13.801  39.966   4.258
76799NA+    NA+45272  22.603  15.747   1.900
76800NA+    NA+45273  11.692  28.545  12.464
76801NA+    NA+45274   0.982  23.189   2.200
76802NA+    NA+45275  10.335  36.032   1.717
76803NA+    NA+45276  33.923   2.233  11.924
76804NA+    NA+45277  43.335   0.771   2.316
76805NA+    NA+45278   5.374  38.923  13.897
76806NA+    NA+45279  21.695   4.869  13.449
76807NA+    NA+45280   9.166  25.572  13.879
76808NA+    NA+45281  28.672  39.889   4.253
76809NA+    NA+45282  35.889  19.756  10.570
76810NA+    NA+45283  12.712  14.114  14.018
76811NA+    NA+45284  32.997  19.766  14.957
76812NA+    NA+45285  32.504   7.209  14.460
76813NA+    NA+45286   6.198  37.575  10.586
76814NA+    NA+45287  43.930  13.326   0.258
76815NA+    NA+45288   3.282  20.190  14.901
76816NA+    NA+45289  22.248   6.326   0.762
76817NA+    NA+45290  18.613   5.695  12.023
76818NA+    NA+45291  28.661  36.996  10.486
76819NA+    NA+45292  21.217  44.281  11.472
76820NA+    NA+45293   0.889  15.754   0.251
76821NA+    NA+45294  15.225  34.575   1.843
76822NA+    NA+45295   8.806  13.131   2.390
76823NA+    NA+45296  27.562  41.889  14.980
76824NA+    NA+45297  28.141  39.541   0.412
76825NA+    NA+45298  23.069  29.092   1.279
76826NA+    NA+45299  25.490  12.216  10.641
76827NA+    NA+45300   6.867   9.889   3.331
76828NA+    NA+45301  11.821  24.214   3.330
76829NA+    NA+45302  14.625  22.212  13.862
76830NA+    NA+45303  42.815  18.187   0.862
76831NA+    NA+45304  33.130  23.710  13.884
76832NA+    NA+45305  10.333   4.305  11.900
76833NA+    NA+45306   7.211   5.878  10.050
76834NA+    NA+45307  36.432  38.381  11.071
76835NA+    NA+45308  40.498  26.009  13.394
76836NA+    NA+45309  14.601   2.463   4.243
76837NA+    NA+45310  10.360  25.172  14.484
76838NA+    NA+45311  20.044  26.146   4.636
76839NA+    NA+45312  12.142  10.292  14.315
76840NA+    NA+45313   6.374  10.705   0.904
76841NA+    NA+45314   2.305   9.688   1.885
76842NA+    NA+45315   2.413  20.203   1.806
76843NA+    NA+45316  43.443  25.654  11.958
76844NA+    NA+45317  33.043  24.175  12.554
76845NA+    NA+45318  35.526  32.583   4.652
76846NA+    NA+45319  18.125  35.530   1.215
76847NA+    NA+45320  15.622   5.790  13.513
76848NA+    NA+45321   1.354  16.123  11.045
76849NA+    NA+45322   7.683  35.474   4.720
76850NA+    NA+45323  32.462  15.099   3.232
76851NA+    NA+45324   3.908   3.362   3.640
76852NA+    NA+45325  12.844  42.992  12.467
76853NA+    NA+45326  42.299  33.071  14.384
76854NA+    NA+45327  38.555  34.051   3.639
76855NA+    NA+45328  41.342  30.998  13.877
76856NA+    NA+45329  25.646   7.672   1.229
76857NA+    NA+45330  39.048   5.766   4.609
76858NA+    NA+45331  39.975  41.371   0.825
76859NA+    NA+45332  21.109  25.521   1.351
76860NA+    NA+45333  41.857  20.638   2.317
76861NA+    NA+45334  36.071  14.714  13.504
76862NA+    NA+45335  20.768   1.841   2.847
76863NA+    NA+45336  40.828  40.501  12.544
76864NA+    NA+45337  28.543  30.978  12.472
76865NA+    NA+45338   5.895  31.635  12.877
76866NA+    NA+45339  21.624  19.277  13.437
76867NA+    NA+45340  33.570  22.637   3.159
76868NA+    NA+45341  40.412  22.146  12.885
76869NA+    NA+45342  42.954  13.204   4.248
76870NA+    NA+45343   9.216  26.036   0.948
76871NA+    NA+45344  42.505  15.688  10.922
76872NA+    NA+45345  28.158  20.662   4.829
76873NA+    NA+45346   7.840  20.116   0.916
76874NA+    NA+45347   3.361  35.443  10.489
76875NA+    NA+45348  44.771  35.442  10.610
76876NA+    NA+45349  20.166  14.770   3.813
76877NA+    NA+45350   8.390  25.128   0.777
76878NA+    NA+45351   2.853   2.734  11.114
76879NA+    NA+45352  40.468  42.405   4.781
76880NA+    NA+45353  14.826  43.439  11.574
76881NA+    NA+45354  44.348  37.914   4.804
76882NA+    NA+45355  31.915  19.184  12.956
76883NA+    NA+45356  20.540  38.503  10.956
76884NA+    NA+45357   7.845   8.673  14.022
76885NA+    NA+45358   5.219   1.849   3.720
76886NA+    NA+45359  36.025   1.396  10.415
76887NA+    NA+45360   8.251   4.703   3.260
76888NA+    NA+45361  11.205  37.888  13.866
76889NA+    NA+45362  16.200   0.410   0.896
76890NA+    NA+45363  37.548  25.650  12.867
76891NA+    NA+45364  34.107   6.421   0.926
76892NA+    NA+45365  35.919  17.760   0.910
76893NA+    NA+45366  16.114   9.214   3.244
76894NA+    NA+45367  31.545   1.432  11.461
76895NA+    NA+45368  39.350  29.140  14.847
76896NA+    NA+45369  36.847  18.201  10.625
76897NA+    NA+45370  34.930   2.397   2.740
76898NA+    NA+45371  19.697   5.414  14.406
76899NA+    NA+45372  17.656  24.591  12.940
76900NA+    NA+45373   7.844  40.969   4.680
76901NA+    NA+45374  26.494  16.160   1.245
76902NA+    NA+45375   4.383  35.409  10.525
76903NA+    NA+45376  17.242  30.587   3.699
76904NA+    NA+45377   5.848  32.546   0.907
76905NA+    NA+45378  14.140   5.708   1.296
76906NA+    NA+45379   4.267  12.691   4.167
76907NA+    NA+45380  10.744   2.427  14.501
76908NA+    NA+45381  42.910  14.237  10.124
76909NA+    NA+45382  10.378  11.320  12.888
76910NA+    NA+45383   2.828  28.026   2.358
76911NA+    NA+45384  39.508   1.330   4.327
76912NA+    NA+45385   0.250   9.326  11.050
76913NA+    NA+45386  24.026  30.501   3.746
76914NA+    NA+45387   6.324  40.975   1.716
76915NA+    NA+45388   5.707  24.180   3.289
76916NA+    NA+45389  28.157   6.818  10.910
76917NA+    NA+45390   5.769  22.710   3.760
76918NA+    NA+45391  21.670  43.875  12.395
76919NA+    NA+45392   9.785   7.262   1.861
76920NA+    NA+45393  19.627  16.713   3.355
76921NA+    NA+45394   8.728   6.423  13.889
76922NA+    NA+45395  21.209  14.637  11.495
76923NA+    NA+45396  40.850  32.137   4.166
76924NA+    NA+45397   4.253   6.415   1.409
76925NA+    NA+45398  35.020  15.640  12.025
76926NA+    NA+45399   7.211  25.609  12.520
76927NA+    NA+45400  17.676  31.568  10.544
76928NA+    NA+45401  39.062  14.689  14.917
76929NA+    NA+45402  30.639  13.760   2.707
76930NA+    NA+45403  44.504  29.973   3.259
76931NA+    NA+45404  16.699   2.906  11.069
76932NA+    NA+45405  18.562  41.332   0.916
76933NA+    NA+45406  13.134   4.365   3.368
76934NA+    NA+45407  41.020   0.480   1.890
76935NA+    NA+45408  15.714   5.428  13.323
76936NA+    NA+45409  43.512  36.869  10.908
76937NA+    NA+45410  43.832  21.716   0.820
76938NA+    NA+45411   1.822  11.779  11.386
76939NA+    NA+45412   1.841  32.499  10.472
76940NA+    NA+45413  12.786   1.949  10.566
76941NA+    NA+45414  33.908  35.512   1.843
76942NA+    NA+45415   3.797  37.915   4.280
76943NA+    NA+45416  37.050  42.289   4.295
76944NA+    NA+45417  44.452  18.167   0.423
76945NA+    NA+45418  30.995  24.651   4.267
76946NA+    NA+45419  26.154   9.707   3.285
76947NA+    NA+45420  37.915  29.024  13.973
76948NA+    NA+45421  41.787   1.969   0.883
76949NA+    NA+45422   3.861  44.405  10.134
76950NA+    NA+45423  15.146  11.725   2.892
76951NA+    NA+45424  19.626  16.252  14.763
76952NA+    NA+45425  44.890  19.690  12.043
76953NA+    NA+45426  38.882  41.355  10.930
76954NA+    NA+45427  19.162  12.170  11.025
76955NA+    NA+45428   9.724  27.050  14.791
76956NA+    NA+45429  27.061  27.198  13.481
76957NA+    NA+45430  40.844  39.012  10.510
76958NA+    NA+45431   4.350   0.431  12.967
76959NA+    NA+45432  19.541  20.734  10.411
76960NA+    NA+45433  19.269  16.630   2.814
76961NA+    NA+45434  15.584  10.734   4.199
76962NA+    NA+45435  13.219  12.345   2.827
76963NA+    NA+45436  19.723  12.207   0.266
76964NA+    NA+45437   1.428   7.759   0.324
76965NA+    NA+45438  32.088  32.506  14.829
76966NA+    NA+45439   5.754   0.840   3.849
76967NA+    NA+45440   1.949  33.994  12.350
76968NA+    NA+45441   1.378  39.408  12.479
76969NA+    NA+45442  33.943  31.414   4.339
76970NA+    NA+45443  33.086   1.737  12.017
76971NA+    NA+45444  23.158  25.542   0.935
76972NA+    NA+45445  39.910  38.926  12.827
76973NA+    NA+45446  16.680  34.409   2.360
76974NA+    NA+45447   0.428   0.852   1.368
76975NA+    NA+45448  11.772  36.423   0.964
76976NA+    NA+45449  35.051   0.924  10.407
76977NA+    NA+45450   0.363  17.193  11.536
76978NA+    NA+45451  27.038  11.179  11.870
76979NA+    NA+45452  20.586  34.099   0.805
76980NA+    NA+45453  31.073  19.041   2.238
76981NA+    NA+45454   3.765  44.923   2.217
76982NA+    NA+45455   6.797  31.896  10.509
76983NA+    NA+45456  11.686  20.185  13.338
76984NA+    NA+45457  43.944  14.241   2.699
76985NA+    NA+45458  36.538  28.463   2.277
76986NA+    NA+45459  39.454  12.719   3.853
76987NA+    NA+45460   6.752  32.506   2.751
76988NA+    NA+45461  31.938  18.155   0.803
76989NA+    NA+45462  31.644  26.967  12.408
76990NA+    NA+45463   9.370  33.019  12.436
76991NA+    NA+45464  18.130  42.956  14.448
76992NA+    NA+45465  21.131   1.286  12.943
76993NA+    NA+45466  32.000  35.486   2.402
76994NA+    NA+45467  30.106  34.026  13.401
76995NA+    NA+45468  40.911   9.337   4.233
76996NA+    NA+45469  21.047   4.914   0.267
76997NA+    NA+45470   3.903   3.722   4.263
76998NA+    NA+45471   4.332  34.560  12.988
76999NA+    NA+45472  13.294   4.386   1.882
77000NA+    NA+45473  26.637  31.541  13.529
77001NA+    NA+45474  33.888   1.816  13.401
77002NA+    NA+45475  30.453  14.252  10.583
77003NA+    NA+45476  38.371  24.572   0.921
77004NA+    NA+45477  41.869   3.758   2.301
77005NA+    NA+45478  30.451   5.922  12.068
77006NA+    NA+45479   7.783  29.510  12.034
77007NA+    NA+45480  39.820   8.406   2.281
77008NA+    NA+45481   9.383  16.800   2.204
77009NA+    NA+45482  43.944   9.350  13.867
77010NA+    NA+45483  21.031  16.214  13.824
77011NA+    NA+45484   5.376  43.508  13.332
77012NA+    NA+45485  41.812  42.017  14.947
77013NA+    NA+45486   7.229  27.952  13.890
77014NA+    NA+45487  39.555  40.905   4.146
77015NA+    NA+45488  13.805  16.116   0.422
77016NA+    NA+45489  19.731  13.350   0.731
77017NA+    NA+45490  25.550   0.920  13.430
77018NA+    NA+45491  18.160   5.246  12.361
77019NA+    NA+45492  20.190   0.904   3.777
77020NA+    NA+45493  36.534  24.020  12.969
77021NA+    NA+45494  21.609  24.974  10.930
77022NA+    NA+45495  30.054  25.513  12.946
77023NA+    NA+45496   2.436  12.253  14.374
77024NA+    NA+45497  17.733  12.127  13.315
77025NA+    NA+45498   2.881  16.808   2.406
77026NA+    NA+45499  18.257  17.081   3.713
77027NA+    NA+45500   9.870  39.815  13.947
77028NA+    NA+45501   2.372   6.766  11.001
77029NA+    NA+45502  32.545   0.968  14.837
77030NA+    NA+45503  40.876  22.555  13.379
77031NA+    NA+45504  43.814  10.797  10.542
77032NA+    NA+45505  40.830   2.961   0.955
77033NA+    NA+45506   4.756  32.411  14.303
77034NA+    NA+45507  43.994  33.003   0.403
77035NA+    NA+45508   1.972  14.109  14.013
77036NA+    NA+45509  28.113  22.684  13.529
77037NA+    NA+45510  27.669  24.053  12.931
77038NA+    NA+45511  15.257  19.618  12.534
77039NA+    NA+45512   6.323   0.750   9.988
77040NA+    NA+45513  42.013  27.031   3.672
77041NA+    NA+45514  31.524   9.339   2.385
77042NA+    NA+45515  22.731  28.106   4.325
77043NA+    NA+45516   1.306  12.305   1.718
77044NA+    NA+45517  21.519  37.536   4.123
77045NA+    NA+45518  31.050  42.778   2.801
77046NA+    NA+45519  25.647  26.510  12.392
77047NA+    NA+45520  28.119   2.878  14.394
77048NA+    NA+45521  31.148  24.145   3.702
77049NA+    NA+45522  39.946   5.333   2.843
77050NA+    NA+45523  10.861  36.099   5.151
77051NA+    NA+45524  42.921   1.338  14.809
77052NA+    NA+45525  21.672  20.168  12.012
77053NA+    NA+45526  10.715  25.218  10.087
77054NA+    NA+45527  25.645  24.044  10.499
77055NA+    NA+45528  18.697  21.656  12.505
77056NA+    NA+45529  28.952  41.443  10.560
77057NA+    NA+45530  33.955  31.634   0.942
77058NA+    NA+45531  43.360  28.181   1.320
77059NA+    NA+45532  23.042  14.138   2.235
77060NA+    NA+45533  41.790   6.842  11.952
77061NA+    NA+45534  11.848   0.884   0.468
77062NA+    NA+45535  16.668   3.922   1.932
77063NA+    NA+45536   0.779  29.072   2.870
77064NA+    NA+45537  23.670  17.657  13.359
77065NA+    NA+45538  30.936  35.097  11.496
77066NA+    NA+45539  22.557  25.512   9.994
77067NA+    NA+45540   4.355  43.326  13.409
77068NA+    NA+45541  39.476  15.732   0.316
77069NA+    NA+45542  25.663  22.116   2.672
77070NA+    NA+45543  26.165  33.885   0.344
77071NA+    NA+45544  43.420  37.410  13.986
77072NA+    NA+45545  15.136  21.109  13.796
77073NA+    NA+45546  14.198  35.082   0.318
77074NA+    NA+45547  35.015  37.022   1.402
77075NA+    NA+45548  11.150   1.847  10.635
77076NA+    NA+45549  44.816   7.832  11.019
77077NA+    NA+45550  13.324  17.069  12.561
77078NA+    NA+45551  25.094  36.970  11.925
77079NA+    NA+45552  12.701  43.360  13.529
77080NA+    NA+45553  14.637  35.858  10.132
77081NA+    NA+45554  34.591  34.064   0.389
77082NA+    NA+45555  11.164   4.917   2.798
77083NA+    NA+45556  11.163  29.169   4.127
77084NA+    NA+45557  14.633  24.570   3.791
77085NA+    NA+45558  28.043  36.452  12.894
77086NA+    NA+45559   4.781  34.370  12.905
77087NA+    NA+45560  21.639  12.818   1.438
77088NA+    NA+45561  22.642   1.954  11.940
77089NA+    NA+45562   6.761  30.095   3.782
77090NA+    NA+45563  44.292  22.501   3.311
77091NA+    NA+45564  42.818  22.586  10.506
77092NA+    NA+45565  13.333  29.569   2.861
77093NA+    NA+45566  15.266  39.329  10.620
77094NA+    NA+45567   5.834  17.574   0.931
77095NA+    NA+45568  11.774  31.919   1.754
77096NA+    NA+45569  35.449   8.755  12.947
77097NA+    NA+45570  35.052  40.812  13.535
77098NA+    NA+45571  28.077   7.675  13.881
77099NA+    NA+45572  29.660  32.957   3.325
77100NA+    NA+45573  19.622  22.094   2.292
77101NA+    NA+45574  39.897  16.585   3.169
77102NA+    NA+45575  11.149  33.536  14.404
77103NA+    NA+45576  16.792   8.720   4.352
77104NA+    NA+45577  12.611  35.070   2.227
77105NA+    NA+45578  15.292   1.799   1.774
77106NA+    NA+45579  33.386   5.741   4.716
77107NA+    NA+45580  14.649  22.226  13.449
77108NA+    NA+45581  22.710  42.512   0.316
77109NA+    NA+45582  38.418  19.657  13.826
77110NA+    NA+45583  17.279  30.584   1.235
77111NA+    NA+45584  23.682  34.097   4.284
77112NA+    NA+45585   4.782  39.952  13.926
77113NA+    NA+45586  20.126  29.486  10.557
77114NA+    NA+45587  19.051   1.385  11.501
77115NA+    NA+45588  24.506  13.829  13.488
77116NA+    NA+45589   1.894  28.012  14.443
77117NA+    NA+45590  31.575  16.176   2.741
77118NA+    NA+45591  32.914  30.137  10.514
77119NA+    NA+45592   8.361   5.383  14.018
77120NA+    NA+45593  25.127  14.292   0.781
77121NA+    NA+45594  25.102  17.572  12.089
77122NA+    NA+45595   3.933   4.751  11.916
77123NA+    NA+45596  26.146  39.824   4.126
77124NA+    NA+45597  16.760  20.636   4.699
77125NA+    NA+45598  17.666  30.653   2.687
77126NA+    NA+45599  36.980   7.684   4.826
77127NA+    NA+45600  34.955  15.292  14.884
77128NA+    NA+45601  25.654   1.951  13.401
77129NA+    NA+45602   1.791  35.911   1.434
77130NA+    NA+45603  34.574   3.434  10.434
77131NA+    NA+45604  26.528  37.010   0.882
77132NA+    NA+45605  44.462   5.423   2.831
77133NA+    NA+45606  12.267   3.759   4.242
77134NA+    NA+45607  14.327  31.935   1.249
77135NA+    NA+45608  12.134  15.204  13.402
77136NA+    NA+45609  44.796  15.264  14.388
77137NA+    NA+45610  27.059  10.142   0.952
77138NA+    NA+45611  22.547  41.794   1.297
77139NA+    NA+45612  42.355  42.370  13.056
77140NA+    NA+45613  35.541  44.459  14.778
77141NA+    NA+45614  18.266  13.349   3.683
77142NA+    NA+45615  29.512  19.201   1.899
77143NA+    NA+45616  19.231   2.884  11.510
77144NA+    NA+45617  33.423   9.213   4.641
77145NA+    NA+45618  11.251   2.318   3.854
77146NA+    NA+45619  30.116  17.729  12.390
77147NA+    NA+45620  28.504  38.370  11.568
77148NA+    NA+45621  23.117  22.231   4.207
77149NA+    NA+45622  33.993  41.985   5.763
77150NA+    NA+45623   8.276  15.587   1.882
77151NA+    NA+45624  33.936  40.049  14.773
77152NA+    NA+45625  44.410  38.870   4.331
77153NA+    NA+45626  32.446  31.982   3.721
77154NA+    NA+45627  15.773  44.486   3.320
77155NA+    NA+45628  16.083  34.516   1.366
77156NA+    NA+45629  35.002  14.242  10.060
77157NA+    NA+45630  40.402  39.986  13.320
77158NA+    NA+45631   6.793  28.674  11.018
77159NA+    NA+45632  30.582  27.048  11.881
77160NA+    NA+45633  40.825   7.344   1.744
77161NA+    NA+45634  29.472  23.075   3.683
77162NA+    NA+45635  11.672   0.805   4.229
77163NA+    NA+45636  16.118  39.040   5.260
77164NA+    NA+45637  36.373  42.424   4.628
77165NA+    NA+45638  10.332  20.545  13.994
77166NA+    NA+45639  36.960  14.269  13.320
77167NA+    NA+45640  20.243  42.491   1.905
77168NA+    NA+45641  32.110  17.274   3.308
77169NA+    NA+45642  13.185  16.593   2.720
77170NA+    NA+45643  25.580  18.653   1.264
77171NA+    NA+45644  11.336  15.633   2.667
77172NA+    NA+45645  30.514   9.296   1.793
77173NA+    NA+45646  44.434  20.720  10.975
77174NA+    NA+45647  37.029  24.016   1.368
77175NA+    NA+45648  13.236  27.167   4.117
77176NA+    NA+45649  32.955  24.053  10.413
77177NA+    NA+45650  40.383   4.747   2.406
77178NA+    NA+45651  33.597  30.939  13.513
77179NA+    NA+45652  31.973  38.486  11.127
77180NA+    NA+45653  19.714  11.251   4.268
77181NA+    NA+45654  31.451  13.780  10.442
77182NA+    NA+45655   8.182  15.317   3.775
77183NA+    NA+45656  13.111  25.654  10.999
77184NA+    NA+45657   3.814  25.113   1.704
77185NA+    NA+45658  33.960   5.311   3.801
77186NA+    NA+45659   0.762  16.567  11.906
77187NA+    NA+45660  21.737  26.599  12.426
77188NA+    NA+45661  40.451  42.884   4.214
77189NA+    NA+45662  38.963  13.834  13.945
77190NA+    NA+45663  26.579  28.645   4.806
77191NA+    NA+45664  19.160  34.004   4.701
77192NA+    NA+45665  17.690  39.515   0.937
77193NA+    NA+45666  31.009  29.094   1.443
77194NA+    NA+45667  40.007   1.956  12.372
77195NA+    NA+45668  15.144  43.407   2.769
77196NA+    NA+45669   2.835  29.131   4.228
77197NA+    NA+45670  17.152   8.219   3.351
77198NA+    NA+45671  28.997  14.194  12.830
77199NA+    NA+45672   9.647   2.454   2.695
77200NA+    NA+45673  33.062  15.313   0.816
77201NA+    NA+45674  12.643   3.263   2.279
77202NA+    NA+45675  31.898  19.651  13.400
77203NA+    NA+45676   8.405   6.810  13.359
77204NA+    NA+45677  13.315   4.753  13.811
77205NA+    NA+45678  40.895  41.912   4.312
77206NA+    NA+45679   4.700  40.427  11.947
77207NA+    NA+45680  44.800  31.109   4.237
77208NA+    NA+45681  23.044  30.024   4.276
77209NA+    NA+45682  14.176   6.775   1.704
77210NA+    NA+45683  43.993  20.707  11.490
77211NA+    NA+45684  42.897  44.420   5.247
77212NA+    NA+45685  44.778  34.531   5.251
77213NA+    NA+45686   8.200   3.306  10.615
77214NA+    NA+45687  24.593  14.265   4.210
77215NA+    NA+45688  33.448   5.321   0.420
77216NA+    NA+45689  43.393  31.048   1.768
77217NA+    NA+45690  11.837  35.598  13.049
77218NA+    NA+45691   7.244  24.076   4.216
77219NA+    NA+45692  24.088  18.781  13.931
77220NA+    NA+45693  30.545  12.127   3.353
77221NA+    NA+45694  30.422  16.786   0.834
77222NA+    NA+45695   8.893  43.843   0.926
77223NA+    NA+45696  19.724  33.432  12.048
77224NA+    NA+45697  44.399  29.532  13.046
77225NA+    NA+45698  33.476  39.529   1.348
77226NA+    NA+45699  24.206  23.211  11.526
77227NA+    NA+45700  25.173  34.557   4.635
77228NA+    NA+45701  34.446  14.325   4.628
77229NA+    NA+45702   8.855  37.851  11.529
77230NA+    NA+45703  10.849  19.144  13.509
77231NA+    NA+45704   0.824   4.417   4.339
77232NA+    NA+45705   8.739  16.647   2.877
77233NA+    NA+45706  39.984   3.821  12.523
77234NA+    NA+45707  15.686  39.882   1.371
77235NA+    NA+45708  10.851  16.589   3.218
77236NA+    NA+45709   4.398  36.361  12.065
77237NA+    NA+45710  42.855  40.539   2.783
77238NA+    NA+45711  38.963  10.367  11.126
77239NA+    NA+45712  39.948   9.365   4.792
77240NA+    NA+45713  22.625  12.740   1.871
77241NA+    NA+45714  22.182  25.026   5.638
77242NA+    NA+45715  23.173  35.097  14.348
77243NA+    NA+45716  25.108  42.350  11.389
77244NA+    NA+45717  10.659  32.083   3.769
77245NA+    NA+45718  38.934  10.150   5.312
77246NA+    NA+45719  22.632   6.894  11.601
77247NA+    NA+45720   4.353  23.226   1.725
77248NA+    NA+45721  38.866  40.003   4.645
77249NA+    NA+45722   4.311  19.171  13.541
77250NA+    NA+45723  18.153  15.252  11.558
77251NA+    NA+45724  26.481   9.284   4.346
77252NA+    NA+45725  38.867  36.081  11.090
77253NA+    NA+45726  32.542  13.609   1.412
77254NA+    NA+45727  29.498  16.314   2.680
77255NA+    NA+45728  22.244  26.170   0.813
77256NA+    NA+45729  31.448  19.717  12.969
77257NA+    NA+45730  24.138  18.278   4.806
77258NA+    NA+45731  27.184  13.842   2.306
77259NA+    NA+45732  22.557  26.028  13.367
77260NA+    NA+45733  14.183  16.298   1.889
77261NA+    NA+45734  32.058  27.974   5.229
77262NA+    NA+45735  31.541  31.011   3.217
77263NA+    NA+45736  21.655  32.032  13.471
77264NA+    NA+45737  31.479  41.917  14.021
77265NA+    NA+45738  21.717  19.174   4.285
77266NA+    NA+45739   5.341  34.504   4.714
77267NA+    NA+45740  23.547   8.228   1.384
77268NA+    NA+45741  26.165  22.637   3.339
77269NA+    NA+45742  22.715  35.588  13.388
77270NA+    NA+45743  41.958  23.160  10.611
77271NA+    NA+45744  37.885   9.727  10.921
77272NA+    NA+45745  24.505  41.309   4.802
77273NA+    NA+45746  35.494  36.420  11.385
77274NA+    NA+45747   5.864  40.506   0.867
77275NA+    NA+45748  34.593  42.431   2.314
77276NA+    NA+45749  10.226  30.066   3.641
77277NA+    NA+45750  41.509   0.859   1.400
77278NA+    NA+45751  12.676   3.340   1.311
77279NA+    NA+45752   0.854  12.800  12.432
77280NA+    NA+45753  12.631  32.600   3.225
77281NA+    NA+45754  18.763  13.788   2.256
77282NA+    NA+45755  32.462  31.543  13.390
77283NA+    NA+45756  23.195  41.983   2.696
77284NA+    NA+45757  25.113  26.474   1.375
77285NA+    NA+45758  30.025   5.734   0.803
77286NA+    NA+45759  22.080  11.327   4.263
77287NA+    NA+45760  28.123  20.252   4.174
77288NA+    NA+45761  18.227  30.539   0.902
77289NA+    NA+45762  15.731  15.137  14.015
77290NA+    NA+45763  29.577  19.070   4.279
77291NA+    NA+45764   4.449  29.031  12.074
77292NA+    NA+45765  19.708  30.125  10.968
77293NA+    NA+45766  17.148  12.752   2.292
77294NA+    NA+45767  13.694  10.758  11.066
77295NA+    NA+45768  23.535  23.071   0.852
77296NA+    NA+45769   1.282  38.846   4.260
77297NA+    NA+45770   3.302   7.727   3.721
77298NA+    NA+45771  33.454   6.846  10.519
77299NA+    NA+45772   0.790  34.021  14.279
77300NA+    NA+45773  13.175  28.158  14.511
77301NA+    NA+45774  15.301  42.847  12.488
77302NA+    NA+45775  12.797  26.490   2.679
77303NA+    NA+45776  43.822  13.631  11.611
77304NA+    NA+45777  26.053  42.033   2.287
77305NA+    NA+45778   3.241  23.506   4.310
77306NA+    NA+45779  31.446   9.243   0.832
77307NA+    NA+45780  17.697  26.963   4.328
77308NA+    NA+45781  31.940  21.115  11.974
77309NA+    NA+45782  29.959  12.720   4.284
77310NA+    NA+45783  37.870  16.251  11.866
77311NA+    NA+45784  33.976  13.796   3.767
77312NA+    NA+45785   4.307  32.898  13.011
77313NA+    NA+45786  34.398  22.531   2.776
77314NA+    NA+45787  37.530  22.518   3.830
77315NA+    NA+45788  15.666  31.614   2.763
77316NA+    NA+45789  19.551  44.316   0.918
77317NA+    NA+45790  30.417   3.459  13.334
77318NA+    NA+45791  36.895  42.500  13.469
77319NA+    NA+45792  20.573  39.356  11.390
77320NA+    NA+45793  26.967   2.872  11.483
77321NA+    NA+45794  23.164  33.047  13.419
77322NA+    NA+45795  24.585  29.467   0.957
77323NA+    NA+45796  42.863   2.273   3.232
77324NA+    NA+45797   8.818  11.686   1.213
77325NA+    NA+45798  10.363  10.293   2.863
77326NA+    NA+45799  34.104   1.890  12.434
77327NA+    NA+45800  13.135   2.325   4.292
77328NA+    NA+45801   6.242  40.382   4.196
77329NA+    NA+45802  31.629   9.867   0.321
77330NA+    NA+45803  32.064  35.558   1.369
77331NA+    NA+45804  13.762  28.956  14.944
77332NA+    NA+45805  11.772  21.523  11.098
77333NA+    NA+45806  14.175  39.822   2.302
77334NA+    NA+45807  12.846  38.927   0.764
77335NA+    NA+45808  32.970   5.722   0.961
77336NA+    NA+45809  38.527  43.876  14.485
77337NA+    NA+45810   6.751   2.928   3.319
77338NA+    NA+45811  15.729  17.614  10.552
77339NA+    NA+45812   1.911  22.741   2.339
77340NA+    NA+45813  31.929   9.149   1.883
77341NA+    NA+45814   5.859  28.579  12.856
77342NA+    NA+45815   9.665  30.022   1.241
77343NA+    NA+45816  24.158  33.560   0.815
77344NA+    NA+45817  15.182  28.605  13.917
77345NA+    NA+45818   3.736   2.380  10.420
77346NA+    NA+45819  32.112   5.268  12.828
77347NA+    NA+45820  14.221   3.252   2.311
77348NA+    NA+45821  11.141  11.335  11.542
77349NA+    NA+45822   1.417  28.572  14.897
77350NA+    NA+45823   2.327   0.255  14.298
77351NA+    NA+45824  25.653   9.317  12.419
77352NA+    NA+45825  41.340  42.030  10.645
77353NA+    NA+45826  10.336  35.038   3.724
77354NA+    NA+45827  36.502  32.961  11.430
77355NA+    NA+45828  44.395  36.909   3.651
77356NA+    NA+45829   8.218  18.103  12.916
77357NA+    NA+45830   5.374  29.025   2.784
77358NA+    NA+45831   0.356  23.048  10.587
77359NA+    NA+45832   4.795  19.612   1.385
77360NA+    NA+45833  23.547  20.257   3.681
77361NA+    NA+45834  25.125   0.451  10.638
77362NA+    NA+45835  39.359  35.939  13.031
77363NA+    NA+45836  39.960  22.523   0.291
77364NA+    NA+45837  16.570  17.238   4.185
77365NA+    NA+45838   0.372  38.820   4.606
77366NA+    NA+45839  25.976  29.989  10.471
77367NA+    NA+45840  40.535  35.492  12.534
77368NA+    NA+45841  29.542   7.905  10.467
77369NA+    NA+45842  18.296  14.598  10.939
77370NA+    NA+45843   2.755  41.865  14.853
77371NA+    NA+45844  36.020  33.094  13.447
77372NA+    NA+45845  42.971  18.635   4.170
77373NA+    NA+45846   3.777  36.393   3.805
77374NA+    NA+45847  27.668   7.324  10.513
77375NA+    NA+45848   7.283  30.995   3.709
77376NA+    NA+45849  11.180  17.154  12.040
77377NA+    NA+45850  16.132  12.686  11.459
77378NA+    NA+45851  12.694   4.943  13.538
77379NA+    NA+45852   0.322  43.839   0.416
77380NA+    NA+45853  22.601  28.558  12.046
77381NA+    NA+45854   0.295  18.661   0.456
77382NA+    NA+45855  42.486   0.322   4.835
77383NA+    NA+45856  28.988  21.633   3.646
77384NA+    NA+45857  35.013  11.327   1.871
77385NA+    NA+45858  17.259  42.931   1.875
77386NA+    NA+45859  29.430   3.917   4.783
77387NA+    NA+45860   2.386  42.355  10.511
77388NA+    NA+45861  43.475  24.175  12.938
77389NA+    NA+45862  22.215  12.265  11.903
77390NA+    NA+45863  30.502  14.829   0.469
77391NA+    NA+45864  33.468   7.806  10.444
77392NA+    NA+45865  21.693  33.896   1.252
77393NA+    NA+45866  36.871  19.285   0.816
77394NA+    NA+45867   0.272  20.654  11.423
77395NA+    NA+45868  42.342  25.478   0.767
77396NA+    NA+45869  42.445  27.634   4.313
77397NA+    NA+45870  23.013   5.221   3.843
77398NA+    NA+45871  36.910  37.067  14.447
77399NA+    NA+45872  21.055  21.682  14.383
77400NA+    NA+45873   4.436  20.225  11.106
77401NA+    NA+45874   2.807  30.161  13.966
77402NA+    NA+45875  28.114  12.288  12.013
77403NA+    NA+45876  16.653  20.601  10.888
77404NA+    NA+45877  40.497  12.227  14.502
77405NA+    NA+45878  42.356  15.753  13.872
77406NA+    NA+45879  44.840  13.707  13.441
77407NA+    NA+45880   9.299  40.396  10.980
77408NA+    NA+45881  41.463  42.498  12.512
77409NA+    NA+45882   5.857  24.712  11.597
77410NA+    NA+45883  17.066  15.169   0.937
77411NA+    NA+45884   9.745  35.487   4.786
77412NA+    NA+45885  18.638  29.436  13.904
77413NA+    NA+45886  40.946  25.663   4.656
77414NA+    NA+45887   3.938  29.979  14.285
77415NA+    NA+45888  31.433   2.400  12.571
77416NA+    NA+45889   8.773  40.336   3.207
77417NA+    NA+45890  27.051  17.196   0.805
77418NA+    NA+45891   5.776  34.442  13.021
77419NA+    NA+45892  20.267  16.290  11.865
77420NA+    NA+45893  39.992  27.535   4.272
77421NA+    NA+45894  32.948  24.071   2.313
77422NA+    NA+45895   8.812  12.165  13.850
77423NA+    NA+45896   9.237   9.287  13.531
77424NA+    NA+45897  24.181  38.823  14.854
77425NA+    NA+45898  35.082  35.893   5.204
77426NA+    NA+45899  12.325  35.374   0.787
77427NA+    NA+45900   1.961  26.119  13.509
77428NA+    NA+45901  41.435  26.604  13.045
77429NA+    NA+45902  30.071  42.841   1.786
77430NA+    NA+45903  39.437  41.409   3.307
77431NA+    NA+45904  29.003  23.689   5.644
77432NA+    NA+45905  12.143  35.996  13.412
77433NA+    NA+45906   7.717  25.501  13.327
77434NA+    NA+45907   5.846  39.886  10.636
77435NA+    NA+45908  37.574  10.767   0.439
77436NA+    NA+45909  33.524  39.394   3.175
77437NA+    NA+45910  33.057  15.597  14.887
77438NA+    NA+45911  12.621  34.910  10.589
77439NA+    NA+45912  29.657  37.522   4.781
77440NA+    NA+45913  29.942  39.853   1.704
77441NA+    NA+45914  43.503  38.423  11.371
77442NA+    NA+45915   9.830  28.144  12.394
77443NA+    NA+45916  18.078  11.195  12.571
77444NA+    NA+45917  27.172  21.206   0.470
77445NA+    NA+45918  15.147  42.395  14.901
77446NA+    NA+45919  21.156  21.017   1.878
77447NA+    NA+45920  26.179  23.161   2.805
77448NA+    NA+45921  42.517  25.062  11.892
77449NA+    NA+45922  27.556   5.800  12.573
77450NA+    NA+45923  35.535   0.781   4.322
77451NA+    NA+45924   7.768  41.808   4.302
77452NA+    NA+45925   0.785  25.206  11.461
77453NA+    NA+45926  23.166   7.368   4.350
77454NA+    NA+45927  17.078  18.615  10.558
77455NA+    NA+45928  39.033  31.123   5.250
77456NA+    NA+45929  20.608  15.724   2.190
77457NA+    NA+45930   0.937  37.018   0.389
77458NA+    NA+45931  34.934   9.360  13.978
77459NA+    NA+45932  23.708   4.865  12.465
77460NA+    NA+45933  30.658   7.338  11.464
77461NA+    NA+45934  19.599  28.160   2.742
77462NA+    NA+45935  43.502  34.993   2.227
77463NA+    NA+45936   0.465  36.433   4.324
77464NA+    NA+45937  37.465  37.496  14.474
77465NA+    NA+45938  13.805  22.571   3.726
77466NA+    NA+45939  27.102   1.905   3.271
77467NA+    NA+45940  31.061  35.602   4.187
77468NA+    NA+45941  17.756  35.875  10.551
77469NA+    NA+45942  25.694   8.255  12.873
77470NA+    NA+45943  29.615  27.054   4.354
77471NA+    NA+45944  23.146  18.209   1.725
77472NA+    NA+45945   9.726  39.889   1.282
77473NA+    NA+45946  44.839  41.850  12.520
77474NA+    NA+45947  16.770  16.661  12.355
77475NA+    NA+45948  21.649  17.244  12.882
77476NA+    NA+45949   5.332  27.049   2.338
77477NA+    NA+45950   0.336   2.785  13.452
77478NA+    NA+45951  38.934   2.387  13.974
77479NA+    NA+45952  24.131  43.893   1.326
77480NA+    NA+45953  21.064  32.886   2.877
77481NA+    NA+45954   6.403  24.982  10.451
77482NA+    NA+45955   6.277  35.003  14.979
77483NA+    NA+45956   8.686  23.230  14.953
77484NA+    NA+45957  38.566  25.219  13.061
77485NA+    NA+45958   5.852  44.826   0.473
77486NA+    NA+45959  37.486   6.874   3.270
77487NA+    NA+45960  22.507  24.655  10.626
77488NA+    NA+45961  33.400  31.632  13.991
77489NA+    NA+45962  35.071  26.575  14.446
77490NA+    NA+45963  14.273  41.820  11.590
77491NA+    NA+45964  41.955  11.723   1.728
77492NA+    NA+45965  12.748   1.401  13.360
77493NA+    NA+45966  22.663  12.162  14.028
77494NA+    NA+45967   2.377   9.838  12.877
77495NA+    NA+45968  22.110  25.198  13.353
77496NA+    NA+45969  44.309  12.238   0.430
77497NA+    NA+45970  28.443  27.975  13.989
77498NA+    NA+45971  16.222  23.551  12.496
77499NA+    NA+45972  20.113  30.570  11.390
77500NA+    NA+45973  23.718  20.606  12.389
77501NA+    NA+45974  30.607  13.107  12.941
77502NA+    NA+45975   2.758  25.182   0.851
77503NA+    NA+45976   5.716   6.700  12.454
77504NA+    NA+45977  33.895   7.204  11.382
77505NA+    NA+45978  17.197   7.412   3.863
77506NA+    NA+45979  27.150   6.212   3.713
77507NA+    NA+45980  37.868  39.904   2.702
77508NA+    NA+45981  23.069  19.191   1.292
77509NA+    NA+45982  28.587   7.403   1.875
77510NA+    NA+45983  42.393  36.998   0.441
77511NA+    NA+45984  13.236  17.600   1.751
77512NA+    NA+45985  31.027  15.277  12.539
77513NA+    NA+45986  15.585  11.701   2.833
77514NA+    NA+45987  26.627  12.119  12.083
77515NA+    NA+45988  31.043   6.399  11.895
77516NA+    NA+45989   3.779  15.615   2.721
77517NA+    NA+45990  31.959  31.539   3.312
77518NA+    NA+45991  24.655  10.861   2.398
77519NA+    NA+45992  27.574   8.253  13.043
77520NA+    NA+45993  18.157  17.792   0.267
77521NA+    NA+45994  36.847  25.158  12.912
77522NA+    NA+45995  31.521  32.954   0.760
77523NA+    NA+45996  32.622  23.096  12.060
77524NA+    NA+45997  27.994  14.677  13.397
77525NA+    NA+45998   7.364   9.371   0.755
77526NA+    NA+45999  30.949  40.041   1.375
77527NA+    NA+46000   3.276  26.125  10.900
77528NA+    NA+46001  10.307  29.995   4.314
77529NA+    NA+46002  14.688  39.525   3.352
77530NA+    NA+46003  34.394  37.973  12.978
77531NA+    NA+46004  35.013   4.781   5.183
77532NA+    NA+46005  18.098  42.972   1.267
77533NA+    NA+46006  11.667  17.150   0.475
77534NA+    NA+46007  35.569   0.751   4.759
77535NA+    NA+46008  20.091  41.463  10.085
77536NA+    NA+46009  13.233   0.327   1.400
77537NA+    NA+46010   5.439  26.051  14.437
77538NA+    NA+46011   2.264  27.050  11.866
77539NA+    NA+46012  20.037  33.598   1.710
77540NA+    NA+46013  38.551  13.607   3.704
77541NA+    NA+46014  37.419  29.170  14.298
77542NA+    NA+46015  33.939  42.396   0.753
77543NA+    NA+46016   9.272  42.933  12.881
77544NA+    NA+46017  29.605  18.782  13.419
77545NA+    NA+46018  39.435  31.637  14.768
77546NA+    NA+46019  40.014  33.606  11.435
77547NA+    NA+46020  21.091  44.935   4.162
77548NA+    NA+46021  26.014  22.629  12.075
77549NA+    NA+46022  34.599   7.820   0.265
77550NA+    NA+46023  23.586  21.581   4.682
77551NA+    NA+46024  25.011  22.574   3.711
77552NA+    NA+46025  35.954   4.895  12.879
77553NA+    NA+46026   6.774  22.020  11.469
77554NA+    NA+46027   5.785  38.858   1.249
77555NA+    NA+46028  30.460  20.765  13.326
77556NA+    NA+46029  41.295  40.445  13.403
77557NA+    NA+46030   1.819   5.918  12.548
77558NA+    NA+46031   3.314  12.802   2.224
77559NA+    NA+46032   9.253  23.097  12.491
77560NA+    NA+46033  15.146   5.709  14.420
77561NA+    NA+46034  27.047   8.717   3.691
77562NA+    NA+46035  39.852  11.824   1.434
77563NA+    NA+46036   3.945  17.233  13.331
77564NA+    NA+46037   9.182  41.354  10.532
77565NA+    NA+46038  28.037   6.798   0.300
77566NA+    NA+46039  21.077  37.412   2.205
77567NA+    NA+46040   1.947   8.827   1.767
77568NA+    NA+46041  19.269  10.822   4.354
77569NA+    NA+46042  39.848  22.561   0.924
77570NA+    NA+46043  36.915   4.269   4.685
77571NA+    NA+46044  18.091  14.665  13.964
77572NA+    NA+46045  35.912  43.005  12.867
77573NA+    NA+46046   8.166  32.059   2.889
77574NA+    NA+46047  15.622  41.378  11.064
77575NA+    NA+46048  41.852  43.365   3.299
77576NA+    NA+46049  24.553  13.262   3.694
77577NA+    NA+46050  13.291  41.934   0.781
77578NA+    NA+46051   9.165  42.361  13.351
77579NA+    NA+46052   6.918  12.775  12.417
77580NA+    NA+46053  28.470  32.585   3.314
77581NA+    NA+46054  34.525  35.020  13.422
77582NA+    NA+46055  20.642  34.915   0.964
77583NA+    NA+46056  33.072   6.828  12.974
77584NA+    NA+46057  14.272  25.158  14.317
77585NA+    NA+46058  43.775  19.104  11.421
77586NA+    NA+46059  19.271   0.399   3.658
77587NA+    NA+46060  39.456  33.411  13.509
77588NA+    NA+46061  10.796  14.094  11.574
77589NA+    NA+46062   8.317  15.316  10.974
77590NA+    NA+46063  20.645   6.904  10.980
77591NA+    NA+46064  40.479  27.178  14.317
77592NA+    NA+46065   9.850   3.883  10.466
77593NA+    NA+46066  39.950  17.233  10.589
77594NA+    NA+46067  19.748  20.131   1.788
77595NA+    NA+46068  21.705  31.034  10.922
77596NA+    NA+46069  11.296  41.801  11.908
77597NA+    NA+46070  13.756   0.323   4.316
77598NA+    NA+46071  26.557  40.364   4.807
77599NA+    NA+46072  34.108  24.525  12.010
77600NA+    NA+46073  43.021   5.417   0.258
77601NA+    NA+46074  10.775  20.237  11.451
77602NA+    NA+46075  16.114  17.152   9.963
77603NA+    NA+46076   6.735  21.198  14.832
77604NA+    NA+46077  28.048  16.734   3.685
77605NA+    NA+46078  35.423  20.565   2.705
77606NA+    NA+46079  26.125  30.528  14.790
77607NA+    NA+46080  24.522  38.383  14.943
77608NA+    NA+46081  16.579  12.284  10.492
77609NA+    NA+46082  43.940  22.167  12.823
77610NA+    NA+46083  31.052  33.016   3.758
77611NA+    NA+46084   3.237  40.919  12.004
77612NA+    NA+46085   3.849  19.703   4.327
77613NA+    NA+46086  44.002   6.388   0.851
77614NA+    NA+46087   9.313  22.033  10.952
77615NA+    NA+46088  33.533  36.000   3.800
77616NA+    NA+46089  21.511  38.408   4.699
77617NA+    NA+46090  28.949  36.992   4.797
77618NA+    NA+46091  42.421  43.006   4.804
77619NA+    NA+46092   1.322  18.070   2.712
77620NA+    NA+46093  38.841  10.856  13.820
77621NA+    NA+46094  20.248  21.107  14.289
77622NA+    NA+46095  30.130  14.291   4.125
77623NA+    NA+46096  21.674   0.755   4.127
77624NA+    NA+46097  12.134  30.048   1.737
77625NA+    NA+46098  39.938  34.064  13.332
77626NA+    NA+46099  33.532   5.310   1.419
77627NA+    NA+46100  19.652  14.202   2.756
77628NA+    NA+46101  29.570   3.252   4.777
77629NA+    NA+46102  27.598  29.599   3.303
77630NA+    NA+46103  13.162  38.479   3.295
77631NA+    NA+46104  27.194  38.538   4.622
77632NA+    NA+46105  16.161  40.404   1.699
77633NA+    NA+46106  22.708  40.942   0.346
77634NA+    NA+46107  16.687   6.752  10.613
77635NA+    NA+46108  10.224  31.555   0.915
77636NA+    NA+46109  16.147  32.537  10.633
77637NA+    NA+46110  11.698  20.088   3.648
77638NA+    NA+46111   4.709   4.324  14.512
77639NA+    NA+46112  30.479  32.049  12.513
77640NA+    NA+46113  23.575  23.705   1.906
77641NA+    NA+46114  38.469  35.413   2.329
77642NA+    NA+46115  24.162  13.783   0.412
77643NA+    NA+46116  34.031  36.562   4.704
77644NA+    NA+46117  31.643  13.766  14.385
77645NA+    NA+46118  12.281  23.010  11.123
77646NA+    NA+46119  34.025  26.009  12.840
77647NA+    NA+46120  43.512   0.875  13.448
77648NA+    NA+46121  29.648   9.753   4.656
77649NA+    NA+46122  23.114  12.765   5.581
77650NA+    NA+46123  26.678  28.048   2.408
77651NA+    NA+46124  14.703  26.953  13.431
77652NA+    NA+46125   5.337  35.547  11.574
77653NA+    NA+46126  42.326   2.955   2.702
77654NA+    NA+46127  33.892  34.029   4.640
77655NA+    NA+46128   6.786  12.792  11.429
77656NA+    NA+46129  42.978  44.329  14.841
77657NA+    NA+46130  34.970   2.774   3.684
77658NA+    NA+46131   2.395  22.507  10.031
77659NA+    NA+46132   7.859   2.363   0.766
77660NA+    NA+46133  16.293  27.493  13.323
77661NA+    NA+46134   2.352  23.537  11.087
77662NA+    NA+46135   9.863   5.414   4.185
77663NA+    NA+46136  35.415   5.908  14.390
77664NA+    NA+46137   9.204   7.282   3.178
77665NA+    NA+46138   1.883   3.245   3.846
77666NA+    NA+46139  33.523   7.389  14.838
77667NA+    NA+46140  19.710  23.630  13.426
77668NA+    NA+46141  16.591  32.053  13.483
77669NA+    NA+46142  44.956   0.313  11.529
77670NA+    NA+46143  30.504  37.981  10.586
77671NA+    NA+46144   1.416  44.856  10.471
77672NA+    NA+46145  31.425  33.905  11.528
77673NA+    NA+46146  21.646   4.936   0.483
77674NA+    NA+46147  10.800  22.691  13.507
77675NA+    NA+46148  11.793  19.570   1.825
77676NA+    NA+46149   9.831  35.961  14.290
77677NA+    NA+46150  40.518  39.342  14.283
77678NA+    NA+46151   6.383  16.299   5.763
77679NA+    NA+46152  35.588  30.909  14.332
77680NA+    NA+46153  35.024   4.706  12.063
77681NA+    NA+46154  29.521  43.954   4.235
77682NA+    NA+46155  11.794  30.968  10.956
77683NA+    NA+46156   1.380  11.169   2.277
77684NA+    NA+46157  30.582  29.118   0.271
77685NA+    NA+46158  26.614  37.579   0.752
77686NA+    NA+46159  35.409  40.812  12.858
77687NA+    NA+46160  22.563   7.777   2.372
77688NA+    NA+46161  10.867  17.209  13.542
77689NA+    NA+46162   8.679  36.893  11.063
77690NA+    NA+46163  44.450  43.497   3.742
77691NA+    NA+46164  23.688  41.520   2.825
77692NA+    NA+46165  40.834  21.575   3.193
77693NA+    NA+46166  13.699  36.057  13.338
77694NA+    NA+46167  11.320  44.816  13.934
77695NA+    NA+46168  44.449  31.587  10.998
77696NA+    NA+46169  33.618  39.871   3.793
77697NA+    NA+46170  16.189  34.995   3.790
77698NA+    NA+46171  29.076  39.821  10.629
77699NA+    NA+46172  29.944  36.881   2.402
77700NA+    NA+46173  27.601  11.311  11.986
77701NA+    NA+46174   0.901  29.920  13.344
77702NA+    NA+46175   6.864  38.958  11.980
77703NA+    NA+46176  35.966  27.950   1.303
77704NA+    NA+46177  23.016   8.823   4.807
77705NA+    NA+46178  19.614  15.300   2.750
77706NA+    NA+46179   5.304  42.817  11.943
77707NA+    NA+46180  40.312   4.272  13.471
77708NA+    NA+46181  41.444   1.446   3.830
77709NA+    NA+46182  24.203  14.770  14.805
77710NA+    NA+46183  35.023  42.342   1.418
77711NA+    NA+46184   5.875  23.729  12.572
77712NA+    NA+46185  19.079  12.643  12.899
77713NA+    NA+46186  24.592  41.962   1.731
77714NA+    NA+46187  24.175  10.383   0.808
77715NA+    NA+46188  14.786  17.151  12.888
77716NA+    NA+46189  12.193  43.956   3.347
77717NA+    NA+46190  10.779  10.847   2.203
77718NA+    NA+46191  37.464  21.749  10.610
77719NA+    NA+46192  18.642  37.351   3.285
77720NA+    NA+46193  37.352  16.240   2.230
77721NA+    NA+46194   5.427   3.366  14.509
77722NA+    NA+46195   9.203  12.745  13.032
77723NA+    NA+46196  17.770  29.432  14.463
77724NA+    NA+46197  33.485  43.341   2.679
77725NA+    NA+46198   6.182  23.548   3.667
77726NA+    NA+46199  13.813   0.788  10.503
77727NA+    NA+46200  36.479   2.387  11.984
77728NA+    NA+46201  26.463  36.016  11.537
77729NA+    NA+46202  10.672  43.843  13.437
77730NA+    NA+46203   0.462   5.922  12.473
77731NA+    NA+46204  34.969  17.276   4.776
77732NA+    NA+46205   6.417  25.155   4.250
77733NA+    NA+46206  20.234  44.261   0.394
77734NA+    NA+46207  23.211  44.864  12.012
77735NA+    NA+46208  32.019  44.419   1.898
77736NA+    NA+46209  34.070  13.157  14.423
77737NA+    NA+46210  28.135  21.542  11.113
77738NA+    NA+46211   9.704   5.796   3.323
77739NA+    NA+46212  42.801  26.689   3.738
77740NA+    NA+46213   8.837  25.596   4.191
77741NA+    NA+46214   4.283   3.224   4.624
77742CL-    CL-46215  11.307  31.907   1.710
77743CL-    CL-46216   3.715  22.622   0.918
77744CL-    CL-46217   7.811  10.770  14.906
77745CL-    CL-46218  13.283   0.280   3.347
77746CL-    CL-46219  25.058  14.269   2.804
77747CL-    CL-46220  14.271  20.111  12.467
77748CL-    CL-46221   1.867  17.195   2.237
77749CL-    CL-46222   5.253  32.918  14.768
77750CL-    CL-46223  25.144  39.867   2.805
77751CL-    CL-46224   6.754   3.837  11.448
77752CL-    CL-46225  18.081  28.540   3.721
77753CL-    CL-46226  23.135  17.219  13.862
77754CL-    CL-46227   4.431  24.144  11.128
77755CL-    CL-46228   9.739  26.489   3.717
77756CL-    CL-46229  36.369   7.887  13.351
77757CL-    CL-46230  25.691  15.718  12.849
77758CL-    CL-46231  38.438  14.121   4.259
77759CL-    CL-46232   2.841  38.533  14.028
77760CL-    CL-46233   0.265   9.390   0.821
77761CL-    CL-46234  37.342  29.042   1.300
77762CL-    CL-46235  19.142  11.623  13.953
77763CL-    CL-46236   7.309  17.095  14.001
77764CL-    CL-46237  36.457  17.116   2.671
77765CL-    CL-46238   4.860  12.778   4.353
77766CL-    CL-46239  23.130  10.792  13.514
77767CL-    CL-46240  40.990   2.886  14.019
77768CL-    CL-46241  10.347  13.217  14.394
77769CL-    CL-46242   5.423  15.607  14.810
77770CL-    CL-46243  28.156  44.916  13.808
77771CL-    CL-46244  42.287  44.912  14.487
77772CL-    CL-46245  21.053  23.047   4.159
77773CL-    CL-46246  29.174  28.439   0.783
77774CL-    CL-46247  13.327  30.619  13.952
77775CL-    CL-46248   7.683  32.476   3.652
77776CL-    CL-46249   0.852  18.100  10.509
77777CL-    CL-46250   9.677   3.768   3.739
77778CL-    CL-46251  14.094  35.993   4.819
77779CL-    CL-46252  30.578  17.148   2.849
77780CL-    CL-46253  36.418   9.366  13.893
77781CL-    CL-46254  42.403  30.106  11.885
77782CL-    CL-46255  28.083  39.811  13.832
77783CL-    CL-46256  11.650  18.238  11.057
77784CL-    CL-46257  17.067  34.081   1.392
77785CL-    CL-46258  10.167  22.113   4.350
77786CL-    CL-46259  34.976  39.463  13.002
77787CL-    CL-46260  38.882   3.402  10.088
77788CL-    CL-46261  42.011  29.651   4.833
77789CL-    CL-46262  10.139  41.834   1.451
77790CL-    CL-46263  35.093  30.909   1.247
77791CL-    CL-46264  34.588  27.976  12.031
77792CL-    CL-46265  35.565  31.965   3.231
77793CL-    CL-46266  36.880  11.736   2.743
77794CL-    CL-46267  14.742  38.549  14.456
77795CL-    CL-46268  43.819   6.221   4.147
77796CL-    CL-46269  19.656   9.756   1.324
77797CL-    CL-46270  34.475  37.355   1.766
77798CL-    CL-46271   8.892  35.419   3.377
77799CL-    CL-46272  30.522  16.163  14.932
77800CL-    CL-46273   9.651  31.497   2.310
77801CL-    CL-46274   2.391  44.361  12.517
77802CL-    CL-46275  16.777  29.035  13.395
77803CL-    CL-46276  23.619   1.947  11.589
77804CL-    CL-46277  44.370  39.556  11.526
77805CL-    CL-46278  12.693  31.575  13.453
77806CL-    CL-46279  21.157  16.150  11.093
77807CL-    CL-46280   0.949  16.624  10.643
77808CL-    CL-46281  41.296  43.445   2.350
77809CL-    CL-46282  35.003  28.958   0.895
77810CL-    CL-46283  22.678  33.574   1.337
77811CL-    CL-46284  21.532  20.626   1.230
77812CL-    CL-46285  34.919  23.115   1.374
77813CL-    CL-46286  34.386   4.828  13.407
77814CL-    CL-46287  14.682  21.208   3.782
77815CL-    CL-46288   0.905  26.119   1.790
77816CL-    CL-46289  34.576  29.584  11.861
77817CL-    CL-46290  42.824  40.973  11.890
77818CL-    CL-46291   4.881  26.999  13.898
77819CL-    CL-46292  32.422  44.479  14.012
77820CL-    CL-46293  31.477  16.127   1.896
77821CL-    CL-46294  25.047  37.926   2.873
77822CL-    CL-46295  16.685  38.967   3.759
77823CL-    CL-46296  28.631   1.445   4.169
77824CL-    CL-46297  28.972  21.544  12.354
77825CL-    CL-46298  42.291  42.970   2.309
77826CL-    CL-46299  31.634  23.682   9.456
77827CL-    CL-46300  20.574  16.582  11.888
77828CL-    CL-46301  15.243  19.139  14.276
77829CL-    CL-46302  25.118  44.481  13.355
77830CL-    CL-46303   8.226   2.956  14.354
77831CL-    CL-46304  14.827  29.472  12.888
77832CL-    CL-46305   5.883  23.654   1.777
77833CL-    CL-46306  30.617  17.165  11.059
77834CL-    CL-46307  15.774  15.716  10.506
77835CL-    CL-46308  41.299  14.181   4.335
77836CL-    CL-46309  32.570  41.003  13.795
77837CL-    CL-46310  44.434  12.305  14.515
77838CL-    CL-46311  44.929  22.726  13.853
77839CL-    CL-46312  22.579   7.774   1.751
77840CL-    CL-46313  28.477  20.566   4.753
77841CL-    CL-46314  33.592  10.829   2.666
77842CL-    CL-46315  32.428  26.092  11.992
77843CL-    CL-46316  22.741   8.734   1.347
77844CL-    CL-46317   3.736  22.227  10.408
77845CL-    CL-46318   5.905   3.427   3.663
77846CL-    CL-46319  32.020  22.590   1.873
77847CL-    CL-46320  36.091  20.196   0.786
77848CL-    CL-46321  15.142  29.990  11.975
77849CL-    CL-46322   8.718  18.242  14.929
77850CL-    CL-46323  40.897  16.166  11.117
77851CL-    CL-46324  11.687  40.858   3.871
77852CL-    CL-46325  26.018   3.303  11.032
77853CL-    CL-46326  31.013  38.893   4.762
77854CL-    CL-46327  21.562   4.401  12.345
77855CL-    CL-46328  31.981  43.303   4.758
77856CL-    CL-46329   5.425   8.870   1.829
77857CL-    CL-46330  44.497  17.574  14.307
77858CL-    CL-46331  29.532  22.089   0.886
77859CL-    CL-46332  20.039  39.027  13.925
77860CL-    CL-46333  14.334  31.065  11.580
77861CL-    CL-46334  14.650  11.801  11.918
77862CL-    CL-46335  41.997  18.294  14.803
77863CL-    CL-46336   0.423  16.769   2.316
77864CL-    CL-46337  29.083  36.944   2.874
77865CL-    CL-46338  34.967  15.188   3.188
77866CL-    CL-46339  32.499  15.158   2.326
77867CL-    CL-46340  38.069  30.483   1.834
77868CL-    CL-46341   5.344  35.434   2.296
77869CL-    CL-46342   4.301  39.817   2.872
77870CL-    CL-46343  25.673  15.640   3.731
77871CL-    CL-46344   3.345  31.906  10.466
77872CL-    CL-46345  42.000  29.978   0.828
77873CL-    CL-46346  32.583   0.834   0.822
77874CL-    CL-46347  42.486  26.626  13.849
77875CL-    CL-46348  22.689  28.027  12.419
77876CL-    CL-46349  19.066  38.456  10.563
77877CL-    CL-46350  25.078  38.974   4.331
77878CL-    CL-46351  41.530  30.049   2.862
77879CL-    CL-46352  41.991   8.288   2.189
77880CL-    CL-46353   6.300  14.695  14.489
77881CL-    CL-46354  43.492  23.698   4.774
77882CL-    CL-46355  42.336   6.727   0.812
77883CL-    CL-46356  42.963  17.785   2.405
77884CL-    CL-46357  18.600  11.141  12.539
77885CL-    CL-46358  12.768  31.411  10.897
77886CL-    CL-46359  42.434   1.847   3.851
77887CL-    CL-46360   5.931  25.708  13.527
77888CL-    CL-46361   0.978   1.806   3.736
77889CL-    CL-46362  41.420  24.630   1.856
77890CL-    CL-46363   7.205  40.324   2.271
77891CL-    CL-46364  21.642   5.708  11.913
77892CL-    CL-46365  34.582  21.148   1.413
77893CL-    CL-46366  43.284  30.133  11.500
77894CL-    CL-46367  18.668  44.000  12.012
77895CL-    CL-46368  38.056  40.451   4.334
77896CL-    CL-46369  18.685  41.932  14.490
77897CL-    CL-46370  17.780  19.088  12.523
77898CL-    CL-46371  30.035  14.834   3.655
77899CL-    CL-46372  23.147  44.836  12.401
77900CL-    CL-46373   2.303  37.395   3.213
77901CL-    CL-46374   7.264   9.276   3.177
77902CL-    CL-46375  40.962  33.116  12.488
77903CL-    CL-46376  20.562  24.997  11.416
77904CL-    CL-46377  13.758  23.182   2.396
77905CL-    CL-46378  44.297  14.280  12.824
77906CL-    CL-46379  40.053  26.198  10.601
77907CL-    CL-46380  25.053   7.332  12.962
77908CL-    CL-46381  33.603  38.880  13.932
77909CL-    CL-46382  11.868  23.162  14.482
77910CL-    CL-46383  10.789  27.174   1.219
77911CL-    CL-46384  30.910  27.054  10.536
77912CL-    CL-46385  16.241   5.804  13.974
77913CL-    CL-46386  20.157  34.046   3.784
77914CL-    CL-46387  33.075  26.514   1.724
77915CL-    CL-46388  32.073  11.639  13.462
77916CL-    CL-46389  22.171  30.630   3.713
77917CL-    CL-46390   7.749  44.835   3.762
77918CL-    CL-46391   4.226   7.789  14.770
77919CL-    CL-46392   2.358   6.250   5.258
77920CL-    CL-46393  15.148  12.144  12.535
77921CL-    CL-46394  17.111   9.759   2.788
77922CL-    CL-46395  38.478   6.271  12.019
77923CL-    CL-46396   3.933   7.726   2.848
77924CL-    CL-46397  11.702  33.559  10.480
77925CL-    CL-46398  22.586  40.967   1.415
77926CL-    CL-46399  36.439  36.087   1.822
77927CL-    CL-46400   9.847   2.870  14.460
77928CL-    CL-46401  43.375  36.412   1.425
77929CL-    CL-46402  33.029  33.905  13.948
77930CL-    CL-46403  31.122  32.410   2.217
77931CL-    CL-46404   8.359  37.869   2.843
77932CL-    CL-46405   6.854   1.962   1.298
77933CL-    CL-46406  18.069  40.937  12.577
77934CL-    CL-46407   9.384   6.676  10.500
77935CL-    CL-46408   4.208  17.188  14.419
77936CL-    CL-46409  22.172  35.062   3.215
77937CL-    CL-46410  26.055   8.390  13.343
77938CL-    CL-46411  12.852   2.743  10.612
77939CL-    CL-46412  30.546   4.208  14.489
77940CL-    CL-46413   1.290   0.483   2.774
77941CL-    CL-46414  36.556  28.446  10.420
77942CL-    CL-46415  32.954  36.434   4.288
77943CL-    CL-46416  24.499  24.546   3.206
77944CL-    CL-46417   2.293  32.102   0.401
77945CL-    CL-46418   2.897  18.667   4.799
77946CL-    CL-46419  22.704  28.065   2.673
77947CL-    CL-46420   9.275  10.294  13.481
77948CL-    CL-46421  14.217  11.153  12.049
77949CL-    CL-46422  15.220   4.216   3.154
77950CL-    CL-46423  27.986  24.519   3.683
77951CL-    CL-46424   9.367  23.733   5.169
77952CL-    CL-46425  14.329  39.500  11.877
77953CL-    CL-46426  17.649   2.961  11.057
77954CL-    CL-46427  19.123  36.064  13.538
77955CL-    CL-46428  14.800  29.091   2.259
77956CL-    CL-46429  14.160  20.151   0.276
77957CL-    CL-46430  20.080  27.552  13.053
77958CL-    CL-46431  41.440  26.047  14.440
77959CL-    CL-46432   9.317  19.142  14.884
77960CL-    CL-46433  10.658  11.768  14.964
77961CL-    CL-46434  37.861  14.669  13.982
77962CL-    CL-46435  36.007  17.235  12.408
77963CL-    CL-46436  28.484  34.995  11.985
77964CL-    CL-46437  18.051  20.061   3.843
77965CL-    CL-46438  19.606   0.840   1.442
77966CL-    CL-46439   0.776   7.807   1.341
77967CL-    CL-46440  19.187  42.449   2.726
77968CL-    CL-46441  29.174   4.235  12.428
77969CL-    CL-46442  15.677  36.397   5.105
77970CL-    CL-46443  21.155  43.456   1.928
77971CL-    CL-46444   2.421  40.845  10.579
77972CL-    CL-46445  15.219   4.346   3.717
77973CL-    CL-46446  13.627  20.558  10.581
77974CL-    CL-46447  35.437  32.923   3.866
77975CL-    CL-46448  43.513  36.978  11.875
77976CL-    CL-46449  36.953  20.210   1.359
77977CL-    CL-46450  23.579  43.931  13.972
77978CL-    CL-46451   1.438  43.914  13.376
77979CL-    CL-46452   7.893  24.115   5.240
77980CL-    CL-46453  31.617  38.480  12.540
77981CL-    CL-46454  10.238  39.943  14.963
77982CL-    CL-46455  40.334  16.793   0.828
77983CL-    CL-46456  22.575   8.356   4.717
77984CL-    CL-46457   6.817  31.121  14.954
77985CL-    CL-46458   5.708  36.428   1.894
77986CL-    CL-46459   1.355   6.321  13.530
77987CL-    CL-46460  24.147   3.316  14.861
77988CL-    CL-46461   9.728  43.324   2.671
77989CL-    CL-46462  37.478  27.094  13.449
77990CL-    CL-46463  26.616  39.478  14.459
77991CL-    CL-46464  40.799  43.934   2.808
77992CL-    CL-46465  43.324  44.995   4.285
77993CL-    CL-46466  27.144  12.818   0.932
77994CL-    CL-46467  21.172  27.641  14.311
77995CL-    CL-46468  27.576  12.274  13.822
77996CL-    CL-46469  14.113  35.513  14.797
77997CL-    CL-46470  12.204   5.421  12.995
77998CL-    CL-46471  36.927   9.325  10.891
77999CL-    CL-46472  43.276  35.056  13.312
78000CL-    CL-46473  35.466   8.362   2.766
78001CL-    CL-46474  42.401  14.593  13.011
78002CL-    CL-46475  13.240  25.018   4.335
78003CL-    CL-46476  32.950  29.125   3.811
78004CL-    CL-46477   2.412  35.082   0.846
78005CL-    CL-46478   2.946  25.088   2.213
78006CL-    CL-46479  33.519  17.768  13.328
78007CL-    CL-46480  34.944   4.234   1.707
78008CL-    CL-46481  11.676   5.349   4.236
78009CL-    CL-46482  41.831  41.453   1.852
78010CL-    CL-46483  39.943  13.809  13.844
78011CL-    CL-46484   5.427  12.224   3.274
78012CL-    CL-46485  20.039  40.455   1.303
78013CL-    CL-46486  30.118  15.251  14.361
78014CL-    CL-46487  28.519   7.681   2.254
78015CL-    CL-46488   5.733   9.364   3.761
78016CL-    CL-46489  14.165  14.801  12.058
78017CL-    CL-46490  35.090  15.096   1.333
78018CL-    CL-46491  35.010  17.192   4.153
78019CL-    CL-46492  23.059  32.994  12.046
78020CL-    CL-46493  12.185  35.040   0.898
78021CL-    CL-46494  22.178   4.795   1.737
78022CL-    CL-46495   3.862  19.538  13.826
78023CL-    CL-46496  40.802  14.653  13.425
78024CL-    CL-46497  34.935  42.839   5.202
78025CL-    CL-46498  20.164   1.857   5.215
78026CL-    CL-46499  37.421  24.664  12.847
78027CL-    CL-46500  41.840   7.831  14.473
78028CL-    CL-46501  38.428  34.567   0.948
78029CL-    CL-46502  22.675  16.107  11.984
78030CL-    CL-46503  15.281  24.639  12.070
78031CL-    CL-46504  11.261  18.659   3.765
78032CL-    CL-46505  25.191  13.772  13.996
78033CL-    CL-46506  40.380  33.875   4.631
78034CL-    CL-46507  15.685  43.339   1.793
78035CL-    CL-46508   1.439   5.381  11.378
78036CL-    CL-46509  29.111  44.465  14.003
78037CL-    CL-46510  15.171  44.842  13.307
78038CL-    CL-46511  39.472  41.927  13.375
78039CL-    CL-46512   9.757  12.335  11.606
78040CL-    CL-46513  12.677  38.461   1.917
78041CL-    CL-46514  36.556  20.075  14.969
78042CL-    CL-46515   2.266  17.560   2.739
78043CL-    CL-46516  12.758   2.419  11.389
78044CL-    CL-46517  15.212  37.982   5.601
78045CL-    CL-46518  17.645  17.727   1.849
78046CL-    CL-46519   1.382  15.114   0.934
78047CL-    CL-46520  25.563   9.196   4.333
78048CL-    CL-46521  13.134  26.031   1.750
78049CL-    CL-46522  11.305  26.068  12.547
78050CL-    CL-46523  14.109  32.534  11.426
78051CL-    CL-46524   2.887  24.991  13.487
78052CL-    CL-46525   4.785  20.736  13.340
78053CL-    CL-46526  30.525  36.917   0.935
78054CL-    CL-46527   9.395  43.396   1.732
78055CL-    CL-46528  40.359  19.063  13.437
78056CL-    CL-46529  24.651  27.104  10.899
78057CL-    CL-46530  11.729  28.034   3.179
78058CL-    CL-46531   1.874  41.950  13.495
78059CL-    CL-46532   1.270  31.575  14.861
78060CL-    CL-46533   6.297  44.790   2.671
78061CL-    CL-46534  42.934   4.884  13.426
78062CL-    CL-46535  15.736   9.280   3.809
78063CL-    CL-46536   8.753  27.043  14.803
78064CL-    CL-46537  36.575   1.924  10.988
78065CL-    CL-46538   7.272  33.618  13.916
78066CL-    CL-46539  35.087   4.272   4.730
78067CL-    CL-46540   3.376  40.963  11.491
78068CL-    CL-46541   0.909  40.982   4.266
78069CL-    CL-46542   2.277  13.610  11.372
78070CL-    CL-46543   1.248   7.720  10.605
78071CL-    CL-46544  22.165  17.168   4.669
78072CL-    CL-46545  12.676  40.467   2.795
78073CL-    CL-46546  30.475  17.268   1.852
78074CL-    CL-46547   8.685  35.418  10.558
78075CL-    CL-46548  23.718   5.297  10.905
78076CL-    CL-46549  40.506   1.414   4.665
78077CL-    CL-46550  15.725   0.850  13.450
78078CL-    CL-46551   8.348   9.884   0.412
78079CL-    CL-46552   4.768  39.529   5.186
78080CL-    CL-46553  23.519  38.836  10.539
78081CL-    CL-46554   7.410  18.741   2.875
78082CL-    CL-46555  39.415  22.032  13.484
78083CL-    CL-46556  43.960  28.941   1.795
78084CL-    CL-46557  10.692  13.338  12.510
78085CL-    CL-46558   0.287  33.527   1.717
78086CL-    CL-46559  36.490  42.824   0.960
78087CL-    CL-46560  42.455  34.404  13.884
78088CL-    CL-46561  32.972  23.155  13.325
78089CL-    CL-46562  38.527  23.163   1.275
78090CL-    CL-46563  32.631  27.010  11.125
78091CL-    CL-46564   2.756   2.255  12.897
78092CL-    CL-46565   5.765  38.939  10.589
78093CL-    CL-46566  43.886  37.895  13.346
78094CL-    CL-46567  24.154  44.424   5.162
78095CL-    CL-46568  16.574  44.288   4.709
78096CL-    CL-46569  40.939  38.401  11.607
78097CL-    CL-46570   7.405  37.883   3.250
78098CL-    CL-46571  13.128  33.486  14.831
78099CL-    CL-46572  35.373  44.937   0.275
78100CL-    CL-46573  14.170  24.158   1.867
78101CL-    CL-46574   6.758   7.756   2.748
78102CL-    CL-46575   8.852   6.687   0.408
78103CL-    CL-46576  43.332   5.751  13.878
78104CL-    CL-46577  18.686  37.067   3.636
78105CL-    CL-46578  11.818  27.940  14.285
78106CL-    CL-46579  10.863   1.421   3.764
78107CL-    CL-46580  20.653  31.982  13.436
78108CL-    CL-46581  25.521   4.236   0.431
78109CL-    CL-46582   5.778  26.083  13.827
78110CL-    CL-46583  36.541  19.238  11.540
78111CL-    CL-46584   8.398  19.160  10.622
78112CL-    CL-46585  12.843  23.993  12.520
78113CL-    CL-46586   4.747  37.896   4.758
78114CL-    CL-46587  10.814  43.309  14.304
78115CL-    CL-46588  23.197  29.564  11.093
78116CL-    CL-46589  29.064  12.655  13.452
78117CL-    CL-46590  30.510  21.727   1.757
78118CL-    CL-46591  17.571   9.263   4.682
78119CL-    CL-46592  35.583   6.219  14.324
78120CL-    CL-46593  20.745  22.705   0.413
78121CL-    CL-46594  22.181  41.391  12.454
78122CL-    CL-46595   5.315  44.448   1.768
78123CL-    CL-46596  26.650  40.444  11.390
78124CL-    CL-46597  19.176   9.346  10.630
78125CL-    CL-46598  23.595  17.208   4.813
78126CL-    CL-46599  37.442  32.917  13.914
78127CL-    CL-46600  35.096   3.837  13.883
78128CL-    CL-46601  41.794  26.469   9.992
78129CL-    CL-46602   8.162   3.409   2.718
78130CL-    CL-46603  16.779  19.144  13.311
78131CL-    CL-46604   2.881  43.418   3.709
78132CL-    CL-46605   5.296  27.020   4.158
78133CL-    CL-46606  30.974  33.601  12.477
78134CL-    CL-46607  30.940  36.483   0.800
78135CL-    CL-46608  36.464   7.793   4.641
78136CL-    CL-46609  36.433  29.639   2.872
78137CL-    CL-46610  25.638  13.608  11.452
78138CL-    CL-46611   3.395  34.525  12.978
78139CL-    CL-46612  39.896  24.484   4.151
78140CL-    CL-46613  11.135  13.739   3.785
78141CL-    CL-46614   1.294  38.492   1.830
78142CL-    CL-46615  24.059  21.034   3.790
78143CL-    CL-46616  35.535   6.788   1.703
78144CL-    CL-46617   9.648  22.561   1.287
78145CL-    CL-46618  35.957  38.567   2.256
78146CL-    CL-46619  32.616  38.852   4.123
78147CL-    CL-46620  22.089  25.068  11.534
78148CL-    CL-46621   6.202   7.243   1.830
78149CL-    CL-46622   4.285  36.521  14.347
78150CL-    CL-46623  17.795  29.141  13.872
78151CL-    CL-46624  13.169  19.652  14.843
78152CL-    CL-46625  30.559   1.843  12.450
78153CL-    CL-46626  16.129  24.177   4.745
78154CL-    CL-46627  15.121   5.826  12.377
78155CL-    CL-46628   6.696  14.719   4.301
78156CL-    CL-46629   7.870  33.903   4.608
78157CL-    CL-46630  29.569  20.589  14.328
78158CL-    CL-46631   1.321   7.811   3.700
78159CL-    CL-46632  36.404  44.910   4.316
78160CL-    CL-46633  39.058  25.107  10.026
78161CL-    CL-46634  39.384  13.156   4.193
78162CL-    CL-46635  35.092  30.559   1.293
78163CL-    CL-46636   2.745   4.428   3.241
78164CL-    CL-46637   2.420  44.417   3.863
78165CL-    CL-46638  41.407   2.456   0.283
78166CL-    CL-46639   8.868  13.607   3.847
78167CL-    CL-46640  25.113  25.578   0.315
78168CL-    CL-46641  33.555  42.888  14.351
78169CL-    CL-46642  10.249   2.736  12.917
78170CL-    CL-46643  24.200   9.838  11.444
78171CL-    CL-46644  13.659  14.745   3.662
78172CL-    CL-46645   8.330  41.511   1.326
78173CL-    CL-46646   4.779  44.300   2.385
78174CL-    CL-46647  20.264  29.001   0.296
78175CL-    CL-46648   2.727  15.741   2.355
78176CL-    CL-46649  28.613  33.420   0.893
78177CL-    CL-46650   4.248  44.408  14.486
78178CL-    CL-46651   2.430  42.363   0.962
78179CL-    CL-46652  41.839  20.537  14.987
78180CL-    CL-46653  38.873   4.208  10.946
78181CL-    CL-46654  29.039  25.600  12.929
78182CL-    CL-46655  12.664  42.818  12.968
78183CL-    CL-46656  23.021  38.370  12.501
78184CL-    CL-46657  34.932  31.911  12.521
78185CL-    CL-46658   8.292  39.384   1.250
78186CL-    CL-46659   7.189   5.236  11.600
78187CL-    CL-46660  13.635  41.808   3.156
78188CL-    CL-46661  42.467  32.930  13.957
78189CL-    CL-46662  21.628   8.397  13.828
78190CL-    CL-46663  16.083  36.913  11.924
78191CL-    CL-46664  32.937   8.804  14.833
78192CL-    CL-46665  34.988  20.555   3.769
78193CL-    CL-46666  15.162   4.379  14.307
78194CL-    CL-46667   4.892   2.873  14.380
78195CL-    CL-46668  32.087   8.170  14.296
78196CL-    CL-46669  10.266  28.943  10.151
78197CL-    CL-46670   5.287   1.287   3.634
78198CL-    CL-46671  34.513  33.399  13.001
78199CL-    CL-46672  27.024   6.738   3.240
78200CL-    CL-46673  38.050  42.512  14.870
78201CL-    CL-46674  37.831  19.250  11.868
78202CL-    CL-46675  39.041  15.769  11.959
78203CL-    CL-46676  16.195   2.254   1.381
78204CL-    CL-46677   8.770  24.536  13.480
78205CL-    CL-46678   1.439  16.199  10.437
78206CL-    CL-46679  18.638  30.126  14.303
78207CL-    CL-46680   4.248  15.742   1.717
78208CL-    CL-46681  12.756  28.109  14.997
78209CL-    CL-46682  33.611   1.457  10.932
78210CL-    CL-46683   7.280  29.513   1.409
78211CL-    CL-46684  20.650  14.727   2.279
78212CL-    CL-46685   6.224  22.572   2.396
78213CL-    CL-46686  31.901  34.608  12.910
78214CL-    CL-46687  37.445   2.872  12.052
78215CL-    CL-46688  29.441  11.768   0.278
78216CL-    CL-46689  31.426  36.455  13.445
78217CL-    CL-46690  12.822  20.601  13.858
78218CL-    CL-46691  26.109   1.923   1.436
78219CL-    CL-46692  17.767  35.006  13.859
78220CL-    CL-46693  32.010   6.710  11.961
78221CL-    CL-46694  41.534   3.272  14.879
78222CL-    CL-46695  36.017  17.591  11.878
78223CL-    CL-46696  11.139  35.054  10.072
78224CL-    CL-46697  18.090  38.490  12.070
78225CL-    CL-46698   2.306   5.834   1.868
78226CL-    CL-46699   7.193  21.251   0.445
78227CL-    CL-46700  13.217   2.800  14.327
78228CL-    CL-46701  21.086   1.745  13.369
78229CL-    CL-46702  24.041  25.039   4.775
78230CL-    CL-46703  23.109  22.699   3.681
78231CL-    CL-46704  14.680  17.267  12.576
78232CL-    CL-46705  25.468  12.252   3.202
78233CL-    CL-46706  25.214  19.590   4.234
78234CL-    CL-46707  35.985  20.058  14.511
78235CL-    CL-46708  43.310  41.336   0.265
78236CL-    CL-46709  17.578  10.165   1.929
78237CL-    CL-46710  31.536  37.058   1.787
78238CL-    CL-46711  20.117  40.891  12.888
78239CL-    CL-46712  41.035  30.481   4.796
78240CL-    CL-46713  35.999   4.836  14.954
78241CL-    CL-46714  10.382  23.035  12.413
78242CL-    CL-46715  23.006  21.696  15.000
78243CL-    CL-46716  12.699   2.815   3.368
78244CL-    CL-46717  16.722  27.459   4.193
78245CL-    CL-46718   0.288  42.941  12.824
78246CL-    CL-46719  20.173  20.555  12.885
78247CL-    CL-46720  15.704   5.396   1.831
78248CL-    CL-46721  22.038  22.100  11.929
78249CL-    CL-46722  22.508  41.297  10.600
78250CL-    CL-46723  17.250  39.314   4.197
78251CL-    CL-46724   4.848  19.723  12.061
78252CL-    CL-46725   7.248  20.668  10.912
78253CL-    CL-46726  35.008  16.219   1.696
78254CL-    CL-46727  15.579  21.092   1.372
78255CL-    CL-46728   4.218  10.325   3.692
78256CL-    CL-46729  22.146  32.511  14.411
78257CL-    CL-46730  42.524   6.761   1.411
78258CL-    CL-46731  31.433   9.865   2.724
78259CL-    CL-46732  38.035  17.626  13.847
78260CL-    CL-46733  13.737  42.831  14.424
78261CL-    CL-46734  36.448  19.174   0.866
78262CL-    CL-46735  21.204  11.245   1.339
78263CL-    CL-46736  20.746  30.557  14.979
78264CL-    CL-46737  26.646   3.780   1.869
78265CL-    CL-46738   5.236  42.993  11.375
78266CL-    CL-46739  43.859   2.852  12.869
78267CL-    CL-46740  16.769  38.486   2.210
78268CL-    CL-46741  41.526  28.501   0.876
78269CL-    CL-46742   2.893  27.581   2.788
78270CL-    CL-46743  26.623  27.973  13.467
78271CL-    CL-46744  41.426  36.038  10.518
78272CL-    CL-46745  29.654  41.334  11.592
78273CL-    CL-46746  19.555  17.774  10.583
78274CL-    CL-46747  25.695  44.969   0.272
78275CL-    CL-46748  33.391  12.720   2.198
78276CL-    CL-46749  27.131  33.554  13.366
78277CL-    CL-46750  40.041  10.692   4.280
78278CL-    CL-46751  20.635  33.996  13.926
78279CL-    CL-46752   6.742   3.233  13.528
78280CL-    CL-46753  34.596  16.719   3.275
78281CL-    CL-46754  22.547   0.903   3.220
78282CL-    CL-46755  33.039  14.716  14.440
78283CL-    CL-46756  14.821   8.710  10.995
78284CL-    CL-46757  29.163  26.113   4.252
78285CL-    CL-46758   0.808   6.405   1.796
78286CL-    CL-46759   1.789  42.410   3.230
78287CL-    CL-46760  32.424  35.041  12.968
78288CL-    CL-46761   1.290  32.494  14.927
78289CL-    CL-46762   5.257  19.698  13.027
78290CL-    CL-46763  39.927  42.379   0.890
78291CL-    CL-46764  38.477   0.413  12.570
78292CL-    CL-46765  32.116  18.618   1.754
78293CL-    CL-46766  29.010  35.948   0.929
78294CL-    CL-46767  23.504  32.612   0.437
78295CL-    CL-46768  43.450   6.685  10.521
78296CL-    CL-46769  24.673  20.749  12.475
78297CL-    CL-46770  17.618   8.874  10.986
78298CL-    CL-46771  39.381  12.772  13.374
78299CL-    CL-46772  27.581  24.125   1.694
78300CL-    CL-46773  18.092   9.781   4.151
78301CL-    CL-46774   9.820  39.867   1.840
78302CL-    CL-46775   6.768  43.915   4.118
78303CL-    CL-46776   5.219  29.446   0.246
78304CL-    CL-46777  20.118   1.320   4.243
78305CL-    CL-46778   5.298   7.730  11.988
78306CL-    CL-46779  41.311  28.476  13.872
78307CL-    CL-46780  32.509   3.885   3.196
78308CL-    CL-46781  40.858  29.618  14.375
78309CL-    CL-46782   6.331  19.548  10.995
78310CL-    CL-46783  37.383   0.382   1.260
78311CL-    CL-46784  11.692  18.224  13.031
78312CL-    CL-46785   9.800  11.278   3.322
78313CL-    CL-46786  41.844  24.060   2.865
78314CL-    CL-46787  19.554  20.157   4.636
78315CL-    CL-46788   6.677  31.517  14.424
78316CL-    CL-46789  24.058  15.303   2.795
78317CL-    CL-46790  20.558  37.880   0.444
78318CL-    CL-46791  10.319  19.701  12.452
78319CL-    CL-46792  41.379  43.939   4.739
78320CL-    CL-46793  25.702  13.276  11.891
78321CL-    CL-46794  13.138   4.383  11.059
78322CL-    CL-46795  12.733  33.084   0.435
78323CL-    CL-46796  22.678  17.265  12.914
78324CL-    CL-46797  11.777  20.558   0.791
78325CL-    CL-46798  16.196   1.966   4.227
78326CL-    CL-46799  11.719  14.662  12.835
78327CL-    CL-46800  14.290  38.553   3.867
78328CL-    CL-46801  38.333  44.949  11.062
78329CL-    CL-46802  34.531  15.670  10.040
78330CL-    CL-46803  28.503  44.351  11.931
78331CL-    CL-46804  11.649  42.002  13.417
78332CL-    CL-46805  25.699  11.838   0.891
78333CL-    CL-46806   6.203  39.008  13.020
78334CL-    CL-46807  11.765  36.525  13.520
78335CL-    CL-46808  32.128   5.872  12.473
78336CL-    CL-46809  21.247  34.401  11.493
78337CL-    CL-46810  14.681  26.677   4.231
78338CL-    CL-46811  25.114  21.681   0.419
78339CL-    CL-46812  29.481   3.303   0.302
78340CL-    CL-46813  31.035  37.389  10.154
78341CL-    CL-46814   1.940  17.738   3.739
78342CL-    CL-46815   4.327  43.816  11.954
78343CL-    CL-46816  38.563  20.236   1.882
78344CL-    CL-46817   9.176  29.162  10.899
78345CL-    CL-46818  21.167   7.395  12.475
78346CL-    CL-46819  37.987   2.311  13.543
78347CL-    CL-46820  27.148  16.590   2.377
78348CL-    CL-46821  27.967   1.395  11.998
78349CL-    CL-46822   8.178  17.667   3.354
78350CL-    CL-46823  16.726  17.168   3.209
78351CL-    CL-46824  31.101  30.128   2.227
78352CL-    CL-46825  34.916   1.733   0.432
78353CL-    CL-46826  41.941  32.635   2.842
78354CL-    CL-46827  35.540  11.654   3.333
78355CL-    CL-46828  39.047  42.308   4.634
78356CL-    CL-46829  22.561  24.580   0.948
78357CL-    CL-46830  28.068   1.838  14.917
78358CL-    CL-46831  21.590  33.899  11.513
78359CL-    CL-46832  13.195  19.681  12.418
78360CL-    CL-46833  37.375   2.440  14.915
78361CL-    CL-46834  40.472  17.242  14.772
78362CL-    CL-46835   4.379   6.912   1.305
78363CL-    CL-46836  36.491  10.361  10.634
78364CL-    CL-46837   8.771  21.208   3.785
78365CL-    CL-46838   7.184  44.434  12.016
78366CL-    CL-46839  20.547  25.505  13.933
78367CL-    CL-46840  43.286  13.628   1.889
78368CL-    CL-46841  35.933  11.771  14.411
78369CL-    CL-46842  35.547   2.301   3.683
78370CL-    CL-46843  33.115  41.795   2.780
78371CL-    CL-46844   0.908   9.666   3.209
78372CL-    CL-46845  11.705  34.094  14.006
78373CL-    CL-46846  14.191  38.879   4.115
78374CL-    CL-46847  11.331  25.080  13.917
78375CL-    CL-46848  29.044  13.751   4.330
78376CL-    CL-46849   3.348  44.486  11.495
78377CL-    CL-46850  15.173   9.153  13.941
78378CL-    CL-46851  36.377   6.212  12.859
78379CL-    CL-46852  42.998  32.563   2.896
78380CL-    CL-46853  33.599  33.590  13.792
78381CL-    CL-46854   7.740   5.347   2.809
78382CL-    CL-46855  13.198   7.868  12.395
78383CL-    CL-46856   8.162  22.741  10.956
78384CL-    CL-46857   8.315  23.214   3.153
78385CL-    CL-46858  43.416  27.123  14.482
78386CL-    CL-46859  42.011  34.410   2.336
78387CL-    CL-46860  42.457   6.400  13.817
78388CL-    CL-46861  37.018   2.471   2.795
78389CL-    CL-46862  40.460  10.648   1.217
78390CL-    CL-46863  16.754  28.153   3.643
78391CL-    CL-46864  41.375  22.614  13.342
78392CL-    CL-46865  21.113  24.543  12.893
78393CL-    CL-46866  32.460  43.949   2.340
78394CL-    CL-46867  42.805  24.566  14.463
78395CL-    CL-46868  30.465  36.863  12.000
78396CL-    CL-46869   3.919  29.944   0.454
78397CL-    CL-46870  24.614   9.238   4.705
78398CL-    CL-46871  38.365   7.840  14.945
78399CL-    CL-46872  13.157  14.280  11.081
78400CL-    CL-46873   5.401  40.316  10.915
78401CL-    CL-46874  13.706  23.151  14.887
78402CL-    CL-46875   3.730  38.532  14.278
78403CL-    CL-46876  39.497  30.617  11.898
78404CL-    CL-46877   9.710  33.102   3.216
78405CL-    CL-46878  17.074  23.142  13.509
78406CL-    CL-46879  41.801   2.463   4.234
78407CL-    CL-46880  33.508   7.171   1.353
78408CL-    CL-46881   6.272  41.530  11.570
78409CL-    CL-46882  13.131  36.489  11.393
78410CL-    CL-46883  34.451  20.228  11.072
78411CL-    CL-46884  19.196   2.272  11.505
78412CL-    CL-46885  29.050   6.280  10.413
78413CL-    CL-46886  31.605  24.078   1.894
78414CL-    CL-46887  35.997  22.571   1.413
78415CL-    CL-46888   5.767  32.949   3.168
78416CL-    CL-46889   1.252  14.275   1.251
78417CL-    CL-46890  11.853  37.036   1.787
78418CL-    CL-46891  20.241   5.714  12.364
78419CL-    CL-46892  44.262  19.159   3.223
78420CL-    CL-46893  25.547   0.413  12.052
78421CL-    CL-46894   2.783  41.465   3.758
78422CL-    CL-46895  11.268  27.565  12.975
78423CL-    CL-46896   9.246  12.215  12.383
78424CL-    CL-46897  37.005  20.733   1.935
78425CL-    CL-46898   1.376  24.607   2.731
78426CL-    CL-46899  21.100  12.187  10.928
78427CL-    CL-46900  41.393  29.603   3.362
78428CL-    CL-46901  29.566  13.729  11.580
78429CL-    CL-46902  22.185  38.524  11.448
78430CL-    CL-46903  39.357  38.996  13.496
78431CL-    CL-46904   9.328  33.446   1.822
78432CL-    CL-46905   4.289  32.489  13.441
78433CL-    CL-46906   7.889  31.542   4.294
78434CL-    CL-46907  21.200  14.788  10.019
78435CL-    CL-46908  36.478   9.185   2.332
78436CL-    CL-46909   1.891  42.886  10.498
78437CL-    CL-46910  44.502  34.572   4.774
78438CL-    CL-46911   7.303  22.219   2.800
78439CL-    CL-46912  15.790  14.223   4.301
78440CL-    CL-46913  11.809  27.582   3.703
78441CL-    CL-46914  39.014  29.514  13.443
78442CL-    CL-46915   5.403  18.231   3.786
78443CL-    CL-46916  37.937  38.559  14.303
78444CL-    CL-46917  15.633  24.508  10.517
78445CL-    CL-46918   3.931   8.162   4.223
78446CL-    CL-46919  31.905  10.193  11.079
78447CL-    CL-46920  19.158  11.739   2.317
78448CL-    CL-46921  43.827  36.501  11.024
78449CL-    CL-46922  19.745  35.406  14.819
78450CL-    CL-46923  19.282  29.470   2.180
78451CL-    CL-46924  38.467  30.921  14.284
78452CL-    CL-46925   0.948   4.885   1.378
78453CL-    CL-46926  14.782  21.244   0.798
78454CL-    CL-46927  32.132  31.440   4.722
78455CL-    CL-46928   9.364  23.000   0.855
78456CL-    CL-46929   1.833  29.445   3.330
78457CL-    CL-46930  33.598  30.635   4.292
78458CL-    CL-46931  39.347  12.655  13.998
78459CL-    CL-46932  22.668   0.773  11.054
78460CL-    CL-46933   2.412   4.854   3.767
78461CL-    CL-46934  19.197  33.414   4.196
78462CL-    CL-46935  27.535  17.264   2.891
78463CL-    CL-46936  15.710  33.092   2.891
78464CL-    CL-46937  44.937  44.982  11.090
78465CL-    CL-46938   0.979  32.097   3.829
78466CL-    CL-46939  32.062  13.698  10.915
78467CL-    CL-46940  41.300   6.892  13.843
78468CL-    CL-46941   5.720  10.723   4.275
78469CL-    CL-46942   5.292  13.710  14.435
78470CL-    CL-46943  16.779   5.741   3.751
78471CL-    CL-46944  21.053  15.662  13.342
78472CL-    CL-46945  11.357   5.301  14.828
78473CL-    CL-46946  35.064  35.031  13.051
78474CL-    CL-46947  22.232  39.530   2.742
78475CL-    CL-46948  25.515  15.678  14.365
78476CL-    CL-46949  30.528   2.389   1.215
78477CL-    CL-46950  11.754  24.096  14.455
78478CL-    CL-46951  13.609  11.359  13.039
78479CL-    CL-46952  28.984  40.003   0.967
78480CL-    CL-46953  31.058  32.889   2.888
78481CL-    CL-46954  38.968  28.139  14.442
78482CL-    CL-46955  39.336  28.109   4.746
78483CL-    CL-46956  34.869  42.304  11.498
78484CL-    CL-46957  39.533  15.599   3.666
78485CL-    CL-46958  22.618  20.662   2.190
78486CL-    CL-46959  27.999  33.480  14.016
78487CL-    CL-46960   6.759  15.710  14.305
78488CL-    CL-46961  17.728  16.173   1.850
78489CL-    CL-46962   9.162  10.249   3.176
78490CL-    CL-46963  32.611  43.292   3.264
78491CL-    CL-46964  43.891  30.156   3.346
78492CL-    CL-46965  36.878   6.412   2.357
78493CL-    CL-46966  44.000  20.075  10.961
78494CL-    CL-46967  19.582  34.915  12.914
78495CL-    CL-46968  12.236   5.754  11.437
78496CL-    CL-46969  37.503  34.868   0.839
78497CL-    CL-46970   6.266   1.482  13.505
78498CL-    CL-46971  13.163  15.730   3.251
78499CL-    CL-46972  13.690  23.135   3.204
78500CL-    CL-46973   2.315  39.519   4.131
78501CL-    CL-46974  10.345  14.831  10.138
78502CL-    CL-46975  12.160  41.408   1.352
78503CL-    CL-46976  13.300  23.650  14.290
78504CL-    CL-46977  20.080  42.490   3.688
78505CL-    CL-46978  34.387  37.968   1.911
78506CL-    CL-46979   5.842  42.030   1.808
78507CL-    CL-46980  11.707  19.772  13.519
78508CL-    CL-46981  39.914  34.057   3.261
78509CL-    CL-46982  28.143  21.694  11.935
78510CL-    CL-46983  26.462  35.493   2.819
78511CL-    CL-46984  20.600  34.490   1.361
78512CL-    CL-46985  17.250  21.026  14.855
78513CL-    CL-46986  19.533   5.898  14.395
78514CL-    CL-46987  16.761  13.250  12.890
78515CL-    CL-46988  13.696  19.191   0.740
78516CL-    CL-46989  41.445  28.004  11.912
78517CL-    CL-46990  42.443  44.853   4.711
78518CL-    CL-46991  24.692   5.819   0.963
78519CL-    CL-46992   5.824   9.326  12.395
78520CL-    CL-46993   0.934  24.005  14.490
78521CL-    CL-46994  14.797   0.955  11.909
78522CL-    CL-46995  29.123  30.557  11.890
78523CL-    CL-46996  38.488  37.848  12.561
78524CL-    CL-46997  44.792  30.487   1.286
78525CL-    CL-46998  24.092  18.664  14.959
78526CL-    CL-46999   4.809   1.470  13.874
78527CL-    CL-47000  19.552  16.098  13.924
78528CL-    CL-47001  20.190  32.541   2.777
78529CL-    CL-47002  36.394  13.287  11.404
78530CL-    CL-47003  21.188  18.546  13.876
78531CL-    CL-47004   6.261  19.730   3.231
78532CL-    CL-47005  10.763  20.145   4.829
78533CL-    CL-47006  27.655  14.156  11.455
78534CL-    CL-47007  38.566  39.902  12.081
78535CL-    CL-47008   0.932  17.111  12.397
78536CL-    CL-47009  26.551   8.744  10.587
78537CL-    CL-47010  18.662   4.234  13.810
78538CL-    CL-47011  12.725  34.528  10.589
78539CL-    CL-47012  43.906  10.766   3.731
78540CL-    CL-47013  16.579  25.561   4.824
78541CL-    CL-47014  28.479  20.137  11.001
78542CL-    CL-47015  20.545  31.088   2.405
78543CL-    CL-47016   2.289  17.087  14.860
78544CL-    CL-47017   7.269  44.984  11.596
78545CL-    CL-47018  33.608  43.840   5.802
78546CL-    CL-47019   3.813  34.080   4.741
78547CL-    CL-47020  27.652  29.030  11.980
78548CL-    CL-47021   0.835  38.005   4.771
78549CL-    CL-47022  42.457   6.428   1.827
78550CL-    CL-47023  35.494   6.848   2.696
78551CL-    CL-47024  16.699  26.166  14.301
78552CL-    CL-47025  43.900  44.320   2.216
78553CL-    CL-47026  13.699   5.823  10.932
78554CL-    CL-47027  19.284  26.560  11.503
78555CL-    CL-47028  29.136  24.204  11.025
78556CL-    CL-47029   4.369  32.115   0.854
78557CL-    CL-47030   5.772   4.312   1.342
78558CL-    CL-47031   9.190  27.535  13.363
78559CL-    CL-47032  14.285  17.113  14.948
78560CL-    CL-47033  24.633  26.470  11.956
78561CL-    CL-47034  19.710  32.544  11.447
78562CL-    CL-47035  28.567  34.487   2.197
78563CL-    CL-47036  29.017  42.796  11.527
78564CL-    CL-47037  33.895  28.677  11.450
78565CL-    CL-47038   1.331  23.614  12.069
78566CL-    CL-47039  22.557  10.156  11.378
78567CL-    CL-47040  10.759  40.353  14.393
78568CL-    CL-47041  12.169   1.285  10.605
78569CL-    CL-47042  25.155  32.393   2.209
78570CL-    CL-47043  10.776   4.252   4.247
78571CL-    CL-47044  17.563  23.122   3.636
78572CL-    CL-47045  37.529  17.760  11.874
78573CL-    CL-47046   2.821  23.984  13.037
78574CL-    CL-47047   6.871  26.464  11.035
78575CL-    CL-47048   0.766  20.271  12.540
78576CL-    CL-47049  38.941  31.994   5.305
78577CL-    CL-47050   5.916  24.550  13.322
78578CL-    CL-47051   7.288  44.791  13.839
78579CL-    CL-47052  29.036  35.068  14.433
78580CL-    CL-47053   5.299   5.328  10.097
78581CL-    CL-47054   3.378  18.100   1.404
78582CL-    CL-47055   3.843  27.166   4.238
78583CL-    CL-47056   0.442  36.502  12.340
78584CL-    CL-47057  38.057  43.497   0.874
78585CL-    CL-47058  38.940   8.778  11.431
78586CL-    CL-47059   2.317  38.040   1.728
78587CL-    CL-47060   0.769  26.042   4.132
78588CL-    CL-47061  17.692  35.056   1.388
78589CL-    CL-47062  17.557  19.160   1.390
78590CL-    CL-47063  10.340  33.896  13.802
78591CL-    CL-47064  14.202   5.836  10.975
78592CL-    CL-47065   5.906  37.457   4.196
78593CL-    CL-47066  21.043   7.288   3.855
78594CL-    CL-47067  32.563  16.584   4.757
78595CL-    CL-47068  32.125  28.612  12.519
78596CL-    CL-47069  23.542  34.069  11.885
78597CL-    CL-47070   3.734  38.401   4.160
78598CL-    CL-47071  12.145  15.240   0.926
78599CL-    CL-47072  12.174   0.786   0.379
78600CL-    CL-47073   7.315  39.066   3.819
78601CL-    CL-47074   9.293  33.946  12.392
78602CL-    CL-47075  14.773  24.705   2.848
78603CL-    CL-47076  39.399  24.627  12.047
78604CL-    CL-47077  13.323  35.581  10.591
78605CL-    CL-47078  18.559  17.647   1.415
78606CL-    CL-47079   5.909  18.159  11.969
78607CL-    CL-47080  19.737  33.874  14.483
78608CL-    CL-47081  20.268  18.580   0.834
78609CL-    CL-47082  36.366   0.958   0.917
78610CL-    CL-47083  31.497  24.995  12.405
78611CL-    CL-47084   5.862  43.996  12.063
78612CL-    CL-47085  30.446  25.637  10.494
78613CL-    CL-47086  20.255  16.582  14.370
78614CL-    CL-47087  13.319   3.944   3.325
78615CL-    CL-47088  21.580   1.803   4.835
78616CL-    CL-47089  12.158  28.952   2.234
78617CL-    CL-47090   7.397  23.555   2.817
78618CL-    CL-47091  10.799  19.219  14.861
78619CL-    CL-47092  11.714   6.226   1.728
78620CL-    CL-47093  13.774  30.022  12.987
78621CL-    CL-47094  23.489  29.635  12.886
78622CL-    CL-47095  37.392  31.936   2.398
78623CL-    CL-47096  19.697  14.753   3.338
78624CL-    CL-47097  30.100  34.042  12.478
78625CL-    CL-47098  11.672   6.313  10.982
78626CL-    CL-47099   5.858  11.788   2.337
78627CL-    CL-47100  28.002   4.865   1.275
78628CL-    CL-47101   5.375  23.587   3.267
78629CL-    CL-47102   8.166   5.822  13.318
78630CL-    CL-47103  16.766  19.206   1.829
78631CL-    CL-47104  35.020  38.483  12.908
78632CL-    CL-47105  27.060  11.292   4.349
78633CL-    CL-47106  32.540  13.719  13.886
78634CL-    CL-47107   2.266  11.672  10.889
78635CL-    CL-47108  27.110  28.601   0.888
78636CL-    CL-47109  33.565  16.315  13.436
78637CL-    CL-47110  28.944   7.890  11.503
78638CL-    CL-47111   6.289   3.902   0.281
78639CL-    CL-47112  42.451  27.072   1.874
78640CL-    CL-47113  22.137  28.568  14.822
78641CL-    CL-47114  33.059  28.038   2.387
78642CL-    CL-47115  27.082  32.123  13.334
78643CL-    CL-47116  33.980  12.733   1.402
78644CL-    CL-47117  31.006  30.456   3.182
78645CL-    CL-47118  40.415   7.249   0.392
78646CL-    CL-47119  40.008  22.068   1.776
78647CL-    CL-47120  27.587   4.446   4.288
78648CL-    CL-47121  28.440   8.191   1.926
78649CL-    CL-47122  40.920  20.708   1.878
78650CL-    CL-47123  31.603   5.833  14.961
78651CL-    CL-47124  35.594  20.679  11.397
78652CL-    CL-47125  39.366   9.690   3.373
78653CL-    CL-47126   0.825   1.819  12.351
78654CL-    CL-47127  18.636  25.116  12.827
78655CL-    CL-47128  26.060  39.450  14.801
78656CL-    CL-47129  41.892  30.968   3.295
78657CL-    CL-47130  26.617  30.937  10.910
78658CL-    CL-47131  41.962   6.803  12.849
78659CL-    CL-47132  15.286   2.398   3.844
78660CL-    CL-47133  40.393  26.157  12.387
78661CL-    CL-47134  23.156  39.422  14.926
78662CL-    CL-47135  26.674  42.503  12.078
78663CL-    CL-47136  15.587   5.262  11.868
78664CL-    CL-47137  29.072   7.245  14.467
78665CL-    CL-47138  12.181  44.774   3.257
78666CL-    CL-47139  22.028  11.734   2.362
78667CL-    CL-47140  32.912  24.705  13.492
78668CL-    CL-47141  44.839  29.918   1.267
78669CL-    CL-47142  19.131  21.612  12.080
78670CL-    CL-47143  21.209  42.883  11.475
78671CL-    CL-47144  11.292   8.731  14.443
78672CL-    CL-47145  13.197   3.252  11.474
78673CL-    CL-47146  22.558  32.142   4.304
78674CL-    CL-47147  25.070  37.551  11.401
78675CL-    CL-47148   0.277  13.742   0.263
78676CL-    CL-47149  16.687  39.466   1.400
78677CL-    CL-47150   3.395  20.167   2.680
78678CL-    CL-47151  23.099  25.637  14.013
78679CL-    CL-47152  40.479  30.097  12.382
78680CL-    CL-47153  16.703  17.092   4.680
78681CL-    CL-47154  34.979  16.731   1.297
78682CL-    CL-47155  13.762  43.988  11.030
78683CL-    CL-47156  35.525  36.033   3.741
78684CL-    CL-47157  44.261  16.793   3.814
78685CL-    CL-47158   6.699  20.162   2.699
78686CL-    CL-47159  21.233  40.320   0.465
78687CL-    CL-47160  35.443  42.522   2.780
78688CL-    CL-47161  31.478  44.471  14.279
78689CL-    CL-47162  31.558  21.173  13.908
78690CL-    CL-47163  13.307  23.042   1.717
78691CL-    CL-47164  17.633  18.067   3.229
78692CL-    CL-47165  11.734  35.005  11.559
78693CL-    CL-47166  28.967  15.190   4.200
78694CL-    CL-47167  31.077   2.758   1.258
78695CL-    CL-47168  17.225  34.393   1.285
78696CL-    CL-47169  10.233  12.838  11.867
78697CL-    CL-47170   1.278  23.617  14.398
78698CL-    CL-47171   1.905  19.598  12.978
78699CL-    CL-47172  31.505   3.953   0.326
78700CL-    CL-47173  29.156  29.604  14.023
78701CL-    CL-47174  25.060  26.616   4.809
78702CL-    CL-47175  32.438   9.303  11.904
78703CL-    CL-47176  16.613  16.752  10.414
78704CL-    CL-47177  38.911  22.656   1.253
78705CL-    CL-47178  22.662  37.906  10.635
78706CL-    CL-47179   3.238  36.354  13.008
78707CL-    CL-47180   0.288  38.832   1.900
78708CL-    CL-47181  16.253   2.254  11.019
78709CL-    CL-47182  33.928   0.317   3.704
78710CL-    CL-47183  41.916  11.705  11.500
78711CL-    CL-47184  37.357   5.787   1.298
78712CL-    CL-47185  41.513  39.399  12.377
78713CL-    CL-47186  24.541   7.195  13.979
78714CL-    CL-47187  25.599  31.548  13.436
78715CL-    CL-47188  30.952  35.050  10.425
78716CL-    CL-47189  37.384  41.838  14.924
78717CL-    CL-47190  35.938  41.859  12.939
78718CL-    CL-47191  20.254  18.664   1.248
78719CL-    CL-47192  38.546   4.414   2.726
78720CL-    CL-47193  29.982  27.532  11.509
78721CL-    CL-47194  13.277  36.877  13.351
78722CL-    CL-47195  17.177  19.606   0.806
78723CL-    CL-47196   7.834   4.791   3.695
78724CL-    CL-47197  16.604   7.288   2.695
78725CL-    CL-47198   0.392  43.414   4.648
78726CL-    CL-47199  34.457   4.434   0.878
78727CL-    CL-47200  10.153   2.868  11.874
78728CL-    CL-47201  30.557  43.460  12.343
78729CL-    CL-47202  25.196  21.151   2.724
78730CL-    CL-47203  31.988  27.013   0.865
78731CL-    CL-47204  40.941   6.373   0.275
78732CL-    CL-47205  30.000  29.462  13.880
78733CL-    CL-47206  21.556  44.890  13.028
78734CL-    CL-47207   8.740  42.792  12.869
78735CL-    CL-47208  27.445   1.827   1.340
78736CL-    CL-47209  40.536  41.001  11.407
78737CL-    CL-47210  16.644  14.174  11.965
78738CL-    CL-47211  26.573  31.058  14.965
78739CL-    CL-47212  13.273  44.866  11.882
78740CL-    CL-47213  26.023  27.456  13.909
78741CL-    CL-47214  39.485   0.849   1.347
78742CL-    CL-47215  30.656  44.357   3.297
78743CL-    CL-47216  37.520   1.333  11.422
78744CL-    CL-47217  13.257  12.119   0.271
78745CL-    CL-47218  17.750  44.838   4.603
78746CL-    CL-47219  13.757  16.702   3.698
78747CL-    CL-47220  40.972  33.995  11.521
78748CL-    CL-47221  34.436  41.467   3.750
78749CL-    CL-47222   8.781  40.870   0.323
78750CL-    CL-47223   7.218   0.764  10.939
78751CL-    CL-47224   8.346   4.926  10.456
78752CL-    CL-47225  35.972  36.512   1.398
78753CL-    CL-47226   0.301  38.527   2.295
78754CL-    CL-47227  22.697   3.260  12.954
78755CL-    CL-47228  35.917   8.701   1.429
78756CL-    CL-47229  33.128   7.771   0.818
78757CL-    CL-47230  36.540   9.304  12.061
78758CL-    CL-47231  14.775  20.598   3.320
78759CL-    CL-47232  20.156  23.537  13.398
78760CL-    CL-47233  17.231  26.523  11.597
78761CL-    CL-47234  29.918  15.235  14.928
78762CL-    CL-47235   0.914  32.472   2.872
78763CL-    CL-47236  29.606  33.954   4.138
78764CL-    CL-47237  38.052   9.823  12.484
78765CL-    CL-47238   5.715  38.070  10.501
78766CL-    CL-47239  39.045   6.342   0.353
78767CL-    CL-47240  24.573  33.508   3.701
78768CL-    CL-47241  43.292  14.674  13.060
78769CL-    CL-47242  21.156  23.136   3.191
78770CL-    CL-47243  31.907  15.748  12.093
78771CL-    CL-47244  31.033  21.164   9.920
78772CL-    CL-47245  30.496  15.797  12.845
78773CL-    CL-47246  41.967  24.057  12.026
78774CL-    CL-47247   4.722  32.963  13.416
78775CL-    CL-47248  19.686  25.613   0.854
78776CL-    CL-47249  18.558  12.830  13.000
78777CL-    CL-47250  33.002  26.643  10.891
78778CL-    CL-47251  11.358  22.038   2.374
78779CL-    CL-47252  34.116  32.448   3.630
78780CL-    CL-47253  30.511  26.661   2.751
78781CL-    CL-47254   7.684   0.322   2.688
78782CL-    CL-47255  36.899  41.310  10.980
78783CL-    CL-47256  11.177  37.917  11.586
78784CL-    CL-47257  24.538  20.216   0.419
78785CL-    CL-47258  38.820  30.475   2.767
78786CL-    CL-47259  40.884  17.270   3.676
78787CL-    CL-47260   7.784   7.235  10.491
78788CL-    CL-47261  35.015  16.622   2.369
78789CL-    CL-47262   6.758   1.475   3.385
78790CL-    CL-47263  23.025  38.958  10.896
78791CL-    CL-47264  18.114  44.271   2.858
78792CL-    CL-47265  27.153  13.304  13.320
78793CL-    CL-47266  15.726   1.335   3.808
78794CL-    CL-47267  34.897   4.214  13.015
78795CL-    CL-47268  27.593  35.089   1.833
78796CL-    CL-47269   5.194   8.314  14.871
78797CL-    CL-47270  36.002   3.778  10.450
78798CL-    CL-47271  16.299   8.216  12.497
78799CL-    CL-47272  29.652  20.644   1.809
78800CL-    CL-47273  15.211  15.802  12.902
78801CL-    CL-47274  36.905  42.343  14.420
78802CL-    CL-47275  27.106  23.092   0.778
78803CL-    CL-47276  15.679   2.914  12.955
78804CL-    CL-47277   5.706  40.024  12.922
78805CL-    CL-47278  16.727  16.612   4.262
78806CL-    CL-47279  20.660  15.292  10.986
78807CL-    CL-47280  10.355  31.062   3.654
78808CL-    CL-47281  20.531   8.872   0.962
78809CL-    CL-47282  23.188  21.138  14.445
78810CL-    CL-47283  16.248  42.920   3.845
78811CL-    CL-47284  32.583  11.843  14.497
78812CL-    CL-47285   0.915  36.056  12.835
78813CL-    CL-47286  26.051   4.446  12.428
78814CL-    CL-47287  38.020   3.790   4.183
78815CL-    CL-47288  19.767   4.273   4.688
78816CL-    CL-47289  23.227  17.785   3.802
78817CL-    CL-47290   1.839  38.424  12.563
78818CL-    CL-47291  29.463  32.517  13.803
78819CL-    CL-47292  30.529  26.602  13.439
78820CL-    CL-47293  20.053  22.537  12.849
78821CL-    CL-47294  37.469  40.505   1.413
78822CL-    CL-47295  14.182   4.713   2.194
78823CL-    CL-47296  11.641  13.159   1.450
78824CL-    CL-47297  19.670  11.764  12.045
78825CL-    CL-47298  15.173   3.239   1.910
78826CL-    CL-47299  14.656  30.109   2.322
78827CL-    CL-47300   9.829  15.710  12.929
78828CL-    CL-47301  35.427  18.164  11.607
78829CL-    CL-47302  14.618  43.792   4.243
78830CL-    CL-47303  37.475  24.563   4.684
78831CL-    CL-47304   8.679  37.500   0.852
78832CL-    CL-47305  24.151  28.087  10.430
78833CL-    CL-47306   6.388  16.700   2.896
78834CL-    CL-47307   9.726  33.586   0.797
78835CL-    CL-47308   3.446  44.984  10.963
78836CL-    CL-47309   8.274  21.063   3.643
78837CL-    CL-47310  38.882  15.118   1.818
78838CL-    CL-47311  29.650  19.574   4.646
78839CL-    CL-47312  41.309  24.018  13.981
78840CL-    CL-47313  12.747   6.279   2.319
78841CL-    CL-47314  23.495  34.577  11.424
78842CL-    CL-47315   6.682  14.780   0.794
78843CL-    CL-47316  30.969  34.001  12.555
78844CL-    CL-47317  30.032  30.120   4.119
78845CL-    CL-47318   4.295   5.370  14.382
78846CL-    CL-47319  35.894  27.990  11.375
78847CL-    CL-47320  23.063  23.566   3.785
78848CL-    CL-47321  24.722  23.555  13.395
78849CL-    CL-47322  11.220  28.520   2.350
78850CL-    CL-47323  26.087   6.792  13.935
78851CL-    CL-47324  27.550  37.455   1.908
78852CL-    CL-47325  40.327  35.071  12.948
78853CL-    CL-47326  10.641  40.342  10.472
78854CL-    CL-47327  20.534  22.711   2.383
78855CL-    CL-47328   0.783  19.094   1.305
78856CL-    CL-47329  19.693  22.083   0.905
78857CL-    CL-47330   4.857  22.743   2.184
78858CL-    CL-47331  22.716  27.627   3.840
78859CL-    CL-47332   7.223  10.831  12.052
78860CL-    CL-47333  34.091  36.521   2.838
78861CL-    CL-47334  38.031  35.950  13.985
78862CL-    CL-47335   1.795  25.646   4.201
78863CL-    CL-47336  34.431  37.389   3.817
78864CL-    CL-47337   4.747  12.618  14.019
78865CL-    CL-47338   7.733  37.898  11.077
78866CL-    CL-47339  22.050  28.480   1.838
78867CL-    CL-47340  12.196  30.626  10.406
78868CL-    CL-47341  26.068   4.901   0.363
78869CL-    CL-47342   0.981  39.336  13.908
78870CL-    CL-47343  12.725   9.219   0.379
78871CL-    CL-47344  19.535  36.422   3.694
78872CL-    CL-47345  29.986  36.590   0.726
78873CL-    CL-47346  25.694  10.847  13.847
78874CL-    CL-47347  17.747  39.836   4.647
78875CL-    CL-47348  15.742  41.980   0.300
78876CL-    CL-47349   5.883  24.064  12.443
78877CL-    CL-47350  34.116  28.602   1.819
78878CL-    CL-47351  35.008  43.443  14.947
78879CL-    CL-47352  31.023  26.627   0.423
78880CL-    CL-47353  22.230  17.732  11.012
78881CL-    CL-47354  37.863  26.592   2.350
78882CL-    CL-47355  26.648  44.879   0.796
78883CL-    CL-47356   7.691  11.262  13.005
78884CL-    CL-47357  30.479  24.557   1.720
78885CL-    CL-47358   3.440  33.576   2.402
78886CL-    CL-47359  40.968  30.527  14.987
78887CL-    CL-47360  28.445  16.270  12.413
78888CL-    CL-47361  24.557  26.023   5.769
78889CL-    CL-47362  42.524  21.123   2.725
78890CL-    CL-47363   6.411   3.272  14.890
78891CL-    CL-47364   0.779  14.294   9.950
78892CL-    CL-47365  43.959  19.049  14.782
78893CL-    CL-47366   6.335  44.303  11.436
78894CL-    CL-47367  37.086  16.697   3.294
78895CL-    CL-47368   5.926  10.173   4.224
78896CL-    CL-47369  28.096  12.142   4.164
78897CL-    CL-47370  12.656  32.632  11.576
78898CL-    CL-47371  22.157  32.438   4.696
78899CL-    CL-47372  16.758  28.986  11.492
78900CL-    CL-47373  26.524   8.697   2.389
78901CL-    CL-47374  25.181  21.606  10.616
78902CL-    CL-47375  41.330  17.062   3.338
78903CL-    CL-47376  38.956  13.825  10.890
78904CL-    CL-47377  37.520  34.044   2.799
78905CL-    CL-47378   9.662  32.136   0.929
78906CL-    CL-47379   3.354  15.770  11.551
78907CL-    CL-47380  15.589   3.941   0.354
78908CL-    CL-47381  10.705   4.805  12.877
78909CL-    CL-47382  22.562   2.316  12.573
78910CL-    CL-47383  43.880  14.340   4.199
78911CL-    CL-47384  31.091  13.651   1.764
78912CL-    CL-47385  37.362  41.009  12.536
78913CL-    CL-47386  20.176   6.343  14.421
78914CL-    CL-47387   2.949  17.068   2.874
78915CL-    CL-47388  11.309  43.363   3.335
78916CL-    CL-47389   9.786  33.109  12.534
78917CL-    CL-47390  17.782   7.731  13.993
78918CL-    CL-47391   6.220  20.225  11.047
78919CL-    CL-47392   0.310   7.730   4.157
78920CL-    CL-47393  11.766   6.381   4.671
78921CL-    CL-47394  36.480  25.686   2.861
78922CL-    CL-47395  19.764   8.379   4.117
78923CL-    CL-47396   6.686  13.731  14.457
78924CL-    CL-47397  16.179  19.737  11.433
78925CL-    CL-47398  42.861  21.680   0.832
78926CL-    CL-47399  42.461  24.045   0.429
78927CL-    CL-47400  20.549   2.409   4.797
78928CL-    CL-47401  17.586   2.826  13.343
78929CL-    CL-47402  37.080  29.538   3.682
78930CL-    CL-47403  21.655  35.568   2.803
78931CL-    CL-47404  16.762  32.091   3.320
78932CL-    CL-47405  32.052  16.749   3.676
78933CL-    CL-47406  42.376  29.057  11.944
78934CL-    CL-47407  31.084  40.310  10.496
78935CL-    CL-47408  41.379  24.717   2.735
78936CL-    CL-47409   2.283  19.728  11.423
78937CL-    CL-47410  32.486  33.094  13.523
78938CL-    CL-47411  33.977  37.011  14.827
78939CL-    CL-47412  34.584   0.825   1.263
78940CL-    CL-47413   2.382  37.526  10.933
78941CL-    CL-47414   9.762  13.772  10.407
78942CL-    CL-47415  38.972   3.767  13.966
78943CL-    CL-47416  43.276  28.184  14.997
78944CL-    CL-47417  35.410  28.182   4.794
78945CL-    CL-47418   2.898  11.180   2.892
78946CL-    CL-47419  10.185  40.548  13.906
78947CL-    CL-47420  40.313  33.903  11.485
78948CL-    CL-47421  27.576  44.295  14.383
78949CL-    CL-47422  41.791  29.440  13.542
78950CL-    CL-47423  30.613  17.211  13.889
78951CL-    CL-47424  26.998  42.478   1.846
78952CL-    CL-47425  41.858  31.480  12.929
78953CL-    CL-47426   4.425  10.285   3.170
78954CL-    CL-47427  16.576  41.452   3.287
78955CL-    CL-47428  28.053   0.268   9.948
78956CL-    CL-47429  10.746  36.939  14.774
78957CL-    CL-47430  32.987  15.787  12.397
78958CL-    CL-47431  24.508  39.835   2.743
78959CL-    CL-47432  17.280  38.019   3.208
78960CL-    CL-47433  29.633  30.562   1.768
78961CL-    CL-47434  13.195  18.667  10.553
78962CL-    CL-47435   4.382  15.670  14.288
78963CL-    CL-47436  27.631  28.662  13.519
78964CL-    CL-47437  20.577  34.991  13.820
78965CL-    CL-47438   1.857  24.715   0.740
78966CL-    CL-47439  38.540  28.577  13.803
78967CL-    CL-47440   7.272  13.231   1.393
78968CL-    CL-47441  20.153  35.020  14.830
78969CL-    CL-47442   1.317  17.793  11.856
78970CL-    CL-47443   4.775  23.131  13.328
78971CL-    CL-47444  30.962  29.508  13.401
78972CL-    CL-47445  14.181  35.935   0.797
78973CL-    CL-47446   7.406   7.172   0.734
78974CL-    CL-47447  24.517  21.031   0.798
78975CL-    CL-47448  24.526   7.394   3.162
78976CL-    CL-47449  42.329  22.239  14.974
78977CL-    CL-47450  19.281  16.104   2.384
78978CL-    CL-47451  19.662  32.530  13.390
78979CL-    CL-47452  30.514   3.295   2.891
78980CL-    CL-47453  25.682  16.619   1.798
78981CL-    CL-47454   9.685   8.253  10.431
78982CL-    CL-47455  17.774  23.163   3.175
78983CL-    CL-47456  28.173   6.428   0.878
78984CL-    CL-47457  16.762  24.186  10.419
78985CL-    CL-47458  12.757   7.342   1.730
78986CL-    CL-47459  20.104  41.940   3.667
78987CL-    CL-47460  32.972  27.974  13.522
78988CL-    CL-47461  34.455  20.179   3.633
78989CL-    CL-47462  31.434   4.767  11.006
78990CL-    CL-47463  38.047  33.900  14.911
78991CL-    CL-47464  38.534  17.141   3.339
78992CL-    CL-47465  21.742  40.940   0.935
78993CL-    CL-47466  25.023  43.378   1.843
78994CL-    CL-47467  20.605  17.155   0.855
78995CL-    CL-47468  37.508  31.960  14.432
78996CL-    CL-47469   0.910  29.976  14.831
78997CL-    CL-47470   2.777  20.621   0.377
78998CL-    CL-47471  31.908  22.061  13.472
78999CL-    CL-47472   1.311  29.628  14.345
79000CL-    CL-47473  32.022  41.857   0.789
79001CL-    CL-47474  16.196  40.307  11.031
79002CL-    CL-47475   6.236  41.324   0.395
79003CL-    CL-47476  30.480   1.243  12.876
79004CL-    CL-47477  32.086   5.712  10.473
79005CL-    CL-47478  15.140  13.207  11.077
79006CL-    CL-47479  17.175  21.262   3.307
79007CL-    CL-47480  20.230  43.445  12.500
79008CL-    CL-47481  23.240  43.782  11.518
79009CL-    CL-47482  33.905  27.194  14.002
79010CL-    CL-47483   5.827   1.851  11.004
79011CL-    CL-47484  30.988  40.455  12.440
79012CL-    CL-47485  16.609  22.038  11.023
79013CL-    CL-47486  18.651  35.907  12.469
79014CL-    CL-47487  29.620   6.756  11.997
79015CL-    CL-47488  39.860  42.493  14.430
79016CL-    CL-47489  38.552   1.464  12.896
79017CL-    CL-47490  30.972  44.376  10.607
79018CL-    CL-47491  44.829  35.903   4.326
79019CL-    CL-47492  17.295   9.194   0.892
79020CL-    CL-47493   2.851  17.307  10.966
79021CL-    CL-47494   0.288  32.014   1.412
79022CL-    CL-47495   4.774  34.965  12.523
79023CL-    CL-47496  41.453  41.955  13.968
79024CL-    CL-47497  18.627  38.977  13.384
79025CL-    CL-47498   4.356  43.764   1.817
79026CL-    CL-47499   3.393  18.671  13.500
79027CL-    CL-47500  28.031  26.011   3.845
79028CL-    CL-47501  19.225  19.075  12.058
79029CL-    CL-47502  39.342  21.051   4.798
79030CL-    CL-47503  41.333  41.857  11.053
79031CL-    CL-47504   8.771   6.680   0.730
79032CL-    CL-47505  13.189  10.728   3.349
79033CL-    CL-47506   8.188  28.594  11.530
79034CL-    CL-47507  23.572  15.326  11.504
79035CL-    CL-47508  13.232  23.074   3.195
79036CL-    CL-47509  39.534   7.297   2.356
79037CL-    CL-47510  11.228  18.139   4.163
79038CL-    CL-47511  39.430  32.448  10.583
79039CL-    CL-47512  13.214  14.677   3.636
79040CL-    CL-47513  21.180  23.643  13.947
79041CL-    CL-47514  41.040  10.643  10.444
79042CL-    CL-47515   3.839  33.479  14.446
79043CL-    CL-47516  31.119  12.294  10.583
79044CL-    CL-47517  36.924   9.172  13.022
79045CL-    CL-47518  38.829   8.899   2.664
79046CL-    CL-47519  23.011  29.512   4.821
79047CL-    CL-47520   8.696  11.644  10.986
79048CL-    CL-47521  29.986  15.169   2.873
79049CL-    CL-47522  13.112  10.197   3.304
79050CL-    CL-47523  43.014  25.523   4.701
79051CL-    CL-47524  11.231  32.894  12.417
79052CL-    CL-47525  12.642  27.506  12.555
79053CL-    CL-47526  13.822   5.317   1.230
79054CL-    CL-47527  44.394  29.637   0.878
79055CL-    CL-47528  42.435  26.057  14.868
79056CL-    CL-47529  11.739  26.554   2.281
79057CL-    CL-47530  17.128   2.834   0.449
79058CL-    CL-47531  22.562   4.438   0.743
79059CL-    CL-47532  13.258  34.412   1.345
79060CL-    CL-47533   7.770  21.571  11.477
79061CL-    CL-47534   3.446  26.644   2.206
79062CL-    CL-47535   2.945  27.996  14.332
79063CL-    CL-47536   5.896  13.206  11.018
79064CL-    CL-47537  11.288  24.176   2.360
79065CL-    CL-47538  30.063  35.013  11.123
79066CL-    CL-47539  43.862   8.339  12.544
79067CL-    CL-47540  31.023   0.309   4.136
79068CL-    CL-47541  38.880   0.893   1.255
79069CL-    CL-47542  21.072   4.236  14.316
79070CL-    CL-47543  13.224  21.724   3.157
79071CL-    CL-47544  14.706   6.714   2.311
79072CL-    CL-47545  24.480  10.728  13.498
79073CL-    CL-47546  43.938  21.599  11.025
79074CL-    CL-47547  23.727   8.825   2.671
79075CL-    CL-47548  21.751   0.876   3.311
79076CL-    CL-47549  26.493  25.627  13.976
79077CL-    CL-47550  29.098  40.957   1.274
79078CL-    CL-47551  24.054   8.270   0.913
79079CL-    CL-47552  18.711  44.997  10.467
79080CL-    CL-47553  26.183   1.824   2.288
79081CL-    CL-47554  42.433  42.446   1.848
79082CL-    CL-47555   1.378  18.247   2.304
79083CL-    CL-47556  30.515  18.265   1.396
79084CL-    CL-47557  10.227  42.491   3.207
79085CL-    CL-47558  34.602  28.002  10.516
79086CL-    CL-47559  21.208  36.592   2.213
79087CL-    CL-47560  30.013   1.976  13.869
79088CL-    CL-47561  18.274  23.204  14.774
79089CL-    CL-47562  18.587  10.160   1.397
79090CL-    CL-47563   2.875  33.467  14.362
79091CL-    CL-47564  26.678  13.757   2.362
79092CL-    CL-47565  36.992  10.165   0.421
79093CL-    CL-47566   7.312  41.870   3.707
79094CL-    CL-47567  22.541  18.694  12.550
79095CL-    CL-47568  16.724   4.442   0.389
79096CL-    CL-47569   0.325  44.496  14.836
79097CL-    CL-47570  10.221  13.210   0.830
79098CL-    CL-47571  39.036  26.667  11.581
79099CL-    CL-47572  15.721   3.232  14.857
79100CL-    CL-47573   5.274  28.110   0.466
79101CL-    CL-47574  44.835  25.702  14.779
79102CL-    CL-47575  19.211  38.475   2.246
79103CL-    CL-47576  43.005  18.737  14.459
79104CL-    CL-47577  16.800  13.293   0.960
79105CL-    CL-47578  30.477  15.711   4.677
79106CL-    CL-47579   8.327  42.930   3.330
79107CL-    CL-47580  29.045  28.487  13.428
79108CL-    CL-47581  29.144  20.044  10.926
79109CL-    CL-47582  36.861   4.917   2.788
79110CL-    CL-47583   9.775   4.765   1.382
79111CL-    CL-47584  16.305  37.492   4.686
79112CL-    CL-47585  19.076  25.528  13.888
79113CL-    CL-47586  42.866  17.073  11.942
79114CL-    CL-47587  24.153   0.341  10.030
79115CL-    CL-47588   1.354  25.694   1.423
79116CL-    CL-47589  36.364  14.638   0.394
79117CL-    CL-47590  44.983  42.335   0.884
79118CL-    CL-47591  30.145  16.772  13.472
79119CL-    CL-47592  25.088  28.037  13.985
79120CL-    CL-47593  32.913  33.049  11.127
79121CL-    CL-47594  21.625  19.255  11.545
79122CL-    CL-47595  25.057  13.680   3.648
79123CL-    CL-47596  21.119  42.830   2.832
79124CL-    CL-47597  21.106  44.765   3.207
79125CL-    CL-47598  27.609  34.409   3.206
79126CL-    CL-47599  31.919   7.171   3.154
79127CL-    CL-47600   8.900  13.612  12.078
79128CL-    CL-47601  31.963  36.090  11.386
79129CL-    CL-47602  32.049  28.489   4.821
79130CL-    CL-47603  41.878  27.122   4.240
79131CL-    CL-47604  41.834  31.956   3.363
79132CL-    CL-47605  22.111  12.118   9.975
79133CL-    CL-47606  25.673  38.046   1.251
79134CL-    CL-47607  37.408   3.327   4.817
79135CL-    CL-47608  35.454  38.967  11.901
79136CL-    CL-47609  26.049  16.716  10.939
79137CL-    CL-47610  11.821  23.086  12.093
79138CL-    CL-47611  24.533  26.506  10.127
79139CL-    CL-47612  38.369  18.107   4.288
79140CL-    CL-47613  44.919  32.086   3.717
79141CL-    CL-47614  44.911  17.668   2.225
79142CL-    CL-47615  17.767  16.792  12.420
79143CL-    CL-47616   2.837  20.172   1.318
79144CL-    CL-47617   5.398  16.692  10.134
79145CL-    CL-47618   9.806  15.104   0.299
79146CL-    CL-47619   4.281  11.323   1.758
79147CL-    CL-47620  44.816   4.906  14.482
79148CL-    CL-47621  41.808  32.119  14.413
79149CL-    CL-47622   3.315  25.025  12.049
79150CL-    CL-47623   1.756  15.618  13.458
79151CL-    CL-47624  26.538   2.867   2.813
79152CL-    CL-47625  24.636  26.073   2.408
79153CL-    CL-47626  32.105  30.951   4.703
79154CL-    CL-47627  37.956  19.666   5.217
79155CL-    CL-47628  28.489  39.426  14.017
79156CL-    CL-47629  44.357  38.971   1.394
79157CL-    CL-47630  32.964  43.993   4.599
79158CL-    CL-47631  31.073  21.592  14.904
79159CL-    CL-47632  42.905  33.411   3.379
79160CL-    CL-47633  33.055  32.480  14.503
79161CL-    CL-47634  17.249   5.332  11.605
79162CL-    CL-47635  11.201  35.361   4.652
79163CL-    CL-47636   4.353  20.182  11.521
79164CL-    CL-47637  33.457  36.970  13.450
79165CL-    CL-47638  40.417  18.678  11.904
79166CL-    CL-47639  23.659  20.598  14.921
79167CL-    CL-47640  39.983   7.189   3.805
79168CL-    CL-47641  14.807  42.459  10.559
79169CL-    CL-47642  44.306   3.852  14.895
79170CL-    CL-47643  26.591  14.285   1.389
79171CL-    CL-47644  33.108  38.830   2.888
79172CL-    CL-47645  32.088  33.127  13.876
79173CL-    CL-47646  18.292   8.310   4.273
79174CL-    CL-47647  29.470  28.127   9.992
79175CL-    CL-47648  12.253  17.709   2.352
79176CL-    CL-47649  11.807  19.153   1.710
79177CL-    CL-47650   7.412   2.875  13.015
79178CL-    CL-47651  22.639  33.626  10.944
79179CL-    CL-47652  41.510  30.057  12.553
79180CL-    CL-47653   5.367  29.510   3.217
79181CL-    CL-47654   5.297  30.477  14.324
79182CL-    CL-47655   0.985   5.225   3.325
79183CL-    CL-47656  31.914  26.157   5.643
79184CL-    CL-47657   1.292   8.367   1.329
79185CL-    CL-47658  20.598  14.650  10.453
79186CL-    CL-47659  27.624  24.542   4.340
79187CL-    CL-47660   9.849  31.048   2.373
79188CL-    CL-47661  36.854  34.981  12.394
79189CL-    CL-47662  39.815  31.554  14.025
79190CL-    CL-47663  36.070  18.652   4.763
79191CL-    CL-47664  12.690  44.940   3.729
79192CL-    CL-47665  24.566   2.431  11.440
79193CL-    CL-47666  12.153  26.017   1.743
79194CL-    CL-47667  23.687  30.542   2.262
79195CL-    CL-47668  34.937  38.034  14.399
79196CL-    CL-47669  24.712   2.300  10.433
79197CL-    CL-47670  34.533  34.907  12.943
79198CL-    CL-47671  24.163  41.974   4.266
79199CL-    CL-47672  39.928  25.100  12.004
79200CL-    CL-47673  29.658   1.279  12.853
79201CL-    CL-47674  43.893  29.511  14.326
79202CL-    CL-47675  33.121   2.237   4.131
79203CL-    CL-47676   9.273  22.559   1.301
79204CL-    CL-47677   0.772  33.422  14.488
79205CL-    CL-47678  36.096  24.711   2.773
79206CL-    CL-47679   1.908  44.937   4.315
79207CL-    CL-47680   7.327   5.801   0.811
79208CL-    CL-47681  19.578   1.248  12.060
79209CL-    CL-47682  38.951  15.774  14.350
79210CL-    CL-47683  31.541   0.461   4.738
79211CL-    CL-47684  21.227  30.007  13.464
79212CL-    CL-47685  25.015   6.776  11.566
79213CL-    CL-47686  42.828  36.587   5.173
79214CL-    CL-47687   2.254  32.538   1.284
79215CL-    CL-47688  13.825  36.415  13.441
79216CL-    CL-47689  43.925  41.927  11.434
79217CL-    CL-47690   0.947  16.685  13.023
79218CL-    CL-47691  44.996  17.773  12.029
79219CL-    CL-47692  28.521   3.833  12.475
79220CL-    CL-47693  14.232  40.981  13.986
79221CL-    CL-47694  24.699  40.539  14.804
79222CL-    CL-47695  42.426  35.959   2.694
79223CL-    CL-47696  20.146  33.115   2.385
79224CL-    CL-47697  43.843  40.932   1.710
79225CL-    CL-47698  25.510  41.360   3.264
79226CL-    CL-47699   8.706  31.072   5.194
79227CL-    CL-47700  12.205  43.277   1.738
79228CL-    CL-47701   1.394   3.786  11.902
79229CL-    CL-47702  26.573  28.629   2.864
79230CL-    CL-47703  14.198  14.804   2.752
79231CL-    CL-47704  41.368  44.776   1.711
79232CL-    CL-47705  13.732  35.408   2.374
79233CL-    CL-47706   1.946  33.020  14.509
79234CL-    CL-47707  36.065   5.849   4.762
79235CL-    CL-47708  11.160  38.001   1.238
79236CL-    CL-47709  22.026   8.852   3.837
79237CL-    CL-47710  10.169  43.335  10.450
79238CL-    CL-47711  15.821  18.706   1.695
79239CL-    CL-47712   4.932  21.104   2.198
79240CL-    CL-47713  42.406  26.099   0.291
79241CL-    CL-47714  34.929  38.515  10.572
79242CL-    CL-47715   4.205  25.061   1.737
79243CL-    CL-47716  44.367  34.574  12.951
79244CL-    CL-47717  19.634  34.526   0.953
79245CL-    CL-47718  28.661  37.547  12.913
79246CL-    CL-47719  31.630  22.513  11.993
79247CL-    CL-47720  39.001  17.281  14.397
79248CL-    CL-47721  36.871   2.354  10.519
79249CL-    CL-47722  33.902  16.170   0.348
79250CL-    CL-47723  43.344  28.460  11.431
79251CL-    CL-47724   4.732   0.391  14.297
79252CL-    CL-47725  18.109   0.336  12.833
79253CL-    CL-47726  34.907  43.876   0.805
79254CL-    CL-47727   5.419  10.870  11.975
79255CL-    CL-47728  42.029  24.712   2.372
79256CL-    CL-47729  28.116  18.551   3.266
79257CL-    CL-47730  17.610  29.477   1.221
79258CL-    CL-47731  13.709   0.416   3.196
79259CL-    CL-47732  44.782  17.674  11.558
79260CL-    CL-47733  27.688  21.514   3.212
79261CL-    CL-47734  32.397   6.712   0.830
79262CL-    CL-47735   3.872  28.102  10.427
79263CL-    CL-47736   4.448  24.983  10.485
79264CL-    CL-47737  20.691  31.935  10.573
79265CL-    CL-47738  32.893  41.894  12.392
79266CL-    CL-47739  34.461  32.931  10.457
79267CL-    CL-47740   5.327  16.104  14.296
79268CL-    CL-47741  18.284  43.951  13.971
79269CL-    CL-47742   9.279  19.710   1.910
79270CL-    CL-47743  37.452  15.240  13.976
79271CL-    CL-47744  33.457  15.300  11.527
79272CL-    CL-47745  15.160  35.043  11.515
79273CL-    CL-47746  35.513  27.049   0.401
79274CL-    CL-47747  31.453  41.336   2.739
79275CL-    CL-47748  21.256   9.159  12.044
79276CL-    CL-47749  14.730  32.592  12.031
79277CL-    CL-47750  32.458  40.337  14.954
79278CL-    CL-47751   7.370  34.529   2.677
79279CL-    CL-47752  17.247  28.938   1.297
79280CL-    CL-47753  13.161  10.274  14.329
79281CL-    CL-47754  18.620  39.560  14.351
79282CL-    CL-47755   7.177  25.616  11.127
79283CL-    CL-47756  26.694  14.633  10.951
79284CL-    CL-47757   8.697  23.991  13.427
79285CL-    CL-47758  33.929  38.549   4.688
79286CL-    CL-47759  29.053  32.086   0.775
79287CL-    CL-47760  24.581  32.425  11.512
79288CL-    CL-47761   0.824  29.435  12.378
79289CL-    CL-47762  40.397   8.400   4.188
79290CL-    CL-47763  20.095  28.943  13.825
79291CL-    CL-47764  40.852  43.927   1.872
79292CL-    CL-47765   7.356  35.058  14.416
79293CL-    CL-47766  28.517  28.028  11.442
79294CL-    CL-47767  30.109   5.381  10.470
79295CL-    CL-47768  34.479  27.571  10.407
79296CL-    CL-47769  20.654  27.641  10.531
79297CL-    CL-47770   5.766  29.497  11.457
79298CL-    CL-47771  32.123   9.209  13.938
79299CL-    CL-47772  24.066  14.759  11.906
79300CL-    CL-47773  12.234  10.803   3.772
79301CL-    CL-47774  29.476   8.805   3.274
79302CL-    CL-47775  38.482  27.049   0.448
79303CL-    CL-47776  24.607  17.256   2.344
79304CL-    CL-47777  27.111  30.088   3.844
79305CL-    CL-47778  41.920   4.901   2.196
79306CL-    CL-47779   8.202   2.920  12.992
79307CL-    CL-47780  30.634  14.252   4.733
79308CL-    CL-47781   7.846  27.973   4.723
79309CL-    CL-47782  40.514  41.486  12.543
79310CL-    CL-47783   9.366  15.312   4.677
79311CL-    CL-47784  24.543  19.600   4.679
79312CL-    CL-47785  31.534   5.257   2.793
79313CL-    CL-47786   0.753  21.590   4.770
79314CL-    CL-47787  42.011  28.037   3.365
79315CL-    CL-47788   1.364   4.266   3.811
79316CL-    CL-47789  18.136  27.629   3.775
79317CL-    CL-47790  21.596  25.616  14.490
79318CL-    CL-47791   7.416   0.829  14.503
79319CL-    CL-47792  25.500  27.969   2.750
79320CL-    CL-47793  38.892  39.488   3.696
79321CL-    CL-47794  34.090  24.179  10.427
79322CL-    CL-47795  22.082  40.869  11.919
79323CL-    CL-47796  22.660  28.010   4.839
79324CL-    CL-47797  12.710  16.633  12.420
79325CL-    CL-47798  35.492   5.856  14.821
79326CL-    CL-47799  19.773  22.634   2.882
79327CL-    CL-47800   0.486  35.050   0.938
79328CL-    CL-47801  43.510   7.359   0.815
79329CL-    CL-47802  29.566  24.707  12.060
79330CL-    CL-47803  15.669   4.801  12.932
79331CL-    CL-47804   7.801   5.241  13.410
79332CL-    CL-47805  12.735  14.309  10.506
79333CL-    CL-47806   7.711  20.690  14.933
79334CL-    CL-47807  44.893  35.088   4.143
79335CL-    CL-47808  37.080  36.412   3.243
79336CL-    CL-47809  33.489  17.750  10.537
79337CL-    CL-47810  23.121   0.838  12.399
79338CL-    CL-47811  29.606   8.389   3.810
79339CL-    CL-47812   9.311  12.675   5.209
79340CL-    CL-47813   4.416  37.971  11.517
79341CL-    CL-47814   4.255   0.807  11.971
79342CL-    CL-47815  14.195  15.755   0.345
79343CL-    CL-47816  17.113  15.091   4.718
79344CL-    CL-47817  33.029  23.691   3.368
79345CL-    CL-47818  27.029  15.740  10.645
79346CL-    CL-47819  40.892  10.335  14.905
79347CL-    CL-47820  11.229  19.088  10.905
79348CL-    CL-47821  36.457  42.780  12.023
79349CL-    CL-47822  14.807   6.738  12.074
79350CL-    CL-47823   2.456  16.587  14.492
79351CL-    CL-47824  15.171  24.993   1.762
79352CL-    CL-47825  27.586   9.384  13.389
79353CL-    CL-47826   1.373  12.665   3.698
79354CL-    CL-47827  44.450  32.420  11.596
79355CL-    CL-47828  17.608  25.622  13.377
79356CL-    CL-47829  13.827  21.211   4.758
79357CL-    CL-47830  34.434  28.989   1.718
79358CL-    CL-47831   2.896   5.194   3.286
79359CL-    CL-47832  44.484  32.974  10.929
79360CL-    CL-47833  15.137  42.367   3.253
79361CL-    CL-47834  40.985  33.388  14.858
79362CL-    CL-47835  39.976  13.725  12.076
79363CL-    CL-47836  23.533   4.415   1.320
79364CL-    CL-47837  25.069  25.693   2.371
79365CL-    CL-47838  44.264  17.217   3.318
79366CL-    CL-47839   3.777  25.616  11.890
79367CL-    CL-47840  28.453  32.951  12.456
79368CL-    CL-47841  14.130  16.252  13.416
79369CL-    CL-47842   2.412   0.949  11.018
79370CL-    CL-47843  26.204   2.311   1.916
79371CL-    CL-47844  19.093   9.166  14.868
79372CL-    CL-47845   8.224  12.265   2.383
79373CL-    CL-47846   9.319  23.029   9.558
79374CL-    CL-47847  20.593  29.530  12.061
79375CL-    CL-47848  24.704  11.722  12.886
79376CL-    CL-47849  24.018  28.089  12.437
79377CL-    CL-47850   9.754  32.574   1.358
79378CL-    CL-47851  26.055  11.773   3.255
79379CL-    CL-47852  12.806  14.303   2.198
79380CL-    CL-47853  44.377   3.313   1.877
79381CL-    CL-47854  12.834   3.788   2.281
79382CL-    CL-47855  25.006  20.185   3.808
79383CL-    CL-47856  18.124  43.891   2.399
79384CL-    CL-47857   7.341  27.026   2.227
79385CL-    CL-47858  36.842   4.376  14.313
79386CL-    CL-47859  18.685  33.995   0.395
79387CL-    CL-47860  13.684  11.633  13.934
79388CL-    CL-47861  43.497  23.024   3.854
79389CL-    CL-47862   2.466  41.317   3.830
79390CL-    CL-47863  42.297  21.564   4.651
79391CL-    CL-47864  43.892  44.785   0.943
79392CL-    CL-47865  44.315  35.934  12.020
79393CL-    CL-47866  38.370  32.433  13.975
79394CL-    CL-47867  12.314  16.684  12.042
79395CL-    CL-47868  23.567  43.379   1.925
79396CL-    CL-47869  29.031  39.987  10.936
79397CL-    CL-47870  41.960   0.890   3.280
79398CL-    CL-47871  13.788  30.918  13.458
79399CL-    CL-47872  11.206   6.257   4.716
79400CL-    CL-47873  13.646  34.539   3.685
79401CL-    CL-47874   0.414  18.257   3.171
79402CL-    CL-47875  21.044  37.909  13.424
79403CL-    CL-47876  41.352  35.905   0.299
79404CL-    CL-47877  13.201   6.299  14.492
79405CL-    CL-47878  40.402  38.056   2.835
79406CL-    CL-47879  40.321  19.141   4.154
79407CL-    CL-47880  31.623   5.343   2.210
79408CL-    CL-47881   0.974  13.663  11.374
79409CL-    CL-47882  41.788  15.802  10.138
79410CL-    CL-47883  41.335  20.095  13.979
79411CL-    CL-47884   6.361  13.710   9.516
79412CL-    CL-47885   9.295  13.217  13.900
79413CL-    CL-47886  26.659  22.523  12.478
79414CL-    CL-47887   3.411  11.710   0.835
79415CL-    CL-47888  26.035  31.999  14.418
79416CL-    CL-47889   3.418  10.193   5.163
79417CL-    CL-47890  30.072   2.381   1.777
79418CL-    CL-47891  24.034  33.502   3.662
79419CL-    CL-47892  44.267  15.609   0.753
79420CL-    CL-47893  38.436  40.989  12.452
79421CL-    CL-47894  41.841   9.706   3.383
79422CL-    CL-47895  40.414  35.539  13.948
79423CL-    CL-47896   0.835  44.328  10.025
79424CL-    CL-47897  28.523  42.298   0.471
79425CL-    CL-47898  16.193  13.677  12.374
79426CL-    CL-47899  35.402   7.257  11.440
79427CL-    CL-47900  19.583   4.288   1.391
79428CL-    CL-47901  25.683  44.452  12.863
79429CL-    CL-47902  27.671  41.355   0.807
79430CL-    CL-47903   6.335  18.072  13.983
79431CL-    CL-47904  13.607   7.271   1.295
79432CL-    CL-47905  27.569  11.217   0.245
79433CL-    CL-47906  39.836  26.600   4.718
79434CL-    CL-47907  26.032  27.941   0.433
79435CL-    CL-47908  17.153  36.378   0.381
79436CL-    CL-47909  38.021  10.828  14.502
79437CL-    CL-47910   8.397  41.975   4.148
79438CL-    CL-47911  34.084  19.110  11.044
79439CL-    CL-47912  14.757   4.421   2.250
79440CL-    CL-47913   1.930  23.096  12.933
79441CL-    CL-47914  11.271  24.556   1.881
79442CL-    CL-47915  18.252  26.471   4.748
79443CL-    CL-47916  26.572  32.958   0.435
79444CL-    CL-47917   6.273  19.269  10.628
79445CL-    CL-47918  23.516  14.185  10.926
79446CL-    CL-47919  37.023  40.413   1.837
79447CL-    CL-47920  38.547   7.385   1.212
79448CL-    CL-47921   9.356  32.506   3.243
79449CL-    CL-47922  29.130  33.498   1.884
79450CL-    CL-47923  42.941   6.332   0.846
79451CL-    CL-47924  36.900   5.305  13.929
79452CL-    CL-47925  10.855  22.637  14.768
79453CL-    CL-47926  18.788  42.896   2.281
79454CL-    CL-47927  36.523  24.723  12.488
79455CL-    CL-47928  22.699  37.441   5.225
79456CL-    CL-47929  26.500  20.666   1.932
79457CL-    CL-47930   4.224  31.908   2.366
79458CL-    CL-47931  19.111  10.176  13.314
79459CL-    CL-47932  29.052   2.737   0.439
79460CL-    CL-47933  39.927  23.547  12.407
79461CL-    CL-47934  40.861   4.916   0.271
79462CL-    CL-47935   9.212  26.004  12.062
79463CL-    CL-47936  21.198  12.319  12.879
79464CL-    CL-47937  13.683  21.750   1.909
79465CL-    CL-47938  30.565  21.536  14.402
79466CL-    CL-47939  19.170   4.420   3.288
79467CL-    CL-47940   9.699   2.765  12.893
79468CL-    CL-47941  34.099  18.060   4.764
79469CL-    CL-47942  16.730  18.563  12.437
79470CL-    CL-47943  22.582  43.770  13.832
79471CL-    CL-47944  13.756  28.557  13.918
79472CL-    CL-47945  43.410  27.509  11.455
79473CL-    CL-47946  30.509   3.803  10.931
79474CL-    CL-47947   1.886  15.609  11.543
79475CL-    CL-47948  32.001  21.721   1.711
79476CL-    CL-47949   4.293  41.933  12.486
79477CL-    CL-47950  15.308  42.338  13.351
79478CL-    CL-47951   4.228  37.551  11.535
79479CL-    CL-47952  42.806  31.550  10.612
79480CL-    CL-47953   0.276   2.961  12.962
79481CL-    CL-47954  44.384  25.632   4.832
79482CL-    CL-47955   9.765  15.105  11.545
79483CL-    CL-47956  20.729  14.740   4.298
79484CL-    CL-47957  44.269  12.854  14.887
79485CL-    CL-47958   3.347  31.528  12.036
79486CL-    CL-47959  42.945  41.392  11.602
79487CL-    CL-47960  10.834  15.758  10.642
79488CL-    CL-47961  28.131  34.051   2.306
79489CL-    CL-47962  42.436  39.815   2.229
79490CL-    CL-47963   8.851  16.151  13.307
79491CL-    CL-47964  28.983   8.240   1.923
79492CL-    CL-47965  17.187   8.318  13.538
79493CL-    CL-47966  25.007  12.810   3.303
79494CL-    CL-47967  10.636  38.337   0.881
79495CL-    CL-47968   1.920  27.105  11.935
79496CL-    CL-47969  18.693  44.402  10.443
79497CL-    CL-47970  26.658   6.243   3.709
79498CL-    CL-47971  21.631  14.293   1.443
79499CL-    CL-47972  30.007   7.310  11.554
79500CL-    CL-47973   8.773  19.651  14.790
79501CL-    CL-47974   1.280  10.766   2.374
79502CL-    CL-47975  11.841  41.979  12.012
79503CL-    CL-47976  32.421  21.100   4.299
79504CL-    CL-47977   1.385  26.612  14.777
79505CL-    CL-47978  43.769  24.724  10.583
79506CL-    CL-47979   3.417  24.607   3.202
79507CL-    CL-47980  28.668  15.251   4.118
79508CL-    CL-47981  26.047  38.364   4.781
79509CL-    CL-47982  41.996   7.298  10.966
79510CL-    CL-47983  16.084  37.368  13.342
79511CL-    CL-47984  26.499  41.958  14.346
79512CL-    CL-47985   3.371  43.000   2.292
79513CL-    CL-47986  32.910  17.140  11.965
79514CL-    CL-47987   2.238  16.743   4.216
79515CL-    CL-47988  12.260  43.303  14.309
79516CL-    CL-47989  20.641  40.813   2.236
79517CL-    CL-47990  43.824   1.951   4.122
79518CL-    CL-47991  31.403  41.891   2.213
79519CL-    CL-47992  37.366   7.201   4.772
79520CL-    CL-47993  32.139  32.098   1.797
79521CL-    CL-47994   4.833  15.716  13.856
79522CL-    CL-47995   7.223  29.443  11.926
79523CL-    CL-47996  43.345   3.829   3.819
79524CL-    CL-47997  18.587  36.370   2.207
79525CL-    CL-47998   6.853   2.351  12.407
79526CL-    CL-47999  14.776   0.913  13.862
79527CL-    CL-48000  34.502  35.033   2.763
79528CL-    CL-48001   4.894  41.042   0.292
79529CL-    CL-48002  33.040   7.215   3.277
79530CL-    CL-48003   3.402  43.319   3.277
79531CL-    CL-48004  29.439  18.157   1.725
79532CL-    CL-48005  44.398  35.575  14.366
79533CL-    CL-48006   5.892   3.878   2.791
79534CL-    CL-48007  34.406   8.703   0.731
79535CL-    CL-48008   6.751  25.492  13.041
79536CL-    CL-48009  13.298  38.874  14.397
79537CL-    CL-48010   6.415  27.992   1.708
79538CL-    CL-48011   7.253  29.961  11.936
79539CL-    CL-48012  24.112  11.288   2.806
79540CL-    CL-48013  17.567  16.117  14.809
79541CL-    CL-48014   6.224  44.821   9.983
79542CL-    CL-48015  26.035  32.630   0.420
79543CL-    CL-48016   3.357  28.551   1.371
79544CL-    CL-48017  12.202  28.609  10.889
79545CL-    CL-48018  38.898  34.053  11.387
79546CL-    CL-48019  10.846  38.980  14.862
79547CL-    CL-48020   7.318  35.535   2.855
79548CL-    CL-48021  12.202  14.782  11.906
79549CL-    CL-48022  42.801   8.356   3.279
79550CL-    CL-48023  26.013  14.157   1.811
79551CL-    CL-48024  40.335  27.999  10.090
79552CL-    CL-48025  21.226  26.631  12.084
79553CL-    CL-48026  14.681  33.970  12.467
79554CL-    CL-48027  14.276  30.164  14.810
79555CL-    CL-48028  16.096  11.826   0.326
79556CL-    CL-48029   9.764  34.083  12.470
79557CL-    CL-48030  19.083  22.735   0.334
79558CL-    CL-48031   7.268   4.940  12.029
79559CL-    CL-48032  11.824   3.446  12.942
79560CL-    CL-48033  18.632  22.157   4.222
79561CL-    CL-48034  31.498  35.463   1.734
79562CL-    CL-48035   6.357  26.577  10.930
79563CL-    CL-48036   4.444  11.727   1.800
79564CL-    CL-48037  17.288  26.168  12.506
79565CL-    CL-48038  42.378  19.206  14.888
79566CL-    CL-48039  37.053   7.289   1.935
79567CL-    CL-48040   2.316  40.942  11.055
79568CL-    CL-48041  33.987  40.388   2.356
79569CL-    CL-48042   0.884  31.568   0.478
79570CL-    CL-48043   5.381  24.507   2.184
79571CL-    CL-48044   5.301  22.671   0.794
79572CL-    CL-48045  43.835   1.931   3.255
79573CL-    CL-48046  14.667  44.487   4.329
  45.00000  45.00000  15.00000   0.00000   0.00000   0.00000   0.00000   0.00000   0.00000

